<event>
 4    1  0.4447136E+006  0.2212632E+02  0.7546771E-02  0.1706077E+00
         21   -1    0    0  504  501  0.00000000000E+00  0.00000000000E+00  0.80022354689E+03  0.80022354689E+03  0.00000000000E+00 0. -1.
         21   -1    0    0  503  502 -0.00000000000E+00 -0.00000000000E+00 -0.21412158696E+01  0.21412158696E+01  0.00000000000E+00 0. -1.
         21    1    1    2  503  501 -0.21541797526E+02 -0.50522188506E+01  0.59982444144E+02  0.63933305573E+02  0.00000000000E+00 0. -1.
         21    1    1    2  504  502  0.21541797526E+02  0.50522188506E+01  0.73809988687E+03  0.73843145718E+03  0.00000000000E+00 0. -1.
<mgrwt>
<rscale>  2 0.22126318E+02</rscale>
<asrwt>0</asrwt>
<pdfrwt beam="1">  1       21 0.12311108E+00 0.22126318E+02</pdfrwt>
<pdfrwt beam="2">  1       21 0.32941846E-03 0.22126318E+02</pdfrwt>
<totfact> 0.89126133E+06</totfact>
</mgrwt>
</event>
<event>
 4    1  0.4447136E+006  0.3129664E+02  0.7546771E-02  0.1584183E+00
         21   -1    0    0  504  501  0.00000000000E+00  0.00000000000E+00  0.33389972058E+01  0.33389972058E+01  0.00000000000E+00 0. -1.
         21   -1    0    0  503  502 -0.00000000000E+00 -0.00000000000E+00 -0.41871861070E+03  0.41871861070E+03  0.00000000000E+00 0.  1.
         21    1    1    2  503  501 -0.30522527475E+02  0.69177328550E+01 -0.92216167120E+02  0.97382242681E+02  0.00000000000E+00 0. -1.
         21    1    1    2  504  502  0.30522527475E+02 -0.69177328550E+01 -0.32316344637E+03  0.32467536522E+03  0.00000000000E+00 0.  1.
<mgrwt>
<rscale>  2 0.31296641E+02</rscale>
<asrwt>0</asrwt>
<pdfrwt beam="1">  1       21 0.51369195E-03 0.31296641E+02</pdfrwt>
<pdfrwt beam="2">  1       21 0.64418239E-01 0.31296641E+02</pdfrwt>
<totfact> 0.19770670E+07</totfact>
</mgrwt>
</event>
<event>
 4    1  0.4447136E+006  0.1867021E+03  0.7546771E-02  0.1161470E+00
         21   -1    0    0  502  501  0.00000000000E+00  0.00000000000E+00  0.75644929438E+03  0.75644929438E+03  0.00000000000E+00 0. -1.
         21   -1    0    0  504  502 -0.00000000000E+00 -0.00000000000E+00 -0.48170579648E+02  0.48170579648E+02  0.00000000000E+00 0. -1.
         21    1    1    2  503  501  0.10389175936E+03 -0.15512633748E+03  0.27034105198E+03  0.32854522159E+03  0.00000000000E+00 0. -1.
         21    1    1    2  504  503 -0.10389175936E+03  0.15512633748E+03  0.43793766276E+03  0.47607465245E+03  0.00000000000E+00 0. -1.
<mgrwt>
<rscale>  2 0.18670211E+03</rscale>
<asrwt>0</asrwt>
<pdfrwt beam="1">  1       21 0.11637681E+00 0.18670211E+03</pdfrwt>
<pdfrwt beam="2">  1       21 0.74108590E-02 0.18670211E+03</pdfrwt>
<totfact> 0.78260703E+04</totfact>
</mgrwt>
</event>
<event>
 4    1  0.4447136E+006  0.2490039E+02  0.7546771E-02  0.1662437E+00
         21   -1    0    0  503  501  0.00000000000E+00  0.00000000000E+00  0.70558177682E+01  0.70558177682E+01  0.00000000000E+00 0.  1.
         21   -1    0    0  504  502 -0.00000000000E+00 -0.00000000000E+00 -0.20780691474E+03  0.20780691474E+03  0.00000000000E+00 0.  1.
         21    1    1    2  503  502  0.13155252243E+02 -0.21141634136E+02 -0.18199029708E+03  0.18368586659E+03  0.00000000000E+00 0.  1.
         21    1    1    2  504  501 -0.13155252243E+02  0.21141634136E+02 -0.18760799889E+02  0.31176865911E+02  0.00000000000E+00 0.  1.
<mgrwt>
<rscale>  2 0.24900389E+02</rscale>
<asrwt>0</asrwt>
<pdfrwt beam="1">  1       21 0.10855103E-02 0.24900389E+02</pdfrwt>
<pdfrwt beam="2">  1       21 0.31970298E-01 0.24900389E+02</pdfrwt>
<totfact> 0.23956172E+07</totfact>
</mgrwt>
</event>
<event>
 4    1  0.4447136E+006  0.2067993E+02  0.7546771E-02  0.1732135E+00
         21   -1    0    0  502  501  0.00000000000E+00  0.00000000000E+00  0.10739667533E+03  0.10739667533E+03  0.00000000000E+00 0. -1.
         21   -1    0    0  504  502 -0.00000000000E+00 -0.00000000000E+00 -0.62583887364E+01  0.62583887364E+01  0.00000000000E+00 0.  1.
         21    1    1    2  503  501  0.19095867312E+02 -0.79377130643E+01  0.84841622574E+02  0.87325599672E+02  0.00000000000E+00 0. -1.
         21    1    1    2  504  503 -0.19095867312E+02  0.79377130643E+01  0.16296664018E+02  0.26329464393E+02  0.00000000000E+00 0.  1.
<mgrwt>
<rscale>  2 0.20679928E+02</rscale>
<asrwt>0</asrwt>
<pdfrwt beam="1">  1       21 0.16522564E-01 0.20679928E+02</pdfrwt>
<pdfrwt beam="2">  1       21 0.96282912E-03 0.20679928E+02</pdfrwt>
<totfact> 0.88080651E+07</totfact>
</mgrwt>
</event>
<event>
 4    1  0.4447136E+006  0.2009847E+02  0.7546771E-02  0.1743377E+00
         21   -1    0    0  502  501  0.00000000000E+00  0.00000000000E+00  0.14900919646E+02  0.14900919646E+02  0.00000000000E+00 0. -1.
         21   -1    0    0  503  502 -0.00000000000E+00 -0.00000000000E+00 -0.36367645812E+03  0.36367645812E+03  0.00000000000E+00 0. -1.
         21    1    1    2  503  504  0.94911268251E+01 -0.17716287301E+02 -0.35648492426E+03  0.35705104614E+03  0.00000000000E+00 0. -1.
         21    1    1    2  504  501 -0.94911268251E+01  0.17716287301E+02  0.77093857864E+01  0.21526331628E+02  0.00000000000E+00 0. -1.
<mgrwt>
<rscale>  2 0.20098466E+02</rscale>
<asrwt>0</asrwt>
<pdfrwt beam="1">  1       21 0.22924493E-02 0.20098466E+02</pdfrwt>
<pdfrwt beam="2">  1       21 0.55950220E-01 0.20098466E+02</pdfrwt>
<totfact> 0.25584249E+06</totfact>
</mgrwt>
</event>
<event>
 4    1  0.4447136E+006  0.2134680E+02  0.7546771E-02  0.1719800E+00
         21   -1    0    0  504  501  0.00000000000E+00  0.00000000000E+00  0.32692250691E+03  0.32692250691E+03  0.00000000000E+00 0.  1.
         21   -1    0    0  503  502 -0.00000000000E+00 -0.00000000000E+00 -0.13982701855E+01  0.13982701855E+01  0.00000000000E+00 0.  1.
         21    1    1    2  503  501 -0.16689556281E+02 -0.13309563688E+02  0.15354776585E+03  0.15502452119E+03  0.00000000000E+00 0.  1.
         21    1    1    2  504  502  0.16689556281E+02  0.13309563688E+02  0.17197647088E+03  0.17329625591E+03  0.00000000000E+00 0.  1.
<mgrwt>
<rscale>  2 0.21346798E+02</rscale>
<asrwt>0</asrwt>
<pdfrwt beam="1">  1       21 0.50295709E-01 0.21346798E+02</pdfrwt>
<pdfrwt beam="2">  1       21 0.21511875E-03 0.21346798E+02</pdfrwt>
<totfact> 0.10683698E+08</totfact>
</mgrwt>
</event>
<event>
 4    1  0.4447136E+006  0.2331484E+02  0.7546771E-02  0.1686457E+00
         21   -1    0    0  502  501  0.00000000000E+00  0.00000000000E+00  0.35079805878E+01  0.35079805878E+01  0.00000000000E+00 0. -1.
         21   -1    0    0  504  502 -0.00000000000E+00 -0.00000000000E+00 -0.47763177357E+03  0.47763177357E+03  0.00000000000E+00 0.  1.
         21    1    1    2  503  501  0.22879983091E+02  0.44820047939E+01 -0.39329447433E+02  0.45720754900E+02  0.00000000000E+00 0. -1.
         21    1    1    2  504  503 -0.22879983091E+02 -0.44820047939E+01 -0.43479434555E+03  0.43541899925E+03  0.00000000000E+00 0.  1.
<mgrwt>
<rscale>  2 0.23314845E+02</rscale>
<asrwt>0</asrwt>
<pdfrwt beam="1">  1       21 0.53968916E-03 0.23314845E+02</pdfrwt>
<pdfrwt beam="2">  1       21 0.73481833E-01 0.23314845E+02</pdfrwt>
<totfact> 0.13321440E+07</totfact>
</mgrwt>
</event>
<event>
 4    1  0.4447136E+006  0.2148067E+02  0.7546771E-02  0.1717391E+00
         21   -1    0    0  504  501  0.00000000000E+00  0.00000000000E+00  0.92285867706E+03  0.92285867706E+03  0.00000000000E+00 0.  1.
         21   -1    0    0  503  502 -0.00000000000E+00 -0.00000000000E+00 -0.20867232953E+01  0.20867232953E+01  0.00000000000E+00 0. -1.
         21    1    1    2  503  501 -0.40769103409E+01  0.21090239080E+02  0.86366510410E+03  0.86393219145E+03  0.00000000000E+00 0.  1.
         21    1    1    2  504  502  0.40769103409E+01 -0.21090239080E+02  0.57106849665E+02  0.61013208907E+02  0.00000000000E+00 0. -1.
<mgrwt>
<rscale>  2 0.21480675E+02</rscale>
<asrwt>0</asrwt>
<pdfrwt beam="1">  1       21 0.14197793E+00 0.21480675E+02</pdfrwt>
<pdfrwt beam="2">  1       21 0.32103509E-03 0.21480675E+02</pdfrwt>
<totfact> 0.66348863E+06</totfact>
</mgrwt>
</event>
<event>
 4    1  0.4447136E+006  0.2230611E+02  0.7546771E-02  0.1703011E+00
         21   -1    0    0  504  501  0.00000000000E+00  0.00000000000E+00  0.54488728104E+03  0.54488728104E+03  0.00000000000E+00 0. -1.
         21   -1    0    0  503  502 -0.00000000000E+00 -0.00000000000E+00 -0.28051527934E+01  0.28051527934E+01  0.00000000000E+00 0.  1.
         21    1    1    2  503  501  0.18781764414E+02  0.12033614926E+02  0.49594115785E+03  0.49644253909E+03  0.00000000000E+00 0. -1.
         21    1    1    2  504  502 -0.18781764414E+02 -0.12033614926E+02  0.46140970396E+02  0.51249894749E+02  0.00000000000E+00 0.  1.
<mgrwt>
<rscale>  2 0.22306110E+02</rscale>
<asrwt>0</asrwt>
<pdfrwt beam="1">  1       21 0.83828728E-01 0.22306110E+02</pdfrwt>
<pdfrwt beam="2">  1       21 0.43156240E-03 0.22306110E+02</pdfrwt>
<totfact> 0.13947997E+07</totfact>
</mgrwt>
</event>
<event>
 4    1  0.4447136E+006  0.2057969E+02  0.7546771E-02  0.1734040E+00
         21   -1    0    0  504  501  0.00000000000E+00  0.00000000000E+00  0.25747563407E+03  0.25747563407E+03  0.00000000000E+00 0.  1.
         21   -1    0    0  503  502 -0.00000000000E+00 -0.00000000000E+00 -0.17176234613E+01  0.17176234613E+01  0.00000000000E+00 0.  1.
         21    1    1    2  503  501  0.18008844600E+02  0.99601816881E+01  0.10121389284E+03  0.10328492536E+03  0.00000000000E+00 0.  1.
         21    1    1    2  504  502 -0.18008844600E+02 -0.99601816881E+01  0.15454411777E+03  0.15590833217E+03  0.00000000000E+00 0.  1.
<mgrwt>
<rscale>  2 0.20579692E+02</rscale>
<asrwt>0</asrwt>
<pdfrwt beam="1">  1       21 0.39611605E-01 0.20579692E+02</pdfrwt>
<pdfrwt beam="2">  1       21 0.26424997E-03 0.20579692E+02</pdfrwt>
<totfact> 0.12383274E+08</totfact>
</mgrwt>
</event>
<event>
 4    1  0.4447136E+006  0.2140478E+02  0.7546771E-02  0.1718754E+00
         21   -1    0    0  502  501  0.00000000000E+00  0.00000000000E+00  0.77959758980E+02  0.77959758980E+02  0.00000000000E+00 0.  1.
         21   -1    0    0  504  502 -0.00000000000E+00 -0.00000000000E+00 -0.57019172277E+02  0.57019172277E+02  0.00000000000E+00 0.  1.
         21    1    1    2  503  501 -0.18984105187E+02  0.98877858201E+01  0.74387147233E+02  0.77405505177E+02  0.00000000000E+00 0.  1.
         21    1    1    2  504  503  0.18984105187E+02 -0.98877858201E+01 -0.53446560530E+02  0.57573426081E+02  0.00000000000E+00 0.  1.
<mgrwt>
<rscale>  2 0.21404779E+02</rscale>
<asrwt>0</asrwt>
<pdfrwt beam="1">  1       21 0.11993809E-01 0.21404779E+02</pdfrwt>
<pdfrwt beam="2">  1       21 0.87721803E-02 0.21404779E+02</pdfrwt>
<totfact> 0.49101598E+06</totfact>
</mgrwt>
</event>
<event>
 4    1  0.4447136E+006  0.2320906E+02  0.7546771E-02  0.1688144E+00
         21   -1    0    0  502  501  0.00000000000E+00  0.00000000000E+00  0.15687180079E+03  0.15687180079E+03  0.00000000000E+00 0. -1.
         21   -1    0    0  503  502 -0.00000000000E+00 -0.00000000000E+00 -0.27315612586E+02  0.27315612586E+02  0.00000000000E+00 0. -1.
         21    1    1    2  503  504  0.85855755499E+01 -0.21562661441E+02 -0.21332872988E+02  0.31523831395E+02  0.00000000000E+00 0. -1.
         21    1    1    2  504  501 -0.85855755499E+01  0.21562661441E+02  0.15088906119E+03  0.15266358198E+03  0.00000000000E+00 0. -1.
<mgrwt>
<rscale>  2 0.23209060E+02</rscale>
<asrwt>0</asrwt>
<pdfrwt beam="1">  1       21 0.24134123E-01 0.23209060E+02</pdfrwt>
<pdfrwt beam="2">  1       21 0.42024020E-02 0.23209060E+02</pdfrwt>
<totfact> 0.48757131E+06</totfact>
</mgrwt>
</event>
<event>
 4    1  0.4447136E+006  0.2186277E+02  0.7546771E-02  0.1710636E+00
         21   -1    0    0  503  501  0.00000000000E+00  0.00000000000E+00  0.60390780949E+01  0.60390780949E+01  0.00000000000E+00 0. -1.
         21   -1    0    0  504  502 -0.00000000000E+00 -0.00000000000E+00 -0.23611927538E+03  0.23611927538E+03  0.00000000000E+00 0. -1.
         21    1    1    2  503  502 -0.15261201674E+02 -0.15654919683E+02 -0.21376208157E+03  0.21487719354E+03  0.00000000000E+00 0. -1.
         21    1    1    2  504  501  0.15261201674E+02  0.15654919683E+02 -0.16318115713E+02  0.27281159932E+02  0.00000000000E+00 0. -1.
<mgrwt>
<rscale>  2 0.21862772E+02</rscale>
<asrwt>0</asrwt>
<pdfrwt beam="1">  1       21 0.92908906E-03 0.21862772E+02</pdfrwt>
<pdfrwt beam="2">  1       21 0.36326038E-01 0.21862772E+02</pdfrwt>
<totfact> 0.23246678E+07</totfact>
</mgrwt>
</event>
<event>
 4    1  0.4447136E+006  0.2043742E+02  0.7546771E-02  0.1736767E+00
         21   -1    0    0  504  501  0.00000000000E+00  0.00000000000E+00  0.30225731363E+03  0.30225731363E+03  0.00000000000E+00 0. -1.
         21   -1    0    0  501  502 -0.00000000000E+00 -0.00000000000E+00 -0.57490888126E+01  0.57490888126E+01  0.00000000000E+00 0.  1.
         21    1    1    2  503  502 -0.20093937611E+02  0.37312103042E+01  0.14029731755E+02  0.24789546833E+02  0.00000000000E+00 0.  1.
         21    1    1    2  504  503  0.20093937611E+02 -0.37312103042E+01  0.28247849306E+03  0.28321685561E+03  0.00000000000E+00 0. -1.
<mgrwt>
<rscale>  2 0.20437423E+02</rscale>
<asrwt>0</asrwt>
<pdfrwt beam="1">  1       21 0.46501113E-01 0.20437423E+02</pdfrwt>
<pdfrwt beam="2">  1       21 0.88447544E-03 0.20437423E+02</pdfrwt>
<totfact> 0.15487162E+07</totfact>
</mgrwt>
</event>
<event>
 4    1  0.4447136E+006  0.2101728E+02  0.7546771E-02  0.1725824E+00
         21   -1    0    0  504  501  0.00000000000E+00  0.00000000000E+00  0.47698399309E+02  0.47698399309E+02  0.00000000000E+00 0. -1.
         21   -1    0    0  501  502 -0.00000000000E+00 -0.00000000000E+00 -0.25869375857E+02  0.25869375857E+02  0.00000000000E+00 0. -1.
         21    1    1    2  503  502  0.21002173466E+02  0.79666637838E+00 -0.18558917947E+02  0.28038534252E+02  0.00000000000E+00 0. -1.
         21    1    1    2  504  503 -0.21002173466E+02 -0.79666637838E+00  0.40387941400E+02  0.45529240914E+02  0.00000000000E+00 0. -1.
<mgrwt>
<rscale>  2 0.21017278E+02</rscale>
<asrwt>0</asrwt>
<pdfrwt beam="1">  1       21 0.73382153E-02 0.21017278E+02</pdfrwt>
<pdfrwt beam="2">  1       21 0.39799040E-02 0.21017278E+02</pdfrwt>
<totfact> 0.38839271E+07</totfact>
</mgrwt>
</event>
<event>
 4    1  0.4447136E+006  0.2209010E+02  0.7546771E-02  0.1706698E+00
         21   -1    0    0  503  501  0.00000000000E+00  0.00000000000E+00  0.39495951845E+01  0.39495951845E+01  0.00000000000E+00 0.  1.
         21   -1    0    0  501  502 -0.00000000000E+00 -0.00000000000E+00 -0.27022977818E+03  0.27022977818E+03  0.00000000000E+00 0.  1.
         21    1    1    2  503  504  0.21486309650E+02 -0.51294456276E+01 -0.32139662694E+02  0.38999110668E+02  0.00000000000E+00 0.  1.
         21    1    1    2  504  502 -0.21486309650E+02  0.51294456276E+01 -0.23414052030E+03  0.23518026269E+03  0.00000000000E+00 0.  1.
<mgrwt>
<rscale>  2 0.22090104E+02</rscale>
<asrwt>0</asrwt>
<pdfrwt beam="1">  1       21 0.60762966E-03 0.22090104E+02</pdfrwt>
<pdfrwt beam="2">  1       21 0.41573837E-01 0.22090104E+02</pdfrwt>
<totfact> 0.34040430E+07</totfact>
</mgrwt>
</event>
<event>
 4    1  0.4447136E+006  0.2631942E+02  0.7546771E-02  0.1642743E+00
         21   -1    0    0  502  501  0.00000000000E+00  0.00000000000E+00  0.61732449459E+01  0.61732449459E+01  0.00000000000E+00 0. -1.
         21   -1    0    0  504  502 -0.00000000000E+00 -0.00000000000E+00 -0.42740794299E+03  0.42740794299E+03  0.00000000000E+00 0.  1.
         21    1    1    2  503  501  0.84098150592E+01  0.24939663847E+02 -0.24447439287E+02  0.35921986440E+02  0.00000000000E+00 0. -1.
         21    1    1    2  504  503 -0.84098150592E+01 -0.24939663847E+02 -0.39678725876E+03  0.39765920149E+03  0.00000000000E+00 0.  1.
<mgrwt>
<rscale>  2 0.26319419E+02</rscale>
<asrwt>0</asrwt>
<pdfrwt beam="1">  1       21 0.94972962E-03 0.26319419E+02</pdfrwt>
<pdfrwt beam="2">  1       21 0.65755094E-01 0.26319419E+02</pdfrwt>
<totfact> 0.73457263E+06</totfact>
</mgrwt>
</event>
<event>
 4    1  0.4447136E+006  0.2988121E+02  0.7546771E-02  0.1599405E+00
         21   -1    0    0  503  501  0.00000000000E+00  0.00000000000E+00  0.27136533341E+03  0.27136533341E+03  0.00000000000E+00 0. -1.
         21   -1    0    0  504  502 -0.00000000000E+00 -0.00000000000E+00 -0.88217201166E+01  0.88217201166E+01  0.00000000000E+00 0. -1.
         21    1    1    2  503  502 -0.20264660633E+02 -0.21959747085E+02  0.20339566004E+02  0.36146713652E+02  0.00000000000E+00 0. -1.
         21    1    1    2  504  501  0.20264660633E+02  0.21959747085E+02  0.24220404729E+03  0.24404033988E+03  0.00000000000E+00 0. -1.
<mgrwt>
<rscale>  2 0.29881214E+02</rscale>
<asrwt>0</asrwt>
<pdfrwt beam="1">  1       21 0.41748507E-01 0.29881214E+02</pdfrwt>
<pdfrwt beam="2">  1       21 0.13571879E-02 0.29881214E+02</pdfrwt>
<totfact> 0.10688457E+07</totfact>
</mgrwt>
</event>
<event>
 4    1  0.4447136E+006  0.2467514E+02  0.7546771E-02  0.1665712E+00
         21   -1    0    0  503  501  0.00000000000E+00  0.00000000000E+00  0.10568076261E+03  0.10568076261E+03  0.00000000000E+00 0. -1.
         21   -1    0    0  504  502 -0.00000000000E+00 -0.00000000000E+00 -0.86515631837E+01  0.86515631837E+01  0.00000000000E+00 0.  1.
         21    1    1    2  503  502 -0.14384827124E+01 -0.24633177101E+02  0.81555932210E+02  0.85206999274E+02  0.00000000000E+00 0. -1.
         21    1    1    2  504  501  0.14384827124E+01  0.24633177101E+02  0.15473267219E+02  0.29125326523E+02  0.00000000000E+00 0.  1.
<mgrwt>
<rscale>  2 0.24675142E+02</rscale>
<asrwt>0</asrwt>
<pdfrwt beam="1">  1       21 0.16258578E-01 0.24675142E+02</pdfrwt>
<pdfrwt beam="2">  1       21 0.13310098E-02 0.24675142E+02</pdfrwt>
<totfact> 0.58287428E+07</totfact>
</mgrwt>
</event>
<event>
 4    1  0.4447136E+006  0.3454782E+02  0.7546771E-02  0.1552653E+00
         21   -1    0    0  503  501  0.00000000000E+00  0.00000000000E+00  0.86218237729E+02  0.86218237729E+02  0.00000000000E+00 0.  1.
         21   -1    0    0  501  502 -0.00000000000E+00 -0.00000000000E+00 -0.75850084684E+02  0.75850084684E+02  0.00000000000E+00 0. -1.
         21    1    1    2  503  504 -0.33103992244E+02 -0.98831933119E+01  0.78451249147E+02  0.85721352680E+02  0.00000000000E+00 0.  1.
         21    1    1    2  504  502  0.33103992244E+02  0.98831933119E+01 -0.68083096102E+02  0.76346969733E+02  0.00000000000E+00 0. -1.
<mgrwt>
<rscale>  2 0.34547819E+02</rscale>
<asrwt>0</asrwt>
<pdfrwt beam="1">  1       21 0.13264344E-01 0.34547819E+02</pdfrwt>
<pdfrwt beam="2">  1       21 0.11669244E-01 0.34547819E+02</pdfrwt>
<totfact> 0.27459430E+06</totfact>
</mgrwt>
</event>
<event>
 4    1  0.4447136E+006  0.2612835E+02  0.7546771E-02  0.1645305E+00
         21   -1    0    0  503  501  0.00000000000E+00  0.00000000000E+00  0.32115988656E+03  0.32115988656E+03  0.00000000000E+00 0.  1.
         21   -1    0    0  501  502 -0.00000000000E+00 -0.00000000000E+00 -0.34318831269E+02  0.34318831269E+02  0.00000000000E+00 0. -1.
         21    1    1    2  503  504 -0.22865649599E+02 -0.12643293269E+02  0.31556732567E+03  0.31664716614E+03  0.00000000000E+00 0.  1.
         21    1    1    2  504  502  0.22865649599E+02  0.12643293269E+02 -0.28726270380E+02  0.38831551684E+02  0.00000000000E+00 0. -1.
<mgrwt>
<rscale>  2 0.26128352E+02</rscale>
<asrwt>0</asrwt>
<pdfrwt beam="1">  1       21 0.49409211E-01 0.26128352E+02</pdfrwt>
<pdfrwt beam="2">  1       21 0.52798204E-02 0.26128352E+02</pdfrwt>
<totfact> 0.90823472E+05</totfact>
</mgrwt>
</event>
<event>
 4    1  0.4447136E+006  0.3424509E+02  0.7546771E-02  0.1555408E+00
         21   -1    0    0  502  501  0.00000000000E+00  0.00000000000E+00  0.44673298999E+02  0.44673298999E+02  0.00000000000E+00 0.  1.
         21   -1    0    0  503  502 -0.00000000000E+00 -0.00000000000E+00 -0.78875007501E+02  0.78875007501E+02  0.00000000000E+00 0.  1.
         21    1    1    2  503  504 -0.31239713109E+02  0.14028767031E+02 -0.67558663156E+02  0.75742319392E+02  0.00000000000E+00 0.  1.
         21    1    1    2  504  501  0.31239713109E+02 -0.14028767031E+02  0.33356954653E+02  0.47805987107E+02  0.00000000000E+00 0.  1.
<mgrwt>
<rscale>  2 0.34245087E+02</rscale>
<asrwt>0</asrwt>
<pdfrwt beam="1">  1       21 0.68728153E-02 0.34245087E+02</pdfrwt>
<pdfrwt beam="2">  1       21 0.12134616E-01 0.34245087E+02</pdfrwt>
<totfact> 0.77266698E+06</totfact>
</mgrwt>
</event>
<event>
 4    1  0.4447136E+006  0.3070853E+02  0.7546771E-02  0.1590386E+00
         21   -1    0    0  503  501  0.00000000000E+00  0.00000000000E+00  0.14649459006E+03  0.14649459006E+03  0.00000000000E+00 0. -1.
         21   -1    0    0  504  502 -0.00000000000E+00 -0.00000000000E+00 -0.70785692136E+01  0.70785692136E+01  0.00000000000E+00 0. -1.
         21    1    1    2  503  502  0.15286383229E+02 -0.26633443656E+02  0.92821699954E+02  0.97769534189E+02  0.00000000000E+00 0. -1.
         21    1    1    2  504  501 -0.15286383229E+02  0.26633443656E+02  0.46594320895E+02  0.55803625087E+02  0.00000000000E+00 0. -1.
<mgrwt>
<rscale>  2 0.30708530E+02</rscale>
<asrwt>0</asrwt>
<pdfrwt beam="1">  1       21 0.22537627E-01 0.30708530E+02</pdfrwt>
<pdfrwt beam="2">  1       21 0.10890108E-02 0.30708530E+02</pdfrwt>
<totfact> 0.46900883E+07</totfact>
</mgrwt>
</event>
<event>
 4    1  0.4447136E+006  0.2275890E+02  0.7546771E-02  0.1695448E+00
         21   -1    0    0  502  501  0.00000000000E+00  0.00000000000E+00  0.12003755089E+03  0.12003755089E+03  0.00000000000E+00 0.  1.
         21   -1    0    0  504  502 -0.00000000000E+00 -0.00000000000E+00 -0.55089632712E+01  0.55089632712E+01  0.00000000000E+00 0.  1.
         21    1    1    2  503  501 -0.12636872989E+02 -0.18928199909E+02  0.86487456136E+02  0.89431802954E+02  0.00000000000E+00 0.  1.
         21    1    1    2  504  503  0.12636872989E+02  0.18928199909E+02  0.28041131482E+02  0.36114711207E+02  0.00000000000E+00 0.  1.
<mgrwt>
<rscale>  2 0.22758895E+02</rscale>
<asrwt>0</asrwt>
<pdfrwt beam="1">  1       21 0.18467314E-01 0.22758895E+02</pdfrwt>
<pdfrwt beam="2">  1       21 0.84753290E-03 0.22758895E+02</pdfrwt>
<totfact> 0.90396049E+07</totfact>
</mgrwt>
</event>
<event>
 4    1  0.4447136E+006  0.2787218E+02  0.7546771E-02  0.1622874E+00
         21   -1    0    0  503  501  0.00000000000E+00  0.00000000000E+00  0.19827536857E+02  0.19827536857E+02  0.00000000000E+00 0. -1.
         21   -1    0    0  504  502 -0.00000000000E+00 -0.00000000000E+00 -0.34834990404E+03  0.34834990404E+03  0.00000000000E+00 0.  1.
         21    1    1    2  503  502  0.26316068666E+02  0.91827622787E+01 -0.33768845088E+03  0.33883675782E+03  0.00000000000E+00 0.  1.
         21    1    1    2  504  501 -0.26316068666E+02 -0.91827622787E+01  0.91660836952E+01  0.29340683077E+02  0.00000000000E+00 0. -1.
<mgrwt>
<rscale>  2 0.27872183E+02</rscale>
<asrwt>0</asrwt>
<pdfrwt beam="1">  1       21 0.30503903E-02 0.27872183E+02</pdfrwt>
<pdfrwt beam="2">  1       21 0.53592292E-01 0.27872183E+02</pdfrwt>
<totfact> 0.18587922E+06</totfact>
</mgrwt>
</event>
<event>
 4    1  0.4447136E+006  0.2491941E+02  0.7546771E-02  0.1662162E+00
         21   -1    0    0  502  501  0.00000000000E+00  0.00000000000E+00  0.19385962233E+02  0.19385962233E+02  0.00000000000E+00 0. -1.
         21   -1    0    0  504  502 -0.00000000000E+00 -0.00000000000E+00 -0.36415699649E+02  0.36415699649E+02  0.00000000000E+00 0. -1.
         21    1    1    2  503  501 -0.15157577671E+02  0.19779407296E+02  0.11651889607E+01  0.24946638634E+02  0.00000000000E+00 0. -1.
         21    1    1    2  504  503  0.15157577671E+02 -0.19779407296E+02 -0.18194926377E+02  0.30855023249E+02  0.00000000000E+00 0. -1.
<mgrwt>
<rscale>  2 0.24919412E+02</rscale>
<asrwt>0</asrwt>
<pdfrwt beam="1">  1       21 0.29824558E-02 0.24919412E+02</pdfrwt>
<pdfrwt beam="2">  1       21 0.56024153E-02 0.24919412E+02</pdfrwt>
<totfact> 0.98657575E+07</totfact>
</mgrwt>
</event>
<event>
 4    1  0.4447136E+006  0.2056097E+02  0.7546771E-02  0.1734397E+00
         21   -1    0    0  503  501  0.00000000000E+00  0.00000000000E+00  0.53177821855E+02  0.53177821855E+02  0.00000000000E+00 0.  1.
         21   -1    0    0  501  502 -0.00000000000E+00 -0.00000000000E+00 -0.50638976887E+02  0.50638976887E+02  0.00000000000E+00 0. -1.
         21    1    1    2  503  504 -0.17766666774E+02 -0.10348862401E+02  0.48929421910E+02  0.53073927024E+02  0.00000000000E+00 0.  1.
         21    1    1    2  504  502  0.17766666774E+02  0.10348862401E+02 -0.46390576942E+02  0.50742871719E+02  0.00000000000E+00 0. -1.
<mgrwt>
<rscale>  2 0.20560968E+02</rscale>
<asrwt>0</asrwt>
<pdfrwt beam="1">  1       21 0.81812034E-02 0.20560968E+02</pdfrwt>
<pdfrwt beam="2">  1       21 0.77906118E-02 0.20560968E+02</pdfrwt>
<totfact> 0.11102370E+07</totfact>
</mgrwt>
</event>
<event>
 4    1  0.4447136E+006  0.2476752E+02  0.7546771E-02  0.1664364E+00
         21   -1    0    0  502  501  0.00000000000E+00  0.00000000000E+00  0.83286096147E+02  0.83286096147E+02  0.00000000000E+00 0. -1.
         21   -1    0    0  503  502 -0.00000000000E+00 -0.00000000000E+00 -0.10509589565E+03  0.10509589565E+03  0.00000000000E+00 0. -1.
         21    1    1    2  503  504  0.13104801951E+02  0.21016516494E+02 -0.10173540111E+03  0.10470683664E+03  0.00000000000E+00 0. -1.
         21    1    1    2  504  501 -0.13104801951E+02 -0.21016516494E+02  0.79925601604E+02  0.83675155163E+02  0.00000000000E+00 0. -1.
<mgrwt>
<rscale>  2 0.24767515E+02</rscale>
<asrwt>0</asrwt>
<pdfrwt beam="1">  1       21 0.12813246E-01 0.24767515E+02</pdfrwt>
<pdfrwt beam="2">  1       21 0.16168599E-01 0.24767515E+02</pdfrwt>
<totfact> 0.16110974E+06</totfact>
</mgrwt>
</event>
<event>
 4    1  0.4447136E+006  0.2393807E+02  0.7546771E-02  0.1676740E+00
         21   -1    0    0  503  501  0.00000000000E+00  0.00000000000E+00  0.74398661928E+02  0.74398661928E+02  0.00000000000E+00 0.  1.
         21   -1    0    0  504  502 -0.00000000000E+00 -0.00000000000E+00 -0.12779250389E+02  0.12779250389E+02  0.00000000000E+00 0.  1.
         21    1    1    2  503  502  0.23207358975E+02  0.58693928320E+01  0.58284264007E+02  0.63008624121E+02  0.00000000000E+00 0.  1.
         21    1    1    2  504  501 -0.23207358975E+02 -0.58693928320E+01  0.33351475313E+01  0.24169288196E+02  0.00000000000E+00 0.  1.
<mgrwt>
<rscale>  2 0.23938072E+02</rscale>
<asrwt>0</asrwt>
<pdfrwt beam="1">  1       21 0.11445948E-01 0.23938072E+02</pdfrwt>
<pdfrwt beam="2">  1       21 0.19660386E-02 0.23938072E+02</pdfrwt>
<totfact> 0.57793151E+07</totfact>
</mgrwt>
</event>
<event>
 4    1  0.4447136E+006  0.2885770E+02  0.7546771E-02  0.1611070E+00
         21   -1    0    0  504  501  0.00000000000E+00  0.00000000000E+00  0.42521799057E+03  0.42521799057E+03  0.00000000000E+00 0. -1.
         21   -1    0    0  501  502 -0.00000000000E+00 -0.00000000000E+00 -0.10909095668E+03  0.10909095668E+03  0.00000000000E+00 0.  1.
         21    1    1    2  503  502  0.76314708859E+01 -0.27830336497E+02 -0.10668206105E+03  0.11051619396E+03  0.00000000000E+00 0.  1.
         21    1    1    2  504  503 -0.76314708859E+01  0.27830336497E+02  0.42280909494E+03  0.42379275329E+03  0.00000000000E+00 0. -1.
<mgrwt>
<rscale>  2 0.28857702E+02</rscale>
<asrwt>0</asrwt>
<pdfrwt beam="1">  1       21 0.65418152E-01 0.28857702E+02</pdfrwt>
<pdfrwt beam="2">  1       21 0.16783224E-01 0.28857702E+02</pdfrwt>
<totfact> 0.75987170E+04</totfact>
</mgrwt>
</event>
<event>
 4    1  0.4447136E+006  0.2084852E+02  0.7546771E-02  0.1728962E+00
         21   -1    0    0  504  501  0.00000000000E+00  0.00000000000E+00  0.11359630780E+02  0.11359630780E+02  0.00000000000E+00 0.  1.
         21   -1    0    0  503  502 -0.00000000000E+00 -0.00000000000E+00 -0.57211194597E+02  0.57211194597E+02  0.00000000000E+00 0.  1.
         21    1    1    2  503  501  0.15328562480E+02  0.14131379616E+02 -0.31949424493E+01  0.21091903063E+02  0.00000000000E+00 0.  1.
         21    1    1    2  504  502 -0.15328562480E+02 -0.14131379616E+02 -0.42656621368E+02  0.47478922314E+02  0.00000000000E+00 0.  1.
<mgrwt>
<rscale>  2 0.20848518E+02</rscale>
<asrwt>0</asrwt>
<pdfrwt beam="1">  1       21 0.17476355E-02 0.20848518E+02</pdfrwt>
<pdfrwt beam="2">  1       21 0.88017223E-02 0.20848518E+02</pdfrwt>
<totfact> 0.10279659E+08</totfact>
</mgrwt>
</event>
<event>
 4    1  0.4447136E+006  0.3463488E+02  0.7546771E-02  0.1551867E+00
         21   -1    0    0  503  501  0.00000000000E+00  0.00000000000E+00  0.12561477894E+03  0.12561477894E+03  0.00000000000E+00 0. -1.
         21   -1    0    0  501  502 -0.00000000000E+00 -0.00000000000E+00 -0.18155718400E+02  0.18155718400E+02  0.00000000000E+00 0. -1.
         21    1    1    2  503  504  0.12804156910E+02 -0.32181185084E+02  0.10322162917E+03  0.10887736145E+03  0.00000000000E+00 0. -1.
         21    1    1    2  504  502 -0.12804156910E+02  0.32181185084E+02  0.42374313683E+01  0.34893135889E+02  0.00000000000E+00 0. -1.
<mgrwt>
<rscale>  2 0.34634883E+02</rscale>
<asrwt>0</asrwt>
<pdfrwt beam="1">  1       21 0.19325350E-01 0.34634883E+02</pdfrwt>
<pdfrwt beam="2">  1       21 0.27931875E-02 0.34634883E+02</pdfrwt>
<totfact> 0.14682187E+07</totfact>
</mgrwt>
</event>
<event>
 4    1  0.4447136E+006  0.3058341E+02  0.7546771E-02  0.1591728E+00
         21   -1    0    0  502  501  0.00000000000E+00  0.00000000000E+00  0.12274307245E+03  0.12274307245E+03  0.00000000000E+00 0. -1.
         21   -1    0    0  503  502 -0.00000000000E+00 -0.00000000000E+00 -0.10709263452E+04  0.10709263452E+04  0.00000000000E+00 0.  1.
         21    1    1    2  503  504 -0.42635337626E+01 -0.30284770095E+02 -0.10687991176E+04  0.10692365963E+04  0.00000000000E+00 0.  1.
         21    1    1    2  504  501  0.42635337626E+01  0.30284770095E+02  0.12061584483E+03  0.12443282141E+03  0.00000000000E+00 0. -1.
<mgrwt>
<rscale>  2 0.30583411E+02</rscale>
<asrwt>0</asrwt>
<pdfrwt beam="1">  1       21 0.18883549E-01 0.30583411E+02</pdfrwt>
<pdfrwt beam="2">  1       21 0.16475790E+00 0.30583411E+02</pdfrwt>
<totfact> 0.77970048E+03</totfact>
</mgrwt>
</event>
<event>
 4    1  0.4447136E+006  0.2154154E+02  0.7546771E-02  0.1716304E+00
         21   -1    0    0  504  501  0.00000000000E+00  0.00000000000E+00  0.55692544845E+02  0.55692544845E+02  0.00000000000E+00 0.  1.
         21   -1    0    0  503  502 -0.00000000000E+00 -0.00000000000E+00 -0.10750138087E+02  0.10750138087E+02  0.00000000000E+00 0.  1.
         21    1    1    2  503  501  0.81894752070E+01 -0.19924117217E+02  0.67154806609E+01  0.22564034026E+02  0.00000000000E+00 0.  1.
         21    1    1    2  504  502 -0.81894752070E+01  0.19924117217E+02  0.38226926096E+02  0.43878648906E+02  0.00000000000E+00 0.  1.
<mgrwt>
<rscale>  2 0.21541540E+02</rscale>
<asrwt>0</asrwt>
<pdfrwt beam="1">  1       21 0.85680837E-02 0.21541540E+02</pdfrwt>
<pdfrwt beam="2">  1       21 0.16538674E-02 0.21541540E+02</pdfrwt>
<totfact> 0.11794760E+08</totfact>
</mgrwt>
</event>
<event>
 4    1  0.4447136E+006  0.2069772E+02  0.7546771E-02  0.1731799E+00
         21   -1    0    0  503  501  0.00000000000E+00  0.00000000000E+00  0.64319462095E+01  0.64319462095E+01  0.00000000000E+00 0.  1.
         21   -1    0    0  504  502 -0.00000000000E+00 -0.00000000000E+00 -0.11292007177E+03  0.11292007177E+03  0.00000000000E+00 0.  1.
         21    1    1    2  503  502  0.12156067738E+02 -0.16751882933E+02 -0.15025140240E+02  0.25576364165E+02  0.00000000000E+00 0.  1.
         21    1    1    2  504  501 -0.12156067738E+02  0.16751882933E+02 -0.91462985318E+02  0.93775653812E+02  0.00000000000E+00 0.  1.
<mgrwt>
<rscale>  2 0.20697719E+02</rscale>
<asrwt>0</asrwt>
<pdfrwt beam="1">  1       21 0.98953014E-03 0.20697719E+02</pdfrwt>
<pdfrwt beam="2">  1       21 0.17372320E-01 0.20697719E+02</pdfrwt>
<totfact> 0.77614937E+07</totfact>
</mgrwt>
</event>
<event>
 4    1  0.4447136E+006  0.2284780E+02  0.7546771E-02  0.1693989E+00
         21   -1    0    0  503  501  0.00000000000E+00  0.00000000000E+00  0.22120685383E+03  0.22120685383E+03  0.00000000000E+00 0.  1.
         21   -1    0    0  504  502 -0.00000000000E+00 -0.00000000000E+00 -0.39133993964E+01  0.39133993964E+01  0.00000000000E+00 0. -1.
         21    1    1    2  503  502  0.22792032113E+02 -0.15953123529E+01  0.17956624123E+03  0.18101396835E+03  0.00000000000E+00 0.  1.
         21    1    1    2  504  501 -0.22792032113E+02  0.15953123529E+01  0.37727213211E+02  0.44106284881E+02  0.00000000000E+00 0. -1.
<mgrwt>
<rscale>  2 0.22847795E+02</rscale>
<asrwt>0</asrwt>
<pdfrwt beam="1">  1       21 0.34031814E-01 0.22847795E+02</pdfrwt>
<pdfrwt beam="2">  1       21 0.60206162E-03 0.22847795E+02</pdfrwt>
<totfact> 0.50550843E+07</totfact>
</mgrwt>
</event>
<event>
 4    1  0.4447136E+006  0.2255617E+02  0.7546771E-02  0.1698807E+00
         21   -1    0    0  503  501  0.00000000000E+00  0.00000000000E+00  0.18512200885E+01  0.18512200885E+01  0.00000000000E+00 0. -1.
         21   -1    0    0  504  502 -0.00000000000E+00 -0.00000000000E+00 -0.66188080163E+03  0.66188080163E+03  0.00000000000E+00 0.  1.
         21    1    1    2  503  502  0.78417273596E+01  0.21149184858E+02 -0.76236848946E+02  0.79503697055E+02  0.00000000000E+00 0. -1.
         21    1    1    2  504  501 -0.78417273596E+01 -0.21149184858E+02 -0.58379273260E+03  0.58422832467E+03  0.00000000000E+00 0.  1.
<mgrwt>
<rscale>  2 0.22556168E+02</rscale>
<asrwt>0</asrwt>
<pdfrwt beam="1">  1       21 0.28480273E-03 0.22556168E+02</pdfrwt>
<pdfrwt beam="2">  1       21 0.10182795E+00 0.22556168E+02</pdfrwt>
<totfact> 0.16883246E+07</totfact>
</mgrwt>
</event>
<event>
 4    1  0.4447136E+006  0.2847331E+02  0.7546771E-02  0.1615604E+00
         21   -1    0    0  502  501  0.00000000000E+00  0.00000000000E+00  0.55828931235E+01  0.55828931235E+01  0.00000000000E+00 0.  1.
         21   -1    0    0  503  502 -0.00000000000E+00 -0.00000000000E+00 -0.37953957537E+03  0.37953957537E+03  0.00000000000E+00 0.  1.
         21    1    1    2  503  504  0.16040259524E+02 -0.23525290935E+02 -0.33828139155E+03  0.33947758263E+03  0.00000000000E+00 0.  1.
         21    1    1    2  504  501 -0.16040259524E+02  0.23525290935E+02 -0.35675290694E+02  0.45644885861E+02  0.00000000000E+00 0.  1.
<mgrwt>
<rscale>  2 0.28473307E+02</rscale>
<asrwt>0</asrwt>
<pdfrwt beam="1">  1       21 0.85890647E-03 0.28473307E+02</pdfrwt>
<pdfrwt beam="2">  1       21 0.58390715E-01 0.28473307E+02</pdfrwt>
<totfact> 0.11002622E+07</totfact>
</mgrwt>
</event>
<event>
 4    1  0.4447136E+006  0.2086649E+02  0.7546771E-02  0.1728626E+00
         21   -1    0    0  503  501  0.00000000000E+00  0.00000000000E+00  0.44366198316E+03  0.44366198316E+03  0.00000000000E+00 0.  1.
         21   -1    0    0  501  502 -0.00000000000E+00 -0.00000000000E+00 -0.10547827788E+02  0.10547827788E+02  0.00000000000E+00 0.  1.
         21    1    1    2  503  504 -0.11965612915E+02  0.17094867160E+02  0.43283882660E+03  0.43334150527E+03  0.00000000000E+00 0.  1.
         21    1    1    2  504  502  0.11965612915E+02 -0.17094867160E+02  0.27532876313E+00  0.20868305671E+02  0.00000000000E+00 0.  1.
<mgrwt>
<rscale>  2 0.20866489E+02</rscale>
<asrwt>0</asrwt>
<pdfrwt beam="1">  1       21 0.68255675E-01 0.20866489E+02</pdfrwt>
<pdfrwt beam="2">  1       21 0.16227431E-02 0.20866489E+02</pdfrwt>
<totfact> 0.29283204E+06</totfact>
</mgrwt>
</event>
<event>
 4    1  0.4447136E+006  0.2528514E+02  0.7546771E-02  0.1656940E+00
         21   -1    0    0  503  501  0.00000000000E+00  0.00000000000E+00  0.33629509622E+02  0.33629509622E+02  0.00000000000E+00 0.  1.
         21   -1    0    0  504  502 -0.00000000000E+00 -0.00000000000E+00 -0.20479557406E+02  0.20479557406E+02  0.00000000000E+00 0.  1.
         21    1    1    2  503  502 -0.14987197722E+02  0.20364735595E+02 -0.66922167630E+00  0.25293999468E+02  0.00000000000E+00 0.  1.
         21    1    1    2  504  501  0.14987197722E+02 -0.20364735595E+02  0.13819173893E+02  0.28815067560E+02  0.00000000000E+00 0.  1.
<mgrwt>
<rscale>  2 0.25285145E+02</rscale>
<asrwt>0</asrwt>
<pdfrwt beam="1">  1       21 0.51737707E-02 0.25285145E+02</pdfrwt>
<pdfrwt beam="2">  1       21 0.31507011E-02 0.25285145E+02</pdfrwt>
<totfact> 0.10326625E+08</totfact>
</mgrwt>
</event>
<event>
 4    1  0.4447136E+006  0.2138289E+02  0.7546771E-02  0.1719148E+00
         21   -1    0    0  503  501  0.00000000000E+00  0.00000000000E+00  0.73226853806E+02  0.73226853806E+02  0.00000000000E+00 0. -1.
         21   -1    0    0  504  502 -0.00000000000E+00 -0.00000000000E+00 -0.93052251489E+01  0.93052251489E+01  0.00000000000E+00 0. -1.
         21    1    1    2  503  502  0.19470931027E+02  0.88380244279E+01  0.55629688825E+02  0.59597735776E+02  0.00000000000E+00 0. -1.
         21    1    1    2  504  501 -0.19470931027E+02 -0.88380244279E+01  0.82919398319E+01  0.22934343179E+02  0.00000000000E+00 0. -1.
<mgrwt>
<rscale>  2 0.21382886E+02</rscale>
<asrwt>0</asrwt>
<pdfrwt beam="1">  1       21 0.11265669E-01 0.21382886E+02</pdfrwt>
<pdfrwt beam="2">  1       21 0.14315732E-02 0.21382886E+02</pdfrwt>
<totfact> 0.93329385E+07</totfact>
</mgrwt>
</event>
<event>
 4    1  0.4447136E+006  0.2298591E+02  0.7546771E-02  0.1691739E+00
         21   -1    0    0  502  501  0.00000000000E+00  0.00000000000E+00  0.34340733257E+03  0.34340733257E+03  0.00000000000E+00 0.  1.
         21   -1    0    0  504  502 -0.00000000000E+00 -0.00000000000E+00 -0.25149660070E+03  0.25149660070E+03  0.00000000000E+00 0. -1.
         21    1    1    2  503  501 -0.22037984612E+02  0.65329388648E+01  0.34249608935E+03  0.34326654844E+03  0.00000000000E+00 0.  1.
         21    1    1    2  504  503  0.22037984612E+02 -0.65329388648E+01 -0.25058535748E+03  0.25163738483E+03  0.00000000000E+00 0. -1.
<mgrwt>
<rscale>  2 0.22985910E+02</rscale>
<asrwt>0</asrwt>
<pdfrwt beam="1">  1       21 0.52831897E-01 0.22985910E+02</pdfrwt>
<pdfrwt beam="2">  1       21 0.38691785E-01 0.22985910E+02</pdfrwt>
<totfact> 0.26207394E+04</totfact>
</mgrwt>
</event>
<event>
 4    1  0.4447136E+006  0.2599052E+02  0.7546771E-02  0.1647169E+00
         21   -1    0    0  503  501  0.00000000000E+00  0.00000000000E+00  0.52254077940E+02  0.52254077940E+02  0.00000000000E+00 0.  1.
         21   -1    0    0  504  502 -0.00000000000E+00 -0.00000000000E+00 -0.20884650311E+03  0.20884650311E+03  0.00000000000E+00 0. -1.
         21    1    1    2  503  502  0.25400359708E+02 -0.55071717810E+01  0.48149083099E+02  0.54716006960E+02  0.00000000000E+00 0.  1.
         21    1    1    2  504  501 -0.25400359708E+02  0.55071717810E+01 -0.20474150827E+03  0.20638457409E+03  0.00000000000E+00 0. -1.
<mgrwt>
<rscale>  2 0.25990522E+02</rscale>
<asrwt>0</asrwt>
<pdfrwt beam="1">  1       21 0.80390888E-02 0.25990522E+02</pdfrwt>
<pdfrwt beam="2">  1       21 0.32130232E-01 0.25990522E+02</pdfrwt>
<totfact> 0.10375536E+06</totfact>
</mgrwt>
</event>
<event>
 4    1  0.4447136E+006  0.2529170E+02  0.7546771E-02  0.1656847E+00
         21   -1    0    0  503  501  0.00000000000E+00  0.00000000000E+00  0.11669128652E+01  0.11669128652E+01  0.00000000000E+00 0.  1.
         21   -1    0    0  504  502 -0.00000000000E+00 -0.00000000000E+00 -0.57093163081E+03  0.57093163081E+03  0.00000000000E+00 0.  1.
         21    1    1    2  503  502 -0.13373610510E+02 -0.21466644955E+02 -0.34199344348E+03  0.34292737669E+03  0.00000000000E+00 0.  1.
         21    1    1    2  504  501  0.13373610510E+02  0.21466644955E+02 -0.22777127447E+03  0.22917116699E+03  0.00000000000E+00 0.  1.
<mgrwt>
<rscale>  2 0.25291704E+02</rscale>
<asrwt>0</asrwt>
<pdfrwt beam="1">  1       21 0.17952467E-03 0.25291704E+02</pdfrwt>
<pdfrwt beam="2">  1       21 0.87835822E-01 0.25291704E+02</pdfrwt>
<totfact> 0.46431751E+07</totfact>
</mgrwt>
</event>
<event>
 4    1  0.4447136E+006  0.2135519E+02  0.7546771E-02  0.1719648E+00
         21   -1    0    0  503  501  0.00000000000E+00  0.00000000000E+00  0.11141792678E+02  0.11141792678E+02  0.00000000000E+00 0. -1.
         21   -1    0    0  504  502 -0.00000000000E+00 -0.00000000000E+00 -0.88810123819E+02  0.88810123819E+02  0.00000000000E+00 0.  1.
         21    1    1    2  503  502  0.44142563366E+01  0.20893984473E+02 -0.21394791455E+01  0.21462097222E+02  0.00000000000E+00 0. -1.
         21    1    1    2  504  501 -0.44142563366E+01 -0.20893984473E+02 -0.75528851995E+02  0.78489819275E+02  0.00000000000E+00 0.  1.
<mgrwt>
<rscale>  2 0.21355192E+02</rscale>
<asrwt>0</asrwt>
<pdfrwt beam="1">  1       21 0.17141219E-02 0.21355192E+02</pdfrwt>
<pdfrwt beam="2">  1       21 0.13663096E-01 0.21355192E+02</pdfrwt>
<totfact> 0.51393171E+07</totfact>
</mgrwt>
</event>
<event>
 4    1  0.4447136E+006  0.2607351E+02  0.7546771E-02  0.1646045E+00
         21   -1    0    0  503  501  0.00000000000E+00  0.00000000000E+00  0.53711795739E+02  0.53711795739E+02  0.00000000000E+00 0. -1.
         21   -1    0    0  501  502 -0.00000000000E+00 -0.00000000000E+00 -0.33857617188E+02  0.33857617188E+02  0.00000000000E+00 0.  1.
         21    1    1    2  503  504 -0.24775913487E+02 -0.81229359308E+01  0.44574351505E+02  0.51640108340E+02  0.00000000000E+00 0. -1.
         21    1    1    2  504  502  0.24775913487E+02  0.81229359308E+01 -0.24720172954E+02  0.35929304588E+02  0.00000000000E+00 0.  1.
<mgrwt>
<rscale>  2 0.26073511E+02</rscale>
<asrwt>0</asrwt>
<pdfrwt beam="1">  1       21 0.82633532E-02 0.26073511E+02</pdfrwt>
<pdfrwt beam="2">  1       21 0.52088642E-02 0.26073511E+02</pdfrwt>
<totfact> 0.21963059E+07</totfact>
</mgrwt>
</event>
<event>
 4    1  0.4447136E+006  0.3746826E+02  0.7546771E-02  0.1527714E+00
         21   -1    0    0  503  501  0.00000000000E+00  0.00000000000E+00  0.86860736942E+02  0.86860736942E+02  0.00000000000E+00 0. -1.
         21   -1    0    0  504  502 -0.00000000000E+00 -0.00000000000E+00 -0.20408937936E+02  0.20408937936E+02  0.00000000000E+00 0. -1.
         21    1    1    2  503  502 -0.32742362065E+02 -0.18215595409E+02  0.87601314959E+01  0.38478696619E+02  0.00000000000E+00 0. -1.
         21    1    1    2  504  501  0.32742362065E+02  0.18215595409E+02  0.57691667510E+02  0.68790978259E+02  0.00000000000E+00 0. -1.
<mgrwt>
<rscale>  2 0.37468256E+02</rscale>
<asrwt>0</asrwt>
<pdfrwt beam="1">  1       21 0.13363190E-01 0.37468256E+02</pdfrwt>
<pdfrwt beam="2">  1       21 0.31398367E-02 0.37468256E+02</pdfrwt>
<totfact> 0.23513978E+07</totfact>
</mgrwt>
</event>
<event>
 4    1  0.4447136E+006  0.2729779E+02  0.7546771E-02  0.1630035E+00
         21   -1    0    0  503  501  0.00000000000E+00  0.00000000000E+00  0.46065714405E+01  0.46065714405E+01  0.00000000000E+00 0. -1.
         21   -1    0    0  504  502 -0.00000000000E+00 -0.00000000000E+00 -0.16396489993E+03  0.16396489993E+03  0.00000000000E+00 0. -1.
         21    1    1    2  503  502 -0.15187228512E+02  0.22682974951E+02 -0.89448240204E+02  0.93520890383E+02  0.00000000000E+00 0. -1.
         21    1    1    2  504  501  0.15187228512E+02 -0.22682974951E+02 -0.69910088290E+02  0.75050580992E+02  0.00000000000E+00 0. -1.
<mgrwt>
<rscale>  2 0.27297789E+02</rscale>
<asrwt>0</asrwt>
<pdfrwt beam="1">  1       21 0.70870334E-03 0.27297789E+02</pdfrwt>
<pdfrwt beam="2">  1       21 0.25225368E-01 0.27297789E+02</pdfrwt>
<totfact> 0.71372404E+07</totfact>
</mgrwt>
</event>
<event>
 4    1  0.4447136E+006  0.2165059E+02  0.7546771E-02  0.1714366E+00
         21   -1    0    0  503  501  0.00000000000E+00  0.00000000000E+00  0.16238132696E+02  0.16238132696E+02  0.00000000000E+00 0. -1.
         21   -1    0    0  504  502 -0.00000000000E+00 -0.00000000000E+00 -0.20173597220E+03  0.20173597220E+03  0.00000000000E+00 0. -1.
         21    1    1    2  503  502  0.49939235080E+01  0.21066766226E+02  0.81395709980E+01  0.23130078410E+02  0.00000000000E+00 0. -1.
         21    1    1    2  504  501 -0.49939235080E+01 -0.21066766226E+02 -0.19363741050E+03  0.19484402649E+03  0.00000000000E+00 0. -1.
<mgrwt>
<rscale>  2 0.21650587E+02</rscale>
<asrwt>0</asrwt>
<pdfrwt beam="1">  1       21 0.24981742E-02 0.21650587E+02</pdfrwt>
<pdfrwt beam="2">  1       21 0.31036304E-01 0.21650587E+02</pdfrwt>
<totfact> 0.69020397E+06</totfact>
</mgrwt>
</event>
<event>
 4    1  0.4447136E+006  0.2133698E+02  0.7546771E-02  0.1719977E+00
         21   -1    0    0  502  501  0.00000000000E+00  0.00000000000E+00  0.13154406649E+03  0.13154406649E+03  0.00000000000E+00 0. -1.
         21   -1    0    0  504  502 -0.00000000000E+00 -0.00000000000E+00 -0.61705434129E+01  0.61705434129E+01  0.00000000000E+00 0.  1.
         21    1    1    2  503  501  0.12985095691E+02  0.16930865696E+02  0.10831573427E+03  0.11039730618E+03  0.00000000000E+00 0. -1.
         21    1    1    2  504  503 -0.12985095691E+02 -0.16930865696E+02  0.17057788812E+02  0.27317303718E+02  0.00000000000E+00 0.  1.
<mgrwt>
<rscale>  2 0.21336985E+02</rscale>
<asrwt>0</asrwt>
<pdfrwt beam="1">  1       21 0.20237547E-01 0.21336985E+02</pdfrwt>
<pdfrwt beam="2">  1       21 0.94931447E-03 0.21336985E+02</pdfrwt>
<totfact> 0.63961311E+07</totfact>
</mgrwt>
</event>
<event>
 4    1  0.4447136E+006  0.2214820E+02  0.7546771E-02  0.1705702E+00
         21   -1    0    0  503  501  0.00000000000E+00  0.00000000000E+00  0.15348557649E+01  0.15348557649E+01  0.00000000000E+00 0.  1.
         21   -1    0    0  504  502 -0.00000000000E+00 -0.00000000000E+00 -0.70970384754E+03  0.70970384754E+03  0.00000000000E+00 0.  1.
         21    1    1    2  503  502  0.85816448808E+01  0.20418081009E+02 -0.90429550122E+02  0.93102342593E+02  0.00000000000E+00 0.  1.
         21    1    1    2  504  501 -0.85816448808E+01 -0.20418081009E+02 -0.61773944165E+03  0.61813636071E+03  0.00000000000E+00 0.  1.
<mgrwt>
<rscale>  2 0.22148198E+02</rscale>
<asrwt>0</asrwt>
<pdfrwt beam="1">  1       21 0.23613192E-03 0.22148198E+02</pdfrwt>
<pdfrwt beam="2">  1       21 0.10918508E+00 0.22148198E+02</pdfrwt>
<totfact> 0.18929504E+07</totfact>
</mgrwt>
</event>
<event>
 4    1  0.4447136E+006  0.2648415E+02  0.7546771E-02  0.1640556E+00
         21   -1    0    0  502  501  0.00000000000E+00  0.00000000000E+00  0.70156407037E+01  0.70156407037E+01  0.00000000000E+00 0. -1.
         21   -1    0    0  503  502 -0.00000000000E+00 -0.00000000000E+00 -0.17479967424E+03  0.17479967424E+03  0.00000000000E+00 0. -1.
         21    1    1    2  503  504 -0.21499174720E+02  0.15465959327E+02 -0.14336826768E+03  0.14579393193E+03  0.00000000000E+00 0. -1.
         21    1    1    2  504  501  0.21499174720E+02 -0.15465959327E+02 -0.24415765858E+02  0.36021383010E+02  0.00000000000E+00 0. -1.
<mgrwt>
<rscale>  2 0.26484154E+02</rscale>
<asrwt>0</asrwt>
<pdfrwt beam="1">  1       21 0.10793294E-02 0.26484154E+02</pdfrwt>
<pdfrwt beam="2">  1       21 0.26892257E-01 0.26484154E+02</pdfrwt>
<totfact> 0.33546402E+07</totfact>
</mgrwt>
</event>
<event>
 4    1  0.4447136E+006  0.2297428E+02  0.7546771E-02  0.1691927E+00
         21   -1    0    0  504  501  0.00000000000E+00  0.00000000000E+00  0.13764867311E+03  0.13764867311E+03  0.00000000000E+00 0.  1.
         21   -1    0    0  503  502 -0.00000000000E+00 -0.00000000000E+00 -0.12290613271E+02  0.12290613271E+02  0.00000000000E+00 0.  1.
         21    1    1    2  503  501  0.18396989811E+02  0.13761113823E+02  0.49435305889E+00  0.22979596878E+02  0.00000000000E+00 0.  1.
         21    1    1    2  504  502 -0.18396989811E+02 -0.13761113823E+02  0.12486370678E+03  0.12695968950E+03  0.00000000000E+00 0.  1.
<mgrwt>
<rscale>  2 0.22974279E+02</rscale>
<asrwt>0</asrwt>
<pdfrwt beam="1">  1       21 0.21176718E-01 0.22974279E+02</pdfrwt>
<pdfrwt beam="2">  1       21 0.18908637E-02 0.22974279E+02</pdfrwt>
<totfact> 0.21209326E+07</totfact>
</mgrwt>
</event>
<event>
 4    1  0.4447136E+006  0.3078077E+02  0.7546771E-02  0.1589615E+00
         21   -1    0    0  504  501  0.00000000000E+00  0.00000000000E+00  0.14549841570E+03  0.14549841570E+03  0.00000000000E+00 0. -1.
         21   -1    0    0  503  502 -0.00000000000E+00 -0.00000000000E+00 -0.11129110365E+02  0.11129110365E+02  0.00000000000E+00 0. -1.
         21    1    1    2  503  501 -0.30116855965E+02  0.63585364039E+01  0.11762784821E+03  0.12158851374E+03  0.00000000000E+00 0. -1.
         21    1    1    2  504  502  0.30116855965E+02 -0.63585364039E+01  0.16741457129E+02  0.35039012332E+02  0.00000000000E+00 0. -1.
<mgrwt>
<rscale>  2 0.30780773E+02</rscale>
<asrwt>0</asrwt>
<pdfrwt beam="1">  1       21 0.22384370E-01 0.30780773E+02</pdfrwt>
<pdfrwt beam="2">  1       21 0.17121709E-02 0.30780773E+02</pdfrwt>
<totfact> 0.23757155E+07</totfact>
</mgrwt>
</event>
<event>
 4    1  0.4447136E+006  0.2211995E+02  0.7546771E-02  0.1706186E+00
         21   -1    0    0  503  501  0.00000000000E+00  0.00000000000E+00  0.37390044523E+03  0.37390044523E+03  0.00000000000E+00 0.  1.
         21   -1    0    0  504  502 -0.00000000000E+00 -0.00000000000E+00 -0.15602203578E+03  0.15602203578E+03  0.00000000000E+00 0.  1.
         21    1    1    2  503  502  0.21847317811E+02 -0.34622235556E+01  0.37278693984E+03  0.37344262585E+03  0.00000000000E+00 0.  1.
         21    1    1    2  504  501 -0.21847317811E+02  0.34622235556E+01 -0.15490853038E+03  0.15647985516E+03  0.00000000000E+00 0.  1.
<mgrwt>
<rscale>  2 0.22119952E+02</rscale>
<asrwt>0</asrwt>
<pdfrwt beam="1">  1       21 0.57523145E-01 0.22119952E+02</pdfrwt>
<pdfrwt beam="2">  1       21 0.24003390E-01 0.22119952E+02</pdfrwt>
<totfact> 0.52977604E+04</totfact>
</mgrwt>
</event>
<event>
 4    1  0.4447136E+006  0.2122171E+02  0.7546771E-02  0.1722070E+00
         21   -1    0    0  504  501  0.00000000000E+00  0.00000000000E+00  0.41451460839E+02  0.41451460839E+02  0.00000000000E+00 0.  1.
         21   -1    0    0  503  502 -0.00000000000E+00 -0.00000000000E+00 -0.10869812988E+02  0.10869812988E+02  0.00000000000E+00 0.  1.
         21    1    1    2  503  501 -0.20458079949E+02  0.56416101974E+01  0.14727627046E+02  0.25831449809E+02  0.00000000000E+00 0.  1.
         21    1    1    2  504  502  0.20458079949E+02 -0.56416101974E+01  0.15854020805E+02  0.26489824018E+02  0.00000000000E+00 0.  1.
<mgrwt>
<rscale>  2 0.21221706E+02</rscale>
<asrwt>0</asrwt>
<pdfrwt beam="1">  1       21 0.63771477E-02 0.21221706E+02</pdfrwt>
<pdfrwt beam="2">  1       21 0.16722789E-02 0.21221706E+02</pdfrwt>
<totfact> 0.18625823E+08</totfact>
</mgrwt>
</event>
<event>
 4    1  0.4447136E+006  0.2059780E+02  0.7546771E-02  0.1733695E+00
         21   -1    0    0  502  501  0.00000000000E+00  0.00000000000E+00  0.12007422983E+03  0.12007422983E+03  0.00000000000E+00 0.  1.
         21   -1    0    0  504  502 -0.00000000000E+00 -0.00000000000E+00 -0.95290984908E+02  0.95290984908E+02  0.00000000000E+00 0.  1.
         21    1    1    2  503  501  0.13586875444E+02  0.15481160520E+02  0.11805893381E+03  0.11984231877E+03  0.00000000000E+00 0.  1.
         21    1    1    2  504  503 -0.13586875444E+02 -0.15481160520E+02 -0.93275688892E+02  0.95522895966E+02  0.00000000000E+00 0.  1.
<mgrwt>
<rscale>  2 0.20597804E+02</rscale>
<asrwt>0</asrwt>
<pdfrwt beam="1">  1       21 0.18472959E-01 0.20597804E+02</pdfrwt>
<pdfrwt beam="2">  1       21 0.14660151E-01 0.20597804E+02</pdfrwt>
<totfact> 0.10002486E+06</totfact>
</mgrwt>
</event>
<event>
 4    1  0.4447136E+006  0.2409641E+02  0.7546771E-02  0.1674330E+00
         21   -1    0    0  502  501  0.00000000000E+00  0.00000000000E+00  0.25661726321E+01  0.25661726321E+01  0.00000000000E+00 0. -1.
         21   -1    0    0  504  502 -0.00000000000E+00 -0.00000000000E+00 -0.24211109786E+03  0.24211109786E+03  0.00000000000E+00 0. -1.
         21    1    1    2  503  501  0.12197114749E+02  0.20781414804E+02 -0.88475077268E+02  0.91697743195E+02  0.00000000000E+00 0. -1.
         21    1    1    2  504  503 -0.12197114749E+02 -0.20781414804E+02 -0.15106984796E+03  0.15297952729E+03  0.00000000000E+00 0. -1.
<mgrwt>
<rscale>  2 0.24096407E+02</rscale>
<asrwt>0</asrwt>
<pdfrwt beam="1">  1       21 0.39479567E-03 0.24096407E+02</pdfrwt>
<pdfrwt beam="2">  1       21 0.37247872E-01 0.24096407E+02</pdfrwt>
<totfact> 0.80715975E+07</totfact>
</mgrwt>
</event>
<event>
 4    1  0.4447136E+006  0.3433961E+02  0.7546771E-02  0.1554544E+00
         21   -1    0    0  503  501  0.00000000000E+00  0.00000000000E+00  0.93390292303E+02  0.93390292303E+02  0.00000000000E+00 0.  1.
         21   -1    0    0  504  502 -0.00000000000E+00 -0.00000000000E+00 -0.12733279735E+02  0.12733279735E+02  0.00000000000E+00 0. -1.
         21    1    1    2  503  502  0.16556861462E+02 -0.30084531717E+02  0.35473347505E+02  0.49371723621E+02  0.00000000000E+00 0. -1.
         21    1    1    2  504  501 -0.16556861462E+02  0.30084531717E+02  0.45183665063E+02  0.56751848416E+02  0.00000000000E+00 0.  1.
<mgrwt>
<rscale>  2 0.34339608E+02</rscale>
<asrwt>0</asrwt>
<pdfrwt beam="1">  1       21 0.14367737E-01 0.34339608E+02</pdfrwt>
<pdfrwt beam="2">  1       21 0.19589662E-02 0.34339608E+02</pdfrwt>
<totfact> 0.42850889E+07</totfact>
</mgrwt>
</event>
<event>
 4    1  0.4447136E+006  0.2080257E+02  0.7546771E-02  0.1729823E+00
         21   -1    0    0  503  501  0.00000000000E+00  0.00000000000E+00  0.11775938406E+02  0.11775938406E+02  0.00000000000E+00 0. -1.
         21   -1    0    0  504  502 -0.00000000000E+00 -0.00000000000E+00 -0.58149302884E+02  0.58149302884E+02  0.00000000000E+00 0. -1.
         21    1    1    2  503  502 -0.11182156812E+02 -0.17541559712E+02 -0.44397026815E+02  0.49029000991E+02  0.00000000000E+00 0. -1.
         21    1    1    2  504  501  0.11182156812E+02  0.17541559712E+02 -0.19763376622E+01  0.20896240299E+02  0.00000000000E+00 0. -1.
<mgrwt>
<rscale>  2 0.20802571E+02</rscale>
<asrwt>0</asrwt>
<pdfrwt beam="1">  1       21 0.18116829E-02 0.20802571E+02</pdfrwt>
<pdfrwt beam="2">  1       21 0.89460465E-02 0.20802571E+02</pdfrwt>
<totfact> 0.94700241E+07</totfact>
</mgrwt>
</event>
<event>
 4    1  0.4447136E+006  0.3194092E+02  0.7546771E-02  0.1577575E+00
         21   -1    0    0  502  501  0.00000000000E+00  0.00000000000E+00  0.22809434203E+02  0.22809434203E+02  0.00000000000E+00 0.  1.
         21   -1    0    0  503  502 -0.00000000000E+00 -0.00000000000E+00 -0.51743750936E+02  0.51743750936E+02  0.00000000000E+00 0.  1.
         21    1    1    2  503  504  0.24571437039E+02  0.20407516745E+02 -0.28193088274E+02  0.42603667498E+02  0.00000000000E+00 0.  1.
         21    1    1    2  504  501 -0.24571437039E+02 -0.20407516745E+02 -0.74122845910E+00  0.31949517641E+02  0.00000000000E+00 0.  1.
<mgrwt>
<rscale>  2 0.31940918E+02</rscale>
<asrwt>0</asrwt>
<pdfrwt beam="1">  1       21 0.35091438E-02 0.31940918E+02</pdfrwt>
<pdfrwt beam="2">  1       21 0.79605770E-02 0.31940918E+02</pdfrwt>
<totfact> 0.45753383E+07</totfact>
</mgrwt>
</event>
<event>
 4    1  0.4447136E+006  0.2070774E+02  0.7546771E-02  0.1731609E+00
         21   -1    0    0  504  501  0.00000000000E+00  0.00000000000E+00  0.30519073482E+03  0.30519073482E+03  0.00000000000E+00 0. -1.
         21   -1    0    0  503  502 -0.00000000000E+00 -0.00000000000E+00 -0.34557562129E+02  0.34557562129E+02  0.00000000000E+00 0.  1.
         21    1    1    2  503  501  0.24901546294E+01 -0.20557469672E+02  0.30170148955E+03  0.30241130803E+03  0.00000000000E+00 0. -1.
         21    1    1    2  504  502 -0.24901546294E+01  0.20557469672E+02 -0.31068316856E+02  0.37336988920E+02  0.00000000000E+00 0.  1.
<mgrwt>
<rscale>  2 0.20707738E+02</rscale>
<asrwt>0</asrwt>
<pdfrwt beam="1">  1       21 0.46952419E-01 0.20707738E+02</pdfrwt>
<pdfrwt beam="2">  1       21 0.53165482E-02 0.20707738E+02</pdfrwt>
<totfact> 0.97121566E+05</totfact>
</mgrwt>
</event>
<event>
 4    1  0.4447136E+006  0.2047361E+02  0.7546771E-02  0.1736071E+00
         21   -1    0    0  504  501  0.00000000000E+00  0.00000000000E+00  0.74809482196E+01  0.74809482196E+01  0.00000000000E+00 0.  1.
         21   -1    0    0  501  502 -0.00000000000E+00 -0.00000000000E+00 -0.10740210882E+04  0.10740210882E+04  0.00000000000E+00 0. -1.
         21    1    1    2  503  502 -0.20185752661E+02  0.34211034144E+01 -0.10597267189E+04  0.10599244724E+04  0.00000000000E+00 0. -1.
         21    1    1    2  504  503  0.20185752661E+02 -0.34211034144E+01 -0.68134210542E+01  0.21577563938E+02  0.00000000000E+00 0.  1.
<mgrwt>
<rscale>  2 0.20473606E+02</rscale>
<asrwt>0</asrwt>
<pdfrwt beam="1">  1       21 0.11509147E-02 0.20473606E+02</pdfrwt>
<pdfrwt beam="2">  1       21 0.16523408E+00 0.20473606E+02</pdfrwt>
<totfact> 0.69854540E+05</totfact>
</mgrwt>
</event>
<event>
 4    1  0.4447136E+006  0.2640117E+02  0.7546771E-02  0.1641655E+00
         21   -1    0    0  504  501  0.00000000000E+00  0.00000000000E+00  0.15250226473E+01  0.15250226473E+01  0.00000000000E+00 0.  1.
         21   -1    0    0  503  502 -0.00000000000E+00 -0.00000000000E+00 -0.57945047919E+03  0.57945047919E+03  0.00000000000E+00 0.  1.
         21    1    1    2  503  501  0.25526900308E+02 -0.67378753938E+01 -0.42246835898E+03  0.42329249455E+03  0.00000000000E+00 0.  1.
         21    1    1    2  504  502 -0.25526900308E+02  0.67378753938E+01 -0.15545709756E+03  0.15768300729E+03  0.00000000000E+00 0.  1.
<mgrwt>
<rscale>  2 0.26401167E+02</rscale>
<asrwt>0</asrwt>
<pdfrwt beam="1">  1       21 0.23461837E-03 0.26401167E+02</pdfrwt>
<pdfrwt beam="2">  1       21 0.89146418E-01 0.26401167E+02</pdfrwt>
<totfact> 0.30769322E+07</totfact>
</mgrwt>
</event>
<event>
 4    1  0.4447136E+006  0.2955955E+02  0.7546771E-02  0.1603009E+00
         21   -1    0    0  504  501  0.00000000000E+00  0.00000000000E+00  0.13606648679E+03  0.13606648679E+03  0.00000000000E+00 0. -1.
         21   -1    0    0  501  502 -0.00000000000E+00 -0.00000000000E+00 -0.64992097282E+02  0.64992097282E+02  0.00000000000E+00 0.  1.
         21    1    1    2  503  502  0.26962060276E+02 -0.12116684268E+02 -0.59896501414E+02  0.66793394985E+02  0.00000000000E+00 0.  1.
         21    1    1    2  504  503 -0.26962060276E+02  0.12116684268E+02  0.13097089093E+03  0.13426518909E+03  0.00000000000E+00 0. -1.
<mgrwt>
<rscale>  2 0.29559546E+02</rscale>
<asrwt>0</asrwt>
<pdfrwt beam="1">  1       21 0.20933306E-01 0.29559546E+02</pdfrwt>
<pdfrwt beam="2">  1       21 0.99987842E-02 0.29559546E+02</pdfrwt>
<totfact> 0.15854949E+06</totfact>
</mgrwt>
</event>
<event>
 4    1  0.4447136E+006  0.3125164E+02  0.7546771E-02  0.1584652E+00
         21   -1    0    0  502  501  0.00000000000E+00  0.00000000000E+00  0.37069861331E+03  0.37069861331E+03  0.00000000000E+00 0. -1.
         21   -1    0    0  504  502 -0.00000000000E+00 -0.00000000000E+00 -0.71179245309E+02  0.71179245309E+02  0.00000000000E+00 0.  1.
         21    1    1    2  503  501  0.28941161309E+02 -0.11792966557E+02  0.36657109290E+03  0.36790084401E+03  0.00000000000E+00 0. -1.
         21    1    1    2  504  503 -0.28941161309E+02  0.11792966557E+02 -0.67051724897E+02  0.73977014604E+02  0.00000000000E+00 0.  1.
<mgrwt>
<rscale>  2 0.31251638E+02</rscale>
<asrwt>0</asrwt>
<pdfrwt beam="1">  1       21 0.57030555E-01 0.31251638E+02</pdfrwt>
<pdfrwt beam="2">  1       21 0.10950653E-01 0.31251638E+02</pdfrwt>
<totfact> 0.20798370E+05</totfact>
</mgrwt>
</event>
<event>
 4    1  0.4447136E+006  0.2669671E+02  0.7546771E-02  0.1637763E+00
         21   -1    0    0  504  501  0.00000000000E+00  0.00000000000E+00  0.38249322300E+01  0.38249322300E+01  0.00000000000E+00 0. -1.
         21   -1    0    0  503  502 -0.00000000000E+00 -0.00000000000E+00 -0.24691151659E+03  0.24691151659E+03  0.00000000000E+00 0. -1.
         21    1    1    2  503  501 -0.17779244503E+02  0.19915143692E+02 -0.18364062476E+03  0.18557099328E+03  0.00000000000E+00 0. -1.
         21    1    1    2  504  502  0.17779244503E+02 -0.19915143692E+02 -0.59445959596E+02  0.65165455540E+02  0.00000000000E+00 0. -1.
<mgrwt>
<rscale>  2 0.26696713E+02</rscale>
<asrwt>0</asrwt>
<pdfrwt beam="1">  1       21 0.58845103E-03 0.26696713E+02</pdfrwt>
<pdfrwt beam="2">  1       21 0.37986392E-01 0.26696713E+02</pdfrwt>
<totfact> 0.44153669E+07</totfact>
</mgrwt>
</event>
<event>
 4    1  0.4447136E+006  0.2079411E+02  0.7546771E-02  0.1729982E+00
         21   -1    0    0  504  501  0.00000000000E+00  0.00000000000E+00  0.31947287460E+03  0.31947287460E+03  0.00000000000E+00 0. -1.
         21   -1    0    0  503  502 -0.00000000000E+00 -0.00000000000E+00 -0.15136847773E+02  0.15136847773E+02  0.00000000000E+00 0. -1.
         21    1    1    2  503  501 -0.13753787230E+02 -0.15595779388E+02 -0.74819282948E+01  0.22099191137E+02  0.00000000000E+00 0. -1.
         21    1    1    2  504  502  0.13753787230E+02  0.15595779388E+02  0.31181795512E+03  0.31251053124E+03  0.00000000000E+00 0. -1.
<mgrwt>
<rscale>  2 0.20794110E+02</rscale>
<asrwt>0</asrwt>
<pdfrwt beam="1">  1       21 0.49149668E-01 0.20794110E+02</pdfrwt>
<pdfrwt beam="2">  1       21 0.23287461E-02 0.20794110E+02</pdfrwt>
<totfact> 0.32299101E+06</totfact>
</mgrwt>
</event>
<event>
 4    1  0.4447136E+006  0.2300729E+02  0.7546771E-02  0.1691392E+00
         21   -1    0    0  504  501  0.00000000000E+00  0.00000000000E+00  0.18566450819E+02  0.18566450819E+02  0.00000000000E+00 0. -1.
         21   -1    0    0  501  502 -0.00000000000E+00 -0.00000000000E+00 -0.85430275371E+02  0.85430275371E+02  0.00000000000E+00 0. -1.
         21    1    1    2  503  502  0.22976761806E+02  0.11847590564E+01 -0.75875891102E+02  0.79287363984E+02  0.00000000000E+00 0. -1.
         21    1    1    2  504  503 -0.22976761806E+02 -0.11847590564E+01  0.90120665497E+01  0.24709362206E+02  0.00000000000E+00 0. -1.
<mgrwt>
<rscale>  2 0.23007287E+02</rscale>
<asrwt>0</asrwt>
<pdfrwt beam="1">  1       21 0.28563770E-02 0.23007287E+02</pdfrwt>
<pdfrwt beam="2">  1       21 0.13143119E-01 0.23007287E+02</pdfrwt>
<totfact> 0.25482393E+07</totfact>
</mgrwt>
</event>
<event>
 4    1  0.4447136E+006  0.2003377E+02  0.7546771E-02  0.1744657E+00
         21   -1    0    0  503  501  0.00000000000E+00  0.00000000000E+00  0.25278704472E+01  0.25278704472E+01  0.00000000000E+00 0.  1.
         21   -1    0    0  504  502 -0.00000000000E+00 -0.00000000000E+00 -0.73895429042E+03  0.73895429042E+03  0.00000000000E+00 0.  1.
         21    1    1    2  503  502  0.13143363385E+02 -0.15119650705E+02 -0.69672021351E+03  0.69700818341E+03  0.00000000000E+00 0.  1.
         21    1    1    2  504  501 -0.13143363385E+02  0.15119650705E+02 -0.39706206468E+02  0.44473977454E+02  0.00000000000E+00 0.  1.
<mgrwt>
<rscale>  2 0.20033767E+02</rscale>
<asrwt>0</asrwt>
<pdfrwt beam="1">  1       21 0.38890338E-03 0.20033767E+02</pdfrwt>
<pdfrwt beam="2">  1       21 0.11368521E+00 0.20033767E+02</pdfrwt>
<totfact> 0.82329748E+06</totfact>
</mgrwt>
</event>
<event>
 4    1  0.4447136E+006  0.2120360E+02  0.7546771E-02  0.1722401E+00
         21   -1    0    0  504  501  0.00000000000E+00  0.00000000000E+00  0.39878106575E+03  0.39878106575E+03  0.00000000000E+00 0.  1.
         21   -1    0    0  501  502 -0.00000000000E+00 -0.00000000000E+00 -0.13150721680E+01  0.13150721680E+01  0.00000000000E+00 0. -1.
         21    1    1    2  503  502  0.11111918648E+02  0.18058734112E+02  0.12316469579E+03  0.12497653741E+03  0.00000000000E+00 0. -1.
         21    1    1    2  504  503 -0.11111918648E+02 -0.18058734112E+02  0.27430129778E+03  0.27511960050E+03  0.00000000000E+00 0.  1.
<mgrwt>
<rscale>  2 0.21203599E+02</rscale>
<asrwt>0</asrwt>
<pdfrwt beam="1">  1       21 0.61350837E-01 0.21203599E+02</pdfrwt>
<pdfrwt beam="2">  1       21 0.20231911E-03 0.21203599E+02</pdfrwt>
<totfact> 0.78797990E+07</totfact>
</mgrwt>
</event>
<event>
 4    1  0.4447136E+006  0.2776811E+02  0.7546771E-02  0.1624156E+00
         21   -1    0    0  504  501  0.00000000000E+00  0.00000000000E+00  0.17573002871E+03  0.17573002871E+03  0.00000000000E+00 0. -1.
         21   -1    0    0  503  502 -0.00000000000E+00 -0.00000000000E+00 -0.17428885647E+02  0.17428885647E+02  0.00000000000E+00 0. -1.
         21    1    1    2  503  501  0.26411670619E+02  0.85727310408E+01  0.16269295055E+03  0.16504564284E+03  0.00000000000E+00 0. -1.
         21    1    1    2  504  502 -0.26411670619E+02 -0.85727310408E+01 -0.43918074852E+01  0.28113271517E+02  0.00000000000E+00 0. -1.
<mgrwt>
<rscale>  2 0.27768112E+02</rscale>
<asrwt>0</asrwt>
<pdfrwt beam="1">  1       21 0.27035388E-01 0.27768112E+02</pdfrwt>
<pdfrwt beam="2">  1       21 0.26813671E-02 0.27768112E+02</pdfrwt>
<totfact> 0.82866403E+06</totfact>
</mgrwt>
</event>
<event>
 4    1  0.4447136E+006  0.2476062E+02  0.7546771E-02  0.1664464E+00
         21   -1    0    0  504  501  0.00000000000E+00  0.00000000000E+00  0.67786183817E+01  0.67786183817E+01  0.00000000000E+00 0. -1.
         21   -1    0    0  503  502 -0.00000000000E+00 -0.00000000000E+00 -0.69896398570E+03  0.69896398570E+03  0.00000000000E+00 0.  1.
         21    1    1    2  503  501 -0.99412823545E+01 -0.22677283917E+02 -0.67534300597E+03  0.67579676236E+03  0.00000000000E+00 0.  1.
         21    1    1    2  504  502  0.99412823545E+01  0.22677283917E+02 -0.16842361347E+02  0.29945841722E+02  0.00000000000E+00 0. -1.
<mgrwt>
<rscale>  2 0.24760620E+02</rscale>
<asrwt>0</asrwt>
<pdfrwt beam="1">  1       21 0.10428643E-02 0.24760620E+02</pdfrwt>
<pdfrwt beam="2">  1       21 0.10753293E+00 0.24760620E+02</pdfrwt>
<totfact> 0.22218274E+06</totfact>
</mgrwt>
</event>
<event>
 4    1  0.4447136E+006  0.2248391E+02  0.7546771E-02  0.1700015E+00
         21   -1    0    0  504  501  0.00000000000E+00  0.00000000000E+00  0.91914911708E+03  0.91914911708E+03  0.00000000000E+00 0.  1.
         21   -1    0    0  501  502 -0.00000000000E+00 -0.00000000000E+00 -0.28467339498E+01  0.28467339498E+01  0.00000000000E+00 0.  1.
         21    1    1    2  503  502 -0.67642675238E+01  0.21442268693E+02  0.44073843118E+02  0.49477569151E+02  0.00000000000E+00 0.  1.
         21    1    1    2  504  503  0.67642675238E+01 -0.21442268693E+02  0.87222854001E+03  0.87251828187E+03  0.00000000000E+00 0.  1.
<mgrwt>
<rscale>  2 0.22483910E+02</rscale>
<asrwt>0</asrwt>
<pdfrwt beam="1">  1       21 0.14140732E+00 0.22483910E+02</pdfrwt>
<pdfrwt beam="2">  1       21 0.43795980E-03 0.22483910E+02</pdfrwt>
<totfact> 0.42787303E+06</totfact>
</mgrwt>
</event>
<event>
 4    1  0.4447136E+006  0.2217566E+02  0.7546771E-02  0.1705232E+00
         21   -1    0    0  503  501  0.00000000000E+00  0.00000000000E+00  0.13666429292E+01  0.13666429292E+01  0.00000000000E+00 0.  1.
         21   -1    0    0  504  502 -0.00000000000E+00 -0.00000000000E+00 -0.45710652615E+03  0.45710652615E+03  0.00000000000E+00 0.  1.
         21    1    1    2  503  502 -0.23399531852E+01 -0.22051864193E+02 -0.12212060290E+03  0.12411769313E+03  0.00000000000E+00 0.  1.
         21    1    1    2  504  501  0.23399531852E+01  0.22051864193E+02 -0.33361928032E+03  0.33435547595E+03  0.00000000000E+00 0.  1.
<mgrwt>
<rscale>  2 0.22175664E+02</rscale>
<asrwt>0</asrwt>
<pdfrwt beam="1">  1       21 0.21025268E-03 0.22175664E+02</pdfrwt>
<pdfrwt beam="2">  1       21 0.70324108E-01 0.22175664E+02</pdfrwt>
<totfact> 0.57181403E+07</totfact>
</mgrwt>
</event>
<event>
 4    1  0.4447136E+006  0.3097178E+02  0.7546771E-02  0.1587589E+00
         21   -1    0    0  504  501  0.00000000000E+00  0.00000000000E+00  0.39138257493E+02  0.39138257493E+02  0.00000000000E+00 0.  1.
         21   -1    0    0  503  502 -0.00000000000E+00 -0.00000000000E+00 -0.62027402183E+02  0.62027402183E+02  0.00000000000E+00 0.  1.
         21    1    1    2  503  501 -0.27680249154E+02 -0.13894413674E+02  0.27895197204E+02  0.41682045915E+02  0.00000000000E+00 0.  1.
         21    1    1    2  504  502  0.27680249154E+02  0.13894413674E+02 -0.50784341893E+02  0.59483613761E+02  0.00000000000E+00 0.  1.
<mgrwt>
<rscale>  2 0.30971776E+02</rscale>
<asrwt>0</asrwt>
<pdfrwt beam="1">  1       21 0.60212703E-02 0.30971776E+02</pdfrwt>
<pdfrwt beam="2">  1       21 0.95426773E-02 0.30971776E+02</pdfrwt>
<totfact> 0.14153435E+07</totfact>
</mgrwt>
</event>
<event>
 4    1  0.4447136E+006  0.2289635E+02  0.7546771E-02  0.1693196E+00
         21   -1    0    0  502  501  0.00000000000E+00  0.00000000000E+00  0.42061964439E+02  0.42061964439E+02  0.00000000000E+00 0.  1.
         21   -1    0    0  503  502 -0.00000000000E+00 -0.00000000000E+00 -0.85549988775E+02  0.85549988775E+02  0.00000000000E+00 0. -1.
         21    1    1    2  503  504  0.22474722124E+02 -0.43737476156E+01 -0.80719247561E+02  0.83903752774E+02  0.00000000000E+00 0. -1.
         21    1    1    2  504  501 -0.22474722124E+02  0.43737476156E+01  0.37231223226E+02  0.43708200439E+02  0.00000000000E+00 0.  1.
<mgrwt>
<rscale>  2 0.22896349E+02</rscale>
<asrwt>0</asrwt>
<pdfrwt beam="1">  1       21 0.64710715E-02 0.22896349E+02</pdfrwt>
<pdfrwt beam="2">  1       21 0.13161537E-01 0.22896349E+02</pdfrwt>
<totfact> 0.69672112E+06</totfact>
</mgrwt>
</event>
<event>
 4    1  0.4447136E+006  0.2544475E+02  0.7546771E-02  0.1654695E+00
         21   -1    0    0  504  501  0.00000000000E+00  0.00000000000E+00  0.35050605565E+02  0.35050605565E+02  0.00000000000E+00 0. -1.
         21   -1    0    0  503  502 -0.00000000000E+00 -0.00000000000E+00 -0.16164895394E+03  0.16164895394E+03  0.00000000000E+00 0.  1.
         21    1    1    2  503  501  0.13639738687E+02 -0.21480060137E+02 -0.15585938566E+03  0.15792271386E+03  0.00000000000E+00 0.  1.
         21    1    1    2  504  502 -0.13639738687E+02  0.21480060137E+02  0.29261037286E+02  0.38776845643E+02  0.00000000000E+00 0. -1.
<mgrwt>
<rscale>  2 0.25444753E+02</rscale>
<asrwt>0</asrwt>
<pdfrwt beam="1">  1       21 0.53924008E-02 0.25444753E+02</pdfrwt>
<pdfrwt beam="2">  1       21 0.24869070E-01 0.25444753E+02</pdfrwt>
<totfact> 0.31496607E+06</totfact>
</mgrwt>
</event>
<event>
 4    1  0.4447136E+006  0.3223736E+02  0.7546771E-02  0.1574598E+00
         21   -1    0    0  504  501  0.00000000000E+00  0.00000000000E+00  0.45186562231E+03  0.45186562231E+03  0.00000000000E+00 0.  1.
         21   -1    0    0  501  502 -0.00000000000E+00 -0.00000000000E+00 -0.33684006774E+01  0.33684006774E+01  0.00000000000E+00 0. -1.
         21    1    1    2  503  502  0.30146603531E+02  0.11420589529E+02  0.96051149749E+02  0.10131668637E+03  0.00000000000E+00 0. -1.
         21    1    1    2  504  503 -0.30146603531E+02 -0.11420589529E+02  0.35244607188E+03  0.35391733661E+03  0.00000000000E+00 0.  1.
<mgrwt>
<rscale>  2 0.32237363E+02</rscale>
<asrwt>0</asrwt>
<pdfrwt beam="1">  1       21 0.69517740E-01 0.32237363E+02</pdfrwt>
<pdfrwt beam="2">  1       21 0.51821585E-03 0.32237363E+02</pdfrwt>
<totfact> 0.16754320E+07</totfact>
</mgrwt>
</event>
<event>
 4    1  0.4447136E+006  0.2115776E+02  0.7546771E-02  0.1723239E+00
         21   -1    0    0  504  501  0.00000000000E+00  0.00000000000E+00  0.21194018625E+03  0.21194018625E+03  0.00000000000E+00 0. -1.
         21   -1    0    0  501  502 -0.00000000000E+00 -0.00000000000E+00 -0.50489578252E+01  0.50489578252E+01  0.00000000000E+00 0.  1.
         21    1    1    2  503  502  0.18015539298E+02  0.11094646052E+02  0.20700105853E+02  0.29599750161E+02  0.00000000000E+00 0.  1.
         21    1    1    2  504  503 -0.18015539298E+02 -0.11094646052E+02  0.18619112258E+03  0.18738939392E+03  0.00000000000E+00 0. -1.
<mgrwt>
<rscale>  2 0.21157760E+02</rscale>
<asrwt>0</asrwt>
<pdfrwt beam="1">  1       21 0.32606176E-01 0.21157760E+02</pdfrwt>
<pdfrwt beam="2">  1       21 0.77676291E-03 0.21157760E+02</pdfrwt>
<totfact> 0.36776547E+07</totfact>
</mgrwt>
</event>
<event>
 4    1  0.4447136E+006  0.2004155E+02  0.7546771E-02  0.1744503E+00
         21   -1    0    0  502  501  0.00000000000E+00  0.00000000000E+00  0.59963726691E+02  0.59963726691E+02  0.00000000000E+00 0.  1.
         21   -1    0    0  503  502 -0.00000000000E+00 -0.00000000000E+00 -0.98793096234E+01  0.98793096234E+01  0.00000000000E+00 0.  1.
         21    1    1    2  503  504 -0.20031737104E+02 -0.62710086014E+00  0.52268294223E+01  0.20711916683E+02  0.00000000000E+00 0.  1.
         21    1    1    2  504  501  0.20031737104E+02  0.62710086014E+00  0.44857587645E+02  0.49131119631E+02  0.00000000000E+00 0.  1.
<mgrwt>
<rscale>  2 0.20041551E+02</rscale>
<asrwt>0</asrwt>
<pdfrwt beam="1">  1       21 0.92251885E-02 0.20041551E+02</pdfrwt>
<pdfrwt beam="2">  1       21 0.15198938E-02 0.20041551E+02</pdfrwt>
<totfact> 0.11626694E+08</totfact>
</mgrwt>
</event>
<event>
 4    1  0.4447136E+006  0.2311190E+02  0.7546771E-02  0.1689703E+00
         21   -1    0    0  502  501  0.00000000000E+00  0.00000000000E+00  0.49673078334E+02  0.49673078334E+02  0.00000000000E+00 0.  1.
         21   -1    0    0  504  502 -0.00000000000E+00 -0.00000000000E+00 -0.13778162493E+02  0.13778162493E+02  0.00000000000E+00 0.  1.
         21    1    1    2  503  501 -0.11890110357E+02 -0.19818807695E+02  0.32812027335E+02  0.40134635922E+02  0.00000000000E+00 0.  1.
         21    1    1    2  504  503  0.11890110357E+02  0.19818807695E+02  0.30828885063E+01  0.23316604905E+02  0.00000000000E+00 0.  1.
<mgrwt>
<rscale>  2 0.23111899E+02</rscale>
<asrwt>0</asrwt>
<pdfrwt beam="1">  1       21 0.76420120E-02 0.23111899E+02</pdfrwt>
<pdfrwt beam="2">  1       21 0.21197173E-02 0.23111899E+02</pdfrwt>
<totfact> 0.99260454E+07</totfact>
</mgrwt>
</event>
<event>
 4    1  0.4447136E+006  0.2221613E+02  0.7546771E-02  0.1704541E+00
         21   -1    0    0  503  501  0.00000000000E+00  0.00000000000E+00  0.17968270115E+03  0.17968270115E+03  0.00000000000E+00 0. -1.
         21   -1    0    0  504  502 -0.00000000000E+00 -0.00000000000E+00 -0.35936484924E+01  0.35936484924E+01  0.00000000000E+00 0. -1.
         21    1    1    2  503  502 -0.22214869603E+02 -0.23676536855E+00  0.13252871959E+03  0.13437789255E+03  0.00000000000E+00 0. -1.
         21    1    1    2  504  501  0.22214869603E+02  0.23676536855E+00  0.43560333068E+02  0.48898457096E+02  0.00000000000E+00 0. -1.
<mgrwt>
<rscale>  2 0.22216131E+02</rscale>
<asrwt>0</asrwt>
<pdfrwt beam="1">  1       21 0.27643486E-01 0.22216131E+02</pdfrwt>
<pdfrwt beam="2">  1       21 0.55286914E-03 0.22216131E+02</pdfrwt>
<totfact> 0.83155844E+07</totfact>
</mgrwt>
</event>
<event>
 4    1  0.4447136E+006  0.2107731E+02  0.7546771E-02  0.1724716E+00
         21   -1    0    0  503  501  0.00000000000E+00  0.00000000000E+00  0.18631803492E+02  0.18631803492E+02  0.00000000000E+00 0.  1.
         21   -1    0    0  501  502 -0.00000000000E+00 -0.00000000000E+00 -0.34585809759E+03  0.34585809759E+03  0.00000000000E+00 0.  1.
         21    1    1    2  503  504  0.19518032478E+02 -0.79560933007E+01  0.12237555179E+02  0.24372336146E+02  0.00000000000E+00 0.  1.
         21    1    1    2  504  502 -0.19518032478E+02  0.79560933007E+01 -0.33946384927E+03  0.34011756493E+03  0.00000000000E+00 0.  1.
<mgrwt>
<rscale>  2 0.21077310E+02</rscale>
<asrwt>0</asrwt>
<pdfrwt beam="1">  1       21 0.28664315E-02 0.21077310E+02</pdfrwt>
<pdfrwt beam="2">  1       21 0.53208935E-01 0.21077310E+02</pdfrwt>
<totfact> 0.20130750E+06</totfact>
</mgrwt>
</event>
<event>
 4    1  0.4447136E+006  0.2347972E+02  0.7546771E-02  0.1683850E+00
         21   -1    0    0  503  501  0.00000000000E+00  0.00000000000E+00  0.14390759179E+02  0.14390759179E+02  0.00000000000E+00 0. -1.
         21   -1    0    0  504  502 -0.00000000000E+00 -0.00000000000E+00 -0.27835986389E+03  0.27835986389E+03  0.00000000000E+00 0.  1.
         21    1    1    2  503  502 -0.22810545248E+02  0.55656539400E+01 -0.26791477956E+03  0.26894167878E+03  0.00000000000E+00 0.  1.
         21    1    1    2  504  501  0.22810545248E+02 -0.55656539400E+01  0.39456748469E+01  0.23808944292E+02  0.00000000000E+00 0. -1.
<mgrwt>
<rscale>  2 0.23479725E+02</rscale>
<asrwt>0</asrwt>
<pdfrwt beam="1">  1       21 0.22139629E-02 0.23479725E+02</pdfrwt>
<pdfrwt beam="2">  1       21 0.42824596E-01 0.23479725E+02</pdfrwt>
<totfact> 0.46291236E+06</totfact>
</mgrwt>
</event>
<event>
 4    1  0.4447136E+006  0.3049247E+02  0.7546771E-02  0.1592708E+00
         21   -1    0    0  504  501  0.00000000000E+00  0.00000000000E+00  0.17522479817E+03  0.17522479817E+03  0.00000000000E+00 0.  1.
         21   -1    0    0  503  502 -0.00000000000E+00 -0.00000000000E+00 -0.12433738717E+02  0.12433738717E+02  0.00000000000E+00 0.  1.
         21    1    1    2  503  501  0.29141524462E+02 -0.89756477792E+01  0.10355192312E+02  0.32202805916E+02  0.00000000000E+00 0.  1.
         21    1    1    2  504  502 -0.29141524462E+02  0.89756477792E+01  0.15243586714E+03  0.15545573097E+03  0.00000000000E+00 0.  1.
<mgrwt>
<rscale>  2 0.30492470E+02</rscale>
<asrwt>0</asrwt>
<pdfrwt beam="1">  1       21 0.26957659E-01 0.30492470E+02</pdfrwt>
<pdfrwt beam="2">  1       21 0.19128830E-02 0.30492470E+02</pdfrwt>
<totfact> 0.14299086E+07</totfact>
</mgrwt>
</event>
<event>
 4    1  0.4447136E+006  0.2433302E+02  0.7546771E-02  0.1670771E+00
         21   -1    0    0  504  501  0.00000000000E+00  0.00000000000E+00  0.58553384748E+03  0.58553384748E+03  0.00000000000E+00 0. -1.
         21   -1    0    0  503  502 -0.00000000000E+00 -0.00000000000E+00 -0.36515412835E+01  0.36515412835E+01  0.00000000000E+00 0. -1.
         21    1    1    2  503  501 -0.11284062230E+02  0.21558427150E+02  0.40437920696E+02  0.47194504679E+02  0.00000000000E+00 0. -1.
         21    1    1    2  504  502  0.11284062230E+02 -0.21558427150E+02  0.54144438550E+03  0.54199088408E+03  0.00000000000E+00 0. -1.
<mgrwt>
<rscale>  2 0.24333020E+02</rscale>
<asrwt>0</asrwt>
<pdfrwt beam="1">  1       21 0.90082056E-01 0.24333020E+02</pdfrwt>
<pdfrwt beam="2">  1       21 0.56177605E-03 0.24333020E+02</pdfrwt>
<totfact> 0.82320875E+06</totfact>
</mgrwt>
</event>
<event>
 4    1  0.4447136E+006  0.2168393E+02  0.7546771E-02  0.1713776E+00
         21   -1    0    0  502  501  0.00000000000E+00  0.00000000000E+00  0.43171820814E+02  0.43171820814E+02  0.00000000000E+00 0.  1.
         21   -1    0    0  504  502 -0.00000000000E+00 -0.00000000000E+00 -0.28427630780E+02  0.28427630780E+02  0.00000000000E+00 0. -1.
         21    1    1    2  503  501 -0.14905671618E+02 -0.15748452132E+02  0.35489809142E+02  0.41589894732E+02  0.00000000000E+00 0.  1.
         21    1    1    2  504  503  0.14905671618E+02  0.15748452132E+02 -0.20745619107E+02  0.30009556862E+02  0.00000000000E+00 0. -1.
<mgrwt>
<rscale>  2 0.21683929E+02</rscale>
<asrwt>0</asrwt>
<pdfrwt beam="1">  1       21 0.66418186E-02 0.21683929E+02</pdfrwt>
<pdfrwt beam="2">  1       21 0.43734816E-02 0.21683929E+02</pdfrwt>
<totfact> 0.39642973E+07</totfact>
</mgrwt>
</event>
<event>
 4    1  0.4447136E+006  0.2066378E+02  0.7546771E-02  0.1732441E+00
         21   -1    0    0  504  501  0.00000000000E+00  0.00000000000E+00  0.10391711878E+03  0.10391711878E+03  0.00000000000E+00 0.  1.
         21   -1    0    0  501  502 -0.00000000000E+00 -0.00000000000E+00 -0.94671825216E+01  0.94671825216E+01  0.00000000000E+00 0. -1.
         21    1    1    2  503  502  0.15923405620E+02 -0.13169551152E+02  0.45746101489E+01  0.21164096534E+02  0.00000000000E+00 0. -1.
         21    1    1    2  504  503 -0.15923405620E+02  0.13169551152E+02  0.89875326108E+02  0.92220204766E+02  0.00000000000E+00 0.  1.
<mgrwt>
<rscale>  2 0.20663783E+02</rscale>
<asrwt>0</asrwt>
<pdfrwt beam="1">  1       21 0.15987248E-01 0.20663783E+02</pdfrwt>
<pdfrwt beam="2">  1       21 0.14564897E-02 0.20663783E+02</pdfrwt>
<totfact> 0.49995371E+07</totfact>
</mgrwt>
</event>
<event>
 4    1  0.4447136E+006  0.3551517E+02  0.7546771E-02  0.1544073E+00
         21   -1    0    0  503  501  0.00000000000E+00  0.00000000000E+00  0.83159435183E+02  0.83159435183E+02  0.00000000000E+00 0.  1.
         21   -1    0    0  504  502 -0.00000000000E+00 -0.00000000000E+00 -0.49161335103E+02  0.49161335103E+02  0.00000000000E+00 0.  1.
         21    1    1    2  503  502 -0.26845420912E+02  0.23251899049E+02  0.72014637835E+02  0.80295924528E+02  0.00000000000E+00 0.  1.
         21    1    1    2  504  501  0.26845420912E+02 -0.23251899049E+02 -0.38016537755E+02  0.52024845758E+02  0.00000000000E+00 0.  1.
<mgrwt>
<rscale>  2 0.35515172E+02</rscale>
<asrwt>0</asrwt>
<pdfrwt beam="1">  1       21 0.12793759E-01 0.35515172E+02</pdfrwt>
<pdfrwt beam="2">  1       21 0.75632823E-02 0.35515172E+02</pdfrwt>
<totfact> 0.60601822E+06</totfact>
</mgrwt>
</event>
<event>
 4    1  0.4447136E+006  0.2132290E+02  0.7546771E-02  0.1720232E+00
         21   -1    0    0  504  501  0.00000000000E+00  0.00000000000E+00  0.32337866776E+02  0.32337866776E+02  0.00000000000E+00 0. -1.
         21   -1    0    0  503  502 -0.00000000000E+00 -0.00000000000E+00 -0.14663578714E+02  0.14663578714E+02  0.00000000000E+00 0. -1.
         21    1    1    2  503  501 -0.17173618355E+02  0.12638546084E+02  0.40686960495E+01  0.21707609313E+02  0.00000000000E+00 0. -1.
         21    1    1    2  504  502  0.17173618355E+02 -0.12638546084E+02  0.13605592013E+02  0.25293836177E+02  0.00000000000E+00 0. -1.
<mgrwt>
<rscale>  2 0.21322899E+02</rscale>
<asrwt>0</asrwt>
<pdfrwt beam="1">  1       21 0.49750564E-02 0.21322899E+02</pdfrwt>
<pdfrwt beam="2">  1       21 0.22559352E-02 0.21322899E+02</pdfrwt>
<totfact> 0.17545251E+08</totfact>
</mgrwt>
</event>
<event>
 4    1  0.4447136E+006  0.2195981E+02  0.7546771E-02  0.1708948E+00
         21   -1    0    0  503  501  0.00000000000E+00  0.00000000000E+00  0.66137082889E+03  0.66137082889E+03  0.00000000000E+00 0. -1.
         21   -1    0    0  504  502 -0.00000000000E+00 -0.00000000000E+00 -0.73951995121E+00  0.73951995121E+00  0.00000000000E+00 0. -1.
         21    1    1    2  503  502  0.16225765126E+02  0.14797224720E+02  0.29109821757E+03  0.29192534248E+03  0.00000000000E+00 0. -1.
         21    1    1    2  504  501 -0.16225765126E+02 -0.14797224720E+02  0.36953309137E+03  0.37018500636E+03  0.00000000000E+00 0. -1.
<mgrwt>
<rscale>  2 0.21959811E+02</rscale>
<asrwt>0</asrwt>
<pdfrwt beam="1">  1       21 0.10174889E+00 0.21959811E+02</pdfrwt>
<pdfrwt beam="2">  1       21 0.11377283E-03 0.21959811E+02</pdfrwt>
<totfact> 0.62997476E+07</totfact>
</mgrwt>
</event>
<event>
 4    1  0.4447136E+006  0.3222890E+02  0.7546771E-02  0.1574682E+00
         21   -1    0    0  504  501  0.00000000000E+00  0.00000000000E+00  0.23379138932E+03  0.23379138932E+03  0.00000000000E+00 0. -1.
         21   -1    0    0  503  502 -0.00000000000E+00 -0.00000000000E+00 -0.48505700760E+01  0.48505700760E+01  0.00000000000E+00 0. -1.
         21    1    1    2  503  501  0.25397314389E+02 -0.19841338079E+02  0.79876754355E+02  0.86133606457E+02  0.00000000000E+00 0. -1.
         21    1    1    2  504  502 -0.25397314389E+02  0.19841338079E+02  0.14906406489E+03  0.15250835294E+03  0.00000000000E+00 0. -1.
<mgrwt>
<rscale>  2 0.32228904E+02</rscale>
<asrwt>0</asrwt>
<pdfrwt beam="1">  1       21 0.35967897E-01 0.32228904E+02</pdfrwt>
<pdfrwt beam="2">  1       21 0.74624173E-03 0.32228904E+02</pdfrwt>
<totfact> 0.35619495E+07</totfact>
</mgrwt>
</event>
<event>
 4    1  0.4447136E+006  0.2140558E+02  0.7546771E-02  0.1718740E+00
         21   -1    0    0  504  501  0.00000000000E+00  0.00000000000E+00  0.25976813512E+02  0.25976813512E+02  0.00000000000E+00 0. -1.
         21   -1    0    0  503  502 -0.00000000000E+00 -0.00000000000E+00 -0.30919742290E+02  0.30919742290E+02  0.00000000000E+00 0. -1.
         21    1    1    2  503  501 -0.15106495451E+02 -0.15165505753E+02 -0.21116067967E+02  0.30068041106E+02  0.00000000000E+00 0. -1.
         21    1    1    2  504  502  0.15106495451E+02  0.15165505753E+02  0.16173139189E+02  0.26828514696E+02  0.00000000000E+00 0. -1.
<mgrwt>
<rscale>  2 0.21405578E+02</rscale>
<asrwt>0</asrwt>
<pdfrwt beam="1">  1       21 0.39964329E-02 0.21405578E+02</pdfrwt>
<pdfrwt beam="2">  1       21 0.47568834E-02 0.21405578E+02</pdfrwt>
<totfact> 0.77592224E+07</totfact>
</mgrwt>
</event>
<event>
 4    1  0.4447136E+006  0.2263202E+02  0.7546771E-02  0.1697545E+00
         21   -1    0    0  503  501  0.00000000000E+00  0.00000000000E+00  0.68441978442E+03  0.68441978442E+03  0.00000000000E+00 0. -1.
         21   -1    0    0  504  502 -0.00000000000E+00 -0.00000000000E+00 -0.75982728322E+00  0.75982728322E+00  0.00000000000E+00 0. -1.
         21    1    1    2  503  502 -0.18794198518E+02  0.12608978942E+02  0.38387436957E+03  0.38454094692E+03  0.00000000000E+00 0. -1.
         21    1    1    2  504  501  0.18794198518E+02 -0.12608978942E+02  0.29978558757E+03  0.30063866478E+03  0.00000000000E+00 0. -1.
<mgrwt>
<rscale>  2 0.22632018E+02</rscale>
<asrwt>0</asrwt>
<pdfrwt beam="1">  1       21 0.10529486E+00 0.22632018E+02</pdfrwt>
<pdfrwt beam="2">  1       21 0.11689705E-03 0.22632018E+02</pdfrwt>
<totfact> 0.56590593E+07</totfact>
</mgrwt>
</event>
<event>
 4    1  0.4447136E+006  0.2067019E+02  0.7546771E-02  0.1732320E+00
         21   -1    0    0  504  501  0.00000000000E+00  0.00000000000E+00  0.39030060198E+02  0.39030060198E+02  0.00000000000E+00 0. -1.
         21   -1    0    0  503  502 -0.00000000000E+00 -0.00000000000E+00 -0.14185426147E+02  0.14185426147E+02  0.00000000000E+00 0. -1.
         21    1    1    2  503  501 -0.20515825425E+02 -0.25214481936E+01 -0.29111798937E+00  0.20672240894E+02  0.00000000000E+00 0. -1.
         21    1    1    2  504  502  0.20515825425E+02  0.25214481936E+01  0.25135752040E+02  0.32543245452E+02  0.00000000000E+00 0. -1.
<mgrwt>
<rscale>  2 0.20670191E+02</rscale>
<asrwt>0</asrwt>
<pdfrwt beam="1">  1       21 0.60046246E-02 0.20670191E+02</pdfrwt>
<pdfrwt beam="2">  1       21 0.21823733E-02 0.20670191E+02</pdfrwt>
<totfact> 0.13550195E+08</totfact>
</mgrwt>
</event>
<event>
 4    1  0.4447136E+006  0.2323928E+02  0.7546771E-02  0.1687661E+00
         21   -1    0    0  503  501  0.00000000000E+00  0.00000000000E+00  0.72653501932E+02  0.72653501932E+02  0.00000000000E+00 0. -1.
         21   -1    0    0  504  502 -0.00000000000E+00 -0.00000000000E+00 -0.74342038185E+01  0.74342038185E+01  0.00000000000E+00 0. -1.
         21    1    1    2  503  502  0.13976953290E+02 -0.18566338071E+02  0.33020324103E+02  0.40378285458E+02  0.00000000000E+00 0. -1.
         21    1    1    2  504  501 -0.13976953290E+02  0.18566338071E+02  0.32198974011E+02  0.39709420293E+02  0.00000000000E+00 0. -1.
<mgrwt>
<rscale>  2 0.23239280E+02</rscale>
<asrwt>0</asrwt>
<pdfrwt beam="1">  1       21 0.11177461E-01 0.23239280E+02</pdfrwt>
<pdfrwt beam="2">  1       21 0.11437237E-02 0.23239280E+02</pdfrwt>
<totfact> 0.13598610E+08</totfact>
</mgrwt>
</event>
<event>
 4    1  0.4447136E+006  0.2306451E+02  0.7546771E-02  0.1690467E+00
         21   -1    0    0  503  501  0.00000000000E+00  0.00000000000E+00  0.74954256726E+02  0.74954256726E+02  0.00000000000E+00 0. -1.
         21   -1    0    0  504  502 -0.00000000000E+00 -0.00000000000E+00 -0.71128508275E+01  0.71128508275E+01  0.00000000000E+00 0. -1.
         21    1    1    2  503  502 -0.23037151509E+02 -0.11230190466E+01  0.32000970493E+02  0.39446592171E+02  0.00000000000E+00 0. -1.
         21    1    1    2  504  501  0.23037151509E+02  0.11230190466E+01  0.35840435406E+02  0.42620515383E+02  0.00000000000E+00 0. -1.
<mgrwt>
<rscale>  2 0.23064508E+02</rscale>
<asrwt>0</asrwt>
<pdfrwt beam="1">  1       21 0.11531424E-01 0.23064508E+02</pdfrwt>
<pdfrwt beam="2">  1       21 0.10942848E-02 0.23064508E+02</pdfrwt>
<totfact> 0.13767671E+08</totfact>
</mgrwt>
</event>
<event>
 4    1  0.4447136E+006  0.2132166E+02  0.7546771E-02  0.1720255E+00
         21   -1    0    0  504  501  0.00000000000E+00  0.00000000000E+00  0.29286509204E+02  0.29286509204E+02  0.00000000000E+00 0.  1.
         21   -1    0    0  503  502 -0.00000000000E+00 -0.00000000000E+00 -0.32232613696E+02  0.32232613696E+02  0.00000000000E+00 0.  1.
         21    1    1    2  503  501  0.13425108308E+02 -0.16564407228E+02 -0.23620117593E+02  0.31820167740E+02  0.00000000000E+00 0.  1.
         21    1    1    2  504  502 -0.13425108308E+02  0.16564407228E+02  0.20674013101E+02  0.29698955160E+02  0.00000000000E+00 0.  1.
<mgrwt>
<rscale>  2 0.21321658E+02</rscale>
<asrwt>0</asrwt>
<pdfrwt beam="1">  1       21 0.45056168E-02 0.21321658E+02</pdfrwt>
<pdfrwt beam="2">  1       21 0.49588636E-02 0.21321658E+02</pdfrwt>
<totfact> 0.60072241E+07</totfact>
</mgrwt>
</event>
<event>
 4    1  0.4447136E+006  0.2042526E+02  0.7546771E-02  0.1737001E+00
         21   -1    0    0  504  501  0.00000000000E+00  0.00000000000E+00  0.10213809674E+03  0.10213809674E+03  0.00000000000E+00 0. -1.
         21   -1    0    0  501  502 -0.00000000000E+00 -0.00000000000E+00 -0.10059961032E+02  0.10059961032E+02  0.00000000000E+00 0. -1.
         21    1    1    2  503  502 -0.20197302928E+02  0.30430592044E+01  0.28036175719E+01  0.20616777789E+02  0.00000000000E+00 0. -1.
         21    1    1    2  504  503  0.20197302928E+02 -0.30430592044E+01  0.89274518139E+02  0.91581279986E+02  0.00000000000E+00 0. -1.
<mgrwt>
<rscale>  2 0.20425260E+02</rscale>
<asrwt>0</asrwt>
<pdfrwt beam="1">  1       21 0.15713553E-01 0.20425260E+02</pdfrwt>
<pdfrwt beam="2">  1       21 0.15476864E-02 0.20425260E+02</pdfrwt>
<totfact> 0.46822460E+07</totfact>
</mgrwt>
</event>
<event>
 4    1  0.4447136E+006  0.2141517E+02  0.7546771E-02  0.1718567E+00
         21   -1    0    0  503  501  0.00000000000E+00  0.00000000000E+00  0.36971586542E+01  0.36971586542E+01  0.00000000000E+00 0.  1.
         21   -1    0    0  504  502 -0.00000000000E+00 -0.00000000000E+00 -0.12440448212E+03  0.12440448212E+03  0.00000000000E+00 0.  1.
         21    1    1    2  503  502  0.20074546664E+02  0.74580282709E+01 -0.63802468497E+02  0.67300554201E+02  0.00000000000E+00 0.  1.
         21    1    1    2  504  501 -0.20074546664E+02 -0.74580282709E+01 -0.56904854968E+02  0.60801086573E+02  0.00000000000E+00 0.  1.
<mgrwt>
<rscale>  2 0.21415172E+02</rscale>
<asrwt>0</asrwt>
<pdfrwt beam="1">  1       21 0.56879361E-03 0.21415172E+02</pdfrwt>
<pdfrwt beam="2">  1       21 0.19139152E-01 0.21415172E+02</pdfrwt>
<totfact> 0.15098981E+08</totfact>
</mgrwt>
</event>
<event>
 4    1  0.4447136E+006  0.3162426E+02  0.7546771E-02  0.1580799E+00
         21   -1    0    0  503  501  0.00000000000E+00  0.00000000000E+00  0.17425032377E+03  0.17425032377E+03  0.00000000000E+00 0.  1.
         21   -1    0    0  504  502 -0.00000000000E+00 -0.00000000000E+00 -0.75274886071E+01  0.75274886071E+01  0.00000000000E+00 0. -1.
         21    1    1    2  503  502 -0.13444898907E+02  0.28623911262E+02  0.39063894877E+02  0.50260138137E+02  0.00000000000E+00 0. -1.
         21    1    1    2  504  501  0.13444898907E+02 -0.28623911262E+02  0.12765894028E+03  0.13151767424E+03  0.00000000000E+00 0.  1.
<mgrwt>
<rscale>  2 0.31624257E+02</rscale>
<asrwt>0</asrwt>
<pdfrwt beam="1">  1       21 0.26807739E-01 0.31624257E+02</pdfrwt>
<pdfrwt beam="2">  1       21 0.11580753E-02 0.31624257E+02</pdfrwt>
<totfact> 0.31421861E+07</totfact>
</mgrwt>
</event>
<event>
 4    1  0.4447136E+006  0.2491748E+02  0.7546771E-02  0.1662190E+00
         21   -1    0    0  502  501  0.00000000000E+00  0.00000000000E+00  0.14227558494E+03  0.14227558494E+03  0.00000000000E+00 0. -1.
         21   -1    0    0  503  502 -0.00000000000E+00 -0.00000000000E+00 -0.62169239832E+01  0.62169239832E+01  0.00000000000E+00 0. -1.
         21    1    1    2  503  504  0.15523699891E+02 -0.19490905922E+02  0.27494926348E+02  0.37105951637E+02  0.00000000000E+00 0. -1.
         21    1    1    2  504  501 -0.15523699891E+02  0.19490905922E+02  0.10856373461E+03  0.11138655729E+03  0.00000000000E+00 0. -1.
<mgrwt>
<rscale>  2 0.24917477E+02</rscale>
<asrwt>0</asrwt>
<pdfrwt beam="1">  1       21 0.21888549E-01 0.24917477E+02</pdfrwt>
<pdfrwt beam="2">  1       21 0.95644995E-03 0.24917477E+02</pdfrwt>
<totfact> 0.57356034E+07</totfact>
</mgrwt>
</event>
<event>
 4    1  0.4447136E+006  0.2165675E+02  0.7546771E-02  0.1714257E+00
         21   -1    0    0  502  501  0.00000000000E+00  0.00000000000E+00  0.59094513032E+01  0.59094513032E+01  0.00000000000E+00 0. -1.
         21   -1    0    0  504  502 -0.00000000000E+00 -0.00000000000E+00 -0.80551133206E+02  0.80551133206E+02  0.00000000000E+00 0. -1.
         21    1    1    2  503  501  0.13267980658E+02 -0.17116530576E+02 -0.32079192536E+02  0.38705161458E+02  0.00000000000E+00 0. -1.
         21    1    1    2  504  503 -0.13267980658E+02  0.17116530576E+02 -0.42562489367E+02  0.47755423051E+02  0.00000000000E+00 0. -1.
<mgrwt>
<rscale>  2 0.21656753E+02</rscale>
<asrwt>0</asrwt>
<pdfrwt beam="1">  1       21 0.90914637E-03 0.21656753E+02</pdfrwt>
<pdfrwt beam="2">  1       21 0.12392482E-01 0.21656753E+02</pdfrwt>
<totfact> 0.15818492E+08</totfact>
</mgrwt>
</event>
<event>
 4    1  0.4447136E+006  0.2868203E+02  0.7546771E-02  0.1613131E+00
         21   -1    0    0  504  501  0.00000000000E+00  0.00000000000E+00  0.12997507141E+03  0.12997507141E+03  0.00000000000E+00 0.  1.
         21   -1    0    0  503  502 -0.00000000000E+00 -0.00000000000E+00 -0.60878153812E+02  0.60878153812E+02  0.00000000000E+00 0. -1.
         21    1    1    2  503  501  0.13050298294E+02  0.25541115925E+02 -0.55781404072E+02  0.62723392195E+02  0.00000000000E+00 0. -1.
         21    1    1    2  504  502 -0.13050298294E+02 -0.25541115925E+02  0.12487832167E+03  0.12812983303E+03  0.00000000000E+00 0.  1.
<mgrwt>
<rscale>  2 0.28682031E+02</rscale>
<asrwt>0</asrwt>
<pdfrwt beam="1">  1       21 0.19996165E-01 0.28682031E+02</pdfrwt>
<pdfrwt beam="2">  1       21 0.93658699E-02 0.28682031E+02</pdfrwt>
<totfact> 0.19110426E+06</totfact>
</mgrwt>
</event>
<event>
 4    1  0.4447136E+006  0.2381124E+02  0.7546771E-02  0.1678688E+00
         21   -1    0    0  504  501  0.00000000000E+00  0.00000000000E+00  0.10991582224E+03  0.10991582224E+03  0.00000000000E+00 0. -1.
         21   -1    0    0  503  502 -0.00000000000E+00 -0.00000000000E+00 -0.36889205996E+02  0.36889205996E+02  0.00000000000E+00 0.  1.
         21    1    1    2  503  501 -0.22871959762E+02  0.66218253850E+01  0.10459067447E+03  0.10726688352E+03  0.00000000000E+00 0. -1.
         21    1    1    2  504  502  0.22871959762E+02 -0.66218253850E+01 -0.31564058232E+02  0.39538144707E+02  0.00000000000E+00 0.  1.
<mgrwt>
<rscale>  2 0.23811239E+02</rscale>
<asrwt>0</asrwt>
<pdfrwt beam="1">  1       21 0.16910126E-01 0.23811239E+02</pdfrwt>
<pdfrwt beam="2">  1       21 0.56752625E-02 0.23811239E+02</pdfrwt>
<totfact> 0.56534320E+06</totfact>
</mgrwt>
</event>
<event>
 4    1  0.4447136E+006  0.2689551E+02  0.7546771E-02  0.1635180E+00
         21   -1    0    0  503  501  0.00000000000E+00  0.00000000000E+00  0.32911430475E+02  0.32911430475E+02  0.00000000000E+00 0. -1.
         21   -1    0    0  504  502 -0.00000000000E+00 -0.00000000000E+00 -0.17393371416E+03  0.17393371416E+03  0.00000000000E+00 0. -1.
         21    1    1    2  503  502  0.12491178583E+02 -0.23818873364E+02 -0.16717857661E+03  0.16932821604E+03  0.00000000000E+00 0. -1.
         21    1    1    2  504  501 -0.12491178583E+02  0.23818873364E+02  0.26156292930E+02  0.37516928587E+02  0.00000000000E+00 0. -1.
<mgrwt>
<rscale>  2 0.26895507E+02</rscale>
<asrwt>0</asrwt>
<pdfrwt beam="1">  1       21 0.50632970E-02 0.26895507E+02</pdfrwt>
<pdfrwt beam="2">  1       21 0.26759033E-01 0.26895507E+02</pdfrwt>
<totfact> 0.30758193E+06</totfact>
</mgrwt>
</event>
<event>
 4    1  0.4447136E+006  0.2476379E+02  0.7546771E-02  0.1664418E+00
         21   -1    0    0  503  501  0.00000000000E+00  0.00000000000E+00  0.64332173218E+02  0.64332173218E+02  0.00000000000E+00 0.  1.
         21   -1    0    0  504  502 -0.00000000000E+00 -0.00000000000E+00 -0.10872339982E+02  0.10872339982E+02  0.00000000000E+00 0.  1.
         21    1    1    2  503  502  0.16774763919E+02 -0.18216815651E+02  0.39930170983E+02  0.46985781165E+02  0.00000000000E+00 0.  1.
         21    1    1    2  504  501 -0.16774763919E+02  0.18216815651E+02  0.13529662253E+02  0.28218732035E+02  0.00000000000E+00 0.  1.
<mgrwt>
<rscale>  2 0.24763786E+02</rscale>
<asrwt>0</asrwt>
<pdfrwt beam="1">  1       21 0.98972572E-02 0.24763786E+02</pdfrwt>
<pdfrwt beam="2">  1       21 0.16726677E-02 0.24763786E+02</pdfrwt>
<totfact> 0.95152786E+07</totfact>
</mgrwt>
</event>
<event>
 4    1  0.4447136E+006  0.2797586E+02  0.7546771E-02  0.1621605E+00
         21   -1    0    0  503  501  0.00000000000E+00  0.00000000000E+00  0.48858950710E+03  0.48858950710E+03  0.00000000000E+00 0.  1.
         21   -1    0    0  504  502 -0.00000000000E+00 -0.00000000000E+00 -0.16021325065E+01  0.16021325065E+01  0.00000000000E+00 0.  1.
         21    1    1    2  503  502  0.13882354978E+02  0.24288453818E+02  0.24672860342E+03  0.24830959005E+03  0.00000000000E+00 0.  1.
         21    1    1    2  504  501 -0.13882354978E+02 -0.24288453818E+02  0.24025877117E+03  0.24188204955E+03  0.00000000000E+00 0.  1.
<mgrwt>
<rscale>  2 0.27975860E+02</rscale>
<asrwt>0</asrwt>
<pdfrwt beam="1">  1       21 0.75167498E-01 0.27975860E+02</pdfrwt>
<pdfrwt beam="2">  1       21 0.24648231E-03 0.27975860E+02</pdfrwt>
<totfact> 0.41580561E+07</totfact>
</mgrwt>
</event>
<event>
 4    1  0.4447136E+006  0.2798162E+02  0.7546771E-02  0.1621534E+00
         21   -1    0    0  503  501  0.00000000000E+00  0.00000000000E+00  0.97241516862E+01  0.97241516862E+01  0.00000000000E+00 0.  1.
         21   -1    0    0  504  502 -0.00000000000E+00 -0.00000000000E+00 -0.13509433751E+03  0.13509433751E+03  0.00000000000E+00 0.  1.
         21    1    1    2  503  502 -0.10264315675E+02  0.26031040075E+02 -0.16661891175E+02  0.32566698346E+02  0.00000000000E+00 0.  1.
         21    1    1    2  504  501  0.10264315675E+02 -0.26031040075E+02 -0.10870829465E+03  0.11225179085E+03  0.00000000000E+00 0.  1.
<mgrwt>
<rscale>  2 0.27981623E+02</rscale>
<asrwt>0</asrwt>
<pdfrwt beam="1">  1       21 0.14960234E-02 0.27981623E+02</pdfrwt>
<pdfrwt beam="2">  1       21 0.20783744E-01 0.27981623E+02</pdfrwt>
<totfact> 0.32721680E+07</totfact>
</mgrwt>
</event>
<event>
 4    1  0.4447136E+006  0.2927323E+02  0.7546771E-02  0.1606264E+00
         21   -1    0    0  503  501  0.00000000000E+00  0.00000000000E+00  0.15849888822E+02  0.15849888822E+02  0.00000000000E+00 0. -1.
         21   -1    0    0  504  502 -0.00000000000E+00 -0.00000000000E+00 -0.15692784318E+03  0.15692784318E+03  0.00000000000E+00 0.  1.
         21    1    1    2  503  502 -0.28113526593E+02  0.81579290502E+01 -0.59709646661E+00  0.29279322193E+02  0.00000000000E+00 0. -1.
         21    1    1    2  504  501  0.28113526593E+02 -0.81579290502E+01 -0.14048085790E+03  0.14349840981E+03  0.00000000000E+00 0.  1.
<mgrwt>
<rscale>  2 0.29273233E+02</rscale>
<asrwt>0</asrwt>
<pdfrwt beam="1">  1       21 0.24384445E-02 0.29273233E+02</pdfrwt>
<pdfrwt beam="2">  1       21 0.24142744E-01 0.29273233E+02</pdfrwt>
<totfact> 0.11889701E+07</totfact>
</mgrwt>
</event>
<event>
 4    1  0.4447136E+006  0.2072356E+02  0.7546771E-02  0.1731311E+00
         21   -1    0    0  503  501  0.00000000000E+00  0.00000000000E+00  0.36678011969E+01  0.36678011969E+01  0.00000000000E+00 0. -1.
         21   -1    0    0  504  502 -0.00000000000E+00 -0.00000000000E+00 -0.54923238154E+03  0.54923238154E+03  0.00000000000E+00 0.  1.
         21    1    1    2  503  502 -0.20368788392E+02  0.38181772255E+01 -0.27564674097E+02  0.34485899669E+02  0.00000000000E+00 0. -1.
         21    1    1    2  504  501  0.20368788392E+02 -0.38181772255E+01 -0.51799990625E+03  0.51841428307E+03  0.00000000000E+00 0.  1.
<mgrwt>
<rscale>  2 0.20723562E+02</rscale>
<asrwt>0</asrwt>
<pdfrwt beam="1">  1       21 0.56427726E-03 0.20723562E+02</pdfrwt>
<pdfrwt beam="2">  1       21 0.84497267E-01 0.20723562E+02</pdfrwt>
<totfact> 0.91241468E+06</totfact>
</mgrwt>
</event>
<event>
 4    1  0.4447136E+006  0.2605112E+02  0.7546771E-02  0.1646348E+00
         21   -1    0    0  503  501  0.00000000000E+00  0.00000000000E+00  0.10426207122E+02  0.10426207122E+02  0.00000000000E+00 0. -1.
         21   -1    0    0  504  502 -0.00000000000E+00 -0.00000000000E+00 -0.11916705212E+03  0.11916705212E+03  0.00000000000E+00 0. -1.
         21    1    1    2  503  502 -0.23028086148E+02  0.12180638305E+02 -0.98019347456E+02  0.10142215328E+03  0.00000000000E+00 0. -1.
         21    1    1    2  504  501  0.23028086148E+02 -0.12180638305E+02 -0.10721497538E+02  0.28171105953E+02  0.00000000000E+00 0. -1.
<mgrwt>
<rscale>  2 0.26051117E+02</rscale>
<asrwt>0</asrwt>
<pdfrwt beam="1">  1       21 0.16040317E-02 0.26051117E+02</pdfrwt>
<pdfrwt beam="2">  1       21 0.18333394E-01 0.26051117E+02</pdfrwt>
<totfact> 0.36082482E+07</totfact>
</mgrwt>
</event>
<event>
 4    1  0.4447136E+006  0.2452811E+02  0.7546771E-02  0.1667874E+00
         21   -1    0    0  503  501  0.00000000000E+00  0.00000000000E+00  0.51545179045E+01  0.51545179045E+01  0.00000000000E+00 0.  1.
         21   -1    0    0  504  502 -0.00000000000E+00 -0.00000000000E+00 -0.15300945183E+03  0.15300945183E+03  0.00000000000E+00 0.  1.
         21    1    1    2  503  502  0.28961502711E+01  0.24356531141E+02 -0.35413628802E+02  0.43078456339E+02  0.00000000000E+00 0.  1.
         21    1    1    2  504  501 -0.28961502711E+01 -0.24356531141E+02 -0.11244130512E+03  0.11508551339E+03  0.00000000000E+00 0.  1.
<mgrwt>
<rscale>  2 0.24528112E+02</rscale>
<asrwt>0</asrwt>
<pdfrwt beam="1">  1       21 0.79300277E-03 0.24528112E+02</pdfrwt>
<pdfrwt beam="2">  1       21 0.23539915E-01 0.24528112E+02</pdfrwt>
<totfact> 0.66537228E+07</totfact>
</mgrwt>
</event>
<event>
 4    1  0.4447136E+006  0.2325120E+02  0.7546771E-02  0.1687470E+00
         21   -1    0    0  503  501  0.00000000000E+00  0.00000000000E+00  0.59291779011E+03  0.59291779011E+03  0.00000000000E+00 0.  1.
         21   -1    0    0  501  502 -0.00000000000E+00 -0.00000000000E+00 -0.60220044397E+01  0.60220044397E+01  0.00000000000E+00 0. -1.
         21    1    1    2  503  504  0.68808693314E+01  0.22209725513E+02  0.56931636797E+03  0.56979096615E+03  0.00000000000E+00 0.  1.
         21    1    1    2  504  502 -0.68808693314E+01 -0.22209725513E+02  0.17579417694E+02  0.29148828392E+02  0.00000000000E+00 0. -1.
<mgrwt>
<rscale>  2 0.23251199E+02</rscale>
<asrwt>0</asrwt>
<pdfrwt beam="1">  1       21 0.91218076E-01 0.23251199E+02</pdfrwt>
<pdfrwt beam="2">  1       21 0.92646269E-03 0.23251199E+02</pdfrwt>
<totfact> 0.37767244E+06</totfact>
</mgrwt>
</event>
<event>
 4    1  0.4447136E+006  0.2052365E+02  0.7546771E-02  0.1735111E+00
         21   -1    0    0  503  501  0.00000000000E+00  0.00000000000E+00  0.21270136134E+02  0.21270136134E+02  0.00000000000E+00 0.  1.
         21   -1    0    0  504  502 -0.00000000000E+00 -0.00000000000E+00 -0.29580892427E+02  0.29580892427E+02  0.00000000000E+00 0.  1.
         21    1    1    2  503  502 -0.19208183665E+02 -0.72295042187E+01  0.10462315630E+02  0.23036494943E+02  0.00000000000E+00 0.  1.
         21    1    1    2  504  501  0.19208183665E+02  0.72295042187E+01 -0.18773071923E+02  0.27814533617E+02  0.00000000000E+00 0.  1.
<mgrwt>
<rscale>  2 0.20523646E+02</rscale>
<asrwt>0</asrwt>
<pdfrwt beam="1">  1       21 0.32723286E-02 0.20523646E+02</pdfrwt>
<pdfrwt beam="2">  1       21 0.45509065E-02 0.20523646E+02</pdfrwt>
<totfact> 0.11235910E+08</totfact>
</mgrwt>
</event>
<event>
 4    1  0.4447136E+006  0.3442154E+02  0.7546771E-02  0.1553798E+00
         21   -1    0    0  504  501  0.00000000000E+00  0.00000000000E+00  0.13999085978E+02  0.13999085978E+02  0.00000000000E+00 0. -1.
         21   -1    0    0  501  502 -0.00000000000E+00 -0.00000000000E+00 -0.16678197276E+03  0.16678197276E+03  0.00000000000E+00 0. -1.
         21    1    1    2  503  502  0.24806568593E+02  0.23863709448E+02 -0.13982784285E+03  0.14400231981E+03  0.00000000000E+00 0. -1.
         21    1    1    2  504  503 -0.24806568593E+02 -0.23863709448E+02 -0.12955043931E+02  0.36778738929E+02  0.00000000000E+00 0. -1.
<mgrwt>
<rscale>  2 0.34421541E+02</rscale>
<asrwt>0</asrwt>
<pdfrwt beam="1">  1       21 0.21537055E-02 0.34421541E+02</pdfrwt>
<pdfrwt beam="2">  1       21 0.25658765E-01 0.34421541E+02</pdfrwt>
<totfact> 0.13266933E+07</totfact>
</mgrwt>
</event>
<event>
 4    1  0.4447136E+006  0.3755744E+02  0.7546771E-02  0.1526996E+00
         21   -1    0    0  503  501  0.00000000000E+00  0.00000000000E+00  0.24997396619E+02  0.24997396619E+02  0.00000000000E+00 0. -1.
         21   -1    0    0  504  502 -0.00000000000E+00 -0.00000000000E+00 -0.35278279324E+03  0.35278279324E+03  0.00000000000E+00 0. -1.
         21    1    1    2  503  502 -0.35436056545E+02  0.12443747896E+02 -0.33701827574E+03  0.33910452540E+03  0.00000000000E+00 0. -1.
         21    1    1    2  504  501  0.35436056545E+02 -0.12443747896E+02  0.92328791112E+01  0.38675664466E+02  0.00000000000E+00 0. -1.
<mgrwt>
<rscale>  2 0.37557436E+02</rscale>
<asrwt>0</asrwt>
<pdfrwt beam="1">  1       21 0.38457532E-02 0.37557436E+02</pdfrwt>
<pdfrwt beam="2">  1       21 0.54274277E-01 0.37557436E+02</pdfrwt>
<totfact> 0.12858994E+06</totfact>
</mgrwt>
</event>
<event>
 4    1  0.4447136E+006  0.2162434E+02  0.7546771E-02  0.1714831E+00
         21   -1    0    0  504  501  0.00000000000E+00  0.00000000000E+00  0.97557458649E+01  0.97557458649E+01  0.00000000000E+00 0. -1.
         21   -1    0    0  501  502 -0.00000000000E+00 -0.00000000000E+00 -0.20535797099E+03  0.20535797099E+03  0.00000000000E+00 0. -1.
         21    1    1    2  503  502 -0.16561240365E+02 -0.13904575425E+02 -0.19197285124E+03  0.19318692377E+03  0.00000000000E+00 0. -1.
         21    1    1    2  504  503  0.16561240365E+02  0.13904575425E+02 -0.36293738772E+01  0.21926793083E+02  0.00000000000E+00 0. -1.
<mgrwt>
<rscale>  2 0.21624336E+02</rscale>
<asrwt>0</asrwt>
<pdfrwt beam="1">  1       21 0.15008841E-02 0.21624336E+02</pdfrwt>
<pdfrwt beam="2">  1       21 0.31593531E-01 0.21624336E+02</pdfrwt>
<totfact> 0.14561349E+07</totfact>
</mgrwt>
</event>
<event>
 4    1  0.4447136E+006  0.2118510E+02  0.7546771E-02  0.1722739E+00
         21   -1    0    0  503  501  0.00000000000E+00  0.00000000000E+00  0.95979364867E+02  0.95979364867E+02  0.00000000000E+00 0.  1.
         21   -1    0    0  504  502 -0.00000000000E+00 -0.00000000000E+00 -0.53784562361E+01  0.53784562361E+01  0.00000000000E+00 0. -1.
         21    1    1    2  503  502  0.20928483606E+02  0.32874309663E+01  0.26986643771E+02  0.34308709833E+02  0.00000000000E+00 0. -1.
         21    1    1    2  504  501 -0.20928483606E+02 -0.32874309663E+01  0.63614264860E+02  0.67049111270E+02  0.00000000000E+00 0.  1.
<mgrwt>
<rscale>  2 0.21185104E+02</rscale>
<asrwt>0</asrwt>
<pdfrwt beam="1">  1       21 0.14766055E-01 0.21185104E+02</pdfrwt>
<pdfrwt beam="2">  1       21 0.82745487E-03 0.21185104E+02</pdfrwt>
<totfact> 0.13462908E+08</totfact>
</mgrwt>
</event>
<event>
 4    1  0.4447136E+006  0.2394305E+02  0.7546771E-02  0.1676664E+00
         21   -1    0    0  504  501  0.00000000000E+00  0.00000000000E+00  0.25582141045E+03  0.25582141045E+03  0.00000000000E+00 0. -1.
         21   -1    0    0  503  502 -0.00000000000E+00 -0.00000000000E+00 -0.12612581410E+02  0.12612581410E+02  0.00000000000E+00 0. -1.
         21    1    1    2  503  501 -0.50599637029E+01  0.23402272933E+02 -0.10667635648E+00  0.23943286970E+02  0.00000000000E+00 0. -1.
         21    1    1    2  504  502  0.50599637029E+01 -0.23402272933E+02  0.24331550540E+03  0.24449070489E+03  0.00000000000E+00 0. -1.
<mgrwt>
<rscale>  2 0.23943049E+02</rscale>
<asrwt>0</asrwt>
<pdfrwt beam="1">  1       21 0.39357136E-01 0.23943049E+02</pdfrwt>
<pdfrwt beam="2">  1       21 0.19403973E-02 0.23943049E+02</pdfrwt>
<totfact> 0.66742516E+06</totfact>
</mgrwt>
</event>
<event>
 4    1  0.4447136E+006  0.3088347E+02  0.7546771E-02  0.1588523E+00
         21   -1    0    0  503  501  0.00000000000E+00  0.00000000000E+00  0.32395996914E+01  0.32395996914E+01  0.00000000000E+00 0. -1.
         21   -1    0    0  501  502 -0.00000000000E+00 -0.00000000000E+00 -0.52134293469E+03  0.52134293469E+03  0.00000000000E+00 0. -1.
         21    1    1    2  503  504  0.15180612925E+01 -0.30846135633E+02 -0.86004092035E+02  0.91381028886E+02  0.00000000000E+00 0. -1.
         21    1    1    2  504  502 -0.15180612925E+01  0.30846135633E+02 -0.43209924297E+03  0.43320150550E+03  0.00000000000E+00 0. -1.
<mgrwt>
<rscale>  2 0.30883468E+02</rscale>
<asrwt>0</asrwt>
<pdfrwt beam="1">  1       21 0.49840018E-03 0.30883468E+02</pdfrwt>
<pdfrwt beam="2">  1       21 0.80206569E-01 0.30883468E+02</pdfrwt>
<totfact> 0.13063537E+07</totfact>
</mgrwt>
</event>
<event>
 4    1  0.4447136E+006  0.2085467E+02  0.7546771E-02  0.1728847E+00
         21   -1    0    0  504  501  0.00000000000E+00  0.00000000000E+00  0.38254956042E+02  0.38254956042E+02  0.00000000000E+00 0. -1.
         21   -1    0    0  503  502 -0.00000000000E+00 -0.00000000000E+00 -0.15075406390E+02  0.15075406390E+02  0.00000000000E+00 0. -1.
         21    1    1    2  503  501 -0.84313489317E+01 -0.19074322159E+02  0.24811600307E+02  0.32411925589E+02  0.00000000000E+00 0. -1.
         21    1    1    2  504  502  0.84313489317E+01  0.19074322159E+02 -0.16320506549E+01  0.20918436843E+02  0.00000000000E+00 0. -1.
<mgrwt>
<rscale>  2 0.20854674E+02</rscale>
<asrwt>0</asrwt>
<pdfrwt beam="1">  1       21 0.58853778E-02 0.20854674E+02</pdfrwt>
<pdfrwt beam="2">  1       21 0.23192933E-02 0.20854674E+02</pdfrwt>
<totfact> 0.12778853E+08</totfact>
</mgrwt>
</event>
<event>
 4    1  0.4447136E+006  0.5150144E+02  0.7546771E-02  0.1437407E+00
         21   -1    0    0  502  501  0.00000000000E+00  0.00000000000E+00  0.78646947204E+02  0.78646947204E+02  0.00000000000E+00 0.  1.
         21   -1    0    0  503  502 -0.00000000000E+00 -0.00000000000E+00 -0.14990175960E+03  0.14990175960E+03  0.00000000000E+00 0.  1.
         21    1    1    2  503  504  0.30874481001E+02 -0.41220928596E+02 -0.13622887420E+03  0.14563895322E+03  0.00000000000E+00 0.  1.
         21    1    1    2  504  501 -0.30874481001E+02  0.41220928596E+02  0.64974061802E+02  0.82909753578E+02  0.00000000000E+00 0.  1.
<mgrwt>
<rscale>  2 0.51501442E+02</rscale>
<asrwt>0</asrwt>
<pdfrwt beam="1">  1       21 0.12099530E-01 0.51501442E+02</pdfrwt>
<pdfrwt beam="2">  1       21 0.23061809E-01 0.51501442E+02</pdfrwt>
<totfact> 0.99962784E+05</totfact>
</mgrwt>
</event>
<event>
 4    1  0.4447136E+006  0.2387764E+02  0.7546771E-02  0.1677666E+00
         21   -1    0    0  504  501  0.00000000000E+00  0.00000000000E+00  0.99203169139E+02  0.99203169139E+02  0.00000000000E+00 0.  1.
         21   -1    0    0  503  502 -0.00000000000E+00 -0.00000000000E+00 -0.37134562647E+02  0.37134562647E+02  0.00000000000E+00 0.  1.
         21    1    1    2  503  501 -0.20699286495E+02 -0.11902991092E+02 -0.31637795825E+02  0.39637000177E+02  0.00000000000E+00 0.  1.
         21    1    1    2  504  502  0.20699286495E+02  0.11902991092E+02  0.93706402317E+02  0.96700731609E+02  0.00000000000E+00 0.  1.
<mgrwt>
<rscale>  2 0.23877639E+02</rscale>
<asrwt>0</asrwt>
<pdfrwt beam="1">  1       21 0.15262026E-01 0.23877639E+02</pdfrwt>
<pdfrwt beam="2">  1       21 0.57130097E-02 0.23877639E+02</pdfrwt>
<totfact> 0.66720828E+06</totfact>
</mgrwt>
</event>
<event>
 4    1  0.4447136E+006  0.3268208E+02  0.7546771E-02  0.1570203E+00
         21   -1    0    0  504  501  0.00000000000E+00  0.00000000000E+00  0.49631196118E+02  0.49631196118E+02  0.00000000000E+00 0.  1.
         21   -1    0    0  501  502 -0.00000000000E+00 -0.00000000000E+00 -0.99688924279E+02  0.99688924279E+02  0.00000000000E+00 0. -1.
         21    1    1    2  503  502  0.32636932038E+02 -0.17173272580E+01 -0.91140645364E+02  0.96823219235E+02  0.00000000000E+00 0. -1.
         21    1    1    2  504  503 -0.32636932038E+02  0.17173272580E+01  0.41082917202E+02  0.52496901162E+02  0.00000000000E+00 0.  1.
<mgrwt>
<rscale>  2 0.32682083E+02</rscale>
<asrwt>0</asrwt>
<pdfrwt beam="1">  1       21 0.76355687E-02 0.32682083E+02</pdfrwt>
<pdfrwt beam="2">  1       21 0.15336757E-01 0.32682083E+02</pdfrwt>
<totfact> 0.43203003E+06</totfact>
</mgrwt>
</event>
<event>
 4    1  0.4447136E+006  0.2123221E+02  0.7546771E-02  0.1721879E+00
         21   -1    0    0  504  501  0.00000000000E+00  0.00000000000E+00  0.74660028431E+01  0.74660028431E+01  0.00000000000E+00 0.  1.
         21   -1    0    0  503  502 -0.00000000000E+00 -0.00000000000E+00 -0.76522827738E+02  0.76522827738E+02  0.00000000000E+00 0.  1.
         21    1    1    2  503  501  0.13573338477E+02  0.16327010894E+02 -0.53815587931E+02  0.57852608468E+02  0.00000000000E+00 0.  1.
         21    1    1    2  504  502 -0.13573338477E+02 -0.16327010894E+02 -0.15241236964E+02  0.26136222113E+02  0.00000000000E+00 0.  1.
<mgrwt>
<rscale>  2 0.21232211E+02</rscale>
<asrwt>0</asrwt>
<pdfrwt beam="1">  1       21 0.11486158E-02 0.21232211E+02</pdfrwt>
<pdfrwt beam="2">  1       21 0.11772743E-01 0.21232211E+02</pdfrwt>
<totfact> 0.12066539E+08</totfact>
</mgrwt>
</event>
<event>
 4    1  0.4447136E+006  0.4038465E+02  0.7546771E-02  0.1505400E+00
         21   -1    0    0  503  501  0.00000000000E+00  0.00000000000E+00  0.29392782567E+03  0.29392782567E+03  0.00000000000E+00 0.  1.
         21   -1    0    0  504  502 -0.00000000000E+00 -0.00000000000E+00 -0.24434393152E+02  0.24434393152E+02  0.00000000000E+00 0. -1.
         21    1    1    2  503  502  0.13831476188E+02 -0.37942200007E+02 -0.51981906887E+01  0.40717827317E+02  0.00000000000E+00 0. -1.
         21    1    1    2  504  501 -0.13831476188E+02  0.37942200007E+02  0.27469162321E+03  0.27764439151E+03  0.00000000000E+00 0.  1.
<mgrwt>
<rscale>  2 0.40384654E+02</rscale>
<asrwt>0</asrwt>
<pdfrwt beam="1">  1       21 0.45219663E-01 0.40384654E+02</pdfrwt>
<pdfrwt beam="2">  1       21 0.37591376E-02 0.40384654E+02</pdfrwt>
<totfact> 0.19248875E+06</totfact>
</mgrwt>
</event>
<event>
 4    1  0.4447136E+006  0.2617941E+02  0.7546771E-02  0.1644617E+00
         21   -1    0    0  504  501  0.00000000000E+00  0.00000000000E+00  0.29643936630E+01  0.29643936630E+01  0.00000000000E+00 0.  1.
         21   -1    0    0  503  502 -0.00000000000E+00 -0.00000000000E+00 -0.24680876323E+03  0.24680876323E+03  0.00000000000E+00 0.  1.
         21    1    1    2  503  501  0.26160246211E+02 -0.10014697694E+01 -0.15333086722E+03  0.15554972281E+03  0.00000000000E+00 0.  1.
         21    1    1    2  504  502 -0.26160246211E+02  0.10014697694E+01 -0.90513502351E+02  0.94223434088E+02  0.00000000000E+00 0.  1.
<mgrwt>
<rscale>  2 0.26179408E+02</rscale>
<asrwt>0</asrwt>
<pdfrwt beam="1">  1       21 0.45606050E-03 0.26179408E+02</pdfrwt>
<pdfrwt beam="2">  1       21 0.37970584E-01 0.26179408E+02</pdfrwt>
<totfact> 0.64205923E+07</totfact>
</mgrwt>
</event>
<event>
 4    1  0.4447136E+006  0.2047328E+02  0.7546771E-02  0.1736077E+00
         21   -1    0    0  502  501  0.00000000000E+00  0.00000000000E+00  0.10817635013E+03  0.10817635013E+03  0.00000000000E+00 0.  1.
         21   -1    0    0  504  502 -0.00000000000E+00 -0.00000000000E+00 -0.10132520830E+02  0.10132520830E+02  0.00000000000E+00 0. -1.
         21    1    1    2  503  501  0.10786737379E+02  0.17401195045E+02  0.95509684902E+02  0.97679348904E+02  0.00000000000E+00 0.  1.
         21    1    1    2  504  503 -0.10786737379E+02 -0.17401195045E+02  0.25341443934E+01  0.20629522052E+02  0.00000000000E+00 0. -1.
<mgrwt>
<rscale>  2 0.20473282E+02</rscale>
<asrwt>0</asrwt>
<pdfrwt beam="1">  1       21 0.16642515E-01 0.20473282E+02</pdfrwt>
<pdfrwt beam="2">  1       21 0.15588494E-02 0.20473282E+02</pdfrwt>
<totfact> 0.42022242E+07</totfact>
</mgrwt>
</event>
<event>
 4    1  0.4447136E+006  0.2101785E+02  0.7546771E-02  0.1725813E+00
         21   -1    0    0  502  501  0.00000000000E+00  0.00000000000E+00  0.10110259783E+03  0.10110259783E+03  0.00000000000E+00 0. -1.
         21   -1    0    0  504  502 -0.00000000000E+00 -0.00000000000E+00 -0.23810978557E+03  0.23810978557E+03  0.00000000000E+00 0. -1.
         21    1    1    2  503  501 -0.18330314571E+02  0.10283468841E+02  0.99539252036E+02  0.10173403000E+03  0.00000000000E+00 0. -1.
         21    1    1    2  504  503  0.18330314571E+02 -0.10283468841E+02 -0.23654643978E+03  0.23747835340E+03  0.00000000000E+00 0. -1.
<mgrwt>
<rscale>  2 0.21017853E+02</rscale>
<asrwt>0</asrwt>
<pdfrwt beam="1">  1       21 0.15554246E-01 0.21017853E+02</pdfrwt>
<pdfrwt beam="2">  1       21 0.36632275E-01 0.21017853E+02</pdfrwt>
<totfact> 0.26691746E+05</totfact>
</mgrwt>
</event>
<event>
 4    1  0.4447136E+006  0.2047186E+02  0.7546771E-02  0.1736104E+00
         21   -1    0    0  504  501  0.00000000000E+00  0.00000000000E+00  0.58953203882E+01  0.58953203882E+01  0.00000000000E+00 0.  1.
         21   -1    0    0  503  502 -0.00000000000E+00 -0.00000000000E+00 -0.11919063393E+03  0.11919063393E+03  0.00000000000E+00 0.  1.
         21    1    1    2  503  501 -0.17683517486E+02 -0.10314557135E+02 -0.96379068238E+02  0.98529293481E+02  0.00000000000E+00 0.  1.
         21    1    1    2  504  502  0.17683517486E+02  0.10314557135E+02 -0.16916245302E+02  0.26556660834E+02  0.00000000000E+00 0.  1.
<mgrwt>
<rscale>  2 0.20471856E+02</rscale>
<asrwt>0</asrwt>
<pdfrwt beam="1">  1       21 0.90697244E-03 0.20471856E+02</pdfrwt>
<pdfrwt beam="2">  1       21 0.18337019E-01 0.20471856E+02</pdfrwt>
<totfact> 0.80315795E+07</totfact>
</mgrwt>
</event>
<event>
 4    1  0.4447136E+006  0.2596515E+02  0.7546771E-02  0.1647514E+00
         21   -1    0    0  502  501  0.00000000000E+00  0.00000000000E+00  0.18554552925E+03  0.18554552925E+03  0.00000000000E+00 0. -1.
         21   -1    0    0  504  502 -0.00000000000E+00 -0.00000000000E+00 -0.16553420832E+04  0.16553420832E+04  0.00000000000E+00 0. -1.
         21    1    1    2  503  501 -0.20356660917E+02  0.16118169855E+02  0.18453476646E+03  0.18635253977E+03  0.00000000000E+00 0. -1.
         21    1    1    2  504  503  0.20356660917E+02 -0.16118169855E+02 -0.16543313205E+04  0.16545350727E+04  0.00000000000E+00 0. -1.
<mgrwt>
<rscale>  2 0.25965151E+02</rscale>
<asrwt>0</asrwt>
<pdfrwt beam="1">  1       21 0.28545467E-01 0.25965151E+02</pdfrwt>
<pdfrwt beam="2">  1       21 0.25466801E+00 0.25965151E+02</pdfrwt>
<totfact> 0.12073899E+03</totfact>
</mgrwt>
</event>
<event>
 4    1  0.4447136E+006  0.2160651E+02  0.7546771E-02  0.1715147E+00
         21   -1    0    0  503  501  0.00000000000E+00  0.00000000000E+00  0.54435576436E+01  0.54435576436E+01  0.00000000000E+00 0. -1.
         21   -1    0    0  501  502 -0.00000000000E+00 -0.00000000000E+00 -0.12123003606E+03  0.12123003606E+03  0.00000000000E+00 0. -1.
         21    1    1    2  503  504 -0.17498125947E+02 -0.12675045742E+02 -0.23633828374E+02  0.32021852536E+02  0.00000000000E+00 0. -1.
         21    1    1    2  504  502  0.17498125947E+02  0.12675045742E+02 -0.92152650039E+02  0.94651741164E+02  0.00000000000E+00 0. -1.
<mgrwt>
<rscale>  2 0.21606508E+02</rscale>
<asrwt>0</asrwt>
<pdfrwt beam="1">  1       21 0.83747038E-03 0.21606508E+02</pdfrwt>
<pdfrwt beam="2">  1       21 0.18650775E-01 0.21606508E+02</pdfrwt>
<totfact> 0.89172878E+07</totfact>
</mgrwt>
</event>
<event>
 4    1  0.4447136E+006  0.2078066E+02  0.7546771E-02  0.1730235E+00
         21   -1    0    0  503  501  0.00000000000E+00  0.00000000000E+00  0.19497709649E+03  0.19497709649E+03  0.00000000000E+00 0.  1.
         21   -1    0    0  504  502 -0.00000000000E+00 -0.00000000000E+00 -0.23637636261E+01  0.23637636261E+01  0.00000000000E+00 0.  1.
         21    1    1    2  503  502  0.20777933329E+02 -0.33632349120E+00  0.71536868005E+02  0.74494020639E+02  0.00000000000E+00 0.  1.
         21    1    1    2  504  501 -0.20777933329E+02  0.33632349120E+00  0.12107646486E+03  0.12284683948E+03  0.00000000000E+00 0.  1.
<mgrwt>
<rscale>  2 0.20780655E+02</rscale>
<asrwt>0</asrwt>
<pdfrwt beam="1">  1       21 0.29996464E-01 0.20780655E+02</pdfrwt>
<pdfrwt beam="2">  1       21 0.36365609E-03 0.20780655E+02</pdfrwt>
<totfact> 0.13025857E+08</totfact>
</mgrwt>
</event>
<event>
 4    1  0.4447136E+006  0.4999212E+02  0.7546771E-02  0.1445384E+00
         21   -1    0    0  503  501  0.00000000000E+00  0.00000000000E+00  0.19561371892E+03  0.19561371892E+03  0.00000000000E+00 0.  1.
         21   -1    0    0  504  502 -0.00000000000E+00 -0.00000000000E+00 -0.29502852122E+02  0.29502852122E+02  0.00000000000E+00 0.  1.
         21    1    1    2  503  502 -0.35982868154E+02  0.34705119561E+02 -0.16964143662E+01  0.50020895094E+02  0.00000000000E+00 0.  1.
         21    1    1    2  504  501  0.35982868154E+02 -0.34705119561E+02  0.16780728117E+03  0.17509567595E+03  0.00000000000E+00 0.  1.
<mgrwt>
<rscale>  2 0.49992121E+02</rscale>
<asrwt>0</asrwt>
<pdfrwt beam="1">  1       21 0.30094418E-01 0.49992121E+02</pdfrwt>
<pdfrwt beam="2">  1       21 0.45389004E-02 0.49992121E+02</pdfrwt>
<totfact> 0.31474858E+06</totfact>
</mgrwt>
</event>
<event>
 4    1  0.4447136E+006  0.3275270E+02  0.7546771E-02  0.1569513E+00
         21   -1    0    0  502  501  0.00000000000E+00  0.00000000000E+00  0.43672617225E+02  0.43672617225E+02  0.00000000000E+00 0. -1.
         21   -1    0    0  504  502 -0.00000000000E+00 -0.00000000000E+00 -0.64776959611E+02  0.64776959611E+02  0.00000000000E+00 0. -1.
         21    1    1    2  503  501  0.19775500522E+02 -0.26108792227E+02  0.32172123061E+02  0.45910619194E+02  0.00000000000E+00 0. -1.
         21    1    1    2  504  503 -0.19775500522E+02  0.26108792227E+02 -0.53276465447E+02  0.62538957642E+02  0.00000000000E+00 0. -1.
<mgrwt>
<rscale>  2 0.32752701E+02</rscale>
<asrwt>0</asrwt>
<pdfrwt beam="1">  1       21 0.67188642E-02 0.32752701E+02</pdfrwt>
<pdfrwt beam="2">  1       21 0.99656861E-02 0.32752701E+02</pdfrwt>
<totfact> 0.11108637E+07</totfact>
</mgrwt>
</event>
<event>
 4    1  0.4447136E+006  0.3298057E+02  0.7546771E-02  0.1567301E+00
         21   -1    0    0  503  501  0.00000000000E+00  0.00000000000E+00  0.30402757163E+02  0.30402757163E+02  0.00000000000E+00 0. -1.
         21   -1    0    0  504  502 -0.00000000000E+00 -0.00000000000E+00 -0.56329300961E+02  0.56329300961E+02  0.00000000000E+00 0. -1.
         21    1    1    2  503  502  0.25308879019E+02 -0.21146603039E+02 -0.39157954530E+02  0.51196323894E+02  0.00000000000E+00 0. -1.
         21    1    1    2  504  501 -0.25308879019E+02  0.21146603039E+02  0.13231410732E+02  0.35535734230E+02  0.00000000000E+00 0. -1.
<mgrwt>
<rscale>  2 0.32980573E+02</rscale>
<asrwt>0</asrwt>
<pdfrwt beam="1">  1       21 0.46773473E-02 0.32980573E+02</pdfrwt>
<pdfrwt beam="2">  1       21 0.86660462E-02 0.32980573E+02</pdfrwt>
<totfact> 0.25279850E+07</totfact>
</mgrwt>
</event>
<event>
 4    1  0.4447136E+006  0.2501877E+02  0.7546771E-02  0.1660732E+00
         21   -1    0    0  504  501  0.00000000000E+00  0.00000000000E+00  0.34231536609E+03  0.34231536609E+03  0.00000000000E+00 0. -1.
         21   -1    0    0  503  502 -0.00000000000E+00 -0.00000000000E+00 -0.11752884993E+02  0.11752884993E+02  0.00000000000E+00 0. -1.
         21    1    1    2  503  501  0.24930542544E+02 -0.20992455933E+01  0.32796177146E+03  0.32891467332E+03  0.00000000000E+00 0. -1.
         21    1    1    2  504  502 -0.24930542544E+02  0.20992455933E+01  0.26007096319E+01  0.25153577762E+02  0.00000000000E+00 0. -1.
<mgrwt>
<rscale>  2 0.25018769E+02</rscale>
<asrwt>0</asrwt>
<pdfrwt beam="1">  1       21 0.52663895E-01 0.25018769E+02</pdfrwt>
<pdfrwt beam="2">  1       21 0.18081364E-02 0.25018769E+02</pdfrwt>
<totfact> 0.42755805E+06</totfact>
</mgrwt>
</event>
<event>
 4    1  0.4447136E+006  0.2293919E+02  0.7546771E-02  0.1692498E+00
         21   -1    0    0  503  501  0.00000000000E+00  0.00000000000E+00  0.36286544241E+03  0.36286544241E+03  0.00000000000E+00 0. -1.
         21   -1    0    0  504  502 -0.00000000000E+00 -0.00000000000E+00 -0.23215516685E+01  0.23215516685E+01  0.00000000000E+00 0.  1.
         21    1    1    2  503  502 -0.19642753764E+02  0.11847734612E+02  0.29214028651E+03  0.29303950858E+03  0.00000000000E+00 0. -1.
         21    1    1    2  504  501  0.19642753764E+02 -0.11847734612E+02  0.68403604233E+02  0.72147485493E+02  0.00000000000E+00 0.  1.
<mgrwt>
<rscale>  2 0.22939193E+02</rscale>
<asrwt>0</asrwt>
<pdfrwt beam="1">  1       21 0.55825408E-01 0.22939193E+02</pdfrwt>
<pdfrwt beam="2">  1       21 0.35716208E-03 0.22939193E+02</pdfrwt>
<totfact> 0.42459287E+07</totfact>
</mgrwt>
</event>
<event>
 4    1  0.4447136E+006  0.2132967E+02  0.7546771E-02  0.1720110E+00
         21   -1    0    0  502  501  0.00000000000E+00  0.00000000000E+00  0.39883000422E+03  0.39883000422E+03  0.00000000000E+00 0. -1.
         21   -1    0    0  503  502 -0.00000000000E+00 -0.00000000000E+00 -0.40950819564E+01  0.40950819564E+01  0.00000000000E+00 0. -1.
         21    1    1    2  503  504  0.20675345102E+02 -0.52426153968E+01  0.26249901282E+02  0.33823249823E+02  0.00000000000E+00 0. -1.
         21    1    1    2  504  501 -0.20675345102E+02  0.52426153968E+01  0.36848502098E+03  0.36910183635E+03  0.00000000000E+00 0. -1.
<mgrwt>
<rscale>  2 0.21329672E+02</rscale>
<asrwt>0</asrwt>
<pdfrwt beam="1">  1       21 0.61358432E-01 0.21329672E+02</pdfrwt>
<pdfrwt beam="2">  1       21 0.63001292E-03 0.21329672E+02</pdfrwt>
<totfact> 0.15033669E+07</totfact>
</mgrwt>
</event>
<event>
 4    1  0.4447136E+006  0.2549841E+02  0.7546771E-02  0.1653945E+00
         21   -1    0    0  503  501  0.00000000000E+00  0.00000000000E+00  0.84953323563E+02  0.84953323563E+02  0.00000000000E+00 0. -1.
         21   -1    0    0  501  502 -0.00000000000E+00 -0.00000000000E+00 -0.33278017377E+02  0.33278017377E+02  0.00000000000E+00 0.  1.
         21    1    1    2  503  504 -0.24604482384E+02 -0.66923968520E+01  0.77712149378E+02  0.81788427604E+02  0.00000000000E+00 0. -1.
         21    1    1    2  504  502  0.24604482384E+02  0.66923968520E+01 -0.26036843192E+02  0.36442913335E+02  0.00000000000E+00 0.  1.
<mgrwt>
<rscale>  2 0.25498406E+02</rscale>
<asrwt>0</asrwt>
<pdfrwt beam="1">  1       21 0.13069742E-01 0.25498406E+02</pdfrwt>
<pdfrwt beam="2">  1       21 0.51196950E-02 0.25498406E+02</pdfrwt>
<totfact> 0.10471887E+07</totfact>
</mgrwt>
</event>
<event>
 4    1  0.4447136E+006  0.2025736E+02  0.7546771E-02  0.1740258E+00
         21   -1    0    0  502  501  0.00000000000E+00  0.00000000000E+00  0.91219612895E+02  0.91219612895E+02  0.00000000000E+00 0.  1.
         21   -1    0    0  503  502 -0.00000000000E+00 -0.00000000000E+00 -0.11024801729E+02  0.11024801729E+02  0.00000000000E+00 0. -1.
         21    1    1    2  503  504  0.95519462025E+01  0.17863956503E+02  0.76464527430E+00  0.20271785827E+02  0.00000000000E+00 0. -1.
         21    1    1    2  504  501 -0.95519462025E+01 -0.17863956503E+02  0.79430165892E+02  0.81972628797E+02  0.00000000000E+00 0.  1.
<mgrwt>
<rscale>  2 0.20257360E+02</rscale>
<asrwt>0</asrwt>
<pdfrwt beam="1">  1       21 0.14033786E-01 0.20257360E+02</pdfrwt>
<pdfrwt beam="2">  1       21 0.16961234E-02 0.20257360E+02</pdfrwt>
<totfact> 0.49235988E+07</totfact>
</mgrwt>
</event>
<event>
 4    1  0.4447136E+006  0.2526180E+02  0.7546771E-02  0.1657270E+00
         21   -1    0    0  504  501  0.00000000000E+00  0.00000000000E+00  0.16855145753E+02  0.16855145753E+02  0.00000000000E+00 0. -1.
         21   -1    0    0  503  502 -0.00000000000E+00 -0.00000000000E+00 -0.41945296935E+02  0.41945296935E+02  0.00000000000E+00 0.  1.
         21    1    1    2  503  501 -0.21693494746E+02  0.12944143909E+02 -0.21718869910E+02  0.33314679737E+02  0.00000000000E+00 0. -1.
         21    1    1    2  504  502  0.21693494746E+02 -0.12944143909E+02 -0.33712812717E+01  0.25485762952E+02  0.00000000000E+00 0.  1.
<mgrwt>
<rscale>  2 0.25261801E+02</rscale>
<asrwt>0</asrwt>
<pdfrwt beam="1">  1       21 0.25930994E-02 0.25261801E+02</pdfrwt>
<pdfrwt beam="2">  1       21 0.64531225E-02 0.25261801E+02</pdfrwt>
<totfact> 0.98031900E+07</totfact>
</mgrwt>
</event>
<event>
 4    1  0.4447136E+006  0.2145498E+02  0.7546771E-02  0.1717852E+00
         21   -1    0    0  504  501  0.00000000000E+00  0.00000000000E+00  0.21575034401E+03  0.21575034401E+03  0.00000000000E+00 0.  1.
         21   -1    0    0  501  502 -0.00000000000E+00 -0.00000000000E+00 -0.27142858765E+01  0.27142858765E+01  0.00000000000E+00 0.  1.
         21    1    1    2  503  502  0.67465718810E+01 -0.20366635210E+02  0.55992676492E+02  0.59962453941E+02  0.00000000000E+00 0.  1.
         21    1    1    2  504  503 -0.67465718810E+01  0.20366635210E+02  0.15704338164E+03  0.15850217595E+03  0.00000000000E+00 0.  1.
<mgrwt>
<rscale>  2 0.21454978E+02</rscale>
<asrwt>0</asrwt>
<pdfrwt beam="1">  1       21 0.33192347E-01 0.21454978E+02</pdfrwt>
<pdfrwt beam="2">  1       21 0.41758261E-03 0.21454978E+02</pdfrwt>
<totfact> 0.89278289E+07</totfact>
</mgrwt>
</event>
<event>
 4    1  0.4447136E+006  0.2243740E+02  0.7546771E-02  0.1700795E+00
         21   -1    0    0  504  501  0.00000000000E+00  0.00000000000E+00  0.10350143599E+04  0.10350143599E+04  0.00000000000E+00 0. -1.
         21   -1    0    0  503  502 -0.00000000000E+00 -0.00000000000E+00 -0.78915523318E+00  0.78915523318E+00  0.00000000000E+00 0. -1.
         21    1    1    2  503  501 -0.18743930783E+02  0.12332965841E+02  0.19633219548E+03  0.19761014137E+03  0.00000000000E+00 0. -1.
         21    1    1    2  504  502  0.18743930783E+02 -0.12332965841E+02  0.83789300916E+03  0.83819337374E+03  0.00000000000E+00 0. -1.
<mgrwt>
<rscale>  2 0.22437402E+02</rscale>
<asrwt>0</asrwt>
<pdfrwt beam="1">  1       21 0.15923189E+00 0.22437402E+02</pdfrwt>
<pdfrwt beam="2">  1       21 0.12140933E-03 0.22437402E+02</pdfrwt>
<totfact> 0.20686713E+07</totfact>
</mgrwt>
</event>
<event>
 4    1  0.4447136E+006  0.3865759E+02  0.7546771E-02  0.1518329E+00
         21   -1    0    0  504  501  0.00000000000E+00  0.00000000000E+00  0.24750573572E+03  0.24750573572E+03  0.00000000000E+00 0. -1.
         21   -1    0    0  503  502 -0.00000000000E+00 -0.00000000000E+00 -0.82207312645E+01  0.82207312645E+01  0.00000000000E+00 0. -1.
         21    1    1    2  503  501 -0.26580643252E+02  0.28069172532E+02  0.53755023799E+02  0.66211869223E+02  0.00000000000E+00 0. -1.
         21    1    1    2  504  502  0.26580643252E+02 -0.28069172532E+02  0.18552998065E+03  0.18951459776E+03  0.00000000000E+00 0. -1.
<mgrwt>
<rscale>  2 0.38657587E+02</rscale>
<asrwt>0</asrwt>
<pdfrwt beam="1">  1       21 0.38077800E-01 0.38657587E+02</pdfrwt>
<pdfrwt beam="2">  1       21 0.12647281E-02 0.38657587E+02</pdfrwt>
<totfact> 0.14758489E+07</totfact>
</mgrwt>
</event>
<event>
 4    1  0.4447136E+006  0.2716441E+02  0.7546771E-02  0.1631728E+00
         21   -1    0    0  504  501  0.00000000000E+00  0.00000000000E+00  0.40073786053E+01  0.40073786053E+01  0.00000000000E+00 0.  1.
         21   -1    0    0  503  502 -0.00000000000E+00 -0.00000000000E+00 -0.18974128481E+03  0.18974128481E+03  0.00000000000E+00 0.  1.
         21    1    1    2  503  501 -0.20271482922E+02  0.18082376177E+02 -0.76217471255E+02  0.80913585216E+02  0.00000000000E+00 0.  1.
         21    1    1    2  504  502  0.20271482922E+02 -0.18082376177E+02 -0.10951643495E+03  0.11283507820E+03  0.00000000000E+00 0.  1.
<mgrwt>
<rscale>  2 0.27164413E+02</rscale>
<asrwt>0</asrwt>
<pdfrwt beam="1">  1       21 0.61652003E-03 0.27164413E+02</pdfrwt>
<pdfrwt beam="2">  1       21 0.29190955E-01 0.27164413E+02</pdfrwt>
<totfact> 0.67384023E+07</totfact>
</mgrwt>
</event>
<event>
 4    1  0.4447136E+006  0.2530932E+02  0.7546771E-02  0.1656598E+00
         21   -1    0    0  502  501  0.00000000000E+00  0.00000000000E+00  0.15452398064E+01  0.15452398064E+01  0.00000000000E+00 0. -1.
         21   -1    0    0  504  502 -0.00000000000E+00 -0.00000000000E+00 -0.64500389377E+03  0.64500389377E+03  0.00000000000E+00 0. -1.
         21    1    1    2  503  501  0.15175376274E+02  0.20255119267E+02 -0.12849115516E+03  0.13096006589E+03  0.00000000000E+00 0. -1.
         21    1    1    2  504  503 -0.15175376274E+02 -0.20255119267E+02 -0.51496749880E+03  0.51558906770E+03  0.00000000000E+00 0. -1.
<mgrwt>
<rscale>  2 0.25309324E+02</rscale>
<asrwt>0</asrwt>
<pdfrwt beam="1">  1       21 0.23772903E-03 0.25309324E+02</pdfrwt>
<pdfrwt beam="2">  1       21 0.99231438E-01 0.25309324E+02</pdfrwt>
<totfact> 0.23733005E+07</totfact>
</mgrwt>
</event>
<event>
 4    1  0.4447136E+006  0.2236683E+02  0.7546771E-02  0.1701984E+00
         21   -1    0    0  504  501  0.00000000000E+00  0.00000000000E+00  0.35459781812E+01  0.35459781812E+01  0.00000000000E+00 0.  1.
         21   -1    0    0  503  502 -0.00000000000E+00 -0.00000000000E+00 -0.20424557207E+03  0.20424557207E+03  0.00000000000E+00 0.  1.
         21    1    1    2  503  501  0.17962428999E+02 -0.13327642550E+02 -0.42572965197E+02  0.48090875196E+02  0.00000000000E+00 0.  1.
         21    1    1    2  504  502 -0.17962428999E+02  0.13327642550E+02 -0.15812662870E+03  0.15970067506E+03  0.00000000000E+00 0.  1.
<mgrwt>
<rscale>  2 0.22366826E+02</rscale>
<asrwt>0</asrwt>
<pdfrwt beam="1">  1       21 0.54553499E-03 0.22366826E+02</pdfrwt>
<pdfrwt beam="2">  1       21 0.31422402E-01 0.22366826E+02</pdfrwt>
<totfact> 0.67350728E+07</totfact>
</mgrwt>
</event>
<event>
 4    1  0.4447136E+006  0.2371220E+02  0.7546771E-02  0.1680219E+00
         21   -1    0    0  502  501  0.00000000000E+00  0.00000000000E+00  0.59937768036E+01  0.59937768036E+01  0.00000000000E+00 0. -1.
         21   -1    0    0  504  502 -0.00000000000E+00 -0.00000000000E+00 -0.14521713655E+03  0.14521713655E+03  0.00000000000E+00 0. -1.
         21    1    1    2  503  501 -0.32065500166E+01  0.23494387600E+02 -0.24627320046E+02  0.34187323738E+02  0.00000000000E+00 0. -1.
         21    1    1    2  504  503  0.32065500166E+01 -0.23494387600E+02 -0.11459603970E+03  0.11702358962E+03  0.00000000000E+00 0. -1.
<mgrwt>
<rscale>  2 0.23712195E+02</rscale>
<asrwt>0</asrwt>
<pdfrwt beam="1">  1       21 0.92211954E-03 0.23712195E+02</pdfrwt>
<pdfrwt beam="2">  1       21 0.22341097E-01 0.23712195E+02</pdfrwt>
<totfact> 0.57733583E+07</totfact>
</mgrwt>
</event>
<event>
 4    1  0.4447136E+006  0.3035787E+02  0.7546771E-02  0.1594166E+00
         21   -1    0    0  504  501  0.00000000000E+00  0.00000000000E+00  0.98172066072E+01  0.98172066072E+01  0.00000000000E+00 0.  1.
         21   -1    0    0  503  502 -0.00000000000E+00 -0.00000000000E+00 -0.22635735291E+03  0.22635735291E+03  0.00000000000E+00 0. -1.
         21    1    1    2  503  501 -0.29864279581E+02  0.54520750863E+01 -0.17929435019E+02  0.35257126340E+02  0.00000000000E+00 0.  1.
         21    1    1    2  504  502  0.29864279581E+02 -0.54520750863E+01 -0.19861071129E+03  0.20091743318E+03  0.00000000000E+00 0. -1.
<mgrwt>
<rscale>  2 0.30357871E+02</rscale>
<asrwt>0</asrwt>
<pdfrwt beam="1">  1       21 0.15103395E-02 0.30357871E+02</pdfrwt>
<pdfrwt beam="2">  1       21 0.34824207E-01 0.30357871E+02</pdfrwt>
<totfact> 0.12822820E+07</totfact>
</mgrwt>
</event>
<event>
 4    1  0.4447136E+006  0.2121321E+02  0.7546771E-02  0.1722225E+00
         21   -1    0    0  503  501  0.00000000000E+00  0.00000000000E+00  0.54001450247E+02  0.54001450247E+02  0.00000000000E+00 0. -1.
         21   -1    0    0  504  502 -0.00000000000E+00 -0.00000000000E+00 -0.16866263266E+02  0.16866263266E+02  0.00000000000E+00 0. -1.
         21    1    1    2  503  502 -0.53253646067E+01  0.20533897998E+02 -0.66360628166E+01  0.22226961216E+02  0.00000000000E+00 0. -1.
         21    1    1    2  504  501  0.53253646067E+01 -0.20533897998E+02  0.43771249797E+02  0.48640752297E+02  0.00000000000E+00 0. -1.
<mgrwt>
<rscale>  2 0.21213215E+02</rscale>
<asrwt>0</asrwt>
<pdfrwt beam="1">  1       21 0.83079153E-02 0.21213215E+02</pdfrwt>
<pdfrwt beam="2">  1       21 0.25948098E-02 0.21213215E+02</pdfrwt>
<totfact> 0.61937451E+07</totfact>
</mgrwt>
</event>
<event>
 4    1  0.4447136E+006  0.2753121E+02  0.7546771E-02  0.1627099E+00
         21   -1    0    0  504  501  0.00000000000E+00  0.00000000000E+00  0.42987173858E+02  0.42987173858E+02  0.00000000000E+00 0.  1.
         21   -1    0    0  501  502 -0.00000000000E+00 -0.00000000000E+00 -0.14053986300E+03  0.14053986300E+03  0.00000000000E+00 0.  1.
         21    1    1    2  503  502 -0.96676675167E+01  0.25777970816E+02 -0.13459059226E+03  0.13737756404E+03  0.00000000000E+00 0.  1.
         21    1    1    2  504  503  0.96676675167E+01 -0.25777970816E+02  0.37037903118E+02  0.46149472825E+02  0.00000000000E+00 0.  1.
<mgrwt>
<rscale>  2 0.27531211E+02</rscale>
<asrwt>0</asrwt>
<pdfrwt beam="1">  1       21 0.66134114E-02 0.27531211E+02</pdfrwt>
<pdfrwt beam="2">  1       21 0.21621517E-01 0.27531211E+02</pdfrwt>
<totfact> 0.29351092E+06</totfact>
</mgrwt>
</event>
<event>
 4    1  0.4447136E+006  0.2344276E+02  0.7546771E-02  0.1684432E+00
         21   -1    0    0  504  501  0.00000000000E+00  0.00000000000E+00  0.21804940022E+01  0.21804940022E+01  0.00000000000E+00 0. -1.
         21   -1    0    0  501  502 -0.00000000000E+00 -0.00000000000E+00 -0.39095527991E+03  0.39095527991E+03  0.00000000000E+00 0.  1.
         21    1    1    2  503  502  0.16295868103E+02 -0.16852521941E+02 -0.31156116577E+03  0.31244187112E+03  0.00000000000E+00 0.  1.
         21    1    1    2  504  503 -0.16295868103E+02  0.16852521941E+02 -0.77213620135E+02  0.80693902789E+02  0.00000000000E+00 0. -1.
<mgrwt>
<rscale>  2 0.23442756E+02</rscale>
<asrwt>0</asrwt>
<pdfrwt beam="1">  1       21 0.33546083E-03 0.23442756E+02</pdfrwt>
<pdfrwt beam="2">  1       21 0.60146927E-01 0.23442756E+02</pdfrwt>
<totfact> 0.40319472E+07</totfact>
</mgrwt>
</event>
<event>
 4    1  0.4447136E+006  0.2817058E+02  0.7546771E-02  0.1619238E+00
         21   -1    0    0  504  501  0.00000000000E+00  0.00000000000E+00  0.27322947935E+02  0.27322947935E+02  0.00000000000E+00 0.  1.
         21   -1    0    0  501  502 -0.00000000000E+00 -0.00000000000E+00 -0.37944845223E+03  0.37944845223E+03  0.00000000000E+00 0.  1.
         21    1    1    2  503  502 -0.22169838546E+02 -0.17380451229E+02 -0.37150952742E+03  0.37257604699E+03  0.00000000000E+00 0.  1.
         21    1    1    2  504  503  0.22169838546E+02  0.17380451229E+02  0.19384023127E+02  0.34195353174E+02  0.00000000000E+00 0.  1.
<mgrwt>
<rscale>  2 0.28170584E+02</rscale>
<asrwt>0</asrwt>
<pdfrwt beam="1">  1       21 0.42035305E-02 0.28170584E+02</pdfrwt>
<pdfrwt beam="2">  1       21 0.58376684E-01 0.28170584E+02</pdfrwt>
<totfact> 0.94524968E+05</totfact>
</mgrwt>
</event>
<event>
 4    1  0.4447136E+006  0.4106753E+02  0.7546771E-02  0.1500499E+00
         21   -1    0    0  503  501  0.00000000000E+00  0.00000000000E+00  0.48421225744E+03  0.48421225744E+03  0.00000000000E+00 0. -1.
         21   -1    0    0  504  502 -0.00000000000E+00 -0.00000000000E+00 -0.39636633266E+01  0.39636633266E+01  0.00000000000E+00 0. -1.
         21    1    1    2  503  502  0.23111425506E+02 -0.33947080103E+02  0.32511855781E+03  0.32770202756E+03  0.00000000000E+00 0. -1.
         21    1    1    2  504  501 -0.23111425506E+02  0.33947080103E+02  0.15513003631E+03  0.16047389321E+03  0.00000000000E+00 0. -1.
<mgrwt>
<rscale>  2 0.41067533E+02</rscale>
<asrwt>0</asrwt>
<pdfrwt beam="1">  1       21 0.74494147E-01 0.41067533E+02</pdfrwt>
<pdfrwt beam="2">  1       21 0.60979474E-03 0.41067533E+02</pdfrwt>
<totfact> 0.11735281E+07</totfact>
</mgrwt>
</event>
<event>
 4    1  0.4447136E+006  0.2263623E+02  0.7546771E-02  0.1697475E+00
         21   -1    0    0  503  501  0.00000000000E+00  0.00000000000E+00  0.48636279700E+01  0.48636279700E+01  0.00000000000E+00 0.  1.
         21   -1    0    0  504  502 -0.00000000000E+00 -0.00000000000E+00 -0.88471162834E+03  0.88471162834E+03  0.00000000000E+00 0.  1.
         21    1    1    2  503  502  0.21587380054E+02  0.68105771942E+01 -0.85738935504E+03  0.85768811643E+03  0.00000000000E+00 0.  1.
         21    1    1    2  504  501 -0.21587380054E+02 -0.68105771942E+01 -0.22458645331E+02  0.31887139876E+02  0.00000000000E+00 0.  1.
<mgrwt>
<rscale>  2 0.22636231E+02</rscale>
<asrwt>0</asrwt>
<pdfrwt beam="1">  1       21 0.74825086E-03 0.22636231E+02</pdfrwt>
<pdfrwt beam="2">  1       21 0.13610941E+00 0.22636231E+02</pdfrwt>
<totfact> 0.21197064E+06</totfact>
</mgrwt>
</event>
<event>
 4    1  0.4447136E+006  0.2212248E+02  0.7546771E-02  0.1706142E+00
         21   -1    0    0  502  501  0.00000000000E+00  0.00000000000E+00  0.98635576560E+02  0.98635576560E+02  0.00000000000E+00 0. -1.
         21   -1    0    0  503  502 -0.00000000000E+00 -0.00000000000E+00 -0.82224844772E+01  0.82224844772E+01  0.00000000000E+00 0.  1.
         21    1    1    2  503  504  0.34274277618E+01 -0.21855362290E+02  0.11560493253E+02  0.24960952028E+02  0.00000000000E+00 0.  1.
         21    1    1    2  504  501 -0.34274277618E+01  0.21855362290E+02  0.78852598830E+02  0.81897109010E+02  0.00000000000E+00 0. -1.
<mgrwt>
<rscale>  2 0.22122480E+02</rscale>
<asrwt>0</asrwt>
<pdfrwt beam="1">  1       21 0.15174703E-01 0.22122480E+02</pdfrwt>
<pdfrwt beam="2">  1       21 0.12649977E-02 0.22122480E+02</pdfrwt>
<totfact> 0.68843869E+07</totfact>
</mgrwt>
</event>
<event>
 4    1  0.4447136E+006  0.2578014E+02  0.7546771E-02  0.1650043E+00
         21   -1    0    0  504  501  0.00000000000E+00  0.00000000000E+00  0.50906376883E+02  0.50906376883E+02  0.00000000000E+00 0. -1.
         21   -1    0    0  503  502 -0.00000000000E+00 -0.00000000000E+00 -0.13098296606E+02  0.13098296606E+02  0.00000000000E+00 0. -1.
         21    1    1    2  503  501  0.25406509658E+02  0.43731841917E+01  0.20730260411E+02  0.33081099886E+02  0.00000000000E+00 0. -1.
         21    1    1    2  504  502 -0.25406509658E+02 -0.43731841917E+01  0.17077819866E+02  0.30923573603E+02  0.00000000000E+00 0. -1.
<mgrwt>
<rscale>  2 0.25780137E+02</rscale>
<asrwt>0</asrwt>
<pdfrwt beam="1">  1       21 0.78317502E-02 0.25780137E+02</pdfrwt>
<pdfrwt beam="2">  1       21 0.20151226E-02 0.25780137E+02</pdfrwt>
<totfact> 0.10624583E+08</totfact>
</mgrwt>
</event>
<event>
 4    1  0.4447136E+006  0.2603820E+02  0.7546771E-02  0.1646523E+00
         21   -1    0    0  504  501  0.00000000000E+00  0.00000000000E+00  0.59823459135E+02  0.59823459135E+02  0.00000000000E+00 0.  1.
         21   -1    0    0  503  502 -0.00000000000E+00 -0.00000000000E+00 -0.83534051828E+02  0.83534051828E+02  0.00000000000E+00 0. -1.
         21    1    1    2  503  501  0.92365835049E+01  0.24344887279E+02  0.54783938978E+02  0.60656969768E+02  0.00000000000E+00 0.  1.
         21    1    1    2  504  502 -0.92365835049E+01 -0.24344887279E+02 -0.78494531672E+02  0.82700541194E+02  0.00000000000E+00 0. -1.
<mgrwt>
<rscale>  2 0.26038203E+02</rscale>
<asrwt>0</asrwt>
<pdfrwt beam="1">  1       21 0.92036091E-02 0.26038203E+02</pdfrwt>
<pdfrwt beam="2">  1       21 0.12851393E-01 0.26038203E+02</pdfrwt>
<totfact> 0.41663910E+06</totfact>
</mgrwt>
</event>
<event>
 4    1  0.4447136E+006  0.4987832E+02  0.7546771E-02  0.1445999E+00
         21   -1    0    0  503  501  0.00000000000E+00  0.00000000000E+00  0.18126321544E+03  0.18126321544E+03  0.00000000000E+00 0. -1.
         21   -1    0    0  504  502 -0.00000000000E+00 -0.00000000000E+00 -0.16443431569E+02  0.16443431569E+02  0.00000000000E+00 0. -1.
         21    1    1    2  503  502 -0.38312571122E+02  0.31937340996E+02  0.12260286991E+03  0.13236053251E+03  0.00000000000E+00 0. -1.
         21    1    1    2  504  501  0.38312571122E+02 -0.31937340996E+02  0.42216913964E+02  0.65346114503E+02  0.00000000000E+00 0. -1.
<mgrwt>
<rscale>  2 0.49878321E+02</rscale>
<asrwt>0</asrwt>
<pdfrwt beam="1">  1       21 0.27886647E-01 0.49878321E+02</pdfrwt>
<pdfrwt beam="2">  1       21 0.25297588E-02 0.49878321E+02</pdfrwt>
<totfact> 0.92836701E+06</totfact>
</mgrwt>
</event>
<event>
 4    1  0.4447136E+006  0.2480185E+02  0.7546771E-02  0.1663864E+00
         21   -1    0    0  503  501  0.00000000000E+00  0.00000000000E+00  0.14058264013E+04  0.14058264013E+04  0.00000000000E+00 0. -1.
         21   -1    0    0  504  502 -0.00000000000E+00 -0.00000000000E+00 -0.59998318609E+00  0.59998318609E+00  0.00000000000E+00 0. -1.
         21    1    1    2  503  502 -0.11086540495E+01  0.24777062810E+02  0.10684967355E+04  0.10687845460E+04  0.00000000000E+00 0. -1.
         21    1    1    2  504  501  0.11086540495E+01 -0.24777062810E+02  0.33672968261E+03  0.33764183850E+03  0.00000000000E+00 0. -1.
<mgrwt>
<rscale>  2 0.24801854E+02</rscale>
<asrwt>0</asrwt>
<pdfrwt beam="1">  1       21 0.21627835E+00 0.24801854E+02</pdfrwt>
<pdfrwt beam="2">  1       21 0.92306231E-04 0.24801854E+02</pdfrwt>
<totfact> 0.14319831E+07</totfact>
</mgrwt>
</event>
<event>
 4    1  0.4447136E+006  0.2046837E+02  0.7546771E-02  0.1736171E+00
         21   -1    0    0  504  501  0.00000000000E+00  0.00000000000E+00  0.32176630195E+00  0.32176630195E+00  0.00000000000E+00 0. -1.
         21   -1    0    0  503  502 -0.00000000000E+00 -0.00000000000E+00 -0.13336140212E+04  0.13336140212E+04  0.00000000000E+00 0. -1.
         21    1    1    2  503  501  0.96079502139E+01  0.18073226465E+02 -0.56402895684E+03  0.56440022890E+03  0.00000000000E+00 0. -1.
         21    1    1    2  504  502 -0.96079502139E+01 -0.18073226465E+02 -0.76926329810E+03  0.76953555865E+03  0.00000000000E+00 0. -1.
<mgrwt>
<rscale>  2 0.20468371E+02</rscale>
<asrwt>0</asrwt>
<pdfrwt beam="1">  1       21 0.49500719E-04 0.20468371E+02</pdfrwt>
<pdfrwt beam="2">  1       21 0.20517880E+00 0.20468371E+02</pdfrwt>
<totfact> 0.38610298E+07</totfact>
</mgrwt>
</event>
<event>
 4    1  0.4447136E+006  0.2186318E+02  0.7546771E-02  0.1710629E+00
         21   -1    0    0  504  501  0.00000000000E+00  0.00000000000E+00  0.30984335205E+03  0.30984335205E+03  0.00000000000E+00 0. -1.
         21   -1    0    0  503  502 -0.00000000000E+00 -0.00000000000E+00 -0.15639104201E+01  0.15639104201E+01  0.00000000000E+00 0. -1.
         21    1    1    2  503  501  0.21862148630E+02 -0.21261279050E+00  0.13601151542E+03  0.13775750823E+03  0.00000000000E+00 0. -1.
         21    1    1    2  504  502 -0.21862148630E+02  0.21261279050E+00  0.17226792621E+03  0.17364975424E+03  0.00000000000E+00 0. -1.
<mgrwt>
<rscale>  2 0.21863182E+02</rscale>
<asrwt>0</asrwt>
<pdfrwt beam="1">  1       21 0.47668159E-01 0.21863182E+02</pdfrwt>
<pdfrwt beam="2">  1       21 0.24060185E-03 0.21863182E+02</pdfrwt>
<totfact> 0.10145352E+08</totfact>
</mgrwt>
</event>
<event>
 4    1  0.4447136E+006  0.3601841E+02  0.7546771E-02  0.1539738E+00
         21   -1    0    0  504  501  0.00000000000E+00  0.00000000000E+00  0.98303759530E+01  0.98303759530E+01  0.00000000000E+00 0. -1.
         21   -1    0    0  501  502 -0.00000000000E+00 -0.00000000000E+00 -0.13205919417E+03  0.13205919417E+03  0.00000000000E+00 0. -1.
         21    1    1    2  503  502 -0.66333956161E+01  0.35402319512E+02 -0.59282726940E+02  0.69366907655E+02  0.00000000000E+00 0. -1.
         21    1    1    2  504  503  0.66333956161E+01 -0.35402319512E+02 -0.62946091275E+02  0.72522662465E+02  0.00000000000E+00 0. -1.
<mgrwt>
<rscale>  2 0.36018414E+02</rscale>
<asrwt>0</asrwt>
<pdfrwt beam="1">  1       21 0.15123657E-02 0.36018414E+02</pdfrwt>
<pdfrwt beam="2">  1       21 0.20316797E-01 0.36018414E+02</pdfrwt>
<totfact> 0.35208970E+07</totfact>
</mgrwt>
</event>
<event>
 4    1  0.4447136E+006  0.2109932E+02  0.7546771E-02  0.1724311E+00
         21   -1    0    0  504  501  0.00000000000E+00  0.00000000000E+00  0.86717600513E+00  0.86717600513E+00  0.00000000000E+00 0. -1.
         21   -1    0    0  503  502 -0.00000000000E+00 -0.00000000000E+00 -0.90628116556E+03  0.90628116556E+03  0.00000000000E+00 0. -1.
         21    1    1    2  503  501  0.65872744246E+01 -0.20044682047E+02 -0.15405566104E+03  0.15549382033E+03  0.00000000000E+00 0. -1.
         21    1    1    2  504  502 -0.65872744246E+01  0.20044682047E+02 -0.75135832851E+03  0.75165452123E+03  0.00000000000E+00 0. -1.
<mgrwt>
<rscale>  2 0.21099324E+02</rscale>
<asrwt>0</asrwt>
<pdfrwt beam="1">  1       21 0.13341065E-03 0.21099324E+02</pdfrwt>
<pdfrwt beam="2">  1       21 0.13942896E+00 0.21099324E+02</pdfrwt>
<totfact> 0.24465252E+07</totfact>
</mgrwt>
</event>
<event>
 4    1  0.4447136E+006  0.3223398E+02  0.7546771E-02  0.1574631E+00
         21   -1    0    0  503  501  0.00000000000E+00  0.00000000000E+00  0.97727573633E+00  0.97727573633E+00  0.00000000000E+00 0.  1.
         21   -1    0    0  504  502 -0.00000000000E+00 -0.00000000000E+00 -0.11614171513E+04  0.11614171513E+04  0.00000000000E+00 0.  1.
         21    1    1    2  503  502  0.18654461880E+02 -0.26287644888E+02 -0.41119668080E+03  0.41245816699E+03  0.00000000000E+00 0.  1.
         21    1    1    2  504  501 -0.18654461880E+02  0.26287644888E+02 -0.74924319481E+03  0.74993626009E+03  0.00000000000E+00 0.  1.
<mgrwt>
<rscale>  2 0.32233976E+02</rscale>
<asrwt>0</asrwt>
<pdfrwt beam="1">  1       21 0.15035062E-03 0.32233976E+02</pdfrwt>
<pdfrwt beam="2">  1       21 0.17867896E+00 0.32233976E+02</pdfrwt>
<totfact> 0.12013074E+07</totfact>
</mgrwt>
</event>
<event>
 4    1  0.4447136E+006  0.4114206E+02  0.7546771E-02  0.1499971E+00
         21   -1    0    0  503  501  0.00000000000E+00  0.00000000000E+00  0.27538019705E+02  0.27538019705E+02  0.00000000000E+00 0.  1.
         21   -1    0    0  504  502 -0.00000000000E+00 -0.00000000000E+00 -0.76012836117E+02  0.76012836117E+02  0.00000000000E+00 0. -1.
         21    1    1    2  503  502  0.15310778079E+02 -0.38187026443E+02 -0.46886734536E+02  0.62378159554E+02  0.00000000000E+00 0. -1.
         21    1    1    2  504  501 -0.15310778079E+02  0.38187026443E+02 -0.15880818759E+01  0.41172696268E+02  0.00000000000E+00 0.  1.
<mgrwt>
<rscale>  2 0.41142058E+02</rscale>
<asrwt>0</asrwt>
<pdfrwt beam="1">  1       21 0.42366185E-02 0.41142058E+02</pdfrwt>
<pdfrwt beam="2">  1       21 0.11694282E-01 0.41142058E+02</pdfrwt>
<totfact> 0.18581816E+07</totfact>
</mgrwt>
</event>
<event>
 4    1  0.4447136E+006  0.4677935E+02  0.7546771E-02  0.1463530E+00
         21   -1    0    0  504  501  0.00000000000E+00  0.00000000000E+00  0.23686191833E+02  0.23686191833E+02  0.00000000000E+00 0. -1.
         21   -1    0    0  503  502 -0.00000000000E+00 -0.00000000000E+00 -0.23382437711E+03  0.23382437711E+03  0.00000000000E+00 0. -1.
         21    1    1    2  503  501  0.30495874511E+02 -0.35472654153E+02 -0.20520769623E+03  0.21047210302E+03  0.00000000000E+00 0. -1.
         21    1    1    2  504  502 -0.30495874511E+02  0.35472654153E+02 -0.49304890477E+01  0.47038465931E+02  0.00000000000E+00 0. -1.
<mgrwt>
<rscale>  2 0.46779350E+02</rscale>
<asrwt>0</asrwt>
<pdfrwt beam="1">  1       21 0.36440295E-02 0.46779350E+02</pdfrwt>
<pdfrwt beam="2">  1       21 0.35972982E-01 0.46779350E+02</pdfrwt>
<totfact> 0.31864168E+06</totfact>
</mgrwt>
</event>
<event>
 4    1  0.4447136E+006  0.3363194E+02  0.7546771E-02  0.1561096E+00
         21   -1    0    0  503  501  0.00000000000E+00  0.00000000000E+00  0.42580227201E+02  0.42580227201E+02  0.00000000000E+00 0. -1.
         21   -1    0    0  504  502 -0.00000000000E+00 -0.00000000000E+00 -0.55808726228E+02  0.55808726228E+02  0.00000000000E+00 0.  1.
         21    1    1    2  503  502 -0.28512420528E+02 -0.17836736132E+02  0.28997064765E+02  0.44406497781E+02  0.00000000000E+00 0. -1.
         21    1    1    2  504  501  0.28512420528E+02  0.17836736132E+02 -0.42225563793E+02  0.53982455648E+02  0.00000000000E+00 0.  1.
<mgrwt>
<rscale>  2 0.33631938E+02</rscale>
<asrwt>0</asrwt>
<pdfrwt beam="1">  1       21 0.65508042E-02 0.33631938E+02</pdfrwt>
<pdfrwt beam="2">  1       21 0.85859579E-02 0.33631938E+02</pdfrwt>
<totfact> 0.14915501E+07</totfact>
</mgrwt>
</event>
<event>
 4    1  0.4447136E+006  0.2081837E+02  0.7546771E-02  0.1729527E+00
         21   -1    0    0  504  501  0.00000000000E+00  0.00000000000E+00  0.29928995832E+02  0.29928995832E+02  0.00000000000E+00 0. -1.
         21   -1    0    0  503  502 -0.00000000000E+00 -0.00000000000E+00 -0.19009539954E+03  0.19009539954E+03  0.00000000000E+00 0.  1.
         21    1    1    2  503  501  0.18828533401E+02 -0.88820583748E+01  0.25655745180E+02  0.33039701750E+02  0.00000000000E+00 0. -1.
         21    1    1    2  504  502 -0.18828533401E+02  0.88820583748E+01 -0.18582214889E+03  0.18698469362E+03  0.00000000000E+00 0.  1.
<mgrwt>
<rscale>  2 0.20818372E+02</rscale>
<asrwt>0</asrwt>
<pdfrwt beam="1">  1       21 0.46044607E-02 0.20818372E+02</pdfrwt>
<pdfrwt beam="2">  1       21 0.29245447E-01 0.20818372E+02</pdfrwt>
<totfact> 0.29423527E+06</totfact>
</mgrwt>
</event>
<event>
 4    1  0.4447136E+006  0.2621385E+02  0.7546771E-02  0.1644155E+00
         21   -1    0    0  503  501  0.00000000000E+00  0.00000000000E+00  0.59004159790E+02  0.59004159790E+02  0.00000000000E+00 0.  1.
         21   -1    0    0  504  502 -0.00000000000E+00 -0.00000000000E+00 -0.87788702546E+02  0.87788702546E+02  0.00000000000E+00 0. -1.
         21    1    1    2  503  502  0.26172475485E+02 -0.14721428435E+01 -0.82747165571E+02  0.86800109951E+02  0.00000000000E+00 0. -1.
         21    1    1    2  504  501 -0.26172475485E+02  0.14721428435E+01  0.53962622815E+02  0.59992752384E+02  0.00000000000E+00 0.  1.
<mgrwt>
<rscale>  2 0.26213845E+02</rscale>
<asrwt>0</asrwt>
<pdfrwt beam="1">  1       21 0.90775631E-02 0.26213845E+02</pdfrwt>
<pdfrwt beam="2">  1       21 0.13505954E-01 0.26213845E+02</pdfrwt>
<totfact> 0.39219484E+06</totfact>
</mgrwt>
</event>
<event>
 4    1  0.4447136E+006  0.2920545E+02  0.7546771E-02  0.1607041E+00
         21   -1    0    0  503  501  0.00000000000E+00  0.00000000000E+00  0.33047845051E+01  0.33047845051E+01  0.00000000000E+00 0. -1.
         21   -1    0    0  504  502 -0.00000000000E+00 -0.00000000000E+00 -0.75756940454E+03  0.75756940454E+03  0.00000000000E+00 0.  1.
         21    1    1    2  503  502 -0.10825109440E+02 -0.27125174828E+02 -0.68225857904E+02  0.74214053862E+02  0.00000000000E+00 0. -1.
         21    1    1    2  504  501  0.10825109440E+02  0.27125174828E+02 -0.68603876214E+03  0.68666013519E+03  0.00000000000E+00 0.  1.
<mgrwt>
<rscale>  2 0.29205446E+02</rscale>
<asrwt>0</asrwt>
<pdfrwt beam="1">  1       21 0.50842842E-03 0.29205446E+02</pdfrwt>
<pdfrwt beam="2">  1       21 0.11654913E+00 0.29205446E+02</pdfrwt>
<totfact> 0.55335858E+06</totfact>
</mgrwt>
</event>
<event>
 4    1  0.4447136E+006  0.2306316E+02  0.7546771E-02  0.1690488E+00
         21   -1    0    0  504  501  0.00000000000E+00  0.00000000000E+00  0.33823402795E+03  0.33823402795E+03  0.00000000000E+00 0. -1.
         21   -1    0    0  503  502 -0.00000000000E+00 -0.00000000000E+00 -0.28765594831E+01  0.28765594831E+01  0.00000000000E+00 0.  1.
         21    1    1    2  503  501 -0.49820418662E+01 -0.22518623666E+02  0.52847659340E+02  0.57660942159E+02  0.00000000000E+00 0.  1.
         21    1    1    2  504  502  0.49820418662E+01  0.22518623666E+02  0.28250980913E+03  0.28344964528E+03  0.00000000000E+00 0. -1.
<mgrwt>
<rscale>  2 0.23063156E+02</rscale>
<asrwt>0</asrwt>
<pdfrwt beam="1">  1       21 0.52035973E-01 0.23063156E+02</pdfrwt>
<pdfrwt beam="2">  1       21 0.44254788E-03 0.23063156E+02</pdfrwt>
<totfact> 0.35641699E+07</totfact>
</mgrwt>
</event>
<event>
 4    1  0.4447136E+006  0.2806989E+02  0.7546771E-02  0.1620459E+00
         21   -1    0    0  503  501  0.00000000000E+00  0.00000000000E+00  0.13743201096E+03  0.13743201096E+03  0.00000000000E+00 0.  1.
         21   -1    0    0  504  502 -0.00000000000E+00 -0.00000000000E+00 -0.34396929413E+02  0.34396929413E+02  0.00000000000E+00 0. -1.
         21    1    1    2  503  502 -0.24704711305E+02 -0.13326522768E+02 -0.26910825806E+02  0.38885878096E+02  0.00000000000E+00 0. -1.
         21    1    1    2  504  501  0.24704711305E+02  0.13326522768E+02  0.12994590735E+03  0.13294306227E+03  0.00000000000E+00 0.  1.
<mgrwt>
<rscale>  2 0.28069894E+02</rscale>
<asrwt>0</asrwt>
<pdfrwt beam="1">  1       21 0.21143386E-01 0.28069894E+02</pdfrwt>
<pdfrwt beam="2">  1       21 0.52918354E-02 0.28069894E+02</pdfrwt>
<totfact> 0.43902949E+06</totfact>
</mgrwt>
</event>
<event>
 4    1  0.4447136E+006  0.2050720E+02  0.7546771E-02  0.1735426E+00
         21   -1    0    0  502  501  0.00000000000E+00  0.00000000000E+00  0.36965847145E+01  0.36965847145E+01  0.00000000000E+00 0.  1.
         21   -1    0    0  503  502 -0.00000000000E+00 -0.00000000000E+00 -0.13442216100E+03  0.13442216100E+03  0.00000000000E+00 0. -1.
         21    1    1    2  503  504  0.73695021857E+01  0.19137289895E+02 -0.92434308808E+02  0.94681819119E+02  0.00000000000E+00 0. -1.
         21    1    1    2  504  501 -0.73695021857E+01 -0.19137289895E+02 -0.38291267479E+02  0.43436926597E+02  0.00000000000E+00 0.  1.
<mgrwt>
<rscale>  2 0.20507204E+02</rscale>
<asrwt>0</asrwt>
<pdfrwt beam="1">  1       21 0.56870533E-03 0.20507204E+02</pdfrwt>
<pdfrwt beam="2">  1       21 0.20680333E-01 0.20507204E+02</pdfrwt>
<totfact> 0.13033650E+08</totfact>
</mgrwt>
</event>
<event>
 4    1  0.4447136E+006  0.2770419E+02  0.7546771E-02  0.1624946E+00
         21   -1    0    0  503  501  0.00000000000E+00  0.00000000000E+00  0.38574812763E+02  0.38574812763E+02  0.00000000000E+00 0. -1.
         21   -1    0    0  504  502 -0.00000000000E+00 -0.00000000000E+00 -0.41805476258E+02  0.41805476258E+02  0.00000000000E+00 0. -1.
         21    1    1    2  503  502  0.27051553335E+02 -0.59779375109E+01 -0.30709722397E+02  0.41359513107E+02  0.00000000000E+00 0. -1.
         21    1    1    2  504  501 -0.27051553335E+02  0.59779375109E+01  0.27479058902E+02  0.39020775913E+02  0.00000000000E+00 0. -1.
<mgrwt>
<rscale>  2 0.27704192E+02</rscale>
<asrwt>0</asrwt>
<pdfrwt beam="1">  1       21 0.59345866E-02 0.27704192E+02</pdfrwt>
<pdfrwt beam="2">  1       21 0.64316117E-02 0.27704192E+02</pdfrwt>
<totfact> 0.27150667E+07</totfact>
</mgrwt>
</event>
<event>
 4    1  0.4447136E+006  0.3789094E+02  0.7546771E-02  0.1524331E+00
         21   -1    0    0  503  501  0.00000000000E+00  0.00000000000E+00  0.26533646190E+02  0.26533646190E+02  0.00000000000E+00 0. -1.
         21   -1    0    0  504  502 -0.00000000000E+00 -0.00000000000E+00 -0.57673086435E+02  0.57673086435E+02  0.00000000000E+00 0. -1.
         21    1    1    2  503  502  0.13805695120E+02  0.35286346797E+02 -0.26035490681E+02  0.45973582230E+02  0.00000000000E+00 0. -1.
         21    1    1    2  504  501 -0.13805695120E+02 -0.35286346797E+02 -0.51039495636E+01  0.38233150396E+02  0.00000000000E+00 0. -1.
<mgrwt>
<rscale>  2 0.37890942E+02</rscale>
<asrwt>0</asrwt>
<pdfrwt beam="1">  1       21 0.40820994E-02 0.37890942E+02</pdfrwt>
<pdfrwt beam="2">  1       21 0.88727825E-02 0.37890942E+02</pdfrwt>
<totfact> 0.31031712E+07</totfact>
</mgrwt>
</event>
<event>
 4    1  0.4447136E+006  0.2391379E+02  0.7546771E-02  0.1677112E+00
         21   -1    0    0  504  501  0.00000000000E+00  0.00000000000E+00  0.15606881116E+01  0.15606881116E+01  0.00000000000E+00 0. -1.
         21   -1    0    0  501  502 -0.00000000000E+00 -0.00000000000E+00 -0.42020437571E+03  0.42020437571E+03  0.00000000000E+00 0. -1.
         21    1    1    2  503  502  0.10875994275E+02 -0.21297472553E+02 -0.28476720903E+03  0.28576954514E+03  0.00000000000E+00 0. -1.
         21    1    1    2  504  503 -0.10875994275E+02  0.21297472553E+02 -0.13387647856E+03  0.13599551868E+03  0.00000000000E+00 0. -1.
<mgrwt>
<rscale>  2 0.23913795E+02</rscale>
<asrwt>0</asrwt>
<pdfrwt beam="1">  1       21 0.24010589E-03 0.23913795E+02</pdfrwt>
<pdfrwt beam="2">  1       21 0.64646821E-01 0.23913795E+02</pdfrwt>
<totfact> 0.57006653E+07</totfact>
</mgrwt>
</event>
<event>
 4    1  0.4447136E+006  0.2224005E+02  0.7546771E-02  0.1704133E+00
         21   -1    0    0  502  501  0.00000000000E+00  0.00000000000E+00  0.11598434115E+02  0.11598434115E+02  0.00000000000E+00 0.  1.
         21   -1    0    0  503  502 -0.00000000000E+00 -0.00000000000E+00 -0.47955859008E+02  0.47955859008E+02  0.00000000000E+00 0.  1.
         21    1    1    2  503  504  0.22200827156E+02  0.13202379647E+01 -0.28087685572E+02  0.35826496278E+02  0.00000000000E+00 0.  1.
         21    1    1    2  504  501 -0.22200827156E+02 -0.13202379647E+01 -0.82697393205E+01  0.23727796846E+02  0.00000000000E+00 0.  1.
<mgrwt>
<rscale>  2 0.22240048E+02</rscale>
<asrwt>0</asrwt>
<pdfrwt beam="1">  1       21 0.17843745E-02 0.22240048E+02</pdfrwt>
<pdfrwt beam="2">  1       21 0.73778245E-02 0.22240048E+02</pdfrwt>
<totfact> 0.13529765E+08</totfact>
</mgrwt>
</event>
<event>
 4    1  0.4447136E+006  0.2740158E+02  0.7546771E-02  0.1628725E+00
         21   -1    0    0  504  501  0.00000000000E+00  0.00000000000E+00  0.45403433781E+02  0.45403433781E+02  0.00000000000E+00 0.  1.
         21   -1    0    0  501  502 -0.00000000000E+00 -0.00000000000E+00 -0.18847730182E+02  0.18847730182E+02  0.00000000000E+00 0.  1.
         21    1    1    2  503  502 -0.21032220829E+02 -0.17563944171E+02  0.20298421858E+01  0.27476657496E+02  0.00000000000E+00 0.  1.
         21    1    1    2  504  503  0.21032220829E+02  0.17563944171E+02  0.24525861414E+02  0.36774506467E+02  0.00000000000E+00 0.  1.
<mgrwt>
<rscale>  2 0.27401577E+02</rscale>
<asrwt>0</asrwt>
<pdfrwt beam="1">  1       21 0.69851436E-02 0.27401577E+02</pdfrwt>
<pdfrwt beam="2">  1       21 0.28996508E-02 0.27401577E+02</pdfrwt>
<totfact> 0.73938068E+07</totfact>
</mgrwt>
</event>
<event>
 4    1  0.4447136E+006  0.2230093E+02  0.7546771E-02  0.1703099E+00
         21   -1    0    0  504  501  0.00000000000E+00  0.00000000000E+00  0.85362537727E+02  0.85362537727E+02  0.00000000000E+00 0.  1.
         21   -1    0    0  503  502 -0.00000000000E+00 -0.00000000000E+00 -0.19038658080E+02  0.19038658080E+02  0.00000000000E+00 0. -1.
         21    1    1    2  503  501  0.97345541149E+01 -0.20064145462E+02 -0.10324175347E+02  0.24574785320E+02  0.00000000000E+00 0. -1.
         21    1    1    2  504  502 -0.97345541149E+01  0.20064145462E+02  0.76648054994E+02  0.79826410487E+02  0.00000000000E+00 0.  1.
<mgrwt>
<rscale>  2 0.22300930E+02</rscale>
<asrwt>0</asrwt>
<pdfrwt beam="1">  1       21 0.13132698E-01 0.22300930E+02</pdfrwt>
<pdfrwt beam="2">  1       21 0.29290244E-02 0.22300930E+02</pdfrwt>
<totfact> 0.24363327E+07</totfact>
</mgrwt>
</event>
<event>
 4    1  0.4447136E+006  0.2160489E+02  0.7546771E-02  0.1715176E+00
         21   -1    0    0  504  501  0.00000000000E+00  0.00000000000E+00  0.15465544788E+04  0.15465544788E+04  0.00000000000E+00 0.  1.
         21   -1    0    0  503  502 -0.00000000000E+00 -0.00000000000E+00 -0.13318718751E+01  0.13318718751E+01  0.00000000000E+00 0.  1.
         21    1    1    2  503  501 -0.34715659978E+01  0.21324152383E+02  0.14532376229E+04  0.14533982110E+04  0.00000000000E+00 0.  1.
         21    1    1    2  504  502  0.34715659978E+01 -0.21324152383E+02  0.91984983998E+02  0.94488139607E+02  0.00000000000E+00 0.  1.
<mgrwt>
<rscale>  2 0.21604889E+02</rscale>
<asrwt>0</asrwt>
<pdfrwt beam="1">  1       21 0.23793002E+00 0.21604889E+02</pdfrwt>
<pdfrwt beam="2">  1       21 0.20490460E-03 0.21604889E+02</pdfrwt>
<totfact> 0.34854401E+06</totfact>
</mgrwt>
</event>
<event>
 4    1  0.4447136E+006  0.2325654E+02  0.7546771E-02  0.1687385E+00
         21   -1    0    0  504  501  0.00000000000E+00  0.00000000000E+00  0.34511833928E+03  0.34511833928E+03  0.00000000000E+00 0. -1.
         21   -1    0    0  503  502 -0.00000000000E+00 -0.00000000000E+00 -0.18402132306E+01  0.18402132306E+01  0.00000000000E+00 0. -1.
         21    1    1    2  503  501 -0.56597202401E+01 -0.22557358886E+02  0.23845981197E+03  0.23959121185E+03  0.00000000000E+00 0. -1.
         21    1    1    2  504  502  0.56597202401E+01  0.22557358886E+02  0.10481831408E+03  0.10736734066E+03  0.00000000000E+00 0. -1.
<mgrwt>
<rscale>  2 0.23256545E+02</rscale>
<asrwt>0</asrwt>
<pdfrwt beam="1">  1       21 0.53095078E-01 0.23256545E+02</pdfrwt>
<pdfrwt beam="2">  1       21 0.28311000E-03 0.23256545E+02</pdfrwt>
<totfact> 0.65994742E+07</totfact>
</mgrwt>
</event>
<event>
 4    1  0.4447136E+006  0.2631387E+02  0.7546771E-02  0.1642817E+00
         21   -1    0    0  503  501  0.00000000000E+00  0.00000000000E+00  0.15900271574E+03  0.15900271574E+03  0.00000000000E+00 0. -1.
         21   -1    0    0  504  502 -0.00000000000E+00 -0.00000000000E+00 -0.47290523764E+01  0.47290523764E+01  0.00000000000E+00 0.  1.
         21    1    1    2  503  502  0.11015371190E+02 -0.23897303609E+02  0.54105541779E+02  0.60165016192E+02  0.00000000000E+00 0.  1.
         21    1    1    2  504  501 -0.11015371190E+02  0.23897303609E+02  0.10016812158E+03  0.10356675192E+03  0.00000000000E+00 0. -1.
<mgrwt>
<rscale>  2 0.26313866E+02</rscale>
<asrwt>0</asrwt>
<pdfrwt beam="1">  1       21 0.24461952E-01 0.26313866E+02</pdfrwt>
<pdfrwt beam="2">  1       21 0.72754664E-03 0.26313866E+02</pdfrwt>
<totfact> 0.71881330E+07</totfact>
</mgrwt>
</event>
<event>
 4    1  0.4447136E+006  0.3126132E+02  0.7546771E-02  0.1584551E+00
         21   -1    0    0  504  501  0.00000000000E+00  0.00000000000E+00  0.65652321367E+01  0.65652321367E+01  0.00000000000E+00 0.  1.
         21   -1    0    0  501  502 -0.00000000000E+00 -0.00000000000E+00 -0.20856329259E+04  0.20856329259E+04  0.00000000000E+00 0.  1.
         21    1    1    2  503  502 -0.25728229796E+02  0.17757481772E+02 -0.20476109625E+04  0.20478495852E+04  0.00000000000E+00 0.  1.
         21    1    1    2  504  503  0.25728229796E+02 -0.17757481772E+02 -0.31456731222E+02  0.44348572767E+02  0.00000000000E+00 0.  1.
<mgrwt>
<rscale>  2 0.31261317E+02</rscale>
<asrwt>0</asrwt>
<pdfrwt beam="1">  1       21 0.10100348E-02 0.31261317E+02</pdfrwt>
<pdfrwt beam="2">  1       21 0.32086690E+00 0.31261317E+02</pdfrwt>
<totfact> 0.12610961E+05</totfact>
</mgrwt>
</event>
<event>
 4    1  0.4447136E+006  0.2877929E+02  0.7546771E-02  0.1611988E+00
         21   -1    0    0  504  501  0.00000000000E+00  0.00000000000E+00  0.10641264341E+03  0.10641264341E+03  0.00000000000E+00 0.  1.
         21   -1    0    0  503  502 -0.00000000000E+00 -0.00000000000E+00 -0.24102329616E+02  0.24102329616E+02  0.00000000000E+00 0.  1.
         21    1    1    2  503  501  0.28606851913E+02 -0.31456990742E+01 -0.12541501838E+02  0.31393258312E+02  0.00000000000E+00 0.  1.
         21    1    1    2  504  502 -0.28606851913E+02  0.31456990742E+01  0.94851815631E+02  0.99121714712E+02  0.00000000000E+00 0.  1.
<mgrwt>
<rscale>  2 0.28779288E+02</rscale>
<asrwt>0</asrwt>
<pdfrwt beam="1">  1       21 0.16371176E-01 0.28779288E+02</pdfrwt>
<pdfrwt beam="2">  1       21 0.37080508E-02 0.28779288E+02</pdfrwt>
<totfact> 0.12162986E+07</totfact>
</mgrwt>
</event>
<event>
 4    1  0.4447136E+006  0.3337985E+02  0.7546771E-02  0.1563477E+00
         21   -1    0    0  504  501  0.00000000000E+00  0.00000000000E+00  0.83586943409E+03  0.83586943409E+03  0.00000000000E+00 0.  1.
         21   -1    0    0  503  502 -0.00000000000E+00 -0.00000000000E+00 -0.23871363079E+01  0.23871363079E+01  0.00000000000E+00 0.  1.
         21    1    1    2  503  501  0.22843519550E+02 -0.24339015552E+02  0.13822093449E+03  0.14219437681E+03  0.00000000000E+00 0.  1.
         21    1    1    2  504  502 -0.22843519550E+02  0.24339015552E+02  0.69526136329E+03  0.69606219359E+03  0.00000000000E+00 0.  1.
<mgrwt>
<rscale>  2 0.33379845E+02</rscale>
<asrwt>0</asrwt>
<pdfrwt beam="1">  1       21 0.12859506E+00 0.33379845E+02</pdfrwt>
<pdfrwt beam="2">  1       21 0.36725240E-03 0.33379845E+02</pdfrwt>
<totfact> 0.72515366E+06</totfact>
</mgrwt>
</event>
<event>
 4    1  0.4447136E+006  0.2217844E+02  0.7546771E-02  0.1705184E+00
         21   -1    0    0  504  501  0.00000000000E+00  0.00000000000E+00  0.22409336379E+03  0.22409336379E+03  0.00000000000E+00 0. -1.
         21   -1    0    0  503  502 -0.00000000000E+00 -0.00000000000E+00 -0.21978697728E+01  0.21978697728E+01  0.00000000000E+00 0. -1.
         21    1    1    2  503  501 -0.14217573630E+02 -0.17021867181E+02  0.11504120570E+03  0.11715955945E+03  0.00000000000E+00 0. -1.
         21    1    1    2  504  502  0.14217573630E+02  0.17021867181E+02  0.10685428832E+03  0.10913167411E+03  0.00000000000E+00 0. -1.
<mgrwt>
<rscale>  2 0.22178444E+02</rscale>
<asrwt>0</asrwt>
<pdfrwt beam="1">  1       21 0.34475884E-01 0.22178444E+02</pdfrwt>
<pdfrwt beam="2">  1       21 0.33813399E-03 0.22178444E+02</pdfrwt>
<totfact> 0.11437997E+08</totfact>
</mgrwt>
</event>
<event>
 4    1  0.4447136E+006  0.2236050E+02  0.7546771E-02  0.1702091E+00
         21   -1    0    0  503  501  0.00000000000E+00  0.00000000000E+00  0.44352638261E+03  0.44352638261E+03  0.00000000000E+00 0.  1.
         21   -1    0    0  504  502 -0.00000000000E+00 -0.00000000000E+00 -0.11863218801E+01  0.11863218801E+01  0.00000000000E+00 0.  1.
         21    1    1    2  503  502 -0.22273990120E+02 -0.19650458515E+01  0.27076245998E+03  0.27168419493E+03  0.00000000000E+00 0.  1.
         21    1    1    2  504  501  0.22273990120E+02  0.19650458515E+01  0.17157760075E+03  0.17302850956E+03  0.00000000000E+00 0.  1.
<mgrwt>
<rscale>  2 0.22360502E+02</rscale>
<asrwt>0</asrwt>
<pdfrwt beam="1">  1       21 0.68234696E-01 0.22360502E+02</pdfrwt>
<pdfrwt beam="2">  1       21 0.18251141E-03 0.22360502E+02</pdfrwt>
<totfact> 0.74727899E+07</totfact>
</mgrwt>
</event>
<event>
 4    1  0.4447136E+006  0.2193660E+02  0.7546771E-02  0.1709351E+00
         21   -1    0    0  504  501  0.00000000000E+00  0.00000000000E+00  0.60006782649E+02  0.60006782649E+02  0.00000000000E+00 0. -1.
         21   -1    0    0  503  502 -0.00000000000E+00 -0.00000000000E+00 -0.16965505004E+03  0.16965505004E+03  0.00000000000E+00 0.  1.
         21    1    1    2  503  501  0.81089685013E+00 -0.21921604302E+02  0.57259990747E+02  0.61318193297E+02  0.00000000000E+00 0. -1.
         21    1    1    2  504  502 -0.81089685013E+00  0.21921604302E+02 -0.16690825814E+03  0.16834363939E+03  0.00000000000E+00 0.  1.
<mgrwt>
<rscale>  2 0.21936597E+02</rscale>
<asrwt>0</asrwt>
<pdfrwt beam="1">  1       21 0.92318127E-02 0.21936597E+02</pdfrwt>
<pdfrwt beam="2">  1       21 0.26100777E-01 0.21936597E+02</pdfrwt>
<totfact> 0.11860847E+06</totfact>
</mgrwt>
</event>
<event>
 4    1  0.4447136E+006  0.2545628E+02  0.7546771E-02  0.1654533E+00
         21   -1    0    0  502  501  0.00000000000E+00  0.00000000000E+00  0.98417881487E+01  0.98417881487E+01  0.00000000000E+00 0. -1.
         21   -1    0    0  503  502 -0.00000000000E+00 -0.00000000000E+00 -0.58717260919E+03  0.58717260919E+03  0.00000000000E+00 0. -1.
         21    1    1    2  503  504 -0.47550326280E+01 -0.25008232378E+02 -0.56993820159E+03  0.57050642034E+03  0.00000000000E+00 0. -1.
         21    1    1    2  504  501  0.47550326280E+01  0.25008232378E+02 -0.73926194505E+01  0.26507976994E+02  0.00000000000E+00 0. -1.
<mgrwt>
<rscale>  2 0.25456277E+02</rscale>
<asrwt>0</asrwt>
<pdfrwt beam="1">  1       21 0.15141209E-02 0.25456277E+02</pdfrwt>
<pdfrwt beam="2">  1       21 0.90334266E-01 0.25456277E+02</pdfrwt>
<totfact> 0.18540112E+06</totfact>
</mgrwt>
</event>
<event>
 4    1  0.4447136E+006  0.2152735E+02  0.7546771E-02  0.1716557E+00
         21   -1    0    0  502  501  0.00000000000E+00  0.00000000000E+00  0.48605746315E+01  0.48605746315E+01  0.00000000000E+00 0.  1.
         21   -1    0    0  503  502 -0.00000000000E+00 -0.00000000000E+00 -0.12456473957E+03  0.12456473957E+03  0.00000000000E+00 0. -1.
         21    1    1    2  503  504 -0.91325129832E+01  0.19494208341E+02 -0.91194809169E+02  0.93701228229E+02  0.00000000000E+00 0.  1.
         21    1    1    2  504  501  0.91325129832E+01 -0.19494208341E+02 -0.28509355771E+02  0.35724085974E+02  0.00000000000E+00 0. -1.
<mgrwt>
<rscale>  2 0.21527354E+02</rscale>
<asrwt>0</asrwt>
<pdfrwt beam="1">  1       21 0.74778061E-03 0.21527354E+02</pdfrwt>
<pdfrwt beam="2">  1       21 0.19163809E-01 0.21527354E+02</pdfrwt>
<totfact> 0.10060844E+08</totfact>
</mgrwt>
</event>
<event>
 4    1  0.4447136E+006  0.3039102E+02  0.7546771E-02  0.1593806E+00
         21   -1    0    0  503  501  0.00000000000E+00  0.00000000000E+00  0.63000131410E+02  0.63000131410E+02  0.00000000000E+00 0. -1.
         21   -1    0    0  504  502 -0.00000000000E+00 -0.00000000000E+00 -0.32103792831E+02  0.32103792831E+02  0.00000000000E+00 0. -1.
         21    1    1    2  503  502 -0.28751233291E+02 -0.98478755985E+01  0.50499489347E+02  0.58939057456E+02  0.00000000000E+00 0. -1.
         21    1    1    2  504  501  0.28751233291E+02  0.98478755985E+01 -0.19603150767E+02  0.36164866785E+02  0.00000000000E+00 0. -1.
<mgrwt>
<rscale>  2 0.30391020E+02</rscale>
<asrwt>0</asrwt>
<pdfrwt beam="1">  1       21 0.96923279E-02 0.30391020E+02</pdfrwt>
<pdfrwt beam="2">  1       21 0.49390451E-02 0.30391020E+02</pdfrwt>
<totfact> 0.18933137E+07</totfact>
</mgrwt>
</event>
<event>
 4    1  0.4447136E+006  0.2194853E+02  0.7546771E-02  0.1709144E+00
         21   -1    0    0  502  501  0.00000000000E+00  0.00000000000E+00  0.48642567150E+03  0.48642567150E+03  0.00000000000E+00 0. -1.
         21   -1    0    0  503  502 -0.00000000000E+00 -0.00000000000E+00 -0.10574688604E+01  0.10574688604E+01  0.00000000000E+00 0. -1.
         21    1    1    2  503  504  0.20059751705E+02 -0.89075348594E+01  0.18128285641E+03  0.18260671358E+03  0.00000000000E+00 0. -1.
         21    1    1    2  504  501 -0.20059751705E+02  0.89075348594E+01  0.30408534623E+03  0.30487642679E+03  0.00000000000E+00 0. -1.
<mgrwt>
<rscale>  2 0.21948527E+02</rscale>
<asrwt>0</asrwt>
<pdfrwt beam="1">  1       21 0.74834540E-01 0.21948527E+02</pdfrwt>
<pdfrwt beam="2">  1       21 0.16268791E-03 0.21948527E+02</pdfrwt>
<totfact> 0.72598758E+07</totfact>
</mgrwt>
</event>
<event>
 4    1  0.4447136E+006  0.2379206E+02  0.7546771E-02  0.1678984E+00
         21   -1    0    0  504  501  0.00000000000E+00  0.00000000000E+00  0.47587055615E+02  0.47587055615E+02  0.00000000000E+00 0. -1.
         21   -1    0    0  503  502 -0.00000000000E+00 -0.00000000000E+00 -0.70988686566E+02  0.70988686566E+02  0.00000000000E+00 0. -1.
         21    1    1    2  503  501 -0.26261047773E+01  0.23646686662E+02 -0.65793773606E+02  0.69963439465E+02  0.00000000000E+00 0. -1.
         21    1    1    2  504  502  0.26261047773E+01 -0.23646686662E+02  0.42392142656E+02  0.48612302716E+02  0.00000000000E+00 0. -1.
<mgrwt>
<rscale>  2 0.23792062E+02</rscale>
<asrwt>0</asrwt>
<pdfrwt beam="1">  1       21 0.73210855E-02 0.23792062E+02</pdfrwt>
<pdfrwt beam="2">  1       21 0.10921336E-01 0.23792062E+02</pdfrwt>
<totfact> 0.78538914E+06</totfact>
</mgrwt>
</event>
<event>
 4    1  0.4447136E+006  0.2035000E+02  0.7546771E-02  0.1738456E+00
         21   -1    0    0  504  501  0.00000000000E+00  0.00000000000E+00  0.15106241324E+03  0.15106241324E+03  0.00000000000E+00 0. -1.
         21   -1    0    0  503  502 -0.00000000000E+00 -0.00000000000E+00 -0.32395857324E+01  0.32395857324E+01  0.00000000000E+00 0. -1.
         21    1    1    2  503  501 -0.20339627389E+02  0.64963954986E+00  0.43656735753E+02  0.48166721401E+02  0.00000000000E+00 0. -1.
         21    1    1    2  504  502  0.20339627389E+02 -0.64963954986E+00  0.10416609176E+03  0.10613527757E+03  0.00000000000E+00 0. -1.
<mgrwt>
<rscale>  2 0.20349999E+02</rscale>
<asrwt>0</asrwt>
<pdfrwt beam="1">  1       21 0.23240366E-01 0.20349999E+02</pdfrwt>
<pdfrwt beam="2">  1       21 0.49839792E-03 0.20349999E+02</pdfrwt>
<totfact> 0.12872188E+08</totfact>
</mgrwt>
</event>
<event>
 4    1  0.4447136E+006  0.5340335E+02  0.7546771E-02  0.1427804E+00
         21   -1    0    0  504  501  0.00000000000E+00  0.00000000000E+00  0.73227294002E+02  0.73227294002E+02  0.00000000000E+00 0. -1.
         21   -1    0    0  503  502 -0.00000000000E+00 -0.00000000000E+00 -0.40181003205E+02  0.40181003205E+02  0.00000000000E+00 0.  1.
         21    1    1    2  503  501  0.30980957439E+01  0.53313409590E+02  0.26463917698E+02  0.59600811901E+02  0.00000000000E+00 0. -1.
         21    1    1    2  504  502 -0.30980957439E+01 -0.53313409590E+02  0.65823730979E+01  0.53807485306E+02  0.00000000000E+00 0.  1.
<mgrwt>
<rscale>  2 0.53403350E+02</rscale>
<asrwt>0</asrwt>
<pdfrwt beam="1">  1       21 0.11265738E-01 0.53403350E+02</pdfrwt>
<pdfrwt beam="2">  1       21 0.61816928E-02 0.53403350E+02</pdfrwt>
<totfact> 0.11067541E+07</totfact>
</mgrwt>
</event>
<event>
 4    1  0.4447136E+006  0.2705894E+02  0.7546771E-02  0.1633076E+00
         21   -1    0    0  503  501  0.00000000000E+00  0.00000000000E+00  0.73109162394E+01  0.73109162394E+01  0.00000000000E+00 0.  1.
         21   -1    0    0  504  502 -0.00000000000E+00 -0.00000000000E+00 -0.51379892997E+03  0.51379892997E+03  0.00000000000E+00 0. -1.
         21    1    1    2  503  502 -0.66823310972E+01 -0.26220839599E+02 -0.19457844365E+02  0.33328571609E+02  0.00000000000E+00 0.  1.
         21    1    1    2  504  501  0.66823310972E+01  0.26220839599E+02 -0.48703016937E+03  0.48778127460E+03  0.00000000000E+00 0. -1.
<mgrwt>
<rscale>  2 0.27058935E+02</rscale>
<asrwt>0</asrwt>
<pdfrwt beam="1">  1       21 0.11247561E-02 0.27058935E+02</pdfrwt>
<pdfrwt beam="2">  1       21 0.79046004E-01 0.27058935E+02</pdfrwt>
<totfact> 0.38979103E+06</totfact>
</mgrwt>
</event>
<event>
 4    1  0.4447136E+006  0.3012807E+02  0.7546771E-02  0.1596677E+00
         21   -1    0    0  503  501  0.00000000000E+00  0.00000000000E+00  0.33327798033E+03  0.33327798033E+03  0.00000000000E+00 0. -1.
         21   -1    0    0  504  502 -0.00000000000E+00 -0.00000000000E+00 -0.27570387459E+01  0.27570387459E+01  0.00000000000E+00 0. -1.
         21    1    1    2  503  502 -0.24751627775E+02  0.17177231492E+02  0.14674388814E+03  0.14980476983E+03  0.00000000000E+00 0. -1.
         21    1    1    2  504  501  0.24751627775E+02 -0.17177231492E+02  0.18377705345E+03  0.18623024924E+03  0.00000000000E+00 0. -1.
<mgrwt>
<rscale>  2 0.30128066E+02</rscale>
<asrwt>0</asrwt>
<pdfrwt beam="1">  1       21 0.51273504E-01 0.30128066E+02</pdfrwt>
<pdfrwt beam="2">  1       21 0.42416007E-03 0.30128066E+02</pdfrwt>
<totfact> 0.41297954E+07</totfact>
</mgrwt>
</event>
<event>
 4    1  0.4447136E+006  0.2009820E+02  0.7546771E-02  0.1743382E+00
         21   -1    0    0  502  501  0.00000000000E+00  0.00000000000E+00  0.23370927358E+01  0.23370927358E+01  0.00000000000E+00 0. -1.
         21   -1    0    0  503  502 -0.00000000000E+00 -0.00000000000E+00 -0.37526908573E+03  0.37526908573E+03  0.00000000000E+00 0.  1.
         21    1    1    2  503  504 -0.11856223007E+01 -0.20063195506E+02 -0.32513414790E+03  0.32575474156E+03  0.00000000000E+00 0.  1.
         21    1    1    2  504  501  0.11856223007E+01  0.20063195506E+02 -0.47797845091E+02  0.51851436908E+02  0.00000000000E+00 0. -1.
<mgrwt>
<rscale>  2 0.20098197E+02</rscale>
<asrwt>0</asrwt>
<pdfrwt beam="1">  1       21 0.35955255E-03 0.20098197E+02</pdfrwt>
<pdfrwt beam="2">  1       21 0.57733734E-01 0.20098197E+02</pdfrwt>
<totfact> 0.38154666E+07</totfact>
</mgrwt>
</event>
<event>
 4    1  0.4447136E+006  0.2229565E+02  0.7546771E-02  0.1703188E+00
         21   -1    0    0  502  501  0.00000000000E+00  0.00000000000E+00  0.14007853909E+03  0.14007853909E+03  0.00000000000E+00 0. -1.
         21   -1    0    0  504  502 -0.00000000000E+00 -0.00000000000E+00 -0.24054679459E+02  0.24054679459E+02  0.00000000000E+00 0. -1.
         21    1    1    2  503  501  0.17037598733E+02 -0.14381110702E+02  0.13378362565E+03  0.13562873813E+03  0.00000000000E+00 0. -1.
         21    1    1    2  504  503 -0.17037598733E+02  0.14381110702E+02 -0.17759766009E+02  0.28504480425E+02  0.00000000000E+00 0. -1.
<mgrwt>
<rscale>  2 0.22295652E+02</rscale>
<asrwt>0</asrwt>
<pdfrwt beam="1">  1       21 0.21550544E-01 0.22295652E+02</pdfrwt>
<pdfrwt beam="2">  1       21 0.37007200E-02 0.22295652E+02</pdfrwt>
<totfact> 0.72242164E+06</totfact>
</mgrwt>
</event>
<event>
 4    1  0.4447136E+006  0.2001556E+02  0.7546771E-02  0.1745019E+00
         21   -1    0    0  502  501  0.00000000000E+00  0.00000000000E+00  0.54698646988E+03  0.54698646988E+03  0.00000000000E+00 0. -1.
         21   -1    0    0  504  502 -0.00000000000E+00 -0.00000000000E+00 -0.21165044011E+02  0.21165044011E+02  0.00000000000E+00 0. -1.
         21    1    1    2  503  501  0.14513247674E+02  0.13783629543E+02  0.54202796214E+03  0.54239739540E+03  0.00000000000E+00 0. -1.
         21    1    1    2  504  503 -0.14513247674E+02 -0.13783629543E+02 -0.16206536267E+02  0.25754118490E+02  0.00000000000E+00 0. -1.
<mgrwt>
<rscale>  2 0.20015564E+02</rscale>
<asrwt>0</asrwt>
<pdfrwt beam="1">  1       21 0.84151754E-01 0.20015564E+02</pdfrwt>
<pdfrwt beam="2">  1       21 0.32561610E-02 0.20015564E+02</pdfrwt>
<totfact> 0.64914409E+05</totfact>
</mgrwt>
</event>
<event>
 4    1  0.4447136E+006  0.2006272E+02  0.7546771E-02  0.1744084E+00
         21   -1    0    0  504  501  0.00000000000E+00  0.00000000000E+00  0.19394382749E+03  0.19394382749E+03  0.00000000000E+00 0. -1.
         21   -1    0    0  503  502 -0.00000000000E+00 -0.00000000000E+00 -0.98994415087E+02  0.98994415087E+02  0.00000000000E+00 0.  1.
         21    1    1    2  503  501  0.19532669463E+02 -0.45812303853E+01 -0.97450926171E+02  0.99494702672E+02  0.00000000000E+00 0.  1.
         21    1    1    2  504  502 -0.19532669463E+02  0.45812303853E+01  0.19240033857E+03  0.19344353991E+03  0.00000000000E+00 0. -1.
<mgrwt>
<rscale>  2 0.20062723E+02</rscale>
<asrwt>0</asrwt>
<pdfrwt beam="1">  1       21 0.29837512E-01 0.20062723E+02</pdfrwt>
<pdfrwt beam="2">  1       21 0.15229910E-01 0.20062723E+02</pdfrwt>
<totfact> 0.40174650E+05</totfact>
</mgrwt>
</event>
<event>
 4    1  0.4447136E+006  0.3732790E+02  0.7546771E-02  0.1528849E+00
         21   -1    0    0  503  501  0.00000000000E+00  0.00000000000E+00  0.23934100910E+02  0.23934100910E+02  0.00000000000E+00 0.  1.
         21   -1    0    0  504  502 -0.00000000000E+00 -0.00000000000E+00 -0.64800717353E+02  0.64800717353E+02  0.00000000000E+00 0. -1.
         21    1    1    2  503  502 -0.24435505861E+02  0.28218397220E+02 -0.34575257918E+02  0.50880451535E+02  0.00000000000E+00 0. -1.
         21    1    1    2  504  501  0.24435505861E+02 -0.28218397220E+02 -0.62913585254E+01  0.37854366729E+02  0.00000000000E+00 0.  1.
<mgrwt>
<rscale>  2 0.37327897E+02</rscale>
<asrwt>0</asrwt>
<pdfrwt beam="1">  1       21 0.36821694E-02 0.37327897E+02</pdfrwt>
<pdfrwt beam="2">  1       21 0.99693410E-02 0.37327897E+02</pdfrwt>
<totfact> 0.30019455E+07</totfact>
</mgrwt>
</event>
<event>
 4    1  0.4447136E+006  0.3124677E+02  0.7546771E-02  0.1584702E+00
         21   -1    0    0  503  501  0.00000000000E+00  0.00000000000E+00  0.12958397476E+04  0.12958397476E+04  0.00000000000E+00 0.  1.
         21   -1    0    0  504  502 -0.00000000000E+00 -0.00000000000E+00 -0.50988412957E+01  0.50988412957E+01  0.00000000000E+00 0.  1.
         21    1    1    2  503  502  0.25520447002E+02 -0.18029632097E+02  0.12458595102E+04  0.12462512909E+04  0.00000000000E+00 0.  1.
         21    1    1    2  504  501 -0.25520447002E+02  0.18029632097E+02  0.44881396107E+02  0.54687298024E+02  0.00000000000E+00 0.  1.
<mgrwt>
<rscale>  2 0.31246773E+02</rscale>
<asrwt>0</asrwt>
<pdfrwt beam="1">  1       21 0.19935970E+00 0.31246773E+02</pdfrwt>
<pdfrwt beam="2">  1       21 0.78443816E-03 0.31246773E+02</pdfrwt>
<totfact> 0.78657981E+05</totfact>
</mgrwt>
</event>
<event>
 4    1  0.4447136E+006  0.3488352E+02  0.7546771E-02  0.1549637E+00
         21   -1    0    0  503  501  0.00000000000E+00  0.00000000000E+00  0.56063851841E+02  0.56063851841E+02  0.00000000000E+00 0.  1.
         21   -1    0    0  501  502 -0.00000000000E+00 -0.00000000000E+00 -0.12510778619E+03  0.12510778619E+03  0.00000000000E+00 0.  1.
         21    1    1    2  503  504 -0.17568779016E+02  0.30136320269E+02  0.47831975355E+02  0.59200993757E+02  0.00000000000E+00 0.  1.
         21    1    1    2  504  502  0.17568779016E+02 -0.30136320269E+02 -0.11687590971E+03  0.12197064428E+03  0.00000000000E+00 0.  1.
<mgrwt>
<rscale>  2 0.34883518E+02</rscale>
<asrwt>0</asrwt>
<pdfrwt beam="1">  1       21 0.86252081E-02 0.34883518E+02</pdfrwt>
<pdfrwt beam="2">  1       21 0.19247351E-01 0.34883518E+02</pdfrwt>
<totfact> 0.23906883E+06</totfact>
</mgrwt>
</event>
<event>
 4    1  0.4447136E+006  0.2247659E+02  0.7546771E-02  0.1700138E+00
         21   -1    0    0  504  501  0.00000000000E+00  0.00000000000E+00  0.24427752455E+01  0.24427752455E+01  0.00000000000E+00 0. -1.
         21   -1    0    0  503  502 -0.00000000000E+00 -0.00000000000E+00 -0.29955234295E+03  0.29955234295E+03  0.00000000000E+00 0.  1.
         21    1    1    2  503  501 -0.42155316868E+00  0.22472632830E+02 -0.23257161290E+03  0.23365519909E+03  0.00000000000E+00 0.  1.
         21    1    1    2  504  502  0.42155316868E+00 -0.22472632830E+02 -0.64537954796E+02  0.68339919100E+02  0.00000000000E+00 0. -1.
<mgrwt>
<rscale>  2 0.22476586E+02</rscale>
<asrwt>0</asrwt>
<pdfrwt beam="1">  1       21 0.37581200E-03 0.22476586E+02</pdfrwt>
<pdfrwt beam="2">  1       21 0.46084923E-01 0.22476586E+02</pdfrwt>
<totfact> 0.56971513E+07</totfact>
</mgrwt>
</event>
<event>
 4    1  0.4447136E+006  0.2276932E+02  0.7546771E-02  0.1695277E+00
         21   -1    0    0  503  501  0.00000000000E+00  0.00000000000E+00  0.80645797223E+01  0.80645797223E+01  0.00000000000E+00 0.  1.
         21   -1    0    0  504  502 -0.00000000000E+00 -0.00000000000E+00 -0.91821995611E+02  0.91821995611E+02  0.00000000000E+00 0.  1.
         21    1    1    2  503  502  0.19665509893E+02 -0.11476483818E+02 -0.14529054939E+02  0.27009912951E+02  0.00000000000E+00 0.  1.
         21    1    1    2  504  501 -0.19665509893E+02  0.11476483818E+02 -0.69228360949E+02  0.72876662382E+02  0.00000000000E+00 0.  1.
<mgrwt>
<rscale>  2 0.22769321E+02</rscale>
<asrwt>0</asrwt>
<pdfrwt beam="1">  1       21 0.12407045E-02 0.22769321E+02</pdfrwt>
<pdfrwt beam="2">  1       21 0.14126462E-01 0.22769321E+02</pdfrwt>
<totfact> 0.80679129E+07</totfact>
</mgrwt>
</event>
<event>
 4    1  0.4447136E+006  0.2138098E+02  0.7546771E-02  0.1719183E+00
         21   -1    0    0  503  501  0.00000000000E+00  0.00000000000E+00  0.61639634295E+03  0.61639634295E+03  0.00000000000E+00 0. -1.
         21   -1    0    0  504  502 -0.00000000000E+00 -0.00000000000E+00 -0.67116405097E+01  0.67116405097E+01  0.00000000000E+00 0. -1.
         21    1    1    2  503  502 -0.23070127928E+01  0.21256155291E+02  0.11005658449E+02  0.24047265201E+02  0.00000000000E+00 0. -1.
         21    1    1    2  504  501  0.23070127928E+01 -0.21256155291E+02  0.59867904399E+03  0.59906071826E+03  0.00000000000E+00 0. -1.
<mgrwt>
<rscale>  2 0.21380983E+02</rscale>
<asrwt>0</asrwt>
<pdfrwt beam="1">  1       21 0.94830162E-01 0.21380983E+02</pdfrwt>
<pdfrwt beam="2">  1       21 0.10325606E-02 0.21380983E+02</pdfrwt>
<totfact> 0.29203325E+06</totfact>
</mgrwt>
</event>
<event>
 4    1  0.4447136E+006  0.2245161E+02  0.7546771E-02  0.1700557E+00
         21   -1    0    0  504  501  0.00000000000E+00  0.00000000000E+00  0.11119209418E+02  0.11119209418E+02  0.00000000000E+00 0.  1.
         21   -1    0    0  503  502 -0.00000000000E+00 -0.00000000000E+00 -0.10815745907E+03  0.10815745907E+03  0.00000000000E+00 0. -1.
         21    1    1    2  503  501 -0.11252587036E+02  0.19428182623E+02 -0.30664759582E+01  0.22660058911E+02  0.00000000000E+00 0.  1.
         21    1    1    2  504  502  0.11252587036E+02 -0.19428182623E+02 -0.93971773693E+02  0.96616609576E+02  0.00000000000E+00 0. -1.
<mgrwt>
<rscale>  2 0.22451615E+02</rscale>
<asrwt>0</asrwt>
<pdfrwt beam="1">  1       21 0.17106476E-02 0.22451615E+02</pdfrwt>
<pdfrwt beam="2">  1       21 0.16639609E-01 0.22451615E+02</pdfrwt>
<totfact> 0.37347320E+07</totfact>
</mgrwt>
</event>
<event>
 4    1  0.4447136E+006  0.2144432E+02  0.7546771E-02  0.1718043E+00
         21   -1    0    0  503  501  0.00000000000E+00  0.00000000000E+00  0.13523013351E+03  0.13523013351E+03  0.00000000000E+00 0. -1.
         21   -1    0    0  504  502 -0.00000000000E+00 -0.00000000000E+00 -0.56131112737E+01  0.56131112737E+01  0.00000000000E+00 0.  1.
         21    1    1    2  503  502  0.19474737552E+02 -0.89773950038E+01  0.10902153939E+03  0.11111055340E+03  0.00000000000E+00 0. -1.
         21    1    1    2  504  501 -0.19474737552E+02  0.89773950038E+01  0.20595482844E+02  0.29732691391E+02  0.00000000000E+00 0.  1.
<mgrwt>
<rscale>  2 0.21444324E+02</rscale>
<asrwt>0</asrwt>
<pdfrwt beam="1">  1       21 0.20804634E-01 0.21444324E+02</pdfrwt>
<pdfrwt beam="2">  1       21 0.86355568E-03 0.21444324E+02</pdfrwt>
<totfact> 0.70307228E+07</totfact>
</mgrwt>
</event>
<event>
 4    1  0.4447136E+006  0.2190168E+02  0.7546771E-02  0.1709958E+00
         21   -1    0    0  503  501  0.00000000000E+00  0.00000000000E+00  0.10057657333E+04  0.10057657333E+04  0.00000000000E+00 0.  1.
         21   -1    0    0  504  502 -0.00000000000E+00 -0.00000000000E+00 -0.67840945066E+00  0.67840945066E+00  0.00000000000E+00 0. -1.
         21    1    1    2  503  502 -0.20349418095E+02 -0.80984333541E+01  0.77678016987E+03  0.77708887249E+03  0.00000000000E+00 0.  1.
         21    1    1    2  504  501  0.20349418095E+02  0.80984333541E+01  0.22830715396E+03  0.22935527025E+03  0.00000000000E+00 0. -1.
<mgrwt>
<rscale>  2 0.21901677E+02</rscale>
<asrwt>0</asrwt>
<pdfrwt beam="1">  1       21 0.15473200E+00 0.21901677E+02</pdfrwt>
<pdfrwt beam="2">  1       21 0.10437149E-03 0.21901677E+02</pdfrwt>
<totfact> 0.27367726E+07</totfact>
</mgrwt>
</event>
<event>
 4    1  0.4447136E+006  0.3215142E+02  0.7546771E-02  0.1575457E+00
         21   -1    0    0  502  501  0.00000000000E+00  0.00000000000E+00  0.19010942100E+02  0.19010942100E+02  0.00000000000E+00 0. -1.
         21   -1    0    0  503  502 -0.00000000000E+00 -0.00000000000E+00 -0.96710559827E+02  0.96710559827E+02  0.00000000000E+00 0.  1.
         21    1    1    2  503  504 -0.20115345710E+01 -0.32088431606E+02 -0.77132411935E+02  0.83565080537E+02  0.00000000000E+00 0.  1.
         21    1    1    2  504  501  0.20115345710E+01  0.32088431606E+02 -0.56720579194E+00  0.32156421391E+02  0.00000000000E+00 0. -1.
<mgrwt>
<rscale>  2 0.32151419E+02</rscale>
<asrwt>0</asrwt>
<pdfrwt beam="1">  1       21 0.29247604E-02 0.32151419E+02</pdfrwt>
<pdfrwt beam="2">  1       21 0.14878547E-01 0.32151419E+02</pdfrwt>
<totfact> 0.21280240E+07</totfact>
</mgrwt>
</event>
<event>
 4    1  0.4447136E+006  0.2418376E+02  0.7546771E-02  0.1673010E+00
         21   -1    0    0  502  501  0.00000000000E+00  0.00000000000E+00  0.74036823249E+02  0.74036823249E+02  0.00000000000E+00 0.  1.
         21   -1    0    0  503  502 -0.00000000000E+00 -0.00000000000E+00 -0.18308624565E+02  0.18308624565E+02  0.00000000000E+00 0. -1.
         21    1    1    2  503  504  0.10275069266E+02  0.21892403619E+02 -0.69507562865E+01  0.25162817760E+02  0.00000000000E+00 0. -1.
         21    1    1    2  504  501 -0.10275069266E+02 -0.21892403619E+02  0.62678954971E+02  0.67182630053E+02  0.00000000000E+00 0.  1.
<mgrwt>
<rscale>  2 0.24183763E+02</rscale>
<asrwt>0</asrwt>
<pdfrwt beam="1">  1       21 0.11390280E-01 0.24183763E+02</pdfrwt>
<pdfrwt beam="2">  1       21 0.28167115E-02 0.24183763E+02</pdfrwt>
<totfact> 0.33507948E+07</totfact>
</mgrwt>
</event>
<event>
 4    1  0.4447136E+006  0.2134264E+02  0.7546771E-02  0.1719875E+00
         21   -1    0    0  503  501  0.00000000000E+00  0.00000000000E+00  0.15480052435E+03  0.15480052435E+03  0.00000000000E+00 0. -1.
         21   -1    0    0  504  502 -0.00000000000E+00 -0.00000000000E+00 -0.54330953169E+01  0.54330953169E+01  0.00000000000E+00 0.  1.
         21    1    1    2  503  502 -0.57917203114E+01  0.20541764180E+02  0.12892716566E+03  0.13068175904E+03  0.00000000000E+00 0. -1.
         21    1    1    2  504  501  0.57917203114E+01 -0.20541764180E+02  0.20440263364E+02  0.29551860621E+02  0.00000000000E+00 0.  1.
<mgrwt>
<rscale>  2 0.21342636E+02</rscale>
<asrwt>0</asrwt>
<pdfrwt beam="1">  1       21 0.23815462E-01 0.21342636E+02</pdfrwt>
<pdfrwt beam="2">  1       21 0.83586093E-03 0.21342636E+02</pdfrwt>
<totfact> 0.58134451E+07</totfact>
</mgrwt>
</event>
<event>
 4    1  0.4447136E+006  0.2732980E+02  0.7546771E-02  0.1629630E+00
         21   -1    0    0  504  501  0.00000000000E+00  0.00000000000E+00  0.15896605391E+02  0.15896605391E+02  0.00000000000E+00 0.  1.
         21   -1    0    0  503  502 -0.00000000000E+00 -0.00000000000E+00 -0.50309980415E+02  0.50309980415E+02  0.00000000000E+00 0.  1.
         21    1    1    2  503  501  0.26945940891E+02 -0.45644640286E+01 -0.86978018656E+01  0.28680478024E+02  0.00000000000E+00 0.  1.
         21    1    1    2  504  502 -0.26945940891E+02  0.45644640286E+01 -0.25715573158E+02  0.37526107782E+02  0.00000000000E+00 0.  1.
<mgrwt>
<rscale>  2 0.27329802E+02</rscale>
<asrwt>0</asrwt>
<pdfrwt beam="1">  1       21 0.24456316E-02 0.27329802E+02</pdfrwt>
<pdfrwt beam="2">  1       21 0.77399968E-02 0.27329802E+02</pdfrwt>
<totfact> 0.81486471E+07</totfact>
</mgrwt>
</event>
<event>
 4    1  0.4447136E+006  0.2030425E+02  0.7546771E-02  0.1739344E+00
         21   -1    0    0  504  501  0.00000000000E+00  0.00000000000E+00  0.52364789835E+01  0.52364789835E+01  0.00000000000E+00 0. -1.
         21   -1    0    0  503  502 -0.00000000000E+00 -0.00000000000E+00 -0.81146988102E+02  0.81146988102E+02  0.00000000000E+00 0. -1.
         21    1    1    2  503  501 -0.73414095931E+00 -0.20290973473E+02 -0.45411062464E+02  0.49743614279E+02  0.00000000000E+00 0. -1.
         21    1    1    2  504  502  0.73414095931E+00  0.20290973473E+02 -0.30499446655E+02  0.36639852807E+02  0.00000000000E+00 0. -1.
<mgrwt>
<rscale>  2 0.20304250E+02</rscale>
<asrwt>0</asrwt>
<pdfrwt beam="1">  1       21 0.80561219E-03 0.20304250E+02</pdfrwt>
<pdfrwt beam="2">  1       21 0.12484151E-01 0.20304250E+02</pdfrwt>
<totfact> 0.18342004E+08</totfact>
</mgrwt>
</event>
<event>
 4    1  0.4447136E+006  0.2407944E+02  0.7546771E-02  0.1674587E+00
         21   -1    0    0  504  501  0.00000000000E+00  0.00000000000E+00  0.25291703543E+02  0.25291703543E+02  0.00000000000E+00 0.  1.
         21   -1    0    0  503  502 -0.00000000000E+00 -0.00000000000E+00 -0.64134165446E+02  0.64134165446E+02  0.00000000000E+00 0.  1.
         21    1    1    2  503  501 -0.22851162673E+02  0.75923397340E+01 -0.55262543886E+02  0.60280743317E+02  0.00000000000E+00 0.  1.
         21    1    1    2  504  502  0.22851162673E+02 -0.75923397340E+01  0.16420081983E+02  0.29145125672E+02  0.00000000000E+00 0.  1.
<mgrwt>
<rscale>  2 0.24079436E+02</rscale>
<asrwt>0</asrwt>
<pdfrwt beam="1">  1       21 0.38910314E-02 0.24079436E+02</pdfrwt>
<pdfrwt beam="2">  1       21 0.98667945E-02 0.24079436E+02</pdfrwt>
<totfact> 0.25624799E+07</totfact>
</mgrwt>
</event>
<event>
 4    1  0.4447136E+006  0.2483010E+02  0.7546771E-02  0.1663454E+00
         21   -1    0    0  504  501  0.00000000000E+00  0.00000000000E+00  0.19722338339E+02  0.19722338339E+02  0.00000000000E+00 0.  1.
         21   -1    0    0  503  502 -0.00000000000E+00 -0.00000000000E+00 -0.55793908637E+02  0.55793908637E+02  0.00000000000E+00 0.  1.
         21    1    1    2  503  501 -0.95371433087E+01  0.22925456575E+02  0.70019120467E+01  0.25798457977E+02  0.00000000000E+00 0.  1.
         21    1    1    2  504  502  0.95371433087E+01 -0.22925456575E+02 -0.43073482344E+02  0.49717788999E+02  0.00000000000E+00 0.  1.
<mgrwt>
<rscale>  2 0.24830096E+02</rscale>
<asrwt>0</asrwt>
<pdfrwt beam="1">  1       21 0.30342060E-02 0.24830096E+02</pdfrwt>
<pdfrwt beam="2">  1       21 0.85836780E-02 0.24830096E+02</pdfrwt>
<totfact> 0.47987599E+07</totfact>
</mgrwt>
</event>
<event>
 4    1  0.4447136E+006  0.3525534E+02  0.7546771E-02  0.1546345E+00
         21   -1    0    0  504  501  0.00000000000E+00  0.00000000000E+00  0.42068663572E+01  0.42068663572E+01  0.00000000000E+00 0.  1.
         21   -1    0    0  503  502 -0.00000000000E+00 -0.00000000000E+00 -0.29582867422E+03  0.29582867422E+03  0.00000000000E+00 0.  1.
         21    1    1    2  503  501  0.95623940590E+01  0.33933754623E+02 -0.15114369169E+03  0.15520101359E+03  0.00000000000E+00 0.  1.
         21    1    1    2  504  502 -0.95623940590E+01 -0.33933754623E+02 -0.14047811617E+03  0.14483452698E+03  0.00000000000E+00 0.  1.
<mgrwt>
<rscale>  2 0.35255341E+02</rscale>
<asrwt>0</asrwt>
<pdfrwt beam="1">  1       21 0.64721033E-03 0.35255341E+02</pdfrwt>
<pdfrwt beam="2">  1       21 0.45512095E-01 0.35255341E+02</pdfrwt>
<totfact> 0.28568992E+07</totfact>
</mgrwt>
</event>
<event>
 4    1  0.4447136E+006  0.2162769E+02  0.7546771E-02  0.1714772E+00
         21   -1    0    0  502  501  0.00000000000E+00  0.00000000000E+00  0.10266519954E+02  0.10266519954E+02  0.00000000000E+00 0. -1.
         21   -1    0    0  503  502 -0.00000000000E+00 -0.00000000000E+00 -0.10717273218E+04  0.10717273218E+04  0.00000000000E+00 0. -1.
         21    1    1    2  503  504 -0.20250144721E+02 -0.75953090629E+01 -0.10601029718E+04  0.10603235676E+04  0.00000000000E+00 0. -1.
         21    1    1    2  504  501  0.20250144721E+02  0.75953090629E+01 -0.13578300285E+01  0.21670274188E+02  0.00000000000E+00 0. -1.
<mgrwt>
<rscale>  2 0.21627692E+02</rscale>
<asrwt>0</asrwt>
<pdfrwt beam="1">  1       21 0.15794644E-02 0.21627692E+02</pdfrwt>
<pdfrwt beam="2">  1       21 0.16488115E+00 0.21627692E+02</pdfrwt>
<totfact> 0.43645309E+05</totfact>
</mgrwt>
</event>
<event>
 4    1  0.4447136E+006  0.4072710E+02  0.7546771E-02  0.1502928E+00
         21   -1    0    0  503  501  0.00000000000E+00  0.00000000000E+00  0.62976007417E+01  0.62976007417E+01  0.00000000000E+00 0.  1.
         21   -1    0    0  504  502 -0.00000000000E+00 -0.00000000000E+00 -0.15991949709E+04  0.15991949709E+04  0.00000000000E+00 0.  1.
         21    1    1    2  503  502 -0.22781390190E+02 -0.33759520985E+02 -0.15301171447E+04  0.15306590651E+04  0.00000000000E+00 0.  1.
         21    1    1    2  504  501  0.22781390190E+02  0.33759520985E+02 -0.62780225454E+02  0.74833506560E+02  0.00000000000E+00 0.  1.
<mgrwt>
<rscale>  2 0.40727104E+02</rscale>
<asrwt>0</asrwt>
<pdfrwt beam="1">  1       21 0.96886057E-03 0.40727104E+02</pdfrwt>
<pdfrwt beam="2">  1       21 0.24603027E+00 0.40727104E+02</pdfrwt>
<totfact> 0.31493184E+05</totfact>
</mgrwt>
</event>
<event>
 4    1  0.4447136E+006  0.2103146E+02  0.7546771E-02  0.1725562E+00
         21   -1    0    0  502  501  0.00000000000E+00  0.00000000000E+00  0.29007431455E+02  0.29007431455E+02  0.00000000000E+00 0. -1.
         21   -1    0    0  504  502 -0.00000000000E+00 -0.00000000000E+00 -0.14618945871E+04  0.14618945871E+04  0.00000000000E+00 0.  1.
         21    1    1    2  503  501 -0.20958980440E+02 -0.17444907971E+01  0.25109453481E+02  0.32753728999E+02  0.00000000000E+00 0. -1.
         21    1    1    2  504  503  0.20958980440E+02  0.17444907971E+01 -0.14579966092E+04  0.14581482896E+04  0.00000000000E+00 0.  1.
<mgrwt>
<rscale>  2 0.21031455E+02</rscale>
<asrwt>0</asrwt>
<pdfrwt beam="1">  1       21 0.44626820E-02 0.21031455E+02</pdfrwt>
<pdfrwt beam="2">  1       21 0.22490685E+00 0.21031455E+02</pdfrwt>
<totfact> 0.39916101E+04</totfact>
</mgrwt>
</event>
<event>
 4    1  0.4447136E+006  0.2191074E+02  0.7546771E-02  0.1709800E+00
         21   -1    0    0  502  501  0.00000000000E+00  0.00000000000E+00  0.10941217250E+03  0.10941217250E+03  0.00000000000E+00 0.  1.
         21   -1    0    0  504  502 -0.00000000000E+00 -0.00000000000E+00 -0.69131710077E+01  0.69131710077E+01  0.00000000000E+00 0.  1.
         21    1    1    2  503  501 -0.15978980333E+02 -0.14991754075E+02  0.86402865495E+02  0.89137734257E+02  0.00000000000E+00 0.  1.
         21    1    1    2  504  503  0.15978980333E+02  0.14991754075E+02  0.16096135998E+02  0.27187609252E+02  0.00000000000E+00 0.  1.
<mgrwt>
<rscale>  2 0.21910739E+02</rscale>
<asrwt>0</asrwt>
<pdfrwt beam="1">  1       21 0.16832641E-01 0.21910739E+02</pdfrwt>
<pdfrwt beam="2">  1       21 0.10635648E-02 0.21910739E+02</pdfrwt>
<totfact> 0.74689268E+07</totfact>
</mgrwt>
</event>
<event>
 4    1  0.4447136E+006  0.2898858E+02  0.7546771E-02  0.1609545E+00
         21   -1    0    0  503  501  0.00000000000E+00  0.00000000000E+00  0.25315253644E+02  0.25315253644E+02  0.00000000000E+00 0. -1.
         21   -1    0    0  504  502 -0.00000000000E+00 -0.00000000000E+00 -0.35971494234E+02  0.35971494234E+02  0.00000000000E+00 0.  1.
         21    1    1    2  503  502 -0.19178125083E+02 -0.21737924926E+02  0.31854525359E+01  0.29163075449E+02  0.00000000000E+00 0. -1.
         21    1    1    2  504  501  0.19178125083E+02  0.21737924926E+02 -0.13841693125E+02  0.32123672429E+02  0.00000000000E+00 0.  1.
<mgrwt>
<rscale>  2 0.28988582E+02</rscale>
<asrwt>0</asrwt>
<pdfrwt beam="1">  1       21 0.38946544E-02 0.28988582E+02</pdfrwt>
<pdfrwt beam="2">  1       21 0.55340760E-02 0.28988582E+02</pdfrwt>
<totfact> 0.68708152E+07</totfact>
</mgrwt>
</event>
<event>
 4    1  0.4447136E+006  0.2109478E+02  0.7546771E-02  0.1724394E+00
         21   -1    0    0  503  501  0.00000000000E+00  0.00000000000E+00  0.11468308614E+01  0.11468308614E+01  0.00000000000E+00 0.  1.
         21   -1    0    0  504  502 -0.00000000000E+00 -0.00000000000E+00 -0.62420220970E+03  0.62420220970E+03  0.00000000000E+00 0.  1.
         21    1    1    2  503  502 -0.68765507658E+01  0.19942485462E+02 -0.50386181413E+03  0.50430319989E+03  0.00000000000E+00 0.  1.
         21    1    1    2  504  501  0.68765507658E+01 -0.19942485462E+02 -0.11919356470E+03  0.12104584067E+03  0.00000000000E+00 0.  1.
<mgrwt>
<rscale>  2 0.21094778E+02</rscale>
<asrwt>0</asrwt>
<pdfrwt beam="1">  1       21 0.17643594E-03 0.21094778E+02</pdfrwt>
<pdfrwt beam="2">  1       21 0.96030877E-01 0.21094778E+02</pdfrwt>
<totfact> 0.37800226E+07</totfact>
</mgrwt>
</event>
<event>
 4    1  0.4447136E+006  0.2025556E+02  0.7546771E-02  0.1740293E+00
         21   -1    0    0  504  501  0.00000000000E+00  0.00000000000E+00  0.37588952689E+02  0.37588952689E+02  0.00000000000E+00 0. -1.
         21   -1    0    0  503  502 -0.00000000000E+00 -0.00000000000E+00 -0.15586383220E+02  0.15586383220E+02  0.00000000000E+00 0.  1.
         21    1    1    2  503  501  0.15039710974E+02 -0.13568152411E+02 -0.35541461672E+01  0.20565009628E+02  0.00000000000E+00 0.  1.
         21    1    1    2  504  502 -0.15039710974E+02  0.13568152411E+02  0.25556715637E+02  0.32610326281E+02  0.00000000000E+00 0. -1.
<mgrwt>
<rscale>  2 0.20255559E+02</rscale>
<asrwt>0</asrwt>
<pdfrwt beam="1">  1       21 0.57829158E-02 0.20255559E+02</pdfrwt>
<pdfrwt beam="2">  1       21 0.23979051E-02 0.20255559E+02</pdfrwt>
<totfact> 0.12376061E+08</totfact>
</mgrwt>
</event>
<event>
 4    1  0.4447136E+006  0.2804127E+02  0.7546771E-02  0.1620807E+00
         21   -1    0    0  503  501  0.00000000000E+00  0.00000000000E+00  0.35337680090E+03  0.35337680090E+03  0.00000000000E+00 0.  1.
         21   -1    0    0  504  502 -0.00000000000E+00 -0.00000000000E+00 -0.32519737929E+02  0.32519737929E+02  0.00000000000E+00 0.  1.
         21    1    1    2  503  502 -0.18135070326E+02 -0.21387658988E+02  0.34665867077E+03  0.34779095266E+03  0.00000000000E+00 0.  1.
         21    1    1    2  504  501  0.18135070326E+02  0.21387658988E+02 -0.25801607794E+02  0.38105586172E+02  0.00000000000E+00 0.  1.
<mgrwt>
<rscale>  2 0.28041268E+02</rscale>
<asrwt>0</asrwt>
<pdfrwt beam="1">  1       21 0.54365659E-01 0.28041268E+02</pdfrwt>
<pdfrwt beam="2">  1       21 0.50030369E-02 0.28041268E+02</pdfrwt>
<totfact> 0.82465654E+05</totfact>
</mgrwt>
</event>
<event>
 4    1  0.4447136E+006  0.2034443E+02  0.7546771E-02  0.1738564E+00
         21   -1    0    0  504  501  0.00000000000E+00  0.00000000000E+00  0.86929803477E+03  0.86929803477E+03  0.00000000000E+00 0.  1.
         21   -1    0    0  503  502 -0.00000000000E+00 -0.00000000000E+00 -0.86376644305E+00  0.86376644305E+00  0.00000000000E+00 0.  1.
         21    1    1    2  503  501  0.17034395550E+02 -0.11123177266E+02  0.72568199064E+03  0.72596711168E+03  0.00000000000E+00 0.  1.
         21    1    1    2  504  502 -0.17034395550E+02  0.11123177266E+02  0.14275227769E+03  0.14419468954E+03  0.00000000000E+00 0.  1.
<mgrwt>
<rscale>  2 0.20344427E+02</rscale>
<asrwt>0</asrwt>
<pdfrwt beam="1">  1       21 0.13373746E+00 0.20344427E+02</pdfrwt>
<pdfrwt beam="2">  1       21 0.13288784E-03 0.20344427E+02</pdfrwt>
<totfact> 0.26894263E+07</totfact>
</mgrwt>
</event>
<event>
 4    1  0.4447136E+006  0.2468276E+02  0.7546771E-02  0.1665601E+00
         21   -1    0    0  504  501  0.00000000000E+00  0.00000000000E+00  0.15981242931E+02  0.15981242931E+02  0.00000000000E+00 0.  1.
         21   -1    0    0  503  502 -0.00000000000E+00 -0.00000000000E+00 -0.39543712147E+02  0.39543712147E+02  0.00000000000E+00 0.  1.
         21    1    1    2  503  501 -0.18080124808E+02 -0.16803199690E+02 -0.65172925636E+01  0.25528680641E+02  0.00000000000E+00 0.  1.
         21    1    1    2  504  502  0.18080124808E+02  0.16803199690E+02 -0.17045176652E+02  0.29996274436E+02  0.00000000000E+00 0.  1.
<mgrwt>
<rscale>  2 0.24682756E+02</rscale>
<asrwt>0</asrwt>
<pdfrwt beam="1">  1       21 0.24586528E-02 0.24682756E+02</pdfrwt>
<pdfrwt beam="2">  1       21 0.60836480E-02 0.24682756E+02</pdfrwt>
<totfact> 0.11638891E+08</totfact>
</mgrwt>
</event>
<event>
 4    1  0.4447136E+006  0.2954830E+02  0.7546771E-02  0.1603136E+00
         21   -1    0    0  502  501  0.00000000000E+00  0.00000000000E+00  0.25383804663E+02  0.25383804663E+02  0.00000000000E+00 0. -1.
         21   -1    0    0  504  502 -0.00000000000E+00 -0.00000000000E+00 -0.42918323661E+02  0.42918323661E+02  0.00000000000E+00 0. -1.
         21    1    1    2  503  501 -0.18481492791E+02  0.23055076544E+02  0.64508634904E+01  0.30244268382E+02  0.00000000000E+00 0. -1.
         21    1    1    2  504  503  0.18481492791E+02 -0.23055076544E+02 -0.23985382488E+02  0.38057859941E+02  0.00000000000E+00 0. -1.
<mgrwt>
<rscale>  2 0.29548302E+02</rscale>
<asrwt>0</asrwt>
<pdfrwt beam="1">  1       21 0.39052008E-02 0.29548302E+02</pdfrwt>
<pdfrwt beam="2">  1       21 0.66028189E-02 0.29548302E+02</pdfrwt>
<totfact> 0.51609602E+07</totfact>
</mgrwt>
</event>
<event>
 4    1  0.4447136E+006  0.6828667E+02  0.7546771E-02  0.1366018E+00
         21   -1    0    0  503  501  0.00000000000E+00  0.00000000000E+00  0.18819299069E+03  0.18819299069E+03  0.00000000000E+00 0. -1.
         21   -1    0    0  504  502 -0.00000000000E+00 -0.00000000000E+00 -0.26900241488E+02  0.26900241488E+02  0.00000000000E+00 0. -1.
         21    1    1    2  503  502  0.15841977114E+02  0.66423651356E+02  0.11085306429E+03  0.13019781703E+03  0.00000000000E+00 0. -1.
         21    1    1    2  504  501 -0.15841977114E+02 -0.66423651356E+02  0.50439684914E+02  0.84895415145E+02  0.00000000000E+00 0. -1.
<mgrwt>
<rscale>  2 0.68286673E+02</rscale>
<asrwt>0</asrwt>
<pdfrwt beam="1">  1       21 0.28952767E-01 0.68286673E+02</pdfrwt>
<pdfrwt beam="2">  1       21 0.41384988E-02 0.68286673E+02</pdfrwt>
<totfact> 0.40277779E+06</totfact>
</mgrwt>
</event>
<event>
 4    1  0.4447136E+006  0.2780357E+02  0.7546771E-02  0.1623719E+00
         21   -1    0    0  503  501  0.00000000000E+00  0.00000000000E+00  0.23595535274E+01  0.23595535274E+01  0.00000000000E+00 0. -1.
         21   -1    0    0  504  502 -0.00000000000E+00 -0.00000000000E+00 -0.33716939871E+03  0.33716939871E+03  0.00000000000E+00 0.  1.
         21    1    1    2  503  502  0.12905216711E+02  0.24627095773E+02 -0.13883586374E+03  0.14159249813E+03  0.00000000000E+00 0. -1.
         21    1    1    2  504  501 -0.12905216711E+02 -0.24627095773E+02 -0.19597398143E+03  0.19793645411E+03  0.00000000000E+00 0.  1.
<mgrwt>
<rscale>  2 0.27803569E+02</rscale>
<asrwt>0</asrwt>
<pdfrwt beam="1">  1       21 0.36300803E-03 0.27803569E+02</pdfrwt>
<pdfrwt beam="2">  1       21 0.51872245E-01 0.27803569E+02</pdfrwt>
<totfact> 0.49977891E+07</totfact>
</mgrwt>
</event>
<event>
 4    1  0.4447136E+006  0.2462564E+02  0.7546771E-02  0.1666438E+00
         21   -1    0    0  504  501  0.00000000000E+00  0.00000000000E+00  0.76289513801E+03  0.76289513801E+03  0.00000000000E+00 0.  1.
         21   -1    0    0  501  502 -0.00000000000E+00 -0.00000000000E+00 -0.13716953829E+01  0.13716953829E+01  0.00000000000E+00 0.  1.
         21    1    1    2  503  502  0.40035610221E+01 -0.24298019143E+02  0.13296326224E+03  0.13522444802E+03  0.00000000000E+00 0.  1.
         21    1    1    2  504  503 -0.40035610221E+01  0.24298019143E+02  0.62856018039E+03  0.62904238538E+03  0.00000000000E+00 0.  1.
<mgrwt>
<rscale>  2 0.24625642E+02</rscale>
<asrwt>0</asrwt>
<pdfrwt beam="1">  1       21 0.11736814E+00 0.24625642E+02</pdfrwt>
<pdfrwt beam="2">  1       21 0.21103067E-03 0.24625642E+02</pdfrwt>
<totfact> 0.19315913E+07</totfact>
</mgrwt>
</event>
<event>
 4    1  0.4447136E+006  0.2971360E+02  0.7546771E-02  0.1601276E+00
         21   -1    0    0  504  501  0.00000000000E+00  0.00000000000E+00  0.73698408888E+02  0.73698408888E+02  0.00000000000E+00 0.  1.
         21   -1    0    0  501  502 -0.00000000000E+00 -0.00000000000E+00 -0.43947922058E+02  0.43947922058E+02  0.00000000000E+00 0.  1.
         21    1    1    2  503  502  0.26267284137E+02 -0.13889853179E+02 -0.35293962228E+02  0.46136341500E+02  0.00000000000E+00 0.  1.
         21    1    1    2  504  503 -0.26267284137E+02  0.13889853179E+02  0.65044449058E+02  0.71509989446E+02  0.00000000000E+00 0.  1.
<mgrwt>
<rscale>  2 0.29713604E+02</rscale>
<asrwt>0</asrwt>
<pdfrwt beam="1">  1       21 0.11338217E-01 0.29713604E+02</pdfrwt>
<pdfrwt beam="2">  1       21 0.67612188E-02 0.29713604E+02</pdfrwt>
<totfact> 0.87180400E+06</totfact>
</mgrwt>
</event>
<event>
 4    1  0.4447136E+006  0.2046782E+02  0.7546771E-02  0.1736182E+00
         21   -1    0    0  502  501  0.00000000000E+00  0.00000000000E+00  0.17630607776E+02  0.17630607776E+02  0.00000000000E+00 0.  1.
         21   -1    0    0  504  502 -0.00000000000E+00 -0.00000000000E+00 -0.32251067589E+02  0.32251067589E+02  0.00000000000E+00 0.  1.
         21    1    1    2  503  501  0.97154999839E+00 -0.20444749611E+02  0.54859064175E+01  0.21190254016E+02  0.00000000000E+00 0.  1.
         21    1    1    2  504  503 -0.97154999839E+00  0.20444749611E+02 -0.20106366230E+02  0.28691421349E+02  0.00000000000E+00 0.  1.
<mgrwt>
<rscale>  2 0.20467821E+02</rscale>
<asrwt>0</asrwt>
<pdfrwt beam="1">  1       21 0.27124012E-02 0.20467821E+02</pdfrwt>
<pdfrwt beam="2">  1       21 0.49617026E-02 0.20467821E+02</pdfrwt>
<totfact> 0.13098892E+08</totfact>
</mgrwt>
</event>
<event>
 4    1  0.4447136E+006  0.2189080E+02  0.7546771E-02  0.1710147E+00
         21   -1    0    0  504  501  0.00000000000E+00  0.00000000000E+00  0.34427113530E+02  0.34427113530E+02  0.00000000000E+00 0. -1.
         21   -1    0    0  503  502 -0.00000000000E+00 -0.00000000000E+00 -0.30366989817E+03  0.30366989817E+03  0.00000000000E+00 0. -1.
         21    1    1    2  503  501 -0.85056764101E+01 -0.20170786839E+02  0.30507287154E+02  0.37548658330E+02  0.00000000000E+00 0. -1.
         21    1    1    2  504  502  0.85056764101E+01  0.20170786839E+02 -0.29975007179E+03  0.30054835337E+03  0.00000000000E+00 0. -1.
<mgrwt>
<rscale>  2 0.21890801E+02</rscale>
<asrwt>0</asrwt>
<pdfrwt beam="1">  1       21 0.52964788E-02 0.21890801E+02</pdfrwt>
<pdfrwt beam="2">  1       21 0.46718447E-01 0.21890801E+02</pdfrwt>
<totfact> 0.99174114E+05</totfact>
</mgrwt>
</event>
<event>
 4    1  0.4447136E+006  0.2649144E+02  0.7546771E-02  0.1640460E+00
         21   -1    0    0  503  501  0.00000000000E+00  0.00000000000E+00  0.33145467420E+03  0.33145467420E+03  0.00000000000E+00 0.  1.
         21   -1    0    0  504  502 -0.00000000000E+00 -0.00000000000E+00 -0.76720290147E+01  0.76720290147E+01  0.00000000000E+00 0.  1.
         21    1    1    2  503  502 -0.14385703601E+02  0.22245173223E+02  0.30617176360E+03  0.30731570905E+03  0.00000000000E+00 0.  1.
         21    1    1    2  504  501  0.14385703601E+02 -0.22245173223E+02  0.17610881584E+02  0.31810994168E+02  0.00000000000E+00 0.  1.
<mgrwt>
<rscale>  2 0.26491436E+02</rscale>
<asrwt>0</asrwt>
<pdfrwt beam="1">  1       21 0.50993016E-01 0.26491436E+02</pdfrwt>
<pdfrwt beam="2">  1       21 0.11803124E-02 0.26491436E+02</pdfrwt>
<totfact> 0.88024742E+06</totfact>
</mgrwt>
</event>
<event>
 4    1  0.4447136E+006  0.3312944E+02  0.7546771E-02  0.1565868E+00
         21   -1    0    0  502  501  0.00000000000E+00  0.00000000000E+00  0.47444372032E+03  0.47444372032E+03  0.00000000000E+00 0. -1.
         21   -1    0    0  504  502 -0.00000000000E+00 -0.00000000000E+00 -0.35176473698E+01  0.35176473698E+01  0.00000000000E+00 0. -1.
         21    1    1    2  503  501  0.30659835950E+02 -0.12551270718E+02  0.37529337406E+03  0.37675280563E+03  0.00000000000E+00 0. -1.
         21    1    1    2  504  503 -0.30659835950E+02  0.12551270718E+02  0.95632698891E+02  0.10120856206E+03  0.00000000000E+00 0. -1.
<mgrwt>
<rscale>  2 0.33129442E+02</rscale>
<asrwt>0</asrwt>
<pdfrwt beam="1">  1       21 0.72991291E-01 0.33129442E+02</pdfrwt>
<pdfrwt beam="2">  1       21 0.54117689E-03 0.33129442E+02</pdfrwt>
<totfact> 0.14242656E+07</totfact>
</mgrwt>
</event>
<event>
 4    1  0.4447136E+006  0.2291216E+02  0.7546771E-02  0.1692938E+00
         21   -1    0    0  502  501  0.00000000000E+00  0.00000000000E+00  0.16927184994E+03  0.16927184994E+03  0.00000000000E+00 0. -1.
         21   -1    0    0  504  502 -0.00000000000E+00 -0.00000000000E+00 -0.10519939051E+02  0.10519939051E+02  0.00000000000E+00 0. -1.
         21    1    1    2  503  501  0.19492207281E+02 -0.12042463071E+02  0.15486685978E+03  0.15655258324E+03  0.00000000000E+00 0. -1.
         21    1    1    2  504  503 -0.19492207281E+02  0.12042463071E+02  0.38850511037E+01  0.23239205743E+02  0.00000000000E+00 0. -1.
<mgrwt>
<rscale>  2 0.22912160E+02</rscale>
<asrwt>0</asrwt>
<pdfrwt beam="1">  1       21 0.26041821E-01 0.22912160E+02</pdfrwt>
<pdfrwt beam="2">  1       21 0.16184523E-02 0.22912160E+02</pdfrwt>
<totfact> 0.18635526E+07</totfact>
</mgrwt>
</event>
<event>
 4    1  0.4447136E+006  0.2476924E+02  0.7546771E-02  0.1664339E+00
         21   -1    0    0  504  501  0.00000000000E+00  0.00000000000E+00  0.22791856179E+02  0.22791856179E+02  0.00000000000E+00 0.  1.
         21   -1    0    0  503  502 -0.00000000000E+00 -0.00000000000E+00 -0.41590776335E+02  0.41590776335E+02  0.00000000000E+00 0. -1.
         21    1    1    2  503  501 -0.13464618474E+01  0.24732611101E+02 -0.28519724107E+02  0.37774193235E+02  0.00000000000E+00 0. -1.
         21    1    1    2  504  502  0.13464618474E+01 -0.24732611101E+02  0.97208039513E+01  0.26608439279E+02  0.00000000000E+00 0.  1.
<mgrwt>
<rscale>  2 0.24769235E+02</rscale>
<asrwt>0</asrwt>
<pdfrwt beam="1">  1       21 0.35064394E-02 0.24769235E+02</pdfrwt>
<pdfrwt beam="2">  1       21 0.63985810E-02 0.24769235E+02</pdfrwt>
<totfact> 0.61711460E+07</totfact>
</mgrwt>
</event>
<event>
 4    1  0.4447136E+006  0.4012655E+02  0.7546771E-02  0.1507282E+00
         21   -1    0    0  503  501  0.00000000000E+00  0.00000000000E+00  0.16999017398E+02  0.16999017398E+02  0.00000000000E+00 0. -1.
         21   -1    0    0  504  502 -0.00000000000E+00 -0.00000000000E+00 -0.36846597005E+03  0.36846597005E+03  0.00000000000E+00 0. -1.
         21    1    1    2  503  502  0.34298138371E+02 -0.20827327995E+02 -0.34185673598E+03  0.34420367201E+03  0.00000000000E+00 0. -1.
         21    1    1    2  504  501 -0.34298138371E+02  0.20827327995E+02 -0.96102166657E+01  0.41261315436E+02  0.00000000000E+00 0. -1.
<mgrwt>
<rscale>  2 0.40126548E+02</rscale>
<asrwt>0</asrwt>
<pdfrwt beam="1">  1       21 0.26152335E-02 0.40126548E+02</pdfrwt>
<pdfrwt beam="2">  1       21 0.56687071E-01 0.40126548E+02</pdfrwt>
<totfact> 0.21848413E+06</totfact>
</mgrwt>
</event>
<event>
 4    1  0.4447136E+006  0.2136737E+02  0.7546771E-02  0.1719428E+00
         21   -1    0    0  504  501  0.00000000000E+00  0.00000000000E+00  0.19709762591E+02  0.19709762591E+02  0.00000000000E+00 0.  1.
         21   -1    0    0  503  502 -0.00000000000E+00 -0.00000000000E+00 -0.40054165304E+02  0.40054165304E+02  0.00000000000E+00 0.  1.
         21    1    1    2  503  501 -0.20936521274E+02 -0.42692540807E+01 -0.29576472920E+02  0.36487425284E+02  0.00000000000E+00 0.  1.
         21    1    1    2  504  502  0.20936521274E+02  0.42692540807E+01  0.92320702080E+01  0.23276502611E+02  0.00000000000E+00 0.  1.
<mgrwt>
<rscale>  2 0.21367369E+02</rscale>
<asrwt>0</asrwt>
<pdfrwt beam="1">  1       21 0.30322712E-02 0.21367369E+02</pdfrwt>
<pdfrwt beam="2">  1       21 0.61621792E-02 0.21367369E+02</pdfrwt>
<totfact> 0.79030727E+07</totfact>
</mgrwt>
</event>
<event>
 4    1  0.4447136E+006  0.3623395E+02  0.7546771E-02  0.1537908E+00
         21   -1    0    0  504  501  0.00000000000E+00  0.00000000000E+00  0.13335664405E+02  0.13335664405E+02  0.00000000000E+00 0.  1.
         21   -1    0    0  503  502 -0.00000000000E+00 -0.00000000000E+00 -0.10072909520E+03  0.10072909520E+03  0.00000000000E+00 0.  1.
         21    1    1    2  503  501  0.45851202640E+01  0.35942677431E+02 -0.35118396323E+02  0.50459896443E+02  0.00000000000E+00 0.  1.
         21    1    1    2  504  502 -0.45851202640E+01 -0.35942677431E+02 -0.52275034473E+02  0.63604863162E+02  0.00000000000E+00 0.  1.
<mgrwt>
<rscale>  2 0.36233954E+02</rscale>
<asrwt>0</asrwt>
<pdfrwt beam="1">  1       21 0.20516407E-02 0.36233954E+02</pdfrwt>
<pdfrwt beam="2">  1       21 0.15496784E-01 0.36233954E+02</pdfrwt>
<totfact> 0.35346011E+07</totfact>
</mgrwt>
</event>
<event>
 4    1  0.4447136E+006  0.2756976E+02  0.7546771E-02  0.1626618E+00
         21   -1    0    0  504  501  0.00000000000E+00  0.00000000000E+00  0.33655415919E+02  0.33655415919E+02  0.00000000000E+00 0. -1.
         21   -1    0    0  503  502 -0.00000000000E+00 -0.00000000000E+00 -0.31840697718E+02  0.31840697718E+02  0.00000000000E+00 0. -1.
         21    1    1    2  503  501  0.24773233273E+02 -0.12098707367E+02  0.18564070388E+02  0.33237276003E+02  0.00000000000E+00 0. -1.
         21    1    1    2  504  502 -0.24773233273E+02  0.12098707367E+02 -0.16749352187E+02  0.32258837633E+02  0.00000000000E+00 0. -1.
<mgrwt>
<rscale>  2 0.27569763E+02</rscale>
<asrwt>0</asrwt>
<pdfrwt beam="1">  1       21 0.51777563E-02 0.27569763E+02</pdfrwt>
<pdfrwt beam="2">  1       21 0.48985689E-02 0.27569763E+02</pdfrwt>
<totfact> 0.52414548E+07</totfact>
</mgrwt>
</event>
<event>
 4    1  0.4447136E+006  0.2063259E+02  0.7546771E-02  0.1733033E+00
         21   -1    0    0  502  501  0.00000000000E+00  0.00000000000E+00  0.73053550402E+01  0.73053550402E+01  0.00000000000E+00 0. -1.
         21   -1    0    0  504  502 -0.00000000000E+00 -0.00000000000E+00 -0.18151412113E+03  0.18151412113E+03  0.00000000000E+00 0. -1.
         21    1    1    2  503  501  0.13882403438E+02  0.15263770087E+02 -0.93115330918E+01  0.22636440776E+02  0.00000000000E+00 0. -1.
         21    1    1    2  504  503 -0.13882403438E+02 -0.15263770087E+02 -0.16489723300E+03  0.16618303539E+03  0.00000000000E+00 0. -1.
<mgrwt>
<rscale>  2 0.20632591E+02</rscale>
<asrwt>0</asrwt>
<pdfrwt beam="1">  1       21 0.11239009E-02 0.20632591E+02</pdfrwt>
<pdfrwt beam="2">  1       21 0.27925246E-01 0.20632591E+02</pdfrwt>
<totfact> 0.27880231E+07</totfact>
</mgrwt>
</event>
<event>
 4    1  0.4447136E+006  0.2333528E+02  0.7546771E-02  0.1686132E+00
         21   -1    0    0  504  501  0.00000000000E+00  0.00000000000E+00  0.15005890314E+03  0.15005890314E+03  0.00000000000E+00 0. -1.
         21   -1    0    0  503  502 -0.00000000000E+00 -0.00000000000E+00 -0.43908331443E+01  0.43908331443E+01  0.00000000000E+00 0. -1.
         21    1    1    2  503  501 -0.22631969512E+02 -0.56858981439E+01  0.40662828643E+02  0.46882844570E+02  0.00000000000E+00 0. -1.
         21    1    1    2  504  502  0.22631969512E+02  0.56858981439E+01  0.10500524135E+03  0.10756689172E+03  0.00000000000E+00 0. -1.
<mgrwt>
<rscale>  2 0.23335284E+02</rscale>
<asrwt>0</asrwt>
<pdfrwt beam="1">  1       21 0.23085981E-01 0.23335284E+02</pdfrwt>
<pdfrwt beam="2">  1       21 0.67551291E-03 0.23335284E+02</pdfrwt>
<totfact> 0.86352815E+07</totfact>
</mgrwt>
</event>
<event>
 4    1  0.4447136E+006  0.2178277E+02  0.7546771E-02  0.1712036E+00
         21   -1    0    0  504  501  0.00000000000E+00  0.00000000000E+00  0.24479726576E+01  0.24479726576E+01  0.00000000000E+00 0. -1.
         21   -1    0    0  503  502 -0.00000000000E+00 -0.00000000000E+00 -0.48849204166E+03  0.48849204166E+03  0.00000000000E+00 0.  1.
         21    1    1    2  503  501 -0.17021583660E+02  0.13592457365E+02 -0.43367000522E+03  0.43421672312E+03  0.00000000000E+00 0.  1.
         21    1    1    2  504  502  0.17021583660E+02 -0.13592457365E+02 -0.52374063786E+02  0.56723291204E+02  0.00000000000E+00 0. -1.
<mgrwt>
<rscale>  2 0.21782773E+02</rscale>
<asrwt>0</asrwt>
<pdfrwt beam="1">  1       21 0.37661084E-03 0.21782773E+02</pdfrwt>
<pdfrwt beam="2">  1       21 0.75152689E-01 0.21782773E+02</pdfrwt>
<totfact> 0.21299890E+07</totfact>
</mgrwt>
</event>
<event>
 4    1  0.4447136E+006  0.2044023E+02  0.7546771E-02  0.1736713E+00
         21   -1    0    0  504  501  0.00000000000E+00  0.00000000000E+00  0.17114985133E+02  0.17114985133E+02  0.00000000000E+00 0.  1.
         21   -1    0    0  503  502 -0.00000000000E+00 -0.00000000000E+00 -0.47955912901E+02  0.47955912901E+02  0.00000000000E+00 0. -1.
         21    1    1    2  503  501 -0.19617584263E+02  0.57404880811E+01 -0.38217556529E+02  0.43340332749E+02  0.00000000000E+00 0. -1.
         21    1    1    2  504  502  0.19617584263E+02 -0.57404880811E+01  0.73766287603E+01  0.21730565285E+02  0.00000000000E+00 0.  1.
<mgrwt>
<rscale>  2 0.20440225E+02</rscale>
<asrwt>0</asrwt>
<pdfrwt beam="1">  1       21 0.26330747E-02 0.20440225E+02</pdfrwt>
<pdfrwt beam="2">  1       21 0.73778326E-02 0.20440225E+02</pdfrwt>
<totfact> 0.72671128E+07</totfact>
</mgrwt>
</event>
<event>
 4    1  0.4447136E+006  0.2540659E+02  0.7546771E-02  0.1655230E+00
         21   -1    0    0  503  501  0.00000000000E+00  0.00000000000E+00  0.99802456470E+01  0.99802456470E+01  0.00000000000E+00 0.  1.
         21   -1    0    0  501  502 -0.00000000000E+00 -0.00000000000E+00 -0.22406033802E+03  0.22406033802E+03  0.00000000000E+00 0.  1.
         21    1    1    2  503  504 -0.25290707223E+02 -0.24238649935E+01 -0.83439940009E+01  0.26741675887E+02  0.00000000000E+00 0.  1.
         21    1    1    2  504  502  0.25290707223E+02  0.24238649935E+01 -0.20573609837E+03  0.20729890778E+03  0.00000000000E+00 0.  1.
<mgrwt>
<rscale>  2 0.25406594E+02</rscale>
<asrwt>0</asrwt>
<pdfrwt beam="1">  1       21 0.15354225E-02 0.25406594E+02</pdfrwt>
<pdfrwt beam="2">  1       21 0.34470819E-01 0.25406594E+02</pdfrwt>
<totfact> 0.12360814E+07</totfact>
</mgrwt>
</event>
<event>
 4    1  0.4447136E+006  0.2463879E+02  0.7546771E-02  0.1666245E+00
         21   -1    0    0  503  501  0.00000000000E+00  0.00000000000E+00  0.13745118538E+02  0.13745118538E+02  0.00000000000E+00 0. -1.
         21   -1    0    0  501  502 -0.00000000000E+00 -0.00000000000E+00 -0.27939844114E+03  0.27939844114E+03  0.00000000000E+00 0. -1.
         21    1    1    2  503  504  0.10305327816E+01  0.24617227307E+02  0.16623436390E+01  0.24694802378E+02  0.00000000000E+00 0. -1.
         21    1    1    2  504  502 -0.10305327816E+01 -0.24617227307E+02 -0.26731566624E+03  0.26844875730E+03  0.00000000000E+00 0. -1.
<mgrwt>
<rscale>  2 0.24638788E+02</rscale>
<asrwt>0</asrwt>
<pdfrwt beam="1">  1       21 0.21146336E-02 0.24638788E+02</pdfrwt>
<pdfrwt beam="2">  1       21 0.42984375E-01 0.24638788E+02</pdfrwt>
<totfact> 0.49696573E+06</totfact>
</mgrwt>
</event>
<event>
 4    1  0.4447136E+006  0.2569332E+02  0.7546771E-02  0.1651239E+00
         21   -1    0    0  504  501  0.00000000000E+00  0.00000000000E+00  0.96060150690E+01  0.96060150690E+01  0.00000000000E+00 0.  1.
         21   -1    0    0  503  502 -0.00000000000E+00 -0.00000000000E+00 -0.12285240667E+04  0.12285240667E+04  0.00000000000E+00 0. -1.
         21    1    1    2  503  501 -0.75526729298E+01 -0.24558173946E+02 -0.12109600089E+04  0.12112325499E+04  0.00000000000E+00 0. -1.
         21    1    1    2  504  502  0.75526729298E+01  0.24558173946E+02 -0.79580427124E+01  0.26897531853E+02  0.00000000000E+00 0.  1.
<mgrwt>
<rscale>  2 0.25693322E+02</rscale>
<asrwt>0</asrwt>
<pdfrwt beam="1">  1       21 0.14778474E-02 0.25693322E+02</pdfrwt>
<pdfrwt beam="2">  1       21 0.18900384E+00 0.25693322E+02</pdfrwt>
<totfact> 0.34533643E+05</totfact>
</mgrwt>
</event>
<event>
 4    1  0.4447136E+006  0.3292343E+02  0.7546771E-02  0.1567854E+00
         21   -1    0    0  502  501  0.00000000000E+00  0.00000000000E+00  0.91533443492E+01  0.91533443492E+01  0.00000000000E+00 0. -1.
         21   -1    0    0  504  502 -0.00000000000E+00 -0.00000000000E+00 -0.37388074609E+03  0.37388074609E+03  0.00000000000E+00 0.  1.
         21    1    1    2  503  501 -0.28636620963E+02  0.16244889637E+02 -0.24056117103E+02  0.40775596496E+02  0.00000000000E+00 0. -1.
         21    1    1    2  504  503  0.28636620963E+02 -0.16244889637E+02 -0.34067128463E+03  0.34225849394E+03  0.00000000000E+00 0.  1.
<mgrwt>
<rscale>  2 0.32923434E+02</rscale>
<asrwt>0</asrwt>
<pdfrwt beam="1">  1       21 0.14082072E-02 0.32923434E+02</pdfrwt>
<pdfrwt beam="2">  1       21 0.57520099E-01 0.32923434E+02</pdfrwt>
<totfact> 0.54544928E+06</totfact>
</mgrwt>
</event>
<event>
 4    1  0.4447136E+006  0.2625061E+02  0.7546771E-02  0.1643663E+00
         21   -1    0    0  503  501  0.00000000000E+00  0.00000000000E+00  0.20803687484E+03  0.20803687484E+03  0.00000000000E+00 0. -1.
         21   -1    0    0  501  502 -0.00000000000E+00 -0.00000000000E+00 -0.89853597282E+01  0.89853597282E+01  0.00000000000E+00 0. -1.
         21    1    1    2  503  504  0.10068219391E+01  0.26231291579E+02  0.18574667472E+03  0.18759243460E+03  0.00000000000E+00 0. -1.
         21    1    1    2  504  502 -0.10068219391E+01 -0.26231291579E+02  0.13304840386E+02  0.29429799966E+02  0.00000000000E+00 0. -1.
<mgrwt>
<rscale>  2 0.26250607E+02</rscale>
<asrwt>0</asrwt>
<pdfrwt beam="1">  1       21 0.32005669E-01 0.26250607E+02</pdfrwt>
<pdfrwt beam="2">  1       21 0.13823632E-02 0.26250607E+02</pdfrwt>
<totfact> 0.16740919E+07</totfact>
</mgrwt>
</event>
<event>
 4    1  0.4447136E+006  0.2797815E+02  0.7546771E-02  0.1621577E+00
         21   -1    0    0  504  501  0.00000000000E+00  0.00000000000E+00  0.11234272485E+03  0.11234272485E+03  0.00000000000E+00 0. -1.
         21   -1    0    0  503  502 -0.00000000000E+00 -0.00000000000E+00 -0.76565420725E+01  0.76565420725E+01  0.00000000000E+00 0. -1.
         21    1    1    2  503  501  0.14528462046E+02 -0.23910260580E+02  0.34347164182E+02  0.44300163180E+02  0.00000000000E+00 0. -1.
         21    1    1    2  504  502 -0.14528462046E+02  0.23910260580E+02  0.70339018595E+02  0.75699103742E+02  0.00000000000E+00 0. -1.
<mgrwt>
<rscale>  2 0.27978148E+02</rscale>
<asrwt>0</asrwt>
<pdfrwt beam="1">  1       21 0.17283495E-01 0.27978148E+02</pdfrwt>
<pdfrwt beam="2">  1       21 0.11779296E-02 0.27978148E+02</pdfrwt>
<totfact> 0.65063767E+07</totfact>
</mgrwt>
</event>
<event>
 4    1  0.4447136E+006  0.2187794E+02  0.7546771E-02  0.1710372E+00
         21   -1    0    0  503  501  0.00000000000E+00  0.00000000000E+00  0.35258990011E+02  0.35258990011E+02  0.00000000000E+00 0.  1.
         21   -1    0    0  504  502 -0.00000000000E+00 -0.00000000000E+00 -0.14155230917E+02  0.14155230917E+02  0.00000000000E+00 0.  1.
         21    1    1    2  503  502  0.12121356525E+02 -0.18213099053E+02  0.55500710710E+01  0.22570944819E+02  0.00000000000E+00 0.  1.
         21    1    1    2  504  501 -0.12121356525E+02  0.18213099053E+02  0.15553688022E+02  0.26843276109E+02  0.00000000000E+00 0.  1.
<mgrwt>
<rscale>  2 0.21877940E+02</rscale>
<asrwt>0</asrwt>
<pdfrwt beam="1">  1       21 0.54244600E-02 0.21877940E+02</pdfrwt>
<pdfrwt beam="2">  1       21 0.21777278E-02 0.21877940E+02</pdfrwt>
<totfact> 0.16271908E+08</totfact>
</mgrwt>
</event>
<event>
 4    1  0.4447136E+006  0.2365270E+02  0.7546771E-02  0.1681143E+00
         21   -1    0    0  503  501  0.00000000000E+00  0.00000000000E+00  0.74208144360E+00  0.74208144360E+00  0.00000000000E+00 0. -1.
         21   -1    0    0  504  502 -0.00000000000E+00 -0.00000000000E+00 -0.11765055544E+04  0.11765055544E+04  0.00000000000E+00 0. -1.
         21    1    1    2  503  502 -0.23043423271E+01  0.23540183183E+02 -0.23509529094E+03  0.23628213229E+03  0.00000000000E+00 0. -1.
         21    1    1    2  504  501  0.23043423271E+01 -0.23540183183E+02 -0.94066818203E+03  0.94096550356E+03  0.00000000000E+00 0. -1.
<mgrwt>
<rscale>  2 0.23652700E+02</rscale>
<asrwt>0</asrwt>
<pdfrwt beam="1">  1       21 0.11416611E-03 0.23652700E+02</pdfrwt>
<pdfrwt beam="2">  1       21 0.18100128E+00 0.23652700E+02</pdfrwt>
<totfact> 0.16639668E+07</totfact>
</mgrwt>
</event>
<event>
 4    1  0.4447136E+006  0.3169670E+02  0.7546771E-02  0.1580057E+00
         21   -1    0    0  504  501  0.00000000000E+00  0.00000000000E+00  0.49696875218E+03  0.49696875218E+03  0.00000000000E+00 0. -1.
         21   -1    0    0  501  502 -0.00000000000E+00 -0.00000000000E+00 -0.48586644255E+01  0.48586644255E+01  0.00000000000E+00 0.  1.
         21    1    1    2  503  502  0.11894208473E+02 -0.29380416617E+02  0.54321039560E+02  0.62892419374E+02  0.00000000000E+00 0.  1.
         21    1    1    2  504  503 -0.11894208473E+02  0.29380416617E+02  0.43778904819E+03  0.43893499723E+03  0.00000000000E+00 0. -1.
<mgrwt>
<rscale>  2 0.31696704E+02</rscale>
<asrwt>0</asrwt>
<pdfrwt beam="1">  1       21 0.76456691E-01 0.31696704E+02</pdfrwt>
<pdfrwt beam="2">  1       21 0.74748723E-03 0.31696704E+02</pdfrwt>
<totfact> 0.79084218E+06</totfact>
</mgrwt>
</event>
<event>
 4    1  0.4447136E+006  0.2635978E+02  0.7546771E-02  0.1642206E+00
         21   -1    0    0  502  501  0.00000000000E+00  0.00000000000E+00  0.57813432402E+03  0.57813432402E+03  0.00000000000E+00 0.  1.
         21   -1    0    0  503  502 -0.00000000000E+00 -0.00000000000E+00 -0.13243981796E+01  0.13243981796E+01  0.00000000000E+00 0.  1.
         21    1    1    2  503  504 -0.44454353055E+01  0.25982223913E+02  0.20027677534E+03  0.20200402124E+03  0.00000000000E+00 0.  1.
         21    1    1    2  504  501  0.44454353055E+01 -0.25982223913E+02  0.37653315050E+03  0.37745470097E+03  0.00000000000E+00 0.  1.
<mgrwt>
<rscale>  2 0.26359777E+02</rscale>
<asrwt>0</asrwt>
<pdfrwt beam="1">  1       21 0.88943541E-01 0.26359777E+02</pdfrwt>
<pdfrwt beam="2">  1       21 0.20375403E-03 0.26359777E+02</pdfrwt>
<totfact> 0.37942906E+07</totfact>
</mgrwt>
</event>
<event>
 4    1  0.4447136E+006  0.2317032E+02  0.7546771E-02  0.1688764E+00
         21   -1    0    0  504  501  0.00000000000E+00  0.00000000000E+00  0.22977544701E+02  0.22977544701E+02  0.00000000000E+00 0.  1.
         21   -1    0    0  503  502 -0.00000000000E+00 -0.00000000000E+00 -0.34344052407E+03  0.34344052407E+03  0.00000000000E+00 0.  1.
         21    1    1    2  503  501  0.19171714593E+02  0.13011877825E+02 -0.33709879043E+03  0.33789415223E+03  0.00000000000E+00 0.  1.
         21    1    1    2  504  502 -0.19171714593E+02 -0.13011877825E+02  0.16635811061E+02  0.28523916537E+02  0.00000000000E+00 0.  1.
<mgrwt>
<rscale>  2 0.23170317E+02</rscale>
<asrwt>0</asrwt>
<pdfrwt beam="1">  1       21 0.35350069E-02 0.23170317E+02</pdfrwt>
<pdfrwt beam="2">  1       21 0.52837004E-01 0.23170317E+02</pdfrwt>
<totfact> 0.14883431E+06</totfact>
</mgrwt>
</event>
<event>
 4    1  0.4447136E+006  0.2260677E+02  0.7546771E-02  0.1697965E+00
         21   -1    0    0  504  501  0.00000000000E+00  0.00000000000E+00  0.66267862828E+02  0.66267862828E+02  0.00000000000E+00 0.  1.
         21   -1    0    0  503  502 -0.00000000000E+00 -0.00000000000E+00 -0.22839185445E+02  0.22839185445E+02  0.00000000000E+00 0.  1.
         21    1    1    2  503  501 -0.15535207534E+02  0.16423257103E+02 -0.14544928823E+02  0.26881610842E+02  0.00000000000E+00 0.  1.
         21    1    1    2  504  502  0.15535207534E+02 -0.16423257103E+02  0.57973606206E+02  0.62225437431E+02  0.00000000000E+00 0.  1.
<mgrwt>
<rscale>  2 0.22606770E+02</rscale>
<asrwt>0</asrwt>
<pdfrwt beam="1">  1       21 0.10195056E-01 0.22606770E+02</pdfrwt>
<pdfrwt beam="2">  1       21 0.35137209E-02 0.22606770E+02</pdfrwt>
<totfact> 0.28074120E+07</totfact>
</mgrwt>
</event>
<event>
 4    1  0.4447136E+006  0.2132367E+02  0.7546771E-02  0.1720218E+00
         21   -1    0    0  504  501  0.00000000000E+00  0.00000000000E+00  0.54214528133E+03  0.54214528133E+03  0.00000000000E+00 0.  1.
         21   -1    0    0  501  502 -0.00000000000E+00 -0.00000000000E+00 -0.28389518354E+01  0.28389518354E+01  0.00000000000E+00 0.  1.
         21    1    1    2  503  502  0.61590005557E+01 -0.20414838907E+02  0.40926429627E+02  0.46148364840E+02  0.00000000000E+00 0.  1.
         21    1    1    2  504  503 -0.61590005557E+01  0.20414838907E+02  0.49837989987E+03  0.49883586833E+03  0.00000000000E+00 0.  1.
<mgrwt>
<rscale>  2 0.21323671E+02</rscale>
<asrwt>0</asrwt>
<pdfrwt beam="1">  1       21 0.83406884E-01 0.21323671E+02</pdfrwt>
<pdfrwt beam="2">  1       21 0.43676225E-03 0.21323671E+02</pdfrwt>
<totfact> 0.13736101E+07</totfact>
</mgrwt>
</event>
<event>
 4    1  0.4447136E+006  0.2988585E+02  0.7546771E-02  0.1599354E+00
         21   -1    0    0  503  501  0.00000000000E+00  0.00000000000E+00  0.10572937554E+02  0.10572937554E+02  0.00000000000E+00 0.  1.
         21   -1    0    0  504  502 -0.00000000000E+00 -0.00000000000E+00 -0.47106776610E+03  0.47106776610E+03  0.00000000000E+00 0.  1.
         21    1    1    2  503  502 -0.23956393735E+02 -0.17867722236E+02 -0.12086202974E+02  0.32237254862E+02  0.00000000000E+00 0.  1.
         21    1    1    2  504  501  0.23956393735E+02  0.17867722236E+02 -0.44840862557E+03  0.44940344879E+03  0.00000000000E+00 0.  1.
<mgrwt>
<rscale>  2 0.29885854E+02</rscale>
<asrwt>0</asrwt>
<pdfrwt beam="1">  1       21 0.16266053E-02 0.29885854E+02</pdfrwt>
<pdfrwt beam="2">  1       21 0.72471984E-01 0.29885854E+02</pdfrwt>
<totfact> 0.26926561E+06</totfact>
</mgrwt>
</event>
<event>
 4    1  0.4447136E+006  0.2629439E+02  0.7546771E-02  0.1643077E+00
         21   -1    0    0  503  501  0.00000000000E+00  0.00000000000E+00  0.18825062445E+02  0.18825062445E+02  0.00000000000E+00 0.  1.
         21   -1    0    0  504  502 -0.00000000000E+00 -0.00000000000E+00 -0.56203898735E+02  0.56203898735E+02  0.00000000000E+00 0.  1.
         21    1    1    2  503  502 -0.14717196398E+02 -0.21789884921E+02 -0.40773103016E+02  0.48516398096E+02  0.00000000000E+00 0.  1.
         21    1    1    2  504  501  0.14717196398E+02  0.21789884921E+02  0.33942667258E+01  0.26512563084E+02  0.00000000000E+00 0.  1.
<mgrwt>
<rscale>  2 0.26294390E+02</rscale>
<asrwt>0</asrwt>
<pdfrwt beam="1">  1       21 0.28961635E-02 0.26294390E+02</pdfrwt>
<pdfrwt beam="2">  1       21 0.86467535E-02 0.26294390E+02</pdfrwt>
<totfact> 0.51690290E+07</totfact>
</mgrwt>
</event>
<event>
 4    1  0.4447136E+006  0.2202796E+02  0.7546771E-02  0.1707769E+00
         21   -1    0    0  503  501  0.00000000000E+00  0.00000000000E+00  0.14333239799E+02  0.14333239799E+02  0.00000000000E+00 0.  1.
         21   -1    0    0  501  502 -0.00000000000E+00 -0.00000000000E+00 -0.69414649328E+02  0.69414649328E+02  0.00000000000E+00 0.  1.
         21    1    1    2  503  504 -0.19396630676E+02  0.10440383281E+02  0.24306218448E+01  0.22161651725E+02  0.00000000000E+00 0.  1.
         21    1    1    2  504  502  0.19396630676E+02 -0.10440383281E+02 -0.57512031374E+02  0.61586237402E+02  0.00000000000E+00 0.  1.
<mgrwt>
<rscale>  2 0.22027957E+02</rscale>
<asrwt>0</asrwt>
<pdfrwt beam="1">  1       21 0.22051138E-02 0.22027957E+02</pdfrwt>
<pdfrwt beam="2">  1       21 0.10679177E-01 0.22027957E+02</pdfrwt>
<totfact> 0.53206283E+07</totfact>
</mgrwt>
</event>
<event>
 4    1  0.4447136E+006  0.2506189E+02  0.7546771E-02  0.1660115E+00
         21   -1    0    0  503  501  0.00000000000E+00  0.00000000000E+00  0.11647635467E+02  0.11647635467E+02  0.00000000000E+00 0. -1.
         21   -1    0    0  501  502 -0.00000000000E+00 -0.00000000000E+00 -0.34917187928E+03  0.34917187928E+03  0.00000000000E+00 0. -1.
         21    1    1    2  503  504  0.16004892939E+01 -0.25010729403E+02 -0.28672018287E+01  0.25225364171E+02  0.00000000000E+00 0. -1.
         21    1    1    2  504  502 -0.16004892939E+01  0.25010729403E+02 -0.33465704198E+03  0.33559415057E+03  0.00000000000E+00 0. -1.
<mgrwt>
<rscale>  2 0.25061886E+02</rscale>
<asrwt>0</asrwt>
<pdfrwt beam="1">  1       21 0.17919441E-02 0.25061886E+02</pdfrwt>
<pdfrwt beam="2">  1       21 0.53718747E-01 0.25061886E+02</pdfrwt>
<totfact> 0.41699462E+06</totfact>
</mgrwt>
</event>
<event>
 4    1  0.4447136E+006  0.2270683E+02  0.7546771E-02  0.1696307E+00
         21   -1    0    0  504  501  0.00000000000E+00  0.00000000000E+00  0.16988526879E+02  0.16988526879E+02  0.00000000000E+00 0. -1.
         21   -1    0    0  503  502 -0.00000000000E+00 -0.00000000000E+00 -0.75230860230E+02  0.75230860230E+02  0.00000000000E+00 0. -1.
         21    1    1    2  503  501  0.14923531411E+02  0.17113985146E+02  0.64932011052E+01  0.23616984099E+02  0.00000000000E+00 0. -1.
         21    1    1    2  504  502 -0.14923531411E+02 -0.17113985146E+02 -0.64735534457E+02  0.68602403010E+02  0.00000000000E+00 0. -1.
<mgrwt>
<rscale>  2 0.22706833E+02</rscale>
<asrwt>0</asrwt>
<pdfrwt beam="1">  1       21 0.26136196E-02 0.22706833E+02</pdfrwt>
<pdfrwt beam="2">  1       21 0.11573978E-01 0.22706833E+02</pdfrwt>
<totfact> 0.36084442E+07</totfact>
</mgrwt>
</event>
<event>
 4    1  0.4447136E+006  0.2244360E+02  0.7546771E-02  0.1700691E+00
         21   -1    0    0  504  501  0.00000000000E+00  0.00000000000E+00  0.72838864565E+02  0.72838864565E+02  0.00000000000E+00 0.  1.
         21   -1    0    0  503  502 -0.00000000000E+00 -0.00000000000E+00 -0.77125184102E+02  0.77125184102E+02  0.00000000000E+00 0. -1.
         21    1    1    2  503  501 -0.18388945364E+02 -0.12867083644E+02  0.69398275597E+02  0.72937204560E+02  0.00000000000E+00 0.  1.
         21    1    1    2  504  502  0.18388945364E+02  0.12867083644E+02 -0.73684595134E+02  0.77026844107E+02  0.00000000000E+00 0. -1.
<mgrwt>
<rscale>  2 0.22443599E+02</rscale>
<asrwt>0</asrwt>
<pdfrwt beam="1">  1       21 0.11205979E-01 0.22443599E+02</pdfrwt>
<pdfrwt beam="2">  1       21 0.11865413E-01 0.22443599E+02</pdfrwt>
<totfact> 0.33628623E+06</totfact>
</mgrwt>
</event>
<event>
 4    1  0.4447136E+006  0.2692448E+02  0.7546771E-02  0.1634805E+00
         21   -1    0    0  504  501  0.00000000000E+00  0.00000000000E+00  0.42548466889E+01  0.42548466889E+01  0.00000000000E+00 0. -1.
         21   -1    0    0  503  502 -0.00000000000E+00 -0.00000000000E+00 -0.23148878939E+03  0.23148878939E+03  0.00000000000E+00 0. -1.
         21    1    1    2  503  501  0.10605108565E+02  0.24747915595E+02 -0.53053912582E+02  0.59494918221E+02  0.00000000000E+00 0. -1.
         21    1    1    2  504  502 -0.10605108565E+02 -0.24747915595E+02 -0.17418003012E+03  0.17624871785E+03  0.00000000000E+00 0. -1.
<mgrwt>
<rscale>  2 0.26924481E+02</rscale>
<asrwt>0</asrwt>
<pdfrwt beam="1">  1       21 0.65459166E-03 0.26924481E+02</pdfrwt>
<pdfrwt beam="2">  1       21 0.35613667E-01 0.26924481E+02</pdfrwt>
<totfact> 0.42594474E+07</totfact>
</mgrwt>
</event>
<event>
 4    1  0.4447136E+006  0.2710938E+02  0.7546771E-02  0.1632431E+00
         21   -1    0    0  504  501  0.00000000000E+00  0.00000000000E+00  0.28335246682E+02  0.28335246682E+02  0.00000000000E+00 0. -1.
         21   -1    0    0  501  502 -0.00000000000E+00 -0.00000000000E+00 -0.36426837741E+02  0.36426837741E+02  0.00000000000E+00 0.  1.
         21    1    1    2  503  502  0.76323401131E+01  0.26012801846E+02 -0.21422756928E+02  0.34552177788E+02  0.00000000000E+00 0.  1.
         21    1    1    2  504  503 -0.76323401131E+01 -0.26012801846E+02  0.13331165869E+02  0.30209906636E+02  0.00000000000E+00 0. -1.
<mgrwt>
<rscale>  2 0.27109380E+02</rscale>
<asrwt>0</asrwt>
<pdfrwt beam="1">  1       21 0.43592687E-02 0.27109380E+02</pdfrwt>
<pdfrwt beam="2">  1       21 0.56041289E-02 0.27109380E+02</pdfrwt>
<totfact> 0.55375176E+07</totfact>
</mgrwt>
</event>
<event>
 4    1  0.4447136E+006  0.3463538E+02  0.7546771E-02  0.1551862E+00
         21   -1    0    0  502  501  0.00000000000E+00  0.00000000000E+00  0.87053709420E+01  0.87053709420E+01  0.00000000000E+00 0. -1.
         21   -1    0    0  503  502 -0.00000000000E+00 -0.00000000000E+00 -0.10273666835E+04  0.10273666835E+04  0.00000000000E+00 0.  1.
         21    1    1    2  503  504  0.16065511869E+00 -0.34635010700E+02 -0.99137413168E+03  0.99197897091E+03  0.00000000000E+00 0.  1.
         21    1    1    2  504  501 -0.16065511869E+00  0.34635010700E+02 -0.27287180930E+02  0.44093083577E+02  0.00000000000E+00 0. -1.
<mgrwt>
<rscale>  2 0.34635383E+02</rscale>
<asrwt>0</asrwt>
<pdfrwt beam="1">  1       21 0.13392888E-02 0.34635383E+02</pdfrwt>
<pdfrwt beam="2">  1       21 0.15805630E+00 0.34635383E+02</pdfrwt>
<totfact> 0.63047615E+05</totfact>
</mgrwt>
</event>
<event>
 4    1  0.4447136E+006  0.2559574E+02  0.7546771E-02  0.1652590E+00
         21   -1    0    0  504  501  0.00000000000E+00  0.00000000000E+00  0.18749844218E+02  0.18749844218E+02  0.00000000000E+00 0. -1.
         21   -1    0    0  503  502 -0.00000000000E+00 -0.00000000000E+00 -0.68622347158E+02  0.68622347158E+02  0.00000000000E+00 0. -1.
         21    1    1    2  503  501 -0.21708190315E+02  0.13560839663E+02 -0.55542065855E+02  0.61156054308E+02  0.00000000000E+00 0. -1.
         21    1    1    2  504  502  0.21708190315E+02 -0.13560839663E+02  0.56695629149E+01  0.26216137067E+02  0.00000000000E+00 0. -1.
<mgrwt>
<rscale>  2 0.25595740E+02</rscale>
<asrwt>0</asrwt>
<pdfrwt beam="1">  1       21 0.28845914E-02 0.25595740E+02</pdfrwt>
<pdfrwt beam="2">  1       21 0.10557284E-01 0.25595740E+02</pdfrwt>
<totfact> 0.37128151E+07</totfact>
</mgrwt>
</event>
<event>
 4    1  0.4447136E+006  0.3583047E+02  0.7546771E-02  0.1541347E+00
         21   -1    0    0  502  501  0.00000000000E+00  0.00000000000E+00  0.23294123205E+03  0.23294123205E+03  0.00000000000E+00 0. -1.
         21   -1    0    0  504  502 -0.00000000000E+00 -0.00000000000E+00 -0.16829719907E+03  0.16829719907E+03  0.00000000000E+00 0. -1.
         21    1    1    2  503  501  0.15362416639E+02 -0.32370025493E+02  0.22962897340E+03  0.23240758986E+03  0.00000000000E+00 0. -1.
         21    1    1    2  504  503 -0.15362416639E+02  0.32370025493E+02 -0.16498494042E+03  0.16883084126E+03  0.00000000000E+00 0. -1.
<mgrwt>
<rscale>  2 0.35830467E+02</rscale>
<asrwt>0</asrwt>
<pdfrwt beam="1">  1       21 0.35837113E-01 0.35830467E+02</pdfrwt>
<pdfrwt beam="2">  1       21 0.25891877E-01 0.35830467E+02</pdfrwt>
<totfact> 0.11418356E+05</totfact>
</mgrwt>
</event>
<event>
 4    1  0.4447136E+006  0.3611391E+02  0.7546771E-02  0.1538926E+00
         21   -1    0    0  503  501  0.00000000000E+00  0.00000000000E+00  0.17153127350E+03  0.17153127350E+03  0.00000000000E+00 0. -1.
         21   -1    0    0  501  502 -0.00000000000E+00 -0.00000000000E+00 -0.13863923038E+03  0.13863923038E+03  0.00000000000E+00 0.  1.
         21    1    1    2  503  504 -0.28477862344E+02  0.22208684892E+02  0.16721865708E+03  0.17107394192E+03  0.00000000000E+00 0. -1.
         21    1    1    2  504  502  0.28477862344E+02 -0.22208684892E+02 -0.13432661396E+03  0.13909656195E+03  0.00000000000E+00 0.  1.
<mgrwt>
<rscale>  2 0.36113908E+02</rscale>
<asrwt>0</asrwt>
<pdfrwt beam="1">  1       21 0.26389427E-01 0.36113908E+02</pdfrwt>
<pdfrwt beam="2">  1       21 0.21329112E-01 0.36113908E+02</pdfrwt>
<totfact> 0.28602479E+05</totfact>
</mgrwt>
</event>
<event>
 4    1  0.4447136E+006  0.3022338E+02  0.7546771E-02  0.1595633E+00
         21   -1    0    0  504  501  0.00000000000E+00  0.00000000000E+00  0.21797359499E+03  0.21797359499E+03  0.00000000000E+00 0.  1.
         21   -1    0    0  503  502 -0.00000000000E+00 -0.00000000000E+00 -0.93337620324E+01  0.93337620324E+01  0.00000000000E+00 0.  1.
         21    1    1    2  503  501  0.12975293814E+02 -0.27296420340E+02  0.19953853155E+02  0.36216143758E+02  0.00000000000E+00 0.  1.
         21    1    1    2  504  502 -0.12975293814E+02  0.27296420340E+02  0.18868597981E+03  0.19109121327E+03  0.00000000000E+00 0.  1.
<mgrwt>
<rscale>  2 0.30223382E+02</rscale>
<asrwt>0</asrwt>
<pdfrwt beam="1">  1       21 0.33534395E-01 0.30223382E+02</pdfrwt>
<pdfrwt beam="2">  1       21 0.14359636E-02 0.30223382E+02</pdfrwt>
<totfact> 0.14857072E+07</totfact>
</mgrwt>
</event>
<event>
 4    1  0.4447136E+006  0.2183609E+02  0.7546771E-02  0.1711102E+00
         21   -1    0    0  502  501  0.00000000000E+00  0.00000000000E+00  0.64277823980E+02  0.64277823980E+02  0.00000000000E+00 0. -1.
         21   -1    0    0  504  502 -0.00000000000E+00 -0.00000000000E+00 -0.84143292824E+01  0.84143292824E+01  0.00000000000E+00 0. -1.
         21    1    1    2  503  501  0.19445201609E+02 -0.99347298246E+01  0.40438456455E+02  0.45957409443E+02  0.00000000000E+00 0. -1.
         21    1    1    2  504  503 -0.19445201609E+02  0.99347298246E+01  0.15425038243E+02  0.26734743819E+02  0.00000000000E+00 0. -1.
<mgrwt>
<rscale>  2 0.21836088E+02</rscale>
<asrwt>0</asrwt>
<pdfrwt beam="1">  1       21 0.98888957E-02 0.21836088E+02</pdfrwt>
<pdfrwt beam="2">  1       21 0.12945122E-02 0.21836088E+02</pdfrwt>
<totfact> 0.13567310E+08</totfact>
</mgrwt>
</event>
<event>
 4    1  0.4447136E+006  0.2143163E+02  0.7546771E-02  0.1718271E+00
         21   -1    0    0  504  501  0.00000000000E+00  0.00000000000E+00  0.31315180981E+00  0.31315180981E+00  0.00000000000E+00 0.  1.
         21   -1    0    0  503  502 -0.00000000000E+00 -0.00000000000E+00 -0.17220198640E+04  0.17220198640E+04  0.00000000000E+00 0.  1.
         21    1    1    2  503  501  0.16945167087E+02 -0.13121586395E+02 -0.11924191556E+04  0.11926117379E+04  0.00000000000E+00 0.  1.
         21    1    1    2  504  502 -0.16945167087E+02  0.13121586395E+02 -0.52928755656E+03  0.52972127788E+03  0.00000000000E+00 0.  1.
<mgrwt>
<rscale>  2 0.21431629E+02</rscale>
<asrwt>0</asrwt>
<pdfrwt beam="1">  1       21 0.48178166E-04 0.21431629E+02</pdfrwt>
<pdfrwt beam="2">  1       21 0.26492083E+00 0.21431629E+02</pdfrwt>
<totfact> 0.20072029E+07</totfact>
</mgrwt>
</event>
<event>
 4    1  0.4447136E+006  0.2781527E+02  0.7546771E-02  0.1623574E+00
         21   -1    0    0  503  501  0.00000000000E+00  0.00000000000E+00  0.13045137396E+03  0.13045137396E+03  0.00000000000E+00 0. -1.
         21   -1    0    0  504  502 -0.00000000000E+00 -0.00000000000E+00 -0.72594023405E+01  0.72594023405E+01  0.00000000000E+00 0. -1.
         21    1    1    2  503  502  0.36439005724E+01 -0.27575557645E+02  0.91052035360E+02  0.95205895479E+02  0.00000000000E+00 0. -1.
         21    1    1    2  504  501 -0.36439005724E+01  0.27575557645E+02  0.32139936256E+02  0.42504880818E+02  0.00000000000E+00 0. -1.
<mgrwt>
<rscale>  2 0.27815273E+02</rscale>
<asrwt>0</asrwt>
<pdfrwt beam="1">  1       21 0.20069440E-01 0.27815273E+02</pdfrwt>
<pdfrwt beam="2">  1       21 0.11168312E-02 0.27815273E+02</pdfrwt>
<totfact> 0.54254204E+07</totfact>
</mgrwt>
</event>
<event>
 4    1  0.4447136E+006  0.2449973E+02  0.7546771E-02  0.1668293E+00
         21   -1    0    0  502  501  0.00000000000E+00  0.00000000000E+00  0.65370350666E+02  0.65370350666E+02  0.00000000000E+00 0.  1.
         21   -1    0    0  503  502 -0.00000000000E+00 -0.00000000000E+00 -0.86574452086E+02  0.86574452086E+02  0.00000000000E+00 0.  1.
         21    1    1    2  503  504  0.13950267441E+02  0.20140183127E+02 -0.82432735694E+02  0.85996469998E+02  0.00000000000E+00 0.  1.
         21    1    1    2  504  501 -0.13950267441E+02 -0.20140183127E+02  0.61228634274E+02  0.65948332754E+02  0.00000000000E+00 0.  1.
<mgrwt>
<rscale>  2 0.24499733E+02</rscale>
<asrwt>0</asrwt>
<pdfrwt beam="1">  1       21 0.10056977E-01 0.24499733E+02</pdfrwt>
<pdfrwt beam="2">  1       21 0.13319147E-01 0.24499733E+02</pdfrwt>
<totfact> 0.33580121E+06</totfact>
</mgrwt>
</event>
<event>
 4    1  0.4447136E+006  0.2770265E+02  0.7546771E-02  0.1624966E+00
         21   -1    0    0  502  501  0.00000000000E+00  0.00000000000E+00  0.71477200739E+02  0.71477200739E+02  0.00000000000E+00 0. -1.
         21   -1    0    0  503  502 -0.00000000000E+00 -0.00000000000E+00 -0.13805219664E+03  0.13805219664E+03  0.00000000000E+00 0.  1.
         21    1    1    2  503  504 -0.24865076759E+02 -0.12213305576E+02 -0.13389578624E+03  0.13673155615E+03  0.00000000000E+00 0.  1.
         21    1    1    2  504  501  0.24865076759E+02  0.12213305576E+02  0.67320790339E+02  0.72797841226E+02  0.00000000000E+00 0. -1.
<mgrwt>
<rscale>  2 0.27702651E+02</rscale>
<asrwt>0</asrwt>
<pdfrwt beam="1">  1       21 0.10996493E-01 0.27702651E+02</pdfrwt>
<pdfrwt beam="2">  1       21 0.21238799E-01 0.27702651E+02</pdfrwt>
<totfact> 0.13097112E+06</totfact>
</mgrwt>
</event>
<event>
 4    1  0.4447136E+006  0.2535620E+02  0.7546771E-02  0.1655938E+00
         21   -1    0    0  502  501  0.00000000000E+00  0.00000000000E+00  0.12305363332E+03  0.12305363332E+03  0.00000000000E+00 0. -1.
         21   -1    0    0  503  502 -0.00000000000E+00 -0.00000000000E+00 -0.53695619008E+01  0.53695619008E+01  0.00000000000E+00 0.  1.
         21    1    1    2  503  504  0.11503601171E+02  0.22596544703E+02  0.48300656513E+02  0.54551719423E+02  0.00000000000E+00 0.  1.
         21    1    1    2  504  501 -0.11503601171E+02 -0.22596544703E+02  0.69383414906E+02  0.73871475797E+02  0.00000000000E+00 0. -1.
<mgrwt>
<rscale>  2 0.25356196E+02</rscale>
<asrwt>0</asrwt>
<pdfrwt beam="1">  1       21 0.18931326E-01 0.25356196E+02</pdfrwt>
<pdfrwt beam="2">  1       21 0.82608653E-03 0.25356196E+02</pdfrwt>
<totfact> 0.92594960E+07</totfact>
</mgrwt>
</event>
<event>
 4    1  0.4447136E+006  0.2051139E+02  0.7546771E-02  0.1735346E+00
         21   -1    0    0  503  501  0.00000000000E+00  0.00000000000E+00  0.33430238253E+03  0.33430238253E+03  0.00000000000E+00 0.  1.
         21   -1    0    0  501  502 -0.00000000000E+00 -0.00000000000E+00 -0.20871509567E+01  0.20871509567E+01  0.00000000000E+00 0. -1.
         21    1    1    2  503  504  0.18259598613E+02  0.93436718226E+01  0.27208745360E+03  0.27285948683E+03  0.00000000000E+00 0.  1.
         21    1    1    2  504  502 -0.18259598613E+02 -0.93436718226E+01  0.60127777973E+02  0.63530046660E+02  0.00000000000E+00 0. -1.
<mgrwt>
<rscale>  2 0.20511391E+02</rscale>
<asrwt>0</asrwt>
<pdfrwt beam="1">  1       21 0.51431093E-01 0.20511391E+02</pdfrwt>
<pdfrwt beam="2">  1       21 0.32110041E-03 0.20511391E+02</pdfrwt>
<totfact> 0.56688895E+07</totfact>
</mgrwt>
</event>
<event>
 4    1  0.4447136E+006  0.2373205E+02  0.7546771E-02  0.1679911E+00
         21   -1    0    0  504  501  0.00000000000E+00  0.00000000000E+00  0.36837702121E+03  0.36837702121E+03  0.00000000000E+00 0. -1.
         21   -1    0    0  503  502 -0.00000000000E+00 -0.00000000000E+00 -0.10314190240E+02  0.10314190240E+02  0.00000000000E+00 0. -1.
         21    1    1    2  503  501  0.23597629047E+02 -0.25223663679E+01  0.42819728451E+01  0.24115259073E+02  0.00000000000E+00 0. -1.
         21    1    1    2  504  502 -0.23597629047E+02  0.25223663679E+01  0.35378085813E+03  0.35457595238E+03  0.00000000000E+00 0. -1.
<mgrwt>
<rscale>  2 0.23732055E+02</rscale>
<asrwt>0</asrwt>
<pdfrwt beam="1">  1       21 0.56673378E-01 0.23732055E+02</pdfrwt>
<pdfrwt beam="2">  1       21 0.15867988E-02 0.23732055E+02</pdfrwt>
<totfact> 0.44826942E+06</totfact>
</mgrwt>
</event>
<event>
 4    1  0.4447136E+006  0.3942367E+02  0.7546771E-02  0.1512496E+00
         21   -1    0    0  503  501  0.00000000000E+00  0.00000000000E+00  0.45046195156E+01  0.45046195156E+01  0.00000000000E+00 0.  1.
         21   -1    0    0  504  502 -0.00000000000E+00 -0.00000000000E+00 -0.76135185583E+03  0.76135185583E+03  0.00000000000E+00 0.  1.
         21    1    1    2  503  502  0.39423226787E+02 -0.18722480289E+00 -0.66158866320E+03  0.66276223877E+03  0.00000000000E+00 0.  1.
         21    1    1    2  504  501 -0.39423226787E+02  0.18722480289E+00 -0.95258573111E+02  0.10309423657E+03  0.00000000000E+00 0.  1.
<mgrwt>
<rscale>  2 0.39423671E+02</rscale>
<asrwt>0</asrwt>
<pdfrwt beam="1">  1       21 0.69301845E-03 0.39423671E+02</pdfrwt>
<pdfrwt beam="2">  1       21 0.11713104E+00 0.39423671E+02</pdfrwt>
<totfact> 0.35382797E+06</totfact>
</mgrwt>
</event>
<event>
 4    1  0.4447136E+006  0.3374891E+02  0.7546771E-02  0.1560000E+00
         21   -1    0    0  504  501  0.00000000000E+00  0.00000000000E+00  0.34017050713E+02  0.34017050713E+02  0.00000000000E+00 0. -1.
         21   -1    0    0  503  502 -0.00000000000E+00 -0.00000000000E+00 -0.33949778984E+02  0.33949778984E+02  0.00000000000E+00 0. -1.
         21    1    1    2  503  501 -0.16872609775E+02 -0.29228480708E+02 -0.39516274674E+01  0.33979470342E+02  0.00000000000E+00 0. -1.
         21    1    1    2  504  502  0.16872609775E+02  0.29228480708E+02  0.40188991962E+01  0.33987359354E+02  0.00000000000E+00 0. -1.
<mgrwt>
<rscale>  2 0.33748912E+02</rscale>
<asrwt>0</asrwt>
<pdfrwt beam="1">  1       21 0.52333924E-02 0.33748912E+02</pdfrwt>
<pdfrwt beam="2">  1       21 0.52230430E-02 0.33748912E+02</pdfrwt>
<totfact> 0.48595883E+07</totfact>
</mgrwt>
</event>
<event>
 4    1  0.4447136E+006  0.3339285E+02  0.7546771E-02  0.1563354E+00
         21   -1    0    0  503  501  0.00000000000E+00  0.00000000000E+00  0.70040051070E+03  0.70040051070E+03  0.00000000000E+00 0.  1.
         21   -1    0    0  504  502 -0.00000000000E+00 -0.00000000000E+00 -0.15935521435E+01  0.15935521435E+01  0.00000000000E+00 0.  1.
         21    1    1    2  503  502  0.27053418359E+02  0.19575358353E+02  0.36013134561E+03  0.36167619245E+03  0.00000000000E+00 0.  1.
         21    1    1    2  504  501 -0.27053418359E+02 -0.19575358353E+02  0.33867561295E+03  0.34031787039E+03  0.00000000000E+00 0.  1.
<mgrwt>
<rscale>  2 0.33392845E+02</rscale>
<asrwt>0</asrwt>
<pdfrwt beam="1">  1       21 0.10775368E+00 0.33392845E+02</pdfrwt>
<pdfrwt beam="2">  1       21 0.24516243E-03 0.33392845E+02</pdfrwt>
<totfact> 0.19753434E+07</totfact>
</mgrwt>
</event>
<event>
 4    1  0.4447136E+006  0.4630782E+02  0.7546771E-02  0.1466339E+00
         21   -1    0    0  504  501  0.00000000000E+00  0.00000000000E+00  0.22672567648E+02  0.22672567648E+02  0.00000000000E+00 0. -1.
         21   -1    0    0  503  502 -0.00000000000E+00 -0.00000000000E+00 -0.99649299316E+02  0.99649299316E+02  0.00000000000E+00 0.  1.
         21    1    1    2  503  501  0.37398367023E+02  0.27308907935E+02 -0.52280451811E+02  0.69840245920E+02  0.00000000000E+00 0.  1.
         21    1    1    2  504  502 -0.37398367023E+02 -0.27308907935E+02 -0.24696279857E+02  0.52481621044E+02  0.00000000000E+00 0. -1.
<mgrwt>
<rscale>  2 0.46307821E+02</rscale>
<asrwt>0</asrwt>
<pdfrwt beam="1">  1       21 0.34880872E-02 0.46307821E+02</pdfrwt>
<pdfrwt beam="2">  1       21 0.15330662E-01 0.46307821E+02</pdfrwt>
<totfact> 0.16182923E+07</totfact>
</mgrwt>
</event>
<event>
 4    1  0.4447136E+006  0.2586695E+02  0.7546771E-02  0.1648853E+00
         21   -1    0    0  504  501  0.00000000000E+00  0.00000000000E+00  0.14053262211E+02  0.14053262211E+02  0.00000000000E+00 0.  1.
         21   -1    0    0  501  502 -0.00000000000E+00 -0.00000000000E+00 -0.12596847954E+03  0.12596847954E+03  0.00000000000E+00 0. -1.
         21    1    1    2  503  502 -0.14815973126E+02 -0.21203442767E+02 -0.11117462751E+03  0.11414419322E+03  0.00000000000E+00 0. -1.
         21    1    1    2  504  503  0.14815973126E+02  0.21203442767E+02 -0.74058982616E+00  0.25877548534E+02  0.00000000000E+00 0.  1.
<mgrwt>
<rscale>  2 0.25866949E+02</rscale>
<asrwt>0</asrwt>
<pdfrwt beam="1">  1       21 0.21620404E-02 0.25866949E+02</pdfrwt>
<pdfrwt beam="2">  1       21 0.19379765E-01 0.25866949E+02</pdfrwt>
<totfact> 0.20666459E+07</totfact>
</mgrwt>
</event>
<event>
 4    1  0.4447136E+006  0.5286678E+02  0.7546771E-02  0.1430465E+00
         21   -1    0    0  503  501  0.00000000000E+00  0.00000000000E+00  0.37539664725E+01  0.37539664725E+01  0.00000000000E+00 0.  1.
         21   -1    0    0  504  502 -0.00000000000E+00 -0.00000000000E+00 -0.76306608862E+03  0.76306608862E+03  0.00000000000E+00 0.  1.
         21    1    1    2  503  502  0.45707400896E+02 -0.26565568677E+02 -0.31987949598E+03  0.32421873463E+03  0.00000000000E+00 0.  1.
         21    1    1    2  504  501 -0.45707400896E+02  0.26565568677E+02 -0.43943262616E+03  0.44260132046E+03  0.00000000000E+00 0.  1.
<mgrwt>
<rscale>  2 0.52866775E+02</rscale>
<asrwt>0</asrwt>
<pdfrwt beam="1">  1       21 0.57753329E-03 0.52866775E+02</pdfrwt>
<pdfrwt beam="2">  1       21 0.11739479E+00 0.52866775E+02</pdfrwt>
<totfact> 0.47394531E+06</totfact>
</mgrwt>
</event>
<event>
 4    1  0.4447136E+006  0.2008648E+02  0.7546771E-02  0.1743614E+00
         21   -1    0    0  504  501  0.00000000000E+00  0.00000000000E+00  0.13320263058E+04  0.13320263058E+04  0.00000000000E+00 0.  1.
         21   -1    0    0  503  502 -0.00000000000E+00 -0.00000000000E+00 -0.51995487237E+00  0.51995487237E+00  0.00000000000E+00 0.  1.
         21    1    1    2  503  501  0.19984192835E+02  0.20245319294E+01  0.23526888904E+03  0.23612479083E+03  0.00000000000E+00 0.  1.
         21    1    1    2  504  502 -0.19984192835E+02 -0.20245319294E+01  0.10962374619E+04  0.10964214698E+04  0.00000000000E+00 0.  1.
<mgrwt>
<rscale>  2 0.20086480E+02</rscale>
<asrwt>0</asrwt>
<pdfrwt beam="1">  1       21 0.20492439E+00 0.20086480E+02</pdfrwt>
<pdfrwt beam="2">  1       21 0.79994124E-04 0.20086480E+02</pdfrwt>
<totfact> 0.19651859E+07</totfact>
</mgrwt>
</event>
<event>
 4    1  0.4447136E+006  0.2536324E+02  0.7546771E-02  0.1655839E+00
         21   -1    0    0  503  501  0.00000000000E+00  0.00000000000E+00  0.31395473703E+03  0.31395473703E+03  0.00000000000E+00 0.  1.
         21   -1    0    0  504  502 -0.00000000000E+00 -0.00000000000E+00 -0.21285805956E+01  0.21285805956E+01  0.00000000000E+00 0.  1.
         21    1    1    2  503  502  0.22836591345E+02  0.11035584588E+02  0.18647096971E+03  0.18818798202E+03  0.00000000000E+00 0.  1.
         21    1    1    2  504  501 -0.22836591345E+02 -0.11035584588E+02  0.12535518673E+03  0.12789533561E+03  0.00000000000E+00 0.  1.
<mgrwt>
<rscale>  2 0.25363242E+02</rscale>
<asrwt>0</asrwt>
<pdfrwt beam="1">  1       21 0.48300692E-01 0.25363242E+02</pdfrwt>
<pdfrwt beam="2">  1       21 0.32747419E-03 0.25363242E+02</pdfrwt>
<totfact> 0.65511369E+07</totfact>
</mgrwt>
</event>
<event>
 4    1  0.4447136E+006  0.2599756E+02  0.7546771E-02  0.1647074E+00
         21   -1    0    0  502  501  0.00000000000E+00  0.00000000000E+00  0.13956761278E+04  0.13956761278E+04  0.00000000000E+00 0.  1.
         21   -1    0    0  504  502 -0.00000000000E+00 -0.00000000000E+00 -0.28128625592E+02  0.28128625592E+02  0.00000000000E+00 0.  1.
         21    1    1    2  503  501  0.19202550785E+02  0.17525266617E+02  0.13895214727E+04  0.13897646549E+04  0.00000000000E+00 0.  1.
         21    1    1    2  504  503 -0.19202550785E+02 -0.17525266617E+02 -0.21973970485E+02  0.34040098495E+02  0.00000000000E+00 0.  1.
<mgrwt>
<rscale>  2 0.25997556E+02</rscale>
<asrwt>0</asrwt>
<pdfrwt beam="1">  1       21 0.21471935E+00 0.25997556E+02</pdfrwt>
<pdfrwt beam="2">  1       21 0.43274819E-02 0.25997556E+02</pdfrwt>
<totfact> 0.46551766E+04</totfact>
</mgrwt>
</event>
<event>
 4    1  0.4447136E+006  0.2018495E+02  0.7546771E-02  0.1741675E+00
         21   -1    0    0  504  501  0.00000000000E+00  0.00000000000E+00  0.34102701202E+02  0.34102701202E+02  0.00000000000E+00 0.  1.
         21   -1    0    0  503  502 -0.00000000000E+00 -0.00000000000E+00 -0.27642315376E+02  0.27642315376E+02  0.00000000000E+00 0.  1.
         21    1    1    2  503  501 -0.15035247931E+02  0.13467491995E+02  0.26493254499E+02  0.33306524209E+02  0.00000000000E+00 0.  1.
         21    1    1    2  504  502  0.15035247931E+02 -0.13467491995E+02 -0.20032868673E+02  0.28438492369E+02  0.00000000000E+00 0.  1.
<mgrwt>
<rscale>  2 0.20184945E+02</rscale>
<asrwt>0</asrwt>
<pdfrwt beam="1">  1       21 0.52465694E-02 0.20184945E+02</pdfrwt>
<pdfrwt beam="2">  1       21 0.42526639E-02 0.20184945E+02</pdfrwt>
<totfact> 0.59268148E+07</totfact>
</mgrwt>
</event>
<event>
 4    1  0.4447136E+006  0.2605965E+02  0.7546771E-02  0.1646232E+00
         21   -1    0    0  504  501  0.00000000000E+00  0.00000000000E+00  0.43081805992E+02  0.43081805992E+02  0.00000000000E+00 0.  1.
         21   -1    0    0  503  502 -0.00000000000E+00 -0.00000000000E+00 -0.67931768694E+03  0.67931768694E+03  0.00000000000E+00 0.  1.
         21    1    1    2  503  501  0.72526081959E+01  0.25030078252E+02 -0.67510237972E+03  0.67560515706E+03  0.00000000000E+00 0.  1.
         21    1    1    2  504  502 -0.72526081959E+01 -0.25030078252E+02  0.38866498772E+02  0.46794335872E+02  0.00000000000E+00 0.  1.
<mgrwt>
<rscale>  2 0.26059646E+02</rscale>
<asrwt>0</asrwt>
<pdfrwt beam="1">  1       21 0.66279708E-02 0.26059646E+02</pdfrwt>
<pdfrwt beam="2">  1       21 0.10451040E+00 0.26059646E+02</pdfrwt>
<totfact> 0.13294445E+05</totfact>
</mgrwt>
</event>
<event>
 4    1  0.4447136E+006  0.2928959E+02  0.7546771E-02  0.1606077E+00
         21   -1    0    0  503  501  0.00000000000E+00  0.00000000000E+00  0.10449361072E+02  0.10449361072E+02  0.00000000000E+00 0.  1.
         21   -1    0    0  504  502 -0.00000000000E+00 -0.00000000000E+00 -0.14452284530E+03  0.14452284530E+03  0.00000000000E+00 0. -1.
         21    1    1    2  503  502 -0.16280731272E+02 -0.24347850895E+02 -0.11796179716E+03  0.12154367793E+03  0.00000000000E+00 0. -1.
         21    1    1    2  504  501  0.16280731272E+02  0.24347850895E+02 -0.16111687064E+02  0.33428528445E+02  0.00000000000E+00 0.  1.
<mgrwt>
<rscale>  2 0.29289590E+02</rscale>
<asrwt>0</asrwt>
<pdfrwt beam="1">  1       21 0.16075939E-02 0.29289590E+02</pdfrwt>
<pdfrwt beam="2">  1       21 0.22234285E-01 0.29289590E+02</pdfrwt>
<totfact> 0.26247974E+07</totfact>
</mgrwt>
</event>
<event>
 4    1  0.4447136E+006  0.2567039E+02  0.7546771E-02  0.1651555E+00
         21   -1    0    0  503  501  0.00000000000E+00  0.00000000000E+00  0.92291084230E+01  0.92291084230E+01  0.00000000000E+00 0. -1.
         21   -1    0    0  504  502 -0.00000000000E+00 -0.00000000000E+00 -0.24192552975E+03  0.24192552975E+03  0.00000000000E+00 0.  1.
         21    1    1    2  503  502 -0.25218422321E+02 -0.47958615100E+01 -0.22177805722E+03  0.22325876416E+03  0.00000000000E+00 0.  1.
         21    1    1    2  504  501  0.25218422321E+02  0.47958615100E+01 -0.10918364110E+02  0.27895874011E+02  0.00000000000E+00 0. -1.
<mgrwt>
<rscale>  2 0.25670394E+02</rscale>
<asrwt>0</asrwt>
<pdfrwt beam="1">  1       21 0.14198628E-02 0.25670394E+02</pdfrwt>
<pdfrwt beam="2">  1       21 0.37219312E-01 0.25670394E+02</pdfrwt>
<totfact> 0.12091909E+07</totfact>
</mgrwt>
</event>
<event>
 4    1  0.4447136E+006  0.2151055E+02  0.7546771E-02  0.1716857E+00
         21   -1    0    0  503  501  0.00000000000E+00  0.00000000000E+00  0.21171962101E+02  0.21171962101E+02  0.00000000000E+00 0. -1.
         21   -1    0    0  504  502 -0.00000000000E+00 -0.00000000000E+00 -0.25865528305E+02  0.25865528305E+02  0.00000000000E+00 0. -1.
         21    1    1    2  503  502  0.18797949781E+02 -0.10456614988E+02  0.69146587612E+01  0.22594605966E+02  0.00000000000E+00 0. -1.
         21    1    1    2  504  501 -0.18797949781E+02  0.10456614988E+02 -0.11608224965E+02  0.24442884441E+02  0.00000000000E+00 0. -1.
<mgrwt>
<rscale>  2 0.21510549E+02</rscale>
<asrwt>0</asrwt>
<pdfrwt beam="1">  1       21 0.32572249E-02 0.21510549E+02</pdfrwt>
<pdfrwt beam="2">  1       21 0.39793120E-02 0.21510549E+02</pdfrwt>
<totfact> 0.14180600E+08</totfact>
</mgrwt>
</event>
<event>
 4    1  0.4447136E+006  0.2101790E+02  0.7546771E-02  0.1725812E+00
         21   -1    0    0  503  501  0.00000000000E+00  0.00000000000E+00  0.50288174341E+02  0.50288174341E+02  0.00000000000E+00 0. -1.
         21   -1    0    0  501  502 -0.00000000000E+00 -0.00000000000E+00 -0.34154472272E+02  0.34154472272E+02  0.00000000000E+00 0.  1.
         21    1    1    2  503  504 -0.12501919447E+02 -0.16895381681E+02  0.44455742268E+02  0.49173823652E+02  0.00000000000E+00 0. -1.
         21    1    1    2  504  502  0.12501919447E+02  0.16895381681E+02 -0.28322040199E+02  0.35268822961E+02  0.00000000000E+00 0.  1.
<mgrwt>
<rscale>  2 0.21017895E+02</rscale>
<asrwt>0</asrwt>
<pdfrwt beam="1">  1       21 0.77366421E-02 0.21017895E+02</pdfrwt>
<pdfrwt beam="2">  1       21 0.52545342E-02 0.21017895E+02</pdfrwt>
<totfact> 0.22986207E+07</totfact>
</mgrwt>
</event>
<event>
 4    1  0.4447136E+006  0.3409108E+02  0.7546771E-02  0.1556823E+00
         21   -1    0    0  504  501  0.00000000000E+00  0.00000000000E+00  0.20378171585E+01  0.20378171585E+01  0.00000000000E+00 0. -1.
         21   -1    0    0  503  502 -0.00000000000E+00 -0.00000000000E+00 -0.10472383299E+04  0.10472383299E+04  0.00000000000E+00 0. -1.
         21    1    1    2  503  501  0.25380077983E+02 -0.22760788796E+02 -0.87664682654E+03  0.87730944389E+03  0.00000000000E+00 0. -1.
         21    1    1    2  504  502 -0.25380077983E+02  0.22760788796E+02 -0.16855368625E+03  0.17196670321E+03  0.00000000000E+00 0. -1.
<mgrwt>
<rscale>  2 0.34091082E+02</rscale>
<asrwt>0</asrwt>
<pdfrwt beam="1">  1       21 0.31351060E-03 0.34091082E+02</pdfrwt>
<pdfrwt beam="2">  1       21 0.16111345E+00 0.34091082E+02</pdfrwt>
<totfact> 0.53414217E+06</totfact>
</mgrwt>
</event>
<event>
 4    1  0.4447136E+006  0.2226036E+02  0.7546771E-02  0.1703788E+00
         21   -1    0    0  503  501  0.00000000000E+00  0.00000000000E+00  0.11997236361E+02  0.11997236361E+02  0.00000000000E+00 0.  1.
         21   -1    0    0  504  502 -0.00000000000E+00 -0.00000000000E+00 -0.30035461284E+03  0.30035461284E+03  0.00000000000E+00 0.  1.
         21    1    1    2  503  502 -0.14384621775E+02  0.16988413108E+02  0.86203818293E+00  0.22277042743E+02  0.00000000000E+00 0.  1.
         21    1    1    2  504  501  0.14384621775E+02 -0.16988413108E+02 -0.28921941467E+03  0.29007480646E+03  0.00000000000E+00 0.  1.
<mgrwt>
<rscale>  2 0.22260358E+02</rscale>
<asrwt>0</asrwt>
<pdfrwt beam="1">  1       21 0.18457287E-02 0.22260358E+02</pdfrwt>
<pdfrwt beam="2">  1       21 0.46208402E-01 0.22260358E+02</pdfrwt>
<totfact> 0.52477419E+06</totfact>
</mgrwt>
</event>
<event>
 4    1  0.4447136E+006  0.2582791E+02  0.7546771E-02  0.1649387E+00
         21   -1    0    0  502  501  0.00000000000E+00  0.00000000000E+00  0.33797317028E+03  0.33797317028E+03  0.00000000000E+00 0. -1.
         21   -1    0    0  504  502 -0.00000000000E+00 -0.00000000000E+00 -0.38435944563E+02  0.38435944563E+02  0.00000000000E+00 0. -1.
         21    1    1    2  503  501  0.12353590893E+02 -0.22681923256E+02  0.33307713141E+03  0.33407702154E+03  0.00000000000E+00 0. -1.
         21    1    1    2  504  503 -0.12353590893E+02  0.22681923256E+02 -0.33539905688E+02  0.42332093311E+02  0.00000000000E+00 0. -1.
<mgrwt>
<rscale>  2 0.25827908E+02</rscale>
<asrwt>0</asrwt>
<pdfrwt beam="1">  1       21 0.51995870E-01 0.25827908E+02</pdfrwt>
<pdfrwt beam="2">  1       21 0.59132225E-02 0.25827908E+02</pdfrwt>
<totfact> 0.68443137E+05</totfact>
</mgrwt>
</event>
<event>
 4    1  0.4447136E+006  0.2097680E+02  0.7546771E-02  0.1726573E+00
         21   -1    0    0  504  501  0.00000000000E+00  0.00000000000E+00  0.14510420785E+04  0.14510420785E+04  0.00000000000E+00 0. -1.
         21   -1    0    0  501  502 -0.00000000000E+00 -0.00000000000E+00 -0.66078487027E+00  0.66078487027E+00  0.00000000000E+00 0.  1.
         21    1    1    2  503  502  0.18673605463E+02  0.95562812864E+01  0.19126851491E+03  0.19241536022E+03  0.00000000000E+00 0.  1.
         21    1    1    2  504  503 -0.18673605463E+02 -0.95562812864E+01  0.12591127787E+04  0.12592875031E+04  0.00000000000E+00 0. -1.
<mgrwt>
<rscale>  2 0.20976798E+02</rscale>
<asrwt>0</asrwt>
<pdfrwt beam="1">  1       21 0.22323469E+00 0.20976798E+02</pdfrwt>
<pdfrwt beam="2">  1       21 0.10166037E-03 0.20976798E+02</pdfrwt>
<totfact> 0.11258486E+07</totfact>
</mgrwt>
</event>
<event>
 4    1  0.4447136E+006  0.2186224E+02  0.7546771E-02  0.1710645E+00
         21   -1    0    0  503  501  0.00000000000E+00  0.00000000000E+00  0.46112486998E+01  0.46112486998E+01  0.00000000000E+00 0.  1.
         21   -1    0    0  501  502 -0.00000000000E+00 -0.00000000000E+00 -0.14144289107E+03  0.14144289107E+03  0.00000000000E+00 0.  1.
         21    1    1    2  503  504  0.18934985650E+02  0.10928123584E+02 -0.30667614100E+02  0.37662449751E+02  0.00000000000E+00 0.  1.
         21    1    1    2  504  502 -0.18934985650E+02 -0.10928123584E+02 -0.10616402827E+03  0.10839169002E+03  0.00000000000E+00 0.  1.
<mgrwt>
<rscale>  2 0.21862241E+02</rscale>
<asrwt>0</asrwt>
<pdfrwt beam="1">  1       21 0.70942284E-03 0.21862241E+02</pdfrwt>
<pdfrwt beam="2">  1       21 0.21760446E-01 0.21862241E+02</pdfrwt>
<totfact> 0.87547540E+07</totfact>
</mgrwt>
</event>
<event>
 4    1  0.4447136E+006  0.3197683E+02  0.7546771E-02  0.1577212E+00
         21   -1    0    0  503  501  0.00000000000E+00  0.00000000000E+00  0.38037599291E+03  0.38037599291E+03  0.00000000000E+00 0.  1.
         21   -1    0    0  504  502 -0.00000000000E+00 -0.00000000000E+00 -0.41207406734E+01  0.41207406734E+01  0.00000000000E+00 0.  1.
         21    1    1    2  503  502 -0.13881736983E+02  0.28806506813E+02  0.74774840105E+02  0.81325236975E+02  0.00000000000E+00 0.  1.
         21    1    1    2  504  501  0.13881736983E+02 -0.28806506813E+02  0.30148041213E+03  0.30317149661E+03  0.00000000000E+00 0.  1.
<mgrwt>
<rscale>  2 0.31976827E+02</rscale>
<asrwt>0</asrwt>
<pdfrwt beam="1">  1       21 0.58519356E-01 0.31976827E+02</pdfrwt>
<pdfrwt beam="2">  1       21 0.63396040E-03 0.31976827E+02</pdfrwt>
<totfact> 0.17609573E+07</totfact>
</mgrwt>
</event>
<event>
 4    1  0.4447136E+006  0.2144014E+02  0.7546771E-02  0.1718118E+00
         21   -1    0    0  503  501  0.00000000000E+00  0.00000000000E+00  0.55759491222E+01  0.55759491222E+01  0.00000000000E+00 0. -1.
         21   -1    0    0  501  502 -0.00000000000E+00 -0.00000000000E+00 -0.42694064964E+03  0.42694064964E+03  0.00000000000E+00 0.  1.
         21    1    1    2  503  504 -0.55658149998E+01  0.20705098748E+02 -0.16421958521E+02  0.27006668296E+02  0.00000000000E+00 0. -1.
         21    1    1    2  504  502  0.55658149998E+01 -0.20705098748E+02 -0.40494274199E+03  0.40550993046E+03  0.00000000000E+00 0.  1.
<mgrwt>
<rscale>  2 0.21440136E+02</rscale>
<asrwt>0</asrwt>
<pdfrwt beam="1">  1       21 0.85783841E-03 0.21440136E+02</pdfrwt>
<pdfrwt beam="2">  1       21 0.65683170E-01 0.21440136E+02</pdfrwt>
<totfact> 0.82953881E+06</totfact>
</mgrwt>
</event>
<event>
 4    1  0.4447136E+006  0.2079359E+02  0.7546771E-02  0.1729992E+00
         21   -1    0    0  504  501  0.00000000000E+00  0.00000000000E+00  0.14121836840E+03  0.14121836840E+03  0.00000000000E+00 0. -1.
         21   -1    0    0  503  502 -0.00000000000E+00 -0.00000000000E+00 -0.22113781590E+02  0.22113781590E+02  0.00000000000E+00 0.  1.
         21    1    1    2  503  501 -0.19270267869E+02 -0.78121716190E+01 -0.16249763491E+02  0.26389923506E+02  0.00000000000E+00 0.  1.
         21    1    1    2  504  502  0.19270267869E+02  0.78121716190E+01  0.13535435030E+03  0.13694222649E+03  0.00000000000E+00 0. -1.
<mgrwt>
<rscale>  2 0.20793587E+02</rscale>
<asrwt>0</asrwt>
<pdfrwt beam="1">  1       21 0.21725902E-01 0.20793587E+02</pdfrwt>
<pdfrwt beam="2">  1       21 0.34021203E-02 0.20793587E+02</pdfrwt>
<totfact> 0.80206082E+06</totfact>
</mgrwt>
</event>
<event>
 4    1  0.4447136E+006  0.2528600E+02  0.7546771E-02  0.1656928E+00
         21   -1    0    0  503  501  0.00000000000E+00  0.00000000000E+00  0.14980994880E+02  0.14980994880E+02  0.00000000000E+00 0. -1.
         21   -1    0    0  501  502 -0.00000000000E+00 -0.00000000000E+00 -0.25297900239E+03  0.25297900239E+03  0.00000000000E+00 0.  1.
         21    1    1    2  503  504 -0.24649307998E+02  0.56385774588E+01  0.31575619428E+01  0.25482388780E+02  0.00000000000E+00 0. -1.
         21    1    1    2  504  502  0.24649307998E+02 -0.56385774588E+01 -0.24115556946E+03  0.24247760849E+03  0.00000000000E+00 0.  1.
<mgrwt>
<rscale>  2 0.25286003E+02</rscale>
<asrwt>0</asrwt>
<pdfrwt beam="1">  1       21 0.23047687E-02 0.25286003E+02</pdfrwt>
<pdfrwt beam="2">  1       21 0.38919842E-01 0.25286003E+02</pdfrwt>
<totfact> 0.52725543E+06</totfact>
</mgrwt>
</event>
<event>
 4    1  0.4447136E+006  0.3382660E+02  0.7546771E-02  0.1559275E+00
         21   -1    0    0  504  501  0.00000000000E+00  0.00000000000E+00  0.34546185771E+02  0.34546185771E+02  0.00000000000E+00 0.  1.
         21   -1    0    0  501  502 -0.00000000000E+00 -0.00000000000E+00 -0.50100321421E+02  0.50100321421E+02  0.00000000000E+00 0.  1.
         21    1    1    2  503  502  0.57340303647E+01  0.33337062391E+02 -0.32415106974E+02  0.46850592240E+02  0.00000000000E+00 0.  1.
         21    1    1    2  504  503 -0.57340303647E+01 -0.33337062391E+02  0.16860971324E+02  0.37795914952E+02  0.00000000000E+00 0.  1.
<mgrwt>
<rscale>  2 0.33826599E+02</rscale>
<asrwt>0</asrwt>
<pdfrwt beam="1">  1       21 0.53147979E-02 0.33826599E+02</pdfrwt>
<pdfrwt beam="2">  1       21 0.77077417E-02 0.33826599E+02</pdfrwt>
<totfact> 0.25097543E+07</totfact>
</mgrwt>
</event>
<event>
 4    1  0.4447136E+006  0.2173620E+02  0.7546771E-02  0.1712855E+00
         21   -1    0    0  504  501  0.00000000000E+00  0.00000000000E+00  0.18594253502E+02  0.18594253502E+02  0.00000000000E+00 0. -1.
         21   -1    0    0  503  502 -0.00000000000E+00 -0.00000000000E+00 -0.28324734854E+03  0.28324734854E+03  0.00000000000E+00 0. -1.
         21    1    1    2  503  501 -0.19960132142E+02 -0.86055569958E+01  0.11665955346E+02  0.24668948102E+02  0.00000000000E+00 0. -1.
         21    1    1    2  504  502  0.19960132142E+02  0.86055569958E+01 -0.27631905039E+03  0.27717265394E+03  0.00000000000E+00 0. -1.
<mgrwt>
<rscale>  2 0.21736202E+02</rscale>
<asrwt>0</asrwt>
<pdfrwt beam="1">  1       21 0.28606543E-02 0.21736202E+02</pdfrwt>
<pdfrwt beam="2">  1       21 0.43576516E-01 0.21736202E+02</pdfrwt>
<totfact> 0.29794608E+06</totfact>
</mgrwt>
</event>
<event>
 4    1  0.4447136E+006  0.2310480E+02  0.7546771E-02  0.1689817E+00
         21   -1    0    0  502  501  0.00000000000E+00  0.00000000000E+00  0.10110495694E+04  0.10110495694E+04  0.00000000000E+00 0.  1.
         21   -1    0    0  504  502 -0.00000000000E+00 -0.00000000000E+00 -0.41159625795E+01  0.41159625795E+01  0.00000000000E+00 0. -1.
         21    1    1    2  503  501 -0.50985846428E+01 -0.22535216719E+02  0.97737614358E+03  0.97764919966E+03  0.00000000000E+00 0.  1.
         21    1    1    2  504  503  0.50985846428E+01  0.22535216719E+02  0.29557463271E+02  0.37516332349E+02  0.00000000000E+00 0. -1.
<mgrwt>
<rscale>  2 0.23104795E+02</rscale>
<asrwt>0</asrwt>
<pdfrwt beam="1">  1       21 0.15554589E+00 0.23104795E+02</pdfrwt>
<pdfrwt beam="2">  1       21 0.63322582E-03 0.23104795E+02</pdfrwt>
<totfact> 0.19878693E+06</totfact>
</mgrwt>
</event>
<event>
 4    1  0.4447136E+006  0.3201526E+02  0.7546771E-02  0.1576824E+00
         21   -1    0    0  504  501  0.00000000000E+00  0.00000000000E+00  0.19177738489E+02  0.19177738489E+02  0.00000000000E+00 0.  1.
         21   -1    0    0  503  502 -0.00000000000E+00 -0.00000000000E+00 -0.77568281125E+02  0.77568281125E+02  0.00000000000E+00 0.  1.
         21    1    1    2  503  501  0.31221002395E+02  0.70870111008E+01 -0.22198235639E+01  0.32092122609E+02  0.00000000000E+00 0.  1.
         21    1    1    2  504  502 -0.31221002395E+02 -0.70870111008E+01 -0.56170719072E+02  0.64653897005E+02  0.00000000000E+00 0.  1.
<mgrwt>
<rscale>  2 0.32015258E+02</rscale>
<asrwt>0</asrwt>
<pdfrwt beam="1">  1       21 0.29504213E-02 0.32015258E+02</pdfrwt>
<pdfrwt beam="2">  1       21 0.11933582E-01 0.32015258E+02</pdfrwt>
<totfact> 0.30581532E+07</totfact>
</mgrwt>
</event>
<event>
 4    1  0.4447136E+006  0.2116792E+02  0.7546771E-02  0.1723053E+00
         21   -1    0    0  504  501  0.00000000000E+00  0.00000000000E+00  0.12606575484E+03  0.12606575484E+03  0.00000000000E+00 0. -1.
         21   -1    0    0  503  502 -0.00000000000E+00 -0.00000000000E+00 -0.37081756479E+01  0.37081756479E+01  0.00000000000E+00 0. -1.
         21    1    1    2  503  501  0.17678092304E+02  0.11643274775E+02  0.47962695569E+02  0.52426147686E+02  0.00000000000E+00 0. -1.
         21    1    1    2  504  502 -0.17678092304E+02 -0.11643274775E+02  0.74394883624E+02  0.77347782802E+02  0.00000000000E+00 0. -1.
<mgrwt>
<rscale>  2 0.21167919E+02</rscale>
<asrwt>0</asrwt>
<pdfrwt beam="1">  1       21 0.19394728E-01 0.21167919E+02</pdfrwt>
<pdfrwt beam="2">  1       21 0.57048866E-03 0.21167919E+02</pdfrwt>
<totfact> 0.14640634E+08</totfact>
</mgrwt>
</event>
<event>
 4    1  0.4447136E+006  0.3392555E+02  0.7546771E-02  0.1558354E+00
         21   -1    0    0  504  501  0.00000000000E+00  0.00000000000E+00  0.21280758920E+03  0.21280758920E+03  0.00000000000E+00 0. -1.
         21   -1    0    0  501  502 -0.00000000000E+00 -0.00000000000E+00 -0.54250251289E+01  0.54250251289E+01  0.00000000000E+00 0.  1.
         21    1    1    2  503  502  0.22471307581E+02  0.25416200577E+02  0.10973658053E+03  0.11486104659E+03  0.00000000000E+00 0. -1.
         21    1    1    2  504  503 -0.22471307581E+02 -0.25416200577E+02  0.97645983544E+02  0.10337156775E+03  0.00000000000E+00 0.  1.
<mgrwt>
<rscale>  2 0.33925550E+02</rscale>
<asrwt>0</asrwt>
<pdfrwt beam="1">  1       21 0.32739623E-01 0.33925550E+02</pdfrwt>
<pdfrwt beam="2">  1       21 0.83461941E-03 0.33925550E+02</pdfrwt>
<totfact> 0.36230431E+07</totfact>
</mgrwt>
</event>
<event>
 4    1  0.4447136E+006  0.2131107E+02  0.7546771E-02  0.1720446E+00
         21   -1    0    0  503  501  0.00000000000E+00  0.00000000000E+00  0.24341625425E+02  0.24341625425E+02  0.00000000000E+00 0.  1.
         21   -1    0    0  501  502 -0.00000000000E+00 -0.00000000000E+00 -0.20941069352E+03  0.20941069352E+03  0.00000000000E+00 0.  1.
         21    1    1    2  503  504 -0.11878391882E+02 -0.17693662710E+02  0.19013530314E+02  0.28560046022E+02  0.00000000000E+00 0.  1.
         21    1    1    2  504  502  0.11878391882E+02  0.17693662710E+02 -0.20408259841E+03  0.20519227292E+03  0.00000000000E+00 0.  1.
<mgrwt>
<rscale>  2 0.21311074E+02</rscale>
<asrwt>0</asrwt>
<pdfrwt beam="1">  1       21 0.37448655E-02 0.21311074E+02</pdfrwt>
<pdfrwt beam="2">  1       21 0.32217030E-01 0.21311074E+02</pdfrwt>
<totfact> 0.34275706E+06</totfact>
</mgrwt>
</event>
<event>
 4    1  0.4447136E+006  0.2882575E+02  0.7546771E-02  0.1611443E+00
         21   -1    0    0  503  501  0.00000000000E+00  0.00000000000E+00  0.70202724954E+00  0.70202724954E+00  0.00000000000E+00 0.  1.
         21   -1    0    0  504  502 -0.00000000000E+00 -0.00000000000E+00 -0.11871540666E+04  0.11871540666E+04  0.00000000000E+00 0.  1.
         21    1    1    2  503  502  0.27516914132E+02  0.85874081808E+01 -0.56075959150E+03  0.56149999430E+03  0.00000000000E+00 0.  1.
         21    1    1    2  504  501 -0.27516914132E+02 -0.85874081808E+01 -0.62569244790E+03  0.62635609960E+03  0.00000000000E+00 0.  1.
<mgrwt>
<rscale>  2 0.28825755E+02</rscale>
<asrwt>0</asrwt>
<pdfrwt beam="1">  1       21 0.10800493E-03 0.28825755E+02</pdfrwt>
<pdfrwt beam="2">  1       21 0.18263784E+00 0.28825755E+02</pdfrwt>
<totfact> 0.18080711E+07</totfact>
</mgrwt>
</event>
<event>
 4    1  0.4447136E+006  0.5835187E+02  0.7546771E-02  0.1404881E+00
         21   -1    0    0  503  501  0.00000000000E+00  0.00000000000E+00  0.97069202468E+03  0.97069202468E+03  0.00000000000E+00 0.  1.
         21   -1    0    0  504  502 -0.00000000000E+00 -0.00000000000E+00 -0.24285780673E+02  0.24285780673E+02  0.00000000000E+00 0. -1.
         21    1    1    2  503  502  0.31646466204E+02 -0.49024906433E+02  0.93336390687E+03  0.93518614346E+03  0.00000000000E+00 0.  1.
         21    1    1    2  504  501 -0.31646466204E+02  0.49024906433E+02  0.13042337139E+02  0.59791661894E+02  0.00000000000E+00 0. -1.
<mgrwt>
<rscale>  2 0.58351866E+02</rscale>
<asrwt>0</asrwt>
<pdfrwt beam="1">  1       21 0.14933720E+00 0.58351866E+02</pdfrwt>
<pdfrwt beam="2">  1       21 0.37362747E-02 0.58351866E+02</pdfrwt>
<totfact> 0.14285694E+05</totfact>
</mgrwt>
</event>
<event>
 4    1  0.4447136E+006  0.2388683E+02  0.7546771E-02  0.1677525E+00
         21   -1    0    0  504  501  0.00000000000E+00  0.00000000000E+00  0.70951483316E+01  0.70951483316E+01  0.00000000000E+00 0. -1.
         21   -1    0    0  503  502 -0.00000000000E+00 -0.00000000000E+00 -0.94428687564E+02  0.94428687564E+02  0.00000000000E+00 0. -1.
         21    1    1    2  503  501  0.23848373256E+02  0.13549357294E+01 -0.24113969690E+02  0.33942072594E+02  0.00000000000E+00 0. -1.
         21    1    1    2  504  502 -0.23848373256E+02 -0.13549357294E+01 -0.63219569542E+02  0.67581763301E+02  0.00000000000E+00 0. -1.
<mgrwt>
<rscale>  2 0.23886832E+02</rscale>
<asrwt>0</asrwt>
<pdfrwt beam="1">  1       21 0.10915613E-02 0.23886832E+02</pdfrwt>
<pdfrwt beam="2">  1       21 0.14527490E-01 0.23886832E+02</pdfrwt>
<totfact> 0.94579444E+07</totfact>
</mgrwt>
</event>
<event>
 4    1  0.4447136E+006  0.2014187E+02  0.7546771E-02  0.1742521E+00
         21   -1    0    0  503  501  0.00000000000E+00  0.00000000000E+00  0.59046243205E+02  0.59046243205E+02  0.00000000000E+00 0.  1.
         21   -1    0    0  504  502 -0.00000000000E+00 -0.00000000000E+00 -0.66601356871E+02  0.66601356871E+02  0.00000000000E+00 0. -1.
         21    1    1    2  503  502  0.25528285507E+01 -0.19979439754E+02  0.55717508293E+02  0.59246398008E+02  0.00000000000E+00 0.  1.
         21    1    1    2  504  501 -0.25528285507E+01  0.19979439754E+02 -0.63272621959E+02  0.66401202068E+02  0.00000000000E+00 0. -1.
<mgrwt>
<rscale>  2 0.20141870E+02</rscale>
<asrwt>0</asrwt>
<pdfrwt beam="1">  1       21 0.90840375E-02 0.20141870E+02</pdfrwt>
<pdfrwt beam="2">  1       21 0.10246362E-01 0.20141870E+02</pdfrwt>
<totfact> 0.59578220E+06</totfact>
</mgrwt>
</event>
<event>
 4    1  0.4447136E+006  0.2116365E+02  0.7546771E-02  0.1723131E+00
         21   -1    0    0  504  501  0.00000000000E+00  0.00000000000E+00  0.52229711278E+02  0.52229711278E+02  0.00000000000E+00 0. -1.
         21   -1    0    0  503  502 -0.00000000000E+00 -0.00000000000E+00 -0.13348667488E+02  0.13348667488E+02  0.00000000000E+00 0. -1.
         21    1    1    2  503  501  0.20758014519E+02  0.41237007430E+01  0.39047533857E+02  0.44414074064E+02  0.00000000000E+00 0. -1.
         21    1    1    2  504  502 -0.20758014519E+02 -0.41237007430E+01 -0.16649006664E+00  0.21164304702E+02  0.00000000000E+00 0. -1.
<mgrwt>
<rscale>  2 0.21163650E+02</rscale>
<asrwt>0</asrwt>
<pdfrwt beam="1">  1       21 0.80353401E-02 0.21163650E+02</pdfrwt>
<pdfrwt beam="2">  1       21 0.20536412E-02 0.21163650E+02</pdfrwt>
<totfact> 0.93630053E+07</totfact>
</mgrwt>
</event>
<event>
 4    1  0.4447136E+006  0.3080397E+02  0.7546771E-02  0.1589368E+00
         21   -1    0    0  504  501  0.00000000000E+00  0.00000000000E+00  0.55650405944E+03  0.55650405944E+03  0.00000000000E+00 0.  1.
         21   -1    0    0  501  502 -0.00000000000E+00 -0.00000000000E+00 -0.33636742070E+02  0.33636742070E+02  0.00000000000E+00 0. -1.
         21    1    1    2  503  502  0.47970407202E+01  0.30428162068E+02 -0.26060773108E+02  0.40349083527E+02  0.00000000000E+00 0. -1.
         21    1    1    2  504  503 -0.47970407202E+01 -0.30428162068E+02  0.54892809048E+03  0.54979171799E+03  0.00000000000E+00 0.  1.
<mgrwt>
<rscale>  2 0.30803971E+02</rscale>
<asrwt>0</asrwt>
<pdfrwt beam="1">  1       21 0.85616002E-01 0.30803971E+02</pdfrwt>
<pdfrwt beam="2">  1       21 0.51748838E-02 0.30803971E+02</pdfrwt>
<totfact> 0.30715527E+05</totfact>
</mgrwt>
</event>
<event>
 4    1  0.4447136E+006  0.3236865E+02  0.7546771E-02  0.1573291E+00
         21   -1    0    0  504  501  0.00000000000E+00  0.00000000000E+00  0.41430335155E+02  0.41430335155E+02  0.00000000000E+00 0. -1.
         21   -1    0    0  503  502 -0.00000000000E+00 -0.00000000000E+00 -0.33882434760E+03  0.33882434760E+03  0.00000000000E+00 0. -1.
         21    1    1    2  503  501 -0.16689057377E+02  0.27734541414E+02  0.34197459277E+02  0.47087106989E+02  0.00000000000E+00 0. -1.
         21    1    1    2  504  502  0.16689057377E+02 -0.27734541414E+02 -0.33159147172E+03  0.33316757577E+03  0.00000000000E+00 0. -1.
<mgrwt>
<rscale>  2 0.32368649E+02</rscale>
<asrwt>0</asrwt>
<pdfrwt beam="1">  1       21 0.63738981E-02 0.32368649E+02</pdfrwt>
<pdfrwt beam="2">  1       21 0.52126820E-01 0.32368649E+02</pdfrwt>
<totfact> 0.61080423E+05</totfact>
</mgrwt>
</event>
<event>
 4    1  0.4447136E+006  0.2316641E+02  0.7546771E-02  0.1688827E+00
         21   -1    0    0  504  501  0.00000000000E+00  0.00000000000E+00  0.45557041966E+03  0.45557041966E+03  0.00000000000E+00 0. -1.
         21   -1    0    0  501  502 -0.00000000000E+00 -0.00000000000E+00 -0.25444980168E+02  0.25444980168E+02  0.00000000000E+00 0.  1.
         21    1    1    2  503  502 -0.15023221786E+02  0.17634776317E+02 -0.19811521486E+02  0.30482436126E+02  0.00000000000E+00 0.  1.
         21    1    1    2  504  503  0.15023221786E+02 -0.17634776317E+02  0.44993696097E+03  0.45053296370E+03  0.00000000000E+00 0. -1.
<mgrwt>
<rscale>  2 0.23166409E+02</rscale>
<asrwt>0</asrwt>
<pdfrwt beam="1">  1       21 0.70087751E-01 0.23166409E+02</pdfrwt>
<pdfrwt beam="2">  1       21 0.39146127E-02 0.23166409E+02</pdfrwt>
<totfact> 0.71961610E+05</totfact>
</mgrwt>
</event>
<event>
 4    1  0.4447136E+006  0.2373489E+02  0.7546771E-02  0.1679867E+00
         21   -1    0    0  503  501  0.00000000000E+00  0.00000000000E+00  0.25424237950E+02  0.25424237950E+02  0.00000000000E+00 0.  1.
         21   -1    0    0  504  502 -0.00000000000E+00 -0.00000000000E+00 -0.59471713405E+02  0.59471713405E+02  0.00000000000E+00 0.  1.
         21    1    1    2  503  502 -0.56938224159E+01  0.23041813741E+02  0.16599323096E+02  0.28963465287E+02  0.00000000000E+00 0.  1.
         21    1    1    2  504  501  0.56938224159E+01 -0.23041813741E+02 -0.50646798551E+02  0.55932486067E+02  0.00000000000E+00 0.  1.
<mgrwt>
<rscale>  2 0.23734886E+02</rscale>
<asrwt>0</asrwt>
<pdfrwt beam="1">  1       21 0.39114213E-02 0.23734886E+02</pdfrwt>
<pdfrwt beam="2">  1       21 0.91494943E-02 0.23734886E+02</pdfrwt>
<totfact> 0.28691373E+07</totfact>
</mgrwt>
</event>
<event>
 4    1  0.4447136E+006  0.2658829E+02  0.7546771E-02  0.1639184E+00
         21   -1    0    0  503  501  0.00000000000E+00  0.00000000000E+00  0.43276360369E+03  0.43276360369E+03  0.00000000000E+00 0. -1.
         21   -1    0    0  501  502 -0.00000000000E+00 -0.00000000000E+00 -0.61889936361E+01  0.61889936361E+01  0.00000000000E+00 0.  1.
         21    1    1    2  503  504  0.25807234750E+02  0.63971831387E+01  0.40158428392E+03  0.40246350693E+03  0.00000000000E+00 0. -1.
         21    1    1    2  504  502 -0.25807234750E+02 -0.63971831387E+01  0.24990326125E+02  0.36489090389E+02  0.00000000000E+00 0.  1.
<mgrwt>
<rscale>  2 0.26588293E+02</rscale>
<asrwt>0</asrwt>
<pdfrwt beam="1">  1       21 0.66578992E-01 0.26588293E+02</pdfrwt>
<pdfrwt beam="2">  1       21 0.95215321E-03 0.26588293E+02</pdfrwt>
<totfact> 0.71444014E+06</totfact>
</mgrwt>
</event>
<event>
 4    1  0.4447136E+006  0.2232690E+02  0.7546771E-02  0.1702659E+00
         21   -1    0    0  503  501  0.00000000000E+00  0.00000000000E+00  0.40885556024E+02  0.40885556024E+02  0.00000000000E+00 0.  1.
         21   -1    0    0  501  502 -0.00000000000E+00 -0.00000000000E+00 -0.15221221059E+03  0.15221221059E+03  0.00000000000E+00 0. -1.
         21    1    1    2  503  504  0.25427415764E+01 -0.22181637127E+02  0.36938028632E+02  0.43161423975E+02  0.00000000000E+00 0.  1.
         21    1    1    2  504  502 -0.25427415764E+01  0.22181637127E+02 -0.14826468319E+03  0.14993634263E+03  0.00000000000E+00 0. -1.
<mgrwt>
<rscale>  2 0.22326902E+02</rscale>
<asrwt>0</asrwt>
<pdfrwt beam="1">  1       21 0.62900855E-02 0.22326902E+02</pdfrwt>
<pdfrwt beam="2">  1       21 0.23417263E-01 0.22326902E+02</pdfrwt>
<totfact> 0.26888969E+06</totfact>
</mgrwt>
</event>
<event>
 4    1  0.4447136E+006  0.2521571E+02  0.7546771E-02  0.1657923E+00
         21   -1    0    0  503  501  0.00000000000E+00  0.00000000000E+00  0.12412000803E+03  0.12412000803E+03  0.00000000000E+00 0. -1.
         21   -1    0    0  504  502 -0.00000000000E+00 -0.00000000000E+00 -0.33539811991E+02  0.33539811991E+02  0.00000000000E+00 0. -1.
         21    1    1    2  503  502  0.43064367176E+01  0.24845258533E+02 -0.27270444609E+02  0.37141747642E+02  0.00000000000E+00 0. -1.
         21    1    1    2  504  501 -0.43064367176E+01 -0.24845258533E+02  0.11785064065E+03  0.12051807238E+03  0.00000000000E+00 0. -1.
<mgrwt>
<rscale>  2 0.25215715E+02</rscale>
<asrwt>0</asrwt>
<pdfrwt beam="1">  1       21 0.19095386E-01 0.25215715E+02</pdfrwt>
<pdfrwt beam="2">  1       21 0.51599711E-02 0.25215715E+02</pdfrwt>
<totfact> 0.53832041E+06</totfact>
</mgrwt>
</event>
<event>
 4    1  0.4447136E+006  0.2013781E+02  0.7546771E-02  0.1742601E+00
         21   -1    0    0  503  501  0.00000000000E+00  0.00000000000E+00  0.56138089403E+02  0.56138089403E+02  0.00000000000E+00 0.  1.
         21   -1    0    0  504  502 -0.00000000000E+00 -0.00000000000E+00 -0.27830399192E+03  0.27830399192E+03  0.00000000000E+00 0. -1.
         21    1    1    2  503  502 -0.13958722865E+02  0.14515001927E+02 -0.27611948113E+03  0.27685284734E+03  0.00000000000E+00 0. -1.
         21    1    1    2  504  501  0.13958722865E+02 -0.14515001927E+02  0.53953578612E+02  0.57589233977E+02  0.00000000000E+00 0.  1.
<mgrwt>
<rscale>  2 0.20137806E+02</rscale>
<asrwt>0</asrwt>
<pdfrwt beam="1">  1       21 0.86366294E-02 0.20137806E+02</pdfrwt>
<pdfrwt beam="2">  1       21 0.42815998E-01 0.20137806E+02</pdfrwt>
<totfact> 0.52902731E+05</totfact>
</mgrwt>
</event>
<event>
 4    1  0.4447136E+006  0.2034345E+02  0.7546771E-02  0.1738583E+00
         21   -1    0    0  503  501  0.00000000000E+00  0.00000000000E+00  0.88897114387E+02  0.88897114387E+02  0.00000000000E+00 0. -1.
         21   -1    0    0  504  502 -0.00000000000E+00 -0.00000000000E+00 -0.38687188564E+02  0.38687188564E+02  0.00000000000E+00 0.  1.
         21    1    1    2  503  502  0.19520410225E+02 -0.57279709109E+01  0.84935890080E+02  0.87338201777E+02  0.00000000000E+00 0. -1.
         21    1    1    2  504  501 -0.19520410225E+02  0.57279709109E+01 -0.34725964256E+02  0.40246101173E+02  0.00000000000E+00 0.  1.
<mgrwt>
<rscale>  2 0.20343453E+02</rscale>
<asrwt>0</asrwt>
<pdfrwt beam="1">  1       21 0.13676479E-01 0.20343453E+02</pdfrwt>
<pdfrwt beam="2">  1       21 0.59518752E-02 0.20343453E+02</pdfrwt>
<totfact> 0.73097230E+06</totfact>
</mgrwt>
</event>
<event>
 4    1  0.4447136E+006  0.2292566E+02  0.7546771E-02  0.1692718E+00
         21   -1    0    0  504  501  0.00000000000E+00  0.00000000000E+00  0.28271842259E+02  0.28271842259E+02  0.00000000000E+00 0.  1.
         21   -1    0    0  501  502 -0.00000000000E+00 -0.00000000000E+00 -0.13340398376E+03  0.13340398376E+03  0.00000000000E+00 0.  1.
         21    1    1    2  503  502 -0.32115626120E+01  0.22699593110E+02 -0.12756020158E+03  0.12960397636E+03  0.00000000000E+00 0.  1.
         21    1    1    2  504  503  0.32115626120E+01 -0.22699593110E+02  0.22428060076E+02  0.32071849659E+02  0.00000000000E+00 0.  1.
<mgrwt>
<rscale>  2 0.22925655E+02</rscale>
<asrwt>0</asrwt>
<pdfrwt beam="1">  1       21 0.43495141E-02 0.22925655E+02</pdfrwt>
<pdfrwt beam="2">  1       21 0.20523690E-01 0.22925655E+02</pdfrwt>
<totfact> 0.61316851E+06</totfact>
</mgrwt>
</event>
<event>
 4    1  0.4447136E+006  0.2301010E+02  0.7546771E-02  0.1691346E+00
         21   -1    0    0  504  501  0.00000000000E+00  0.00000000000E+00  0.25457281178E+02  0.25457281178E+02  0.00000000000E+00 0.  1.
         21   -1    0    0  503  502 -0.00000000000E+00 -0.00000000000E+00 -0.36799532164E+02  0.36799532164E+02  0.00000000000E+00 0. -1.
         21    1    1    2  503  501 -0.21160053547E+02  0.90397415113E+01  0.14855343948E+02  0.27388793996E+02  0.00000000000E+00 0.  1.
         21    1    1    2  504  502  0.21160053547E+02 -0.90397415113E+01 -0.26197594934E+02  0.34868019345E+02  0.00000000000E+00 0. -1.
<mgrwt>
<rscale>  2 0.23010102E+02</rscale>
<asrwt>0</asrwt>
<pdfrwt beam="1">  1       21 0.39165048E-02 0.23010102E+02</pdfrwt>
<pdfrwt beam="2">  1       21 0.56614665E-02 0.23010102E+02</pdfrwt>
<totfact> 0.61927234E+07</totfact>
</mgrwt>
</event>
<event>
 4    1  0.4447136E+006  0.3876703E+02  0.7546771E-02  0.1517486E+00
         21   -1    0    0  503  501  0.00000000000E+00  0.00000000000E+00  0.83140202373E+01  0.83140202373E+01  0.00000000000E+00 0. -1.
         21   -1    0    0  504  502 -0.00000000000E+00 -0.00000000000E+00 -0.31932696843E+03  0.31932696843E+03  0.00000000000E+00 0. -1.
         21    1    1    2  503  502 -0.28105022851E+02  0.26701880821E+02 -0.47593747396E+02  0.61384424246E+02  0.00000000000E+00 0. -1.
         21    1    1    2  504  501  0.28105022851E+02 -0.26701880821E+02 -0.26341920080E+03  0.26625656442E+03  0.00000000000E+00 0. -1.
<mgrwt>
<rscale>  2 0.38767032E+02</rscale>
<asrwt>0</asrwt>
<pdfrwt beam="1">  1       21 0.12790800E-02 0.38767032E+02</pdfrwt>
<pdfrwt beam="2">  1       21 0.49127225E-01 0.38767032E+02</pdfrwt>
<totfact> 0.88400426E+06</totfact>
</mgrwt>
</event>
<event>
 4    1  0.4447136E+006  0.2449667E+02  0.7546771E-02  0.1668338E+00
         21   -1    0    0  502  501  0.00000000000E+00  0.00000000000E+00  0.16570798212E+03  0.16570798212E+03  0.00000000000E+00 0. -1.
         21   -1    0    0  503  502 -0.00000000000E+00 -0.00000000000E+00 -0.17837672507E+02  0.17837672507E+02  0.00000000000E+00 0. -1.
         21    1    1    2  503  504  0.11898153116E+01  0.24467755151E+02 -0.79940317015E+01  0.25768027582E+02  0.00000000000E+00 0. -1.
         21    1    1    2  504  501 -0.11898153116E+01 -0.24467755151E+02  0.15586434132E+03  0.15777762705E+03  0.00000000000E+00 0. -1.
<mgrwt>
<rscale>  2 0.24496667E+02</rscale>
<asrwt>0</asrwt>
<pdfrwt beam="1">  1       21 0.25493535E-01 0.24496667E+02</pdfrwt>
<pdfrwt beam="2">  1       21 0.27442574E-02 0.24496667E+02</pdfrwt>
<totfact> 0.87031197E+06</totfact>
</mgrwt>
</event>
<event>
 4    1  0.4447136E+006  0.3292957E+02  0.7546771E-02  0.1567795E+00
         21   -1    0    0  502  501  0.00000000000E+00  0.00000000000E+00  0.69464032274E+02  0.69464032274E+02  0.00000000000E+00 0.  1.
         21   -1    0    0  504  502 -0.00000000000E+00 -0.00000000000E+00 -0.33268837479E+02  0.33268837479E+02  0.00000000000E+00 0. -1.
         21    1    1    2  503  501 -0.32845161995E+02 -0.23563096224E+01  0.55520505960E+02  0.64551401562E+02  0.00000000000E+00 0.  1.
         21    1    1    2  504  503  0.32845161995E+02  0.23563096224E+01 -0.19325311166E+02  0.38181468191E+02  0.00000000000E+00 0. -1.
<mgrwt>
<rscale>  2 0.32929574E+02</rscale>
<asrwt>0</asrwt>
<pdfrwt beam="1">  1       21 0.10686774E-01 0.32929574E+02</pdfrwt>
<pdfrwt beam="2">  1       21 0.51182827E-02 0.32929574E+02</pdfrwt>
<totfact> 0.15390069E+07</totfact>
</mgrwt>
</event>
<event>
 4    1  0.4447136E+006  0.2627939E+02  0.7546771E-02  0.1643278E+00
         21   -1    0    0  503  501  0.00000000000E+00  0.00000000000E+00  0.35928432374E+01  0.35928432374E+01  0.00000000000E+00 0.  1.
         21   -1    0    0  504  502 -0.00000000000E+00 -0.00000000000E+00 -0.35647520889E+03  0.35647520889E+03  0.00000000000E+00 0.  1.
         21    1    1    2  503  502 -0.22625798215E+02  0.13367113304E+02 -0.29865016653E+03  0.29980415013E+03  0.00000000000E+00 0.  1.
         21    1    1    2  504  501  0.22625798215E+02 -0.13367113304E+02 -0.54232199116E+02  0.60263901997E+02  0.00000000000E+00 0.  1.
<mgrwt>
<rscale>  2 0.26279392E+02</rscale>
<asrwt>0</asrwt>
<pdfrwt beam="1">  1       21 0.55274512E-03 0.26279392E+02</pdfrwt>
<pdfrwt beam="2">  1       21 0.54842339E-01 0.26279392E+02</pdfrwt>
<totfact> 0.23770258E+07</totfact>
</mgrwt>
</event>
<event>
 4    1  0.4447136E+006  0.2107750E+02  0.7546771E-02  0.1724712E+00
         21   -1    0    0  503  501  0.00000000000E+00  0.00000000000E+00  0.98686039876E+02  0.98686039876E+02  0.00000000000E+00 0. -1.
         21   -1    0    0  504  502 -0.00000000000E+00 -0.00000000000E+00 -0.60558842926E+01  0.60558842926E+01  0.00000000000E+00 0. -1.
         21    1    1    2  503  502 -0.70379782260E+01  0.19867763653E+02  0.19784652430E+02  0.28908366295E+02  0.00000000000E+00 0. -1.
         21    1    1    2  504  501  0.70379782260E+01 -0.19867763653E+02  0.72845503153E+02  0.75833557874E+02  0.00000000000E+00 0. -1.
<mgrwt>
<rscale>  2 0.21077504E+02</rscale>
<asrwt>0</asrwt>
<pdfrwt beam="1">  1       21 0.15182466E-01 0.21077504E+02</pdfrwt>
<pdfrwt beam="2">  1       21 0.93167458E-03 0.21077504E+02</pdfrwt>
<totfact> 0.10743338E+08</totfact>
</mgrwt>
</event>
<event>
 4    1  0.4447136E+006  0.2150677E+02  0.7546771E-02  0.1716924E+00
         21   -1    0    0  504  501  0.00000000000E+00  0.00000000000E+00  0.14728612506E+03  0.14728612506E+03  0.00000000000E+00 0. -1.
         21   -1    0    0  503  502 -0.00000000000E+00 -0.00000000000E+00 -0.32095765039E+01  0.32095765039E+01  0.00000000000E+00 0. -1.
         21    1    1    2  503  501  0.76155368931E+01 -0.20113295950E+02  0.60993164167E+02  0.64673852144E+02  0.00000000000E+00 0. -1.
         21    1    1    2  504  502 -0.76155368931E+01  0.20113295950E+02  0.83083384390E+02  0.85821849420E+02  0.00000000000E+00 0. -1.
<mgrwt>
<rscale>  2 0.21506768E+02</rscale>
<asrwt>0</asrwt>
<pdfrwt beam="1">  1       21 0.22659399E-01 0.21506768E+02</pdfrwt>
<pdfrwt beam="2">  1       21 0.49378111E-03 0.21506768E+02</pdfrwt>
<totfact> 0.13865911E+08</totfact>
</mgrwt>
</event>
<event>
 4    1  0.4447136E+006  0.2129893E+02  0.7546771E-02  0.1720666E+00
         21   -1    0    0  502  501  0.00000000000E+00  0.00000000000E+00  0.69632628240E+01  0.69632628240E+01  0.00000000000E+00 0. -1.
         21   -1    0    0  503  502 -0.00000000000E+00 -0.00000000000E+00 -0.10107869741E+03  0.10107869741E+03  0.00000000000E+00 0. -1.
         21    1    1    2  503  504 -0.17938366141E+02 -0.11483002641E+02 -0.79265735565E+02  0.82077409585E+02  0.00000000000E+00 0. -1.
         21    1    1    2  504  501  0.17938366141E+02  0.11483002641E+02 -0.14849699023E+02  0.25964550651E+02  0.00000000000E+00 0. -1.
<mgrwt>
<rscale>  2 0.21298928E+02</rscale>
<asrwt>0</asrwt>
<pdfrwt beam="1">  1       21 0.10712712E-02 0.21298928E+02</pdfrwt>
<pdfrwt beam="2">  1       21 0.15550569E-01 0.21298928E+02</pdfrwt>
<totfact> 0.83934534E+07</totfact>
</mgrwt>
</event>
<event>
 4    1  0.4447136E+006  0.4392528E+02  0.7546771E-02  0.1481165E+00
         21   -1    0    0  503  501  0.00000000000E+00  0.00000000000E+00  0.31522783750E+03  0.31522783750E+03  0.00000000000E+00 0. -1.
         21   -1    0    0  504  502 -0.00000000000E+00 -0.00000000000E+00 -0.31564206684E+02  0.31564206684E+02  0.00000000000E+00 0.  1.
         21    1    1    2  503  502 -0.41016895408E+02  0.15717645050E+02  0.29751071983E+03  0.30073586166E+03  0.00000000000E+00 0. -1.
         21    1    1    2  504  501  0.41016895408E+02 -0.15717645050E+02 -0.13847089011E+02  0.46056182527E+02  0.00000000000E+00 0.  1.
<mgrwt>
<rscale>  2 0.43925278E+02</rscale>
<asrwt>0</asrwt>
<pdfrwt beam="1">  1       21 0.48496588E-01 0.43925278E+02</pdfrwt>
<pdfrwt beam="2">  1       21 0.48560320E-02 0.43925278E+02</pdfrwt>
<totfact> 0.11148142E+06</totfact>
</mgrwt>
</event>
<event>
 4    1  0.4447136E+006  0.2245012E+02  0.7546771E-02  0.1700582E+00
         21   -1    0    0  503  501  0.00000000000E+00  0.00000000000E+00  0.47767799173E+02  0.47767799173E+02  0.00000000000E+00 0.  1.
         21   -1    0    0  504  502 -0.00000000000E+00 -0.00000000000E+00 -0.10564306539E+02  0.10564306539E+02  0.00000000000E+00 0. -1.
         21    1    1    2  503  502  0.78203136589E+01  0.21044016776E+02  0.17574720345E+02  0.28511028445E+02  0.00000000000E+00 0. -1.
         21    1    1    2  504  501 -0.78203136589E+01 -0.21044016776E+02  0.19628772289E+02  0.29821077267E+02  0.00000000000E+00 0.  1.
<mgrwt>
<rscale>  2 0.22450121E+02</rscale>
<asrwt>0</asrwt>
<pdfrwt beam="1">  1       21 0.73488920E-02 0.22450121E+02</pdfrwt>
<pdfrwt beam="2">  1       21 0.16252780E-02 0.22450121E+02</pdfrwt>
<totfact> 0.15744503E+08</totfact>
</mgrwt>
</event>
<event>
 4    1  0.4447136E+006  0.2371316E+02  0.7546771E-02  0.1680204E+00
         21   -1    0    0  504  501  0.00000000000E+00  0.00000000000E+00  0.21336753451E+01  0.21336753451E+01  0.00000000000E+00 0. -1.
         21   -1    0    0  503  502 -0.00000000000E+00 -0.00000000000E+00 -0.87430879067E+03  0.87430879067E+03  0.00000000000E+00 0.  1.
         21    1    1    2  503  501 -0.22403160484E+02  0.77725336158E+01 -0.80235521140E+03  0.80270554946E+03  0.00000000000E+00 0.  1.
         21    1    1    2  504  502  0.22403160484E+02 -0.77725336158E+01 -0.69819903924E+02  0.73736916551E+02  0.00000000000E+00 0. -1.
<mgrwt>
<rscale>  2 0.23713158E+02</rscale>
<asrwt>0</asrwt>
<pdfrwt beam="1">  1       21 0.32825770E-03 0.23713158E+02</pdfrwt>
<pdfrwt beam="2">  1       21 0.13450906E+00 0.23713158E+02</pdfrwt>
<totfact> 0.73866717E+06</totfact>
</mgrwt>
</event>
<event>
 4    1  0.4447136E+006  0.2380530E+02  0.7546771E-02  0.1678779E+00
         21   -1    0    0  502  501  0.00000000000E+00  0.00000000000E+00  0.47177022960E+02  0.47177022960E+02  0.00000000000E+00 0.  1.
         21   -1    0    0  504  502 -0.00000000000E+00 -0.00000000000E+00 -0.23665023264E+02  0.23665023264E+02  0.00000000000E+00 0. -1.
         21    1    1    2  503  501 -0.14621761558E+02 -0.18785537134E+02  0.36611710416E+02  0.43670466634E+02  0.00000000000E+00 0.  1.
         21    1    1    2  504  503  0.14621761558E+02  0.18785537134E+02 -0.13099710720E+02  0.27171579590E+02  0.00000000000E+00 0. -1.
<mgrwt>
<rscale>  2 0.23805300E+02</rscale>
<asrwt>0</asrwt>
<pdfrwt beam="1">  1       21 0.72580035E-02 0.23805300E+02</pdfrwt>
<pdfrwt beam="2">  1       21 0.36407728E-02 0.23805300E+02</pdfrwt>
<totfact> 0.46946267E+07</totfact>
</mgrwt>
</event>
<event>
 4    1  0.4447136E+006  0.2333065E+02  0.7546771E-02  0.1686206E+00
         21   -1    0    0  503  501  0.00000000000E+00  0.00000000000E+00  0.71464909921E+01  0.71464909921E+01  0.00000000000E+00 0. -1.
         21   -1    0    0  504  502 -0.00000000000E+00 -0.00000000000E+00 -0.83248486978E+02  0.83248486978E+02  0.00000000000E+00 0. -1.
         21    1    1    2  503  502  0.20141983612E+02  0.11773687985E+02 -0.51234195020E+02  0.56296198557E+02  0.00000000000E+00 0. -1.
         21    1    1    2  504  501 -0.20141983612E+02 -0.11773687985E+02 -0.24867800965E+02  0.34098779413E+02  0.00000000000E+00 0. -1.
<mgrwt>
<rscale>  2 0.23330650E+02</rscale>
<asrwt>0</asrwt>
<pdfrwt beam="1">  1       21 0.10994602E-02 0.23330650E+02</pdfrwt>
<pdfrwt beam="2">  1       21 0.12807459E-01 0.23330650E+02</pdfrwt>
<totfact> 0.11502931E+08</totfact>
</mgrwt>
</event>
<event>
 4    1  0.4447136E+006  0.2181105E+02  0.7546771E-02  0.1711540E+00
         21   -1    0    0  503  501  0.00000000000E+00  0.00000000000E+00  0.58090766569E+01  0.58090766569E+01  0.00000000000E+00 0.  1.
         21   -1    0    0  504  502 -0.00000000000E+00 -0.00000000000E+00 -0.85011868532E+02  0.85011868532E+02  0.00000000000E+00 0.  1.
         21    1    1    2  503  502 -0.20644692034E+02  0.70369477297E+01 -0.48299488584E+02  0.52995872858E+02  0.00000000000E+00 0.  1.
         21    1    1    2  504  501  0.20644692034E+02 -0.70369477297E+01 -0.30903303291E+02  0.37825072331E+02  0.00000000000E+00 0.  1.
<mgrwt>
<rscale>  2 0.21811051E+02</rscale>
<asrwt>0</asrwt>
<pdfrwt beam="1">  1       21 0.89370415E-03 0.21811051E+02</pdfrwt>
<pdfrwt beam="2">  1       21 0.13078748E-01 0.21811051E+02</pdfrwt>
<totfact> 0.14857622E+08</totfact>
</mgrwt>
</event>
<event>
 4    1  0.4447136E+006  0.2143228E+02  0.7546771E-02  0.1718259E+00
         21   -1    0    0  503  501  0.00000000000E+00  0.00000000000E+00  0.13189420610E+03  0.13189420610E+03  0.00000000000E+00 0.  1.
         21   -1    0    0  504  502 -0.00000000000E+00 -0.00000000000E+00 -0.15678693806E+02  0.15678693806E+02  0.00000000000E+00 0. -1.
         21    1    1    2  503  502  0.21421172538E+02  0.69001065606E+00 -0.69697611954E+01  0.22537087628E+02  0.00000000000E+00 0. -1.
         21    1    1    2  504  501 -0.21421172538E+02 -0.69001065606E+00  0.12318527349E+03  0.12503581228E+03  0.00000000000E+00 0.  1.
<mgrwt>
<rscale>  2 0.21432283E+02</rscale>
<asrwt>0</asrwt>
<pdfrwt beam="1">  1       21 0.20291416E-01 0.21432283E+02</pdfrwt>
<pdfrwt beam="2">  1       21 0.24121068E-02 0.21432283E+02</pdfrwt>
<totfact> 0.15489311E+07</totfact>
</mgrwt>
</event>
<event>
 4    1  0.4447136E+006  0.3416614E+02  0.7546771E-02  0.1556133E+00
         21   -1    0    0  503  501  0.00000000000E+00  0.00000000000E+00  0.25925453573E+03  0.25925453573E+03  0.00000000000E+00 0. -1.
         21   -1    0    0  501  502 -0.00000000000E+00 -0.00000000000E+00 -0.26891322397E+03  0.26891322397E+03  0.00000000000E+00 0. -1.
         21    1    1    2  503  504  0.20695779344E+02 -0.27184733630E+02  0.25703432282E+03  0.25929513712E+03  0.00000000000E+00 0. -1.
         21    1    1    2  504  502 -0.20695779344E+02  0.27184733630E+02 -0.26669301106E+03  0.26887262258E+03  0.00000000000E+00 0. -1.
<mgrwt>
<rscale>  2 0.34166139E+02</rscale>
<asrwt>0</asrwt>
<pdfrwt beam="1">  1       21 0.39885313E-01 0.34166139E+02</pdfrwt>
<pdfrwt beam="2">  1       21 0.41371265E-01 0.34166139E+02</pdfrwt>
<totfact> 0.38839076E+04</totfact>
</mgrwt>
</event>
<event>
 4    1  0.4447136E+006  0.2005484E+02  0.7546771E-02  0.1744240E+00
         21   -1    0    0  503  501  0.00000000000E+00  0.00000000000E+00  0.63706648000E+03  0.63706648000E+03  0.00000000000E+00 0.  1.
         21   -1    0    0  504  502 -0.00000000000E+00 -0.00000000000E+00 -0.10387671719E+01  0.10387671719E+01  0.00000000000E+00 0.  1.
         21    1    1    2  503  502 -0.95305276284E+01 -0.17645561178E+02  0.11819542760E+03  0.11988476088E+03  0.00000000000E+00 0.  1.
         21    1    1    2  504  501  0.95305276284E+01  0.17645561178E+02  0.51783228523E+03  0.51822048629E+03  0.00000000000E+00 0.  1.
<mgrwt>
<rscale>  2 0.20054844E+02</rscale>
<asrwt>0</asrwt>
<pdfrwt beam="1">  1       21 0.98009915E-01 0.20054844E+02</pdfrwt>
<pdfrwt beam="2">  1       21 0.15981084E-03 0.20054844E+02</pdfrwt>
<totfact> 0.41209386E+07</totfact>
</mgrwt>
</event>
<event>
 4    1  0.4447136E+006  0.3365086E+02  0.7546771E-02  0.1560918E+00
         21   -1    0    0  503  501  0.00000000000E+00  0.00000000000E+00  0.48057965707E+02  0.48057965707E+02  0.00000000000E+00 0.  1.
         21   -1    0    0  504  502 -0.00000000000E+00 -0.00000000000E+00 -0.63691162773E+02  0.63691162773E+02  0.00000000000E+00 0. -1.
         21    1    1    2  503  502  0.29161720786E+02 -0.16792098821E+02 -0.52167274776E+02  0.62079023023E+02  0.00000000000E+00 0. -1.
         21    1    1    2  504  501 -0.29161720786E+02  0.16792098821E+02  0.36534077709E+02  0.49670105456E+02  0.00000000000E+00 0.  1.
<mgrwt>
<rscale>  2 0.33650862E+02</rscale>
<asrwt>0</asrwt>
<pdfrwt beam="1">  1       21 0.73935332E-02 0.33650862E+02</pdfrwt>
<pdfrwt beam="2">  1       21 0.97986404E-02 0.33650862E+02</pdfrwt>
<totfact> 0.98068545E+06</totfact>
</mgrwt>
</event>
<event>
 4    1  0.4447136E+006  0.3647575E+02  0.7546771E-02  0.1535873E+00
         21   -1    0    0  502  501  0.00000000000E+00  0.00000000000E+00  0.65750917613E+03  0.65750917613E+03  0.00000000000E+00 0.  1.
         21   -1    0    0  503  502 -0.00000000000E+00 -0.00000000000E+00 -0.30312840307E+01  0.30312840307E+01  0.00000000000E+00 0.  1.
         21    1    1    2  503  504 -0.34772258755E+02 -0.11016814577E+02  0.13680847012E+03  0.14158756188E+03  0.00000000000E+00 0.  1.
         21    1    1    2  504  501  0.34772258755E+02  0.11016814577E+02  0.51766942198E+03  0.51895289828E+03  0.00000000000E+00 0.  1.
<mgrwt>
<rscale>  2 0.36475748E+02</rscale>
<asrwt>0</asrwt>
<pdfrwt beam="1">  1       21 0.10115514E+00 0.36475748E+02</pdfrwt>
<pdfrwt beam="2">  1       21 0.46635191E-03 0.36475748E+02</pdfrwt>
<totfact> 0.88921989E+06</totfact>
</mgrwt>
</event>
<event>
 4    1  0.4447136E+006  0.2835446E+02  0.7546771E-02  0.1617024E+00
         21   -1    0    0  502  501  0.00000000000E+00  0.00000000000E+00  0.38033033393E+01  0.38033033393E+01  0.00000000000E+00 0.  1.
         21   -1    0    0  504  502 -0.00000000000E+00 -0.00000000000E+00 -0.23954663152E+03  0.23954663152E+03  0.00000000000E+00 0.  1.
         21    1    1    2  503  501 -0.95522380513E+01 -0.26697005288E+02 -0.76155286491E+02  0.81262555976E+02  0.00000000000E+00 0.  1.
         21    1    1    2  504  503  0.95522380513E+01  0.26697005288E+02 -0.15958804169E+03  0.16208737889E+03  0.00000000000E+00 0.  1.
<mgrwt>
<rscale>  2 0.28354459E+02</rscale>
<asrwt>0</asrwt>
<pdfrwt beam="1">  1       21 0.58512384E-03 0.28354459E+02</pdfrwt>
<pdfrwt beam="2">  1       21 0.36853312E-01 0.28354459E+02</pdfrwt>
<totfact> 0.47755147E+07</totfact>
</mgrwt>
</event>
<event>
 4    1  0.4447136E+006  0.4416496E+02  0.7546771E-02  0.1479623E+00
         21   -1    0    0  503  501  0.00000000000E+00  0.00000000000E+00  0.70762525661E+02  0.70762525661E+02  0.00000000000E+00 0. -1.
         21   -1    0    0  501  502 -0.00000000000E+00 -0.00000000000E+00 -0.31182096560E+02  0.31182096560E+02  0.00000000000E+00 0. -1.
         21    1    1    2  503  504 -0.39189840812E+02 -0.20364182439E+02  0.37151557984E+02  0.57712925847E+02  0.00000000000E+00 0. -1.
         21    1    1    2  504  502  0.39189840812E+02  0.20364182439E+02  0.24288711171E+01  0.44231696374E+02  0.00000000000E+00 0. -1.
<mgrwt>
<rscale>  2 0.44164958E+02</rscale>
<asrwt>0</asrwt>
<pdfrwt beam="1">  1       21 0.10886542E-01 0.44164958E+02</pdfrwt>
<pdfrwt beam="2">  1       21 0.47972456E-02 0.44164958E+02</pdfrwt>
<totfact> 0.17353321E+07</totfact>
</mgrwt>
</event>
<event>
 4    1  0.4447136E+006  0.2578405E+02  0.7546771E-02  0.1649989E+00
         21   -1    0    0  503  501  0.00000000000E+00  0.00000000000E+00  0.52768350755E+02  0.52768350755E+02  0.00000000000E+00 0. -1.
         21   -1    0    0  504  502 -0.00000000000E+00 -0.00000000000E+00 -0.14643198270E+02  0.14643198270E+02  0.00000000000E+00 0. -1.
         21    1    1    2  503  502  0.66190087568E+01 -0.24919996191E+02  0.64683956010E+01  0.26583032723E+02  0.00000000000E+00 0. -1.
         21    1    1    2  504  501 -0.66190087568E+01  0.24919996191E+02  0.31656756883E+02  0.40828516302E+02  0.00000000000E+00 0. -1.
<mgrwt>
<rscale>  2 0.25784055E+02</rscale>
<asrwt>0</asrwt>
<pdfrwt beam="1">  1       21 0.81182077E-02 0.25784055E+02</pdfrwt>
<pdfrwt beam="2">  1       21 0.22527998E-02 0.25784055E+02</pdfrwt>
<totfact> 0.84330656E+07</totfact>
</mgrwt>
</event>
<event>
 4    1  0.4447136E+006  0.2168668E+02  0.7546771E-02  0.1713728E+00
         21   -1    0    0  503  501  0.00000000000E+00  0.00000000000E+00  0.96855725475E+02  0.96855725475E+02  0.00000000000E+00 0.  1.
         21   -1    0    0  504  502 -0.00000000000E+00 -0.00000000000E+00 -0.12040178263E+02  0.12040178263E+02  0.00000000000E+00 0. -1.
         21    1    1    2  503  502 -0.15506444874E+02  0.15161205229E+02  0.34870010004E+00  0.21689480593E+02  0.00000000000E+00 0. -1.
         21    1    1    2  504  501  0.15506444874E+02 -0.15161205229E+02  0.84466847112E+02  0.87206423145E+02  0.00000000000E+00 0.  1.
<mgrwt>
<rscale>  2 0.21686677E+02</rscale>
<asrwt>0</asrwt>
<pdfrwt beam="1">  1       21 0.14900880E-01 0.21686677E+02</pdfrwt>
<pdfrwt beam="2">  1       21 0.18523352E-02 0.21686677E+02</pdfrwt>
<totfact> 0.39588832E+07</totfact>
</mgrwt>
</event>
<event>
 4    1  0.4447136E+006  0.3207014E+02  0.7546771E-02  0.1576272E+00
         21   -1    0    0  503  501  0.00000000000E+00  0.00000000000E+00  0.30339721163E+02  0.30339721163E+02  0.00000000000E+00 0.  1.
         21   -1    0    0  504  502 -0.00000000000E+00 -0.00000000000E+00 -0.15921575753E+03  0.15921575753E+03  0.00000000000E+00 0. -1.
         21    1    1    2  503  502 -0.19047742580E+02  0.25800729961E+02 -0.14852280784E+03  0.15194577524E+03  0.00000000000E+00 0. -1.
         21    1    1    2  504  501  0.19047742580E+02 -0.25800729961E+02  0.19646771480E+02  0.37609703448E+02  0.00000000000E+00 0.  1.
<mgrwt>
<rscale>  2 0.32070144E+02</rscale>
<asrwt>0</asrwt>
<pdfrwt beam="1">  1       21 0.46676494E-02 0.32070144E+02</pdfrwt>
<pdfrwt beam="2">  1       21 0.24494732E-01 0.32070144E+02</pdfrwt>
<totfact> 0.42020090E+06</totfact>
</mgrwt>
</event>
<event>
 4    1  0.4447136E+006  0.2136457E+02  0.7546771E-02  0.1719479E+00
         21   -1    0    0  504  501  0.00000000000E+00  0.00000000000E+00  0.17306668517E+02  0.17306668517E+02  0.00000000000E+00 0.  1.
         21   -1    0    0  503  502 -0.00000000000E+00 -0.00000000000E+00 -0.35599530354E+02  0.35599530354E+02  0.00000000000E+00 0.  1.
         21    1    1    2  503  501 -0.18193093176E+02 -0.11200725368E+02  0.43199754585E+01  0.21796951072E+02  0.00000000000E+00 0.  1.
         21    1    1    2  504  502  0.18193093176E+02  0.11200725368E+02 -0.22612837296E+02  0.31109247799E+02  0.00000000000E+00 0.  1.
<mgrwt>
<rscale>  2 0.21364571E+02</rscale>
<asrwt>0</asrwt>
<pdfrwt beam="1">  1       21 0.26625644E-02 0.21364571E+02</pdfrwt>
<pdfrwt beam="2">  1       21 0.54768508E-02 0.21364571E+02</pdfrwt>
<totfact> 0.11671822E+08</totfact>
</mgrwt>
</event>
<event>
 4    1  0.4447136E+006  0.2415347E+02  0.7546771E-02  0.1673467E+00
         21   -1    0    0  503  501  0.00000000000E+00  0.00000000000E+00  0.54860038309E+01  0.54860038309E+01  0.00000000000E+00 0. -1.
         21   -1    0    0  504  502 -0.00000000000E+00 -0.00000000000E+00 -0.10769078963E+03  0.10769078963E+03  0.00000000000E+00 0. -1.
         21    1    1    2  503  502  0.23719662043E+02  0.45571761533E+01 -0.57436429402E+02  0.62308375395E+02  0.00000000000E+00 0. -1.
         21    1    1    2  504  501 -0.23719662043E+02 -0.45571761533E+01 -0.44768356392E+02  0.50868418061E+02  0.00000000000E+00 0. -1.
<mgrwt>
<rscale>  2 0.24153472E+02</rscale>
<asrwt>0</asrwt>
<pdfrwt beam="1">  1       21 0.84400063E-03 0.24153472E+02</pdfrwt>
<pdfrwt beam="2">  1       21 0.16567813E-01 0.24153472E+02</pdfrwt>
<totfact> 0.11152122E+08</totfact>
</mgrwt>
</event>
<event>
 4    1  0.4447136E+006  0.2322194E+02  0.7546771E-02  0.1687938E+00
         21   -1    0    0  503  501  0.00000000000E+00  0.00000000000E+00  0.11282604551E+02  0.11282604551E+02  0.00000000000E+00 0. -1.
         21   -1    0    0  501  502 -0.00000000000E+00 -0.00000000000E+00 -0.22189803831E+03  0.22189803831E+03  0.00000000000E+00 0.  1.
         21    1    1    2  503  504  0.22621219520E+01 -0.23111492192E+02 -0.20343681076E+01  0.23310875587E+02  0.00000000000E+00 0. -1.
         21    1    1    2  504  502 -0.22621219520E+01  0.23111492192E+02 -0.20858106565E+03  0.20986976727E+03  0.00000000000E+00 0.  1.
<mgrwt>
<rscale>  2 0.23221935E+02</rscale>
<asrwt>0</asrwt>
<pdfrwt beam="1">  1       21 0.17357854E-02 0.23221935E+02</pdfrwt>
<pdfrwt beam="2">  1       21 0.34138159E-01 0.23221935E+02</pdfrwt>
<totfact> 0.10265300E+07</totfact>
</mgrwt>
</event>
<event>
 4    1  0.4447136E+006  0.2988557E+02  0.7546771E-02  0.1599357E+00
         21   -1    0    0  504  501  0.00000000000E+00  0.00000000000E+00  0.14613817854E+03  0.14613817854E+03  0.00000000000E+00 0. -1.
         21   -1    0    0  503  502 -0.00000000000E+00 -0.00000000000E+00 -0.61196487632E+01  0.61196487632E+01  0.00000000000E+00 0. -1.
         21    1    1    2  503  501 -0.26135500657E+02 -0.14494242232E+02  0.72759159029E+02  0.78657756611E+02  0.00000000000E+00 0. -1.
         21    1    1    2  504  502  0.26135500657E+02  0.14494242232E+02  0.67259370743E+02  0.73600070688E+02  0.00000000000E+00 0. -1.
<mgrwt>
<rscale>  2 0.29885573E+02</rscale>
<asrwt>0</asrwt>
<pdfrwt beam="1">  1       21 0.22482794E-01 0.29885573E+02</pdfrwt>
<pdfrwt beam="2">  1       21 0.94148454E-03 0.29885573E+02</pdfrwt>
<totfact> 0.58408128E+07</totfact>
</mgrwt>
</event>
<event>
 4    1  0.4447136E+006  0.3035922E+02  0.7546771E-02  0.1594152E+00
         21   -1    0    0  504  501  0.00000000000E+00  0.00000000000E+00  0.11751486564E+01  0.11751486564E+01  0.00000000000E+00 0.  1.
         21   -1    0    0  501  502 -0.00000000000E+00 -0.00000000000E+00 -0.82232136208E+03  0.82232136208E+03  0.00000000000E+00 0.  1.
         21    1    1    2  503  502  0.12032819685E+01  0.30335362769E+02 -0.49909719842E+03  0.50001969521E+03  0.00000000000E+00 0.  1.
         21    1    1    2  504  503 -0.12032819685E+01 -0.30335362769E+02 -0.32204901500E+03  0.32347681553E+03  0.00000000000E+00 0.  1.
<mgrwt>
<rscale>  2 0.30359218E+02</rscale>
<asrwt>0</asrwt>
<pdfrwt beam="1">  1       21 0.18079140E-03 0.30359218E+02</pdfrwt>
<pdfrwt beam="2">  1       21 0.12651147E+00 0.30359218E+02</pdfrwt>
<totfact> 0.21049281E+07</totfact>
</mgrwt>
</event>
<event>
 4    1  0.4447136E+006  0.2731419E+02  0.7546771E-02  0.1629827E+00
         21   -1    0    0  504  501  0.00000000000E+00  0.00000000000E+00  0.10191646085E+03  0.10191646085E+03  0.00000000000E+00 0.  1.
         21   -1    0    0  503  502 -0.00000000000E+00 -0.00000000000E+00 -0.10709698319E+02  0.10709698319E+02  0.00000000000E+00 0.  1.
         21    1    1    2  503  501 -0.27208020008E+02 -0.24059330288E+01  0.77282881345E+02  0.81967729110E+02  0.00000000000E+00 0.  1.
         21    1    1    2  504  502  0.27208020008E+02  0.24059330288E+01  0.13923881189E+02  0.30658430061E+02  0.00000000000E+00 0.  1.
<mgrwt>
<rscale>  2 0.27314188E+02</rscale>
<asrwt>0</asrwt>
<pdfrwt beam="1">  1       21 0.15679455E-01 0.27314188E+02</pdfrwt>
<pdfrwt beam="2">  1       21 0.16476460E-02 0.27314188E+02</pdfrwt>
<totfact> 0.45872020E+07</totfact>
</mgrwt>
</event>
<event>
 4    1  0.4447136E+006  0.2115709E+02  0.7546771E-02  0.1723251E+00
         21   -1    0    0  503  501  0.00000000000E+00  0.00000000000E+00  0.19477055065E+02  0.19477055065E+02  0.00000000000E+00 0.  1.
         21   -1    0    0  504  502 -0.00000000000E+00 -0.00000000000E+00 -0.25362533674E+02  0.25362533674E+02  0.00000000000E+00 0. -1.
         21    1    1    2  503  502  0.50847393043E+01  0.20536992991E+02  0.39258555958E+01  0.21518248002E+02  0.00000000000E+00 0.  1.
         21    1    1    2  504  501 -0.50847393043E+01 -0.20536992991E+02 -0.98113342055E+01  0.23321340737E+02  0.00000000000E+00 0. -1.
<mgrwt>
<rscale>  2 0.21157095E+02</rscale>
<asrwt>0</asrwt>
<pdfrwt beam="1">  1       21 0.29964700E-02 0.21157095E+02</pdfrwt>
<pdfrwt beam="2">  1       21 0.39019283E-02 0.21157095E+02</pdfrwt>
<totfact> 0.16565803E+08</totfact>
</mgrwt>
</event>
<event>
 4    1  0.4447136E+006  0.2550029E+02  0.7546771E-02  0.1653918E+00
         21   -1    0    0  503  501  0.00000000000E+00  0.00000000000E+00  0.25822929474E+02  0.25822929474E+02  0.00000000000E+00 0. -1.
         21   -1    0    0  501  502 -0.00000000000E+00 -0.00000000000E+00 -0.15644942971E+03  0.15644942971E+03  0.00000000000E+00 0.  1.
         21    1    1    2  503  504 -0.22332275549E+02 -0.12309935443E+02  0.18166824417E+02  0.31309719756E+02  0.00000000000E+00 0. -1.
         21    1    1    2  504  502  0.22332275549E+02  0.12309935443E+02 -0.14879332465E+03  0.15096263943E+03  0.00000000000E+00 0.  1.
<mgrwt>
<rscale>  2 0.25500295E+02</rscale>
<asrwt>0</asrwt>
<pdfrwt beam="1">  1       21 0.39727583E-02 0.25500295E+02</pdfrwt>
<pdfrwt beam="2">  1       21 0.24069143E-01 0.25500295E+02</pdfrwt>
<totfact> 0.54336783E+06</totfact>
</mgrwt>
</event>
<event>
 4    1  0.4447136E+006  0.2637016E+02  0.7546771E-02  0.1642067E+00
         21   -1    0    0  503  501  0.00000000000E+00  0.00000000000E+00  0.30324743568E+01  0.30324743568E+01  0.00000000000E+00 0.  1.
         21   -1    0    0  504  502 -0.00000000000E+00 -0.00000000000E+00 -0.28723579378E+03  0.28723579378E+03  0.00000000000E+00 0.  1.
         21    1    1    2  503  502 -0.18720496237E+02 -0.18572251229E+02 -0.20727581404E+03  0.20894652086E+03  0.00000000000E+00 0.  1.
         21    1    1    2  504  501  0.18720496237E+02  0.18572251229E+02 -0.76927505383E+02  0.81321747273E+02  0.00000000000E+00 0.  1.
<mgrwt>
<rscale>  2 0.26370163E+02</rscale>
<asrwt>0</asrwt>
<pdfrwt beam="1">  1       21 0.46653424E-03 0.26370163E+02</pdfrwt>
<pdfrwt beam="2">  1       21 0.44190149E-01 0.26370163E+02</pdfrwt>
<totfact> 0.46606975E+07</totfact>
</mgrwt>
</event>
<event>
 4    1  0.4447136E+006  0.2159611E+02  0.7546771E-02  0.1715332E+00
         21   -1    0    0  504  501  0.00000000000E+00  0.00000000000E+00  0.17987783068E+01  0.17987783068E+01  0.00000000000E+00 0.  1.
         21   -1    0    0  503  502 -0.00000000000E+00 -0.00000000000E+00 -0.28533775546E+03  0.28533775546E+03  0.00000000000E+00 0.  1.
         21    1    1    2  503  501 -0.21594646073E+02 -0.25149409642E+00 -0.98385913490E+02  0.10072824808E+03  0.00000000000E+00 0.  1.
         21    1    1    2  504  502  0.21594646073E+02  0.25149409642E+00 -0.18515306366E+03  0.18640828569E+03  0.00000000000E+00 0.  1.
<mgrwt>
<rscale>  2 0.21596110E+02</rscale>
<asrwt>0</asrwt>
<pdfrwt beam="1">  1       21 0.27673497E-03 0.21596110E+02</pdfrwt>
<pdfrwt beam="2">  1       21 0.43898141E-01 0.21596110E+02</pdfrwt>
<totfact> 0.96666923E+07</totfact>
</mgrwt>
</event>
<event>
 4    1  0.4447136E+006  0.2775812E+02  0.7546771E-02  0.1624279E+00
         21   -1    0    0  503  501  0.00000000000E+00  0.00000000000E+00  0.65230505722E+02  0.65230505722E+02  0.00000000000E+00 0. -1.
         21   -1    0    0  504  502 -0.00000000000E+00 -0.00000000000E+00 -0.14042330150E+02  0.14042330150E+02  0.00000000000E+00 0. -1.
         21    1    1    2  503  502 -0.33031936615E+01 -0.27560881702E+02  0.97982148220E+01  0.29436682935E+02  0.00000000000E+00 0. -1.
         21    1    1    2  504  501  0.33031936615E+01  0.27560881702E+02  0.41389960750E+02  0.49836152936E+02  0.00000000000E+00 0. -1.
<mgrwt>
<rscale>  2 0.27758121E+02</rscale>
<asrwt>0</asrwt>
<pdfrwt beam="1">  1       21 0.10035462E-01 0.27758121E+02</pdfrwt>
<pdfrwt beam="2">  1       21 0.21603585E-02 0.27758121E+02</pdfrwt>
<totfact> 0.64549412E+07</totfact>
</mgrwt>
</event>
<event>
 4    1  0.4447136E+006  0.7619092E+02  0.7546771E-02  0.1340222E+00
         21   -1    0    0  503  501  0.00000000000E+00  0.00000000000E+00  0.71028292734E+03  0.71028292734E+03  0.00000000000E+00 0.  1.
         21   -1    0    0  501  502 -0.00000000000E+00 -0.00000000000E+00 -0.19347961681E+03  0.19347961681E+03  0.00000000000E+00 0.  1.
         21    1    1    2  503  504 -0.69574299021E+01 -0.75872596619E+02  0.70063586813E+03  0.70476639851E+03  0.00000000000E+00 0.  1.
         21    1    1    2  504  502  0.69574299021E+01  0.75872596619E+02 -0.18383255761E+03  0.19899614565E+03  0.00000000000E+00 0.  1.
<mgrwt>
<rscale>  2 0.76190923E+02</rscale>
<asrwt>0</asrwt>
<pdfrwt beam="1">  1       21 0.10927430E+00 0.76190923E+02</pdfrwt>
<pdfrwt beam="2">  1       21 0.29766095E-01 0.76190923E+02</pdfrwt>
<totfact> 0.81010221E+03</totfact>
</mgrwt>
</event>
<event>
 4    1  0.4447136E+006  0.2287873E+02  0.7546771E-02  0.1693484E+00
         21   -1    0    0  503  501  0.00000000000E+00  0.00000000000E+00  0.14005334067E+03  0.14005334067E+03  0.00000000000E+00 0. -1.
         21   -1    0    0  504  502 -0.00000000000E+00 -0.00000000000E+00 -0.98926161799E+01  0.98926161799E+01  0.00000000000E+00 0.  1.
         21    1    1    2  503  502  0.12521259534E+02 -0.19148214968E+02  0.12421891036E+03  0.12630824901E+03  0.00000000000E+00 0. -1.
         21    1    1    2  504  501 -0.12521259534E+02  0.19148214968E+02  0.59418141290E+01  0.23637707840E+02  0.00000000000E+00 0.  1.
<mgrwt>
<rscale>  2 0.22878725E+02</rscale>
<asrwt>0</asrwt>
<pdfrwt beam="1">  1       21 0.21546666E-01 0.22878725E+02</pdfrwt>
<pdfrwt beam="2">  1       21 0.15219410E-02 0.22878725E+02</pdfrwt>
<totfact> 0.28624969E+07</totfact>
</mgrwt>
</event>
<event>
 4    1  0.4447136E+006  0.2976712E+02  0.7546771E-02  0.1600677E+00
         21   -1    0    0  503  501  0.00000000000E+00  0.00000000000E+00  0.33455565910E+03  0.33455565910E+03  0.00000000000E+00 0. -1.
         21   -1    0    0  501  502 -0.00000000000E+00 -0.00000000000E+00 -0.10400371540E+03  0.10400371540E+03  0.00000000000E+00 0. -1.
         21    1    1    2  503  504  0.15889309219E+02 -0.25171635998E+02  0.33174559331E+03  0.33307839931E+03  0.00000000000E+00 0. -1.
         21    1    1    2  504  502 -0.15889309219E+02  0.25171635998E+02 -0.10119364961E+03  0.10548097519E+03  0.00000000000E+00 0. -1.
<mgrwt>
<rscale>  2 0.29767120E+02</rscale>
<asrwt>0</asrwt>
<pdfrwt beam="1">  1       21 0.51470101E-01 0.29767120E+02</pdfrwt>
<pdfrwt beam="2">  1       21 0.16000572E-01 0.29767120E+02</pdfrwt>
<totfact> 0.13357263E+05</totfact>
</mgrwt>
</event>
<event>
 4    1  0.4447136E+006  0.2017274E+02  0.7546771E-02  0.1741915E+00
         21   -1    0    0  503  501  0.00000000000E+00  0.00000000000E+00  0.14773706508E+04  0.14773706508E+04  0.00000000000E+00 0. -1.
         21   -1    0    0  501  502 -0.00000000000E+00 -0.00000000000E+00 -0.11116143877E+02  0.11116143877E+02  0.00000000000E+00 0. -1.
         21    1    1    2  503  504  0.49042368505E+01 -0.19567523500E+02  0.14680919549E+04  0.14682305430E+04  0.00000000000E+00 0. -1.
         21    1    1    2  504  502 -0.49042368505E+01  0.19567523500E+02 -0.18374479702E+01  0.20256251629E+02  0.00000000000E+00 0. -1.
<mgrwt>
<rscale>  2 0.20172742E+02</rscale>
<asrwt>0</asrwt>
<pdfrwt beam="1">  1       21 0.22728764E+00 0.20172742E+02</pdfrwt>
<pdfrwt beam="2">  1       21 0.17101772E-02 0.20172742E+02</pdfrwt>
<totfact> 0.17148327E+05</totfact>
</mgrwt>
</event>
<event>
 4    1  0.4447136E+006  0.2040872E+02  0.7546771E-02  0.1737320E+00
         21   -1    0    0  503  501  0.00000000000E+00  0.00000000000E+00  0.22350364088E+01  0.22350364088E+01  0.00000000000E+00 0.  1.
         21   -1    0    0  501  502 -0.00000000000E+00 -0.00000000000E+00 -0.23110360346E+03  0.23110360346E+03  0.00000000000E+00 0.  1.
         21    1    1    2  503  504  0.14810143575E+02  0.14041920693E+02 -0.63097255939E+02  0.66315756774E+02  0.00000000000E+00 0.  1.
         21    1    1    2  504  502 -0.14810143575E+02 -0.14041920693E+02 -0.16577131112E+03  0.16702288310E+03  0.00000000000E+00 0.  1.
<mgrwt>
<rscale>  2 0.20408721E+02</rscale>
<asrwt>0</asrwt>
<pdfrwt beam="1">  1       21 0.34385192E-03 0.20408721E+02</pdfrwt>
<pdfrwt beam="2">  1       21 0.35554384E-01 0.20408721E+02</pdfrwt>
<totfact> 0.10305522E+08</totfact>
</mgrwt>
</event>
<event>
 4    1  0.4447136E+006  0.2117435E+02  0.7546771E-02  0.1722935E+00
         21   -1    0    0  504  501  0.00000000000E+00  0.00000000000E+00  0.19137209789E+04  0.19137209789E+04  0.00000000000E+00 0. -1.
         21   -1    0    0  501  502 -0.00000000000E+00 -0.00000000000E+00 -0.37527886305E+00  0.37527886305E+00  0.00000000000E+00 0. -1.
         21    1    1    2  503  502 -0.16744513595E+02 -0.12960499947E+02  0.37004982523E+03  0.37065513142E+03  0.00000000000E+00 0. -1.
         21    1    1    2  504  503  0.16744513595E+02  0.12960499947E+02  0.15432958749E+04  0.15434411264E+04  0.00000000000E+00 0. -1.
<mgrwt>
<rscale>  2 0.21174355E+02</rscale>
<asrwt>0</asrwt>
<pdfrwt beam="1">  1       21 0.29441080E+00 0.21174355E+02</pdfrwt>
<pdfrwt beam="2">  1       21 0.57736742E-04 0.21174355E+02</pdfrwt>
<totfact> 0.11222604E+07</totfact>
</mgrwt>
</event>
<event>
 4    1  0.4447136E+006  0.2081048E+02  0.7546771E-02  0.1729675E+00
         21   -1    0    0  504  501  0.00000000000E+00  0.00000000000E+00  0.17190279748E+02  0.17190279748E+02  0.00000000000E+00 0. -1.
         21   -1    0    0  503  502 -0.00000000000E+00 -0.00000000000E+00 -0.26014754153E+02  0.26014754153E+02  0.00000000000E+00 0. -1.
         21    1    1    2  503  501  0.41645328649E+01  0.20389523317E+02 -0.57299236808E+00  0.20818364857E+02  0.00000000000E+00 0. -1.
         21    1    1    2  504  502 -0.41645328649E+01 -0.20389523317E+02 -0.82514820363E+01  0.22386669044E+02  0.00000000000E+00 0. -1.
<mgrwt>
<rscale>  2 0.20810478E+02</rscale>
<asrwt>0</asrwt>
<pdfrwt beam="1">  1       21 0.26446584E-02 0.20810478E+02</pdfrwt>
<pdfrwt beam="2">  1       21 0.40022698E-02 0.20810478E+02</pdfrwt>
<totfact> 0.19212736E+08</totfact>
</mgrwt>
</event>
<event>
 4    1  0.4447136E+006  0.5494139E+02  0.7546771E-02  0.1420376E+00
         21   -1    0    0  502  501  0.00000000000E+00  0.00000000000E+00  0.16166789650E+03  0.16166789650E+03  0.00000000000E+00 0. -1.
         21   -1    0    0  504  502 -0.00000000000E+00 -0.00000000000E+00 -0.62288789814E+02  0.62288789814E+02  0.00000000000E+00 0.  1.
         21    1    1    2  503  501 -0.53506065518E+02  0.12476254454E+02  0.14339379163E+03  0.15355889896E+03  0.00000000000E+00 0. -1.
         21    1    1    2  504  503  0.53506065518E+02 -0.12476254454E+02 -0.44014684949E+02  0.70397787348E+02  0.00000000000E+00 0.  1.
<mgrwt>
<rscale>  2 0.54941387E+02</rscale>
<asrwt>0</asrwt>
<pdfrwt beam="1">  1       21 0.24871984E-01 0.54941387E+02</pdfrwt>
<pdfrwt beam="2">  1       21 0.95828908E-02 0.54941387E+02</pdfrwt>
<totfact> 0.13016248E+06</totfact>
</mgrwt>
</event>
<event>
 4    1  0.4447136E+006  0.2116662E+02  0.7546771E-02  0.1723077E+00
         21   -1    0    0  503  501  0.00000000000E+00  0.00000000000E+00  0.13350498929E+03  0.13350498929E+03  0.00000000000E+00 0.  1.
         21   -1    0    0  501  502 -0.00000000000E+00 -0.00000000000E+00 -0.15978645085E+02  0.15978645085E+02  0.00000000000E+00 0.  1.
         21    1    1    2  503  504 -0.25566156966E+00 -0.21165076291E+02  0.12519421097E+03  0.12697092690E+03  0.00000000000E+00 0.  1.
         21    1    1    2  504  502  0.25566156966E+00  0.21165076291E+02 -0.76678667638E+01  0.22512707477E+02  0.00000000000E+00 0.  1.
<mgrwt>
<rscale>  2 0.21166620E+02</rscale>
<asrwt>0</asrwt>
<pdfrwt beam="1">  1       21 0.20539228E-01 0.21166620E+02</pdfrwt>
<pdfrwt beam="2">  1       21 0.24582532E-02 0.21166620E+02</pdfrwt>
<totfact> 0.14690131E+07</totfact>
</mgrwt>
</event>
<event>
 4    1  0.4447136E+006  0.2406701E+02  0.7546771E-02  0.1674776E+00
         21   -1    0    0  503  501  0.00000000000E+00  0.00000000000E+00  0.11247122730E+02  0.11247122730E+02  0.00000000000E+00 0.  1.
         21   -1    0    0  504  502 -0.00000000000E+00 -0.00000000000E+00 -0.82572295866E+03  0.82572295866E+03  0.00000000000E+00 0. -1.
         21    1    1    2  503  502  0.18369164346E+02  0.15549745808E+02 -0.20131975493E+01  0.24151061215E+02  0.00000000000E+00 0.  1.
         21    1    1    2  504  501 -0.18369164346E+02 -0.15549745808E+02 -0.81246263838E+03  0.81281902017E+03  0.00000000000E+00 0. -1.
<mgrwt>
<rscale>  2 0.24067006E+02</rscale>
<asrwt>0</asrwt>
<pdfrwt beam="1">  1       21 0.17303268E-02 0.24067006E+02</pdfrwt>
<pdfrwt beam="2">  1       21 0.12703429E+00 0.24067006E+02</pdfrwt>
<totfact> 0.70513082E+05</totfact>
</mgrwt>
</event>
<event>
 4    1  0.4447136E+006  0.3452743E+02  0.7546771E-02  0.1552838E+00
         21   -1    0    0  502  501  0.00000000000E+00  0.00000000000E+00  0.67528717352E+02  0.67528717352E+02  0.00000000000E+00 0. -1.
         21   -1    0    0  503  502 -0.00000000000E+00 -0.00000000000E+00 -0.20011466063E+02  0.20011466063E+02  0.00000000000E+00 0. -1.
         21    1    1    2  503  504 -0.30229504820E+02 -0.16682938417E+02  0.87350803312E+01  0.35615235845E+02  0.00000000000E+00 0. -1.
         21    1    1    2  504  501  0.30229504820E+02  0.16682938417E+02  0.38782170958E+02  0.51924947570E+02  0.00000000000E+00 0. -1.
<mgrwt>
<rscale>  2 0.34527430E+02</rscale>
<asrwt>0</asrwt>
<pdfrwt beam="1">  1       21 0.10389033E-01 0.34527430E+02</pdfrwt>
<pdfrwt beam="2">  1       21 0.30786871E-02 0.34527430E+02</pdfrwt>
<totfact> 0.36686265E+07</totfact>
</mgrwt>
</event>
<event>
 4    1  0.4447136E+006  0.6028427E+02  0.7546771E-02  0.1396643E+00
         21   -1    0    0  504  501  0.00000000000E+00  0.00000000000E+00  0.65074957663E+02  0.65074957663E+02  0.00000000000E+00 0. -1.
         21   -1    0    0  503  502 -0.00000000000E+00 -0.00000000000E+00 -0.70410224033E+02  0.70410224033E+02  0.00000000000E+00 0. -1.
         21    1    1    2  503  501 -0.55137859794E+02  0.24372323186E+02 -0.33477056858E+02  0.68955834097E+02  0.00000000000E+00 0. -1.
         21    1    1    2  504  502  0.55137859794E+02 -0.24372323186E+02  0.28141790488E+02  0.66529347599E+02  0.00000000000E+00 0. -1.
<mgrwt>
<rscale>  2 0.60284274E+02</rscale>
<asrwt>0</asrwt>
<pdfrwt beam="1">  1       21 0.10011532E-01 0.60284274E+02</pdfrwt>
<pdfrwt beam="2">  1       21 0.10832342E-01 0.60284274E+02</pdfrwt>
<totfact> 0.53229356E+06</totfact>
</mgrwt>
</event>
<event>
 4    1  0.4447136E+006  0.2384499E+02  0.7546771E-02  0.1678168E+00
         21   -1    0    0  503  501  0.00000000000E+00  0.00000000000E+00  0.48892339038E+03  0.48892339038E+03  0.00000000000E+00 0.  1.
         21   -1    0    0  501  502 -0.00000000000E+00 -0.00000000000E+00 -0.36613950270E+01  0.36613950270E+01  0.00000000000E+00 0.  1.
         21    1    1    2  503  504  0.37554310078E+01  0.23547404946E+02  0.44608412310E+03  0.44672097379E+03  0.00000000000E+00 0.  1.
         21    1    1    2  504  502 -0.37554310078E+01 -0.23547404946E+02  0.39177872249E+02  0.45863811614E+02  0.00000000000E+00 0.  1.
<mgrwt>
<rscale>  2 0.23844990E+02</rscale>
<asrwt>0</asrwt>
<pdfrwt beam="1">  1       21 0.75218931E-01 0.23844990E+02</pdfrwt>
<pdfrwt beam="2">  1       21 0.56329193E-03 0.23844990E+02</pdfrwt>
<totfact> 0.11960600E+07</totfact>
</mgrwt>
</event>
<event>
 4    1  0.4447136E+006  0.2141080E+02  0.7546771E-02  0.1718646E+00
         21   -1    0    0  503  501  0.00000000000E+00  0.00000000000E+00  0.98139114334E+01  0.98139114334E+01  0.00000000000E+00 0.  1.
         21   -1    0    0  504  502 -0.00000000000E+00 -0.00000000000E+00 -0.23214007872E+03  0.23214007872E+03  0.00000000000E+00 0. -1.
         21    1    1    2  503  502  0.10464180849E+02  0.18679486693E+02 -0.30405808028E+01  0.21625619889E+02  0.00000000000E+00 0.  1.
         21    1    1    2  504  501 -0.10464180849E+02 -0.18679486693E+02 -0.21928558648E+03  0.22032837026E+03  0.00000000000E+00 0. -1.
<mgrwt>
<rscale>  2 0.21410799E+02</rscale>
<asrwt>0</asrwt>
<pdfrwt beam="1">  1       21 0.15098326E-02 0.21410799E+02</pdfrwt>
<pdfrwt beam="2">  1       21 0.35713858E-01 0.21410799E+02</pdfrwt>
<totfact> 0.11497134E+07</totfact>
</mgrwt>
</event>
<event>
 4    1  0.4447136E+006  0.2913022E+02  0.7546771E-02  0.1607907E+00
         21   -1    0    0  502  501  0.00000000000E+00  0.00000000000E+00  0.13423845896E+02  0.13423845896E+02  0.00000000000E+00 0.  1.
         21   -1    0    0  503  502 -0.00000000000E+00 -0.00000000000E+00 -0.10223483212E+03  0.10223483212E+03  0.00000000000E+00 0. -1.
         21    1    1    2  503  504  0.58751397039E+01 -0.28531606138E+02 -0.80132710665E+02  0.85263246091E+02  0.00000000000E+00 0. -1.
         21    1    1    2  504  501 -0.58751397039E+01  0.28531606138E+02 -0.86782755612E+01  0.30395431928E+02  0.00000000000E+00 0.  1.
<mgrwt>
<rscale>  2 0.29130222E+02</rscale>
<asrwt>0</asrwt>
<pdfrwt beam="1">  1       21 0.20652070E-02 0.29130222E+02</pdfrwt>
<pdfrwt beam="2">  1       21 0.15728436E-01 0.29130222E+02</pdfrwt>
<totfact> 0.32671109E+07</totfact>
</mgrwt>
</event>
<event>
 4    1  0.4447136E+006  0.4131627E+02  0.7546771E-02  0.1498743E+00
         21   -1    0    0  502  501  0.00000000000E+00  0.00000000000E+00  0.98572792982E+02  0.98572792982E+02  0.00000000000E+00 0.  1.
         21   -1    0    0  504  502 -0.00000000000E+00 -0.00000000000E+00 -0.37862940326E+02  0.37862940326E+02  0.00000000000E+00 0.  1.
         21    1    1    2  503  501 -0.39186763485E+02  0.13093191476E+02  0.80606390294E+02  0.90578276930E+02  0.00000000000E+00 0.  1.
         21    1    1    2  504  503  0.39186763485E+02 -0.13093191476E+02 -0.19896537638E+02  0.45857456377E+02  0.00000000000E+00 0.  1.
<mgrwt>
<rscale>  2 0.41316269E+02</rscale>
<asrwt>0</asrwt>
<pdfrwt beam="1">  1       21 0.15165045E-01 0.41316269E+02</pdfrwt>
<pdfrwt beam="2">  1       21 0.58250678E-02 0.41316269E+02</pdfrwt>
<totfact> 0.70756563E+06</totfact>
</mgrwt>
</event>
<event>
 4    1  0.4447136E+006  0.2051574E+02  0.7546771E-02  0.1735262E+00
         21   -1    0    0  502  501  0.00000000000E+00  0.00000000000E+00  0.57474455154E+02  0.57474455154E+02  0.00000000000E+00 0.  1.
         21   -1    0    0  503  502 -0.00000000000E+00 -0.00000000000E+00 -0.92081220048E+01  0.92081220048E+01  0.00000000000E+00 0.  1.
         21    1    1    2  503  504 -0.15294063809E+02  0.13674325317E+02  0.90481328671E+01  0.22422405514E+02  0.00000000000E+00 0.  1.
         21    1    1    2  504  501  0.15294063809E+02 -0.13674325317E+02  0.39218200282E+02  0.44260171645E+02  0.00000000000E+00 0.  1.
<mgrwt>
<rscale>  2 0.20515739E+02</rscale>
<asrwt>0</asrwt>
<pdfrwt beam="1">  1       21 0.88422237E-02 0.20515739E+02</pdfrwt>
<pdfrwt beam="2">  1       21 0.14166342E-02 0.20515739E+02</pdfrwt>
<totfact> 0.13960900E+08</totfact>
</mgrwt>
</event>
<event>
 4    1  0.4447136E+006  0.2043610E+02  0.7546771E-02  0.1736792E+00
         21   -1    0    0  503  501  0.00000000000E+00  0.00000000000E+00  0.57943657618E+01  0.57943657618E+01  0.00000000000E+00 0. -1.
         21   -1    0    0  504  502 -0.00000000000E+00 -0.00000000000E+00 -0.22099508883E+03  0.22099508883E+03  0.00000000000E+00 0.  1.
         21    1    1    2  503  502  0.13238916600E+02  0.15568078819E+02 -0.20068476394E+03  0.20172260277E+03  0.00000000000E+00 0.  1.
         21    1    1    2  504  501 -0.13238916600E+02 -0.15568078819E+02 -0.14515959130E+02  0.25066851823E+02  0.00000000000E+00 0. -1.
<mgrwt>
<rscale>  2 0.20436095E+02</rscale>
<asrwt>0</asrwt>
<pdfrwt beam="1">  1       21 0.89144084E-03 0.20436095E+02</pdfrwt>
<pdfrwt beam="2">  1       21 0.33999246E-01 0.20436095E+02</pdfrwt>
<totfact> 0.27522114E+07</totfact>
</mgrwt>
</event>
<event>
 4    1  0.4447136E+006  0.2140744E+02  0.7546771E-02  0.1718706E+00
         21   -1    0    0  503  501  0.00000000000E+00  0.00000000000E+00  0.63832194313E+00  0.63832194313E+00  0.00000000000E+00 0.  1.
         21   -1    0    0  504  502 -0.00000000000E+00 -0.00000000000E+00 -0.71942336958E+03  0.71942336958E+03  0.00000000000E+00 0.  1.
         21    1    1    2  503  502  0.21389142376E+02  0.88486908652E+00 -0.37572742789E+03  0.37633678863E+03  0.00000000000E+00 0.  1.
         21    1    1    2  504  501 -0.21389142376E+02 -0.88486908652E+00 -0.34305761974E+03  0.34372490289E+03  0.00000000000E+00 0.  1.
<mgrwt>
<rscale>  2 0.21407438E+02</rscale>
<asrwt>0</asrwt>
<pdfrwt beam="1">  1       21 0.98203529E-04 0.21407438E+02</pdfrwt>
<pdfrwt beam="2">  1       21 0.11068035E+00 0.21407438E+02</pdfrwt>
<totfact> 0.64119040E+07</totfact>
</mgrwt>
</event>
<event>
 4    1  0.4447136E+006  0.2506328E+02  0.7546771E-02  0.1660095E+00
         21   -1    0    0  502  501  0.00000000000E+00  0.00000000000E+00  0.48371903494E+01  0.48371903494E+01  0.00000000000E+00 0. -1.
         21   -1    0    0  503  502 -0.00000000000E+00 -0.00000000000E+00 -0.38077906978E+03  0.38077906978E+03  0.00000000000E+00 0.  1.
         21    1    1    2  503  504  0.21034965093E+02 -0.13627113995E+02 -0.34448514939E+03  0.34539569503E+03  0.00000000000E+00 0.  1.
         21    1    1    2  504  501 -0.21034965093E+02  0.13627113995E+02 -0.31456730036E+02  0.40220565099E+02  0.00000000000E+00 0. -1.
<mgrwt>
<rscale>  2 0.25063280E+02</rscale>
<asrwt>0</asrwt>
<pdfrwt beam="1">  1       21 0.74418298E-03 0.25063280E+02</pdfrwt>
<pdfrwt beam="2">  1       21 0.58581407E-01 0.25063280E+02</pdfrwt>
<totfact> 0.13270550E+07</totfact>
</mgrwt>
</event>
<event>
 4    1  0.4447136E+006  0.2023546E+02  0.7546771E-02  0.1740686E+00
         21   -1    0    0  503  501  0.00000000000E+00  0.00000000000E+00  0.28214802274E+01  0.28214802274E+01  0.00000000000E+00 0.  1.
         21   -1    0    0  504  502 -0.00000000000E+00 -0.00000000000E+00 -0.17655627527E+03  0.17655627527E+03  0.00000000000E+00 0.  1.
         21    1    1    2  503  502  0.17904864814E+02 -0.94281355464E+01 -0.12470833056E+03  0.12633939067E+03  0.00000000000E+00 0.  1.
         21    1    1    2  504  501 -0.17904864814E+02  0.94281355464E+01 -0.49026464486E+02  0.53038364831E+02  0.00000000000E+00 0.  1.
<mgrwt>
<rscale>  2 0.20235462E+02</rscale>
<asrwt>0</asrwt>
<pdfrwt beam="1">  1       21 0.43407381E-03 0.20235462E+02</pdfrwt>
<pdfrwt beam="2">  1       21 0.27162509E-01 0.20235462E+02</pdfrwt>
<totfact> 0.11933242E+08</totfact>
</mgrwt>
</event>
<event>
 4    1  0.4447136E+006  0.3382695E+02  0.7546771E-02  0.1559271E+00
         21   -1    0    0  503  501  0.00000000000E+00  0.00000000000E+00  0.23124500025E+03  0.23124500025E+03  0.00000000000E+00 0.  1.
         21   -1    0    0  501  502 -0.00000000000E+00 -0.00000000000E+00 -0.83740080550E+01  0.83740080550E+01  0.00000000000E+00 0.  1.
         21    1    1    2  503  504  0.11215830138E+02  0.31913443331E+02  0.18806599552E+03  0.19108396422E+03  0.00000000000E+00 0.  1.
         21    1    1    2  504  502 -0.11215830138E+02 -0.31913443331E+02  0.34804996678E+02  0.48535044089E+02  0.00000000000E+00 0.  1.
<mgrwt>
<rscale>  2 0.33826952E+02</rscale>
<asrwt>0</asrwt>
<pdfrwt beam="1">  1       21 0.35576149E-01 0.33826952E+02</pdfrwt>
<pdfrwt beam="2">  1       21 0.12883091E-02 0.33826952E+02</pdfrwt>
<totfact> 0.15995593E+07</totfact>
</mgrwt>
</event>
<event>
 4    1  0.4447136E+006  0.2206408E+02  0.7546771E-02  0.1707146E+00
         21   -1    0    0  504  501  0.00000000000E+00  0.00000000000E+00  0.30519168370E+01  0.30519168370E+01  0.00000000000E+00 0.  1.
         21   -1    0    0  503  502 -0.00000000000E+00 -0.00000000000E+00 -0.17072112362E+03  0.17072112362E+03  0.00000000000E+00 0.  1.
         21    1    1    2  503  501  0.22059185306E+02  0.46471933757E+00 -0.61573081484E+02  0.65406941404E+02  0.00000000000E+00 0.  1.
         21    1    1    2  504  502 -0.22059185306E+02 -0.46471933757E+00 -0.10609612530E+03  0.10836609905E+03  0.00000000000E+00 0.  1.
<mgrwt>
<rscale>  2 0.22064080E+02</rscale>
<asrwt>0</asrwt>
<pdfrwt beam="1">  1       21 0.46952558E-03 0.22064080E+02</pdfrwt>
<pdfrwt beam="2">  1       21 0.26264793E-01 0.22064080E+02</pdfrwt>
<totfact> 0.11574877E+08</totfact>
</mgrwt>
</event>
<event>
 4    1  0.4447136E+006  0.2206423E+02  0.7546771E-02  0.1707144E+00
         21   -1    0    0  503  501  0.00000000000E+00  0.00000000000E+00  0.50250818015E+01  0.50250818015E+01  0.00000000000E+00 0. -1.
         21   -1    0    0  504  502 -0.00000000000E+00 -0.00000000000E+00 -0.18719603045E+03  0.18719603045E+03  0.00000000000E+00 0. -1.
         21    1    1    2  503  502 -0.15170475620E+02  0.16021453435E+02 -0.24327213573E+02  0.32842710316E+02  0.00000000000E+00 0. -1.
         21    1    1    2  504  501  0.15170475620E+02 -0.16021453435E+02 -0.15784373507E+03  0.15937840193E+03  0.00000000000E+00 0. -1.
<mgrwt>
<rscale>  2 0.22064231E+02</rscale>
<asrwt>0</asrwt>
<pdfrwt beam="1">  1       21 0.77308942E-03 0.22064231E+02</pdfrwt>
<pdfrwt beam="2">  1       21 0.28799392E-01 0.22064231E+02</pdfrwt>
<totfact> 0.46893236E+07</totfact>
</mgrwt>
</event>
<event>
 4    1  0.4447136E+006  0.2381447E+02  0.7546771E-02  0.1678638E+00
         21   -1    0    0  504  501  0.00000000000E+00  0.00000000000E+00  0.10033481587E+02  0.10033481587E+02  0.00000000000E+00 0. -1.
         21   -1    0    0  503  502 -0.00000000000E+00 -0.00000000000E+00 -0.10659049356E+03  0.10659049356E+03  0.00000000000E+00 0. -1.
         21    1    1    2  503  501  0.23749446869E+02  0.17585701322E+01 -0.88242952567E+02  0.91399931473E+02  0.00000000000E+00 0. -1.
         21    1    1    2  504  502 -0.23749446869E+02 -0.17585701322E+01 -0.83140594064E+01  0.25224043675E+02  0.00000000000E+00 0. -1.
<mgrwt>
<rscale>  2 0.23814466E+02</rscale>
<asrwt>0</asrwt>
<pdfrwt beam="1">  1       21 0.15436126E-02 0.23814466E+02</pdfrwt>
<pdfrwt beam="2">  1       21 0.16398537E-01 0.23814466E+02</pdfrwt>
<totfact> 0.45444064E+07</totfact>
</mgrwt>
</event>
<event>
 4    1  0.4447136E+006  0.2013453E+02  0.7546771E-02  0.1742666E+00
         21   -1    0    0  503  501  0.00000000000E+00  0.00000000000E+00  0.71182644918E+01  0.71182644918E+01  0.00000000000E+00 0. -1.
         21   -1    0    0  504  502 -0.00000000000E+00 -0.00000000000E+00 -0.10934188013E+03  0.10934188013E+03  0.00000000000E+00 0. -1.
         21    1    1    2  503  502 -0.13991517328E+02  0.14478830861E+02 -0.10805043374E+02  0.22850559348E+02  0.00000000000E+00 0. -1.
         21    1    1    2  504  501  0.13991517328E+02 -0.14478830861E+02 -0.91418572266E+02  0.93609585275E+02  0.00000000000E+00 0. -1.
<mgrwt>
<rscale>  2 0.20134525E+02</rscale>
<asrwt>0</asrwt>
<pdfrwt beam="1">  1       21 0.10951177E-02 0.20134525E+02</pdfrwt>
<pdfrwt beam="2">  1       21 0.16821827E-01 0.20134525E+02</pdfrwt>
<totfact> 0.69923302E+07</totfact>
</mgrwt>
</event>
<event>
 4    1  0.4447136E+006  0.2061585E+02  0.7546771E-02  0.1733351E+00
         21   -1    0    0  503  501  0.00000000000E+00  0.00000000000E+00  0.26175408302E+03  0.26175408302E+03  0.00000000000E+00 0. -1.
         21   -1    0    0  504  502 -0.00000000000E+00 -0.00000000000E+00 -0.52002435128E+01  0.52002435128E+01  0.00000000000E+00 0. -1.
         21    1    1    2  503  502  0.15666872087E+02  0.13400087820E+02  0.17582390346E+02  0.27095270526E+02  0.00000000000E+00 0. -1.
         21    1    1    2  504  501 -0.15666872087E+02 -0.13400087820E+02  0.23897144916E+03  0.23985905601E+03  0.00000000000E+00 0. -1.
<mgrwt>
<rscale>  2 0.20615849E+02</rscale>
<asrwt>0</asrwt>
<pdfrwt beam="1">  1       21 0.40269849E-01 0.20615849E+02</pdfrwt>
<pdfrwt beam="2">  1       21 0.80003767E-03 0.20615849E+02</pdfrwt>
<totfact> 0.23662453E+07</totfact>
</mgrwt>
</event>
<event>
 4    1  0.4447136E+006  0.2998958E+02  0.7546771E-02  0.1598204E+00
         21   -1    0    0  504  501  0.00000000000E+00  0.00000000000E+00  0.75495594219E+01  0.75495594219E+01  0.00000000000E+00 0. -1.
         21   -1    0    0  501  502 -0.00000000000E+00 -0.00000000000E+00 -0.13326483148E+03  0.13326483148E+03  0.00000000000E+00 0.  1.
         21    1    1    2  503  502 -0.24818507135E+02  0.16834977538E+02 -0.85788120536E+02  0.90878910591E+02  0.00000000000E+00 0.  1.
         21    1    1    2  504  503  0.24818507135E+02 -0.16834977538E+02 -0.39927151518E+02  0.49935480307E+02  0.00000000000E+00 0. -1.
<mgrwt>
<rscale>  2 0.29989578E+02</rscale>
<asrwt>0</asrwt>
<pdfrwt beam="1">  1       21 0.11614707E-02 0.29989578E+02</pdfrwt>
<pdfrwt beam="2">  1       21 0.20502281E-01 0.29989578E+02</pdfrwt>
<totfact> 0.50064139E+07</totfact>
</mgrwt>
</event>
<event>
 4    1  0.4447136E+006  0.2775201E+02  0.7546771E-02  0.1624355E+00
         21   -1    0    0  504  501  0.00000000000E+00  0.00000000000E+00  0.12561553633E+02  0.12561553633E+02  0.00000000000E+00 0. -1.
         21   -1    0    0  501  502 -0.00000000000E+00 -0.00000000000E+00 -0.34047551427E+03  0.34047551427E+03  0.00000000000E+00 0. -1.
         21    1    1    2  503  502 -0.24892623774E+02 -0.12269118687E+02 -0.32379375118E+03  0.32498087220E+03  0.00000000000E+00 0. -1.
         21    1    1    2  504  503  0.24892623774E+02  0.12269118687E+02 -0.41202094620E+01  0.28056195710E+02  0.00000000000E+00 0. -1.
<mgrwt>
<rscale>  2 0.27752009E+02</rscale>
<asrwt>0</asrwt>
<pdfrwt beam="1">  1       21 0.19325464E-02 0.27752009E+02</pdfrwt>
<pdfrwt beam="2">  1       21 0.52380856E-01 0.27752009E+02</pdfrwt>
<totfact> 0.39541016E+06</totfact>
</mgrwt>
</event>
<event>
 4    1  0.4447136E+006  0.2018735E+02  0.7546771E-02  0.1741628E+00
         21   -1    0    0  503  501  0.00000000000E+00  0.00000000000E+00  0.32316876852E+00  0.32316876852E+00  0.00000000000E+00 0. -1.
         21   -1    0    0  504  502 -0.00000000000E+00 -0.00000000000E+00 -0.12920782163E+04  0.12920782163E+04  0.00000000000E+00 0. -1.
         21    1    1    2  503  502  0.12669538372E+02 -0.15716609856E+02 -0.54572422822E+03  0.54609748424E+03  0.00000000000E+00 0. -1.
         21    1    1    2  504  501 -0.12669538372E+02  0.15716609856E+02 -0.74603081929E+03  0.74630390081E+03  0.00000000000E+00 0. -1.
<mgrwt>
<rscale>  2 0.20187348E+02</rscale>
<asrwt>0</asrwt>
<pdfrwt beam="1">  1       21 0.49717222E-04 0.20187348E+02</pdfrwt>
<pdfrwt beam="2">  1       21 0.19878546E+00 0.20187348E+02</pdfrwt>
<totfact> 0.41507318E+07</totfact>
</mgrwt>
</event>
<event>
 4    1  0.4447136E+006  0.2377144E+02  0.7546771E-02  0.1679302E+00
         21   -1    0    0  504  501  0.00000000000E+00  0.00000000000E+00  0.93165303737E+02  0.93165303737E+02  0.00000000000E+00 0. -1.
         21   -1    0    0  503  502 -0.00000000000E+00 -0.00000000000E+00 -0.63138294694E+01  0.63138294694E+01  0.00000000000E+00 0. -1.
         21    1    1    2  503  501 -0.22452255461E+02 -0.78088145673E+01  0.33558633019E+02  0.41124970642E+02  0.00000000000E+00 0. -1.
         21    1    1    2  504  502  0.22452255461E+02  0.78088145673E+01  0.53292841249E+02  0.58354162565E+02  0.00000000000E+00 0. -1.
<mgrwt>
<rscale>  2 0.23771440E+02</rscale>
<asrwt>0</asrwt>
<pdfrwt beam="1">  1       21 0.14333123E-01 0.23771440E+02</pdfrwt>
<pdfrwt beam="2">  1       21 0.97135845E-03 0.23771440E+02</pdfrwt>
<totfact> 0.11518967E+08</totfact>
</mgrwt>
</event>
<event>
 4    1  0.4447136E+006  0.2060804E+02  0.7546771E-02  0.1733500E+00
         21   -1    0    0  504  501  0.00000000000E+00  0.00000000000E+00  0.31320184611E+02  0.31320184611E+02  0.00000000000E+00 0.  1.
         21   -1    0    0  503  502 -0.00000000000E+00 -0.00000000000E+00 -0.56882335316E+02  0.56882335316E+02  0.00000000000E+00 0.  1.
         21    1    1    2  503  501  0.12293327757E+02  0.16539811772E+02  0.25706440961E+02  0.32947115013E+02  0.00000000000E+00 0.  1.
         21    1    1    2  504  502 -0.12293327757E+02 -0.16539811772E+02 -0.51268591665E+02  0.55255404914E+02  0.00000000000E+00 0.  1.
<mgrwt>
<rscale>  2 0.20608039E+02</rscale>
<asrwt>0</asrwt>
<pdfrwt beam="1">  1       21 0.48184900E-02 0.20608039E+02</pdfrwt>
<pdfrwt beam="2">  1       21 0.87511284E-02 0.20608039E+02</pdfrwt>
<totfact> 0.21481461E+07</totfact>
</mgrwt>
</event>
<event>
 4    1  0.4447136E+006  0.2324654E+02  0.7546771E-02  0.1687545E+00
         21   -1    0    0  503  501  0.00000000000E+00  0.00000000000E+00  0.36109528256E+02  0.36109528256E+02  0.00000000000E+00 0. -1.
         21   -1    0    0  504  502 -0.00000000000E+00 -0.00000000000E+00 -0.31565874015E+02  0.31565874015E+02  0.00000000000E+00 0. -1.
         21    1    1    2  503  502 -0.13065076385E+02  0.19227725489E+02  0.26810396876E+02  0.35485194505E+02  0.00000000000E+00 0. -1.
         21    1    1    2  504  501  0.13065076385E+02 -0.19227725489E+02 -0.22266742635E+02  0.32190207766E+02  0.00000000000E+00 0. -1.
<mgrwt>
<rscale>  2 0.23246541E+02</rscale>
<asrwt>0</asrwt>
<pdfrwt beam="1">  1       21 0.55553120E-02 0.23246541E+02</pdfrwt>
<pdfrwt beam="2">  1       21 0.48562883E-02 0.23246541E+02</pdfrwt>
<totfact> 0.45542401E+07</totfact>
</mgrwt>
</event>
<event>
 4    1  0.4447136E+006  0.2708769E+02  0.7546771E-02  0.1632708E+00
         21   -1    0    0  502  501  0.00000000000E+00  0.00000000000E+00  0.13344635152E+03  0.13344635152E+03  0.00000000000E+00 0.  1.
         21   -1    0    0  504  502 -0.00000000000E+00 -0.00000000000E+00 -0.51225931161E+02  0.51225931161E+02  0.00000000000E+00 0.  1.
         21    1    1    2  503  501 -0.91318980847E+01  0.25501985733E+02  0.12835020229E+03  0.13117742667E+03  0.00000000000E+00 0.  1.
         21    1    1    2  504  503  0.91318980847E+01 -0.25501985733E+02 -0.46129781931E+02  0.53494856014E+02  0.00000000000E+00 0.  1.
<mgrwt>
<rscale>  2 0.27087688E+02</rscale>
<asrwt>0</asrwt>
<pdfrwt beam="1">  1       21 0.20530208E-01 0.27087688E+02</pdfrwt>
<pdfrwt beam="2">  1       21 0.78809126E-02 0.27087688E+02</pdfrwt>
<totfact> 0.24104987E+06</totfact>
</mgrwt>
</event>
<event>
 4    1  0.4447136E+006  0.2286653E+02  0.7546771E-02  0.1693683E+00
         21   -1    0    0  504  501  0.00000000000E+00  0.00000000000E+00  0.33504905788E+02  0.33504905788E+02  0.00000000000E+00 0.  1.
         21   -1    0    0  503  502 -0.00000000000E+00 -0.00000000000E+00 -0.27984519424E+02  0.27984519424E+02  0.00000000000E+00 0. -1.
         21    1    1    2  503  501 -0.17933520302E+02 -0.14186863202E+02  0.23207942268E+02  0.32580466881E+02  0.00000000000E+00 0.  1.
         21    1    1    2  504  502  0.17933520302E+02  0.14186863202E+02 -0.17687555903E+02  0.28908958330E+02  0.00000000000E+00 0. -1.
<mgrwt>
<rscale>  2 0.22866531E+02</rscale>
<asrwt>0</asrwt>
<pdfrwt beam="1">  1       21 0.51546008E-02 0.22866531E+02</pdfrwt>
<pdfrwt beam="2">  1       21 0.43053107E-02 0.22866531E+02</pdfrwt>
<totfact> 0.61856628E+07</totfact>
</mgrwt>
</event>
<event>
 4    1  0.4447136E+006  0.3515417E+02  0.7546771E-02  0.1547236E+00
         21   -1    0    0  502  501  0.00000000000E+00  0.00000000000E+00  0.26054615873E+03  0.26054615873E+03  0.00000000000E+00 0.  1.
         21   -1    0    0  503  502 -0.00000000000E+00 -0.00000000000E+00 -0.92648033056E+01  0.92648033056E+01  0.00000000000E+00 0.  1.
         21    1    1    2  503  504 -0.32658960971E+02 -0.13008000432E+02  0.31395537928E+02  0.47132744549E+02  0.00000000000E+00 0.  1.
         21    1    1    2  504  501  0.32658960971E+02  0.13008000432E+02  0.21988581749E+03  0.22267821748E+03  0.00000000000E+00 0.  1.
<mgrwt>
<rscale>  2 0.35154172E+02</rscale>
<asrwt>0</asrwt>
<pdfrwt beam="1">  1       21 0.40084019E-01 0.35154172E+02</pdfrwt>
<pdfrwt beam="2">  1       21 0.14253546E-02 0.35154172E+02</pdfrwt>
<totfact> 0.10980562E+07</totfact>
</mgrwt>
</event>
<event>
 4    1  0.4447136E+006  0.2311495E+02  0.7546771E-02  0.1689654E+00
         21   -1    0    0  503  501  0.00000000000E+00  0.00000000000E+00  0.17342496794E+02  0.17342496794E+02  0.00000000000E+00 0. -1.
         21   -1    0    0  504  502 -0.00000000000E+00 -0.00000000000E+00 -0.33746387036E+02  0.33746387036E+02  0.00000000000E+00 0. -1.
         21    1    1    2  503  502 -0.50041083493E+01 -0.22566787560E+02 -0.15738629702E+02  0.27964360641E+02  0.00000000000E+00 0. -1.
         21    1    1    2  504  501  0.50041083493E+01  0.22566787560E+02 -0.66526054042E+00  0.23124523190E+02  0.00000000000E+00 0. -1.
<mgrwt>
<rscale>  2 0.23114952E+02</rscale>
<asrwt>0</asrwt>
<pdfrwt beam="1">  1       21 0.26680765E-02 0.23114952E+02</pdfrwt>
<pdfrwt beam="2">  1       21 0.51917518E-02 0.23114952E+02</pdfrwt>
<totfact> 0.12971099E+08</totfact>
</mgrwt>
</event>
<event>
 4    1  0.4447136E+006  0.5033949E+02  0.7546771E-02  0.1443519E+00
         21   -1    0    0  504  501  0.00000000000E+00  0.00000000000E+00  0.54502794930E+01  0.54502794930E+01  0.00000000000E+00 0.  1.
         21   -1    0    0  503  502 -0.00000000000E+00 -0.00000000000E+00 -0.91239760055E+03  0.91239760055E+03  0.00000000000E+00 0.  1.
         21    1    1    2  503  501 -0.66049448822E+01  0.49904300114E+02 -0.77485715254E+03  0.77649061250E+03  0.00000000000E+00 0.  1.
         21    1    1    2  504  502  0.66049448822E+01 -0.49904300114E+02 -0.13209016852E+03  0.14135726754E+03  0.00000000000E+00 0.  1.
<mgrwt>
<rscale>  2 0.50339492E+02</rscale>
<asrwt>0</asrwt>
<pdfrwt beam="1">  1       21 0.83850431E-03 0.50339492E+02</pdfrwt>
<pdfrwt beam="2">  1       21 0.14036890E+00 0.50339492E+02</pdfrwt>
<totfact> 0.17469036E+06</totfact>
</mgrwt>
</event>
<event>
 4    1  0.4447136E+006  0.2777546E+02  0.7546771E-02  0.1624065E+00
         21   -1    0    0  502  501  0.00000000000E+00  0.00000000000E+00  0.14477950028E+03  0.14477950028E+03  0.00000000000E+00 0. -1.
         21   -1    0    0  504  502 -0.00000000000E+00 -0.00000000000E+00 -0.12248592205E+03  0.12248592205E+03  0.00000000000E+00 0. -1.
         21    1    1    2  503  501 -0.20858861558E+02 -0.18340771598E+02  0.14184040057E+03  0.14453433931E+03  0.00000000000E+00 0. -1.
         21    1    1    2  504  503  0.20858861558E+02  0.18340771598E+02 -0.11954682234E+03  0.12273108302E+03  0.00000000000E+00 0. -1.
<mgrwt>
<rscale>  2 0.27775457E+02</rscale>
<asrwt>0</asrwt>
<pdfrwt beam="1">  1       21 0.22273769E-01 0.27775457E+02</pdfrwt>
<pdfrwt beam="2">  1       21 0.18843988E-01 0.27775457E+02</pdfrwt>
<totfact> 0.47903573E+05</totfact>
</mgrwt>
</event>
<event>
 4    1  0.4447136E+006  0.2013216E+02  0.7546771E-02  0.1742713E+00
         21   -1    0    0  504  501  0.00000000000E+00  0.00000000000E+00  0.49648606040E+02  0.49648606040E+02  0.00000000000E+00 0.  1.
         21   -1    0    0  501  502 -0.00000000000E+00 -0.00000000000E+00 -0.81654020251E+01  0.81654020251E+01  0.00000000000E+00 0.  1.
         21    1    1    2  503  502  0.67076920968E+01  0.18981847522E+02  0.21189113116E+02  0.29228106050E+02  0.00000000000E+00 0.  1.
         21    1    1    2  504  503 -0.67076920968E+01 -0.18981847522E+02  0.20294090899E+02  0.28585902015E+02  0.00000000000E+00 0.  1.
<mgrwt>
<rscale>  2 0.20132155E+02</rscale>
<asrwt>0</asrwt>
<pdfrwt beam="1">  1       21 0.76382469E-02 0.20132155E+02</pdfrwt>
<pdfrwt beam="2">  1       21 0.12562157E-02 0.20132155E+02</pdfrwt>
<totfact> 0.21102064E+08</totfact>
</mgrwt>
</event>
<event>
 4    1  0.4447136E+006  0.2470293E+02  0.7546771E-02  0.1665306E+00
         21   -1    0    0  502  501  0.00000000000E+00  0.00000000000E+00  0.10056436647E+03  0.10056436647E+03  0.00000000000E+00 0.  1.
         21   -1    0    0  504  502 -0.00000000000E+00 -0.00000000000E+00 -0.23966744113E+02  0.23966744113E+02  0.00000000000E+00 0. -1.
         21    1    1    2  503  501  0.23406685873E+02 -0.78969507259E+01  0.92107622133E+02  0.95362722431E+02  0.00000000000E+00 0.  1.
         21    1    1    2  504  503 -0.23406685873E+02  0.78969507259E+01 -0.15509999777E+02  0.29168388152E+02  0.00000000000E+00 0. -1.
<mgrwt>
<rscale>  2 0.24702930E+02</rscale>
<asrwt>0</asrwt>
<pdfrwt beam="1">  1       21 0.15471441E-01 0.24702930E+02</pdfrwt>
<pdfrwt beam="2">  1       21 0.36871915E-02 0.24702930E+02</pdfrwt>
<totfact> 0.13154672E+07</totfact>
</mgrwt>
</event>
<event>
 4    1  0.4447136E+006  0.3300458E+02  0.7546771E-02  0.1567070E+00
         21   -1    0    0  504  501  0.00000000000E+00  0.00000000000E+00  0.31528993409E+03  0.31528993409E+03  0.00000000000E+00 0. -1.
         21   -1    0    0  501  502 -0.00000000000E+00 -0.00000000000E+00 -0.19641038479E+02  0.19641038479E+02  0.00000000000E+00 0. -1.
         21    1    1    2  503  502  0.16917422322E+02 -0.28339075470E+02 -0.42003420743E+01  0.33270786736E+02  0.00000000000E+00 0. -1.
         21    1    1    2  504  503 -0.16917422322E+02  0.28339075470E+02  0.29984923768E+03  0.30166018583E+03  0.00000000000E+00 0. -1.
<mgrwt>
<rscale>  2 0.33004581E+02</rscale>
<asrwt>0</asrwt>
<pdfrwt beam="1">  1       21 0.48506140E-01 0.33004581E+02</pdfrwt>
<pdfrwt beam="2">  1       21 0.30216985E-02 0.33004581E+02</pdfrwt>
<totfact> 0.23341747E+06</totfact>
</mgrwt>
</event>
<event>
 4    1  0.4447136E+006  0.2186212E+02  0.7546771E-02  0.1710648E+00
         21   -1    0    0  504  501  0.00000000000E+00  0.00000000000E+00  0.24408744120E+01  0.24408744120E+01  0.00000000000E+00 0.  1.
         21   -1    0    0  503  502 -0.00000000000E+00 -0.00000000000E+00 -0.20218069719E+03  0.20218069719E+03  0.00000000000E+00 0. -1.
         21    1    1    2  503  501 -0.21770311585E+02  0.20014592079E+01 -0.81711426949E+02  0.84585516488E+02  0.00000000000E+00 0.  1.
         21    1    1    2  504  502  0.21770311585E+02 -0.20014592079E+01 -0.11802839583E+03  0.12003605511E+03  0.00000000000E+00 0. -1.
<mgrwt>
<rscale>  2 0.21862120E+02</rscale>
<asrwt>0</asrwt>
<pdfrwt beam="1">  1       21 0.37551922E-03 0.21862120E+02</pdfrwt>
<pdfrwt beam="2">  1       21 0.31104716E-01 0.21862120E+02</pdfrwt>
<totfact> 0.11804718E+08</totfact>
</mgrwt>
</event>
<event>
 4    1  0.4447136E+006  0.2848205E+02  0.7546771E-02  0.1615500E+00
         21   -1    0    0  503  501  0.00000000000E+00  0.00000000000E+00  0.27377745236E+03  0.27377745236E+03  0.00000000000E+00 0. -1.
         21   -1    0    0  504  502 -0.00000000000E+00 -0.00000000000E+00 -0.59136843420E+02  0.59136843420E+02  0.00000000000E+00 0. -1.
         21    1    1    2  503  502  0.10133252489E+02  0.26618494028E+02  0.26955364249E+03  0.27105422559E+03  0.00000000000E+00 0. -1.
         21    1    1    2  504  501 -0.10133252489E+02 -0.26618494028E+02 -0.54913033550E+02  0.61860070191E+02  0.00000000000E+00 0. -1.
<mgrwt>
<rscale>  2 0.28482048E+02</rscale>
<asrwt>0</asrwt>
<pdfrwt beam="1">  1       21 0.42119607E-01 0.28482048E+02</pdfrwt>
<pdfrwt beam="2">  1       21 0.90979761E-02 0.28482048E+02</pdfrwt>
<totfact> 0.51211393E+05</totfact>
</mgrwt>
</event>
<event>
 4    1  0.4447136E+006  0.4457460E+02  0.7546771E-02  0.1477015E+00
         21   -1    0    0  502  501  0.00000000000E+00  0.00000000000E+00  0.30166334919E+03  0.30166334919E+03  0.00000000000E+00 0. -1.
         21   -1    0    0  504  502 -0.00000000000E+00 -0.00000000000E+00 -0.15490979965E+02  0.15490979965E+02  0.00000000000E+00 0. -1.
         21    1    1    2  503  501  0.32986276695E+02  0.29979995635E+02  0.26331439339E+03  0.26706060053E+03  0.00000000000E+00 0. -1.
         21    1    1    2  504  503 -0.32986276695E+02 -0.29979995635E+02  0.22857975835E+02  0.50093728627E+02  0.00000000000E+00 0. -1.
<mgrwt>
<rscale>  2 0.44574596E+02</rscale>
<asrwt>0</asrwt>
<pdfrwt beam="1">  1       21 0.46409742E-01 0.44574596E+02</pdfrwt>
<pdfrwt beam="2">  1       21 0.23832279E-02 0.44574596E+02</pdfrwt>
<totfact> 0.38072562E+06</totfact>
</mgrwt>
</event>
<event>
 4    1  0.4447136E+006  0.2867789E+02  0.7546771E-02  0.1613180E+00
         21   -1    0    0  504  501  0.00000000000E+00  0.00000000000E+00  0.16583186660E+01  0.16583186660E+01  0.00000000000E+00 0. -1.
         21   -1    0    0  503  502 -0.00000000000E+00 -0.00000000000E+00 -0.59943621189E+03  0.59943621189E+03  0.00000000000E+00 0. -1.
         21    1    1    2  503  501 -0.23659700459E+02 -0.16206164613E+02 -0.17400393917E+03  0.17635133128E+03  0.00000000000E+00 0. -1.
         21    1    1    2  504  502  0.23659700459E+02  0.16206164613E+02 -0.42377395406E+03  0.42474319928E+03  0.00000000000E+00 0. -1.
<mgrwt>
<rscale>  2 0.28677887E+02</rscale>
<asrwt>0</asrwt>
<pdfrwt beam="1">  1       21 0.25512614E-03 0.28677887E+02</pdfrwt>
<pdfrwt beam="2">  1       21 0.92220888E-01 0.28677887E+02</pdfrwt>
<totfact> 0.25685781E+07</totfact>
</mgrwt>
</event>
<event>
 4    1  0.4447136E+006  0.2465342E+02  0.7546771E-02  0.1666030E+00
         21   -1    0    0  503  501  0.00000000000E+00  0.00000000000E+00  0.16700521912E+02  0.16700521912E+02  0.00000000000E+00 0.  1.
         21   -1    0    0  504  502 -0.00000000000E+00 -0.00000000000E+00 -0.13145507411E+03  0.13145507411E+03  0.00000000000E+00 0.  1.
         21    1    1    2  503  502  0.17622391379E+02  0.17240714367E+02  0.56171065503E+01  0.25285228807E+02  0.00000000000E+00 0.  1.
         21    1    1    2  504  501 -0.17622391379E+02 -0.17240714367E+02 -0.12037165875E+03  0.12287036721E+03  0.00000000000E+00 0.  1.
<mgrwt>
<rscale>  2 0.24653416E+02</rscale>
<asrwt>0</asrwt>
<pdfrwt beam="1">  1       21 0.25693110E-02 0.24653416E+02</pdfrwt>
<pdfrwt beam="2">  1       21 0.20223858E-01 0.24653416E+02</pdfrwt>
<totfact> 0.14545806E+07</totfact>
</mgrwt>
</event>
<event>
 4    1  0.4447136E+006  0.3099067E+02  0.7546771E-02  0.1587389E+00
         21   -1    0    0  504  501  0.00000000000E+00  0.00000000000E+00  0.99477451909E+00  0.99477451909E+00  0.00000000000E+00 0. -1.
         21   -1    0    0  503  502 -0.00000000000E+00 -0.00000000000E+00 -0.25618106174E+04  0.25618106174E+04  0.00000000000E+00 0.  1.
         21    1    1    2  503  501 -0.35800073994E+01 -0.30783195351E+02 -0.22919300027E+04  0.22921395156E+04  0.00000000000E+00 0.  1.
         21    1    1    2  504  502  0.35800073994E+01  0.30783195351E+02 -0.26888584016E+03  0.27066587632E+03  0.00000000000E+00 0. -1.
<mgrwt>
<rscale>  2 0.30990669E+02</rscale>
<asrwt>0</asrwt>
<pdfrwt beam="1">  1       21 0.15304242E-03 0.30990669E+02</pdfrwt>
<pdfrwt beam="2">  1       21 0.39412423E+00 0.30990669E+02</pdfrwt>
<totfact> 0.85467533E+05</totfact>
</mgrwt>
</event>
<event>
 4    1  0.4447136E+006  0.2131968E+02  0.7546771E-02  0.1720290E+00
         21   -1    0    0  504  501  0.00000000000E+00  0.00000000000E+00  0.95080819041E+02  0.95080819041E+02  0.00000000000E+00 0.  1.
         21   -1    0    0  503  502 -0.00000000000E+00 -0.00000000000E+00 -0.29019808714E+02  0.29019808714E+02  0.00000000000E+00 0.  1.
         21    1    1    2  503  501  0.20826858678E+02 -0.45574862396E+01 -0.23679189439E+02  0.31862717017E+02  0.00000000000E+00 0.  1.
         21    1    1    2  504  502 -0.20826858678E+02  0.45574862396E+01  0.89740199767E+02  0.92237910738E+02  0.00000000000E+00 0.  1.
<mgrwt>
<rscale>  2 0.21319679E+02</rscale>
<asrwt>0</asrwt>
<pdfrwt beam="1">  1       21 0.14627818E-01 0.21319679E+02</pdfrwt>
<pdfrwt beam="2">  1       21 0.44645860E-02 0.21319679E+02</pdfrwt>
<totfact> 0.10394563E+07</totfact>
</mgrwt>
</event>
<event>
 4    1  0.4447136E+006  0.3066454E+02  0.7546771E-02  0.1590857E+00
         21   -1    0    0  503  501  0.00000000000E+00  0.00000000000E+00  0.45526100029E+02  0.45526100029E+02  0.00000000000E+00 0. -1.
         21   -1    0    0  504  502 -0.00000000000E+00 -0.00000000000E+00 -0.12930582376E+03  0.12930582376E+03  0.00000000000E+00 0.  1.
         21    1    1    2  503  502 -0.28694698227E+02 -0.10813341499E+02 -0.12202065078E+03  0.12581475779E+03  0.00000000000E+00 0.  1.
         21    1    1    2  504  501  0.28694698227E+02  0.10813341499E+02  0.38240927051E+02  0.49017165998E+02  0.00000000000E+00 0. -1.
<mgrwt>
<rscale>  2 0.30664541E+02</rscale>
<asrwt>0</asrwt>
<pdfrwt beam="1">  1       21 0.70040154E-02 0.30664541E+02</pdfrwt>
<pdfrwt beam="2">  1       21 0.19893203E-01 0.30664541E+02</pdfrwt>
<totfact> 0.31372573E+06</totfact>
</mgrwt>
</event>
<event>
 4    1  0.4447136E+006  0.2885702E+02  0.7546771E-02  0.1611078E+00
         21   -1    0    0  503  501  0.00000000000E+00  0.00000000000E+00  0.15608674508E+02  0.15608674508E+02  0.00000000000E+00 0. -1.
         21   -1    0    0  501  502 -0.00000000000E+00 -0.00000000000E+00 -0.54600182972E+02  0.54600182972E+02  0.00000000000E+00 0.  1.
         21    1    1    2  503  504  0.20654003377E+02 -0.20152906178E+02 -0.14184472161E+02  0.32154731120E+02  0.00000000000E+00 0. -1.
         21    1    1    2  504  502 -0.20654003377E+02  0.20152906178E+02 -0.24807036302E+02  0.38054126360E+02  0.00000000000E+00 0.  1.
<mgrwt>
<rscale>  2 0.28857018E+02</rscale>
<asrwt>0</asrwt>
<pdfrwt beam="1">  1       21 0.24013346E-02 0.28857018E+02</pdfrwt>
<pdfrwt beam="2">  1       21 0.84000281E-02 0.28857018E+02</pdfrwt>
<totfact> 0.74279347E+07</totfact>
</mgrwt>
</event>
<event>
 4    1  0.4447136E+006  0.3120124E+02  0.7546771E-02  0.1585178E+00
         21   -1    0    0  504  501  0.00000000000E+00  0.00000000000E+00  0.45817690200E+01  0.45817690200E+01  0.00000000000E+00 0. -1.
         21   -1    0    0  503  502 -0.00000000000E+00 -0.00000000000E+00 -0.55500835556E+03  0.55500835556E+03  0.00000000000E+00 0.  1.
         21    1    1    2  503  501 -0.23374081266E+02 -0.20668085134E+02 -0.55406614959E+02  0.63587816438E+02  0.00000000000E+00 0. -1.
         21    1    1    2  504  502  0.23374081266E+02  0.20668085134E+02 -0.49501997158E+03  0.49600230814E+03  0.00000000000E+00 0.  1.
<mgrwt>
<rscale>  2 0.31201241E+02</rscale>
<asrwt>0</asrwt>
<pdfrwt beam="1">  1       21 0.70488728E-03 0.31201241E+02</pdfrwt>
<pdfrwt beam="2">  1       21 0.85385932E-01 0.31201241E+02</pdfrwt>
<totfact> 0.68138023E+06</totfact>
</mgrwt>
</event>
<event>
 4    1  0.4447136E+006  0.2081773E+02  0.7546771E-02  0.1729539E+00
         21   -1    0    0  503  501  0.00000000000E+00  0.00000000000E+00  0.16775601033E+03  0.16775601033E+03  0.00000000000E+00 0. -1.
         21   -1    0    0  501  502 -0.00000000000E+00 -0.00000000000E+00 -0.80899730712E+01  0.80899730712E+01  0.00000000000E+00 0. -1.
         21    1    1    2  503  504  0.41440840362E+01  0.20401091666E+02  0.15237180830E+03  0.15378733998E+03  0.00000000000E+00 0. -1.
         21    1    1    2  504  502 -0.41440840362E+01 -0.20401091666E+02  0.72942289651E+01  0.22058643427E+02  0.00000000000E+00 0. -1.
<mgrwt>
<rscale>  2 0.20817732E+02</rscale>
<asrwt>0</asrwt>
<pdfrwt beam="1">  1       21 0.25808614E-01 0.20817732E+02</pdfrwt>
<pdfrwt beam="2">  1       21 0.12446114E-02 0.20817732E+02</pdfrwt>
<totfact> 0.27593354E+07</totfact>
</mgrwt>
</event>
<event>
 4    1  0.4447136E+006  0.2122969E+02  0.7546771E-02  0.1721925E+00
         21   -1    0    0  503  501  0.00000000000E+00  0.00000000000E+00  0.17608994582E+02  0.17608994582E+02  0.00000000000E+00 0.  1.
         21   -1    0    0  501  502 -0.00000000000E+00 -0.00000000000E+00 -0.42539877124E+02  0.42539877124E+02  0.00000000000E+00 0.  1.
         21    1    1    2  503  504 -0.18371341858E+02  0.10639245795E+02  0.65156150864E+01  0.22207048267E+02  0.00000000000E+00 0.  1.
         21    1    1    2  504  502  0.18371341858E+02 -0.10639245795E+02 -0.31446497629E+02  0.37941823439E+02  0.00000000000E+00 0.  1.
<mgrwt>
<rscale>  2 0.21229690E+02</rscale>
<asrwt>0</asrwt>
<pdfrwt beam="1">  1       21 0.27090761E-02 0.21229690E+02</pdfrwt>
<pdfrwt beam="2">  1       21 0.65445964E-02 0.21229690E+02</pdfrwt>
<totfact> 0.85282236E+07</totfact>
</mgrwt>
</event>
<event>
 4    1  0.4447136E+006  0.3182626E+02  0.7546771E-02  0.1578737E+00
         21   -1    0    0  503  501  0.00000000000E+00  0.00000000000E+00  0.44362421874E+02  0.44362421874E+02  0.00000000000E+00 0. -1.
         21   -1    0    0  501  502 -0.00000000000E+00 -0.00000000000E+00 -0.34670660181E+02  0.34670660181E+02  0.00000000000E+00 0. -1.
         21    1    1    2  503  504  0.60685565996E+01 -0.31242336643E+02  0.27936602189E+02  0.42348137148E+02  0.00000000000E+00 0. -1.
         21    1    1    2  504  502 -0.60685565996E+01  0.31242336643E+02 -0.18244840496E+02  0.36684944907E+02  0.00000000000E+00 0. -1.
<mgrwt>
<rscale>  2 0.31826262E+02</rscale>
<asrwt>0</asrwt>
<pdfrwt beam="1">  1       21 0.68249880E-02 0.31826262E+02</pdfrwt>
<pdfrwt beam="2">  1       21 0.53339477E-02 0.31826262E+02</pdfrwt>
<totfact> 0.30124336E+07</totfact>
</mgrwt>
</event>
<event>
 4    1  0.4447136E+006  0.4061834E+02  0.7546771E-02  0.1503710E+00
         21   -1    0    0  503  501  0.00000000000E+00  0.00000000000E+00  0.15759669693E+03  0.15759669693E+03  0.00000000000E+00 0. -1.
         21   -1    0    0  504  502 -0.00000000000E+00 -0.00000000000E+00 -0.13620076705E+03  0.13620076705E+03  0.00000000000E+00 0.  1.
         21    1    1    2  503  502 -0.39597796406E+02  0.90478755880E+01 -0.13044235964E+03  0.13662012561E+03  0.00000000000E+00 0.  1.
         21    1    1    2  504  501  0.39597796406E+02 -0.90478755880E+01  0.15183828952E+03  0.15717733837E+03  0.00000000000E+00 0. -1.
<mgrwt>
<rscale>  2 0.40618340E+02</rscale>
<asrwt>0</asrwt>
<pdfrwt beam="1">  1       21 0.24245646E-01 0.40618340E+02</pdfrwt>
<pdfrwt beam="2">  1       21 0.20953964E-01 0.40618340E+02</pdfrwt>
<totfact> 0.34515053E+05</totfact>
</mgrwt>
</event>
<event>
 4    1  0.4447136E+006  0.2423210E+02  0.7546771E-02  0.1672283E+00
         21   -1    0    0  503  501  0.00000000000E+00  0.00000000000E+00  0.15435389956E+02  0.15435389956E+02  0.00000000000E+00 0.  1.
         21   -1    0    0  504  502 -0.00000000000E+00 -0.00000000000E+00 -0.38064349634E+02  0.38064349634E+02  0.00000000000E+00 0.  1.
         21    1    1    2  503  502  0.23870087452E+02  0.41729533855E+01 -0.10667717146E+02  0.26476306465E+02  0.00000000000E+00 0.  1.
         21    1    1    2  504  501 -0.23870087452E+02 -0.41729533855E+01 -0.11961242533E+02  0.27023433125E+02  0.00000000000E+00 0.  1.
<mgrwt>
<rscale>  2 0.24232099E+02</rscale>
<asrwt>0</asrwt>
<pdfrwt beam="1">  1       21 0.23746754E-02 0.24232099E+02</pdfrwt>
<pdfrwt beam="2">  1       21 0.58560537E-02 0.24232099E+02</pdfrwt>
<totfact> 0.12991977E+08</totfact>
</mgrwt>
</event>
<event>
 4    1  0.4447136E+006  0.2055269E+02  0.7546771E-02  0.1734555E+00
         21   -1    0    0  503  501  0.00000000000E+00  0.00000000000E+00  0.82731645332E+01  0.82731645332E+01  0.00000000000E+00 0.  1.
         21   -1    0    0  504  502 -0.00000000000E+00 -0.00000000000E+00 -0.94373020332E+02  0.94373020332E+02  0.00000000000E+00 0.  1.
         21    1    1    2  503  502  0.13504795660E+02 -0.15493022789E+02 -0.82797491954E+01  0.22157786616E+02  0.00000000000E+00 0.  1.
         21    1    1    2  504  501 -0.13504795660E+02  0.15493022789E+02 -0.77820106604E+02  0.80488398249E+02  0.00000000000E+00 0.  1.
<mgrwt>
<rscale>  2 0.20552695E+02</rscale>
<asrwt>0</asrwt>
<pdfrwt beam="1">  1       21 0.12727945E-02 0.20552695E+02</pdfrwt>
<pdfrwt beam="2">  1       21 0.14518926E-01 0.20552695E+02</pdfrwt>
<totfact> 0.72054299E+07</totfact>
</mgrwt>
</event>
<event>
 4    1  0.4447136E+006  0.2800830E+02  0.7546771E-02  0.1621209E+00
         21   -1    0    0  504  501  0.00000000000E+00  0.00000000000E+00  0.23227214078E+03  0.23227214078E+03  0.00000000000E+00 0.  1.
         21   -1    0    0  501  502 -0.00000000000E+00 -0.00000000000E+00 -0.49957476437E+01  0.49957476437E+01  0.00000000000E+00 0.  1.
         21    1    1    2  503  502  0.54508115648E+01  0.27472779571E+02  0.46115315102E+02  0.53954492408E+02  0.00000000000E+00 0.  1.
         21    1    1    2  504  503 -0.54508115648E+01 -0.27472779571E+02  0.18116107803E+03  0.18331339602E+03  0.00000000000E+00 0.  1.
<mgrwt>
<rscale>  2 0.28008302E+02</rscale>
<asrwt>0</asrwt>
<pdfrwt beam="1">  1       21 0.35734167E-01 0.28008302E+02</pdfrwt>
<pdfrwt beam="2">  1       21 0.76857674E-03 0.28008302E+02</pdfrwt>
<totfact> 0.33561770E+07</totfact>
</mgrwt>
</event>
<event>
 4    1  0.4447136E+006  0.2372452E+02  0.7546771E-02  0.1680028E+00
         21   -1    0    0  503  501  0.00000000000E+00  0.00000000000E+00  0.45465964469E+02  0.45465964469E+02  0.00000000000E+00 0.  1.
         21   -1    0    0  504  502 -0.00000000000E+00 -0.00000000000E+00 -0.59926561192E+02  0.59926561192E+02  0.00000000000E+00 0.  1.
         21    1    1    2  503  502  0.13971536208E+02  0.19174173077E+02 -0.54169023671E+02  0.59136586498E+02  0.00000000000E+00 0.  1.
         21    1    1    2  504  501 -0.13971536208E+02 -0.19174173077E+02  0.39708426947E+02  0.46255939163E+02  0.00000000000E+00 0.  1.
<mgrwt>
<rscale>  2 0.23724518E+02</rscale>
<asrwt>0</asrwt>
<pdfrwt beam="1">  1       21 0.69947638E-02 0.23724518E+02</pdfrwt>
<pdfrwt beam="2">  1       21 0.92194709E-02 0.23724518E+02</pdfrwt>
<totfact> 0.11191677E+07</totfact>
</mgrwt>
</event>
<event>
 4    1  0.4447136E+006  0.2422377E+02  0.7546771E-02  0.1672408E+00
         21   -1    0    0  502  501  0.00000000000E+00  0.00000000000E+00  0.20767941492E+03  0.20767941492E+03  0.00000000000E+00 0. -1.
         21   -1    0    0  503  502 -0.00000000000E+00 -0.00000000000E+00 -0.98615085248E+01  0.98615085248E+01  0.00000000000E+00 0.  1.
         21    1    1    2  503  504  0.11696546224E+01 -0.24195514505E+02  0.70326442972E+01  0.25223978669E+02  0.00000000000E+00 0.  1.
         21    1    1    2  504  501 -0.11696546224E+01  0.24195514505E+02  0.19078526209E+03  0.19231694477E+03  0.00000000000E+00 0. -1.
<mgrwt>
<rscale>  2 0.24223770E+02</rscale>
<asrwt>0</asrwt>
<pdfrwt beam="1">  1       21 0.31950676E-01 0.24223770E+02</pdfrwt>
<pdfrwt beam="2">  1       21 0.15171553E-02 0.24223770E+02</pdfrwt>
<totfact> 0.14357241E+07</totfact>
</mgrwt>
</event>
<event>
 4    1  0.4447136E+006  0.2065244E+02  0.7546771E-02  0.1732656E+00
         21   -1    0    0  504  501  0.00000000000E+00  0.00000000000E+00  0.33442511209E+03  0.33442511209E+03  0.00000000000E+00 0.  1.
         21   -1    0    0  503  502 -0.00000000000E+00 -0.00000000000E+00 -0.37490807991E+01  0.37490807991E+01  0.00000000000E+00 0. -1.
         21    1    1    2  503  501 -0.38726929492E+01 -0.20286094896E+02  0.30268544109E+03  0.30338918841E+03  0.00000000000E+00 0.  1.
         21    1    1    2  504  502  0.38726929492E+01  0.20286094896E+02  0.27990590205E+02  0.34785004482E+02  0.00000000000E+00 0. -1.
<mgrwt>
<rscale>  2 0.20652443E+02</rscale>
<asrwt>0</asrwt>
<pdfrwt beam="1">  1       21 0.51449994E-01 0.20652443E+02</pdfrwt>
<pdfrwt beam="2">  1       21 0.57678192E-03 0.20652443E+02</pdfrwt>
<totfact> 0.24071332E+07</totfact>
</mgrwt>
</event>
<event>
 4    1  0.4447136E+006  0.3852591E+02  0.7546771E-02  0.1519348E+00
         21   -1    0    0  503  501  0.00000000000E+00  0.00000000000E+00  0.10906349383E+02  0.10906349383E+02  0.00000000000E+00 0.  1.
         21   -1    0    0  501  502 -0.00000000000E+00 -0.00000000000E+00 -0.20347460772E+04  0.20347460772E+04  0.00000000000E+00 0. -1.
         21    1    1    2  503  504  0.13778406165E+02 -0.35977792210E+02 -0.23890431501E+02  0.45332093775E+02  0.00000000000E+00 0.  1.
         21    1    1    2  504  502 -0.13778406165E+02  0.35977792210E+02 -0.19999492963E+04  0.20003203328E+04  0.00000000000E+00 0. -1.
<mgrwt>
<rscale>  2 0.38525913E+02</rscale>
<asrwt>0</asrwt>
<pdfrwt beam="1">  1       21 0.16779007E-02 0.38525913E+02</pdfrwt>
<pdfrwt beam="2">  1       21 0.31303772E+00 0.38525913E+02</pdfrwt>
<totfact> 0.61428695E+04</totfact>
</mgrwt>
</event>
<event>
 4    1  0.4447136E+006  0.2846625E+02  0.7546771E-02  0.1615688E+00
         21   -1    0    0  502  501  0.00000000000E+00  0.00000000000E+00  0.53002447383E+02  0.53002447383E+02  0.00000000000E+00 0.  1.
         21   -1    0    0  503  502 -0.00000000000E+00 -0.00000000000E+00 -0.77253205893E+02  0.77253205893E+02  0.00000000000E+00 0.  1.
         21    1    1    2  503  504 -0.24471447102E+02 -0.14542205486E+02 -0.70453845466E+02  0.75987313445E+02  0.00000000000E+00 0.  1.
         21    1    1    2  504  501  0.24471447102E+02  0.14542205486E+02  0.46203086956E+02  0.54268339830E+02  0.00000000000E+00 0.  1.
<mgrwt>
<rscale>  2 0.28466251E+02</rscale>
<asrwt>0</asrwt>
<pdfrwt beam="1">  1       21 0.81542227E-02 0.28466251E+02</pdfrwt>
<pdfrwt beam="2">  1       21 0.11885109E-01 0.28466251E+02</pdfrwt>
<totfact> 0.58826213E+06</totfact>
</mgrwt>
</event>
<event>
 4    1  0.4447136E+006  0.2533619E+02  0.7546771E-02  0.1656219E+00
         21   -1    0    0  503  501  0.00000000000E+00  0.00000000000E+00  0.42576652962E+02  0.42576652962E+02  0.00000000000E+00 0.  1.
         21   -1    0    0  504  502 -0.00000000000E+00 -0.00000000000E+00 -0.25879283941E+02  0.25879283941E+02  0.00000000000E+00 0.  1.
         21    1    1    2  503  502  0.20971263871E+02  0.14217199293E+02 -0.13765218562E+02  0.28834075434E+02  0.00000000000E+00 0.  1.
         21    1    1    2  504  501 -0.20971263871E+02 -0.14217199293E+02  0.30462587583E+02  0.39621861470E+02  0.00000000000E+00 0.  1.
<mgrwt>
<rscale>  2 0.25336193E+02</rscale>
<asrwt>0</asrwt>
<pdfrwt beam="1">  1       21 0.65502543E-02 0.25336193E+02</pdfrwt>
<pdfrwt beam="2">  1       21 0.39814283E-02 0.25336193E+02</pdfrwt>
<totfact> 0.48900636E+07</totfact>
</mgrwt>
</event>
<event>
 4    1  0.4447136E+006  0.2100209E+02  0.7546771E-02  0.1726105E+00
         21   -1    0    0  503  501  0.00000000000E+00  0.00000000000E+00  0.24680812578E+02  0.24680812578E+02  0.00000000000E+00 0. -1.
         21   -1    0    0  504  502 -0.00000000000E+00 -0.00000000000E+00 -0.18096417612E+02  0.18096417612E+02  0.00000000000E+00 0. -1.
         21    1    1    2  503  502 -0.42658333403E+01  0.20564300811E+02  0.56757006321E+01  0.21755490792E+02  0.00000000000E+00 0. -1.
         21    1    1    2  504  501  0.42658333403E+01 -0.20564300811E+02  0.90869433334E+00  0.21021739398E+02  0.00000000000E+00 0. -1.
<mgrwt>
<rscale>  2 0.21002090E+02</rscale>
<asrwt>0</asrwt>
<pdfrwt beam="1">  1       21 0.37970481E-02 0.21002090E+02</pdfrwt>
<pdfrwt beam="2">  1       21 0.27840642E-02 0.21002090E+02</pdfrwt>
<totfact> 0.19330013E+08</totfact>
</mgrwt>
</event>
<event>
 4    1  0.4447136E+006  0.3176231E+02  0.7546771E-02  0.1579388E+00
         21   -1    0    0  503  501  0.00000000000E+00  0.00000000000E+00  0.17982525294E+01  0.17982525294E+01  0.00000000000E+00 0. -1.
         21   -1    0    0  504  502 -0.00000000000E+00 -0.00000000000E+00 -0.11257217990E+04  0.11257217990E+04  0.00000000000E+00 0. -1.
         21    1    1    2  503  502  0.31479928836E+02 -0.42258986421E+01 -0.96125393415E+03  0.96177854522E+03  0.00000000000E+00 0. -1.
         21    1    1    2  504  501 -0.31479928836E+02  0.42258986421E+01 -0.16266961228E+03  0.16574150626E+03  0.00000000000E+00 0. -1.
<mgrwt>
<rscale>  2 0.31762307E+02</rscale>
<asrwt>0</asrwt>
<pdfrwt beam="1">  1       21 0.27665489E-03 0.31762307E+02</pdfrwt>
<pdfrwt beam="2">  1       21 0.17318756E+00 0.31762307E+02</pdfrwt>
<totfact> 0.53313021E+06</totfact>
</mgrwt>
</event>
<event>
 4    1  0.4447136E+006  0.3790186E+02  0.7546771E-02  0.1524245E+00
         21   -1    0    0  502  501  0.00000000000E+00  0.00000000000E+00  0.99600329198E+02  0.99600329198E+02  0.00000000000E+00 0.  1.
         21   -1    0    0  503  502 -0.00000000000E+00 -0.00000000000E+00 -0.24634583953E+02  0.24634583953E+02  0.00000000000E+00 0. -1.
         21    1    1    2  503  504  0.34818875684E+02  0.14973216516E+02 -0.25101508920E+01  0.37984894027E+02  0.00000000000E+00 0. -1.
         21    1    1    2  504  501 -0.34818875684E+02 -0.14973216516E+02  0.77475896137E+02  0.86250019125E+02  0.00000000000E+00 0.  1.
<mgrwt>
<rscale>  2 0.37901864E+02</rscale>
<asrwt>0</asrwt>
<pdfrwt beam="1">  1       21 0.15323127E-01 0.37901864E+02</pdfrwt>
<pdfrwt beam="2">  1       21 0.37899360E-02 0.37901864E+02</pdfrwt>
<totfact> 0.13773297E+07</totfact>
</mgrwt>
</event>
<event>
 4    1  0.4447136E+006  0.3369724E+02  0.7546771E-02  0.1560483E+00
         21   -1    0    0  502  501  0.00000000000E+00  0.00000000000E+00  0.29070698438E+03  0.29070698438E+03  0.00000000000E+00 0. -1.
         21   -1    0    0  504  502 -0.00000000000E+00 -0.00000000000E+00 -0.24916385459E+02  0.24916385459E+02  0.00000000000E+00 0.  1.
         21    1    1    2  503  501  0.30861048989E+02  0.13531434243E+02  0.27781037073E+03  0.27984657607E+03  0.00000000000E+00 0. -1.
         21    1    1    2  504  503 -0.30861048989E+02 -0.13531434243E+02 -0.12019771809E+02  0.35776793760E+02  0.00000000000E+00 0.  1.
<mgrwt>
<rscale>  2 0.33697241E+02</rscale>
<asrwt>0</asrwt>
<pdfrwt beam="1">  1       21 0.44724149E-01 0.33697241E+02</pdfrwt>
<pdfrwt beam="2">  1       21 0.38332903E-02 0.33697241E+02</pdfrwt>
<totfact> 0.18789147E+06</totfact>
</mgrwt>
</event>
<event>
 4    1  0.4447136E+006  0.2968600E+02  0.7546771E-02  0.1601586E+00
         21   -1    0    0  504  501  0.00000000000E+00  0.00000000000E+00  0.80493036250E+02  0.80493036250E+02  0.00000000000E+00 0.  1.
         21   -1    0    0  503  502 -0.00000000000E+00 -0.00000000000E+00 -0.22502849603E+02  0.22502849603E+02  0.00000000000E+00 0.  1.
         21    1    1    2  503  501 -0.28260826635E+02 -0.90875811719E+01  0.65896968897E+02  0.72274953915E+02  0.00000000000E+00 0.  1.
         21    1    1    2  504  502  0.28260826635E+02  0.90875811719E+01 -0.79067822497E+01  0.30720931938E+02  0.00000000000E+00 0.  1.
<mgrwt>
<rscale>  2 0.29685998E+02</rscale>
<asrwt>0</asrwt>
<pdfrwt beam="1">  1       21 0.12383544E-01 0.29685998E+02</pdfrwt>
<pdfrwt beam="2">  1       21 0.34619769E-02 0.29685998E+02</pdfrwt>
<totfact> 0.21997684E+07</totfact>
</mgrwt>
</event>
<event>
 4    1  0.4447136E+006  0.2126211E+02  0.7546771E-02  0.1721335E+00
         21   -1    0    0  504  501  0.00000000000E+00  0.00000000000E+00  0.63291416333E+02  0.63291416333E+02  0.00000000000E+00 0. -1.
         21   -1    0    0  503  502 -0.00000000000E+00 -0.00000000000E+00 -0.25958656210E+02  0.25958656210E+02  0.00000000000E+00 0. -1.
         21    1    1    2  503  501  0.15519554307E+02  0.14533442542E+02  0.56659026524E+02  0.60517128192E+02  0.00000000000E+00 0. -1.
         21    1    1    2  504  502 -0.15519554307E+02 -0.14533442542E+02 -0.19326266401E+02  0.28732944350E+02  0.00000000000E+00 0. -1.
<mgrwt>
<rscale>  2 0.21262115E+02</rscale>
<asrwt>0</asrwt>
<pdfrwt beam="1">  1       21 0.97371409E-02 0.21262115E+02</pdfrwt>
<pdfrwt beam="2">  1       21 0.39936394E-02 0.21262115E+02</pdfrwt>
<totfact> 0.24420401E+07</totfact>
</mgrwt>
</event>
<event>
 4    1  0.4447136E+006  0.2109875E+02  0.7546771E-02  0.1724321E+00
         21   -1    0    0  503  501  0.00000000000E+00  0.00000000000E+00  0.28020400622E+02  0.28020400622E+02  0.00000000000E+00 0. -1.
         21   -1    0    0  501  502 -0.00000000000E+00 -0.00000000000E+00 -0.44365581521E+02  0.44365581521E+02  0.00000000000E+00 0. -1.
         21    1    1    2  503  504 -0.17802280442E+02 -0.11324143981E+02  0.20824958645E+02  0.29645173779E+02  0.00000000000E+00 0. -1.
         21    1    1    2  504  502  0.17802280442E+02  0.11324143981E+02 -0.37170139544E+02  0.42740808364E+02  0.00000000000E+00 0. -1.
<mgrwt>
<rscale>  2 0.21098754E+02</rscale>
<asrwt>0</asrwt>
<pdfrwt beam="1">  1       21 0.43108309E-02 0.21098754E+02</pdfrwt>
<pdfrwt beam="2">  1       21 0.68254740E-02 0.21098754E+02</pdfrwt>
<totfact> 0.38542364E+07</totfact>
</mgrwt>
</event>
<event>
 4    1  0.4447136E+006  0.2077243E+02  0.7546771E-02  0.1730390E+00
         21   -1    0    0  504  501  0.00000000000E+00  0.00000000000E+00  0.30660602483E+02  0.30660602483E+02  0.00000000000E+00 0.  1.
         21   -1    0    0  503  502 -0.00000000000E+00 -0.00000000000E+00 -0.17899082415E+02  0.17899082415E+02  0.00000000000E+00 0. -1.
         21    1    1    2  503  501 -0.20477852279E+02  0.34858599957E+01  0.17605975657E+02  0.27229837177E+02  0.00000000000E+00 0.  1.
         21    1    1    2  504  502  0.20477852279E+02 -0.34858599957E+01 -0.48444555885E+01  0.21329847721E+02  0.00000000000E+00 0. -1.
<mgrwt>
<rscale>  2 0.20772425E+02</rscale>
<asrwt>0</asrwt>
<pdfrwt beam="1">  1       21 0.47170158E-02 0.20772425E+02</pdfrwt>
<pdfrwt beam="2">  1       21 0.27537050E-02 0.20772425E+02</pdfrwt>
<totfact> 0.13925758E+08</totfact>
</mgrwt>
</event>
<event>
 4    1  0.4447136E+006  0.4777498E+02  0.7546771E-02  0.1457726E+00
         21   -1    0    0  503  501  0.00000000000E+00  0.00000000000E+00  0.10738951555E+03  0.10738951555E+03  0.00000000000E+00 0.  1.
         21   -1    0    0  504  502 -0.00000000000E+00 -0.00000000000E+00 -0.30315990087E+02  0.30315990087E+02  0.00000000000E+00 0. -1.
         21    1    1    2  503  502 -0.46740602252E+02 -0.98876327823E+01  0.76181035682E+02  0.89922185130E+02  0.00000000000E+00 0.  1.
         21    1    1    2  504  501  0.46740602252E+02  0.98876327823E+01  0.89248978464E+00  0.47783320510E+02  0.00000000000E+00 0. -1.
<mgrwt>
<rscale>  2 0.47774985E+02</rscale>
<asrwt>0</asrwt>
<pdfrwt beam="1">  1       21 0.16521464E-01 0.47774985E+02</pdfrwt>
<pdfrwt beam="2">  1       21 0.46639985E-02 0.47774985E+02</pdfrwt>
<totfact> 0.89069620E+06</totfact>
</mgrwt>
</event>
<event>
 4    1  0.4447136E+006  0.2019183E+02  0.7546771E-02  0.1741540E+00
         21   -1    0    0  503  501  0.00000000000E+00  0.00000000000E+00  0.39572351330E+03  0.39572351330E+03  0.00000000000E+00 0. -1.
         21   -1    0    0  504  502 -0.00000000000E+00 -0.00000000000E+00 -0.37167041289E+02  0.37167041289E+02  0.00000000000E+00 0. -1.
         21    1    1    2  503  502  0.12314983861E+02  0.16001605309E+02  0.39270243942E+03  0.39322120508E+03  0.00000000000E+00 0. -1.
         21    1    1    2  504  501 -0.12314983861E+02 -0.16001605309E+02 -0.34145967409E+02  0.39669349506E+02  0.00000000000E+00 0. -1.
<mgrwt>
<rscale>  2 0.20191835E+02</rscale>
<asrwt>0</asrwt>
<pdfrwt beam="1">  1       21 0.60880538E-01 0.20191835E+02</pdfrwt>
<pdfrwt beam="2">  1       21 0.57180066E-02 0.20191835E+02</pdfrwt>
<totfact> 0.51960865E+05</totfact>
</mgrwt>
</event>
<event>
 4    1  0.4447136E+006  0.2710212E+02  0.7546771E-02  0.1632523E+00
         21   -1    0    0  504  501  0.00000000000E+00  0.00000000000E+00  0.32952329947E+01  0.32952329947E+01  0.00000000000E+00 0.  1.
         21   -1    0    0  503  502 -0.00000000000E+00 -0.00000000000E+00 -0.35905711314E+03  0.35905711314E+03  0.00000000000E+00 0.  1.
         21    1    1    2  503  501  0.24195698109E+02 -0.12210377959E+02 -0.66315183693E+02  0.71639575132E+02  0.00000000000E+00 0.  1.
         21    1    1    2  504  502 -0.24195698109E+02  0.12210377959E+02 -0.28944669646E+03  0.29071277101E+03  0.00000000000E+00 0.  1.
<mgrwt>
<rscale>  2 0.27102124E+02</rscale>
<asrwt>0</asrwt>
<pdfrwt beam="1">  1       21 0.50695892E-03 0.27102124E+02</pdfrwt>
<pdfrwt beam="2">  1       21 0.55239556E-01 0.27102124E+02</pdfrwt>
<totfact> 0.26798751E+07</totfact>
</mgrwt>
</event>
<event>
 4    1  0.4447136E+006  0.2568785E+02  0.7546771E-02  0.1651314E+00
         21   -1    0    0  503  501  0.00000000000E+00  0.00000000000E+00  0.15998821512E+03  0.15998821512E+03  0.00000000000E+00 0.  1.
         21   -1    0    0  501  502 -0.00000000000E+00 -0.00000000000E+00 -0.11973960687E+02  0.11973960687E+02  0.00000000000E+00 0.  1.
         21    1    1    2  503  504  0.25491554693E+02 -0.31695946921E+01  0.14362246220E+03  0.14590160156E+03  0.00000000000E+00 0.  1.
         21    1    1    2  504  502 -0.25491554693E+02  0.31695946921E+01  0.43917922419E+01  0.26060574251E+02  0.00000000000E+00 0.  1.
<mgrwt>
<rscale>  2 0.25687851E+02</rscale>
<asrwt>0</asrwt>
<pdfrwt beam="1">  1       21 0.24613570E-01 0.25687851E+02</pdfrwt>
<pdfrwt beam="2">  1       21 0.18421479E-02 0.25687851E+02</pdfrwt>
<totfact> 0.17307844E+07</totfact>
</mgrwt>
</event>
<event>
 4    1  0.4447136E+006  0.2143026E+02  0.7546771E-02  0.1718296E+00
         21   -1    0    0  502  501  0.00000000000E+00  0.00000000000E+00  0.64426705687E+02  0.64426705687E+02  0.00000000000E+00 0. -1.
         21   -1    0    0  504  502 -0.00000000000E+00 -0.00000000000E+00 -0.76375458511E+01  0.76375458511E+01  0.00000000000E+00 0. -1.
         21    1    1    2  503  501 -0.70323292306E+01  0.20243571972E+02  0.37698308492E+02  0.43363790468E+02  0.00000000000E+00 0. -1.
         21    1    1    2  504  503  0.70323292306E+01 -0.20243571972E+02  0.19090851343E+02  0.28700461070E+02  0.00000000000E+00 0. -1.
<mgrwt>
<rscale>  2 0.21430256E+02</rscale>
<asrwt>0</asrwt>
<pdfrwt beam="1">  1       21 0.99118005E-02 0.21430256E+02</pdfrwt>
<pdfrwt beam="2">  1       21 0.11750071E-02 0.21430256E+02</pdfrwt>
<totfact> 0.15552216E+08</totfact>
</mgrwt>
</event>
<event>
 4    1  0.4447136E+006  0.2509083E+02  0.7546771E-02  0.1659701E+00
         21   -1    0    0  504  501  0.00000000000E+00  0.00000000000E+00  0.95570837835E+02  0.95570837835E+02  0.00000000000E+00 0.  1.
         21   -1    0    0  503  502 -0.00000000000E+00 -0.00000000000E+00 -0.67065188857E+02  0.67065188857E+02  0.00000000000E+00 0. -1.
         21    1    1    2  503  501 -0.16206453255E+02 -0.19154651348E+02 -0.62968393084E+02  0.67783245149E+02  0.00000000000E+00 0. -1.
         21    1    1    2  504  502  0.16206453255E+02  0.19154651348E+02  0.91474042061E+02  0.94852781543E+02  0.00000000000E+00 0.  1.
<mgrwt>
<rscale>  2 0.25090831E+02</rscale>
<asrwt>0</asrwt>
<pdfrwt beam="1">  1       21 0.14703206E-01 0.25090831E+02</pdfrwt>
<pdfrwt beam="2">  1       21 0.10317721E-01 0.25090831E+02</pdfrwt>
<totfact> 0.27289662E+06</totfact>
</mgrwt>
</event>
<event>
 4    1  0.4447136E+006  0.2776251E+02  0.7546771E-02  0.1624225E+00
         21   -1    0    0  503  501  0.00000000000E+00  0.00000000000E+00  0.68441801502E+02  0.68441801502E+02  0.00000000000E+00 0.  1.
         21   -1    0    0  504  502 -0.00000000000E+00 -0.00000000000E+00 -0.11389177990E+02  0.11389177990E+02  0.00000000000E+00 0.  1.
         21    1    1    2  503  502 -0.27677024661E+02  0.21769334742E+01  0.32752691853E+02  0.42935947143E+02  0.00000000000E+00 0.  1.
         21    1    1    2  504  501  0.27677024661E+02 -0.21769334742E+01  0.24299931660E+02  0.36895032350E+02  0.00000000000E+00 0.  1.
<mgrwt>
<rscale>  2 0.27762506E+02</rscale>
<asrwt>0</asrwt>
<pdfrwt beam="1">  1       21 0.10529508E-01 0.27762506E+02</pdfrwt>
<pdfrwt beam="2">  1       21 0.17521813E-02 0.27762506E+02</pdfrwt>
<totfact> 0.82304766E+07</totfact>
</mgrwt>
</event>
<event>
 4    1  0.4447136E+006  0.2615055E+02  0.7546771E-02  0.1645006E+00
         21   -1    0    0  502  501  0.00000000000E+00  0.00000000000E+00  0.12574030865E+02  0.12574030865E+02  0.00000000000E+00 0. -1.
         21   -1    0    0  504  502 -0.00000000000E+00 -0.00000000000E+00 -0.58194774337E+02  0.58194774337E+02  0.00000000000E+00 0. -1.
         21    1    1    2  503  501  0.21115062280E+02  0.15427424253E+02 -0.13758000591E+02  0.29548838462E+02  0.00000000000E+00 0. -1.
         21    1    1    2  504  503 -0.21115062280E+02 -0.15427424253E+02 -0.31862742881E+02  0.41219966740E+02  0.00000000000E+00 0. -1.
<mgrwt>
<rscale>  2 0.26150550E+02</rscale>
<asrwt>0</asrwt>
<pdfrwt beam="1">  1       21 0.19344663E-02 0.26150550E+02</pdfrwt>
<pdfrwt beam="2">  1       21 0.89530422E-02 0.26150550E+02</pdfrwt>
<totfact> 0.91143212E+07</totfact>
</mgrwt>
</event>
<event>
 4    1  0.4447136E+006  0.2011789E+02  0.7546771E-02  0.1742994E+00
         21   -1    0    0  504  501  0.00000000000E+00  0.00000000000E+00  0.26233484924E+03  0.26233484924E+03  0.00000000000E+00 0.  1.
         21   -1    0    0  503  502 -0.00000000000E+00 -0.00000000000E+00 -0.28595875636E+01  0.28595875636E+01  0.00000000000E+00 0.  1.
         21    1    1    2  503  501 -0.58179666277E+01  0.19258266976E+02  0.21971658964E+03  0.22063569373E+03  0.00000000000E+00 0.  1.
         21    1    1    2  504  502  0.58179666277E+01 -0.19258266976E+02  0.39758672036E+02  0.44558743078E+02  0.00000000000E+00 0.  1.
<mgrwt>
<rscale>  2 0.20117892E+02</rscale>
<asrwt>0</asrwt>
<pdfrwt beam="1">  1       21 0.40359188E-01 0.20117892E+02</pdfrwt>
<pdfrwt beam="2">  1       21 0.43993676E-03 0.20117892E+02</pdfrwt>
<totfact> 0.56593767E+07</totfact>
</mgrwt>
</event>
<event>
 4    1  0.4447136E+006  0.2355429E+02  0.7546771E-02  0.1682680E+00
         21   -1    0    0  504  501  0.00000000000E+00  0.00000000000E+00  0.22398065646E+03  0.22398065646E+03  0.00000000000E+00 0. -1.
         21   -1    0    0  503  502 -0.00000000000E+00 -0.00000000000E+00 -0.14243724481E+02  0.14243724481E+02  0.00000000000E+00 0.  1.
         21    1    1    2  503  501  0.22286532918E+02 -0.76233255916E+01 -0.33924870654E+01  0.23797344622E+02  0.00000000000E+00 0.  1.
         21    1    1    2  504  502 -0.22286532918E+02  0.76233255916E+01  0.21312941905E+03  0.21442703632E+03  0.00000000000E+00 0. -1.
<mgrwt>
<rscale>  2 0.23554291E+02</rscale>
<asrwt>0</asrwt>
<pdfrwt beam="1">  1       21 0.34458560E-01 0.23554291E+02</pdfrwt>
<pdfrwt beam="2">  1       21 0.21913424E-02 0.23554291E+02</pdfrwt>
<totfact> 0.70748061E+06</totfact>
</mgrwt>
</event>
<event>
 4    1  0.4447136E+006  0.4790664E+02  0.7546771E-02  0.1456971E+00
         21   -1    0    0  504  501  0.00000000000E+00  0.00000000000E+00  0.38567427332E+03  0.38567427332E+03  0.00000000000E+00 0. -1.
         21   -1    0    0  501  502 -0.00000000000E+00 -0.00000000000E+00 -0.13856834529E+03  0.13856834529E+03  0.00000000000E+00 0. -1.
         21    1    1    2  503  502  0.30089841006E+02 -0.37277978715E+02 -0.13287826189E+03  0.14125041137E+03  0.00000000000E+00 0. -1.
         21    1    1    2  504  503 -0.30089841006E+02  0.37277978715E+02  0.37998418991E+03  0.38299220724E+03  0.00000000000E+00 0. -1.
<mgrwt>
<rscale>  2 0.47906641E+02</rscale>
<asrwt>0</asrwt>
<pdfrwt beam="1">  1       21 0.59334503E-01 0.47906641E+02</pdfrwt>
<pdfrwt beam="2">  1       21 0.21318207E-01 0.47906641E+02</pdfrwt>
<totfact> 0.59577377E+04</totfact>
</mgrwt>
</event>
<event>
 4    1  0.4447136E+006  0.2487262E+02  0.7546771E-02  0.1662838E+00
         21   -1    0    0  503  501  0.00000000000E+00  0.00000000000E+00  0.17906375775E+03  0.17906375775E+03  0.00000000000E+00 0. -1.
         21   -1    0    0  501  502 -0.00000000000E+00 -0.00000000000E+00 -0.30889272969E+02  0.30889272969E+02  0.00000000000E+00 0.  1.
         21    1    1    2  503  504  0.24480252797E+02 -0.44005036186E+01  0.17301902531E+03  0.17479768399E+03  0.00000000000E+00 0. -1.
         21    1    1    2  504  502 -0.24480252797E+02  0.44005036186E+01 -0.24844540533E+02  0.35155346726E+02  0.00000000000E+00 0.  1.
<mgrwt>
<rscale>  2 0.24872620E+02</rscale>
<asrwt>0</asrwt>
<pdfrwt beam="1">  1       21 0.27548270E-01 0.24872620E+02</pdfrwt>
<pdfrwt beam="2">  1       21 0.47521959E-02 0.24872620E+02</pdfrwt>
<totfact> 0.31976032E+06</totfact>
</mgrwt>
</event>
<event>
 4    1  0.4447136E+006  0.2344134E+02  0.7546771E-02  0.1684454E+00
         21   -1    0    0  504  501  0.00000000000E+00  0.00000000000E+00  0.53399476370E+02  0.53399476370E+02  0.00000000000E+00 0.  1.
         21   -1    0    0  503  502 -0.00000000000E+00 -0.00000000000E+00 -0.49385418333E+02  0.49385418333E+02  0.00000000000E+00 0.  1.
         21    1    1    2  503  501  0.21458192016E+02 -0.94362335875E+01  0.47732818225E+02  0.53178176394E+02  0.00000000000E+00 0.  1.
         21    1    1    2  504  502 -0.21458192016E+02  0.94362335875E+01 -0.43718760188E+02  0.49606718308E+02  0.00000000000E+00 0.  1.
<mgrwt>
<rscale>  2 0.23441342E+02</rscale>
<asrwt>0</asrwt>
<pdfrwt beam="1">  1       21 0.82153040E-02 0.23441342E+02</pdfrwt>
<pdfrwt beam="2">  1       21 0.75977567E-02 0.23441342E+02</pdfrwt>
<totfact> 0.11795272E+07</totfact>
</mgrwt>
</event>
<event>
 4    1  0.4447136E+006  0.2994903E+02  0.7546771E-02  0.1598653E+00
         21   -1    0    0  503  501  0.00000000000E+00  0.00000000000E+00  0.18972748170E+03  0.18972748170E+03  0.00000000000E+00 0. -1.
         21   -1    0    0  504  502 -0.00000000000E+00 -0.00000000000E+00 -0.90703000411E+02  0.90703000411E+02  0.00000000000E+00 0. -1.
         21    1    1    2  503  502  0.28227327220E+02 -0.10008108162E+02 -0.87000017804E+02  0.92010582700E+02  0.00000000000E+00 0. -1.
         21    1    1    2  504  501 -0.28227327220E+02  0.10008108162E+02  0.18602449909E+03  0.18841989941E+03  0.00000000000E+00 0. -1.
<mgrwt>
<rscale>  2 0.29949027E+02</rscale>
<asrwt>0</asrwt>
<pdfrwt beam="1">  1       21 0.29188843E-01 0.29949027E+02</pdfrwt>
<pdfrwt beam="2">  1       21 0.13954308E-01 0.29949027E+02</pdfrwt>
<totfact> 0.49640925E+05</totfact>
</mgrwt>
</event>
<event>
 4    1  0.4447136E+006  0.2235341E+02  0.7546771E-02  0.1702211E+00
         21   -1    0    0  502  501  0.00000000000E+00  0.00000000000E+00  0.29519404817E+03  0.29519404817E+03  0.00000000000E+00 0.  1.
         21   -1    0    0  504  502 -0.00000000000E+00 -0.00000000000E+00 -0.49760050244E+02  0.49760050244E+02  0.00000000000E+00 0.  1.
         21    1    1    2  503  501 -0.21407031293E+02 -0.64353804701E+01  0.29223506817E+03  0.29308874113E+03  0.00000000000E+00 0.  1.
         21    1    1    2  504  503  0.21407031293E+02  0.64353804701E+01 -0.46801070240E+02  0.51865357284E+02  0.00000000000E+00 0.  1.
<mgrwt>
<rscale>  2 0.22353414E+02</rscale>
<asrwt>0</asrwt>
<pdfrwt beam="1">  1       21 0.45414468E-01 0.22353414E+02</pdfrwt>
<pdfrwt beam="2">  1       21 0.76553925E-02 0.22353414E+02</pdfrwt>
<totfact> 0.57988364E+05</totfact>
</mgrwt>
</event>
<event>
 4    1  0.4447136E+006  0.2588196E+02  0.7546771E-02  0.1648648E+00
         21   -1    0    0  504  501  0.00000000000E+00  0.00000000000E+00  0.14968050040E+02  0.14968050040E+02  0.00000000000E+00 0.  1.
         21   -1    0    0  501  502 -0.00000000000E+00 -0.00000000000E+00 -0.20333747425E+03  0.20333747425E+03  0.00000000000E+00 0.  1.
         21    1    1    2  503  502 -0.22506550937E+02 -0.12780093943E+02 -0.19057990823E+03  0.19232934529E+03  0.00000000000E+00 0.  1.
         21    1    1    2  504  503  0.22506550937E+02  0.12780093943E+02  0.22104840184E+01  0.25976179008E+02  0.00000000000E+00 0.  1.
<mgrwt>
<rscale>  2 0.25881956E+02</rscale>
<asrwt>0</asrwt>
<pdfrwt beam="1">  1       21 0.23027769E-02 0.25881956E+02</pdfrwt>
<pdfrwt beam="2">  1       21 0.31282689E-01 0.25881956E+02</pdfrwt>
<totfact> 0.79546622E+06</totfact>
</mgrwt>
</event>
<event>
 4    1  0.4447136E+006  0.2139946E+02  0.7546771E-02  0.1718850E+00
         21   -1    0    0  503  501  0.00000000000E+00  0.00000000000E+00  0.80649206595E+00  0.80649206595E+00  0.00000000000E+00 0. -1.
         21   -1    0    0  504  502 -0.00000000000E+00 -0.00000000000E+00 -0.87721861999E+03  0.87721861999E+03  0.00000000000E+00 0.  1.
         21    1    1    2  503  502 -0.21063765302E+02 -0.37755346261E+01 -0.17747849606E+03  0.17876396011E+03  0.00000000000E+00 0. -1.
         21    1    1    2  504  501  0.21063765302E+02  0.37755346261E+01 -0.69893363186E+03  0.69926115194E+03  0.00000000000E+00 0.  1.
<mgrwt>
<rscale>  2 0.21399460E+02</rscale>
<asrwt>0</asrwt>
<pdfrwt beam="1">  1       21 0.12407600E-03 0.21399460E+02</pdfrwt>
<pdfrwt beam="2">  1       21 0.13495639E+00 0.21399460E+02</pdfrwt>
<totfact> 0.29341165E+07</totfact>
</mgrwt>
</event>
<event>
 4    1  0.4447136E+006  0.3365354E+02  0.7546771E-02  0.1560893E+00
         21   -1    0    0  502  501  0.00000000000E+00  0.00000000000E+00  0.60784001982E+03  0.60784001982E+03  0.00000000000E+00 0. -1.
         21   -1    0    0  504  502 -0.00000000000E+00 -0.00000000000E+00 -0.57420563357E+01  0.57420563357E+01  0.00000000000E+00 0.  1.
         21    1    1    2  503  501 -0.75978327506E+01 -0.32784654332E+02  0.55319826813E+03  0.55422097081E+03  0.00000000000E+00 0. -1.
         21    1    1    2  504  503  0.75978327506E+01  0.32784654332E+02  0.48899695349E+02  0.59361105341E+02  0.00000000000E+00 0.  1.
<mgrwt>
<rscale>  2 0.33653538E+02</rscale>
<asrwt>0</asrwt>
<pdfrwt beam="1">  1       21 0.93513798E-01 0.33653538E+02</pdfrwt>
<pdfrwt beam="2">  1       21 0.88339376E-03 0.33653538E+02</pdfrwt>
<totfact> 0.40121219E+06</totfact>
</mgrwt>
</event>
<event>
 4    1  0.4447136E+006  0.2126680E+02  0.7546771E-02  0.1721250E+00
         21   -1    0    0  504  501  0.00000000000E+00  0.00000000000E+00  0.24496428757E+02  0.24496428757E+02  0.00000000000E+00 0. -1.
         21   -1    0    0  501  502 -0.00000000000E+00 -0.00000000000E+00 -0.11707644205E+03  0.11707644205E+03  0.00000000000E+00 0. -1.
         21    1    1    2  503  502 -0.83294872145E+01  0.19567741498E+02 -0.11125559965E+03  0.11326996653E+03  0.00000000000E+00 0. -1.
         21    1    1    2  504  503  0.83294872145E+01 -0.19567741498E+02  0.18675586357E+02  0.28302904275E+02  0.00000000000E+00 0. -1.
<mgrwt>
<rscale>  2 0.21266802E+02</rscale>
<asrwt>0</asrwt>
<pdfrwt beam="1">  1       21 0.37686813E-02 0.21266802E+02</pdfrwt>
<pdfrwt beam="2">  1       21 0.18011760E-01 0.21266802E+02</pdfrwt>
<totfact> 0.95059011E+06</totfact>
</mgrwt>
</event>
<event>
 4    1  0.4447136E+006  0.2049199E+02  0.7546771E-02  0.1735718E+00
         21   -1    0    0  503  501  0.00000000000E+00  0.00000000000E+00  0.65561551144E+01  0.65561551144E+01  0.00000000000E+00 0. -1.
         21   -1    0    0  504  502 -0.00000000000E+00 -0.00000000000E+00 -0.65124909434E+02  0.65124909434E+02  0.00000000000E+00 0. -1.
         21    1    1    2  503  502  0.13328857378E+02 -0.15564804660E+02 -0.24679781457E+02  0.32078235548E+02  0.00000000000E+00 0. -1.
         21    1    1    2  504  501 -0.13328857378E+02  0.15564804660E+02 -0.33888972862E+02  0.39602829000E+02  0.00000000000E+00 0. -1.
<mgrwt>
<rscale>  2 0.20491988E+02</rscale>
<asrwt>0</asrwt>
<pdfrwt beam="1">  1       21 0.10086392E-02 0.20491988E+02</pdfrwt>
<pdfrwt beam="2">  1       21 0.10019217E-01 0.20491988E+02</pdfrwt>
<totfact> 0.18946527E+08</totfact>
</mgrwt>
</event>
<event>
 4    1  0.4447136E+006  0.2176527E+02  0.7546771E-02  0.1712344E+00
         21   -1    0    0  504  501  0.00000000000E+00  0.00000000000E+00  0.36147845004E+02  0.36147845004E+02  0.00000000000E+00 0.  1.
         21   -1    0    0  503  502 -0.00000000000E+00 -0.00000000000E+00 -0.13638997199E+02  0.13638997199E+02  0.00000000000E+00 0.  1.
         21    1    1    2  503  501  0.79657618454E+00  0.21750683648E+02  0.63299638929E+01  0.22667051322E+02  0.00000000000E+00 0.  1.
         21    1    1    2  504  502 -0.79657618454E+00 -0.21750683648E+02  0.16178883912E+02  0.27119790881E+02  0.00000000000E+00 0.  1.
<mgrwt>
<rscale>  2 0.21765265E+02</rscale>
<asrwt>0</asrwt>
<pdfrwt beam="1">  1       21 0.55612069E-02 0.21765265E+02</pdfrwt>
<pdfrwt beam="2">  1       21 0.20983073E-02 0.21765265E+02</pdfrwt>
<totfact> 0.16529273E+08</totfact>
</mgrwt>
</event>
<event>
 4    1  0.4447136E+006  0.6246327E+02  0.7546771E-02  0.1387776E+00
         21   -1    0    0  504  501  0.00000000000E+00  0.00000000000E+00  0.22812911252E+02  0.22812911252E+02  0.00000000000E+00 0. -1.
         21   -1    0    0  503  502 -0.00000000000E+00 -0.00000000000E+00 -0.13006238669E+04  0.13006238669E+04  0.00000000000E+00 0.  1.
         21    1    1    2  503  501  0.26670184322E+02 -0.56483287197E+02 -0.22227024367E+02  0.66300083534E+02  0.00000000000E+00 0. -1.
         21    1    1    2  504  502 -0.26670184322E+02  0.56483287197E+02 -0.12555839313E+04  0.12571366946E+04  0.00000000000E+00 0.  1.
<mgrwt>
<rscale>  2 0.62463273E+02</rscale>
<asrwt>0</asrwt>
<pdfrwt beam="1">  1       21 0.35096785E-02 0.62463273E+02</pdfrwt>
<pdfrwt beam="2">  1       21 0.20009599E+00 0.62463273E+02</pdfrwt>
<totfact> 0.73070174E+04</totfact>
</mgrwt>
</event>
<event>
 4    1  0.4447136E+006  0.2799170E+02  0.7546771E-02  0.1621411E+00
         21   -1    0    0  503  501  0.00000000000E+00  0.00000000000E+00  0.30212239560E+03  0.30212239560E+03  0.00000000000E+00 0.  1.
         21   -1    0    0  504  502 -0.00000000000E+00 -0.00000000000E+00 -0.33440118634E+02  0.33440118634E+02  0.00000000000E+00 0.  1.
         21    1    1    2  503  502  0.24836439525E+02 -0.12910706665E+02  0.29548500221E+03  0.29680788670E+03  0.00000000000E+00 0.  1.
         21    1    1    2  504  501 -0.24836439525E+02  0.12910706665E+02 -0.26802725245E+02  0.38754627536E+02  0.00000000000E+00 0.  1.
<mgrwt>
<rscale>  2 0.27991697E+02</rscale>
<asrwt>0</asrwt>
<pdfrwt beam="1">  1       21 0.46480367E-01 0.27991697E+02</pdfrwt>
<pdfrwt beam="2">  1       21 0.51446338E-02 0.27991697E+02</pdfrwt>
<totfact> 0.10721558E+06</totfact>
</mgrwt>
</event>
<event>
 4    1  0.4447136E+006  0.2190872E+02  0.7546771E-02  0.1709835E+00
         21   -1    0    0  504  501  0.00000000000E+00  0.00000000000E+00  0.11315972953E+04  0.11315972953E+04  0.00000000000E+00 0. -1.
         21   -1    0    0  501  502 -0.00000000000E+00 -0.00000000000E+00 -0.45841373173E+01  0.45841373173E+01  0.00000000000E+00 0.  1.
         21    1    1    2  503  502  0.21801628586E+02  0.21635844472E+01  0.22336560964E+02  0.31287602375E+02  0.00000000000E+00 0.  1.
         21    1    1    2  504  503 -0.21801628586E+02 -0.21635844472E+01  0.11046765971E+04  0.11048938303E+04  0.00000000000E+00 0. -1.
<mgrwt>
<rscale>  2 0.21908722E+02</rscale>
<asrwt>0</asrwt>
<pdfrwt beam="1">  1       21 0.17409167E+00 0.21908722E+02</pdfrwt>
<pdfrwt beam="2">  1       21 0.70525280E-03 0.21908722E+02</pdfrwt>
<totfact> 0.12840012E+06</totfact>
</mgrwt>
</event>
<event>
 4    1  0.4447136E+006  0.3055148E+02  0.7546771E-02  0.1592072E+00
         21   -1    0    0  502  501  0.00000000000E+00  0.00000000000E+00  0.11937054870E+03  0.11937054870E+03  0.00000000000E+00 0. -1.
         21   -1    0    0  503  502 -0.00000000000E+00 -0.00000000000E+00 -0.51741357700E+02  0.51741357700E+02  0.00000000000E+00 0. -1.
         21    1    1    2  503  504  0.13377267254E+02  0.27467106670E+02 -0.45011987401E+02  0.54401031588E+02  0.00000000000E+00 0. -1.
         21    1    1    2  504  501 -0.13377267254E+02 -0.27467106670E+02  0.11264117840E+03  0.11671087482E+03  0.00000000000E+00 0. -1.
<mgrwt>
<rscale>  2 0.30551485E+02</rscale>
<asrwt>0</asrwt>
<pdfrwt beam="1">  1       21 0.18364700E-01 0.30551485E+02</pdfrwt>
<pdfrwt beam="2">  1       21 0.79602089E-02 0.30551485E+02</pdfrwt>
<totfact> 0.29246586E+06</totfact>
</mgrwt>
</event>
<event>
 4    1  0.4447136E+006  0.2358970E+02  0.7546771E-02  0.1682126E+00
         21   -1    0    0  503  501  0.00000000000E+00  0.00000000000E+00  0.68659948240E+02  0.68659948240E+02  0.00000000000E+00 0. -1.
         21   -1    0    0  504  502 -0.00000000000E+00 -0.00000000000E+00 -0.10255176739E+02  0.10255176739E+02  0.00000000000E+00 0. -1.
         21    1    1    2  503  502  0.59411283146E+01  0.22829297441E+02  0.47270710933E+02  0.52829858408E+02  0.00000000000E+00 0. -1.
         21    1    1    2  504  501 -0.59411283146E+01 -0.22829297441E+02  0.11134060568E+02  0.26085266570E+02  0.00000000000E+00 0. -1.
<mgrwt>
<rscale>  2 0.23589697E+02</rscale>
<asrwt>0</asrwt>
<pdfrwt beam="1">  1       21 0.10563069E-01 0.23589697E+02</pdfrwt>
<pdfrwt beam="2">  1       21 0.15777195E-02 0.23589697E+02</pdfrwt>
<totfact> 0.92137871E+07</totfact>
</mgrwt>
</event>
<event>
 4    1  0.4447136E+006  0.2021617E+02  0.7546771E-02  0.1741063E+00
         21   -1    0    0  503  501  0.00000000000E+00  0.00000000000E+00  0.65450346301E+03  0.65450346301E+03  0.00000000000E+00 0.  1.
         21   -1    0    0  504  502 -0.00000000000E+00 -0.00000000000E+00 -0.10683529719E+01  0.10683529719E+01  0.00000000000E+00 0.  1.
         21    1    1    2  503  502  0.19041048675E+02 -0.67920675625E+01  0.53801056182E+03  0.53839024726E+03  0.00000000000E+00 0.  1.
         21    1    1    2  504  501 -0.19041048675E+02  0.67920675625E+01  0.11542454822E+03  0.11718156872E+03  0.00000000000E+00 0.  1.
<mgrwt>
<rscale>  2 0.20216175E+02</rscale>
<asrwt>0</asrwt>
<pdfrwt beam="1">  1       21 0.10069252E+00 0.20216175E+02</pdfrwt>
<pdfrwt beam="2">  1       21 0.16436252E-03 0.20216175E+02</pdfrwt>
<totfact> 0.37401670E+07</totfact>
</mgrwt>
</event>
<event>
 4    1  0.4447136E+006  0.2258438E+02  0.7546771E-02  0.1698337E+00
         21   -1    0    0  504  501  0.00000000000E+00  0.00000000000E+00  0.42071975570E+02  0.42071975570E+02  0.00000000000E+00 0. -1.
         21   -1    0    0  503  502 -0.00000000000E+00 -0.00000000000E+00 -0.18730261804E+02  0.18730261804E+02  0.00000000000E+00 0. -1.
         21    1    1    2  503  501  0.54696443914E+01  0.21912030973E+02 -0.63849229446E+01  0.23469583553E+02  0.00000000000E+00 0. -1.
         21    1    1    2  504  502 -0.54696443914E+01 -0.21912030973E+02  0.29726636710E+02  0.37332653820E+02  0.00000000000E+00 0. -1.
<mgrwt>
<rscale>  2 0.22584378E+02</rscale>
<asrwt>0</asrwt>
<pdfrwt beam="1">  1       21 0.64726116E-02 0.22584378E+02</pdfrwt>
<pdfrwt beam="2">  1       21 0.28815788E-02 0.22584378E+02</pdfrwt>
<totfact> 0.80287598E+07</totfact>
</mgrwt>
</event>
<event>
 4    1  0.4447136E+006  0.3120236E+02  0.7546771E-02  0.1585166E+00
         21   -1    0    0  504  501  0.00000000000E+00  0.00000000000E+00  0.22820832308E+03  0.22820832308E+03  0.00000000000E+00 0. -1.
         21   -1    0    0  503  502 -0.00000000000E+00 -0.00000000000E+00 -0.42934843221E+01  0.42934843221E+01  0.00000000000E+00 0. -1.
         21    1    1    2  503  501 -0.27863097181E+02  0.14044051540E+02  0.12122072197E+03  0.12517208556E+03  0.00000000000E+00 0. -1.
         21    1    1    2  504  502  0.27863097181E+02 -0.14044051540E+02  0.10269411679E+03  0.10732972185E+03  0.00000000000E+00 0. -1.
<mgrwt>
<rscale>  2 0.31202365E+02</rscale>
<asrwt>0</asrwt>
<pdfrwt beam="1">  1       21 0.35108963E-01 0.31202365E+02</pdfrwt>
<pdfrwt beam="2">  1       21 0.66053623E-03 0.31202365E+02</pdfrwt>
<totfact> 0.44501262E+07</totfact>
</mgrwt>
</event>
<event>
 4    1  0.4447136E+006  0.2262175E+02  0.7546771E-02  0.1697716E+00
         21   -1    0    0  504  501  0.00000000000E+00  0.00000000000E+00  0.10279116866E+03  0.10279116866E+03  0.00000000000E+00 0.  1.
         21   -1    0    0  503  502 -0.00000000000E+00 -0.00000000000E+00 -0.16269578986E+03  0.16269578986E+03  0.00000000000E+00 0.  1.
         21    1    1    2  503  501  0.21428322424E+02  0.72505475026E+01  0.10074442008E+03  0.10325299811E+03  0.00000000000E+00 0.  1.
         21    1    1    2  504  502 -0.21428322424E+02 -0.72505475026E+01 -0.16064904128E+03  0.16223396040E+03  0.00000000000E+00 0.  1.
<mgrwt>
<rscale>  2 0.22621747E+02</rscale>
<asrwt>0</asrwt>
<pdfrwt beam="1">  1       21 0.15814026E-01 0.22621747E+02</pdfrwt>
<pdfrwt beam="2">  1       21 0.25030121E-01 0.22621747E+02</pdfrwt>
<totfact> 0.52055630E+05</totfact>
</mgrwt>
</event>
<event>
 4    1  0.4447136E+006  0.2753625E+02  0.7546771E-02  0.1627036E+00
         21   -1    0    0  503  501  0.00000000000E+00  0.00000000000E+00  0.50833602002E+01  0.50833602002E+01  0.00000000000E+00 0.  1.
         21   -1    0    0  504  502 -0.00000000000E+00 -0.00000000000E+00 -0.15704856006E+03  0.15704856006E+03  0.00000000000E+00 0.  1.
         21    1    1    2  503  502  0.27500122903E+02  0.14101428948E+01 -0.57816593524E+02  0.64039079860E+02  0.00000000000E+00 0.  1.
         21    1    1    2  504  501 -0.27500122903E+02 -0.14101428948E+01 -0.94148606334E+02  0.98092840397E+02  0.00000000000E+00 0.  1.
<mgrwt>
<rscale>  2 0.27536254E+02</rscale>
<asrwt>0</asrwt>
<pdfrwt beam="1">  1       21 0.78205533E-03 0.27536254E+02</pdfrwt>
<pdfrwt beam="2">  1       21 0.24161319E-01 0.27536254E+02</pdfrwt>
<totfact> 0.66662979E+07</totfact>
</mgrwt>
</event>
<event>
 4    1  0.4447136E+006  0.2527042E+02  0.7546771E-02  0.1657148E+00
         21   -1    0    0  503  501  0.00000000000E+00  0.00000000000E+00  0.11780849271E+03  0.11780849271E+03  0.00000000000E+00 0. -1.
         21   -1    0    0  504  502 -0.00000000000E+00 -0.00000000000E+00 -0.23829309998E+02  0.23829309998E+02  0.00000000000E+00 0. -1.
         21    1    1    2  503  502 -0.21309993612E+02  0.13582271304E+02  0.10923466840E+03  0.11211960891E+03  0.00000000000E+00 0. -1.
         21    1    1    2  504  501  0.21309993612E+02 -0.13582271304E+02 -0.15255485688E+02  0.29518193799E+02  0.00000000000E+00 0. -1.
<mgrwt>
<rscale>  2 0.25270416E+02</rscale>
<asrwt>0</asrwt>
<pdfrwt beam="1">  1       21 0.18124383E-01 0.25270416E+02</pdfrwt>
<pdfrwt beam="2">  1       21 0.36660478E-02 0.25270416E+02</pdfrwt>
<totfact> 0.10146362E+07</totfact>
</mgrwt>
</event>
<event>
 4    1  0.4447136E+006  0.2048788E+02  0.7546771E-02  0.1735796E+00
         21   -1    0    0  504  501  0.00000000000E+00  0.00000000000E+00  0.74987095618E+01  0.74987095618E+01  0.00000000000E+00 0. -1.
         21   -1    0    0  503  502 -0.00000000000E+00 -0.00000000000E+00 -0.26463161551E+03  0.26463161551E+03  0.00000000000E+00 0. -1.
         21    1    1    2  503  501  0.20479030513E+02 -0.60222307539E+00 -0.77460325487E+01  0.21903296181E+02  0.00000000000E+00 0. -1.
         21    1    1    2  504  502 -0.20479030513E+02  0.60222307539E+00 -0.24938687340E+03  0.25022702889E+03  0.00000000000E+00 0. -1.
<mgrwt>
<rscale>  2 0.20487883E+02</rscale>
<asrwt>0</asrwt>
<pdfrwt beam="1">  1       21 0.11536476E-02 0.20487883E+02</pdfrwt>
<pdfrwt beam="2">  1       21 0.40712557E-01 0.20487883E+02</pdfrwt>
<totfact> 0.13398153E+07</totfact>
</mgrwt>
</event>
<event>
 4    1  0.4447136E+006  0.2899284E+02  0.7546771E-02  0.1609496E+00
         21   -1    0    0  503  501  0.00000000000E+00  0.00000000000E+00  0.51171464340E+02  0.51171464340E+02  0.00000000000E+00 0.  1.
         21   -1    0    0  504  502 -0.00000000000E+00 -0.00000000000E+00 -0.11980010495E+03  0.11980010495E+03  0.00000000000E+00 0. -1.
         21    1    1    2  503  502 -0.25482866798E+01  0.28880634632E+02  0.45094628277E+02  0.53610729534E+02  0.00000000000E+00 0.  1.
         21    1    1    2  504  501  0.25482866798E+01 -0.28880634632E+02 -0.11372326889E+03  0.11736083976E+03  0.00000000000E+00 0. -1.
<mgrwt>
<rscale>  2 0.28992841E+02</rscale>
<asrwt>0</asrwt>
<pdfrwt beam="1">  1       21 0.78725331E-02 0.28992841E+02</pdfrwt>
<pdfrwt beam="2">  1       21 0.18430785E-01 0.28992841E+02</pdfrwt>
<totfact> 0.29421113E+06</totfact>
</mgrwt>
</event>
<event>
 4    1  0.4447136E+006  0.2344144E+02  0.7546771E-02  0.1684453E+00
         21   -1    0    0  503  501  0.00000000000E+00  0.00000000000E+00  0.48008317466E+02  0.48008317466E+02  0.00000000000E+00 0.  1.
         21   -1    0    0  504  502 -0.00000000000E+00 -0.00000000000E+00 -0.14417825120E+02  0.14417825120E+02  0.00000000000E+00 0.  1.
         21    1    1    2  503  502  0.23440161035E+02  0.24484447573E+00  0.30966277360E+02  0.38838272769E+02  0.00000000000E+00 0.  1.
         21    1    1    2  504  501 -0.23440161035E+02 -0.24484447573E+00  0.26242149861E+01  0.23587869816E+02  0.00000000000E+00 0.  1.
<mgrwt>
<rscale>  2 0.23441440E+02</rscale>
<asrwt>0</asrwt>
<pdfrwt beam="1">  1       21 0.73858949E-02 0.23441440E+02</pdfrwt>
<pdfrwt beam="2">  1       21 0.22181270E-02 0.23441440E+02</pdfrwt>
<totfact> 0.98237352E+07</totfact>
</mgrwt>
</event>
<event>
 4    1  0.4447136E+006  0.2588085E+02  0.7546771E-02  0.1648663E+00
         21   -1    0    0  503  501  0.00000000000E+00  0.00000000000E+00  0.16236639562E+01  0.16236639562E+01  0.00000000000E+00 0. -1.
         21   -1    0    0  504  502 -0.00000000000E+00 -0.00000000000E+00 -0.50476597678E+03  0.50476597678E+03  0.00000000000E+00 0. -1.
         21    1    1    2  503  502 -0.24116958251E+02 -0.93909832587E+01 -0.35980127594E+03  0.36073089195E+03  0.00000000000E+00 0. -1.
         21    1    1    2  504  501  0.24116958251E+02  0.93909832587E+01 -0.14334103688E+03  0.14565874878E+03  0.00000000000E+00 0. -1.
<mgrwt>
<rscale>  2 0.25880847E+02</rscale>
<asrwt>0</asrwt>
<pdfrwt beam="1">  1       21 0.24979471E-03 0.25880847E+02</pdfrwt>
<pdfrwt beam="2">  1       21 0.77656226E-01 0.25880847E+02</pdfrwt>
<totfact> 0.37505755E+07</totfact>
</mgrwt>
</event>
<event>
 4    1  0.4447136E+006  0.2610913E+02  0.7546771E-02  0.1645564E+00
         21   -1    0    0  503  501  0.00000000000E+00  0.00000000000E+00  0.17953882062E+02  0.17953882062E+02  0.00000000000E+00 0.  1.
         21   -1    0    0  504  502 -0.00000000000E+00 -0.00000000000E+00 -0.83255816174E+02  0.83255816174E+02  0.00000000000E+00 0. -1.
         21    1    1    2  503  502  0.17336894711E+02  0.19522257290E+02  0.46716371662E+01  0.26523775028E+02  0.00000000000E+00 0.  1.
         21    1    1    2  504  501 -0.17336894711E+02 -0.19522257290E+02 -0.69973571278E+02  0.74685923207E+02  0.00000000000E+00 0. -1.
<mgrwt>
<rscale>  2 0.26109126E+02</rscale>
<asrwt>0</asrwt>
<pdfrwt beam="1">  1       21 0.27621356E-02 0.26109126E+02</pdfrwt>
<pdfrwt beam="2">  1       21 0.12808587E-01 0.26109126E+02</pdfrwt>
<totfact> 0.28843886E+07</totfact>
</mgrwt>
</event>
<event>
 4    1  0.4447136E+006  0.3533784E+02  0.7546771E-02  0.1545621E+00
         21   -1    0    0  503  501  0.00000000000E+00  0.00000000000E+00  0.53337556859E+01  0.53337556859E+01  0.00000000000E+00 0. -1.
         21   -1    0    0  504  502 -0.00000000000E+00 -0.00000000000E+00 -0.23626034922E+03  0.23626034922E+03  0.00000000000E+00 0. -1.
         21    1    1    2  503  502 -0.14385460579E+02  0.32277262621E+02 -0.12694856028E+03  0.13177518778E+03  0.00000000000E+00 0. -1.
         21    1    1    2  504  501  0.14385460579E+02 -0.32277262621E+02 -0.10397803325E+03  0.10981891712E+03  0.00000000000E+00 0. -1.
<mgrwt>
<rscale>  2 0.35337843E+02</rscale>
<asrwt>0</asrwt>
<pdfrwt beam="1">  1       21 0.82057790E-03 0.35337843E+02</pdfrwt>
<pdfrwt beam="2">  1       21 0.36347742E-01 0.35337843E+02</pdfrwt>
<totfact> 0.30769712E+07</totfact>
</mgrwt>
</event>
<event>
 4    1  0.4447136E+006  0.3345059E+02  0.7546771E-02  0.1562806E+00
         21   -1    0    0  503  501  0.00000000000E+00  0.00000000000E+00  0.29987687387E+03  0.29987687387E+03  0.00000000000E+00 0.  1.
         21   -1    0    0  504  502 -0.00000000000E+00 -0.00000000000E+00 -0.37329503339E+01  0.37329503339E+01  0.00000000000E+00 0.  1.
         21    1    1    2  503  502 -0.14160927707E+02  0.30305280914E+02  0.14491688702E+03  0.14872742205E+03  0.00000000000E+00 0.  1.
         21    1    1    2  504  501  0.14160927707E+02 -0.30305280914E+02  0.15122703651E+03  0.15488240215E+03  0.00000000000E+00 0.  1.
<mgrwt>
<rscale>  2 0.33450589E+02</rscale>
<asrwt>0</asrwt>
<pdfrwt beam="1">  1       21 0.46134885E-01 0.33450589E+02</pdfrwt>
<pdfrwt beam="2">  1       21 0.57430029E-03 0.33450589E+02</pdfrwt>
<totfact> 0.32981892E+07</totfact>
</mgrwt>
</event>
<event>
 4    1  0.4447136E+006  0.2351500E+02  0.7546771E-02  0.1683296E+00
         21   -1    0    0  503  501  0.00000000000E+00  0.00000000000E+00  0.19870529401E+03  0.19870529401E+03  0.00000000000E+00 0. -1.
         21   -1    0    0  501  502 -0.00000000000E+00 -0.00000000000E+00 -0.30448438969E+02  0.30448438969E+02  0.00000000000E+00 0. -1.
         21    1    1    2  503  504 -0.53729674496E+01 -0.22892931251E+02  0.19334407297E+03  0.19476880046E+03  0.00000000000E+00 0. -1.
         21    1    1    2  504  502  0.53729674496E+01  0.22892931251E+02 -0.25087217932E+02  0.34384932515E+02  0.00000000000E+00 0. -1.
<mgrwt>
<rscale>  2 0.23514997E+02</rscale>
<asrwt>0</asrwt>
<pdfrwt beam="1">  1       21 0.30570044E-01 0.23514997E+02</pdfrwt>
<pdfrwt beam="2">  1       21 0.46843754E-02 0.23514997E+02</pdfrwt>
<totfact> 0.26875614E+06</totfact>
</mgrwt>
</event>
<event>
 4    1  0.4447136E+006  0.3085547E+02  0.7546771E-02  0.1588821E+00
         21   -1    0    0  503  501  0.00000000000E+00  0.00000000000E+00  0.20829712962E+02  0.20829712962E+02  0.00000000000E+00 0. -1.
         21   -1    0    0  504  502 -0.00000000000E+00 -0.00000000000E+00 -0.49936564519E+02  0.49936564519E+02  0.00000000000E+00 0. -1.
         21    1    1    2  503  502  0.79579354958E+01 -0.29811596828E+02 -0.24851211300E+02  0.39618717115E+02  0.00000000000E+00 0. -1.
         21    1    1    2  504  501 -0.79579354958E+01  0.29811596828E+02 -0.42556402574E+01  0.31147560367E+02  0.00000000000E+00 0. -1.
<mgrwt>
<rscale>  2 0.30855470E+02</rscale>
<asrwt>0</asrwt>
<pdfrwt beam="1">  1       21 0.32045713E-02 0.30855470E+02</pdfrwt>
<pdfrwt beam="2">  1       21 0.76825483E-02 0.30855470E+02</pdfrwt>
<totfact> 0.55597521E+07</totfact>
</mgrwt>
</event>
<event>
 4    1  0.4447136E+006  0.2926005E+02  0.7546771E-02  0.1606415E+00
         21   -1    0    0  504  501  0.00000000000E+00  0.00000000000E+00  0.17611934775E+02  0.17611934775E+02  0.00000000000E+00 0. -1.
         21   -1    0    0  503  502 -0.00000000000E+00 -0.00000000000E+00 -0.10202617717E+03  0.10202617717E+03  0.00000000000E+00 0.  1.
         21    1    1    2  503  501 -0.20018525027E+02 -0.21340321771E+02  0.10753630573E+01  0.29279806749E+02  0.00000000000E+00 0. -1.
         21    1    1    2  504  502  0.20018525027E+02  0.21340321771E+02 -0.85489605452E+02  0.90358305196E+02  0.00000000000E+00 0.  1.
<mgrwt>
<rscale>  2 0.29260053E+02</rscale>
<asrwt>0</asrwt>
<pdfrwt beam="1">  1       21 0.27095284E-02 0.29260053E+02</pdfrwt>
<pdfrwt beam="2">  1       21 0.15696335E-01 0.29260053E+02</pdfrwt>
<totfact> 0.21502377E+07</totfact>
</mgrwt>
</event>
<event>
 4    1  0.4447136E+006  0.3458068E+02  0.7546771E-02  0.1552356E+00
         21   -1    0    0  504  501  0.00000000000E+00  0.00000000000E+00  0.99971084358E+03  0.99971084358E+03  0.00000000000E+00 0. -1.
         21   -1    0    0  503  502 -0.00000000000E+00 -0.00000000000E+00 -0.14496678019E+01  0.14496678019E+01  0.00000000000E+00 0. -1.
         21    1    1    2  503  501  0.34322889334E+02  0.42146060396E+01  0.70845842327E+03  0.70930188294E+03  0.00000000000E+00 0. -1.
         21    1    1    2  504  502 -0.34322889334E+02 -0.42146060396E+01  0.28980275250E+03  0.29185862844E+03  0.00000000000E+00 0. -1.
<mgrwt>
<rscale>  2 0.34580683E+02</rscale>
<asrwt>0</asrwt>
<pdfrwt beam="1">  1       21 0.15380112E+00 0.34580683E+02</pdfrwt>
<pdfrwt beam="2">  1       21 0.22302661E-03 0.34580683E+02</pdfrwt>
<totfact> 0.98962266E+06</totfact>
</mgrwt>
</event>
<event>
 4    1  0.4447136E+006  0.2088981E+02  0.7546771E-02  0.1728191E+00
         21   -1    0    0  504  501  0.00000000000E+00  0.00000000000E+00  0.20744581871E+03  0.20744581871E+03  0.00000000000E+00 0.  1.
         21   -1    0    0  503  502 -0.00000000000E+00 -0.00000000000E+00 -0.94996318279E+02  0.94996318279E+02  0.00000000000E+00 0. -1.
         21    1    1    2  503  501  0.17174321623E+01  0.20819089959E+02 -0.93312620179E+02  0.95622325660E+02  0.00000000000E+00 0. -1.
         21    1    1    2  504  502 -0.17174321623E+01 -0.20819089959E+02  0.20576212061E+03  0.20681981133E+03  0.00000000000E+00 0.  1.
<mgrwt>
<rscale>  2 0.20889808E+02</rscale>
<asrwt>0</asrwt>
<pdfrwt beam="1">  1       21 0.31914741E-01 0.20889808E+02</pdfrwt>
<pdfrwt beam="2">  1       21 0.14614818E-01 0.20889808E+02</pdfrwt>
<totfact> 0.38219125E+05</totfact>
</mgrwt>
</event>
<event>
 4    1  0.4447136E+006  0.3893551E+02  0.7546771E-02  0.1516194E+00
         21   -1    0    0  504  501  0.00000000000E+00  0.00000000000E+00  0.17520866519E+02  0.17520866519E+02  0.00000000000E+00 0.  1.
         21   -1    0    0  501  502 -0.00000000000E+00 -0.00000000000E+00 -0.17789254478E+03  0.17789254478E+03  0.00000000000E+00 0. -1.
         21    1    1    2  503  502  0.18173592218E+02 -0.34433918147E+02 -0.15020937300E+03  0.15517354771E+03  0.00000000000E+00 0. -1.
         21    1    1    2  504  503 -0.18173592218E+02  0.34433918147E+02 -0.10162305260E+02  0.40239863584E+02  0.00000000000E+00 0.  1.
<mgrwt>
<rscale>  2 0.38935513E+02</rscale>
<asrwt>0</asrwt>
<pdfrwt beam="1">  1       21 0.26955177E-02 0.38935513E+02</pdfrwt>
<pdfrwt beam="2">  1       21 0.27368086E-01 0.38935513E+02</pdfrwt>
<totfact> 0.84356569E+06</totfact>
</mgrwt>
</event>
<event>
 4    1  0.4447136E+006  0.5126764E+02  0.7546771E-02  0.1438622E+00
         21   -1    0    0  502  501  0.00000000000E+00  0.00000000000E+00  0.40610176426E+01  0.40610176426E+01  0.00000000000E+00 0.  1.
         21   -1    0    0  504  502 -0.00000000000E+00 -0.00000000000E+00 -0.96630432554E+03  0.96630432554E+03  0.00000000000E+00 0. -1.
         21    1    1    2  503  501  0.17000762608E+02  0.48366778310E+02 -0.20231626324E+03  0.20871090423E+03  0.00000000000E+00 0.  1.
         21    1    1    2  504  503 -0.17000762608E+02 -0.48366778310E+02 -0.75992704466E+03  0.76165443896E+03  0.00000000000E+00 0. -1.
<mgrwt>
<rscale>  2 0.51267643E+02</rscale>
<asrwt>0</asrwt>
<pdfrwt beam="1">  1       21 0.62477127E-03 0.51267643E+02</pdfrwt>
<pdfrwt beam="2">  1       21 0.14866237E+00 0.51267643E+02</pdfrwt>
<totfact> 0.23781855E+06</totfact>
</mgrwt>
</event>
<event>
 4    1  0.4447136E+006  0.3139735E+02  0.7546771E-02  0.1583137E+00
         21   -1    0    0  504  501  0.00000000000E+00  0.00000000000E+00  0.75222556191E+01  0.75222556191E+01  0.00000000000E+00 0.  1.
         21   -1    0    0  503  502 -0.00000000000E+00 -0.00000000000E+00 -0.13757399791E+03  0.13757399791E+03  0.00000000000E+00 0.  1.
         21    1    1    2  503  501  0.16917671638E+02 -0.26449682479E+02 -0.49227681291E+02  0.58387994675E+02  0.00000000000E+00 0.  1.
         21    1    1    2  504  502 -0.16917671638E+02  0.26449682479E+02 -0.80824060996E+02  0.86708258850E+02  0.00000000000E+00 0.  1.
<mgrwt>
<rscale>  2 0.31397346E+02</rscale>
<asrwt>0</asrwt>
<pdfrwt beam="1">  1       21 0.11572702E-02 0.31397346E+02</pdfrwt>
<pdfrwt beam="2">  1       21 0.21165229E-01 0.31397346E+02</pdfrwt>
<totfact> 0.48036128E+07</totfact>
</mgrwt>
</event>
<event>
 4    1  0.4447136E+006  0.2322660E+02  0.7546771E-02  0.1687863E+00
         21   -1    0    0  503  501  0.00000000000E+00  0.00000000000E+00  0.94447623760E+00  0.94447623760E+00  0.00000000000E+00 0.  1.
         21   -1    0    0  501  502 -0.00000000000E+00 -0.00000000000E+00 -0.14631215630E+04  0.14631215630E+04  0.00000000000E+00 0.  1.
         21    1    1    2  503  504  0.14996174237E+02 -0.17736673551E+02 -0.15953572025E+03  0.16121761959E+03  0.00000000000E+00 0.  1.
         21    1    1    2  504  502 -0.14996174237E+02  0.17736673551E+02 -0.13026413665E+04  0.13028484197E+04  0.00000000000E+00 0.  1.
<mgrwt>
<rscale>  2 0.23226597E+02</rscale>
<asrwt>0</asrwt>
<pdfrwt beam="1">  1       21 0.14530514E-03 0.23226597E+02</pdfrwt>
<pdfrwt beam="2">  1       21 0.22509391E+00 0.23226597E+02</pdfrwt>
<totfact> 0.66819820E+06</totfact>
</mgrwt>
</event>
<event>
 4    1  0.4447136E+006  0.2045931E+02  0.7546771E-02  0.1736345E+00
         21   -1    0    0  503  501  0.00000000000E+00  0.00000000000E+00  0.37391847618E+03  0.37391847618E+03  0.00000000000E+00 0. -1.
         21   -1    0    0  501  502 -0.00000000000E+00 -0.00000000000E+00 -0.71330061240E+01  0.71330061240E+01  0.00000000000E+00 0.  1.
         21    1    1    2  503  504  0.17197454697E+02 -0.11082916305E+02  0.35833027004E+03  0.35891386976E+03  0.00000000000E+00 0. -1.
         21    1    1    2  504  502 -0.17197454697E+02  0.11082916305E+02  0.84552000228E+01  0.22137612547E+02  0.00000000000E+00 0.  1.
<mgrwt>
<rscale>  2 0.20459313E+02</rscale>
<asrwt>0</asrwt>
<pdfrwt beam="1">  1       21 0.57525904E-01 0.20459313E+02</pdfrwt>
<pdfrwt beam="2">  1       21 0.10973858E-02 0.20459313E+02</pdfrwt>
<totfact> 0.74205822E+06</totfact>
</mgrwt>
</event>
<event>
 4    1  0.4447136E+006  0.5129792E+02  0.7546771E-02  0.1438464E+00
         21   -1    0    0  504  501  0.00000000000E+00  0.00000000000E+00  0.14613198886E+01  0.14613198886E+01  0.00000000000E+00 0. -1.
         21   -1    0    0  503  502 -0.00000000000E+00 -0.00000000000E+00 -0.18504599832E+04  0.18504599832E+04  0.00000000000E+00 0. -1.
         21    1    1    2  503  501 -0.30314812845E+02 -0.41382230497E+02 -0.10762600162E+04  0.10774818325E+04  0.00000000000E+00 0. -1.
         21    1    1    2  504  502  0.30314812845E+02  0.41382230497E+02 -0.77273864707E+03  0.77443947056E+03  0.00000000000E+00 0. -1.
<mgrwt>
<rscale>  2 0.51297923E+02</rscale>
<asrwt>0</asrwt>
<pdfrwt beam="1">  1       21 0.22481777E-03 0.51297923E+02</pdfrwt>
<pdfrwt beam="2">  1       21 0.28468701E+00 0.51297923E+02</pdfrwt>
<totfact> 0.17538730E+06</totfact>
</mgrwt>
</event>
<event>
 4    1  0.4447136E+006  0.2902341E+02  0.7546771E-02  0.1609141E+00
         21   -1    0    0  503  501  0.00000000000E+00  0.00000000000E+00  0.11665671993E+02  0.11665671993E+02  0.00000000000E+00 0. -1.
         21   -1    0    0  504  502 -0.00000000000E+00 -0.00000000000E+00 -0.79213881154E+02  0.79213881154E+02  0.00000000000E+00 0. -1.
         21    1    1    2  503  502 -0.27476342258E+02  0.93492693251E+01 -0.47287296657E+02  0.55483751188E+02  0.00000000000E+00 0. -1.
         21    1    1    2  504  501  0.27476342258E+02 -0.93492693251E+01 -0.20260912504E+02  0.35395801959E+02  0.00000000000E+00 0. -1.
<mgrwt>
<rscale>  2 0.29023408E+02</rscale>
<asrwt>0</asrwt>
<pdfrwt beam="1">  1       21 0.17947187E-02 0.29023408E+02</pdfrwt>
<pdfrwt beam="2">  1       21 0.12186751E-01 0.29023408E+02</pdfrwt>
<totfact> 0.62707905E+07</totfact>
</mgrwt>
</event>
<event>
 4    1  0.4447136E+006  0.2767006E+02  0.7546771E-02  0.1625370E+00
         21   -1    0    0  503  501  0.00000000000E+00  0.00000000000E+00  0.76483365366E+02  0.76483365366E+02  0.00000000000E+00 0.  1.
         21   -1    0    0  501  502 -0.00000000000E+00 -0.00000000000E+00 -0.15357760576E+03  0.15357760576E+03  0.00000000000E+00 0.  1.
         21    1    1    2  503  504 -0.13608527485E+02 -0.24092325156E+02  0.72671261069E+02  0.77760814921E+02  0.00000000000E+00 0.  1.
         21    1    1    2  504  502  0.13608527485E+02  0.24092325156E+02 -0.14976550147E+03  0.15230015621E+03  0.00000000000E+00 0.  1.
<mgrwt>
<rscale>  2 0.27670059E+02</rscale>
<asrwt>0</asrwt>
<pdfrwt beam="1">  1       21 0.11766672E-01 0.27670059E+02</pdfrwt>
<pdfrwt beam="2">  1       21 0.23627324E-01 0.27670059E+02</pdfrwt>
<totfact> 0.96705153E+05</totfact>
</mgrwt>
</event>
<event>
 4    1  0.4447136E+006  0.2046387E+02  0.7546771E-02  0.1736258E+00
         21   -1    0    0  503  501  0.00000000000E+00  0.00000000000E+00  0.81251408564E+02  0.81251408564E+02  0.00000000000E+00 0.  1.
         21   -1    0    0  504  502 -0.00000000000E+00 -0.00000000000E+00 -0.17624100008E+02  0.17624100008E+02  0.00000000000E+00 0.  1.
         21    1    1    2  503  502  0.19073615127E+02 -0.74139751533E+01  0.73398990329E+02  0.76198304462E+02  0.00000000000E+00 0.  1.
         21    1    1    2  504  501 -0.19073615127E+02  0.74139751533E+01 -0.97716817729E+01  0.22677204110E+02  0.00000000000E+00 0.  1.
<mgrwt>
<rscale>  2 0.20463866E+02</rscale>
<asrwt>0</asrwt>
<pdfrwt beam="1">  1       21 0.12500216E-01 0.20463866E+02</pdfrwt>
<pdfrwt beam="2">  1       21 0.27114001E-02 0.20463866E+02</pdfrwt>
<totfact> 0.29226955E+07</totfact>
</mgrwt>
</event>
<event>
 4    1  0.4447136E+006  0.3257263E+02  0.7546771E-02  0.1571277E+00
         21   -1    0    0  504  501  0.00000000000E+00  0.00000000000E+00  0.25597119140E+01  0.25597119140E+01  0.00000000000E+00 0.  1.
         21   -1    0    0  501  502 -0.00000000000E+00 -0.00000000000E+00 -0.10402778595E+04  0.10402778595E+04  0.00000000000E+00 0.  1.
         21    1    1    2  503  502 -0.75721139587E+01  0.31680264294E+02 -0.92327236333E+03  0.92384675837E+03  0.00000000000E+00 0.  1.
         21    1    1    2  504  503  0.75721139587E+01 -0.31680264294E+02 -0.11444578424E+03  0.11899081303E+03  0.00000000000E+00 0.  1.
<mgrwt>
<rscale>  2 0.32572627E+02</rscale>
<asrwt>0</asrwt>
<pdfrwt beam="1">  1       21 0.39380193E-03 0.32572627E+02</pdfrwt>
<pdfrwt beam="2">  1       21 0.16004271E+00 0.32572627E+02</pdfrwt>
<totfact> 0.38608940E+06</totfact>
</mgrwt>
</event>
<event>
 4    1  0.4447136E+006  0.2264999E+02  0.7546771E-02  0.1697247E+00
         21   -1    0    0  504  501  0.00000000000E+00  0.00000000000E+00  0.95094240968E+03  0.95094240968E+03  0.00000000000E+00 0. -1.
         21   -1    0    0  501  502 -0.00000000000E+00 -0.00000000000E+00 -0.23657086211E+02  0.23657086211E+02  0.00000000000E+00 0.  1.
         21    1    1    2  503  502  0.42217109690E+01 -0.22253075534E+02 -0.18068727090E+02  0.28974145594E+02  0.00000000000E+00 0.  1.
         21    1    1    2  504  503 -0.42217109690E+01  0.22253075534E+02  0.94535405056E+03  0.94562535030E+03  0.00000000000E+00 0. -1.
<mgrwt>
<rscale>  2 0.22649994E+02</rscale>
<asrwt>0</asrwt>
<pdfrwt beam="1">  1       21 0.14629880E+00 0.22649994E+02</pdfrwt>
<pdfrwt beam="2">  1       21 0.36395525E-02 0.22649994E+02</pdfrwt>
<totfact> 0.16030262E+05</totfact>
</mgrwt>
</event>
<event>
 4    1  0.4447136E+006  0.2793823E+02  0.7546771E-02  0.1622065E+00
         21   -1    0    0  504  501  0.00000000000E+00  0.00000000000E+00  0.67057431955E+02  0.67057431955E+02  0.00000000000E+00 0. -1.
         21   -1    0    0  503  502 -0.00000000000E+00 -0.00000000000E+00 -0.40376992760E+02  0.40376992760E+02  0.00000000000E+00 0. -1.
         21    1    1    2  503  501 -0.38612740361E+01 -0.27670113135E+02  0.58657890563E+02  0.64971476229E+02  0.00000000000E+00 0. -1.
         21    1    1    2  504  502  0.38612740361E+01  0.27670113135E+02 -0.31977451368E+02  0.42462948485E+02  0.00000000000E+00 0. -1.
<mgrwt>
<rscale>  2 0.27938228E+02</rscale>
<asrwt>0</asrwt>
<pdfrwt beam="1">  1       21 0.10316528E-01 0.27938228E+02</pdfrwt>
<pdfrwt beam="2">  1       21 0.62118450E-02 0.27938228E+02</pdfrwt>
<totfact> 0.11602061E+07</totfact>
</mgrwt>
</event>
<event>
 4    1  0.4447136E+006  0.1259737E+03  0.7546771E-02  0.1233555E+00
         21   -1    0    0  503  501  0.00000000000E+00  0.00000000000E+00  0.47848662586E+02  0.47848662586E+02  0.00000000000E+00 0. -1.
         21   -1    0    0  504  502 -0.00000000000E+00 -0.00000000000E+00 -0.33717506178E+03  0.33717506178E+03  0.00000000000E+00 0. -1.
         21    1    1    2  503  502 -0.12096422973E+03  0.35171587835E+02 -0.12003748433E+03  0.17400684788E+03  0.00000000000E+00 0. -1.
         21    1    1    2  504  501  0.12096422973E+03 -0.35171587835E+02 -0.16928891487E+03  0.21101687649E+03  0.00000000000E+00 0. -1.
<mgrwt>
<rscale>  2 0.12597375E+03</rscale>
<asrwt>0</asrwt>
<pdfrwt beam="1">  1       21 0.73613329E-02 0.12597375E+03</pdfrwt>
<pdfrwt beam="2">  1       21 0.51873085E-01 0.12597375E+03</pdfrwt>
<totfact> 0.49377460E+05</totfact>
</mgrwt>
</event>
<event>
 4    1  0.4447136E+006  0.2850743E+02  0.7546771E-02  0.1615198E+00
         21   -1    0    0  503  501  0.00000000000E+00  0.00000000000E+00  0.58686850631E+02  0.58686850631E+02  0.00000000000E+00 0. -1.
         21   -1    0    0  504  502 -0.00000000000E+00 -0.00000000000E+00 -0.17169717279E+02  0.17169717279E+02  0.00000000000E+00 0.  1.
         21    1    1    2  503  502  0.11847299974E+02  0.25929035607E+02  0.40750509782E+01  0.28797212446E+02  0.00000000000E+00 0.  1.
         21    1    1    2  504  501 -0.11847299974E+02 -0.25929035607E+02  0.37442082374E+02  0.47059355464E+02  0.00000000000E+00 0. -1.
<mgrwt>
<rscale>  2 0.28507427E+02</rscale>
<asrwt>0</asrwt>
<pdfrwt beam="1">  1       21 0.90287462E-02 0.28507427E+02</pdfrwt>
<pdfrwt beam="2">  1       21 0.26414950E-02 0.28507427E+02</pdfrwt>
<totfact> 0.56646298E+07</totfact>
</mgrwt>
</event>
<event>
 4    1  0.4447136E+006  0.3826055E+02  0.7546771E-02  0.1521417E+00
         21   -1    0    0  503  501  0.00000000000E+00  0.00000000000E+00  0.64668463554E+03  0.64668463554E+03  0.00000000000E+00 0. -1.
         21   -1    0    0  501  502 -0.00000000000E+00 -0.00000000000E+00 -0.67606103868E+01  0.67606103868E+01  0.00000000000E+00 0.  1.
         21    1    1    2  503  504  0.37827002610E+02  0.57434643168E+01  0.58643037125E+03  0.58767716464E+03  0.00000000000E+00 0. -1.
         21    1    1    2  504  502 -0.37827002610E+02 -0.57434643168E+01  0.53493653899E+02  0.65768081288E+02  0.00000000000E+00 0.  1.
<mgrwt>
<rscale>  2 0.38260548E+02</rscale>
<asrwt>0</asrwt>
<pdfrwt beam="1">  1       21 0.99489895E-01 0.38260548E+02</pdfrwt>
<pdfrwt beam="2">  1       21 0.10400944E-02 0.38260548E+02</pdfrwt>
<totfact> 0.27593592E+06</totfact>
</mgrwt>
</event>
<event>
 4    1  0.4447136E+006  0.3045179E+02  0.7546771E-02  0.1593148E+00
         21   -1    0    0  504  501  0.00000000000E+00  0.00000000000E+00  0.50638502241E+02  0.50638502241E+02  0.00000000000E+00 0.  1.
         21   -1    0    0  501  502 -0.00000000000E+00 -0.00000000000E+00 -0.15986983723E+03  0.15986983723E+03  0.00000000000E+00 0.  1.
         21    1    1    2  503  502  0.26645938106E+02  0.14741290985E+02 -0.15365835454E+03  0.15664674142E+03  0.00000000000E+00 0.  1.
         21    1    1    2  504  503 -0.26645938106E+02 -0.14741290985E+02  0.44427019556E+02  0.53861598046E+02  0.00000000000E+00 0.  1.
<mgrwt>
<rscale>  2 0.30451793E+02</rscale>
<asrwt>0</asrwt>
<pdfrwt beam="1">  1       21 0.77905387E-02 0.30451793E+02</pdfrwt>
<pdfrwt beam="2">  1       21 0.24595360E-01 0.30451793E+02</pdfrwt>
<totfact> 0.18033661E+06</totfact>
</mgrwt>
</event>
<event>
 4    1  0.4447136E+006  0.2295191E+02  0.7546771E-02  0.1692291E+00
         21   -1    0    0  503  501  0.00000000000E+00  0.00000000000E+00  0.25012705018E+03  0.25012705018E+03  0.00000000000E+00 0.  1.
         21   -1    0    0  504  502 -0.00000000000E+00 -0.00000000000E+00 -0.90602077149E+01  0.90602077149E+01  0.00000000000E+00 0.  1.
         21    1    1    2  503  502  0.19080433892E+02  0.12756466138E+02  0.23406993502E+03  0.23519252723E+03  0.00000000000E+00 0.  1.
         21    1    1    2  504  501 -0.19080433892E+02 -0.12756466138E+02  0.69969074472E+01  0.23994730664E+02  0.00000000000E+00 0.  1.
<mgrwt>
<rscale>  2 0.22951915E+02</rscale>
<asrwt>0</asrwt>
<pdfrwt beam="1">  1       21 0.38481079E-01 0.22951915E+02</pdfrwt>
<pdfrwt beam="2">  1       21 0.13938783E-02 0.22951915E+02</pdfrwt>
<totfact> 0.11446177E+07</totfact>
</mgrwt>
</event>
<event>
 4    1  0.4447136E+006  0.3381209E+02  0.7546771E-02  0.1559410E+00
         21   -1    0    0  503  501  0.00000000000E+00  0.00000000000E+00  0.26267977911E+01  0.26267977911E+01  0.00000000000E+00 0.  1.
         21   -1    0    0  504  502 -0.00000000000E+00 -0.00000000000E+00 -0.55730411380E+03  0.55730411380E+03  0.00000000000E+00 0.  1.
         21    1    1    2  503  502  0.27928814854E+02 -0.19058816033E+02 -0.40836929315E+03  0.40976668576E+03  0.00000000000E+00 0.  1.
         21    1    1    2  504  501 -0.27928814854E+02  0.19058816033E+02 -0.14630802285E+03  0.15016422583E+03  0.00000000000E+00 0.  1.
<mgrwt>
<rscale>  2 0.33812086E+02</rscale>
<asrwt>0</asrwt>
<pdfrwt beam="1">  1       21 0.40412262E-03 0.33812086E+02</pdfrwt>
<pdfrwt beam="2">  1       21 0.85739119E-01 0.33812086E+02</pdfrwt>
<totfact> 0.15673192E+07</totfact>
</mgrwt>
</event>
<event>
 4    1  0.4447136E+006  0.4173025E+02  0.7546771E-02  0.1495851E+00
         21   -1    0    0  504  501  0.00000000000E+00  0.00000000000E+00  0.53642998774E+03  0.53642998774E+03  0.00000000000E+00 0. -1.
         21   -1    0    0  503  502 -0.00000000000E+00 -0.00000000000E+00 -0.57667788330E+01  0.57667788330E+01  0.00000000000E+00 0. -1.
         21    1    1    2  503  501  0.39177169951E+02  0.14372291468E+02  0.86105325359E+02  0.95684588428E+02  0.00000000000E+00 0. -1.
         21    1    1    2  504  502 -0.39177169951E+02 -0.14372291468E+02  0.44455788355E+03  0.44651217815E+03  0.00000000000E+00 0. -1.
<mgrwt>
<rscale>  2 0.41730246E+02</rscale>
<asrwt>0</asrwt>
<pdfrwt beam="1">  1       21 0.82527651E-01 0.41730246E+02</pdfrwt>
<pdfrwt beam="2">  1       21 0.88719717E-03 0.41730246E+02</pdfrwt>
<totfact> 0.53441937E+06</totfact>
</mgrwt>
</event>
<event>
 4    1  0.4447136E+006  0.2310080E+02  0.7546771E-02  0.1689881E+00
         21   -1    0    0  504  501  0.00000000000E+00  0.00000000000E+00  0.97976954595E+01  0.97976954595E+01  0.00000000000E+00 0. -1.
         21   -1    0    0  503  502 -0.00000000000E+00 -0.00000000000E+00 -0.46388678281E+03  0.46388678281E+03  0.00000000000E+00 0. -1.
         21    1    1    2  503  501 -0.70021712652E+00 -0.23090189695E+02 -0.45405642363E+01  0.23542809683E+02  0.00000000000E+00 0. -1.
         21    1    1    2  504  502  0.70021712652E+00  0.23090189695E+02 -0.44954852311E+03  0.45014166858E+03  0.00000000000E+00 0. -1.
<mgrwt>
<rscale>  2 0.23100804E+02</rscale>
<asrwt>0</asrwt>
<pdfrwt beam="1">  1       21 0.15073377E-02 0.23100804E+02</pdfrwt>
<pdfrwt beam="2">  1       21 0.71367199E-01 0.23100804E+02</pdfrwt>
<totfact> 0.30313138E+06</totfact>
</mgrwt>
</event>
<event>
 4    1  0.4447136E+006  0.2075657E+02  0.7546771E-02  0.1730688E+00
         21   -1    0    0  503  501  0.00000000000E+00  0.00000000000E+00  0.14651330436E+02  0.14651330436E+02  0.00000000000E+00 0.  1.
         21   -1    0    0  504  502 -0.00000000000E+00 -0.00000000000E+00 -0.13077962731E+03  0.13077962731E+03  0.00000000000E+00 0.  1.
         21    1    1    2  503  502 -0.93318589370E+01  0.18540543023E+02 -0.12208472220E+03  0.12383664531E+03  0.00000000000E+00 0.  1.
         21    1    1    2  504  501  0.93318589370E+01 -0.18540543023E+02  0.59564253284E+01  0.21594312434E+02  0.00000000000E+00 0.  1.
<mgrwt>
<rscale>  2 0.20756573E+02</rscale>
<asrwt>0</asrwt>
<pdfrwt beam="1">  1       21 0.22540509E-02 0.20756573E+02</pdfrwt>
<pdfrwt beam="2">  1       21 0.20119942E-01 0.20756573E+02</pdfrwt>
<totfact> 0.17326550E+07</totfact>
</mgrwt>
</event>
<event>
 4    1  0.4447136E+006  0.4590747E+02  0.7546771E-02  0.1468755E+00
         21   -1    0    0  504  501  0.00000000000E+00  0.00000000000E+00  0.33777123715E+03  0.33777123715E+03  0.00000000000E+00 0. -1.
         21   -1    0    0  503  502 -0.00000000000E+00 -0.00000000000E+00 -0.92233096218E+01  0.92233096218E+01  0.00000000000E+00 0.  1.
         21    1    1    2  503  501  0.29216066329E+02  0.35410693506E+02  0.65591309175E+02  0.80060699383E+02  0.00000000000E+00 0.  1.
         21    1    1    2  504  502 -0.29216066329E+02 -0.35410693506E+02  0.26295661835E+03  0.26693384739E+03  0.00000000000E+00 0. -1.
<mgrwt>
<rscale>  2 0.45907469E+02</rscale>
<asrwt>0</asrwt>
<pdfrwt beam="1">  1       21 0.51964796E-01 0.45907469E+02</pdfrwt>
<pdfrwt beam="2">  1       21 0.14189710E-02 0.45907469E+02</pdfrwt>
<totfact> 0.68630640E+06</totfact>
</mgrwt>
</event>
<event>
 4    1  0.4447136E+006  0.5145238E+02  0.7546771E-02  0.1437662E+00
         21   -1    0    0  504  501  0.00000000000E+00  0.00000000000E+00  0.18023513570E+03  0.18023513570E+03  0.00000000000E+00 0. -1.
         21   -1    0    0  503  502 -0.00000000000E+00 -0.00000000000E+00 -0.14696750703E+02  0.14696750703E+02  0.00000000000E+00 0. -1.
         21    1    1    2  503  501  0.77105817406E+01 -0.50871345922E+02  0.85106995650E+02  0.99451232347E+02  0.00000000000E+00 0. -1.
         21    1    1    2  504  502 -0.77105817406E+01  0.50871345922E+02  0.80431389344E+02  0.95480654054E+02  0.00000000000E+00 0. -1.
<mgrwt>
<rscale>  2 0.51452375E+02</rscale>
<asrwt>0</asrwt>
<pdfrwt beam="1">  1       21 0.27728481E-01 0.51452375E+02</pdfrwt>
<pdfrwt beam="2">  1       21 0.22610387E-02 0.51452375E+02</pdfrwt>
<totfact> 0.11251992E+07</totfact>
</mgrwt>
</event>
<event>
 4    1  0.4447136E+006  0.3258793E+02  0.7546771E-02  0.1571126E+00
         21   -1    0    0  504  501  0.00000000000E+00  0.00000000000E+00  0.13044367248E+02  0.13044367248E+02  0.00000000000E+00 0. -1.
         21   -1    0    0  501  502 -0.00000000000E+00 -0.00000000000E+00 -0.19042964882E+03  0.19042964882E+03  0.00000000000E+00 0. -1.
         21    1    1    2  503  502 -0.21777058002E+02  0.24243208023E+02 -0.16566933650E+03  0.16884401810E+03  0.00000000000E+00 0. -1.
         21    1    1    2  504  503  0.21777058002E+02 -0.24243208023E+02 -0.11715945069E+02  0.34629997969E+02  0.00000000000E+00 0. -1.
<mgrwt>
<rscale>  2 0.32587933E+02</rscale>
<asrwt>0</asrwt>
<pdfrwt beam="1">  1       21 0.20068258E-02 0.32587933E+02</pdfrwt>
<pdfrwt beam="2">  1       21 0.29296868E-01 0.32587933E+02</pdfrwt>
<totfact> 0.11521615E+07</totfact>
</mgrwt>
</event>
<event>
 4    1  0.4447136E+006  0.2108670E+02  0.7546771E-02  0.1724543E+00
         21   -1    0    0  502  501  0.00000000000E+00  0.00000000000E+00  0.10227249215E+03  0.10227249215E+03  0.00000000000E+00 0.  1.
         21   -1    0    0  503  502 -0.00000000000E+00 -0.00000000000E+00 -0.29772492105E+02  0.29772492105E+02  0.00000000000E+00 0.  1.
         21    1    1    2  503  504  0.12134978067E+02  0.17245029494E+02 -0.24761701853E+02  0.32523693111E+02  0.00000000000E+00 0.  1.
         21    1    1    2  504  501 -0.12134978067E+02 -0.17245029494E+02  0.97261701900E+02  0.99521291147E+02  0.00000000000E+00 0.  1.
<mgrwt>
<rscale>  2 0.21086696E+02</rscale>
<asrwt>0</asrwt>
<pdfrwt beam="1">  1       21 0.15734229E-01 0.21086696E+02</pdfrwt>
<pdfrwt beam="2">  1       21 0.45803835E-02 0.21086696E+02</pdfrwt>
<totfact> 0.88011165E+06</totfact>
</mgrwt>
</event>
<event>
 4    1  0.4447136E+006  0.6640304E+02  0.7546771E-02  0.1372770E+00
         21   -1    0    0  502  501  0.00000000000E+00  0.00000000000E+00  0.60099360786E+02  0.60099360786E+02  0.00000000000E+00 0.  1.
         21   -1    0    0  504  502 -0.00000000000E+00 -0.00000000000E+00 -0.32508439465E+03  0.32508439465E+03  0.00000000000E+00 0. -1.
         21    1    1    2  503  501 -0.64506290589E+02  0.15757623361E+02  0.36978618545E+02  0.76005147517E+02  0.00000000000E+00 0.  1.
         21    1    1    2  504  503  0.64506290589E+02 -0.15757623361E+02 -0.30196365241E+03  0.30917860792E+03  0.00000000000E+00 0. -1.
<mgrwt>
<rscale>  2 0.66403044E+02</rscale>
<asrwt>0</asrwt>
<pdfrwt beam="1">  1       21 0.92460554E-02 0.66403044E+02</pdfrwt>
<pdfrwt beam="2">  1       21 0.50012984E-01 0.66403044E+02</pdfrwt>
<totfact> 0.36190270E+05</totfact>
</mgrwt>
</event>
<event>
 4    1  0.4447136E+006  0.2409783E+02  0.7546771E-02  0.1674309E+00
         21   -1    0    0  503  501  0.00000000000E+00  0.00000000000E+00  0.21174798709E+02  0.21174798709E+02  0.00000000000E+00 0.  1.
         21   -1    0    0  504  502 -0.00000000000E+00 -0.00000000000E+00 -0.29649849140E+02  0.29649849140E+02  0.00000000000E+00 0.  1.
         21    1    1    2  503  502 -0.19455991378E+02 -0.14218644187E+02  0.27246545356E+01  0.24251374917E+02  0.00000000000E+00 0.  1.
         21    1    1    2  504  501  0.19455991378E+02  0.14218644187E+02 -0.11199704966E+02  0.26573272933E+02  0.00000000000E+00 0.  1.
<mgrwt>
<rscale>  2 0.24097831E+02</rscale>
<asrwt>0</asrwt>
<pdfrwt beam="1">  1       21 0.32576614E-02 0.24097831E+02</pdfrwt>
<pdfrwt beam="2">  1       21 0.45615152E-02 0.24097831E+02</pdfrwt>
<totfact> 0.11822450E+08</totfact>
</mgrwt>
</event>
<event>
 4    1  0.4447136E+006  0.2706139E+02  0.7546771E-02  0.1633045E+00
         21   -1    0    0  504  501  0.00000000000E+00  0.00000000000E+00  0.61111551849E+02  0.61111551849E+02  0.00000000000E+00 0.  1.
         21   -1    0    0  503  502 -0.00000000000E+00 -0.00000000000E+00 -0.13998054811E+02  0.13998054811E+02  0.00000000000E+00 0.  1.
         21    1    1    2  503  501  0.15694249208E+02 -0.22045618444E+02  0.37804342431E+02  0.46491795593E+02  0.00000000000E+00 0.  1.
         21    1    1    2  504  502 -0.15694249208E+02  0.22045618444E+02  0.93091546071E+01  0.28617811068E+02  0.00000000000E+00 0.  1.
<mgrwt>
<rscale>  2 0.27061389E+02</rscale>
<asrwt>0</asrwt>
<pdfrwt beam="1">  1       21 0.94017771E-02 0.27061389E+02</pdfrwt>
<pdfrwt beam="2">  1       21 0.21535469E-02 0.27061389E+02</pdfrwt>
<totfact> 0.71847809E+07</totfact>
</mgrwt>
</event>
<event>
 4    1  0.4447136E+006  0.2552380E+02  0.7546771E-02  0.1653590E+00
         21   -1    0    0  502  501  0.00000000000E+00  0.00000000000E+00  0.97026942284E+00  0.97026942284E+00  0.00000000000E+00 0.  1.
         21   -1    0    0  504  502 -0.00000000000E+00 -0.00000000000E+00 -0.67174902897E+03  0.67174902897E+03  0.00000000000E+00 0.  1.
         21    1    1    2  503  501 -0.22027222675E+02  0.12894418627E+02 -0.34276005058E+03  0.34370905843E+03  0.00000000000E+00 0.  1.
         21    1    1    2  504  503  0.22027222675E+02 -0.12894418627E+02 -0.32801870896E+03  0.32901023996E+03  0.00000000000E+00 0.  1.
<mgrwt>
<rscale>  2 0.25523804E+02</rscale>
<asrwt>0</asrwt>
<pdfrwt beam="1">  1       21 0.14927193E-03 0.25523804E+02</pdfrwt>
<pdfrwt beam="2">  1       21 0.10334620E+00 0.25523804E+02</pdfrwt>
<totfact> 0.42608667E+07</totfact>
</mgrwt>
</event>
<event>
 4    1  0.4447136E+006  0.2172374E+02  0.7546771E-02  0.1713074E+00
         21   -1    0    0  504  501  0.00000000000E+00  0.00000000000E+00  0.55546754392E+02  0.55546754392E+02  0.00000000000E+00 0. -1.
         21   -1    0    0  501  502 -0.00000000000E+00 -0.00000000000E+00 -0.85387842885E+01  0.85387842885E+01  0.00000000000E+00 0.  1.
         21    1    1    2  503  502  0.21066061330E+02 -0.53048819865E+01  0.21233670159E+02  0.30377449881E+02  0.00000000000E+00 0.  1.
         21    1    1    2  504  503 -0.21066061330E+02  0.53048819865E+01  0.25774299944E+02  0.33708088799E+02  0.00000000000E+00 0. -1.
<mgrwt>
<rscale>  2 0.21723736E+02</rscale>
<asrwt>0</asrwt>
<pdfrwt beam="1">  1       21 0.85456543E-02 0.21723736E+02</pdfrwt>
<pdfrwt beam="2">  1       21 0.13136592E-02 0.21723736E+02</pdfrwt>
<totfact> 0.16837136E+08</totfact>
</mgrwt>
</event>
<event>
 4    1  0.4447136E+006  0.2342955E+02  0.7546771E-02  0.1684640E+00
         21   -1    0    0  504  501  0.00000000000E+00  0.00000000000E+00  0.24540801491E+02  0.24540801491E+02  0.00000000000E+00 0. -1.
         21   -1    0    0  503  502 -0.00000000000E+00 -0.00000000000E+00 -0.25159060824E+02  0.25159060824E+02  0.00000000000E+00 0. -1.
         21    1    1    2  503  501  0.23429000154E+02 -0.16031636104E+00 -0.85850203581E+01  0.24952882080E+02  0.00000000000E+00 0. -1.
         21    1    1    2  504  502 -0.23429000154E+02  0.16031636104E+00  0.79667610249E+01  0.24746980235E+02  0.00000000000E+00 0. -1.
<mgrwt>
<rscale>  2 0.23429549E+02</rscale>
<asrwt>0</asrwt>
<pdfrwt beam="1">  1       21 0.37755079E-02 0.23429549E+02</pdfrwt>
<pdfrwt beam="2">  1       21 0.38706248E-02 0.23429549E+02</pdfrwt>
<totfact> 0.12060861E+08</totfact>
</mgrwt>
</event>
<event>
 4    1  0.4447136E+006  0.2069055E+02  0.7546771E-02  0.1731934E+00
         21   -1    0    0  503  501  0.00000000000E+00  0.00000000000E+00  0.67715828234E+02  0.67715828234E+02  0.00000000000E+00 0.  1.
         21   -1    0    0  504  502 -0.00000000000E+00 -0.00000000000E+00 -0.11181723522E+02  0.11181723522E+02  0.00000000000E+00 0. -1.
         21    1    1    2  503  502  0.19648487704E+02  0.64835122592E+01  0.54273752177E+02  0.58083897731E+02  0.00000000000E+00 0.  1.
         21    1    1    2  504  501 -0.19648487704E+02 -0.64835122592E+01  0.22603525352E+01  0.20813654025E+02  0.00000000000E+00 0. -1.
<mgrwt>
<rscale>  2 0.20690553E+02</rscale>
<asrwt>0</asrwt>
<pdfrwt beam="1">  1       21 0.10417820E-01 0.20690553E+02</pdfrwt>
<pdfrwt beam="2">  1       21 0.17202652E-02 0.20690553E+02</pdfrwt>
<totfact> 0.79653185E+07</totfact>
</mgrwt>
</event>
<event>
 4    1  0.4447136E+006  0.2454677E+02  0.7546771E-02  0.1667598E+00
         21   -1    0    0  504  501  0.00000000000E+00  0.00000000000E+00  0.89095642798E+02  0.89095642798E+02  0.00000000000E+00 0. -1.
         21   -1    0    0  503  502 -0.00000000000E+00 -0.00000000000E+00 -0.10919604737E+02  0.10919604737E+02  0.00000000000E+00 0.  1.
         21    1    1    2  503  501 -0.22285439308E+02  0.10290931427E+02  0.82342769525E+01  0.25891067798E+02  0.00000000000E+00 0.  1.
         21    1    1    2  504  502  0.22285439308E+02 -0.10290931427E+02  0.69941761109E+02  0.74124179738E+02  0.00000000000E+00 0. -1.
<mgrwt>
<rscale>  2 0.24546773E+02</rscale>
<asrwt>0</asrwt>
<pdfrwt beam="1">  1       21 0.13707021E-01 0.24546773E+02</pdfrwt>
<pdfrwt beam="2">  1       21 0.16799392E-02 0.24546773E+02</pdfrwt>
<totfact> 0.54641754E+07</totfact>
</mgrwt>
</event>
<event>
 4    1  0.4447136E+006  0.2024277E+02  0.7546771E-02  0.1740543E+00
         21   -1    0    0  504  501  0.00000000000E+00  0.00000000000E+00  0.19185136534E+01  0.19185136534E+01  0.00000000000E+00 0. -1.
         21   -1    0    0  503  502 -0.00000000000E+00 -0.00000000000E+00 -0.36864832113E+03  0.36864832113E+03  0.00000000000E+00 0. -1.
         21    1    1    2  503  501 -0.33528649972E+01 -0.19963165373E+02 -0.63198769733E+02  0.66361541356E+02  0.00000000000E+00 0. -1.
         21    1    1    2  504  502  0.33528649972E+01  0.19963165373E+02 -0.30353103775E+03  0.30420529343E+03  0.00000000000E+00 0. -1.
<mgrwt>
<rscale>  2 0.20242768E+02</rscale>
<asrwt>0</asrwt>
<pdfrwt beam="1">  1       21 0.29515567E-03 0.20242768E+02</pdfrwt>
<pdfrwt beam="2">  1       21 0.56715180E-01 0.20242768E+02</pdfrwt>
<totfact> 0.52739758E+07</totfact>
</mgrwt>
</event>
<event>
 4    1  0.4447136E+006  0.2142349E+02  0.7546771E-02  0.1718418E+00
         21   -1    0    0  502  501  0.00000000000E+00  0.00000000000E+00  0.35157455911E+03  0.35157455911E+03  0.00000000000E+00 0. -1.
         21   -1    0    0  503  502 -0.00000000000E+00 -0.00000000000E+00 -0.38754608283E+01  0.38754608283E+01  0.00000000000E+00 0. -1.
         21    1    1    2  503  504  0.21356612686E+02  0.16913995223E+01  0.29121172087E+02  0.36152571160E+02  0.00000000000E+00 0. -1.
         21    1    1    2  504  501 -0.21356612686E+02 -0.16913995223E+01  0.31857792620E+03  0.31929744878E+03  0.00000000000E+00 0. -1.
<mgrwt>
<rscale>  2 0.21423486E+02</rscale>
<asrwt>0</asrwt>
<pdfrwt beam="1">  1       21 0.54088369E-01 0.21423486E+02</pdfrwt>
<pdfrwt beam="2">  1       21 0.59622502E-03 0.21423486E+02</pdfrwt>
<totfact> 0.20954732E+07</totfact>
</mgrwt>
</event>
<event>
 4    1  0.4447136E+006  0.2962153E+02  0.7546771E-02  0.1602310E+00
         21   -1    0    0  504  501  0.00000000000E+00  0.00000000000E+00  0.16668698722E+02  0.16668698722E+02  0.00000000000E+00 0. -1.
         21   -1    0    0  501  502 -0.00000000000E+00 -0.00000000000E+00 -0.77022255749E+02  0.77022255749E+02  0.00000000000E+00 0. -1.
         21    1    1    2  503  502 -0.22043896430E+02  0.19786403159E+02 -0.56533977789E+02  0.63824178526E+02  0.00000000000E+00 0. -1.
         21    1    1    2  504  503  0.22043896430E+02 -0.19786403159E+02 -0.38195792382E+01  0.29866775945E+02  0.00000000000E+00 0. -1.
<mgrwt>
<rscale>  2 0.29621531E+02</rscale>
<asrwt>0</asrwt>
<pdfrwt beam="1">  1       21 0.25644152E-02 0.29621531E+02</pdfrwt>
<pdfrwt beam="2">  1       21 0.11849578E-01 0.29621531E+02</pdfrwt>
<totfact> 0.37968703E+07</totfact>
</mgrwt>
</event>
<event>
 4    1  0.4447136E+006  0.2014266E+02  0.7546771E-02  0.1742506E+00
         21   -1    0    0  504  501  0.00000000000E+00  0.00000000000E+00  0.32709326714E+00  0.32709326714E+00  0.00000000000E+00 0.  1.
         21   -1    0    0  501  502 -0.00000000000E+00 -0.00000000000E+00 -0.13662847768E+04  0.13662847768E+04  0.00000000000E+00 0.  1.
         21    1    1    2  503  502 -0.19988252074E+02  0.24893222896E+01 -0.89038840201E+03  0.89061620993E+03  0.00000000000E+00 0.  1.
         21    1    1    2  504  503  0.19988252074E+02 -0.24893222896E+01 -0.47556928156E+03  0.47599566018E+03  0.00000000000E+00 0.  1.
<mgrwt>
<rscale>  2 0.20142665E+02</rscale>
<asrwt>0</asrwt>
<pdfrwt beam="1">  1       21 0.50321423E-04 0.20142665E+02</pdfrwt>
<pdfrwt beam="2">  1       21 0.21020024E+00 0.20142665E+02</pdfrwt>
<totfact> 0.35349312E+07</totfact>
</mgrwt>
</event>
<event>
 4    1  0.4447136E+006  0.2039716E+02  0.7546771E-02  0.1737544E+00
         21   -1    0    0  503  501  0.00000000000E+00  0.00000000000E+00  0.73400896502E+02  0.73400896502E+02  0.00000000000E+00 0.  1.
         21   -1    0    0  504  502 -0.00000000000E+00 -0.00000000000E+00 -0.85703211807E+01  0.85703211807E+01  0.00000000000E+00 0. -1.
         21    1    1    2  503  502  0.17336699736E+02 -0.10746292933E+02  0.56265801548E+02  0.59848846216E+02  0.00000000000E+00 0.  1.
         21    1    1    2  504  501 -0.17336699736E+02  0.10746292933E+02  0.85647737736E+01  0.22122371467E+02  0.00000000000E+00 0. -1.
<mgrwt>
<rscale>  2 0.20397156E+02</rscale>
<asrwt>0</asrwt>
<pdfrwt beam="1">  1       21 0.11292445E-01 0.20397156E+02</pdfrwt>
<pdfrwt beam="2">  1       21 0.13185110E-02 0.20397156E+02</pdfrwt>
<totfact> 0.10383714E+08</totfact>
</mgrwt>
</event>
<event>
 4    1  0.4447136E+006  0.2874005E+02  0.7546771E-02  0.1612448E+00
         21   -1    0    0  502  501  0.00000000000E+00  0.00000000000E+00  0.10628456497E+03  0.10628456497E+03  0.00000000000E+00 0. -1.
         21   -1    0    0  503  502 -0.00000000000E+00 -0.00000000000E+00 -0.22122907722E+02  0.22122907722E+02  0.00000000000E+00 0. -1.
         21    1    1    2  503  504 -0.26494125107E+02 -0.11137851205E+02 -0.96305914918E+01  0.30310702518E+02  0.00000000000E+00 0. -1.
         21    1    1    2  504  501  0.26494125107E+02  0.11137851205E+02  0.93792248745E+02  0.98096770178E+02  0.00000000000E+00 0. -1.
<mgrwt>
<rscale>  2 0.28740049E+02</rscale>
<asrwt>0</asrwt>
<pdfrwt beam="1">  1       21 0.16351471E-01 0.28740049E+02</pdfrwt>
<pdfrwt beam="2">  1       21 0.34035243E-02 0.28740049E+02</pdfrwt>
<totfact> 0.13953440E+07</totfact>
</mgrwt>
</event>
<event>
 4    1  0.4447136E+006  0.2134255E+02  0.7546771E-02  0.1719877E+00
         21   -1    0    0  503  501  0.00000000000E+00  0.00000000000E+00  0.41540330831E+01  0.41540330831E+01  0.00000000000E+00 0. -1.
         21   -1    0    0  504  502 -0.00000000000E+00 -0.00000000000E+00 -0.17159712919E+03  0.17159712919E+03  0.00000000000E+00 0. -1.
         21    1    1    2  503  502 -0.20538686730E+02  0.58023218253E+01 -0.13651879175E+03  0.13817700638E+03  0.00000000000E+00 0. -1.
         21    1    1    2  504  501  0.20538686730E+02 -0.58023218253E+01 -0.30924304358E+02  0.37574155895E+02  0.00000000000E+00 0. -1.
<mgrwt>
<rscale>  2 0.21342554E+02</rscale>
<asrwt>0</asrwt>
<pdfrwt beam="1">  1       21 0.63908221E-03 0.21342554E+02</pdfrwt>
<pdfrwt beam="2">  1       21 0.26399550E-01 0.21342554E+02</pdfrwt>
<totfact> 0.72121076E+07</totfact>
</mgrwt>
</event>
<event>
 4    1  0.4447136E+006  0.2064142E+02  0.7546771E-02  0.1732865E+00
         21   -1    0    0  503  501  0.00000000000E+00  0.00000000000E+00  0.55987069284E+02  0.55987069284E+02  0.00000000000E+00 0. -1.
         21   -1    0    0  504  502 -0.00000000000E+00 -0.00000000000E+00 -0.93096956877E+01  0.93096956877E+01  0.00000000000E+00 0. -1.
         21    1    1    2  503  502  0.17139299728E+02  0.11502729578E+02  0.37288359844E+02  0.42620302237E+02  0.00000000000E+00 0. -1.
         21    1    1    2  504  501 -0.17139299728E+02 -0.11502729578E+02  0.93890137521E+01  0.22676462735E+02  0.00000000000E+00 0. -1.
<mgrwt>
<rscale>  2 0.20641424E+02</rscale>
<asrwt>0</asrwt>
<pdfrwt beam="1">  1       21 0.86133951E-02 0.20641424E+02</pdfrwt>
<pdfrwt beam="2">  1       21 0.14322609E-02 0.20641424E+02</pdfrwt>
<totfact> 0.14358554E+08</totfact>
</mgrwt>
</event>
<event>
 4    1  0.4447136E+006  0.2126008E+02  0.7546771E-02  0.1721372E+00
         21   -1    0    0  504  501  0.00000000000E+00  0.00000000000E+00  0.69147172801E+01  0.69147172801E+01  0.00000000000E+00 0. -1.
         21   -1    0    0  503  502 -0.00000000000E+00 -0.00000000000E+00 -0.67790206298E+02  0.67790206298E+02  0.00000000000E+00 0. -1.
         21    1    1    2  503  501  0.14030824689E+02 -0.15972697951E+02 -0.23375016943E+02  0.31597191939E+02  0.00000000000E+00 0. -1.
         21    1    1    2  504  502 -0.14030824689E+02  0.15972697951E+02 -0.37500472074E+02  0.43107731639E+02  0.00000000000E+00 0. -1.
<mgrwt>
<rscale>  2 0.21260083E+02</rscale>
<asrwt>0</asrwt>
<pdfrwt beam="1">  1       21 0.10638027E-02 0.21260083E+02</pdfrwt>
<pdfrwt beam="2">  1       21 0.10429262E-01 0.21260083E+02</pdfrwt>
<totfact> 0.16562691E+08</totfact>
</mgrwt>
</event>
<event>
 4    1  0.4447136E+006  0.2044097E+02  0.7546771E-02  0.1736698E+00
         21   -1    0    0  504  501  0.00000000000E+00  0.00000000000E+00  0.64222716992E+03  0.64222716992E+03  0.00000000000E+00 0. -1.
         21   -1    0    0  503  502 -0.00000000000E+00 -0.00000000000E+00 -0.11300345497E+02  0.11300345497E+02  0.00000000000E+00 0. -1.
         21    1    1    2  503  501  0.63668489906E+01  0.19424119623E+02 -0.17544465927E+01  0.20516122247E+02  0.00000000000E+00 0. -1.
         21    1    1    2  504  502 -0.63668489906E+01 -0.19424119623E+02  0.63268127101E+03  0.63301139317E+03  0.00000000000E+00 0. -1.
<mgrwt>
<rscale>  2 0.20440968E+02</rscale>
<asrwt>0</asrwt>
<pdfrwt beam="1">  1       21 0.98804152E-01 0.20440968E+02</pdfrwt>
<pdfrwt beam="2">  1       21 0.17385152E-02 0.20440968E+02</pdfrwt>
<totfact> 0.12108885E+06</totfact>
</mgrwt>
</event>
<event>
 4    1  0.4447136E+006  0.2307955E+02  0.7546771E-02  0.1690224E+00
         21   -1    0    0  504  501  0.00000000000E+00  0.00000000000E+00  0.46669949527E+02  0.46669949527E+02  0.00000000000E+00 0. -1.
         21   -1    0    0  501  502 -0.00000000000E+00 -0.00000000000E+00 -0.10982660235E+03  0.10982660235E+03  0.00000000000E+00 0. -1.
         21    1    1    2  503  502  0.16982199130E+02 -0.15629162625E+02 -0.10564921300E+03  0.10814075096E+03  0.00000000000E+00 0. -1.
         21    1    1    2  504  503 -0.16982199130E+02  0.15629162625E+02  0.42492560176E+02  0.48355800914E+02  0.00000000000E+00 0. -1.
<mgrwt>
<rscale>  2 0.23079554E+02</rscale>
<asrwt>0</asrwt>
<pdfrwt beam="1">  1       21 0.71799923E-02 0.23079554E+02</pdfrwt>
<pdfrwt beam="2">  1       21 0.16896400E-01 0.23079554E+02</pdfrwt>
<totfact> 0.38546104E+06</totfact>
</mgrwt>
</event>
<event>
 4    1  0.4447136E+006  0.2118234E+02  0.7546771E-02  0.1722789E+00
         21   -1    0    0  504  501  0.00000000000E+00  0.00000000000E+00  0.66029409217E+02  0.66029409217E+02  0.00000000000E+00 0. -1.
         21   -1    0    0  503  502 -0.00000000000E+00 -0.00000000000E+00 -0.15445749187E+02  0.15445749187E+02  0.00000000000E+00 0.  1.
         21    1    1    2  503  501  0.61510113389E+01 -0.20269598181E+02 -0.51947939180E+01  0.21810030600E+02  0.00000000000E+00 0.  1.
         21    1    1    2  504  502 -0.61510113389E+01  0.20269598181E+02  0.55778453949E+02  0.59665127804E+02  0.00000000000E+00 0. -1.
<mgrwt>
<rscale>  2 0.21182341E+02</rscale>
<asrwt>0</asrwt>
<pdfrwt beam="1">  1       21 0.10158371E-01 0.21182341E+02</pdfrwt>
<pdfrwt beam="2">  1       21 0.23762691E-02 0.21182341E+02</pdfrwt>
<totfact> 0.50988415E+07</totfact>
</mgrwt>
</event>
<event>
 4    1  0.4447136E+006  0.2657148E+02  0.7546771E-02  0.1639405E+00
         21   -1    0    0  503  501  0.00000000000E+00  0.00000000000E+00  0.33440388645E+02  0.33440388645E+02  0.00000000000E+00 0. -1.
         21   -1    0    0  504  502 -0.00000000000E+00 -0.00000000000E+00 -0.36006181901E+03  0.36006181901E+03  0.00000000000E+00 0. -1.
         21    1    1    2  503  502 -0.22021140014E+01 -0.26480073376E+02 -0.35420608082E+03  0.35520133908E+03  0.00000000000E+00 0. -1.
         21    1    1    2  504  501  0.22021140014E+01  0.26480073376E+02  0.27584650463E+02  0.38300868570E+02  0.00000000000E+00 0. -1.
<mgrwt>
<rscale>  2 0.26571481E+02</rscale>
<asrwt>0</asrwt>
<pdfrwt beam="1">  1       21 0.51446752E-02 0.26571481E+02</pdfrwt>
<pdfrwt beam="2">  1       21 0.55394126E-01 0.26571481E+02</pdfrwt>
<totfact> 0.75692827E+05</totfact>
</mgrwt>
</event>
<event>
 4    1  0.4447136E+006  0.3547508E+02  0.7546771E-02  0.1544422E+00
         21   -1    0    0  504  501  0.00000000000E+00  0.00000000000E+00  0.84529847302E+02  0.84529847302E+02  0.00000000000E+00 0. -1.
         21   -1    0    0  503  502 -0.00000000000E+00 -0.00000000000E+00 -0.25985260271E+03  0.25985260271E+03  0.00000000000E+00 0.  1.
         21    1    1    2  503  501  0.17902203163E+02  0.30626663583E+02  0.79524325436E+02  0.87078124328E+02  0.00000000000E+00 0. -1.
         21    1    1    2  504  502 -0.17902203163E+02 -0.30626663583E+02 -0.25484708084E+03  0.25730432568E+03  0.00000000000E+00 0.  1.
<mgrwt>
<rscale>  2 0.35475081E+02</rscale>
<asrwt>0</asrwt>
<pdfrwt beam="1">  1       21 0.13004592E-01 0.35475081E+02</pdfrwt>
<pdfrwt beam="2">  1       21 0.39977324E-01 0.35475081E+02</pdfrwt>
<totfact> 0.31239316E+05</totfact>
</mgrwt>
</event>
<event>
 4    1  0.4447136E+006  0.2175097E+02  0.7546771E-02  0.1712595E+00
         21   -1    0    0  504  501  0.00000000000E+00  0.00000000000E+00  0.73956967287E+01  0.73956967287E+01  0.00000000000E+00 0. -1.
         21   -1    0    0  503  502 -0.00000000000E+00 -0.00000000000E+00 -0.66666728746E+03  0.66666728746E+03  0.00000000000E+00 0. -1.
         21    1    1    2  503  501  0.21750666175E+02  0.11404292721E+00 -0.65008960787E+03  0.65045338245E+03  0.00000000000E+00 0. -1.
         21    1    1    2  504  502 -0.21750666175E+02 -0.11404292721E+00 -0.91819828623E+01  0.23609601736E+02  0.00000000000E+00 0. -1.
<mgrwt>
<rscale>  2 0.21750965E+02</rscale>
<asrwt>0</asrwt>
<pdfrwt beam="1">  1       21 0.11377995E-02 0.21750965E+02</pdfrwt>
<pdfrwt beam="2">  1       21 0.10256420E+00 0.21750965E+02</pdfrwt>
<totfact> 0.21329546E+06</totfact>
</mgrwt>
</event>
<event>
 4    1  0.4447136E+006  0.2547150E+02  0.7546771E-02  0.1654320E+00
         21   -1    0    0  502  501  0.00000000000E+00  0.00000000000E+00  0.57442245103E+03  0.57442245103E+03  0.00000000000E+00 0. -1.
         21   -1    0    0  503  502 -0.00000000000E+00 -0.00000000000E+00 -0.40831191032E+01  0.40831191032E+01  0.00000000000E+00 0. -1.
         21    1    1    2  503  504  0.20015406007E+02  0.15753757738E+02  0.39155334674E+02  0.46711214862E+02  0.00000000000E+00 0. -1.
         21    1    1    2  504  501 -0.20015406007E+02 -0.15753757738E+02  0.53118399725E+03  0.53179435527E+03  0.00000000000E+00 0. -1.
<mgrwt>
<rscale>  2 0.25471501E+02</rscale>
<asrwt>0</asrwt>
<pdfrwt beam="1">  1       21 0.88372621E-01 0.25471501E+02</pdfrwt>
<pdfrwt beam="2">  1       21 0.62817262E-03 0.25471501E+02</pdfrwt>
<totfact> 0.73156882E+06</totfact>
</mgrwt>
</event>
<event>
 4    1  0.4447136E+006  0.2869697E+02  0.7546771E-02  0.1612955E+00
         21   -1    0    0  504  501  0.00000000000E+00  0.00000000000E+00  0.76612732635E+01  0.76612732635E+01  0.00000000000E+00 0.  1.
         21   -1    0    0  503  502 -0.00000000000E+00 -0.00000000000E+00 -0.12662592425E+03  0.12662592425E+03  0.00000000000E+00 0.  1.
         21    1    1    2  503  501  0.28614369340E+02 -0.21758065142E+01 -0.33381206313E+02  0.44020690608E+02  0.00000000000E+00 0.  1.
         21    1    1    2  504  502 -0.28614369340E+02  0.21758065142E+01 -0.85583444670E+02  0.90266506902E+02  0.00000000000E+00 0.  1.
<mgrwt>
<rscale>  2 0.28696973E+02</rscale>
<asrwt>0</asrwt>
<pdfrwt beam="1">  1       21 0.11786575E-02 0.28696973E+02</pdfrwt>
<pdfrwt beam="2">  1       21 0.19480910E-01 0.28696973E+02</pdfrwt>
<totfact> 0.53054868E+07</totfact>
</mgrwt>
</event>
<event>
 4    1  0.4447136E+006  0.3898070E+02  0.7546771E-02  0.1515849E+00
         21   -1    0    0  503  501  0.00000000000E+00  0.00000000000E+00  0.12705894721E+04  0.12705894721E+04  0.00000000000E+00 0. -1.
         21   -1    0    0  501  502 -0.00000000000E+00 -0.00000000000E+00 -0.21670515161E+01  0.21670515161E+01  0.00000000000E+00 0.  1.
         21    1    1    2  503  504 -0.36685669366E+02  0.13177881077E+02  0.10602260756E+04  0.10609424236E+04  0.00000000000E+00 0. -1.
         21    1    1    2  504  502  0.36685669366E+02 -0.13177881077E+02  0.20819634504E+03  0.21181410004E+03  0.00000000000E+00 0.  1.
<mgrwt>
<rscale>  2 0.38980699E+02</rscale>
<asrwt>0</asrwt>
<pdfrwt beam="1">  1       21 0.19547471E+00 0.38980699E+02</pdfrwt>
<pdfrwt beam="2">  1       21 0.33339356E-03 0.38980699E+02</pdfrwt>
<totfact> 0.29962882E+06</totfact>
</mgrwt>
</event>
<event>
 4    1  0.4447136E+006  0.2573727E+02  0.7546771E-02  0.1650633E+00
         21   -1    0    0  504  501  0.00000000000E+00  0.00000000000E+00  0.48428833148E+01  0.48428833148E+01  0.00000000000E+00 0.  1.
         21   -1    0    0  501  502 -0.00000000000E+00 -0.00000000000E+00 -0.14678751488E+03  0.14678751488E+03  0.00000000000E+00 0. -1.
         21    1    1    2  503  502 -0.37778061160E+01  0.25458502084E+02 -0.90768693927E+02  0.94347034636E+02  0.00000000000E+00 0. -1.
         21    1    1    2  504  503  0.37778061160E+01 -0.25458502084E+02 -0.51175937637E+02  0.57283363557E+02  0.00000000000E+00 0.  1.
<mgrwt>
<rscale>  2 0.25737272E+02</rscale>
<asrwt>0</asrwt>
<pdfrwt beam="1">  1       21 0.74505911E-03 0.25737272E+02</pdfrwt>
<pdfrwt beam="2">  1       21 0.22582690E-01 0.25737272E+02</pdfrwt>
<totfact> 0.79554800E+07</totfact>
</mgrwt>
</event>
<event>
 4    1  0.4447136E+006  0.3308739E+02  0.7546771E-02  0.1566272E+00
         21   -1    0    0  503  501  0.00000000000E+00  0.00000000000E+00  0.19190142195E+03  0.19190142195E+03  0.00000000000E+00 0.  1.
         21   -1    0    0  504  502 -0.00000000000E+00 -0.00000000000E+00 -0.61209915584E+01  0.61209915584E+01  0.00000000000E+00 0.  1.
         21    1    1    2  503  502  0.31851849102E+02  0.89574055081E+01  0.11870545251E+03  0.12323051513E+03  0.00000000000E+00 0.  1.
         21    1    1    2  504  501 -0.31851849102E+02 -0.89574055081E+01  0.67074977885E+02  0.74791898377E+02  0.00000000000E+00 0.  1.
<mgrwt>
<rscale>  2 0.33087390E+02</rscale>
<asrwt>0</asrwt>
<pdfrwt beam="1">  1       21 0.29523291E-01 0.33087390E+02</pdfrwt>
<pdfrwt beam="2">  1       21 0.94169116E-03 0.33087390E+02</pdfrwt>
<totfact> 0.36380126E+07</totfact>
</mgrwt>
</event>
<event>
 4    1  0.4447136E+006  0.2367707E+02  0.7546771E-02  0.1680764E+00
         21   -1    0    0  503  501  0.00000000000E+00  0.00000000000E+00  0.38778803878E+01  0.38778803878E+01  0.00000000000E+00 0. -1.
         21   -1    0    0  504  502 -0.00000000000E+00 -0.00000000000E+00 -0.43728697965E+03  0.43728697965E+03  0.00000000000E+00 0. -1.
         21    1    1    2  503  502  0.21672689530E+02 -0.95340553657E+01 -0.36230106188E+02  0.43280761056E+02  0.00000000000E+00 0. -1.
         21    1    1    2  504  501 -0.21672689530E+02  0.95340553657E+01 -0.39717899308E+03  0.39788409899E+03  0.00000000000E+00 0. -1.
<mgrwt>
<rscale>  2 0.23677071E+02</rscale>
<asrwt>0</asrwt>
<pdfrwt beam="1">  1       21 0.59659702E-03 0.23677071E+02</pdfrwt>
<pdfrwt beam="2">  1       21 0.67274916E-01 0.23677071E+02</pdfrwt>
<totfact> 0.13804812E+07</totfact>
</mgrwt>
</event>
<event>
 4    1  0.4447136E+006  0.2104655E+02  0.7546771E-02  0.1725283E+00
         21   -1    0    0  504  501  0.00000000000E+00  0.00000000000E+00  0.78807868553E+02  0.78807868553E+02  0.00000000000E+00 0.  1.
         21   -1    0    0  503  502 -0.00000000000E+00 -0.00000000000E+00 -0.82598853164E+02  0.82598853164E+02  0.00000000000E+00 0. -1.
         21    1    1    2  503  501  0.12858268832E+02 -0.16662002932E+02 -0.79804609513E+02  0.82533224331E+02  0.00000000000E+00 0. -1.
         21    1    1    2  504  502 -0.12858268832E+02  0.16662002932E+02  0.76013624902E+02  0.78873497385E+02  0.00000000000E+00 0.  1.
<mgrwt>
<rscale>  2 0.21046554E+02</rscale>
<asrwt>0</asrwt>
<pdfrwt beam="1">  1       21 0.12124287E-01 0.21046554E+02</pdfrwt>
<pdfrwt beam="2">  1       21 0.12707516E-01 0.21046554E+02</pdfrwt>
<totfact> 0.26049333E+06</totfact>
</mgrwt>
</event>
<event>
 4    1  0.4447136E+006  0.2481756E+02  0.7546771E-02  0.1663636E+00
         21   -1    0    0  504  501  0.00000000000E+00  0.00000000000E+00  0.34577763270E+02  0.34577763270E+02  0.00000000000E+00 0.  1.
         21   -1    0    0  503  502 -0.00000000000E+00 -0.00000000000E+00 -0.50356092915E+02  0.50356092915E+02  0.00000000000E+00 0.  1.
         21    1    1    2  503  501  0.22483748678E+02  0.10506767015E+02 -0.42028778779E+02  0.48809111377E+02  0.00000000000E+00 0.  1.
         21    1    1    2  504  502 -0.22483748678E+02 -0.10506767015E+02  0.26250449134E+02  0.36124744809E+02  0.00000000000E+00 0.  1.
<mgrwt>
<rscale>  2 0.24817556E+02</rscale>
<asrwt>0</asrwt>
<pdfrwt beam="1">  1       21 0.53196559E-02 0.24817556E+02</pdfrwt>
<pdfrwt beam="2">  1       21 0.77470912E-02 0.24817556E+02</pdfrwt>
<totfact> 0.23360852E+07</totfact>
</mgrwt>
</event>
<event>
 4    1  0.4447136E+006  0.2213825E+02  0.7546771E-02  0.1705872E+00
         21   -1    0    0  503  501  0.00000000000E+00  0.00000000000E+00  0.14257407035E+02  0.14257407035E+02  0.00000000000E+00 0. -1.
         21   -1    0    0  504  502 -0.00000000000E+00 -0.00000000000E+00 -0.34410423260E+02  0.34410423260E+02  0.00000000000E+00 0. -1.
         21    1    1    2  503  502  0.21340145341E+02 -0.58906804376E+01 -0.10854506116E+02  0.24656078809E+02  0.00000000000E+00 0. -1.
         21    1    1    2  504  501 -0.21340145341E+02  0.58906804376E+01 -0.92985101085E+01  0.24011751486E+02  0.00000000000E+00 0. -1.
<mgrwt>
<rscale>  2 0.22138246E+02</rscale>
<asrwt>0</asrwt>
<pdfrwt beam="1">  1       21 0.21934473E-02 0.22138246E+02</pdfrwt>
<pdfrwt beam="2">  1       21 0.52939112E-02 0.22138246E+02</pdfrwt>
<totfact> 0.16791946E+08</totfact>
</mgrwt>
</event>
<event>
 4    1  0.4447136E+006  0.2304447E+02  0.7546771E-02  0.1690790E+00
         21   -1    0    0  504  501  0.00000000000E+00  0.00000000000E+00  0.14044285968E+03  0.14044285968E+03  0.00000000000E+00 0. -1.
         21   -1    0    0  501  502 -0.00000000000E+00 -0.00000000000E+00 -0.80116062706E+01  0.80116062706E+01  0.00000000000E+00 0. -1.
         21    1    1    2  503  502 -0.20186015730E+02 -0.11116315225E+02  0.12277901393E+02  0.26111196025E+02  0.00000000000E+00 0. -1.
         21    1    1    2  504  503  0.20186015730E+02  0.11116315225E+02  0.12015335202E+03  0.12234326993E+03  0.00000000000E+00 0. -1.
<mgrwt>
<rscale>  2 0.23044472E+02</rscale>
<asrwt>0</asrwt>
<pdfrwt beam="1">  1       21 0.21606592E-01 0.23044472E+02</pdfrwt>
<pdfrwt beam="2">  1       21 0.12325549E-02 0.23044472E+02</pdfrwt>
<totfact> 0.39282176E+07</totfact>
</mgrwt>
</event>
<event>
 4    1  0.4447136E+006  0.2057538E+02  0.7546771E-02  0.1734122E+00
         21   -1    0    0  504  501  0.00000000000E+00  0.00000000000E+00  0.13972116593E+02  0.13972116593E+02  0.00000000000E+00 0. -1.
         21   -1    0    0  503  502 -0.00000000000E+00 -0.00000000000E+00 -0.33908589720E+02  0.33908589720E+02  0.00000000000E+00 0. -1.
         21    1    1    2  503  501  0.19519950661E+02 -0.65052063333E+01 -0.17778811131E+02  0.27192504638E+02  0.00000000000E+00 0. -1.
         21    1    1    2  504  502 -0.19519950661E+02  0.65052063333E+01 -0.21576619964E+01  0.20688201675E+02  0.00000000000E+00 0. -1.
<mgrwt>
<rscale>  2 0.20575378E+02</rscale>
<asrwt>0</asrwt>
<pdfrwt beam="1">  1       21 0.21495564E-02 0.20575378E+02</pdfrwt>
<pdfrwt beam="2">  1       21 0.52167060E-02 0.20575378E+02</pdfrwt>
<totfact> 0.17328147E+08</totfact>
</mgrwt>
</event>
<event>
 4    1  0.4447136E+006  0.2203617E+02  0.7546771E-02  0.1707627E+00
         21   -1    0    0  504  501  0.00000000000E+00  0.00000000000E+00  0.48388872203E+02  0.48388872203E+02  0.00000000000E+00 0. -1.
         21   -1    0    0  503  502 -0.00000000000E+00 -0.00000000000E+00 -0.23524594999E+02  0.23524594999E+02  0.00000000000E+00 0.  1.
         21    1    1    2  503  501  0.21731737247E+01 -0.21928749187E+02 -0.14795824478E+02  0.26542591187E+02  0.00000000000E+00 0.  1.
         21    1    1    2  504  502 -0.21731737247E+01  0.21928749187E+02  0.39660101683E+02  0.45370876015E+02  0.00000000000E+00 0. -1.
<mgrwt>
<rscale>  2 0.22036169E+02</rscale>
<asrwt>0</asrwt>
<pdfrwt beam="1">  1       21 0.74444419E-02 0.22036169E+02</pdfrwt>
<pdfrwt beam="2">  1       21 0.36191685E-02 0.22036169E+02</pdfrwt>
<totfact> 0.44579747E+07</totfact>
</mgrwt>
</event>
<event>
 4    1  0.4447136E+006  0.2517129E+02  0.7546771E-02  0.1658554E+00
         21   -1    0    0  503  501  0.00000000000E+00  0.00000000000E+00  0.15539695576E+02  0.15539695576E+02  0.00000000000E+00 0. -1.
         21   -1    0    0  501  502 -0.00000000000E+00 -0.00000000000E+00 -0.93893623335E+02  0.93893623335E+02  0.00000000000E+00 0. -1.
         21    1    1    2  503  504 -0.25167089231E+02 -0.45960681899E+00  0.19791905041E+01  0.25248976491E+02  0.00000000000E+00 0. -1.
         21    1    1    2  504  502  0.25167089231E+02  0.45960681899E+00 -0.80333118264E+02  0.84184342420E+02  0.00000000000E+00 0. -1.
<mgrwt>
<rscale>  2 0.25171286E+02</rscale>
<asrwt>0</asrwt>
<pdfrwt beam="1">  1       21 0.23907224E-02 0.25171286E+02</pdfrwt>
<pdfrwt beam="2">  1       21 0.14445173E-01 0.25171286E+02</pdfrwt>
<totfact> 0.29205451E+07</totfact>
</mgrwt>
</event>
<event>
 4    1  0.4447136E+006  0.2474691E+02  0.7546771E-02  0.1664664E+00
         21   -1    0    0  504  501  0.00000000000E+00  0.00000000000E+00  0.70417222861E+02  0.70417222861E+02  0.00000000000E+00 0. -1.
         21   -1    0    0  503  502 -0.00000000000E+00 -0.00000000000E+00 -0.72565701646E+02  0.72565701646E+02  0.00000000000E+00 0.  1.
         21    1    1    2  503  501 -0.24690852794E+02 -0.16646744895E+01 -0.68144959671E+02  0.72499275041E+02  0.00000000000E+00 0.  1.
         21    1    1    2  504  502  0.24690852794E+02  0.16646744895E+01  0.65996480885E+02  0.70483649466E+02  0.00000000000E+00 0. -1.
<mgrwt>
<rscale>  2 0.24746906E+02</rscale>
<asrwt>0</asrwt>
<pdfrwt beam="1">  1       21 0.10833419E-01 0.24746906E+02</pdfrwt>
<pdfrwt beam="2">  1       21 0.11163954E-01 0.24746906E+02</pdfrwt>
<totfact> 0.39978678E+06</totfact>
</mgrwt>
</event>
<event>
 4    1  0.4447136E+006  0.2522770E+02  0.7546771E-02  0.1657753E+00
         21   -1    0    0  504  501  0.00000000000E+00  0.00000000000E+00  0.56024076711E+02  0.56024076711E+02  0.00000000000E+00 0. -1.
         21   -1    0    0  503  502 -0.00000000000E+00 -0.00000000000E+00 -0.20035188045E+02  0.20035188045E+02  0.00000000000E+00 0. -1.
         21    1    1    2  503  501  0.19034234142E+02  0.16557011927E+02 -0.70299418680E+01  0.26188867787E+02  0.00000000000E+00 0. -1.
         21    1    1    2  504  502 -0.19034234142E+02 -0.16557011927E+02  0.43018830535E+02  0.49870396969E+02  0.00000000000E+00 0. -1.
<mgrwt>
<rscale>  2 0.25227697E+02</rscale>
<asrwt>0</asrwt>
<pdfrwt beam="1">  1       21 0.86190887E-02 0.25227697E+02</pdfrwt>
<pdfrwt beam="2">  1       21 0.30823366E-02 0.25227697E+02</pdfrwt>
<totfact> 0.46680302E+07</totfact>
</mgrwt>
</event>
<event>
 4    1  0.4447136E+006  0.2373596E+02  0.7546771E-02  0.1679851E+00
         21   -1    0    0  502  501  0.00000000000E+00  0.00000000000E+00  0.91718080477E+03  0.91718080477E+03  0.00000000000E+00 0. -1.
         21   -1    0    0  503  502 -0.00000000000E+00 -0.00000000000E+00 -0.32783869767E+02  0.32783869767E+02  0.00000000000E+00 0.  1.
         21    1    1    2  503  504 -0.17078821390E+02  0.16483617698E+02 -0.28312972694E+02  0.36946179982E+02  0.00000000000E+00 0.  1.
         21    1    1    2  504  501  0.17078821390E+02 -0.16483617698E+02  0.91270990770E+03  0.91301849456E+03  0.00000000000E+00 0. -1.
<mgrwt>
<rscale>  2 0.23735960E+02</rscale>
<asrwt>0</asrwt>
<pdfrwt beam="1">  1       21 0.14110472E+00 0.23735960E+02</pdfrwt>
<pdfrwt beam="2">  1       21 0.50436730E-02 0.23735960E+02</pdfrwt>
<totfact> 0.10414944E+05</totfact>
</mgrwt>
</event>
<event>
 4    1  0.4447136E+006  0.2086557E+02  0.7546771E-02  0.1728644E+00
         21   -1    0    0  503  501  0.00000000000E+00  0.00000000000E+00  0.60618131327E+00  0.60618131327E+00  0.00000000000E+00 0.  1.
         21   -1    0    0  504  502 -0.00000000000E+00 -0.00000000000E+00 -0.72010260310E+03  0.72010260310E+03  0.00000000000E+00 0.  1.
         21    1    1    2  503  502 -0.12350259422E+02  0.16817935057E+02 -0.34132547811E+03  0.34196264979E+03  0.00000000000E+00 0.  1.
         21    1    1    2  504  501  0.12350259422E+02 -0.16817935057E+02 -0.37817094368E+03  0.37874613462E+03  0.00000000000E+00 0.  1.
<mgrwt>
<rscale>  2 0.20865566E+02</rscale>
<asrwt>0</asrwt>
<pdfrwt beam="1">  1       21 0.93259064E-04 0.20865566E+02</pdfrwt>
<pdfrwt beam="2">  1       21 0.11078454E+00 0.20865566E+02</pdfrwt>
<totfact> 0.68436633E+07</totfact>
</mgrwt>
</event>
<event>
 4    1  0.4447136E+006  0.2881299E+02  0.7546771E-02  0.1611593E+00
         21   -1    0    0  504  501  0.00000000000E+00  0.00000000000E+00  0.33740664954E+03  0.33740664954E+03  0.00000000000E+00 0. -1.
         21   -1    0    0  503  502 -0.00000000000E+00 -0.00000000000E+00 -0.21490270305E+02  0.21490270305E+02  0.00000000000E+00 0.  1.
         21    1    1    2  503  501  0.16181103103E+02  0.23840313458E+02 -0.10905231488E+02  0.30807673025E+02  0.00000000000E+00 0.  1.
         21    1    1    2  504  502 -0.16181103103E+02 -0.23840313458E+02  0.32682161072E+03  0.32808924682E+03  0.00000000000E+00 0. -1.
<mgrwt>
<rscale>  2 0.28812994E+02</rscale>
<asrwt>0</asrwt>
<pdfrwt beam="1">  1       21 0.51908711E-01 0.28812994E+02</pdfrwt>
<pdfrwt beam="2">  1       21 0.33061957E-02 0.28812994E+02</pdfrwt>
<totfact> 0.17500209E+06</totfact>
</mgrwt>
</event>
<event>
 4    1  0.4447136E+006  0.2002124E+02  0.7546771E-02  0.1744906E+00
         21   -1    0    0  504  501  0.00000000000E+00  0.00000000000E+00  0.14639646092E+02  0.14639646092E+02  0.00000000000E+00 0.  1.
         21   -1    0    0  503  502 -0.00000000000E+00 -0.00000000000E+00 -0.36512205366E+02  0.36512205366E+02  0.00000000000E+00 0. -1.
         21    1    1    2  503  501  0.55682230305E+00  0.20013498793E+02 -0.23726354258E+02  0.31044968536E+02  0.00000000000E+00 0. -1.
         21    1    1    2  504  502 -0.55682230305E+00 -0.20013498793E+02  0.18537949840E+01  0.20106882922E+02  0.00000000000E+00 0.  1.
<mgrwt>
<rscale>  2 0.20021243E+02</rscale>
<asrwt>0</asrwt>
<pdfrwt beam="1">  1       21 0.22522533E-02 0.20021243E+02</pdfrwt>
<pdfrwt beam="2">  1       21 0.56172623E-02 0.20021243E+02</pdfrwt>
<totfact> 0.14217082E+08</totfact>
</mgrwt>
</event>
<event>
 4    1  0.4447136E+006  0.3212136E+02  0.7546771E-02  0.1575758E+00
         21   -1    0    0  504  501  0.00000000000E+00  0.00000000000E+00  0.28887609871E+03  0.28887609871E+03  0.00000000000E+00 0. -1.
         21   -1    0    0  503  502 -0.00000000000E+00 -0.00000000000E+00 -0.50697787449E+02  0.50697787449E+02  0.00000000000E+00 0. -1.
         21    1    1    2  503  501 -0.31536836679E+02 -0.60999882862E+01  0.28278604542E+03  0.28460451403E+03  0.00000000000E+00 0. -1.
         21    1    1    2  504  502  0.31536836679E+02  0.60999882862E+01 -0.44607734160E+02  0.54969372124E+02  0.00000000000E+00 0. -1.
<mgrwt>
<rscale>  2 0.32121362E+02</rscale>
<asrwt>0</asrwt>
<pdfrwt beam="1">  1       21 0.44442476E-01 0.32121362E+02</pdfrwt>
<pdfrwt beam="2">  1       21 0.77996598E-02 0.32121362E+02</pdfrwt>
<totfact> 0.59925793E+05</totfact>
</mgrwt>
</event>
<event>
 4    1  0.4447136E+006  0.3069847E+02  0.7546771E-02  0.1590494E+00
         21   -1    0    0  504  501  0.00000000000E+00  0.00000000000E+00  0.55275348003E+02  0.55275348003E+02  0.00000000000E+00 0. -1.
         21   -1    0    0  503  502 -0.00000000000E+00 -0.00000000000E+00 -0.17629822403E+02  0.17629822403E+02  0.00000000000E+00 0. -1.
         21    1    1    2  503  501  0.29360498724E+02  0.89642091577E+01  0.12206969610E+02  0.33036435011E+02  0.00000000000E+00 0. -1.
         21    1    1    2  504  502 -0.29360498724E+02 -0.89642091577E+01  0.25438555990E+02  0.39868735395E+02  0.00000000000E+00 0. -1.
<mgrwt>
<rscale>  2 0.30698468E+02</rscale>
<asrwt>0</asrwt>
<pdfrwt beam="1">  1       21 0.85038996E-02 0.30698468E+02</pdfrwt>
<pdfrwt beam="2">  1       21 0.27122804E-02 0.30698468E+02</pdfrwt>
<totfact> 0.61045757E+07</totfact>
</mgrwt>
</event>
<event>
 4    1  0.4447136E+006  0.3109719E+02  0.7546771E-02  0.1586268E+00
         21   -1    0    0  503  501  0.00000000000E+00  0.00000000000E+00  0.20791923682E+02  0.20791923682E+02  0.00000000000E+00 0.  1.
         21   -1    0    0  504  502 -0.00000000000E+00 -0.00000000000E+00 -0.46815999011E+02  0.46815999011E+02  0.00000000000E+00 0.  1.
         21    1    1    2  503  502  0.27325312530E+02 -0.14844608344E+02 -0.15744393255E+02  0.34855717189E+02  0.00000000000E+00 0.  1.
         21    1    1    2  504  501 -0.27325312530E+02  0.14844608344E+02 -0.10279682074E+02  0.32752205503E+02  0.00000000000E+00 0.  1.
<mgrwt>
<rscale>  2 0.31097188E+02</rscale>
<asrwt>0</asrwt>
<pdfrwt beam="1">  1       21 0.31987575E-02 0.31097188E+02</pdfrwt>
<pdfrwt beam="2">  1       21 0.72024614E-02 0.31097188E+02</pdfrwt>
<totfact> 0.62103636E+07</totfact>
</mgrwt>
</event>
<event>
 4    1  0.4447136E+006  0.2414670E+02  0.7546771E-02  0.1673570E+00
         21   -1    0    0  503  501  0.00000000000E+00  0.00000000000E+00  0.63125232104E+01  0.63125232104E+01  0.00000000000E+00 0. -1.
         21   -1    0    0  504  502 -0.00000000000E+00 -0.00000000000E+00 -0.16235233587E+03  0.16235233587E+03  0.00000000000E+00 0. -1.
         21    1    1    2  503  502 -0.20617010492E+02 -0.12569876933E+02 -0.13338955512E+03  0.13555750198E+03  0.00000000000E+00 0. -1.
         21    1    1    2  504  501  0.20617010492E+02  0.12569876933E+02 -0.22650257544E+02  0.33107357106E+02  0.00000000000E+00 0. -1.
<mgrwt>
<rscale>  2 0.24146696E+02</rscale>
<asrwt>0</asrwt>
<pdfrwt beam="1">  1       21 0.97115754E-03 0.24146696E+02</pdfrwt>
<pdfrwt beam="2">  1       21 0.24977279E-01 0.24146696E+02</pdfrwt>
<totfact> 0.44011653E+07</totfact>
</mgrwt>
</event>
<event>
 4    1  0.4447136E+006  0.2727442E+02  0.7546771E-02  0.1630330E+00
         21   -1    0    0  502  501  0.00000000000E+00  0.00000000000E+00  0.43331294942E+02  0.43331294942E+02  0.00000000000E+00 0. -1.
         21   -1    0    0  503  502 -0.00000000000E+00 -0.00000000000E+00 -0.17236000533E+02  0.17236000533E+02  0.00000000000E+00 0. -1.
         21    1    1    2  503  504  0.17230084182E+02  0.21142809632E+02  0.11139860310E+02  0.29461681686E+02  0.00000000000E+00 0. -1.
         21    1    1    2  504  501 -0.17230084182E+02 -0.21142809632E+02  0.14955434099E+02  0.31105613788E+02  0.00000000000E+00 0. -1.
<mgrwt>
<rscale>  2 0.27274424E+02</rscale>
<asrwt>0</asrwt>
<pdfrwt beam="1">  1       21 0.66663530E-02 0.27274424E+02</pdfrwt>
<pdfrwt beam="2">  1       21 0.26516924E-02 0.27274424E+02</pdfrwt>
<totfact> 0.91631906E+07</totfact>
</mgrwt>
</event>
<event>
 4    1  0.4447136E+006  0.2572798E+02  0.7546771E-02  0.1650761E+00
         21   -1    0    0  504  501  0.00000000000E+00  0.00000000000E+00  0.96890425832E+01  0.96890425832E+01  0.00000000000E+00 0. -1.
         21   -1    0    0  503  502 -0.00000000000E+00 -0.00000000000E+00 -0.69164623017E+02  0.69164623017E+02  0.00000000000E+00 0. -1.
         21    1    1    2  503  501  0.23481453793E+02 -0.10514298307E+02 -0.25373870956E+02  0.36135335455E+02  0.00000000000E+00 0. -1.
         21    1    1    2  504  502 -0.23481453793E+02  0.10514298307E+02 -0.34101709478E+02  0.42718330146E+02  0.00000000000E+00 0. -1.
<mgrwt>
<rscale>  2 0.25727984E+02</rscale>
<asrwt>0</asrwt>
<pdfrwt beam="1">  1       21 0.14906220E-02 0.25727984E+02</pdfrwt>
<pdfrwt beam="2">  1       21 0.10640711E-01 0.25727984E+02</pdfrwt>
<totfact> 0.10159919E+08</totfact>
</mgrwt>
</event>
<event>
 4    1  0.4447136E+006  0.3403789E+02  0.7546771E-02  0.1557314E+00
         21   -1    0    0  503  501  0.00000000000E+00  0.00000000000E+00  0.25488927995E+03  0.25488927995E+03  0.00000000000E+00 0. -1.
         21   -1    0    0  501  502 -0.00000000000E+00 -0.00000000000E+00 -0.10829216937E+02  0.10829216937E+02  0.00000000000E+00 0.  1.
         21    1    1    2  503  504  0.14737983624E+02  0.30681754052E+02  0.22323560311E+03  0.22581566086E+03  0.00000000000E+00 0. -1.
         21    1    1    2  504  502 -0.14737983624E+02 -0.30681754052E+02  0.20824459909E+02  0.39902836033E+02  0.00000000000E+00 0.  1.
<mgrwt>
<rscale>  2 0.34037893E+02</rscale>
<asrwt>0</asrwt>
<pdfrwt beam="1">  1       21 0.39213731E-01 0.34037893E+02</pdfrwt>
<pdfrwt beam="2">  1       21 0.16660336E-02 0.34037893E+02</pdfrwt>
<totfact> 0.89600595E+06</totfact>
</mgrwt>
</event>
<event>
 4    1  0.4447136E+006  0.2511906E+02  0.7546771E-02  0.1659298E+00
         21   -1    0    0  503  501  0.00000000000E+00  0.00000000000E+00  0.27141133649E+02  0.27141133649E+02  0.00000000000E+00 0. -1.
         21   -1    0    0  501  502 -0.00000000000E+00 -0.00000000000E+00 -0.32497144119E+02  0.32497144119E+02  0.00000000000E+00 0. -1.
         21    1    1    2  503  504  0.70464461375E+01 -0.24110472607E+02  0.13230586433E+02  0.28390415810E+02  0.00000000000E+00 0. -1.
         21    1    1    2  504  502 -0.70464461375E+01  0.24110472607E+02 -0.18586596903E+02  0.31247861958E+02  0.00000000000E+00 0. -1.
<mgrwt>
<rscale>  2 0.25119062E+02</rscale>
<asrwt>0</asrwt>
<pdfrwt beam="1">  1       21 0.41755590E-02 0.25119062E+02</pdfrwt>
<pdfrwt beam="2">  1       21 0.49995606E-02 0.25119062E+02</pdfrwt>
<totfact> 0.69885458E+07</totfact>
</mgrwt>
</event>
<event>
 4    1  0.4447136E+006  0.2539943E+02  0.7546771E-02  0.1655330E+00
         21   -1    0    0  503  501  0.00000000000E+00  0.00000000000E+00  0.52492537452E+01  0.52492537452E+01  0.00000000000E+00 0.  1.
         21   -1    0    0  504  502 -0.00000000000E+00 -0.00000000000E+00 -0.18083571572E+03  0.18083571572E+03  0.00000000000E+00 0. -1.
         21    1    1    2  503  502 -0.21427529408E+02 -0.13637897571E+02 -0.14045722889E+03  0.14273529491E+03  0.00000000000E+00 0. -1.
         21    1    1    2  504  501  0.21427529408E+02  0.13637897571E+02 -0.35129233091E+02  0.43349674557E+02  0.00000000000E+00 0.  1.
<mgrwt>
<rscale>  2 0.25399434E+02</rscale>
<asrwt>0</asrwt>
<pdfrwt beam="1">  1       21 0.80757759E-03 0.25399434E+02</pdfrwt>
<pdfrwt beam="2">  1       21 0.27820876E-01 0.25399434E+02</pdfrwt>
<totfact> 0.48373852E+07</totfact>
</mgrwt>
</event>
<event>
 4    1  0.4447136E+006  0.2161807E+02  0.7546771E-02  0.1714942E+00
         21   -1    0    0  503  501  0.00000000000E+00  0.00000000000E+00  0.12893520940E+02  0.12893520940E+02  0.00000000000E+00 0. -1.
         21   -1    0    0  504  502 -0.00000000000E+00 -0.00000000000E+00 -0.88546342989E+02  0.88546342989E+02  0.00000000000E+00 0. -1.
         21    1    1    2  503  502  0.21293848680E+02 -0.37299872253E+01  0.11538637390E+01  0.21648838256E+02  0.00000000000E+00 0. -1.
         21    1    1    2  504  501 -0.21293848680E+02  0.37299872253E+01 -0.76806685788E+02  0.79791025673E+02  0.00000000000E+00 0. -1.
<mgrwt>
<rscale>  2 0.21618066E+02</rscale>
<asrwt>0</asrwt>
<pdfrwt beam="1">  1       21 0.19836186E-02 0.21618066E+02</pdfrwt>
<pdfrwt beam="2">  1       21 0.13622514E-01 0.21618066E+02</pdfrwt>
<totfact> 0.41463011E+07</totfact>
</mgrwt>
</event>
<event>
 4    1  0.4447136E+006  0.2647622E+02  0.7546771E-02  0.1640661E+00
         21   -1    0    0  503  501  0.00000000000E+00  0.00000000000E+00  0.84404131718E+00  0.84404131718E+00  0.00000000000E+00 0.  1.
         21   -1    0    0  504  502 -0.00000000000E+00 -0.00000000000E+00 -0.85095361935E+03  0.85095361935E+03  0.00000000000E+00 0.  1.
         21    1    1    2  503  502  0.24798286895E+02  0.92755215889E+01 -0.35905201763E+03  0.36002686247E+03  0.00000000000E+00 0.  1.
         21    1    1    2  504  501 -0.24798286895E+02 -0.92755215889E+01 -0.49105756040E+03  0.49177079819E+03  0.00000000000E+00 0.  1.
<mgrwt>
<rscale>  2 0.26476222E+02</rscale>
<asrwt>0</asrwt>
<pdfrwt beam="1">  1       21 0.12985211E-03 0.26476222E+02</pdfrwt>
<pdfrwt beam="2">  1       21 0.13091634E+00 0.26476222E+02</pdfrwt>
<totfact> 0.30679822E+07</totfact>
</mgrwt>
</event>
<event>
 4    1  0.4447136E+006  0.2388834E+02  0.7546771E-02  0.1677502E+00
         21   -1    0    0  504  501  0.00000000000E+00  0.00000000000E+00  0.60449789617E+02  0.60449789617E+02  0.00000000000E+00 0.  1.
         21   -1    0    0  501  502 -0.00000000000E+00 -0.00000000000E+00 -0.12336959995E+02  0.12336959995E+02  0.00000000000E+00 0.  1.
         21    1    1    2  503  502 -0.91180268000E+01 -0.22079728579E+02  0.64211878674E+01  0.24736298843E+02  0.00000000000E+00 0.  1.
         21    1    1    2  504  503  0.91180268000E+01  0.22079728579E+02  0.41691641755E+02  0.48050450769E+02  0.00000000000E+00 0.  1.
<mgrwt>
<rscale>  2 0.23888341E+02</rscale>
<asrwt>0</asrwt>
<pdfrwt beam="1">  1       21 0.92999675E-02 0.23888341E+02</pdfrwt>
<pdfrwt beam="2">  1       21 0.18979939E-02 0.23888341E+02</pdfrwt>
<totfact> 0.86063730E+07</totfact>
</mgrwt>
</event>
<event>
 4    1  0.4447136E+006  0.2217563E+02  0.7546771E-02  0.1705232E+00
         21   -1    0    0  503  501  0.00000000000E+00  0.00000000000E+00  0.13608312364E+04  0.13608312364E+04  0.00000000000E+00 0. -1.
         21   -1    0    0  501  502 -0.00000000000E+00 -0.00000000000E+00 -0.12431755672E+01  0.12431755672E+01  0.00000000000E+00 0. -1.
         21    1    1    2  503  504  0.10305269800E+02  0.19635686854E+02  0.12533712473E+04  0.12535674064E+04  0.00000000000E+00 0. -1.
         21    1    1    2  504  502 -0.10305269800E+02 -0.19635686854E+02  0.10621681349E+03  0.10850700555E+03  0.00000000000E+00 0. -1.
<mgrwt>
<rscale>  2 0.22175635E+02</rscale>
<asrwt>0</asrwt>
<pdfrwt beam="1">  1       21 0.20935746E+00 0.22175635E+02</pdfrwt>
<pdfrwt beam="2">  1       21 0.19125887E-03 0.22175635E+02</pdfrwt>
<totfact> 0.54331878E+06</totfact>
</mgrwt>
</event>
<event>
 4    1  0.4447136E+006  0.2333502E+02  0.7546771E-02  0.1686136E+00
         21   -1    0    0  502  501  0.00000000000E+00  0.00000000000E+00  0.13306247862E+01  0.13306247862E+01  0.00000000000E+00 0. -1.
         21   -1    0    0  503  502 -0.00000000000E+00 -0.00000000000E+00 -0.98580202068E+03  0.98580202068E+03  0.00000000000E+00 0. -1.
         21    1    1    2  503  504 -0.21732213226E+02  0.84990526747E+01 -0.86970347279E+03  0.87001646742E+03  0.00000000000E+00 0. -1.
         21    1    1    2  504  501  0.21732213226E+02 -0.84990526747E+01 -0.11476792310E+03  0.11711617805E+03  0.00000000000E+00 0. -1.
<mgrwt>
<rscale>  2 0.23335016E+02</rscale>
<asrwt>0</asrwt>
<pdfrwt beam="1">  1       21 0.20471137E-03 0.23335016E+02</pdfrwt>
<pdfrwt beam="2">  1       21 0.15166195E+00 0.23335016E+02</pdfrwt>
<totfact> 0.11041783E+07</totfact>
</mgrwt>
</event>
<event>
 4    1  0.4447136E+006  0.2079793E+02  0.7546771E-02  0.1729911E+00
         21   -1    0    0  504  501  0.00000000000E+00  0.00000000000E+00  0.43130459001E+00  0.43130459001E+00  0.00000000000E+00 0.  1.
         21   -1    0    0  503  502 -0.00000000000E+00 -0.00000000000E+00 -0.14279456659E+04  0.14279456659E+04  0.00000000000E+00 0.  1.
         21    1    1    2  503  501  0.96685246210E+01 -0.18413944045E+02 -0.11034090610E+04  0.11036050515E+04  0.00000000000E+00 0.  1.
         21    1    1    2  504  502 -0.96685246210E+01  0.18413944045E+02 -0.32410530033E+03  0.32477191905E+03  0.00000000000E+00 0.  1.
<mgrwt>
<rscale>  2 0.20797925E+02</rscale>
<asrwt>0</asrwt>
<pdfrwt beam="1">  1       21 0.66354539E-04 0.20797925E+02</pdfrwt>
<pdfrwt beam="2">  1       21 0.21968399E+00 0.20797925E+02</pdfrwt>
<totfact> 0.21455358E+07</totfact>
</mgrwt>
</event>
<event>
 4    1  0.4447136E+006  0.2114484E+02  0.7546771E-02  0.1723475E+00
         21   -1    0    0  502  501  0.00000000000E+00  0.00000000000E+00  0.79140681665E+03  0.79140681665E+03  0.00000000000E+00 0. -1.
         21   -1    0    0  503  502 -0.00000000000E+00 -0.00000000000E+00 -0.11736463972E+01  0.11736463972E+01  0.00000000000E+00 0.  1.
         21    1    1    2  503  504  0.18905193356E+02 -0.94709069973E+01  0.10972215819E+03  0.11174102386E+03  0.00000000000E+00 0.  1.
         21    1    1    2  504  501 -0.18905193356E+02  0.94709069973E+01  0.68051101207E+03  0.68083943919E+03  0.00000000000E+00 0. -1.
<mgrwt>
<rscale>  2 0.21144844E+02</rscale>
<asrwt>0</asrwt>
<pdfrwt beam="1">  1       21 0.12175447E+00 0.21144844E+02</pdfrwt>
<pdfrwt beam="2">  1       21 0.18056162E-03 0.21144844E+02</pdfrwt>
<totfact> 0.21647409E+07</totfact>
</mgrwt>
</event>
<event>
 4    1  0.4447136E+006  0.3682950E+02  0.7546771E-02  0.1532929E+00
         21   -1    0    0  504  501  0.00000000000E+00  0.00000000000E+00  0.71797417461E+01  0.71797417461E+01  0.00000000000E+00 0.  1.
         21   -1    0    0  501  502 -0.00000000000E+00 -0.00000000000E+00 -0.51385989662E+03  0.51385989662E+03  0.00000000000E+00 0. -1.
         21    1    1    2  503  502 -0.32452611377E+02 -0.17413798777E+02 -0.46050607518E+03  0.46197646872E+03  0.00000000000E+00 0. -1.
         21    1    1    2  504  503  0.32452611377E+02  0.17413798777E+02 -0.46174079690E+02  0.59063169643E+02  0.00000000000E+00 0.  1.
<mgrwt>
<rscale>  2 0.36829504E+02</rscale>
<asrwt>0</asrwt>
<pdfrwt beam="1">  1       21 0.11045757E-02 0.36829504E+02</pdfrwt>
<pdfrwt beam="2">  1       21 0.79055363E-01 0.36829504E+02</pdfrwt>
<totfact> 0.41432572E+06</totfact>
</mgrwt>
</event>
<event>
 4    1  0.4447136E+006  0.7117407E+02  0.7546771E-02  0.1356145E+00
         21   -1    0    0  502  501  0.00000000000E+00  0.00000000000E+00  0.14724235294E+02  0.14724235294E+02  0.00000000000E+00 0. -1.
         21   -1    0    0  504  502 -0.00000000000E+00 -0.00000000000E+00 -0.50374381583E+03  0.50374381583E+03  0.00000000000E+00 0.  1.
         21    1    1    2  503  501  0.58262391966E+02  0.40880818721E+02 -0.98546791090E+02  0.12156157983E+03  0.00000000000E+00 0. -1.
         21    1    1    2  504  503 -0.58262391966E+02 -0.40880818721E+02 -0.39047278944E+03  0.39690647129E+03  0.00000000000E+00 0.  1.
<mgrwt>
<rscale>  2 0.71174066E+02</rscale>
<asrwt>0</asrwt>
<pdfrwt beam="1">  1       21 0.22652668E-02 0.71174066E+02</pdfrwt>
<pdfrwt beam="2">  1       21 0.77499055E-01 0.71174066E+02</pdfrwt>
<totfact> 0.14666151E+06</totfact>
</mgrwt>
</event>
<event>
 4    1  0.4447136E+006  0.4142510E+02  0.7546771E-02  0.1497979E+00
         21   -1    0    0  502  501  0.00000000000E+00  0.00000000000E+00  0.47597603585E+03  0.47597603585E+03  0.00000000000E+00 0. -1.
         21   -1    0    0  504  502 -0.00000000000E+00 -0.00000000000E+00 -0.36622912159E+02  0.36622912159E+02  0.00000000000E+00 0. -1.
         21    1    1    2  503  501 -0.35235174722E+02  0.21783507067E+02  0.46303369251E+03  0.46488303811E+03  0.00000000000E+00 0. -1.
         21    1    1    2  504  503  0.35235174722E+02 -0.21783507067E+02 -0.23680568823E+02  0.47715909900E+02  0.00000000000E+00 0. -1.
<mgrwt>
<rscale>  2 0.41425098E+02</rscale>
<asrwt>0</asrwt>
<pdfrwt beam="1">  1       21 0.73227078E-01 0.41425098E+02</pdfrwt>
<pdfrwt beam="2">  1       21 0.56342945E-02 0.41425098E+02</pdfrwt>
<totfact> 0.37538321E+05</totfact>
</mgrwt>
</event>
<event>
 4    1  0.4447136E+006  0.2198875E+02  0.7546771E-02  0.1708447E+00
         21   -1    0    0  503  501  0.00000000000E+00  0.00000000000E+00  0.56692985997E+02  0.56692985997E+02  0.00000000000E+00 0.  1.
         21   -1    0    0  501  502 -0.00000000000E+00 -0.00000000000E+00 -0.12114967651E+02  0.12114967651E+02  0.00000000000E+00 0.  1.
         21    1    1    2  503  504  0.16510334048E+02  0.14522878499E+02  0.41007983332E+02  0.46531277946E+02  0.00000000000E+00 0.  1.
         21    1    1    2  504  502 -0.16510334048E+02 -0.14522878499E+02  0.35700350134E+01  0.22276675701E+02  0.00000000000E+00 0.  1.
<mgrwt>
<rscale>  2 0.21988750E+02</rscale>
<asrwt>0</asrwt>
<pdfrwt beam="1">  1       21 0.87219977E-02 0.21988750E+02</pdfrwt>
<pdfrwt beam="2">  1       21 0.18638412E-02 0.21988750E+02</pdfrwt>
<totfact> 0.96053045E+07</totfact>
</mgrwt>
</event>
<event>
 4    1  0.4447136E+006  0.5292430E+02  0.7546771E-02  0.1430178E+00
         21   -1    0    0  502  501  0.00000000000E+00  0.00000000000E+00  0.28761592285E+01  0.28761592285E+01  0.00000000000E+00 0. -1.
         21   -1    0    0  504  502 -0.00000000000E+00 -0.00000000000E+00 -0.10257352186E+04  0.10257352186E+04  0.00000000000E+00 0. -1.
         21    1    1    2  503  501 -0.48951277758E+02 -0.20118484382E+02 -0.39577117865E+03  0.39929413577E+03  0.00000000000E+00 0. -1.
         21    1    1    2  504  503  0.48951277758E+02  0.20118484382E+02 -0.62708788074E+03  0.62931724208E+03  0.00000000000E+00 0. -1.
<mgrwt>
<rscale>  2 0.52924295E+02</rscale>
<asrwt>0</asrwt>
<pdfrwt beam="1">  1       21 0.44248588E-03 0.52924295E+02</pdfrwt>
<pdfrwt beam="2">  1       21 0.15780547E+00 0.52924295E+02</pdfrwt>
<totfact> 0.34582693E+06</totfact>
</mgrwt>
</event>
<event>
 4    1  0.4447136E+006  0.2764965E+02  0.7546771E-02  0.1625623E+00
         21   -1    0    0  502  501  0.00000000000E+00  0.00000000000E+00  0.36029623161E+02  0.36029623161E+02  0.00000000000E+00 0. -1.
         21   -1    0    0  504  502 -0.00000000000E+00 -0.00000000000E+00 -0.18655183129E+03  0.18655183129E+03  0.00000000000E+00 0. -1.
         21    1    1    2  503  501  0.27202599028E+02 -0.49519603366E+01  0.29509418815E+02  0.40438955277E+02  0.00000000000E+00 0. -1.
         21    1    1    2  504  503 -0.27202599028E+02  0.49519603366E+01 -0.18003162694E+03  0.18214249917E+03  0.00000000000E+00 0. -1.
<mgrwt>
<rscale>  2 0.27649653E+02</rscale>
<asrwt>0</asrwt>
<pdfrwt beam="1">  1       21 0.55430189E-02 0.27649653E+02</pdfrwt>
<pdfrwt beam="2">  1       21 0.28700282E-01 0.27649653E+02</pdfrwt>
<totfact> 0.23496230E+06</totfact>
</mgrwt>
</event>
<event>
 4    1  0.4447136E+006  0.2014819E+02  0.7546771E-02  0.1742397E+00
         21   -1    0    0  504  501  0.00000000000E+00  0.00000000000E+00  0.57562410314E+02  0.57562410314E+02  0.00000000000E+00 0.  1.
         21   -1    0    0  501  502 -0.00000000000E+00 -0.00000000000E+00 -0.76366572530E+01  0.76366572530E+01  0.00000000000E+00 0.  1.
         21    1    1    2  503  502 -0.60543104361E+01  0.19217051766E+02  0.15945427900E+02  0.25694482371E+02  0.00000000000E+00 0.  1.
         21    1    1    2  504  503  0.60543104361E+01 -0.19217051766E+02  0.33980325161E+02  0.39504585195E+02  0.00000000000E+00 0.  1.
<mgrwt>
<rscale>  2 0.20148195E+02</rscale>
<asrwt>0</asrwt>
<pdfrwt beam="1">  1       21 0.88557551E-02 0.20148195E+02</pdfrwt>
<pdfrwt beam="2">  1       21 0.11748704E-02 0.20148195E+02</pdfrwt>
<totfact> 0.18354895E+08</totfact>
</mgrwt>
</event>
<event>
 4    1  0.4447136E+006  0.2405248E+02  0.7546771E-02  0.1674997E+00
         21   -1    0    0  503  501  0.00000000000E+00  0.00000000000E+00  0.31872906981E+02  0.31872906981E+02  0.00000000000E+00 0.  1.
         21   -1    0    0  504  502 -0.00000000000E+00 -0.00000000000E+00 -0.45830957196E+02  0.45830957196E+02  0.00000000000E+00 0. -1.
         21    1    1    2  503  502 -0.15779729449E+02 -0.18152740627E+02  0.23214698254E+02  0.33428192724E+02  0.00000000000E+00 0.  1.
         21    1    1    2  504  501  0.15779729449E+02  0.18152740627E+02 -0.37172748469E+02  0.44275671452E+02  0.00000000000E+00 0. -1.
<mgrwt>
<rscale>  2 0.24052481E+02</rscale>
<asrwt>0</asrwt>
<pdfrwt beam="1">  1       21 0.49035242E-02 0.24052481E+02</pdfrwt>
<pdfrwt beam="2">  1       21 0.70509165E-02 0.24052481E+02</pdfrwt>
<totfact> 0.30798493E+07</totfact>
</mgrwt>
</event>
<event>
 4    1  0.4447136E+006  0.2552884E+02  0.7546771E-02  0.1653520E+00
         21   -1    0    0  502  501  0.00000000000E+00  0.00000000000E+00  0.11919832188E+02  0.11919832188E+02  0.00000000000E+00 0. -1.
         21   -1    0    0  504  502 -0.00000000000E+00 -0.00000000000E+00 -0.98499763437E+02  0.98499763437E+02  0.00000000000E+00 0.  1.
         21    1    1    2  503  501  0.13382103817E+02  0.21740310026E+02 -0.64638177828E+01  0.26334439864E+02  0.00000000000E+00 0. -1.
         21    1    1    2  504  503 -0.13382103817E+02 -0.21740310026E+02 -0.80116113466E+02  0.84085155762E+02  0.00000000000E+00 0.  1.
<mgrwt>
<rscale>  2 0.25528842E+02</rscale>
<asrwt>0</asrwt>
<pdfrwt beam="1">  1       21 0.18338204E-02 0.25528842E+02</pdfrwt>
<pdfrwt beam="2">  1       21 0.15153810E-01 0.25528842E+02</pdfrwt>
<totfact> 0.40638271E+07</totfact>
</mgrwt>
</event>
<event>
 4    1  0.4447136E+006  0.2322254E+02  0.7546771E-02  0.1687928E+00
         21   -1    0    0  504  501  0.00000000000E+00  0.00000000000E+00  0.98821419662E+02  0.98821419662E+02  0.00000000000E+00 0.  1.
         21   -1    0    0  503  502 -0.00000000000E+00 -0.00000000000E+00 -0.48888478207E+02  0.48888478207E+02  0.00000000000E+00 0. -1.
         21    1    1    2  503  501 -0.12642864252E+02  0.19479335246E+02  0.94577448822E+02  0.97386756511E+02  0.00000000000E+00 0.  1.
         21    1    1    2  504  502  0.12642864252E+02 -0.19479335246E+02 -0.44644507367E+02  0.50323141358E+02  0.00000000000E+00 0. -1.
<mgrwt>
<rscale>  2 0.23222543E+02</rscale>
<asrwt>0</asrwt>
<pdfrwt beam="1">  1       21 0.15203295E-01 0.23222543E+02</pdfrwt>
<pdfrwt beam="2">  1       21 0.75213043E-02 0.23222543E+02</pdfrwt>
<totfact> 0.42869928E+06</totfact>
</mgrwt>
</event>
<event>
 4    1  0.4447136E+006  0.2086308E+02  0.7546771E-02  0.1728690E+00
         21   -1    0    0  502  501  0.00000000000E+00  0.00000000000E+00  0.46009141723E+01  0.46009141723E+01  0.00000000000E+00 0. -1.
         21   -1    0    0  503  502 -0.00000000000E+00 -0.00000000000E+00 -0.10532577702E+03  0.10532577702E+03  0.00000000000E+00 0.  1.
         21    1    1    2  503  504  0.50798831680E+01 -0.20235187903E+02 -0.67898220277E+02  0.71031235096E+02  0.00000000000E+00 0.  1.
         21    1    1    2  504  501 -0.50798831680E+01  0.20235187903E+02 -0.32826642571E+02  0.38895456096E+02  0.00000000000E+00 0. -1.
<mgrwt>
<rscale>  2 0.20863078E+02</rscale>
<asrwt>0</asrwt>
<pdfrwt beam="1">  1       21 0.70783296E-03 0.20863078E+02</pdfrwt>
<pdfrwt beam="2">  1       21 0.16203965E-01 0.20863078E+02</pdfrwt>
<totfact> 0.14432254E+08</totfact>
</mgrwt>
</event>
<event>
 4    1  0.4447136E+006  0.2178503E+02  0.7546771E-02  0.1711997E+00
         21   -1    0    0  504  501  0.00000000000E+00  0.00000000000E+00  0.59098276347E+01  0.59098276347E+01  0.00000000000E+00 0.  1.
         21   -1    0    0  503  502 -0.00000000000E+00 -0.00000000000E+00 -0.24333713468E+03  0.24333713468E+03  0.00000000000E+00 0.  1.
         21    1    1    2  503  501  0.19516811941E+02  0.96789190533E+01 -0.16706041534E+02  0.27453219230E+02  0.00000000000E+00 0.  1.
         21    1    1    2  504  502 -0.19516811941E+02 -0.96789190533E+01 -0.22072126551E+03  0.22179374309E+03  0.00000000000E+00 0.  1.
<mgrwt>
<rscale>  2 0.21785027E+02</rscale>
<asrwt>0</asrwt>
<pdfrwt beam="1">  1       21 0.90920416E-03 0.21785027E+02</pdfrwt>
<pdfrwt beam="2">  1       21 0.37436486E-01 0.21785027E+02</pdfrwt>
<totfact> 0.22685754E+07</totfact>
</mgrwt>
</event>
<event>
 4    1  0.4447136E+006  0.8056157E+02  0.7546771E-02  0.1327465E+00
         21   -1    0    0  502  501  0.00000000000E+00  0.00000000000E+00  0.67668092610E+03  0.67668092610E+03  0.00000000000E+00 0.  1.
         21   -1    0    0  504  502 -0.00000000000E+00 -0.00000000000E+00 -0.17794434937E+02  0.17794434937E+02  0.00000000000E+00 0.  1.
         21    1    1    2  503  501 -0.79671475718E+02 -0.11942441437E+02  0.56520749592E+03  0.57092002889E+03  0.00000000000E+00 0.  1.
         21    1    1    2  504  503  0.79671475718E+02  0.11942441437E+02  0.93678995246E+02  0.12355533214E+03  0.00000000000E+00 0.  1.
<mgrwt>
<rscale>  2 0.80561566E+02</rscale>
<asrwt>0</asrwt>
<pdfrwt beam="1">  1       21 0.10410474E+00 0.80561566E+02</pdfrwt>
<pdfrwt beam="2">  1       21 0.27376059E-02 0.80561566E+02</pdfrwt>
<totfact> 0.55817604E+05</totfact>
</mgrwt>
</event>
<event>
 4    1  0.4447136E+006  0.2102871E+02  0.7546771E-02  0.1725612E+00
         21   -1    0    0  503  501  0.00000000000E+00  0.00000000000E+00  0.28469991703E+03  0.28469991703E+03  0.00000000000E+00 0. -1.
         21   -1    0    0  504  502 -0.00000000000E+00 -0.00000000000E+00 -0.15866142898E+01  0.15866142898E+01  0.00000000000E+00 0. -1.
         21    1    1    2  503  502 -0.92960356440E+01  0.18862404143E+02  0.12079518864E+03  0.12261192506E+03  0.00000000000E+00 0. -1.
         21    1    1    2  504  501  0.92960356440E+01 -0.18862404143E+02  0.16231811410E+03  0.16367460626E+03  0.00000000000E+00 0. -1.
<mgrwt>
<rscale>  2 0.21028708E+02</rscale>
<asrwt>0</asrwt>
<pdfrwt beam="1">  1       21 0.43799947E-01 0.21028708E+02</pdfrwt>
<pdfrwt beam="2">  1       21 0.24409473E-03 0.21028708E+02</pdfrwt>
<totfact> 0.11559810E+08</totfact>
</mgrwt>
</event>
<event>
 4    1  0.4447136E+006  0.2588415E+02  0.7546771E-02  0.1648618E+00
         21   -1    0    0  503  501  0.00000000000E+00  0.00000000000E+00  0.15277697430E+02  0.15277697430E+02  0.00000000000E+00 0.  1.
         21   -1    0    0  501  502 -0.00000000000E+00 -0.00000000000E+00 -0.27083882230E+03  0.27083882230E+03  0.00000000000E+00 0. -1.
         21    1    1    2  503  504  0.24683753221E+02  0.77911083927E+01  0.31846140620E+01  0.26079317663E+02  0.00000000000E+00 0.  1.
         21    1    1    2  504  502 -0.24683753221E+02 -0.77911083927E+01 -0.25874573893E+03  0.26003720207E+03  0.00000000000E+00 0. -1.
<mgrwt>
<rscale>  2 0.25884147E+02</rscale>
<asrwt>0</asrwt>
<pdfrwt beam="1">  1       21 0.23504152E-02 0.25884147E+02</pdfrwt>
<pdfrwt beam="2">  1       21 0.41667507E-01 0.25884147E+02</pdfrwt>
<totfact> 0.45095056E+06</totfact>
</mgrwt>
</event>
<event>
 4    1  0.4447136E+006  0.2023775E+02  0.7546771E-02  0.1740641E+00
         21   -1    0    0  503  501  0.00000000000E+00  0.00000000000E+00  0.17214396567E+02  0.17214396567E+02  0.00000000000E+00 0.  1.
         21   -1    0    0  504  502 -0.00000000000E+00 -0.00000000000E+00 -0.28255814173E+02  0.28255814173E+02  0.00000000000E+00 0.  1.
         21    1    1    2  503  502 -0.16188146883E+02  0.12145385177E+02 -0.14557031061E+02  0.24929372914E+02  0.00000000000E+00 0.  1.
         21    1    1    2  504  501  0.16188146883E+02 -0.12145385177E+02  0.35156134542E+01  0.20540837825E+02  0.00000000000E+00 0.  1.
<mgrwt>
<rscale>  2 0.20237749E+02</rscale>
<asrwt>0</asrwt>
<pdfrwt beam="1">  1       21 0.26483687E-02 0.20237749E+02</pdfrwt>
<pdfrwt beam="2">  1       21 0.43470483E-02 0.20237749E+02</pdfrwt>
<totfact> 0.16687502E+08</totfact>
</mgrwt>
</event>
<event>
 4    1  0.4447136E+006  0.2665751E+02  0.7546771E-02  0.1638276E+00
         21   -1    0    0  502  501  0.00000000000E+00  0.00000000000E+00  0.11337715500E+04  0.11337715500E+04  0.00000000000E+00 0. -1.
         21   -1    0    0  503  502 -0.00000000000E+00 -0.00000000000E+00 -0.24994042222E+01  0.24994042222E+01  0.00000000000E+00 0. -1.
         21    1    1    2  503  504  0.37965293267E+01  0.26385771889E+02  0.73869212869E+02  0.78532052074E+02  0.00000000000E+00 0. -1.
         21    1    1    2  504  501 -0.37965293267E+01 -0.26385771889E+02  0.10574029329E+04  0.10577389022E+04  0.00000000000E+00 0. -1.
<mgrwt>
<rscale>  2 0.26657505E+02</rscale>
<asrwt>0</asrwt>
<pdfrwt beam="1">  1       21 0.17442598E+00 0.26657505E+02</pdfrwt>
<pdfrwt beam="2">  1       21 0.38452463E-03 0.26657505E+02</pdfrwt>
<totfact> 0.31804888E+06</totfact>
</mgrwt>
</event>
<event>
 4    1  0.4447136E+006  0.2204176E+02  0.7546771E-02  0.1707531E+00
         21   -1    0    0  504  501  0.00000000000E+00  0.00000000000E+00  0.10945245205E+03  0.10945245205E+03  0.00000000000E+00 0. -1.
         21   -1    0    0  501  502 -0.00000000000E+00 -0.00000000000E+00 -0.55138409365E+02  0.55138409365E+02  0.00000000000E+00 0.  1.
         21    1    1    2  503  502  0.20932682291E+02  0.69037762955E+01 -0.51756394585E+02  0.56254454895E+02  0.00000000000E+00 0.  1.
         21    1    1    2  504  503 -0.20932682291E+02 -0.69037762955E+01  0.10607043727E+03  0.10833640652E+03  0.00000000000E+00 0. -1.
<mgrwt>
<rscale>  2 0.22041763E+02</rscale>
<asrwt>0</asrwt>
<pdfrwt beam="1">  1       21 0.16838839E-01 0.22041763E+02</pdfrwt>
<pdfrwt beam="2">  1       21 0.84828322E-02 0.22041763E+02</pdfrwt>
<totfact> 0.29351373E+06</totfact>
</mgrwt>
</event>
<event>
 4    1  0.4447136E+006  0.2202385E+02  0.7546771E-02  0.1707840E+00
         21   -1    0    0  502  501  0.00000000000E+00  0.00000000000E+00  0.69663199952E+03  0.69663199952E+03  0.00000000000E+00 0.  1.
         21   -1    0    0  504  502 -0.00000000000E+00 -0.00000000000E+00 -0.32950251510E+02  0.32950251510E+02  0.00000000000E+00 0. -1.
         21    1    1    2  503  501 -0.24225939776E+01  0.21890208263E+02  0.69275718004E+03  0.69310717835E+03  0.00000000000E+00 0.  1.
         21    1    1    2  504  503  0.24225939776E+01 -0.21890208263E+02 -0.29075432031E+02  0.36475072682E+02  0.00000000000E+00 0. -1.
<mgrwt>
<rscale>  2 0.22023855E+02</rscale>
<asrwt>0</asrwt>
<pdfrwt beam="1">  1       21 0.10717414E+00 0.22023855E+02</pdfrwt>
<pdfrwt beam="2">  1       21 0.50692700E-02 0.22023855E+02</pdfrwt>
<totfact> 0.19311692E+05</totfact>
</mgrwt>
</event>
<event>
 4    1  0.4447136E+006  0.2603865E+02  0.7546771E-02  0.1646517E+00
         21   -1    0    0  503  501  0.00000000000E+00  0.00000000000E+00  0.17479045640E+03  0.17479045640E+03  0.00000000000E+00 0. -1.
         21   -1    0    0  501  502 -0.00000000000E+00 -0.00000000000E+00 -0.10045879577E+04  0.10045879577E+04  0.00000000000E+00 0.  1.
         21    1    1    2  503  504  0.25703925410E+02 -0.41616451323E+01  0.17365087822E+03  0.17559225090E+03  0.00000000000E+00 0. -1.
         21    1    1    2  504  502 -0.25703925410E+02  0.41616451323E+01 -0.10034483795E+04  0.10037861632E+04  0.00000000000E+00 0.  1.
<mgrwt>
<rscale>  2 0.26038646E+02</rscale>
<asrwt>0</asrwt>
<pdfrwt beam="1">  1       21 0.26890839E-01 0.26038646E+02</pdfrwt>
<pdfrwt beam="2">  1       21 0.15455200E+00 0.26038646E+02</pdfrwt>
<totfact> 0.49696906E+03</totfact>
</mgrwt>
</event>
<event>
 4    1  0.4447136E+006  0.2868454E+02  0.7546771E-02  0.1613102E+00
         21   -1    0    0  503  501  0.00000000000E+00  0.00000000000E+00  0.30298696659E+03  0.30298696659E+03  0.00000000000E+00 0. -1.
         21   -1    0    0  501  502 -0.00000000000E+00 -0.00000000000E+00 -0.38540482371E+01  0.38540482371E+01  0.00000000000E+00 0.  1.
         21    1    1    2  503  504  0.27582389032E+02 -0.78749207127E+01  0.23294887315E+03  0.23470828716E+03  0.00000000000E+00 0. -1.
         21    1    1    2  504  502 -0.27582389032E+02  0.78749207127E+01  0.66184045206E+02  0.72132727667E+02  0.00000000000E+00 0.  1.
<mgrwt>
<rscale>  2 0.28684535E+02</rscale>
<asrwt>0</asrwt>
<pdfrwt beam="1">  1       21 0.46613361E-01 0.28684535E+02</pdfrwt>
<pdfrwt beam="2">  1       21 0.59293073E-03 0.28684535E+02</pdfrwt>
<totfact> 0.29956986E+07</totfact>
</mgrwt>
</event>
<event>
 4    1  0.4447136E+006  0.3129617E+02  0.7546771E-02  0.1584188E+00
         21   -1    0    0  503  501  0.00000000000E+00  0.00000000000E+00  0.83527045865E+00  0.83527045865E+00  0.00000000000E+00 0. -1.
         21   -1    0    0  504  502 -0.00000000000E+00 -0.00000000000E+00 -0.12126670088E+04  0.12126670088E+04  0.00000000000E+00 0.  1.
         21    1    1    2  503  502 -0.16401127323E+02  0.26654324452E+02 -0.49564612148E+03  0.49663319234E+03  0.00000000000E+00 0. -1.
         21    1    1    2  504  501  0.16401127323E+02 -0.26654324452E+02 -0.71618561689E+03  0.71686908695E+03  0.00000000000E+00 0.  1.
<mgrwt>
<rscale>  2 0.31296166E+02</rscale>
<asrwt>0</asrwt>
<pdfrwt beam="1">  1       21 0.12850308E-03 0.31296166E+02</pdfrwt>
<pdfrwt beam="2">  1       21 0.18656425E+00 0.31296166E+02</pdfrwt>
<totfact> 0.13458142E+07</totfact>
</mgrwt>
</event>
<event>
 4    1  0.4447136E+006  0.2099382E+02  0.7546771E-02  0.1726258E+00
         21   -1    0    0  504  501  0.00000000000E+00  0.00000000000E+00  0.24390005342E+02  0.24390005342E+02  0.00000000000E+00 0.  1.
         21   -1    0    0  503  502 -0.00000000000E+00 -0.00000000000E+00 -0.26241851450E+02  0.26241851450E+02  0.00000000000E+00 0.  1.
         21    1    1    2  503  501 -0.19806060347E+02 -0.69613452056E+01 -0.15052688584E+02  0.25832610924E+02  0.00000000000E+00 0.  1.
         21    1    1    2  504  502  0.19806060347E+02  0.69613452056E+01  0.13200842476E+02  0.24799245868E+02  0.00000000000E+00 0.  1.
<mgrwt>
<rscale>  2 0.20993817E+02</rscale>
<asrwt>0</asrwt>
<pdfrwt beam="1">  1       21 0.37523085E-02 0.20993817E+02</pdfrwt>
<pdfrwt beam="2">  1       21 0.40372079E-02 0.20993817E+02</pdfrwt>
<totfact> 0.11032225E+08</totfact>
</mgrwt>
</event>
<event>
 4    1  0.4447136E+006  0.2175641E+02  0.7546771E-02  0.1712499E+00
         21   -1    0    0  504  501  0.00000000000E+00  0.00000000000E+00  0.63251835817E+01  0.63251835817E+01  0.00000000000E+00 0.  1.
         21   -1    0    0  503  502 -0.00000000000E+00 -0.00000000000E+00 -0.85331297894E+02  0.85331297894E+02  0.00000000000E+00 0.  1.
         21    1    1    2  503  501 -0.14586190866E+02  0.16142632039E+02 -0.55576495687E+02  0.59683233877E+02  0.00000000000E+00 0.  1.
         21    1    1    2  504  502  0.14586190866E+02 -0.16142632039E+02 -0.23429618625E+02  0.31973247599E+02  0.00000000000E+00 0.  1.
<mgrwt>
<rscale>  2 0.21756414E+02</rscale>
<asrwt>0</asrwt>
<pdfrwt beam="1">  1       21 0.97310520E-03 0.21756414E+02</pdfrwt>
<pdfrwt beam="2">  1       21 0.13127892E-01 0.21756414E+02</pdfrwt>
<totfact> 0.12989198E+08</totfact>
</mgrwt>
</event>
<event>
 4    1  0.4447136E+006  0.2582816E+02  0.7546771E-02  0.1649384E+00
         21   -1    0    0  504  501  0.00000000000E+00  0.00000000000E+00  0.25448723036E+01  0.25448723036E+01  0.00000000000E+00 0.  1.
         21   -1    0    0  503  502 -0.00000000000E+00 -0.00000000000E+00 -0.53388557491E+03  0.53388557491E+03  0.00000000000E+00 0. -1.
         21    1    1    2  503  501  0.11295529679E+02 -0.23227238443E+02 -0.45702834508E+03  0.45775757973E+03  0.00000000000E+00 0. -1.
         21    1    1    2  504  502 -0.11295529679E+02  0.23227238443E+02 -0.74312357522E+02  0.78672867476E+02  0.00000000000E+00 0.  1.
<mgrwt>
<rscale>  2 0.25828155E+02</rscale>
<asrwt>0</asrwt>
<pdfrwt beam="1">  1       21 0.39151785E-03 0.25828155E+02</pdfrwt>
<pdfrwt beam="2">  1       21 0.82136445E-01 0.25828155E+02</pdfrwt>
<totfact> 0.17251644E+07</totfact>
</mgrwt>
</event>
<event>
 4    1  0.4447136E+006  0.2188045E+02  0.7546771E-02  0.1710328E+00
         21   -1    0    0  503  501  0.00000000000E+00  0.00000000000E+00  0.20686995183E+01  0.20686995183E+01  0.00000000000E+00 0.  1.
         21   -1    0    0  504  502 -0.00000000000E+00 -0.00000000000E+00 -0.26475884744E+03  0.26475884744E+03  0.00000000000E+00 0.  1.
         21    1    1    2  503  502 -0.35425196815E-01  0.21880420783E+02 -0.84007988673E+02  0.86810691907E+02  0.00000000000E+00 0.  1.
         21    1    1    2  504  501  0.35425196815E-01 -0.21880420783E+02 -0.17868215925E+03  0.18001685505E+03  0.00000000000E+00 0.  1.
<mgrwt>
<rscale>  2 0.21880449E+02</rscale>
<asrwt>0</asrwt>
<pdfrwt beam="1">  1       21 0.31826154E-03 0.21880449E+02</pdfrwt>
<pdfrwt beam="2">  1       21 0.40732121E-01 0.21880449E+02</pdfrwt>
<totfact> 0.91216012E+07</totfact>
</mgrwt>
</event>
<event>
 4    1  0.4447136E+006  0.2026730E+02  0.7546771E-02  0.1740064E+00
         21   -1    0    0  503  501  0.00000000000E+00  0.00000000000E+00  0.25315463103E+01  0.25315463103E+01  0.00000000000E+00 0. -1.
         21   -1    0    0  504  502 -0.00000000000E+00 -0.00000000000E+00 -0.27390776071E+03  0.27390776071E+03  0.00000000000E+00 0. -1.
         21    1    1    2  503  502 -0.12658595163E+02 -0.15827926514E+02 -0.47441747327E+02  0.51589559783E+02  0.00000000000E+00 0. -1.
         21    1    1    2  504  501  0.12658595163E+02  0.15827926514E+02 -0.22393446708E+03  0.22484974724E+03  0.00000000000E+00 0. -1.
<mgrwt>
<rscale>  2 0.20267296E+02</rscale>
<asrwt>0</asrwt>
<pdfrwt beam="1">  1       21 0.38946864E-03 0.20267296E+02</pdfrwt>
<pdfrwt beam="2">  1       21 0.42139658E-01 0.20267296E+02</pdfrwt>
<totfact> 0.62472499E+07</totfact>
</mgrwt>
</event>
<event>
 4    1  0.4447136E+006  0.3263215E+02  0.7546771E-02  0.1570692E+00
         21   -1    0    0  504  501  0.00000000000E+00  0.00000000000E+00  0.75638312474E+02  0.75638312474E+02  0.00000000000E+00 0. -1.
         21   -1    0    0  501  502 -0.00000000000E+00 -0.00000000000E+00 -0.10009635836E+03  0.10009635836E+03  0.00000000000E+00 0. -1.
         21    1    1    2  503  502  0.14348941521E+02 -0.29308111101E+02 -0.93683166312E+02  0.99203796043E+02  0.00000000000E+00 0. -1.
         21    1    1    2  504  503 -0.14348941521E+02  0.29308111101E+02  0.69225120424E+02  0.76530874794E+02  0.00000000000E+00 0. -1.
<mgrwt>
<rscale>  2 0.32632154E+02</rscale>
<asrwt>0</asrwt>
<pdfrwt beam="1">  1       21 0.11636663E-01 0.32632154E+02</pdfrwt>
<pdfrwt beam="2">  1       21 0.15399440E-01 0.32632154E+02</pdfrwt>
<totfact> 0.21212217E+06</totfact>
</mgrwt>
</event>
<event>
 4    1  0.4447136E+006  0.2546342E+02  0.7546771E-02  0.1654434E+00
         21   -1    0    0  502  501  0.00000000000E+00  0.00000000000E+00  0.14856879200E+02  0.14856879200E+02  0.00000000000E+00 0. -1.
         21   -1    0    0  504  502 -0.00000000000E+00 -0.00000000000E+00 -0.50888452089E+02  0.50888452089E+02  0.00000000000E+00 0. -1.
         21    1    1    2  503  501  0.25069679964E+02 -0.44605686834E+01 -0.56111289211E+01  0.26074322508E+02  0.00000000000E+00 0. -1.
         21    1    1    2  504  503 -0.25069679964E+02  0.44605686834E+01 -0.30420443967E+02  0.39671008781E+02  0.00000000000E+00 0. -1.
<mgrwt>
<rscale>  2 0.25463415E+02</rscale>
<asrwt>0</asrwt>
<pdfrwt beam="1">  1       21 0.22856737E-02 0.25463415E+02</pdfrwt>
<pdfrwt beam="2">  1       21 0.78289926E-02 0.25463415E+02</pdfrwt>
<totfact> 0.87229185E+07</totfact>
</mgrwt>
</event>
<event>
 4    1  0.4447136E+006  0.2938689E+02  0.7546771E-02  0.1604966E+00
         21   -1    0    0  503  501  0.00000000000E+00  0.00000000000E+00  0.72193024884E+01  0.72193024884E+01  0.00000000000E+00 0. -1.
         21   -1    0    0  504  502 -0.00000000000E+00 -0.00000000000E+00 -0.12930908367E+03  0.12930908367E+03  0.00000000000E+00 0.  1.
         21    1    1    2  503  502 -0.61963642405E+01  0.28726196702E+02 -0.79728856053E+02  0.84972229547E+02  0.00000000000E+00 0.  1.
         21    1    1    2  504  501  0.61963642405E+01 -0.28726196702E+02 -0.42360925131E+02  0.51556156613E+02  0.00000000000E+00 0. -1.
<mgrwt>
<rscale>  2 0.29386890E+02</rscale>
<asrwt>0</asrwt>
<pdfrwt beam="1">  1       21 0.11106619E-02 0.29386890E+02</pdfrwt>
<pdfrwt beam="2">  1       21 0.19893705E-01 0.29386890E+02</pdfrwt>
<totfact> 0.56270170E+07</totfact>
</mgrwt>
</event>
<event>
 4    1  0.4447136E+006  0.2571423E+02  0.7546771E-02  0.1650950E+00
         21   -1    0    0  503  501  0.00000000000E+00  0.00000000000E+00  0.19666175810E+01  0.19666175810E+01  0.00000000000E+00 0. -1.
         21   -1    0    0  504  502 -0.00000000000E+00 -0.00000000000E+00 -0.52194985595E+03  0.52194985595E+03  0.00000000000E+00 0. -1.
         21    1    1    2  503  502  0.20223251934E+02 -0.15882112152E+02 -0.41625435083E+03  0.41704784616E+03  0.00000000000E+00 0. -1.
         21    1    1    2  504  501 -0.20223251934E+02  0.15882112152E+02 -0.10372888754E+03  0.10686862736E+03  0.00000000000E+00 0. -1.
<mgrwt>
<rscale>  2 0.25714226E+02</rscale>
<asrwt>0</asrwt>
<pdfrwt beam="1">  1       21 0.30255642E-03 0.25714226E+02</pdfrwt>
<pdfrwt beam="2">  1       21 0.80300013E-01 0.25714226E+02</pdfrwt>
<totfact> 0.26393298E+07</totfact>
</mgrwt>
</event>
<event>
 4    1  0.4447136E+006  0.2347629E+02  0.7546771E-02  0.1683904E+00
         21   -1    0    0  504  501  0.00000000000E+00  0.00000000000E+00  0.47140267262E+03  0.47140267262E+03  0.00000000000E+00 0.  1.
         21   -1    0    0  503  502 -0.00000000000E+00 -0.00000000000E+00 -0.13552821793E+01  0.13552821793E+01  0.00000000000E+00 0.  1.
         21    1    1    2  503  501  0.22314579180E+02 -0.72935286985E+01  0.32262602966E+03  0.32347904263E+03  0.00000000000E+00 0.  1.
         21    1    1    2  504  502 -0.22314579180E+02  0.72935286985E+01  0.14742136078E+03  0.14927891217E+03  0.00000000000E+00 0.  1.
<mgrwt>
<rscale>  2 0.23476286E+02</rscale>
<asrwt>0</asrwt>
<pdfrwt beam="1">  1       21 0.72523357E-01 0.23476286E+02</pdfrwt>
<pdfrwt beam="2">  1       21 0.20850533E-03 0.23476286E+02</pdfrwt>
<totfact> 0.55048680E+07</totfact>
</mgrwt>
</event>
<event>
 4    1  0.4447136E+006  0.2655830E+02  0.7546771E-02  0.1639578E+00
         21   -1    0    0  503  501  0.00000000000E+00  0.00000000000E+00  0.28240180845E+02  0.28240180845E+02  0.00000000000E+00 0. -1.
         21   -1    0    0  504  502 -0.00000000000E+00 -0.00000000000E+00 -0.50892959553E+02  0.50892959553E+02  0.00000000000E+00 0. -1.
         21    1    1    2  503  502 -0.16243382255E+02  0.21011806042E+02  0.16908534549E+02  0.31483995947E+02  0.00000000000E+00 0. -1.
         21    1    1    2  504  501  0.16243382255E+02 -0.21011806042E+02 -0.39561313257E+02  0.47649144450E+02  0.00000000000E+00 0. -1.
<mgrwt>
<rscale>  2 0.26558303E+02</rscale>
<asrwt>0</asrwt>
<pdfrwt beam="1">  1       21 0.43446432E-02 0.26558303E+02</pdfrwt>
<pdfrwt beam="2">  1       21 0.78296860E-02 0.26558303E+02</pdfrwt>
<totfact> 0.32182089E+07</totfact>
</mgrwt>
</event>
<event>
 4    1  0.4447136E+006  0.2330730E+02  0.7546771E-02  0.1686577E+00
         21   -1    0    0  504  501  0.00000000000E+00  0.00000000000E+00  0.84818098995E+02  0.84818098995E+02  0.00000000000E+00 0. -1.
         21   -1    0    0  503  502 -0.00000000000E+00 -0.00000000000E+00 -0.73775058645E+01  0.73775058645E+01  0.00000000000E+00 0. -1.
         21    1    1    2  503  501  0.11893094470E+02 -0.20044559518E+02  0.21980500891E+02  0.32037048581E+02  0.00000000000E+00 0. -1.
         21    1    1    2  504  502 -0.11893094470E+02  0.20044559518E+02  0.55460092239E+02  0.60158556279E+02  0.00000000000E+00 0. -1.
<mgrwt>
<rscale>  2 0.23307296E+02</rscale>
<asrwt>0</asrwt>
<pdfrwt beam="1">  1       21 0.13048938E-01 0.23307296E+02</pdfrwt>
<pdfrwt beam="2">  1       21 0.11350010E-02 0.23307296E+02</pdfrwt>
<totfact> 0.10621655E+08</totfact>
</mgrwt>
</event>
<event>
 4    1  0.4447136E+006  0.2049706E+02  0.7546771E-02  0.1735620E+00
         21   -1    0    0  503  501  0.00000000000E+00  0.00000000000E+00  0.67906086578E+01  0.67906086578E+01  0.00000000000E+00 0.  1.
         21   -1    0    0  504  502 -0.00000000000E+00 -0.00000000000E+00 -0.65028954486E+02  0.65028954486E+02  0.00000000000E+00 0.  1.
         21    1    1    2  503  502 -0.19371539381E+02 -0.66987248043E+01 -0.21203519186E+02  0.29490993166E+02  0.00000000000E+00 0.  1.
         21    1    1    2  504  501  0.19371539381E+02  0.66987248043E+01 -0.37034826642E+02  0.42328569978E+02  0.00000000000E+00 0.  1.
<mgrwt>
<rscale>  2 0.20497060E+02</rscale>
<asrwt>0</asrwt>
<pdfrwt beam="1">  1       21 0.10447090E-02 0.20497060E+02</pdfrwt>
<pdfrwt beam="2">  1       21 0.10004455E-01 0.20497060E+02</pdfrwt>
<totfact> 0.18020931E+08</totfact>
</mgrwt>
</event>
<event>
 4    1  0.4447136E+006  0.7350657E+02  0.7546771E-02  0.1348559E+00
         21   -1    0    0  504  501  0.00000000000E+00  0.00000000000E+00  0.64828033809E+01  0.64828033809E+01  0.00000000000E+00 0. -1.
         21   -1    0    0  501  502 -0.00000000000E+00 -0.00000000000E+00 -0.18765586644E+04  0.18765586644E+04  0.00000000000E+00 0.  1.
         21    1    1    2  503  502 -0.16287019167E+02  0.71679487192E+02 -0.16369935083E+04  0.16386430246E+04  0.00000000000E+00 0.  1.
         21    1    1    2  504  503  0.16287019167E+02 -0.71679487192E+02 -0.23308235275E+03  0.24439844321E+03  0.00000000000E+00 0. -1.
<mgrwt>
<rscale>  2 0.73506570E+02</rscale>
<asrwt>0</asrwt>
<pdfrwt beam="1">  1       21 0.99735294E-03 0.73506570E+02</pdfrwt>
<pdfrwt beam="2">  1       21 0.28870175E+00 0.73506570E+02</pdfrwt>
<totfact> 0.16892493E+05</totfact>
</mgrwt>
</event>
<event>
 4    1  0.4447136E+006  0.2887894E+02  0.7546771E-02  0.1610822E+00
         21   -1    0    0  504  501  0.00000000000E+00  0.00000000000E+00  0.82910549360E+02  0.82910549360E+02  0.00000000000E+00 0.  1.
         21   -1    0    0  503  502 -0.00000000000E+00 -0.00000000000E+00 -0.64916742440E+02  0.64916742440E+02  0.00000000000E+00 0.  1.
         21    1    1    2  503  501 -0.19318777458E+02 -0.21465736761E+02  0.76943143924E+02  0.82184185913E+02  0.00000000000E+00 0.  1.
         21    1    1    2  504  502  0.19318777458E+02  0.21465736761E+02 -0.58949337005E+02  0.65643105887E+02  0.00000000000E+00 0.  1.
<mgrwt>
<rscale>  2 0.28878937E+02</rscale>
<asrwt>0</asrwt>
<pdfrwt beam="1">  1       21 0.12755469E-01 0.28878937E+02</pdfrwt>
<pdfrwt beam="2">  1       21 0.99871910E-02 0.28878937E+02</pdfrwt>
<totfact> 0.37368658E+06</totfact>
</mgrwt>
</event>
<event>
 4    1  0.4447136E+006  0.2567794E+02  0.7546771E-02  0.1651451E+00
         21   -1    0    0  502  501  0.00000000000E+00  0.00000000000E+00  0.26257076446E+03  0.26257076446E+03  0.00000000000E+00 0. -1.
         21   -1    0    0  503  502 -0.00000000000E+00 -0.00000000000E+00 -0.30060564158E+01  0.30060564158E+01  0.00000000000E+00 0.  1.
         21    1    1    2  503  504  0.25071873685E+02 -0.55459627996E+01  0.75903314529E+02  0.80129081550E+02  0.00000000000E+00 0.  1.
         21    1    1    2  504  501 -0.25071873685E+02  0.55459627996E+01  0.18366139352E+03  0.18544773933E+03  0.00000000000E+00 0. -1.
<mgrwt>
<rscale>  2 0.25677939E+02</rscale>
<asrwt>0</asrwt>
<pdfrwt beam="1">  1       21 0.40395484E-01 0.25677939E+02</pdfrwt>
<pdfrwt beam="2">  1       21 0.46247042E-03 0.25677939E+02</pdfrwt>
<totfact> 0.55710319E+07</totfact>
</mgrwt>
</event>
<event>
 4    1  0.4447136E+006  0.2735617E+02  0.7546771E-02  0.1629297E+00
         21   -1    0    0  503  501  0.00000000000E+00  0.00000000000E+00  0.11699207386E+02  0.11699207386E+02  0.00000000000E+00 0.  1.
         21   -1    0    0  501  502 -0.00000000000E+00 -0.00000000000E+00 -0.15023617447E+03  0.15023617447E+03  0.00000000000E+00 0.  1.
         21    1    1    2  503  504 -0.23325251026E+02 -0.14293105039E+02 -0.79130590822E+01  0.28477652486E+02  0.00000000000E+00 0.  1.
         21    1    1    2  504  502  0.23325251026E+02  0.14293105039E+02 -0.13062390800E+03  0.13345772937E+03  0.00000000000E+00 0.  1.
<mgrwt>
<rscale>  2 0.27356173E+02</rscale>
<asrwt>0</asrwt>
<pdfrwt beam="1">  1       21 0.17998782E-02 0.27356173E+02</pdfrwt>
<pdfrwt beam="2">  1       21 0.23113256E-01 0.27356173E+02</pdfrwt>
<totfact> 0.20313361E+07</totfact>
</mgrwt>
</event>
<event>
 4    1  0.4447136E+006  0.2280268E+02  0.7546771E-02  0.1694729E+00
         21   -1    0    0  502  501  0.00000000000E+00  0.00000000000E+00  0.90748339356E+01  0.90748339356E+01  0.00000000000E+00 0. -1.
         21   -1    0    0  504  502 -0.00000000000E+00 -0.00000000000E+00 -0.35399595794E+03  0.35399595794E+03  0.00000000000E+00 0.  1.
         21    1    1    2  503  501  0.11823493959E+02 -0.19497880635E+02 -0.62647610765E+01  0.23647612776E+02  0.00000000000E+00 0. -1.
         21    1    1    2  504  503 -0.11823493959E+02  0.19497880635E+02 -0.33865636293E+03  0.33942317910E+03  0.00000000000E+00 0.  1.
<mgrwt>
<rscale>  2 0.22802683E+02</rscale>
<asrwt>0</asrwt>
<pdfrwt beam="1">  1       21 0.13961283E-02 0.22802683E+02</pdfrwt>
<pdfrwt beam="2">  1       21 0.54460918E-01 0.22802683E+02</pdfrwt>
<totfact> 0.58552872E+06</totfact>
</mgrwt>
</event>
<event>
 4    1  0.4447136E+006  0.2027258E+02  0.7546771E-02  0.1739961E+00
         21   -1    0    0  504  501  0.00000000000E+00  0.00000000000E+00  0.23516967254E+03  0.23516967254E+03  0.00000000000E+00 0. -1.
         21   -1    0    0  503  502 -0.00000000000E+00 -0.00000000000E+00 -0.26171642494E+01  0.26171642494E+01  0.00000000000E+00 0. -1.
         21    1    1    2  503  501  0.45854093428E+00 -0.20267394823E+02  0.47743460317E+02  0.51869215877E+02  0.00000000000E+00 0. -1.
         21    1    1    2  504  502 -0.45854093428E+00  0.20267394823E+02  0.18480904798E+03  0.18591762092E+03  0.00000000000E+00 0. -1.
<mgrwt>
<rscale>  2 0.20272581E+02</rscale>
<asrwt>0</asrwt>
<pdfrwt beam="1">  1       21 0.36179933E-01 0.20272581E+02</pdfrwt>
<pdfrwt beam="2">  1       21 0.40264084E-03 0.20272581E+02</pdfrwt>
<totfact> 0.79126960E+07</totfact>
</mgrwt>
</event>
<event>
 4    1  0.4447136E+006  0.6235312E+02  0.7546771E-02  0.1388214E+00
         21   -1    0    0  502  501  0.00000000000E+00  0.00000000000E+00  0.76708554501E+03  0.76708554501E+03  0.00000000000E+00 0. -1.
         21   -1    0    0  503  502 -0.00000000000E+00 -0.00000000000E+00 -0.66218750439E+02  0.66218750439E+02  0.00000000000E+00 0. -1.
         21    1    1    2  503  504 -0.62263246628E+02 -0.33465772530E+01 -0.49955973338E+02  0.79896875609E+02  0.00000000000E+00 0. -1.
         21    1    1    2  504  501  0.62263246628E+02  0.33465772530E+01  0.75082276791E+03  0.75340741984E+03  0.00000000000E+00 0. -1.
<mgrwt>
<rscale>  2 0.62353119E+02</rscale>
<asrwt>0</asrwt>
<pdfrwt beam="1">  1       21 0.11801315E+00 0.62353119E+02</pdfrwt>
<pdfrwt beam="2">  1       21 0.10187501E-01 0.62353119E+02</pdfrwt>
<totfact> 0.47416268E+04</totfact>
</mgrwt>
</event>
<event>
 4    1  0.4447136E+006  0.2054919E+02  0.7546771E-02  0.1734622E+00
         21   -1    0    0  503  501  0.00000000000E+00  0.00000000000E+00  0.14346092856E+03  0.14346092856E+03  0.00000000000E+00 0. -1.
         21   -1    0    0  501  502 -0.00000000000E+00 -0.00000000000E+00 -0.33852022397E+02  0.33852022397E+02  0.00000000000E+00 0. -1.
         21    1    1    2  503  504  0.20395781988E+02  0.25062229939E+01  0.13951893791E+03  0.14102412244E+03  0.00000000000E+00 0. -1.
         21    1    1    2  504  502 -0.20395781988E+02 -0.25062229939E+01 -0.29910031739E+02  0.36288828518E+02  0.00000000000E+00 0. -1.
<mgrwt>
<rscale>  2 0.20549187E+02</rscale>
<asrwt>0</asrwt>
<pdfrwt beam="1">  1       21 0.22070912E-01 0.20549187E+02</pdfrwt>
<pdfrwt beam="2">  1       21 0.52080035E-02 0.20549187E+02</pdfrwt>
<totfact> 0.39855027E+06</totfact>
</mgrwt>
</event>
<event>
 4    1  0.4447136E+006  0.2312854E+02  0.7546771E-02  0.1689435E+00
         21   -1    0    0  504  501  0.00000000000E+00  0.00000000000E+00  0.23353584044E+02  0.23353584044E+02  0.00000000000E+00 0. -1.
         21   -1    0    0  503  502 -0.00000000000E+00 -0.00000000000E+00 -0.15477481928E+03  0.15477481928E+03  0.00000000000E+00 0.  1.
         21    1    1    2  503  501  0.10347436429E+02 -0.20684779919E+02 -0.14792061300E+03  0.14971785902E+03  0.00000000000E+00 0.  1.
         21    1    1    2  504  502 -0.10347436429E+02  0.20684779919E+02  0.16499377762E+02  0.28410544301E+02  0.00000000000E+00 0. -1.
<mgrwt>
<rscale>  2 0.23128544E+02</rscale>
<asrwt>0</asrwt>
<pdfrwt beam="1">  1       21 0.35928590E-02 0.23128544E+02</pdfrwt>
<pdfrwt beam="2">  1       21 0.23811511E-01 0.23128544E+02</pdfrwt>
<totfact> 0.63870906E+06</totfact>
</mgrwt>
</event>
<event>
 4    1  0.4447136E+006  0.3426378E+02  0.7546771E-02  0.1555237E+00
         21   -1    0    0  503  501  0.00000000000E+00  0.00000000000E+00  0.96613291222E+03  0.96613291222E+03  0.00000000000E+00 0. -1.
         21   -1    0    0  504  502 -0.00000000000E+00 -0.00000000000E+00 -0.93083071428E+02  0.93083071428E+02  0.00000000000E+00 0. -1.
         21    1    1    2  503  502 -0.34086965599E+02  0.34764422983E+01 -0.89614808887E+02  0.95941757575E+02  0.00000000000E+00 0. -1.
         21    1    1    2  504  501  0.34086965599E+02 -0.34764422983E+01  0.96266464968E+03  0.96327422607E+03  0.00000000000E+00 0. -1.
<mgrwt>
<rscale>  2 0.34263784E+02</rscale>
<asrwt>0</asrwt>
<pdfrwt beam="1">  1       21 0.14863583E+00 0.34263784E+02</pdfrwt>
<pdfrwt beam="2">  1       21 0.14320473E-01 0.34263784E+02</pdfrwt>
<totfact> 0.16009761E+04</totfact>
</mgrwt>
</event>
<event>
 4    1  0.4447136E+006  0.2894638E+02  0.7546771E-02  0.1610036E+00
         21   -1    0    0  504  501  0.00000000000E+00  0.00000000000E+00  0.77048336405E+02  0.77048336405E+02  0.00000000000E+00 0.  1.
         21   -1    0    0  503  502 -0.00000000000E+00 -0.00000000000E+00 -0.11375129427E+02  0.11375129427E+02  0.00000000000E+00 0.  1.
         21    1    1    2  503  501  0.22206199021E+02  0.18568193141E+02  0.42107960790E+02  0.51097685206E+02  0.00000000000E+00 0.  1.
         21    1    1    2  504  502 -0.22206199021E+02 -0.18568193141E+02  0.23565246188E+02  0.37325780626E+02  0.00000000000E+00 0.  1.
<mgrwt>
<rscale>  2 0.28946383E+02</rscale>
<asrwt>0</asrwt>
<pdfrwt beam="1">  1       21 0.11853590E-01 0.28946383E+02</pdfrwt>
<pdfrwt beam="2">  1       21 0.17500200E-02 0.28946383E+02</pdfrwt>
<totfact> 0.68276289E+07</totfact>
</mgrwt>
</event>
<event>
 4    1  0.4447136E+006  0.2642382E+02  0.7546771E-02  0.1641355E+00
         21   -1    0    0  503  501  0.00000000000E+00  0.00000000000E+00  0.29119081694E+02  0.29119081694E+02  0.00000000000E+00 0. -1.
         21   -1    0    0  504  502 -0.00000000000E+00 -0.00000000000E+00 -0.29590919836E+03  0.29590919836E+03  0.00000000000E+00 0. -1.
         21    1    1    2  503  502  0.25664351922E+02  0.62896211334E+01 -0.28918571700E+03  0.29039042204E+03  0.00000000000E+00 0. -1.
         21    1    1    2  504  501 -0.25664351922E+02 -0.62896211334E+01  0.22395600335E+02  0.34637858016E+02  0.00000000000E+00 0. -1.
<mgrwt>
<rscale>  2 0.26423821E+02</rscale>
<asrwt>0</asrwt>
<pdfrwt beam="1">  1       21 0.44798585E-02 0.26423821E+02</pdfrwt>
<pdfrwt beam="2">  1       21 0.45524494E-01 0.26423821E+02</pdfrwt>
<totfact> 0.13856034E+06</totfact>
</mgrwt>
</event>
<event>
 4    1  0.4447136E+006  0.2056782E+02  0.7546771E-02  0.1734266E+00
         21   -1    0    0  504  501  0.00000000000E+00  0.00000000000E+00  0.10300348187E+01  0.10300348187E+01  0.00000000000E+00 0. -1.
         21   -1    0    0  503  502 -0.00000000000E+00 -0.00000000000E+00 -0.45202150262E+03  0.45202150262E+03  0.00000000000E+00 0. -1.
         21    1    1    2  503  501 -0.14573658300E+01  0.20516126723E+02 -0.15700595611E+03  0.15834742065E+03  0.00000000000E+00 0. -1.
         21    1    1    2  504  502  0.14573658300E+01 -0.20516126723E+02 -0.29398551169E+03  0.29470411680E+03  0.00000000000E+00 0. -1.
<mgrwt>
<rscale>  2 0.20567824E+02</rscale>
<asrwt>0</asrwt>
<pdfrwt beam="1">  1       21 0.15846681E-03 0.20567824E+02</pdfrwt>
<pdfrwt beam="2">  1       21 0.69541808E-01 0.20567824E+02</pdfrwt>
<totfact> 0.86218210E+07</totfact>
</mgrwt>
</event>
<event>
 4    1  0.4447136E+006  0.2021233E+02  0.7546771E-02  0.1741138E+00
         21   -1    0    0  504  501  0.00000000000E+00  0.00000000000E+00  0.59359217489E+01  0.59359217489E+01  0.00000000000E+00 0. -1.
         21   -1    0    0  501  502 -0.00000000000E+00 -0.00000000000E+00 -0.41165501194E+03  0.41165501194E+03  0.00000000000E+00 0. -1.
         21    1    1    2  503  502 -0.88626737151E+01 -0.18165661747E+02 -0.39340296046E+03  0.39392185463E+03  0.00000000000E+00 0. -1.
         21    1    1    2  504  503  0.88626737151E+01  0.18165661747E+02 -0.12316129725E+02  0.23669079059E+02  0.00000000000E+00 0. -1.
<mgrwt>
<rscale>  2 0.20212329E+02</rscale>
<asrwt>0</asrwt>
<pdfrwt beam="1">  1       21 0.91321884E-03 0.20212329E+02</pdfrwt>
<pdfrwt beam="2">  1       21 0.63331533E-01 0.20212329E+02</pdfrwt>
<totfact> 0.80481761E+06</totfact>
</mgrwt>
</event>
<event>
 4    1  0.4447136E+006  0.2217890E+02  0.7546771E-02  0.1705176E+00
         21   -1    0    0  504  501  0.00000000000E+00  0.00000000000E+00  0.85508668249E+01  0.85508668249E+01  0.00000000000E+00 0. -1.
         21   -1    0    0  503  502 -0.00000000000E+00 -0.00000000000E+00 -0.58496793928E+02  0.58496793928E+02  0.00000000000E+00 0. -1.
         21    1    1    2  503  501  0.11216883423E+02  0.19133346129E+02 -0.20655906762E+02  0.30307917975E+02  0.00000000000E+00 0. -1.
         21    1    1    2  504  502 -0.11216883423E+02 -0.19133346129E+02 -0.29290020341E+02  0.36739742778E+02  0.00000000000E+00 0. -1.
<mgrwt>
<rscale>  2 0.22178896E+02</rscale>
<asrwt>0</asrwt>
<pdfrwt beam="1">  1       21 0.13155180E-02 0.22178896E+02</pdfrwt>
<pdfrwt beam="2">  1       21 0.89995067E-02 0.22178896E+02</pdfrwt>
<totfact> 0.15534782E+08</totfact>
</mgrwt>
</event>
<event>
 4    1  0.4447136E+006  0.2867417E+02  0.7546771E-02  0.1613224E+00
         21   -1    0    0  504  501  0.00000000000E+00  0.00000000000E+00  0.24711687437E+02  0.24711687437E+02  0.00000000000E+00 0. -1.
         21   -1    0    0  503  502 -0.00000000000E+00 -0.00000000000E+00 -0.75009214527E+02  0.75009214527E+02  0.00000000000E+00 0.  1.
         21    1    1    2  503  501 -0.24877702865E+02  0.14258608183E+02 -0.62341699983E+02  0.68619935615E+02  0.00000000000E+00 0.  1.
         21    1    1    2  504  502  0.24877702865E+02 -0.14258608183E+02  0.12044172893E+02  0.31100966349E+02  0.00000000000E+00 0. -1.
<mgrwt>
<rscale>  2 0.28674170E+02</rscale>
<asrwt>0</asrwt>
<pdfrwt beam="1">  1       21 0.38017980E-02 0.28674170E+02</pdfrwt>
<pdfrwt beam="2">  1       21 0.11539879E-01 0.28674170E+02</pdfrwt>
<totfact> 0.21223087E+07</totfact>
</mgrwt>
</event>
<event>
 4    1  0.4447136E+006  0.2036737E+02  0.7546771E-02  0.1738120E+00
         21   -1    0    0  504  501  0.00000000000E+00  0.00000000000E+00  0.29155080343E+03  0.29155080343E+03  0.00000000000E+00 0. -1.
         21   -1    0    0  503  502 -0.00000000000E+00 -0.00000000000E+00 -0.14232336239E+01  0.14232336239E+01  0.00000000000E+00 0.  1.
         21    1    1    2  503  501 -0.18984387398E+02 -0.73771828662E+01  0.14750366879E+03  0.14890319708E+03  0.00000000000E+00 0. -1.
         21    1    1    2  504  502  0.18984387398E+02  0.73771828662E+01  0.14262390102E+03  0.14407083998E+03  0.00000000000E+00 0.  1.
<mgrwt>
<rscale>  2 0.20367371E+02</rscale>
<asrwt>0</asrwt>
<pdfrwt beam="1">  1       21 0.44853922E-01 0.20367371E+02</pdfrwt>
<pdfrwt beam="2">  1       21 0.21895925E-03 0.20367371E+02</pdfrwt>
<totfact> 0.12810374E+08</totfact>
</mgrwt>
</event>
<event>
 4    1  0.4447136E+006  0.2114041E+02  0.7546771E-02  0.1723557E+00
         21   -1    0    0  504  501  0.00000000000E+00  0.00000000000E+00  0.34303932694E+01  0.34303932694E+01  0.00000000000E+00 0.  1.
         21   -1    0    0  503  502 -0.00000000000E+00 -0.00000000000E+00 -0.14068759545E+03  0.14068759545E+03  0.00000000000E+00 0.  1.
         21    1    1    2  503  501 -0.14208428696E+02  0.15653668363E+02 -0.49030941707E+02  0.53394288308E+02  0.00000000000E+00 0.  1.
         21    1    1    2  504  502  0.14208428696E+02 -0.15653668363E+02 -0.88226260473E+02  0.90723700411E+02  0.00000000000E+00 0.  1.
<mgrwt>
<rscale>  2 0.21140406E+02</rscale>
<asrwt>0</asrwt>
<pdfrwt beam="1">  1       21 0.52775260E-03 0.21140406E+02</pdfrwt>
<pdfrwt beam="2">  1       21 0.21644254E-01 0.21140406E+02</pdfrwt>
<totfact> 0.13557973E+08</totfact>
</mgrwt>
</event>
<event>
 4    1  0.4447136E+006  0.2088867E+02  0.7546771E-02  0.1728212E+00
         21   -1    0    0  504  501  0.00000000000E+00  0.00000000000E+00  0.60784068007E+00  0.60784068007E+00  0.00000000000E+00 0. -1.
         21   -1    0    0  501  502 -0.00000000000E+00 -0.00000000000E+00 -0.76247324664E+03  0.76247324664E+03  0.00000000000E+00 0. -1.
         21    1    1    2  503  502  0.11401295858E+02 -0.17502766894E+02 -0.47323771237E+03  0.47369849990E+03  0.00000000000E+00 0. -1.
         21    1    1    2  504  503 -0.11401295858E+02  0.17502766894E+02 -0.28862769358E+03  0.28938258742E+03  0.00000000000E+00 0. -1.
<mgrwt>
<rscale>  2 0.20888667E+02</rscale>
<asrwt>0</asrwt>
<pdfrwt beam="1">  1       21 0.93513329E-04 0.20888667E+02</pdfrwt>
<pdfrwt beam="2">  1       21 0.11730436E+00 0.20888667E+02</pdfrwt>
<totfact> 0.60037721E+07</totfact>
</mgrwt>
</event>
<event>
 4    1  0.4447136E+006  0.2751693E+02  0.7546771E-02  0.1627278E+00
         21   -1    0    0  504  501  0.00000000000E+00  0.00000000000E+00  0.18457424378E+02  0.18457424378E+02  0.00000000000E+00 0. -1.
         21   -1    0    0  503  502 -0.00000000000E+00 -0.00000000000E+00 -0.54144228732E+03  0.54144228732E+03  0.00000000000E+00 0.  1.
         21    1    1    2  503  501  0.23012903579E+02 -0.15086004842E+02 -0.53062801849E+03  0.53134101600E+03  0.00000000000E+00 0.  1.
         21    1    1    2  504  502 -0.23012903579E+02  0.15086004842E+02  0.76431555506E+01  0.28558695699E+02  0.00000000000E+00 0. -1.
<mgrwt>
<rscale>  2 0.27516927E+02</rscale>
<asrwt>0</asrwt>
<pdfrwt beam="1">  1       21 0.28396043E-02 0.27516927E+02</pdfrwt>
<pdfrwt beam="2">  1       21 0.83298797E-01 0.27516927E+02</pdfrwt>
<totfact> 0.84035450E+05</totfact>
</mgrwt>
</event>
<event>
 4    1  0.4447136E+006  0.2955844E+02  0.7546771E-02  0.1603021E+00
         21   -1    0    0  504  501  0.00000000000E+00  0.00000000000E+00  0.50102353945E+02  0.50102353945E+02  0.00000000000E+00 0.  1.
         21   -1    0    0  501  502 -0.00000000000E+00 -0.00000000000E+00 -0.69921499509E+02  0.69921499509E+02  0.00000000000E+00 0.  1.
         21    1    1    2  503  502  0.11589522616E+01  0.29535708137E+02 -0.61902257548E+02  0.68597308366E+02  0.00000000000E+00 0.  1.
         21    1    1    2  504  503 -0.11589522616E+01 -0.29535708137E+02  0.42083111984E+02  0.51426545089E+02  0.00000000000E+00 0.  1.
<mgrwt>
<rscale>  2 0.29558437E+02</rscale>
<asrwt>0</asrwt>
<pdfrwt beam="1">  1       21 0.77080545E-02 0.29558437E+02</pdfrwt>
<pdfrwt beam="2">  1       21 0.10757154E-01 0.29558437E+02</pdfrwt>
<totfact> 0.76779497E+06</totfact>
</mgrwt>
</event>
<event>
 4    1  0.4447136E+006  0.2670071E+02  0.7546771E-02  0.1637711E+00
         21   -1    0    0  503  501  0.00000000000E+00  0.00000000000E+00  0.17003285042E+02  0.17003285042E+02  0.00000000000E+00 0. -1.
         21   -1    0    0  504  502 -0.00000000000E+00 -0.00000000000E+00 -0.53655611175E+02  0.53655611175E+02  0.00000000000E+00 0. -1.
         21    1    1    2  503  502  0.24220925318E+01 -0.26590626166E+02 -0.34842685024E+02  0.43896931918E+02  0.00000000000E+00 0. -1.
         21    1    1    2  504  501 -0.24220925318E+01  0.26590626166E+02 -0.18096411091E+01  0.26761964298E+02  0.00000000000E+00 0. -1.
<mgrwt>
<rscale>  2 0.26700710E+02</rscale>
<asrwt>0</asrwt>
<pdfrwt beam="1">  1       21 0.26158900E-02 0.26700710E+02</pdfrwt>
<pdfrwt beam="2">  1       21 0.82547094E-02 0.26700710E+02</pdfrwt>
<totfact> 0.65638316E+07</totfact>
</mgrwt>
</event>
<event>
 4    1  0.4447136E+006  0.2946019E+02  0.7546771E-02  0.1604133E+00
         21   -1    0    0  502  501  0.00000000000E+00  0.00000000000E+00  0.29799106530E+02  0.29799106530E+02  0.00000000000E+00 0.  1.
         21   -1    0    0  504  502 -0.00000000000E+00 -0.00000000000E+00 -0.88016390247E+02  0.88016390247E+02  0.00000000000E+00 0. -1.
         21    1    1    2  503  501 -0.16891462653E+02 -0.24136726570E+02  0.19076821808E+02  0.35097410309E+02  0.00000000000E+00 0.  1.
         21    1    1    2  504  503  0.16891462653E+02  0.24136726570E+02 -0.77294105525E+02  0.82718086468E+02  0.00000000000E+00 0. -1.
<mgrwt>
<rscale>  2 0.29460195E+02</rscale>
<asrwt>0</asrwt>
<pdfrwt beam="1">  1       21 0.45844780E-02 0.29460195E+02</pdfrwt>
<pdfrwt beam="2">  1       21 0.13540983E-01 0.29460195E+02</pdfrwt>
<totfact> 0.12072244E+07</totfact>
</mgrwt>
</event>
<event>
 4    1  0.4447136E+006  0.3095519E+02  0.7546771E-02  0.1587764E+00
         21   -1    0    0  504  501  0.00000000000E+00  0.00000000000E+00  0.67558501662E+02  0.67558501662E+02  0.00000000000E+00 0. -1.
         21   -1    0    0  503  502 -0.00000000000E+00 -0.00000000000E+00 -0.24585052386E+03  0.24585052386E+03  0.00000000000E+00 0.  1.
         21    1    1    2  503  501  0.51719558624E+01  0.30520067880E+02 -0.24126307625E+03  0.24324081819E+03  0.00000000000E+00 0.  1.
         21    1    1    2  504  502 -0.51719558624E+01 -0.30520067880E+02  0.62971054057E+02  0.70168207330E+02  0.00000000000E+00 0. -1.
<mgrwt>
<rscale>  2 0.30955188E+02</rscale>
<asrwt>0</asrwt>
<pdfrwt beam="1">  1       21 0.10393616E-01 0.30955188E+02</pdfrwt>
<pdfrwt beam="2">  1       21 0.37823158E-01 0.30955188E+02</pdfrwt>
<totfact> 0.50533333E+05</totfact>
</mgrwt>
</event>
<event>
 4    1  0.4447136E+006  0.2090597E+02  0.7546771E-02  0.1727890E+00
         21   -1    0    0  504  501  0.00000000000E+00  0.00000000000E+00  0.15950429599E+03  0.15950429599E+03  0.00000000000E+00 0.  1.
         21   -1    0    0  503  502 -0.00000000000E+00 -0.00000000000E+00 -0.53562643904E+01  0.53562643904E+01  0.00000000000E+00 0. -1.
         21    1    1    2  503  501  0.11494022783E+02  0.17462734023E+02  0.13468261167E+03  0.13629550809E+03  0.00000000000E+00 0.  1.
         21    1    1    2  504  502 -0.11494022783E+02 -0.17462734023E+02  0.19465419928E+02  0.28565052289E+02  0.00000000000E+00 0. -1.
<mgrwt>
<rscale>  2 0.20905971E+02</rscale>
<asrwt>0</asrwt>
<pdfrwt beam="1">  1       21 0.24539119E-01 0.20905971E+02</pdfrwt>
<pdfrwt beam="2">  1       21 0.82404080E-03 0.20905971E+02</pdfrwt>
<totfact> 0.56015147E+07</totfact>
</mgrwt>
</event>
<event>
 4    1  0.4447136E+006  0.2520940E+02  0.7546771E-02  0.1658012E+00
         21   -1    0    0  503  501  0.00000000000E+00  0.00000000000E+00  0.10282854225E+03  0.10282854225E+03  0.00000000000E+00 0.  1.
         21   -1    0    0  501  502 -0.00000000000E+00 -0.00000000000E+00 -0.15552484707E+02  0.15552484707E+02  0.00000000000E+00 0.  1.
         21    1    1    2  503  504  0.12304440457E+02 -0.22002603019E+02  0.89586605111E+02  0.93065963756E+02  0.00000000000E+00 0.  1.
         21    1    1    2  504  502 -0.12304440457E+02  0.22002603019E+02 -0.23105475715E+01  0.25315063196E+02  0.00000000000E+00 0.  1.
<mgrwt>
<rscale>  2 0.25209399E+02</rscale>
<asrwt>0</asrwt>
<pdfrwt beam="1">  1       21 0.15819775E-01 0.25209399E+02</pdfrwt>
<pdfrwt beam="2">  1       21 0.23926900E-02 0.25209399E+02</pdfrwt>
<totfact> 0.24976690E+07</totfact>
</mgrwt>
</event>
<event>
 4    1  0.4447136E+006  0.4578514E+02  0.7546771E-02  0.1469499E+00
         21   -1    0    0  503  501  0.00000000000E+00  0.00000000000E+00  0.85398873193E+02  0.85398873193E+02  0.00000000000E+00 0.  1.
         21   -1    0    0  504  502 -0.00000000000E+00 -0.00000000000E+00 -0.35195283820E+02  0.35195283820E+02  0.00000000000E+00 0.  1.
         21    1    1    2  503  502 -0.34591734620E+02  0.29994849084E+02 -0.80643912110E+01  0.46489928815E+02  0.00000000000E+00 0.  1.
         21    1    1    2  504  501  0.34591734620E+02 -0.29994849084E+02  0.58267980584E+02  0.74104228199E+02  0.00000000000E+00 0.  1.
<mgrwt>
<rscale>  2 0.45785140E+02</rscale>
<asrwt>0</asrwt>
<pdfrwt beam="1">  1       21 0.13138288E-01 0.45785140E+02</pdfrwt>
<pdfrwt beam="2">  1       21 0.54146591E-02 0.45785140E+02</pdfrwt>
<totfact> 0.10362453E+07</totfact>
</mgrwt>
</event>
<event>
 4    1  0.4447136E+006  0.2853040E+02  0.7546771E-02  0.1614925E+00
         21   -1    0    0  502  501  0.00000000000E+00  0.00000000000E+00  0.50788143809E+02  0.50788143809E+02  0.00000000000E+00 0.  1.
         21   -1    0    0  504  502 -0.00000000000E+00 -0.00000000000E+00 -0.19094531363E+02  0.19094531363E+02  0.00000000000E+00 0. -1.
         21    1    1    2  503  501 -0.27956119093E+02  0.56955456684E+01  0.29851589347E+02  0.41292871319E+02  0.00000000000E+00 0.  1.
         21    1    1    2  504  503  0.27956119093E+02 -0.56955456684E+01  0.18420230988E+01  0.28589803852E+02  0.00000000000E+00 0. -1.
<mgrwt>
<rscale>  2 0.28530402E+02</rscale>
<asrwt>0</asrwt>
<pdfrwt beam="1">  1       21 0.78135605E-02 0.28530402E+02</pdfrwt>
<pdfrwt beam="2">  1       21 0.29376202E-02 0.28530402E+02</pdfrwt>
<totfact> 0.60903429E+07</totfact>
</mgrwt>
</event>
<event>
 4    1  0.4447136E+006  0.2601145E+02  0.7546771E-02  0.1646885E+00
         21   -1    0    0  503  501  0.00000000000E+00  0.00000000000E+00  0.17820177850E+02  0.17820177850E+02  0.00000000000E+00 0.  1.
         21   -1    0    0  504  502 -0.00000000000E+00 -0.00000000000E+00 -0.11398044277E+03  0.11398044277E+03  0.00000000000E+00 0.  1.
         21    1    1    2  503  502  0.24475601856E+02 -0.88057077881E+01 -0.10189655005E+03  0.10516416922E+03  0.00000000000E+00 0.  1.
         21    1    1    2  504  501 -0.24475601856E+02  0.88057077881E+01  0.57362851336E+01  0.26636451396E+02  0.00000000000E+00 0.  1.
<mgrwt>
<rscale>  2 0.26011451E+02</rscale>
<asrwt>0</asrwt>
<pdfrwt beam="1">  1       21 0.27415657E-02 0.26011451E+02</pdfrwt>
<pdfrwt beam="2">  1       21 0.17535453E-01 0.26011451E+02</pdfrwt>
<totfact> 0.17032655E+07</totfact>
</mgrwt>
</event>
<event>
 4    1  0.4447136E+006  0.2833758E+02  0.7546771E-02  0.1617226E+00
         21   -1    0    0  504  501  0.00000000000E+00  0.00000000000E+00  0.16975379174E+02  0.16975379174E+02  0.00000000000E+00 0. -1.
         21   -1    0    0  503  502 -0.00000000000E+00 -0.00000000000E+00 -0.12339335214E+03  0.12339335214E+03  0.00000000000E+00 0. -1.
         21    1    1    2  503  501 -0.21202619651E+02 -0.18800726818E+02 -0.10832196809E+03  0.11196725941E+03  0.00000000000E+00 0. -1.
         21    1    1    2  504  502  0.21202619651E+02  0.18800726818E+02  0.19039951230E+01  0.28401471905E+02  0.00000000000E+00 0. -1.
<mgrwt>
<rscale>  2 0.28337579E+02</rscale>
<asrwt>0</asrwt>
<pdfrwt beam="1">  1       21 0.26115968E-02 0.28337579E+02</pdfrwt>
<pdfrwt beam="2">  1       21 0.18983593E-01 0.28337579E+02</pdfrwt>
<totfact> 0.16264342E+07</totfact>
</mgrwt>
</event>
<event>
 4    1  0.4447136E+006  0.3075134E+02  0.7546771E-02  0.1589929E+00
         21   -1    0    0  504  501  0.00000000000E+00  0.00000000000E+00  0.15774372141E+02  0.15774372141E+02  0.00000000000E+00 0.  1.
         21   -1    0    0  503  502 -0.00000000000E+00 -0.00000000000E+00 -0.28863049873E+03  0.28863049873E+03  0.00000000000E+00 0.  1.
         21    1    1    2  503  501  0.30459611046E+02  0.42257594634E+01 -0.95068537441E+00  0.30766032418E+02  0.00000000000E+00 0.  1.
         21    1    1    2  504  502 -0.30459611046E+02 -0.42257594634E+01 -0.27190544122E+03  0.27363883846E+03  0.00000000000E+00 0.  1.
<mgrwt>
<rscale>  2 0.30751341E+02</rscale>
<asrwt>0</asrwt>
<pdfrwt beam="1">  1       21 0.24268266E-02 0.30751341E+02</pdfrwt>
<pdfrwt beam="2">  1       21 0.44404690E-01 0.30751341E+02</pdfrwt>
<totfact> 0.38826808E+06</totfact>
</mgrwt>
</event>
<event>
 4    1  0.4447136E+006  0.2172511E+02  0.7546771E-02  0.1713050E+00
         21   -1    0    0  503  501  0.00000000000E+00  0.00000000000E+00  0.52851799785E+02  0.52851799785E+02  0.00000000000E+00 0. -1.
         21   -1    0    0  504  502 -0.00000000000E+00 -0.00000000000E+00 -0.27470945303E+02  0.27470945303E+02  0.00000000000E+00 0. -1.
         21    1    1    2  503  502  0.68523567098E+01  0.20616152168E+02  0.45684398333E+02  0.50587002024E+02  0.00000000000E+00 0. -1.
         21    1    1    2  504  501 -0.68523567098E+01 -0.20616152168E+02 -0.20303543850E+02  0.29735743064E+02  0.00000000000E+00 0. -1.
<mgrwt>
<rscale>  2 0.21725113E+02</rscale>
<asrwt>0</asrwt>
<pdfrwt beam="1">  1       21 0.81310461E-02 0.21725113E+02</pdfrwt>
<pdfrwt beam="2">  1       21 0.42262993E-02 0.21725113E+02</pdfrwt>
<totfact> 0.30163835E+07</totfact>
</mgrwt>
</event>
<event>
 4    1  0.4447136E+006  0.3786243E+02  0.7546771E-02  0.1524558E+00
         21   -1    0    0  503  501  0.00000000000E+00  0.00000000000E+00  0.32272806407E+02  0.32272806407E+02  0.00000000000E+00 0.  1.
         21   -1    0    0  504  502 -0.00000000000E+00 -0.00000000000E+00 -0.44905435527E+02  0.44905435527E+02  0.00000000000E+00 0.  1.
         21    1    1    2  503  502  0.14134395246E+02 -0.35125234491E+02 -0.10327840321E+02  0.39245732415E+02  0.00000000000E+00 0.  1.
         21    1    1    2  504  501 -0.14134395246E+02  0.35125234491E+02 -0.23047887992E+01  0.37932509520E+02  0.00000000000E+00 0.  1.
<mgrwt>
<rscale>  2 0.37862425E+02</rscale>
<asrwt>0</asrwt>
<pdfrwt beam="1">  1       21 0.49650471E-02 0.37862425E+02</pdfrwt>
<pdfrwt beam="2">  1       21 0.69085286E-02 0.37862425E+02</pdfrwt>
<totfact> 0.34278943E+07</totfact>
</mgrwt>
</event>
<event>
 4    1  0.4447136E+006  0.2342535E+02  0.7546771E-02  0.1684707E+00
         21   -1    0    0  502  501  0.00000000000E+00  0.00000000000E+00  0.30487515608E+03  0.30487515608E+03  0.00000000000E+00 0. -1.
         21   -1    0    0  504  502 -0.00000000000E+00 -0.00000000000E+00 -0.12311998825E+02  0.12311998825E+02  0.00000000000E+00 0. -1.
         21    1    1    2  503  501  0.23258286579E+02 -0.27926520757E+01  0.29282485415E+03  0.29376034792E+03  0.00000000000E+00 0. -1.
         21    1    1    2  504  503 -0.23258286579E+02  0.27926520757E+01 -0.26169690049E+00  0.23426806984E+02  0.00000000000E+00 0. -1.
<mgrwt>
<rscale>  2 0.23425345E+02</rscale>
<asrwt>0</asrwt>
<pdfrwt beam="1">  1       21 0.46903864E-01 0.23425345E+02</pdfrwt>
<pdfrwt beam="2">  1       21 0.18941539E-02 0.23425345E+02</pdfrwt>
<totfact> 0.49405849E+06</totfact>
</mgrwt>
</event>
<event>
 4    1  0.4447136E+006  0.2202845E+02  0.7546771E-02  0.1707760E+00
         21   -1    0    0  504  501  0.00000000000E+00  0.00000000000E+00  0.13322831748E+02  0.13322831748E+02  0.00000000000E+00 0.  1.
         21   -1    0    0  503  502 -0.00000000000E+00 -0.00000000000E+00 -0.11090282268E+03  0.11090282268E+03  0.00000000000E+00 0. -1.
         21    1    1    2  503  501  0.16575628881E+02  0.14508660383E+02  0.21114793262E+01  0.22129415804E+02  0.00000000000E+00 0.  1.
         21    1    1    2  504  502 -0.16575628881E+02 -0.14508660383E+02 -0.99691470257E+02  0.10209623862E+03  0.00000000000E+00 0. -1.
<mgrwt>
<rscale>  2 0.22028452E+02</rscale>
<asrwt>0</asrwt>
<pdfrwt beam="1">  1       21 0.20496664E-02 0.22028452E+02</pdfrwt>
<pdfrwt beam="2">  1       21 0.17061973E-01 0.22028452E+02</pdfrwt>
<totfact> 0.27010859E+07</totfact>
</mgrwt>
</event>
<event>
 4    1  0.4447136E+006  0.2025687E+02  0.7546771E-02  0.1740268E+00
         21   -1    0    0  502  501  0.00000000000E+00  0.00000000000E+00  0.90882247056E+01  0.90882247056E+01  0.00000000000E+00 0.  1.
         21   -1    0    0  503  502 -0.00000000000E+00 -0.00000000000E+00 -0.51965755414E+02  0.51965755414E+02  0.00000000000E+00 0.  1.
         21    1    1    2  503  504 -0.19787674968E+02 -0.43345817824E+01 -0.32493711939E+02  0.38290756005E+02  0.00000000000E+00 0.  1.
         21    1    1    2  504  501  0.19787674968E+02  0.43345817824E+01 -0.10383818769E+02  0.22763224115E+02  0.00000000000E+00 0.  1.
<mgrwt>
<rscale>  2 0.20256867E+02</rscale>
<asrwt>0</asrwt>
<pdfrwt beam="1">  1       21 0.13981884E-02 0.20256867E+02</pdfrwt>
<pdfrwt beam="2">  1       21 0.79947315E-02 0.20256867E+02</pdfrwt>
<totfact> 0.16712584E+08</totfact>
</mgrwt>
</event>
<event>
 4    1  0.4447136E+006  0.2033431E+02  0.7546771E-02  0.1738760E+00
         21   -1    0    0  504  501  0.00000000000E+00  0.00000000000E+00  0.27672735532E+03  0.27672735532E+03  0.00000000000E+00 0.  1.
         21   -1    0    0  501  502 -0.00000000000E+00 -0.00000000000E+00 -0.23662791072E+01  0.23662791072E+01  0.00000000000E+00 0.  1.
         21    1    1    2  503  502 -0.19797065290E+02 -0.46433272391E+01  0.52464341272E+02  0.56267143050E+02  0.00000000000E+00 0.  1.
         21    1    1    2  504  503  0.19797065290E+02  0.46433272391E+01  0.22189673494E+03  0.22282649138E+03  0.00000000000E+00 0.  1.
<mgrwt>
<rscale>  2 0.20334313E+02</rscale>
<asrwt>0</asrwt>
<pdfrwt beam="1">  1       21 0.42573414E-01 0.20334313E+02</pdfrwt>
<pdfrwt beam="2">  1       21 0.36404316E-03 0.20334313E+02</pdfrwt>
<totfact> 0.67674365E+07</totfact>
</mgrwt>
</event>
<event>
 4    1  0.4447136E+006  0.2372488E+02  0.7546771E-02  0.1680023E+00
         21   -1    0    0  504  501  0.00000000000E+00  0.00000000000E+00  0.16800304393E+02  0.16800304393E+02  0.00000000000E+00 0. -1.
         21   -1    0    0  503  502 -0.00000000000E+00 -0.00000000000E+00 -0.57807533607E+02  0.57807533607E+02  0.00000000000E+00 0. -1.
         21    1    1    2  503  501 -0.55038154246E+01  0.23077646043E+02 -0.44691674095E+02  0.50598571764E+02  0.00000000000E+00 0. -1.
         21    1    1    2  504  502  0.55038154246E+01 -0.23077646043E+02  0.36844448813E+01  0.24009266237E+02  0.00000000000E+00 0. -1.
<mgrwt>
<rscale>  2 0.23724876E+02</rscale>
<asrwt>0</asrwt>
<pdfrwt beam="1">  1       21 0.25846622E-02 0.23724876E+02</pdfrwt>
<pdfrwt beam="2">  1       21 0.88934666E-02 0.23724876E+02</pdfrwt>
<totfact> 0.57437890E+07</totfact>
</mgrwt>
</event>
<event>
 4    1  0.4447136E+006  0.5231794E+02  0.7546771E-02  0.1433226E+00
         21   -1    0    0  503  501  0.00000000000E+00  0.00000000000E+00  0.69708899522E+03  0.69708899522E+03  0.00000000000E+00 0. -1.
         21   -1    0    0  504  502 -0.00000000000E+00 -0.00000000000E+00 -0.22117049985E+02  0.22117049985E+02  0.00000000000E+00 0.  1.
         21    1    1    2  503  502 -0.45458758967E+02 -0.25897263082E+02  0.66360928358E+03  0.66566842216E+03  0.00000000000E+00 0. -1.
         21    1    1    2  504  501  0.45458758967E+02  0.25897263082E+02  0.11362661656E+02  0.53537623051E+02  0.00000000000E+00 0.  1.
<mgrwt>
<rscale>  2 0.52317941E+02</rscale>
<asrwt>0</asrwt>
<pdfrwt beam="1">  1       21 0.10724444E+00 0.52317941E+02</pdfrwt>
<pdfrwt beam="2">  1       21 0.34026236E-02 0.52317941E+02</pdfrwt>
<totfact> 0.36757223E+05</totfact>
</mgrwt>
</event>
<event>
 4    1  0.4447136E+006  0.2633189E+02  0.7546771E-02  0.1642577E+00
         21   -1    0    0  503  501  0.00000000000E+00  0.00000000000E+00  0.52861990301E+02  0.52861990301E+02  0.00000000000E+00 0. -1.
         21   -1    0    0  504  502 -0.00000000000E+00 -0.00000000000E+00 -0.87060097229E+02  0.87060097229E+02  0.00000000000E+00 0. -1.
         21    1    1    2  503  502  0.25510407635E+02 -0.65259045981E+01 -0.81574857917E+02  0.85719459708E+02  0.00000000000E+00 0. -1.
         21    1    1    2  504  501 -0.25510407635E+02  0.65259045981E+01  0.47376750989E+02  0.54202627822E+02  0.00000000000E+00 0. -1.
<mgrwt>
<rscale>  2 0.26331888E+02</rscale>
<asrwt>0</asrwt>
<pdfrwt beam="1">  1       21 0.81326141E-02 0.26331888E+02</pdfrwt>
<pdfrwt beam="2">  1       21 0.13393861E-01 0.26331888E+02</pdfrwt>
<totfact> 0.47705306E+06</totfact>
</mgrwt>
</event>
<event>
 4    1  0.4447136E+006  0.2130604E+02  0.7546771E-02  0.1720537E+00
         21   -1    0    0  504  501  0.00000000000E+00  0.00000000000E+00  0.37590839770E+02  0.37590839770E+02  0.00000000000E+00 0. -1.
         21   -1    0    0  503  502 -0.00000000000E+00 -0.00000000000E+00 -0.36948661024E+02  0.36948661024E+02  0.00000000000E+00 0. -1.
         21    1    1    2  503  501  0.19355883813E+02  0.89049003430E+01  0.30899727513E+02  0.37533193958E+02  0.00000000000E+00 0. -1.
         21    1    1    2  504  502 -0.19355883813E+02 -0.89049003430E+01 -0.30257548767E+02  0.37006306836E+02  0.00000000000E+00 0. -1.
<mgrwt>
<rscale>  2 0.21306043E+02</rscale>
<asrwt>0</asrwt>
<pdfrwt beam="1">  1       21 0.57832061E-02 0.21306043E+02</pdfrwt>
<pdfrwt beam="2">  1       21 0.56844094E-02 0.21306043E+02</pdfrwt>
<totfact> 0.32506326E+07</totfact>
</mgrwt>
</event>
<event>
 4    1  0.4447136E+006  0.2147650E+02  0.7546771E-02  0.1717466E+00
         21   -1    0    0  504  501  0.00000000000E+00  0.00000000000E+00  0.24514721868E+03  0.24514721868E+03  0.00000000000E+00 0.  1.
         21   -1    0    0  503  502 -0.00000000000E+00 -0.00000000000E+00 -0.18917987932E+01  0.18917987932E+01  0.00000000000E+00 0.  1.
         21    1    1    2  503  501  0.21396795082E+02  0.18485834096E+01  0.11250616017E+03  0.11453766270E+03  0.00000000000E+00 0.  1.
         21    1    1    2  504  502 -0.21396795082E+02 -0.18485834096E+01  0.13074925971E+03  0.13250135477E+03  0.00000000000E+00 0.  1.
<mgrwt>
<rscale>  2 0.21476501E+02</rscale>
<asrwt>0</asrwt>
<pdfrwt beam="1">  1       21 0.37714932E-01 0.21476501E+02</pdfrwt>
<pdfrwt beam="2">  1       21 0.29104616E-03 0.21476501E+02</pdfrwt>
<totfact> 0.11939715E+08</totfact>
</mgrwt>
</event>
<event>
 4    1  0.4447136E+006  0.2265691E+02  0.7546771E-02  0.1697133E+00
         21   -1    0    0  503  501  0.00000000000E+00  0.00000000000E+00  0.56863569477E+01  0.56863569477E+01  0.00000000000E+00 0. -1.
         21   -1    0    0  504  502 -0.00000000000E+00 -0.00000000000E+00 -0.12087820177E+03  0.12087820177E+03  0.00000000000E+00 0.  1.
         21    1    1    2  503  502  0.10193852085E+02  0.20234152785E+02 -0.89437306917E+02  0.92262491988E+02  0.00000000000E+00 0.  1.
         21    1    1    2  504  501 -0.10193852085E+02 -0.20234152785E+02 -0.25754537908E+02  0.34302066732E+02  0.00000000000E+00 0. -1.
<mgrwt>
<rscale>  2 0.22656910E+02</rscale>
<asrwt>0</asrwt>
<pdfrwt beam="1">  1       21 0.87482417E-03 0.22656910E+02</pdfrwt>
<pdfrwt beam="2">  1       21 0.18596646E-01 0.22656910E+02</pdfrwt>
<totfact> 0.85072537E+07</totfact>
</mgrwt>
</event>
<event>
 4    1  0.4447136E+006  0.2082380E+02  0.7546771E-02  0.1729425E+00
         21   -1    0    0  504  501  0.00000000000E+00  0.00000000000E+00  0.39870728998E+02  0.39870728998E+02  0.00000000000E+00 0.  1.
         21   -1    0    0  501  502 -0.00000000000E+00 -0.00000000000E+00 -0.23224080864E+02  0.23224080864E+02  0.00000000000E+00 0. -1.
         21    1    1    2  503  502  0.20077209109E+02  0.55259806208E+01 -0.14680261968E+02  0.25478243246E+02  0.00000000000E+00 0. -1.
         21    1    1    2  504  503 -0.20077209109E+02 -0.55259806208E+01  0.31326910102E+02  0.37616566616E+02  0.00000000000E+00 0.  1.
<mgrwt>
<rscale>  2 0.20823803E+02</rscale>
<asrwt>0</asrwt>
<pdfrwt beam="1">  1       21 0.61339583E-02 0.20823803E+02</pdfrwt>
<pdfrwt beam="2">  1       21 0.35729355E-02 0.20823803E+02</pdfrwt>
<totfact> 0.61217117E+07</totfact>
</mgrwt>
</event>
<event>
 4    1  0.4447136E+006  0.2501022E+02  0.7546771E-02  0.1660855E+00
         21   -1    0    0  503  501  0.00000000000E+00  0.00000000000E+00  0.81958440167E+03  0.81958440167E+03  0.00000000000E+00 0. -1.
         21   -1    0    0  504  502 -0.00000000000E+00 -0.00000000000E+00 -0.12077453306E+01  0.12077453306E+01  0.00000000000E+00 0. -1.
         21    1    1    2  503  502  0.24951599844E+02 -0.17113146222E+01  0.16020453093E+03  0.16214500505E+03  0.00000000000E+00 0. -1.
         21    1    1    2  504  501 -0.24951599844E+02  0.17113146222E+01  0.65817212541E+03  0.65864714195E+03  0.00000000000E+00 0. -1.
<mgrwt>
<rscale>  2 0.25010217E+02</rscale>
<asrwt>0</asrwt>
<pdfrwt beam="1">  1       21 0.12608946E+00 0.25010217E+02</pdfrwt>
<pdfrwt beam="2">  1       21 0.18580763E-03 0.25010217E+02</pdfrwt>
<totfact> 0.19769650E+07</totfact>
</mgrwt>
</event>
<event>
 4    1  0.4447136E+006  0.2561828E+02  0.7546771E-02  0.1652277E+00
         21   -1    0    0  503  501  0.00000000000E+00  0.00000000000E+00  0.23835404199E+02  0.23835404199E+02  0.00000000000E+00 0.  1.
         21   -1    0    0  504  502 -0.00000000000E+00 -0.00000000000E+00 -0.10174675986E+03  0.10174675986E+03  0.00000000000E+00 0.  1.
         21    1    1    2  503  502 -0.21979900674E+02 -0.13159796906E+02  0.14670328879E+02  0.29521430142E+02  0.00000000000E+00 0.  1.
         21    1    1    2  504  501  0.21979900674E+02  0.13159796906E+02 -0.92581684541E+02  0.96060733917E+02  0.00000000000E+00 0.  1.
<mgrwt>
<rscale>  2 0.25618280E+02</rscale>
<asrwt>0</asrwt>
<pdfrwt beam="1">  1       21 0.36669853E-02 0.25618280E+02</pdfrwt>
<pdfrwt beam="2">  1       21 0.15653347E-01 0.25618280E+02</pdfrwt>
<totfact> 0.13093826E+07</totfact>
</mgrwt>
</event>
<event>
 4    1  0.4447136E+006  0.3501605E+02  0.7546771E-02  0.1548458E+00
         21   -1    0    0  504  501  0.00000000000E+00  0.00000000000E+00  0.26366902249E+03  0.26366902249E+03  0.00000000000E+00 0. -1.
         21   -1    0    0  501  502 -0.00000000000E+00 -0.00000000000E+00 -0.19651601194E+02  0.19651601194E+02  0.00000000000E+00 0. -1.
         21    1    1    2  503  502 -0.28684002768E+02  0.20083611326E+02 -0.17610636635E+01  0.35060302393E+02  0.00000000000E+00 0. -1.
         21    1    1    2  504  503  0.28684002768E+02 -0.20083611326E+02  0.24577848496E+03  0.24826032129E+03  0.00000000000E+00 0. -1.
<mgrwt>
<rscale>  2 0.35016046E+02</rscale>
<asrwt>0</asrwt>
<pdfrwt beam="1">  1       21 0.40564462E-01 0.35016046E+02</pdfrwt>
<pdfrwt beam="2">  1       21 0.30233235E-02 0.35016046E+02</pdfrwt>
<totfact> 0.33202292E+06</totfact>
</mgrwt>
</event>
<event>
 4    1  0.4447136E+006  0.2007268E+02  0.7546771E-02  0.1743887E+00
         21   -1    0    0  502  501  0.00000000000E+00  0.00000000000E+00  0.10603131779E+02  0.10603131779E+02  0.00000000000E+00 0. -1.
         21   -1    0    0  503  502 -0.00000000000E+00 -0.00000000000E+00 -0.12668079443E+03  0.12668079443E+03  0.00000000000E+00 0. -1.
         21    1    1    2  503  504 -0.10193411153E+02 -0.17291809018E+02 -0.11547039557E+03  0.11720206715E+03  0.00000000000E+00 0. -1.
         21    1    1    2  504  501  0.10193411153E+02  0.17291809018E+02 -0.60726707739E+00  0.20081859061E+02  0.00000000000E+00 0. -1.
<mgrwt>
<rscale>  2 0.20072675E+02</rscale>
<asrwt>0</asrwt>
<pdfrwt beam="1">  1       21 0.16312511E-02 0.20072675E+02</pdfrwt>
<pdfrwt beam="2">  1       21 0.19489353E-01 0.20072675E+02</pdfrwt>
<totfact> 0.29752385E+07</totfact>
</mgrwt>
</event>
<event>
 4    1  0.4447136E+006  0.2289465E+02  0.7546771E-02  0.1693224E+00
         21   -1    0    0  504  501  0.00000000000E+00  0.00000000000E+00  0.11302687863E+02  0.11302687863E+02  0.00000000000E+00 0.  1.
         21   -1    0    0  503  502 -0.00000000000E+00 -0.00000000000E+00 -0.99226314290E+02  0.99226314290E+02  0.00000000000E+00 0. -1.
         21    1    1    2  503  501 -0.22806200060E+02  0.20104831322E+01 -0.84294741547E+02  0.87348544671E+02  0.00000000000E+00 0. -1.
         21    1    1    2  504  502  0.22806200060E+02 -0.20104831322E+01 -0.36288848794E+01  0.23180457482E+02  0.00000000000E+00 0.  1.
<mgrwt>
<rscale>  2 0.22894646E+02</rscale>
<asrwt>0</asrwt>
<pdfrwt beam="1">  1       21 0.17388750E-02 0.22894646E+02</pdfrwt>
<pdfrwt beam="2">  1       21 0.15265587E-01 0.22894646E+02</pdfrwt>
<totfact> 0.42413847E+07</totfact>
</mgrwt>
</event>
<event>
 4    1  0.4447136E+006  0.2181735E+02  0.7546771E-02  0.1711430E+00
         21   -1    0    0  503  501  0.00000000000E+00  0.00000000000E+00  0.64875244559E+01  0.64875244559E+01  0.00000000000E+00 0. -1.
         21   -1    0    0  504  502 -0.00000000000E+00 -0.00000000000E+00 -0.11942111494E+03  0.11942111494E+03  0.00000000000E+00 0. -1.
         21    1    1    2  503  502  0.19327141547E+02 -0.10122179531E+02 -0.95559865481E+02  0.98018798246E+02  0.00000000000E+00 0. -1.
         21    1    1    2  504  501 -0.19327141547E+02  0.10122179531E+02 -0.17373725000E+02  0.27889841147E+02  0.00000000000E+00 0. -1.
<mgrwt>
<rscale>  2 0.21817354E+02</rscale>
<asrwt>0</asrwt>
<pdfrwt beam="1">  1       21 0.99808066E-03 0.21817354E+02</pdfrwt>
<pdfrwt beam="2">  1       21 0.18372480E-01 0.21817354E+02</pdfrwt>
<totfact> 0.70590389E+07</totfact>
</mgrwt>
</event>
<event>
 4    1  0.4447136E+006  0.2835377E+02  0.7546771E-02  0.1617032E+00
         21   -1    0    0  504  501  0.00000000000E+00  0.00000000000E+00  0.22282655824E+02  0.22282655824E+02  0.00000000000E+00 0. -1.
         21   -1    0    0  501  502 -0.00000000000E+00 -0.00000000000E+00 -0.36085764687E+02  0.36085764687E+02  0.00000000000E+00 0.  1.
         21    1    1    2  503  502 -0.64484268245E+01 -0.27610761003E+02 -0.73006143302E+01  0.29278580930E+02  0.00000000000E+00 0.  1.
         21    1    1    2  504  503  0.64484268245E+01  0.27610761003E+02 -0.65024945325E+01  0.29089839581E+02  0.00000000000E+00 0. -1.
<mgrwt>
<rscale>  2 0.28353771E+02</rscale>
<asrwt>0</asrwt>
<pdfrwt beam="1">  1       21 0.34281009E-02 0.28353771E+02</pdfrwt>
<pdfrwt beam="2">  1       21 0.55516561E-02 0.28353771E+02</pdfrwt>
<totfact> 0.83194805E+07</totfact>
</mgrwt>
</event>
<event>
 4    1  0.4447136E+006  0.2119462E+02  0.7546771E-02  0.1722565E+00
         21   -1    0    0  502  501  0.00000000000E+00  0.00000000000E+00  0.12056621313E+03  0.12056621313E+03  0.00000000000E+00 0.  1.
         21   -1    0    0  503  502 -0.00000000000E+00 -0.00000000000E+00 -0.20349517518E+03  0.20349517518E+03  0.00000000000E+00 0. -1.
         21    1    1    2  503  504 -0.10373111983E+02 -0.18482712836E+02 -0.20200498832E+03  0.20311382876E+03  0.00000000000E+00 0. -1.
         21    1    1    2  504  501  0.10373111983E+02  0.18482712836E+02  0.11907602628E+03  0.12094755955E+03  0.00000000000E+00 0.  1.
<mgrwt>
<rscale>  2 0.21194625E+02</rscale>
<asrwt>0</asrwt>
<pdfrwt beam="1">  1       21 0.18548648E-01 0.21194625E+02</pdfrwt>
<pdfrwt beam="2">  1       21 0.31306950E-01 0.21194625E+02</pdfrwt>
<totfact> 0.26357593E+05</totfact>
</mgrwt>
</event>
<event>
 4    1  0.4447136E+006  0.2866033E+02  0.7546771E-02  0.1613387E+00
         21   -1    0    0  504  501  0.00000000000E+00  0.00000000000E+00  0.57454874791E+03  0.57454874791E+03  0.00000000000E+00 0.  1.
         21   -1    0    0  501  502 -0.00000000000E+00 -0.00000000000E+00 -0.27245364525E+02  0.27245364525E+02  0.00000000000E+00 0. -1.
         21    1    1    2  503  502  0.21535318915E+02  0.18911494645E+02 -0.19244376495E+02  0.34521886061E+02  0.00000000000E+00 0. -1.
         21    1    1    2  504  503 -0.21535318915E+02 -0.18911494645E+02  0.56654775988E+03  0.56727222638E+03  0.00000000000E+00 0.  1.
<mgrwt>
<rscale>  2 0.28660331E+02</rscale>
<asrwt>0</asrwt>
<pdfrwt beam="1">  1       21 0.88392106E-01 0.28660331E+02</pdfrwt>
<pdfrwt beam="2">  1       21 0.41915950E-02 0.28660331E+02</pdfrwt>
<totfact> 0.40114601E+05</totfact>
</mgrwt>
</event>
<event>
 4    1  0.4447136E+006  0.4707487E+02  0.7546771E-02  0.1461789E+00
         21   -1    0    0  503  501  0.00000000000E+00  0.00000000000E+00  0.12587684515E+03  0.12587684515E+03  0.00000000000E+00 0.  1.
         21   -1    0    0  504  502 -0.00000000000E+00 -0.00000000000E+00 -0.19716313302E+02  0.19716313302E+02  0.00000000000E+00 0.  1.
         21    1    1    2  503  502 -0.40955164167E+01  0.46896371904E+02  0.29257624943E+02  0.55426091056E+02  0.00000000000E+00 0.  1.
         21    1    1    2  504  501  0.40955164167E+01 -0.46896371904E+02  0.76902906907E+02  0.90167067398E+02  0.00000000000E+00 0.  1.
<mgrwt>
<rscale>  2 0.47074865E+02</rscale>
<asrwt>0</asrwt>
<pdfrwt beam="1">  1       21 0.19365668E-01 0.47074865E+02</pdfrwt>
<pdfrwt beam="2">  1       21 0.30332790E-02 0.47074865E+02</pdfrwt>
<totfact> 0.13416230E+07</totfact>
</mgrwt>
</event>
<event>
 4    1  0.4447136E+006  0.2370279E+02  0.7546771E-02  0.1680365E+00
         21   -1    0    0  503  501  0.00000000000E+00  0.00000000000E+00  0.73183287598E+02  0.73183287598E+02  0.00000000000E+00 0.  1.
         21   -1    0    0  504  502 -0.00000000000E+00 -0.00000000000E+00 -0.37811199132E+02  0.37811199132E+02  0.00000000000E+00 0. -1.
         21    1    1    2  503  502  0.21747382193E+02  0.94272703971E+01  0.67230105932E+02  0.71286108065E+02  0.00000000000E+00 0.  1.
         21    1    1    2  504  501 -0.21747382193E+02 -0.94272703971E+01 -0.31858017465E+02  0.39708378665E+02  0.00000000000E+00 0. -1.
<mgrwt>
<rscale>  2 0.23702786E+02</rscale>
<asrwt>0</asrwt>
<pdfrwt beam="1">  1       21 0.11258967E-01 0.23702786E+02</pdfrwt>
<pdfrwt beam="2">  1       21 0.58171076E-02 0.23702786E+02</pdfrwt>
<totfact> 0.10816049E+07</totfact>
</mgrwt>
</event>
<event>
 4    1  0.4447136E+006  0.2060525E+02  0.7546771E-02  0.1733553E+00
         21   -1    0    0  503  501  0.00000000000E+00  0.00000000000E+00  0.45394133401E+03  0.45394133401E+03  0.00000000000E+00 0.  1.
         21   -1    0    0  504  502 -0.00000000000E+00 -0.00000000000E+00 -0.22135687821E+01  0.22135687821E+01  0.00000000000E+00 0. -1.
         21    1    1    2  503  502  0.18683805918E+02 -0.86885917039E+01  0.39918245315E+03  0.39971390660E+03  0.00000000000E+00 0.  1.
         21    1    1    2  504  501 -0.18683805918E+02  0.86885917039E+01  0.52545312079E+02  0.56440996189E+02  0.00000000000E+00 0. -1.
<mgrwt>
<rscale>  2 0.20605248E+02</rscale>
<asrwt>0</asrwt>
<pdfrwt beam="1">  1       21 0.69837055E-01 0.20605248E+02</pdfrwt>
<pdfrwt beam="2">  1       21 0.34054940E-03 0.20605248E+02</pdfrwt>
<totfact> 0.28346861E+07</totfact>
</mgrwt>
</event>
<event>
 4    1  0.4447136E+006  0.2628608E+02  0.7546771E-02  0.1643188E+00
         21   -1    0    0  503  501  0.00000000000E+00  0.00000000000E+00  0.53255066329E+02  0.53255066329E+02  0.00000000000E+00 0. -1.
         21   -1    0    0  504  502 -0.00000000000E+00 -0.00000000000E+00 -0.17619430847E+02  0.17619430847E+02  0.00000000000E+00 0. -1.
         21    1    1    2  503  502 -0.24505753912E+02 -0.95092543221E+01 -0.37724901979E+00  0.26288784859E+02  0.00000000000E+00 0. -1.
         21    1    1    2  504  501  0.24505753912E+02  0.95092543221E+01  0.36012884502E+02  0.44585712316E+02  0.00000000000E+00 0. -1.
<mgrwt>
<rscale>  2 0.26286078E+02</rscale>
<asrwt>0</asrwt>
<pdfrwt beam="1">  1       21 0.81930871E-02 0.26286078E+02</pdfrwt>
<pdfrwt beam="2">  1       21 0.27106817E-02 0.26286078E+02</pdfrwt>
<totfact> 0.62625079E+07</totfact>
</mgrwt>
</event>
<event>
 4    1  0.4447136E+006  0.2364596E+02  0.7546771E-02  0.1681248E+00
         21   -1    0    0  504  501  0.00000000000E+00  0.00000000000E+00  0.30743841521E+03  0.30743841521E+03  0.00000000000E+00 0.  1.
         21   -1    0    0  501  502 -0.00000000000E+00 -0.00000000000E+00 -0.10560662508E+02  0.10560662508E+02  0.00000000000E+00 0. -1.
         21    1    1    2  503  502 -0.20347604048E+02  0.12046020712E+02  0.37766018691E+01  0.23945653617E+02  0.00000000000E+00 0. -1.
         21    1    1    2  504  503  0.20347604048E+02 -0.12046020712E+02  0.29310115083E+03  0.29405342410E+03  0.00000000000E+00 0.  1.
<mgrwt>
<rscale>  2 0.23645964E+02</rscale>
<asrwt>0</asrwt>
<pdfrwt beam="1">  1       21 0.47298211E-01 0.23645964E+02</pdfrwt>
<pdfrwt beam="2">  1       21 0.16247175E-02 0.23645964E+02</pdfrwt>
<totfact> 0.61559804E+06</totfact>
</mgrwt>
</event>
<event>
 4    1  0.4447136E+006  0.2051901E+02  0.7546771E-02  0.1735200E+00
         21   -1    0    0  503  501  0.00000000000E+00  0.00000000000E+00  0.25432426697E+03  0.25432426697E+03  0.00000000000E+00 0.  1.
         21   -1    0    0  504  502 -0.00000000000E+00 -0.00000000000E+00 -0.17112092068E+01  0.17112092068E+01  0.00000000000E+00 0. -1.
         21    1    1    2  503  502  0.12734272870E+02  0.16089371276E+02  0.14940840318E+03  0.15081081034E+03  0.00000000000E+00 0. -1.
         21    1    1    2  504  501 -0.12734272870E+02 -0.16089371276E+02  0.10320465459E+03  0.10522466584E+03  0.00000000000E+00 0.  1.
<mgrwt>
<rscale>  2 0.20519005E+02</rscale>
<asrwt>0</asrwt>
<pdfrwt beam="1">  1       21 0.39126780E-01 0.20519005E+02</pdfrwt>
<pdfrwt beam="2">  1       21 0.26326316E-03 0.20519005E+02</pdfrwt>
<totfact> 0.12730052E+08</totfact>
</mgrwt>
</event>
<event>
 4    1  0.4447136E+006  0.2034336E+02  0.7546771E-02  0.1738585E+00
         21   -1    0    0  503  501  0.00000000000E+00  0.00000000000E+00  0.23898738183E+03  0.23898738183E+03  0.00000000000E+00 0. -1.
         21   -1    0    0  504  502 -0.00000000000E+00 -0.00000000000E+00 -0.20957784005E+02  0.20957784005E+02  0.00000000000E+00 0.  1.
         21    1    1    2  503  502 -0.56653508761E+01 -0.19538582005E+02  0.23350196625E+03  0.23438647706E+03  0.00000000000E+00 0. -1.
         21    1    1    2  504  501  0.56653508761E+01  0.19538582005E+02 -0.15472368422E+02  0.25558688775E+02  0.00000000000E+00 0.  1.
<mgrwt>
<rscale>  2 0.20343362E+02</rscale>
<asrwt>0</asrwt>
<pdfrwt beam="1">  1       21 0.36767288E-01 0.20343362E+02</pdfrwt>
<pdfrwt beam="2">  1       21 0.32242746E-02 0.20343362E+02</pdfrwt>
<totfact> 0.33714696E+06</totfact>
</mgrwt>
</event>
<event>
 4    1  0.4447136E+006  0.3230290E+02  0.7546771E-02  0.1573945E+00
         21   -1    0    0  503  501  0.00000000000E+00  0.00000000000E+00  0.40126036201E+02  0.40126036201E+02  0.00000000000E+00 0. -1.
         21   -1    0    0  501  502 -0.00000000000E+00 -0.00000000000E+00 -0.60003282243E+03  0.60003282243E+03  0.00000000000E+00 0. -1.
         21    1    1    2  503  504  0.71743061330E+01 -0.31496132726E+02  0.33113206830E+02  0.46259718025E+02  0.00000000000E+00 0. -1.
         21    1    1    2  504  502 -0.71743061330E+01  0.31496132726E+02 -0.59301999306E+03  0.59389914060E+03  0.00000000000E+00 0. -1.
<mgrwt>
<rscale>  2 0.32302895E+02</rscale>
<asrwt>0</asrwt>
<pdfrwt beam="1">  1       21 0.61732360E-02 0.32302895E+02</pdfrwt>
<pdfrwt beam="2">  1       21 0.92312747E-01 0.32302895E+02</pdfrwt>
<totfact> 0.19612021E+05</totfact>
</mgrwt>
</event>
<event>
 4    1  0.4447136E+006  0.3353744E+02  0.7546771E-02  0.1561986E+00
         21   -1    0    0  503  501  0.00000000000E+00  0.00000000000E+00  0.78918068389E+02  0.78918068389E+02  0.00000000000E+00 0.  1.
         21   -1    0    0  501  502 -0.00000000000E+00 -0.00000000000E+00 -0.11884281272E+03  0.11884281272E+03  0.00000000000E+00 0. -1.
         21    1    1    2  503  504 -0.29735336466E+02 -0.15510316855E+02  0.72799643769E+02  0.80153280011E+02  0.00000000000E+00 0.  1.
         21    1    1    2  504  502  0.29735336466E+02  0.15510316855E+02 -0.11272438810E+03  0.11760760110E+03  0.00000000000E+00 0. -1.
<mgrwt>
<rscale>  2 0.33537444E+02</rscale>
<asrwt>0</asrwt>
<pdfrwt beam="1">  1       21 0.12141241E-01 0.33537444E+02</pdfrwt>
<pdfrwt beam="2">  1       21 0.18283510E-01 0.33537444E+02</pdfrwt>
<totfact> 0.14668697E+06</totfact>
</mgrwt>
</event>
<event>
 4    1  0.4447136E+006  0.3251718E+02  0.7546771E-02  0.1571823E+00
         21   -1    0    0  504  501  0.00000000000E+00  0.00000000000E+00  0.53366236848E+02  0.53366236848E+02  0.00000000000E+00 0.  1.
         21   -1    0    0  503  502 -0.00000000000E+00 -0.00000000000E+00 -0.23747869889E+02  0.23747869889E+02  0.00000000000E+00 0.  1.
         21    1    1    2  503  501 -0.25425244658E+02  0.20271257058E+02 -0.88483921645E+00  0.32529215624E+02  0.00000000000E+00 0.  1.
         21    1    1    2  504  502  0.25425244658E+02 -0.20271257058E+02  0.30503206175E+02  0.44584891114E+02  0.00000000000E+00 0.  1.
<mgrwt>
<rscale>  2 0.32517179E+02</rscale>
<asrwt>0</asrwt>
<pdfrwt beam="1">  1       21 0.82101903E-02 0.32517179E+02</pdfrwt>
<pdfrwt beam="2">  1       21 0.36535184E-02 0.32517179E+02</pdfrwt>
<totfact> 0.40931296E+07</totfact>
</mgrwt>
</event>
<event>
 4    1  0.4447136E+006  0.3066074E+02  0.7546771E-02  0.1590898E+00
         21   -1    0    0  502  501  0.00000000000E+00  0.00000000000E+00  0.34862333193E+01  0.34862333193E+01  0.00000000000E+00 0. -1.
         21   -1    0    0  504  502 -0.00000000000E+00 -0.00000000000E+00 -0.82769476597E+03  0.82769476597E+03  0.00000000000E+00 0. -1.
         21    1    1    2  503  501  0.27696427450E+02 -0.13152532290E+02 -0.70861876998E+02  0.77210665137E+02  0.00000000000E+00 0. -1.
         21    1    1    2  504  503 -0.27696427450E+02  0.13152532290E+02 -0.75334665565E+03  0.75397033415E+03  0.00000000000E+00 0. -1.
<mgrwt>
<rscale>  2 0.30660744E+02</rscale>
<asrwt>0</asrwt>
<pdfrwt beam="1">  1       21 0.53634417E-03 0.30660744E+02</pdfrwt>
<pdfrwt beam="2">  1       21 0.12733752E+00 0.30660744E+02</pdfrwt>
<totfact> 0.41890057E+06</totfact>
</mgrwt>
</event>
<event>
 4    1  0.4447136E+006  0.2271004E+02  0.7546771E-02  0.1696254E+00
         21   -1    0    0  502  501  0.00000000000E+00  0.00000000000E+00  0.20813350117E+01  0.20813350117E+01  0.00000000000E+00 0.  1.
         21   -1    0    0  503  502 -0.00000000000E+00 -0.00000000000E+00 -0.63184920493E+03  0.63184920493E+03  0.00000000000E+00 0.  1.
         21    1    1    2  503  504  0.22091034567E+02 -0.52661133912E+01 -0.56199992783E+03  0.56245858926E+03  0.00000000000E+00 0.  1.
         21    1    1    2  504  501 -0.22091034567E+02  0.52661133912E+01 -0.67767942091E+02  0.71471950679E+02  0.00000000000E+00 0.  1.
<mgrwt>
<rscale>  2 0.22710037E+02</rscale>
<asrwt>0</asrwt>
<pdfrwt beam="1">  1       21 0.32020524E-03 0.22710037E+02</pdfrwt>
<pdfrwt beam="2">  1       21 0.97207615E-01 0.22710037E+02</pdfrwt>
<totfact> 0.15773567E+07</totfact>
</mgrwt>
</event>
<event>
 4    1  0.4447136E+006  0.2941433E+02  0.7546771E-02  0.1604654E+00
         21   -1    0    0  502  501  0.00000000000E+00  0.00000000000E+00  0.10528567767E+03  0.10528567767E+03  0.00000000000E+00 0.  1.
         21   -1    0    0  503  502 -0.00000000000E+00 -0.00000000000E+00 -0.38230664163E+02  0.38230664163E+02  0.00000000000E+00 0.  1.
         21    1    1    2  503  504 -0.26154425367E+02  0.13459157297E+02 -0.30052432069E+02  0.42051772313E+02  0.00000000000E+00 0.  1.
         21    1    1    2  504  501  0.26154425367E+02 -0.13459157297E+02  0.97107445580E+02  0.10146456952E+03  0.00000000000E+00 0.  1.
<mgrwt>
<rscale>  2 0.29414331E+02</rscale>
<asrwt>0</asrwt>
<pdfrwt beam="1">  1       21 0.16197796E-01 0.29414331E+02</pdfrwt>
<pdfrwt beam="2">  1       21 0.58816407E-02 0.29414331E+02</pdfrwt>
<totfact> 0.59396173E+06</totfact>
</mgrwt>
</event>
<event>
 4    1  0.4447136E+006  0.3143692E+02  0.7546771E-02  0.1582728E+00
         21   -1    0    0  504  501  0.00000000000E+00  0.00000000000E+00  0.54479152828E+02  0.54479152828E+02  0.00000000000E+00 0.  1.
         21   -1    0    0  503  502 -0.00000000000E+00 -0.00000000000E+00 -0.25770009618E+02  0.25770009618E+02  0.00000000000E+00 0. -1.
         21    1    1    2  503  501  0.11052805446E+02  0.29429834203E+02 -0.74778160018E+01  0.32314043102E+02  0.00000000000E+00 0. -1.
         21    1    1    2  504  502 -0.11052805446E+02 -0.29429834203E+02  0.36186959212E+02  0.47935119344E+02  0.00000000000E+00 0.  1.
<mgrwt>
<rscale>  2 0.31436915E+02</rscale>
<asrwt>0</asrwt>
<pdfrwt beam="1">  1       21 0.83814081E-02 0.31436915E+02</pdfrwt>
<pdfrwt beam="2">  1       21 0.39646169E-02 0.31436915E+02</pdfrwt>
<totfact> 0.34493236E+07</totfact>
</mgrwt>
</event>
<event>
 4    1  0.4447136E+006  0.2806766E+02  0.7546771E-02  0.1620486E+00
         21   -1    0    0  502  501  0.00000000000E+00  0.00000000000E+00  0.11793735288E+03  0.11793735288E+03  0.00000000000E+00 0. -1.
         21   -1    0    0  503  502 -0.00000000000E+00 -0.00000000000E+00 -0.12520749441E+03  0.12520749441E+03  0.00000000000E+00 0.  1.
         21    1    1    2  503  504  0.23084185005E+02 -0.15966022375E+02 -0.12192013227E+03  0.12510920078E+03  0.00000000000E+00 0.  1.
         21    1    1    2  504  501 -0.23084185005E+02  0.15966022375E+02  0.11464999074E+03  0.11803564650E+03  0.00000000000E+00 0. -1.
<mgrwt>
<rscale>  2 0.28067659E+02</rscale>
<asrwt>0</asrwt>
<pdfrwt beam="1">  1       21 0.18144208E-01 0.28067659E+02</pdfrwt>
<pdfrwt beam="2">  1       21 0.19262691E-01 0.28067659E+02</pdfrwt>
<totfact> 0.66170085E+05</totfact>
</mgrwt>
</event>
<event>
 4    1  0.4447136E+006  0.2050780E+02  0.7546771E-02  0.1735414E+00
         21   -1    0    0  503  501  0.00000000000E+00  0.00000000000E+00  0.47770393682E+03  0.47770393682E+03  0.00000000000E+00 0. -1.
         21   -1    0    0  501  502 -0.00000000000E+00 -0.00000000000E+00 -0.54373058026E+01  0.54373058026E+01  0.00000000000E+00 0. -1.
         21    1    1    2  503  504 -0.11630373105E+02  0.16890957586E+02  0.45728350415E+03  0.45774313014E+03  0.00000000000E+00 0. -1.
         21    1    1    2  504  502  0.11630373105E+02 -0.16890957586E+02  0.14983126868E+02  0.25398112479E+02  0.00000000000E+00 0. -1.
<mgrwt>
<rscale>  2 0.20507804E+02</rscale>
<asrwt>0</asrwt>
<pdfrwt beam="1">  1       21 0.73492881E-01 0.20507804E+02</pdfrwt>
<pdfrwt beam="2">  1       21 0.83650896E-03 0.20507804E+02</pdfrwt>
<totfact> 0.67972541E+06</totfact>
</mgrwt>
</event>
<event>
 4    1  0.4447136E+006  0.2393224E+02  0.7546771E-02  0.1676830E+00
         21   -1    0    0  503  501  0.00000000000E+00  0.00000000000E+00  0.57539167898E+02  0.57539167898E+02  0.00000000000E+00 0. -1.
         21   -1    0    0  504  502 -0.00000000000E+00 -0.00000000000E+00 -0.12474280278E+03  0.12474280278E+03  0.00000000000E+00 0.  1.
         21    1    1    2  503  502 -0.10835875189E+02  0.21338597418E+02 -0.12103081560E+03  0.12337426902E+03  0.00000000000E+00 0.  1.
         21    1    1    2  504  501  0.10835875189E+02 -0.21338597418E+02  0.53827180718E+02  0.58907701661E+02  0.00000000000E+00 0. -1.
<mgrwt>
<rscale>  2 0.23932236E+02</rscale>
<asrwt>0</asrwt>
<pdfrwt beam="1">  1       21 0.88521797E-02 0.23932236E+02</pdfrwt>
<pdfrwt beam="2">  1       21 0.19191200E-01 0.23932236E+02</pdfrwt>
<totfact> 0.22084529E+06</totfact>
</mgrwt>
</event>
<event>
 4    1  0.4447136E+006  0.2796076E+02  0.7546771E-02  0.1621789E+00
         21   -1    0    0  502  501  0.00000000000E+00  0.00000000000E+00  0.43986415759E+02  0.43986415759E+02  0.00000000000E+00 0. -1.
         21   -1    0    0  503  502 -0.00000000000E+00 -0.00000000000E+00 -0.36016275883E+02  0.36016275883E+02  0.00000000000E+00 0. -1.
         21    1    1    2  503  504  0.14612598707E+02 -0.23838537660E+02 -0.24483626966E+02  0.37165197539E+02  0.00000000000E+00 0. -1.
         21    1    1    2  504  501 -0.14612598707E+02  0.23838537660E+02  0.32453766842E+02  0.42837494103E+02  0.00000000000E+00 0. -1.
<mgrwt>
<rscale>  2 0.27960757E+02</rscale>
<asrwt>0</asrwt>
<pdfrwt beam="1">  1       21 0.67671409E-02 0.27960757E+02</pdfrwt>
<pdfrwt beam="2">  1       21 0.55409655E-02 0.27960757E+02</pdfrwt>
<totfact> 0.27978748E+07</totfact>
</mgrwt>
</event>
<event>
 4    1  0.4447136E+006  0.2209794E+02  0.7546771E-02  0.1706564E+00
         21   -1    0    0  502  501  0.00000000000E+00  0.00000000000E+00  0.13536003760E+03  0.13536003760E+03  0.00000000000E+00 0.  1.
         21   -1    0    0  503  502 -0.00000000000E+00 -0.00000000000E+00 -0.37576020468E+01  0.37576020468E+01  0.00000000000E+00 0.  1.
         21    1    1    2  503  504 -0.19844244266E+02 -0.97223937673E+01  0.79701016162E+02  0.82707744186E+02  0.00000000000E+00 0.  1.
         21    1    1    2  504  501  0.19844244266E+02  0.97223937673E+01  0.51901419387E+02  0.56409895457E+02  0.00000000000E+00 0.  1.
<mgrwt>
<rscale>  2 0.22097940E+02</rscale>
<asrwt>0</asrwt>
<pdfrwt beam="1">  1       21 0.20824617E-01 0.22097940E+02</pdfrwt>
<pdfrwt beam="2">  1       21 0.57809273E-03 0.22097940E+02</pdfrwt>
<totfact> 0.12844871E+08</totfact>
</mgrwt>
</event>
<event>
 4    1  0.4447136E+006  0.2928440E+02  0.7546771E-02  0.1606136E+00
         21   -1    0    0  503  501  0.00000000000E+00  0.00000000000E+00  0.25078170896E+02  0.25078170896E+02  0.00000000000E+00 0. -1.
         21   -1    0    0  504  502 -0.00000000000E+00 -0.00000000000E+00 -0.45903118236E+03  0.45903118236E+03  0.00000000000E+00 0. -1.
         21    1    1    2  503  502  0.34075913674E+01  0.29085464743E+02  0.15887607302E+02  0.33316542498E+02  0.00000000000E+00 0. -1.
         21    1    1    2  504  501 -0.34075913674E+01 -0.29085464743E+02 -0.44984061877E+03  0.45079281076E+03  0.00000000000E+00 0. -1.
<mgrwt>
<rscale>  2 0.29284398E+02</rscale>
<asrwt>0</asrwt>
<pdfrwt beam="1">  1       21 0.38581803E-02 0.29284398E+02</pdfrwt>
<pdfrwt beam="2">  1       21 0.70620179E-01 0.29284398E+02</pdfrwt>
<totfact> 0.73643721E+05</totfact>
</mgrwt>
</event>
<event>
 4    1  0.4447136E+006  0.2059265E+02  0.7546771E-02  0.1733793E+00
         21   -1    0    0  503  501  0.00000000000E+00  0.00000000000E+00  0.80798814793E+01  0.80798814793E+01  0.00000000000E+00 0.  1.
         21   -1    0    0  504  502 -0.00000000000E+00 -0.00000000000E+00 -0.53844160871E+02  0.53844160871E+02  0.00000000000E+00 0.  1.
         21    1    1    2  503  502  0.81629515448E+01  0.18905641551E+02 -0.17959454382E+02  0.27323964978E+02  0.00000000000E+00 0.  1.
         21    1    1    2  504  501 -0.81629515448E+01 -0.18905641551E+02 -0.27804825009E+02  0.34600077373E+02  0.00000000000E+00 0.  1.
<mgrwt>
<rscale>  2 0.20592646E+02</rscale>
<asrwt>0</asrwt>
<pdfrwt beam="1">  1       21 0.12430587E-02 0.20592646E+02</pdfrwt>
<pdfrwt beam="2">  1       21 0.82837172E-02 0.20592646E+02</pdfrwt>
<totfact> 0.18933108E+08</totfact>
</mgrwt>
</event>
<event>
 4    1  0.4447136E+006  0.2021631E+02  0.7546771E-02  0.1741060E+00
         21   -1    0    0  504  501  0.00000000000E+00  0.00000000000E+00  0.37742552461E+01  0.37742552461E+01  0.00000000000E+00 0.  1.
         21   -1    0    0  503  502 -0.00000000000E+00 -0.00000000000E+00 -0.14576807344E+03  0.14576807344E+03  0.00000000000E+00 0. -1.
         21    1    1    2  503  501 -0.20205947253E+02 -0.64705970095E+00 -0.10891223209E+03  0.11077261977E+03  0.00000000000E+00 0. -1.
         21    1    1    2  504  502  0.20205947253E+02  0.64705970095E+00 -0.33081586097E+02  0.38769708915E+02  0.00000000000E+00 0.  1.
<mgrwt>
<rscale>  2 0.20216305E+02</rscale>
<asrwt>0</asrwt>
<pdfrwt beam="1">  1       21 0.58065470E-03 0.20216305E+02</pdfrwt>
<pdfrwt beam="2">  1       21 0.22425856E-01 0.20216305E+02</pdfrwt>
<totfact> 0.10925649E+08</totfact>
</mgrwt>
</event>
<event>
 4    1  0.4447136E+006  0.3916418E+02  0.7546771E-02  0.1514454E+00
         21   -1    0    0  504  501  0.00000000000E+00  0.00000000000E+00  0.35555956501E+02  0.35555956501E+02  0.00000000000E+00 0. -1.
         21   -1    0    0  503  502 -0.00000000000E+00 -0.00000000000E+00 -0.14927589424E+03  0.14927589424E+03  0.00000000000E+00 0. -1.
         21    1    1    2  503  501 -0.17049834368E+02  0.35258141043E+02 -0.13478662289E+03  0.14036120216E+03  0.00000000000E+00 0. -1.
         21    1    1    2  504  502  0.17049834368E+02 -0.35258141043E+02  0.21066685152E+02  0.44470648579E+02  0.00000000000E+00 0. -1.
<mgrwt>
<rscale>  2 0.39164185E+02</rscale>
<asrwt>0</asrwt>
<pdfrwt beam="1">  1       21 0.54701473E-02 0.39164185E+02</pdfrwt>
<pdfrwt beam="2">  1       21 0.22965521E-01 0.39164185E+02</pdfrwt>
<totfact> 0.37341090E+06</totfact>
</mgrwt>
</event>
<event>
 4    1  0.4447136E+006  0.2525931E+02  0.7546771E-02  0.1657305E+00
         21   -1    0    0  504  501  0.00000000000E+00  0.00000000000E+00  0.39255267667E+03  0.39255267667E+03  0.00000000000E+00 0. -1.
         21   -1    0    0  503  502 -0.00000000000E+00 -0.00000000000E+00 -0.32441949733E+03  0.32441949733E+03  0.00000000000E+00 0.  1.
         21    1    1    2  503  501 -0.25180601084E+02  0.19924710852E+01  0.39165354090E+03  0.39246723266E+03  0.00000000000E+00 0. -1.
         21    1    1    2  504  502  0.25180601084E+02 -0.19924710852E+01 -0.32352036155E+03  0.32450494134E+03  0.00000000000E+00 0.  1.
<mgrwt>
<rscale>  2 0.25259307E+02</rscale>
<asrwt>0</asrwt>
<pdfrwt beam="1">  1       21 0.60392719E-01 0.25259307E+02</pdfrwt>
<pdfrwt beam="2">  1       21 0.49910692E-01 0.25259307E+02</pdfrwt>
<totfact> 0.12258238E+04</totfact>
</mgrwt>
</event>
<event>
 4    1  0.4447136E+006  0.2035517E+02  0.7546771E-02  0.1738356E+00
         21   -1    0    0  503  501  0.00000000000E+00  0.00000000000E+00  0.43772052899E+03  0.43772052899E+03  0.00000000000E+00 0.  1.
         21   -1    0    0  504  502 -0.00000000000E+00 -0.00000000000E+00 -0.18349634214E+02  0.18349634214E+02  0.00000000000E+00 0. -1.
         21    1    1    2  503  502 -0.64074233290E+01 -0.19320397354E+02  0.43176103981E+03  0.43224059079E+03  0.00000000000E+00 0.  1.
         21    1    1    2  504  501  0.64074233290E+01  0.19320397354E+02 -0.12390145033E+02  0.23829572416E+02  0.00000000000E+00 0. -1.
<mgrwt>
<rscale>  2 0.20355167E+02</rscale>
<asrwt>0</asrwt>
<pdfrwt beam="1">  1       21 0.67341612E-01 0.20355167E+02</pdfrwt>
<pdfrwt beam="2">  1       21 0.28230210E-02 0.20355167E+02</pdfrwt>
<totfact> 0.12849046E+06</totfact>
</mgrwt>
</event>
<event>
 4    1  0.4447136E+006  0.2565700E+02  0.7546771E-02  0.1651741E+00
         21   -1    0    0  502  501  0.00000000000E+00  0.00000000000E+00  0.14484779063E+02  0.14484779063E+02  0.00000000000E+00 0. -1.
         21   -1    0    0  504  502 -0.00000000000E+00 -0.00000000000E+00 -0.50967912107E+02  0.50967912107E+02  0.00000000000E+00 0. -1.
         21    1    1    2  503  501 -0.21276748463E+02  0.14338120636E+02 -0.74700637287E+01  0.26722342350E+02  0.00000000000E+00 0. -1.
         21    1    1    2  504  503  0.21276748463E+02 -0.14338120636E+02 -0.29013069315E+02  0.38730348819E+02  0.00000000000E+00 0. -1.
<mgrwt>
<rscale>  2 0.25657002E+02</rscale>
<asrwt>0</asrwt>
<pdfrwt beam="1">  1       21 0.22284275E-02 0.25657002E+02</pdfrwt>
<pdfrwt beam="2">  1       21 0.78412173E-02 0.25657002E+02</pdfrwt>
<totfact> 0.90666247E+07</totfact>
</mgrwt>
</event>
<event>
 4    1  0.4447136E+006  0.5408945E+02  0.7546771E-02  0.1424455E+00
         21   -1    0    0  504  501  0.00000000000E+00  0.00000000000E+00  0.64162080905E+03  0.64162080905E+03  0.00000000000E+00 0. -1.
         21   -1    0    0  503  502 -0.00000000000E+00 -0.00000000000E+00 -0.67111604388E+01  0.67111604388E+01  0.00000000000E+00 0. -1.
         21    1    1    2  503  501  0.15305080344E+02 -0.51878925253E+02  0.50099211096E+03  0.50390352610E+03  0.00000000000E+00 0. -1.
         21    1    1    2  504  502 -0.15305080344E+02  0.51878925253E+02  0.13391753765E+03  0.14442844339E+03  0.00000000000E+00 0. -1.
<mgrwt>
<rscale>  2 0.54089448E+02</rscale>
<asrwt>0</asrwt>
<pdfrwt beam="1">  1       21 0.98710845E-01 0.54089448E+02</pdfrwt>
<pdfrwt beam="2">  1       21 0.10324867E-02 0.54089448E+02</pdfrwt>
<totfact> 0.29074378E+06</totfact>
</mgrwt>
</event>
<event>
 4    1  0.4447136E+006  0.2482992E+02  0.7546771E-02  0.1663457E+00
         21   -1    0    0  504  501  0.00000000000E+00  0.00000000000E+00  0.10535937368E+04  0.10535937368E+04  0.00000000000E+00 0.  1.
         21   -1    0    0  503  502 -0.00000000000E+00 -0.00000000000E+00 -0.60789486762E+00  0.60789486762E+00  0.00000000000E+00 0.  1.
         21    1    1    2  503  501  0.10024169800E+02 -0.22716538534E+02  0.42456629267E+03  0.42529173749E+03  0.00000000000E+00 0.  1.
         21    1    1    2  504  502 -0.10024169800E+02  0.22716538534E+02  0.62841954927E+03  0.62890989419E+03  0.00000000000E+00 0.  1.
<mgrwt>
<rscale>  2 0.24829924E+02</rscale>
<asrwt>0</asrwt>
<pdfrwt beam="1">  1       21 0.16208988E+00 0.24829924E+02</pdfrwt>
<pdfrwt beam="2">  1       21 0.93523131E-04 0.24829924E+02</pdfrwt>
<totfact> 0.29243864E+07</totfact>
</mgrwt>
</event>
<event>
 4    1  0.4447136E+006  0.2081010E+02  0.7546771E-02  0.1729682E+00
         21   -1    0    0  502  501  0.00000000000E+00  0.00000000000E+00  0.27330489985E+02  0.27330489985E+02  0.00000000000E+00 0.  1.
         21   -1    0    0  504  502 -0.00000000000E+00 -0.00000000000E+00 -0.29719658723E+02  0.29719658723E+02  0.00000000000E+00 0.  1.
         21    1    1    2  503  501 -0.12655963791E+02  0.16519286090E+02  0.18295382256E+02  0.27708865807E+02  0.00000000000E+00 0.  1.
         21    1    1    2  504  503  0.12655963791E+02 -0.16519286090E+02 -0.20684550994E+02  0.29341282900E+02  0.00000000000E+00 0.  1.
<mgrwt>
<rscale>  2 0.20810099E+02</rscale>
<asrwt>0</asrwt>
<pdfrwt beam="1">  1       21 0.42046908E-02 0.20810099E+02</pdfrwt>
<pdfrwt beam="2">  1       21 0.45722552E-02 0.20810099E+02</pdfrwt>
<totfact> 0.75658860E+07</totfact>
</mgrwt>
</event>
<event>
 4    1  0.4447136E+006  0.2051326E+02  0.7546771E-02  0.1735310E+00
         21   -1    0    0  502  501  0.00000000000E+00  0.00000000000E+00  0.32265428142E+03  0.32265428142E+03  0.00000000000E+00 0. -1.
         21   -1    0    0  503  502 -0.00000000000E+00 -0.00000000000E+00 -0.34135875905E+01  0.34135875905E+01  0.00000000000E+00 0.  1.
         21    1    1    2  503  504 -0.20156614209E+02  0.38085255894E+01  0.31459778099E+02  0.37556778370E+02  0.00000000000E+00 0.  1.
         21    1    1    2  504  501  0.20156614209E+02 -0.38085255894E+01  0.28778091573E+03  0.28851109064E+03  0.00000000000E+00 0. -1.
<mgrwt>
<rscale>  2 0.20513263E+02</rscale>
<asrwt>0</asrwt>
<pdfrwt beam="1">  1       21 0.49639096E-01 0.20513263E+02</pdfrwt>
<pdfrwt beam="2">  1       21 0.52516758E-03 0.20513263E+02</pdfrwt>
<totfact> 0.29576556E+07</totfact>
</mgrwt>
</event>
<event>
 4    1  0.4447136E+006  0.2030350E+02  0.7546771E-02  0.1739359E+00
         21   -1    0    0  503  501  0.00000000000E+00  0.00000000000E+00  0.14641328804E+03  0.14641328804E+03  0.00000000000E+00 0.  1.
         21   -1    0    0  504  502 -0.00000000000E+00 -0.00000000000E+00 -0.80876283223E+01  0.80876283223E+01  0.00000000000E+00 0.  1.
         21    1    1    2  503  502  0.20681343704E+01  0.20197894551E+02  0.67919447196E+01  0.21409405343E+02  0.00000000000E+00 0.  1.
         21    1    1    2  504  501 -0.20681343704E+01 -0.20197894551E+02  0.13153371500E+03  0.13309151102E+03  0.00000000000E+00 0.  1.
<mgrwt>
<rscale>  2 0.20303500E+02</rscale>
<asrwt>0</asrwt>
<pdfrwt beam="1">  1       21 0.22525119E-01 0.20303500E+02</pdfrwt>
<pdfrwt beam="2">  1       21 0.12442506E-02 0.20303500E+02</pdfrwt>
<totfact> 0.34903385E+07</totfact>
</mgrwt>
</event>
<event>
 4    1  0.4447136E+006  0.2577340E+02  0.7546771E-02  0.1650135E+00
         21   -1    0    0  503  501  0.00000000000E+00  0.00000000000E+00  0.45978261217E+01  0.45978261217E+01  0.00000000000E+00 0.  1.
         21   -1    0    0  504  502 -0.00000000000E+00 -0.00000000000E+00 -0.11851636572E+04  0.11851636572E+04  0.00000000000E+00 0.  1.
         21    1    1    2  503  502 -0.23980120477E+02 -0.94457408951E+01 -0.11477269616E+04  0.11480163094E+04  0.00000000000E+00 0.  1.
         21    1    1    2  504  501  0.23980120477E+02  0.94457408951E+01 -0.32838869456E+02  0.41745173928E+02  0.00000000000E+00 0.  1.
<mgrwt>
<rscale>  2 0.25773401E+02</rscale>
<asrwt>0</asrwt>
<pdfrwt beam="1">  1       21 0.70735735E-03 0.25773401E+02</pdfrwt>
<pdfrwt beam="2">  1       21 0.18233300E+00 0.25773401E+02</pdfrwt>
<totfact> 0.11499841E+06</totfact>
</mgrwt>
</event>
<event>
 4    1  0.4447136E+006  0.2250699E+02  0.7546771E-02  0.1699629E+00
         21   -1    0    0  504  501  0.00000000000E+00  0.00000000000E+00  0.10536808885E+02  0.10536808885E+02  0.00000000000E+00 0.  1.
         21   -1    0    0  501  502 -0.00000000000E+00 -0.00000000000E+00 -0.12652757484E+03  0.12652757484E+03  0.00000000000E+00 0.  1.
         21    1    1    2  503  502 -0.21439268734E+02  0.68499849332E+01 -0.11195932585E+03  0.11419919082E+03  0.00000000000E+00 0.  1.
         21    1    1    2  504  503  0.21439268734E+02 -0.68499849332E+01 -0.40314401014E+01  0.22865192908E+02  0.00000000000E+00 0.  1.
<mgrwt>
<rscale>  2 0.22506989E+02</rscale>
<asrwt>0</asrwt>
<pdfrwt beam="1">  1       21 0.16210476E-02 0.22506989E+02</pdfrwt>
<pdfrwt beam="2">  1       21 0.19465780E-01 0.22506989E+02</pdfrwt>
<totfact> 0.30937518E+07</totfact>
</mgrwt>
</event>
<event>
 4    1  0.4447136E+006  0.4537546E+02  0.7546771E-02  0.1472011E+00
         21   -1    0    0  502  501  0.00000000000E+00  0.00000000000E+00  0.26551166756E+02  0.26551166756E+02  0.00000000000E+00 0.  1.
         21   -1    0    0  503  502 -0.00000000000E+00 -0.00000000000E+00 -0.35633806664E+03  0.35633806664E+03  0.00000000000E+00 0.  1.
         21    1    1    2  503  504  0.45142231283E+02 -0.45947132876E+01 -0.33423065293E+03  0.33729669698E+03  0.00000000000E+00 0.  1.
         21    1    1    2  504  501 -0.45142231283E+02  0.45947132876E+01  0.44437530497E+01  0.45592536413E+02  0.00000000000E+00 0.  1.
<mgrwt>
<rscale>  2 0.45375461E+02</rscale>
<asrwt>0</asrwt>
<pdfrwt beam="1">  1       21 0.40847947E-02 0.45375461E+02</pdfrwt>
<pdfrwt beam="2">  1       21 0.54821243E-01 0.45375461E+02</pdfrwt>
<totfact> 0.11559604E+06</totfact>
</mgrwt>
</event>
<event>
 4    1  0.4447136E+006  0.2552507E+02  0.7546771E-02  0.1653573E+00
         21   -1    0    0  503  501  0.00000000000E+00  0.00000000000E+00  0.71195766662E+01  0.71195766662E+01  0.00000000000E+00 0.  1.
         21   -1    0    0  504  502 -0.00000000000E+00 -0.00000000000E+00 -0.29403802100E+03  0.29403802100E+03  0.00000000000E+00 0. -1.
         21    1    1    2  503  502  0.11689590499E+02  0.22691024134E+02 -0.18490267742E+02  0.31518551735E+02  0.00000000000E+00 0.  1.
         21    1    1    2  504  501 -0.11689590499E+02 -0.22691024134E+02 -0.26842817659E+03  0.26963904593E+03  0.00000000000E+00 0. -1.
<mgrwt>
<rscale>  2 0.25525068E+02</rscale>
<asrwt>0</asrwt>
<pdfrwt beam="1">  1       21 0.10953198E-02 0.25525068E+02</pdfrwt>
<pdfrwt beam="2">  1       21 0.45236605E-01 0.25525068E+02</pdfrwt>
<totfact> 0.12363245E+07</totfact>
</mgrwt>
</event>
<event>
 4    1  0.4447136E+006  0.4218917E+02  0.7546771E-02  0.1492693E+00
         21   -1    0    0  504  501  0.00000000000E+00  0.00000000000E+00  0.22168139370E+02  0.22168139370E+02  0.00000000000E+00 0. -1.
         21   -1    0    0  503  502 -0.00000000000E+00 -0.00000000000E+00 -0.70246104459E+03  0.70246104459E+03  0.00000000000E+00 0.  1.
         21    1    1    2  503  501  0.42167641137E+02 -0.13476677992E+01 -0.68112642572E+03  0.68243177973E+03  0.00000000000E+00 0.  1.
         21    1    1    2  504  502 -0.42167641137E+02  0.13476677992E+01  0.83352050080E+00  0.42197404232E+02  0.00000000000E+00 0. -1.
<mgrwt>
<rscale>  2 0.42189171E+02</rscale>
<asrwt>0</asrwt>
<pdfrwt beam="1">  1       21 0.34104831E-02 0.42189171E+02</pdfrwt>
<pdfrwt beam="2">  1       21 0.10807093E+00 0.42189171E+02</pdfrwt>
<totfact> 0.35967385E+05</totfact>
</mgrwt>
</event>
<event>
 4    1  0.4447136E+006  0.2344303E+02  0.7546771E-02  0.1684428E+00
         21   -1    0    0  504  501  0.00000000000E+00  0.00000000000E+00  0.10411073199E+04  0.10411073199E+04  0.00000000000E+00 0. -1.
         21   -1    0    0  503  502 -0.00000000000E+00 -0.00000000000E+00 -0.79652753909E+01  0.79652753909E+01  0.00000000000E+00 0.  1.
         21    1    1    2  503  501  0.30410378064E+01 -0.23244946248E+02  0.10234283206E+04  0.10236967826E+04  0.00000000000E+00 0. -1.
         21    1    1    2  504  502 -0.30410378064E+01  0.23244946248E+02  0.97137240004E+01  0.25375812715E+02  0.00000000000E+00 0.  1.
<mgrwt>
<rscale>  2 0.23443025E+02</rscale>
<asrwt>0</asrwt>
<pdfrwt beam="1">  1       21 0.16017025E+00 0.23443025E+02</pdfrwt>
<pdfrwt beam="2">  1       21 0.12254278E-02 0.23443025E+02</pdfrwt>
<totfact> 0.69000726E+05</totfact>
</mgrwt>
</event>
<event>
 4    1  0.4447136E+006  0.2382817E+02  0.7546771E-02  0.1678427E+00
         21   -1    0    0  503  501  0.00000000000E+00  0.00000000000E+00  0.24831815009E+01  0.24831815009E+01  0.00000000000E+00 0.  1.
         21   -1    0    0  504  502 -0.00000000000E+00 -0.00000000000E+00 -0.57980808456E+03  0.57980808456E+03  0.00000000000E+00 0. -1.
         21    1    1    2  503  502 -0.14148321849E+02 -0.19173072962E+02 -0.51524106408E+03  0.51579175629E+03  0.00000000000E+00 0. -1.
         21    1    1    2  504  501  0.14148321849E+02  0.19173072962E+02 -0.62083838981E+02  0.66499509777E+02  0.00000000000E+00 0.  1.
<mgrwt>
<rscale>  2 0.23828171E+02</rscale>
<asrwt>0</asrwt>
<pdfrwt beam="1">  1       21 0.38202771E-03 0.23828171E+02</pdfrwt>
<pdfrwt beam="2">  1       21 0.89201294E-01 0.23828171E+02</pdfrwt>
<totfact> 0.14792798E+07</totfact>
</mgrwt>
</event>
<event>
 4    1  0.4447136E+006  0.2381721E+02  0.7546771E-02  0.1678596E+00
         21   -1    0    0  503  501  0.00000000000E+00  0.00000000000E+00  0.75385922021E+01  0.75385922021E+01  0.00000000000E+00 0.  1.
         21   -1    0    0  504  502 -0.00000000000E+00 -0.00000000000E+00 -0.11036976739E+03  0.11036976739E+03  0.00000000000E+00 0. -1.
         21    1    1    2  503  502  0.23812580251E+02  0.46962377693E+00 -0.84672457997E+02  0.87958425792E+02  0.00000000000E+00 0. -1.
         21    1    1    2  504  501 -0.23812580251E+02 -0.46962377693E+00 -0.18158717196E+02  0.29949933805E+02  0.00000000000E+00 0.  1.
<mgrwt>
<rscale>  2 0.23817211E+02</rscale>
<asrwt>0</asrwt>
<pdfrwt beam="1">  1       21 0.11597835E-02 0.23817211E+02</pdfrwt>
<pdfrwt beam="2">  1       21 0.16979963E-01 0.23817211E+02</pdfrwt>
<totfact> 0.66035368E+07</totfact>
</mgrwt>
</event>
<event>
 4    1  0.4447136E+006  0.2437712E+02  0.7546771E-02  0.1670113E+00
         21   -1    0    0  502  501  0.00000000000E+00  0.00000000000E+00  0.10326825901E+03  0.10326825901E+03  0.00000000000E+00 0.  1.
         21   -1    0    0  503  502 -0.00000000000E+00 -0.00000000000E+00 -0.16600508832E+02  0.16600508832E+02  0.00000000000E+00 0. -1.
         21    1    1    2  503  504 -0.64119128954E+01  0.23518746137E+02 -0.51115612267E+01  0.24907270124E+02  0.00000000000E+00 0. -1.
         21    1    1    2  504  501  0.64119128954E+01 -0.23518746137E+02  0.91779311408E+02  0.94961497721E+02  0.00000000000E+00 0.  1.
<mgrwt>
<rscale>  2 0.24377121E+02</rscale>
<asrwt>0</asrwt>
<pdfrwt beam="1">  1       21 0.15887424E-01 0.24377121E+02</pdfrwt>
<pdfrwt beam="2">  1       21 0.25539245E-02 0.24377121E+02</pdfrwt>
<totfact> 0.22254234E+07</totfact>
</mgrwt>
</event>
<event>
 4    1  0.4447136E+006  0.2506019E+02  0.7546771E-02  0.1660139E+00
         21   -1    0    0  503  501  0.00000000000E+00  0.00000000000E+00  0.89931189847E+02  0.89931189847E+02  0.00000000000E+00 0. -1.
         21   -1    0    0  501  502 -0.00000000000E+00 -0.00000000000E+00 -0.15643878313E+02  0.15643878313E+02  0.00000000000E+00 0.  1.
         21    1    1    2  503  504  0.11712216214E+02 -0.22154840082E+02  0.76420229115E+02  0.80424277216E+02  0.00000000000E+00 0. -1.
         21    1    1    2  504  502 -0.11712216214E+02  0.22154840082E+02 -0.21329175804E+01  0.25150790944E+02  0.00000000000E+00 0.  1.
<mgrwt>
<rscale>  2 0.25060187E+02</rscale>
<asrwt>0</asrwt>
<pdfrwt beam="1">  1       21 0.13835567E-01 0.25060187E+02</pdfrwt>
<pdfrwt beam="2">  1       21 0.24067506E-02 0.25060187E+02</pdfrwt>
<totfact> 0.31074729E+07</totfact>
</mgrwt>
</event>
<event>
 4    1  0.4447136E+006  0.2217784E+02  0.7546771E-02  0.1705194E+00
         21   -1    0    0  504  501  0.00000000000E+00  0.00000000000E+00  0.17970329399E+02  0.17970329399E+02  0.00000000000E+00 0. -1.
         21   -1    0    0  501  502 -0.00000000000E+00 -0.00000000000E+00 -0.47705986006E+02  0.47705986006E+02  0.00000000000E+00 0.  1.
         21    1    1    2  503  502  0.36585759833E+01 -0.21873991615E+02 -0.36307579982E+02  0.42545235357E+02  0.00000000000E+00 0.  1.
         21    1    1    2  504  503 -0.36585759833E+01  0.21873991615E+02  0.65719233750E+01  0.23131080049E+02  0.00000000000E+00 0. -1.
<mgrwt>
<rscale>  2 0.22177842E+02</rscale>
<asrwt>0</asrwt>
<pdfrwt beam="1">  1       21 0.27646661E-02 0.22177842E+02</pdfrwt>
<pdfrwt beam="2">  1       21 0.73393824E-02 0.22177842E+02</pdfrwt>
<totfact> 0.69525917E+07</totfact>
</mgrwt>
</event>
<event>
 4    1  0.4447136E+006  0.2384331E+02  0.7546771E-02  0.1678194E+00
         21   -1    0    0  502  501  0.00000000000E+00  0.00000000000E+00  0.79420363921E+02  0.79420363921E+02  0.00000000000E+00 0.  1.
         21   -1    0    0  504  502 -0.00000000000E+00 -0.00000000000E+00 -0.41086009317E+02  0.41086009317E+02  0.00000000000E+00 0. -1.
         21    1    1    2  503  501  0.15066091243E+02 -0.18480164031E+02  0.73920592615E+02  0.77670828375E+02  0.00000000000E+00 0.  1.
         21    1    1    2  504  503 -0.15066091243E+02  0.18480164031E+02 -0.35586238011E+02  0.42835544863E+02  0.00000000000E+00 0. -1.
<mgrwt>
<rscale>  2 0.23843313E+02</rscale>
<asrwt>0</asrwt>
<pdfrwt beam="1">  1       21 0.12218518E-01 0.23843313E+02</pdfrwt>
<pdfrwt beam="2">  1       21 0.63209245E-02 0.23843313E+02</pdfrwt>
<totfact> 0.82612639E+06</totfact>
</mgrwt>
</event>
<event>
 4    1  0.4447136E+006  0.3028234E+02  0.7546771E-02  0.1594989E+00
         21   -1    0    0  504  501  0.00000000000E+00  0.00000000000E+00  0.44586048207E+03  0.44586048207E+03  0.00000000000E+00 0. -1.
         21   -1    0    0  501  502 -0.00000000000E+00 -0.00000000000E+00 -0.41535039011E+01  0.41535039011E+01  0.00000000000E+00 0.  1.
         21    1    1    2  503  502 -0.27627109717E+02  0.12400117145E+02  0.60984865591E+02  0.68089455334E+02  0.00000000000E+00 0.  1.
         21    1    1    2  504  503  0.27627109717E+02 -0.12400117145E+02  0.38072211257E+03  0.38192453063E+03  0.00000000000E+00 0. -1.
<mgrwt>
<rscale>  2 0.30282340E+02</rscale>
<asrwt>0</asrwt>
<pdfrwt beam="1">  1       21 0.68593882E-01 0.30282340E+02</pdfrwt>
<pdfrwt beam="2">  1       21 0.63900095E-03 0.30282340E+02</pdfrwt>
<totfact> 0.12474561E+07</totfact>
</mgrwt>
</event>
<event>
 4    1  0.4447136E+006  0.3236666E+02  0.7546771E-02  0.1573311E+00
         21   -1    0    0  503  501  0.00000000000E+00  0.00000000000E+00  0.28839173833E+03  0.28839173833E+03  0.00000000000E+00 0.  1.
         21   -1    0    0  504  502 -0.00000000000E+00 -0.00000000000E+00 -0.89282434595E+02  0.89282434595E+02  0.00000000000E+00 0. -1.
         21    1    1    2  503  502  0.66539005635E+01 -0.31675326572E+02 -0.85401014512E+02  0.91328713917E+02  0.00000000000E+00 0. -1.
         21    1    1    2  504  501 -0.66539005635E+01  0.31675326572E+02  0.28451031825E+03  0.28634545901E+03  0.00000000000E+00 0.  1.
<mgrwt>
<rscale>  2 0.32366660E+02</rscale>
<asrwt>0</asrwt>
<pdfrwt beam="1">  1       21 0.44367959E-01 0.32366660E+02</pdfrwt>
<pdfrwt beam="2">  1       21 0.13735759E-01 0.32366660E+02</pdfrwt>
<totfact> 0.23228165E+05</totfact>
</mgrwt>
</event>
<event>
 4    1  0.4447136E+006  0.2131688E+02  0.7546771E-02  0.1720341E+00
         21   -1    0    0  502  501  0.00000000000E+00  0.00000000000E+00  0.19365423294E+03  0.19365423294E+03  0.00000000000E+00 0.  1.
         21   -1    0    0  504  502 -0.00000000000E+00 -0.00000000000E+00 -0.24007777257E+01  0.24007777257E+01  0.00000000000E+00 0.  1.
         21    1    1    2  503  501  0.21315272802E+02  0.26203638631E+00  0.11036632717E+03  0.11240611946E+03  0.00000000000E+00 0.  1.
         21    1    1    2  504  503 -0.21315272802E+02 -0.26203638631E+00  0.80887128037E+02  0.83648891205E+02  0.00000000000E+00 0.  1.
<mgrwt>
<rscale>  2 0.21316883E+02</rscale>
<asrwt>0</asrwt>
<pdfrwt beam="1">  1       21 0.29792947E-01 0.21316883E+02</pdfrwt>
<pdfrwt beam="2">  1       21 0.36935057E-03 0.21316883E+02</pdfrwt>
<totfact> 0.12986060E+08</totfact>
</mgrwt>
</event>
<event>
 4    1  0.4447136E+006  0.4921301E+02  0.7546771E-02  0.1449633E+00
         21   -1    0    0  503  501  0.00000000000E+00  0.00000000000E+00  0.44750863259E+02  0.44750863259E+02  0.00000000000E+00 0.  1.
         21   -1    0    0  504  502 -0.00000000000E+00 -0.00000000000E+00 -0.15126153795E+03  0.15126153795E+03  0.00000000000E+00 0.  1.
         21    1    1    2  503  502 -0.73084358999E+01 -0.48667306217E+02 -0.13179546893E+03  0.14068392076E+03  0.00000000000E+00 0.  1.
         21    1    1    2  504  501  0.73084358999E+01  0.48667306217E+02  0.25284794236E+02  0.55328480453E+02  0.00000000000E+00 0.  1.
<mgrwt>
<rscale>  2 0.49213006E+02</rscale>
<asrwt>0</asrwt>
<pdfrwt beam="1">  1       21 0.68847482E-02 0.49213006E+02</pdfrwt>
<pdfrwt beam="2">  1       21 0.23271006E-01 0.49213006E+02</pdfrwt>
<totfact> 0.25473777E+06</totfact>
</mgrwt>
</event>
<event>
 4    1  0.4447136E+006  0.2902501E+02  0.7546771E-02  0.1609123E+00
         21   -1    0    0  503  501  0.00000000000E+00  0.00000000000E+00  0.41586278318E+03  0.41586278318E+03  0.00000000000E+00 0. -1.
         21   -1    0    0  504  502 -0.00000000000E+00 -0.00000000000E+00 -0.26481820323E+01  0.26481820323E+01  0.00000000000E+00 0. -1.
         21    1    1    2  503  502 -0.22590492133E+02  0.18224191218E+02  0.10516145685E+03  0.10909346217E+03  0.00000000000E+00 0. -1.
         21    1    1    2  504  501  0.22590492133E+02 -0.18224191218E+02  0.30805314429E+03  0.30941750304E+03  0.00000000000E+00 0. -1.
<mgrwt>
<rscale>  2 0.29025015E+02</rscale>
<asrwt>0</asrwt>
<pdfrwt beam="1">  1       21 0.63978838E-01 0.29025015E+02</pdfrwt>
<pdfrwt beam="2">  1       21 0.40741295E-03 0.29025015E+02</pdfrwt>
<totfact> 0.27920998E+07</totfact>
</mgrwt>
</event>
<event>
 4    1  0.4447136E+006  0.2060712E+02  0.7546771E-02  0.1733517E+00
         21   -1    0    0  504  501  0.00000000000E+00  0.00000000000E+00  0.29539525175E+02  0.29539525175E+02  0.00000000000E+00 0. -1.
         21   -1    0    0  503  502 -0.00000000000E+00 -0.00000000000E+00 -0.26429450826E+03  0.26429450826E+03  0.00000000000E+00 0.  1.
         21    1    1    2  503  501 -0.84159927658E+01 -0.18810223618E+02 -0.26024301623E+03  0.26105761997E+03  0.00000000000E+00 0.  1.
         21    1    1    2  504  502  0.84159927658E+01  0.18810223618E+02  0.25488033139E+02  0.32776413472E+02  0.00000000000E+00 0. -1.
<mgrwt>
<rscale>  2 0.20607121E+02</rscale>
<asrwt>0</asrwt>
<pdfrwt beam="1">  1       21 0.45445423E-02 0.20607121E+02</pdfrwt>
<pdfrwt beam="2">  1       21 0.40660694E-01 0.20607121E+02</pdfrwt>
<totfact> 0.16353489E+06</totfact>
</mgrwt>
</event>
<event>
 4    1  0.4447136E+006  0.3344064E+02  0.7546771E-02  0.1562901E+00
         21   -1    0    0  503  501  0.00000000000E+00  0.00000000000E+00  0.30640756451E+03  0.30640756451E+03  0.00000000000E+00 0. -1.
         21   -1    0    0  504  502 -0.00000000000E+00 -0.00000000000E+00 -0.43249984726E+02  0.43249984726E+02  0.00000000000E+00 0.  1.
         21    1    1    2  503  502  0.80206563712E+01 -0.32464527144E+02  0.29886857870E+03  0.30073360934E+03  0.00000000000E+00 0. -1.
         21    1    1    2  504  501 -0.80206563712E+01  0.32464527144E+02 -0.35710998918E+02  0.48923939897E+02  0.00000000000E+00 0.  1.
<mgrwt>
<rscale>  2 0.33440641E+02</rscale>
<asrwt>0</asrwt>
<pdfrwt beam="1">  1       21 0.47139624E-01 0.33440641E+02</pdfrwt>
<pdfrwt beam="2">  1       21 0.66538440E-02 0.33440641E+02</pdfrwt>
<totfact> 0.69522301E+05</totfact>
</mgrwt>
</event>
<event>
 4    1  0.4447136E+006  0.2234104E+02  0.7546771E-02  0.1702420E+00
         21   -1    0    0  503  501  0.00000000000E+00  0.00000000000E+00  0.37849747069E+01  0.37849747069E+01  0.00000000000E+00 0. -1.
         21   -1    0    0  501  502 -0.00000000000E+00 -0.00000000000E+00 -0.14710178283E+03  0.14710178283E+03  0.00000000000E+00 0. -1.
         21    1    1    2  503  504 -0.16397175112E+02  0.15174142599E+02 -0.47381262659E+02  0.52384215241E+02  0.00000000000E+00 0. -1.
         21    1    1    2  504  502  0.16397175112E+02 -0.15174142599E+02 -0.95935545464E+02  0.98502542295E+02  0.00000000000E+00 0. -1.
<mgrwt>
<rscale>  2 0.22341037E+02</rscale>
<asrwt>0</asrwt>
<pdfrwt beam="1">  1       21 0.58230375E-03 0.22341037E+02</pdfrwt>
<pdfrwt beam="2">  1       21 0.22631045E-01 0.22341037E+02</pdfrwt>
<totfact> 0.11015107E+08</totfact>
</mgrwt>
</event>
<event>
 4    1  0.4447136E+006  0.4914264E+02  0.7546771E-02  0.1450022E+00
         21   -1    0    0  503  501  0.00000000000E+00  0.00000000000E+00  0.75074987096E+01  0.75074987096E+01  0.00000000000E+00 0. -1.
         21   -1    0    0  501  502 -0.00000000000E+00 -0.00000000000E+00 -0.35367712097E+03  0.35367712097E+03  0.00000000000E+00 0.  1.
         21    1    1    2  503  504  0.34547479461E+02 -0.34949538667E+02 -0.11876434227E+03  0.12853002601E+03  0.00000000000E+00 0. -1.
         21    1    1    2  504  502 -0.34547479461E+02  0.34949538667E+02 -0.22740527999E+03  0.23265459367E+03  0.00000000000E+00 0.  1.
<mgrwt>
<rscale>  2 0.49142635E+02</rscale>
<asrwt>0</asrwt>
<pdfrwt beam="1">  1       21 0.11549998E-02 0.49142635E+02</pdfrwt>
<pdfrwt beam="2">  1       21 0.54411866E-01 0.49142635E+02</pdfrwt>
<totfact> 0.86635977E+06</totfact>
</mgrwt>
</event>
<event>
 4    1  0.4447136E+006  0.2932804E+02  0.7546771E-02  0.1605637E+00
         21   -1    0    0  502  501  0.00000000000E+00  0.00000000000E+00  0.77824951637E+02  0.77824951637E+02  0.00000000000E+00 0.  1.
         21   -1    0    0  504  502 -0.00000000000E+00 -0.00000000000E+00 -0.49243804369E+02  0.49243804369E+02  0.00000000000E+00 0.  1.
         21    1    1    2  503  501 -0.14944954178E+02  0.25234544720E+02  0.70242772238E+02  0.76119517565E+02  0.00000000000E+00 0.  1.
         21    1    1    2  504  503  0.14944954178E+02 -0.25234544720E+02 -0.41661624970E+02  0.50949238441E+02  0.00000000000E+00 0.  1.
<mgrwt>
<rscale>  2 0.29328040E+02</rscale>
<asrwt>0</asrwt>
<pdfrwt beam="1">  1       21 0.11973069E-01 0.29328040E+02</pdfrwt>
<pdfrwt beam="2">  1       21 0.75759700E-02 0.29328040E+02</pdfrwt>
<totfact> 0.65872733E+06</totfact>
</mgrwt>
</event>
<event>
 4    1  0.4447136E+006  0.2216746E+02  0.7546771E-02  0.1705372E+00
         21   -1    0    0  503  501  0.00000000000E+00  0.00000000000E+00  0.19242897051E+03  0.19242897051E+03  0.00000000000E+00 0. -1.
         21   -1    0    0  501  502 -0.00000000000E+00 -0.00000000000E+00 -0.38251498864E+01  0.38251498864E+01  0.00000000000E+00 0.  1.
         21    1    1    2  503  504 -0.22111503065E+02  0.15740070880E+01  0.15087669071E+03  0.15249646510E+03  0.00000000000E+00 0. -1.
         21    1    1    2  504  502  0.22111503065E+02 -0.15740070880E+01  0.37727129907E+02  0.43757655298E+02  0.00000000000E+00 0.  1.
<mgrwt>
<rscale>  2 0.22167455E+02</rscale>
<asrwt>0</asrwt>
<pdfrwt beam="1">  1       21 0.29604449E-01 0.22167455E+02</pdfrwt>
<pdfrwt beam="2">  1       21 0.58848475E-03 0.22167455E+02</pdfrwt>
<totfact> 0.66957879E+07</totfact>
</mgrwt>
</event>
<event>
 4    1  0.4447136E+006  0.2393058E+02  0.7546771E-02  0.1676855E+00
         21   -1    0    0  503  501  0.00000000000E+00  0.00000000000E+00  0.18236497730E+03  0.18236497730E+03  0.00000000000E+00 0. -1.
         21   -1    0    0  501  502 -0.00000000000E+00 -0.00000000000E+00 -0.89415638022E+01  0.89415638022E+01  0.00000000000E+00 0.  1.
         21    1    1    2  503  504  0.19928620382E+02 -0.13248495123E+02  0.16375876747E+03  0.16549805575E+03  0.00000000000E+00 0. -1.
         21    1    1    2  504  502 -0.19928620382E+02  0.13248495123E+02  0.96646460258E+01  0.25808485351E+02  0.00000000000E+00 0.  1.
<mgrwt>
<rscale>  2 0.23930577E+02</rscale>
<asrwt>0</asrwt>
<pdfrwt beam="1">  1       21 0.28056148E-01 0.23930577E+02</pdfrwt>
<pdfrwt beam="2">  1       21 0.13756253E-02 0.23930577E+02</pdfrwt>
<totfact> 0.21063732E+07</totfact>
</mgrwt>
</event>
<event>
 4    1  0.4447136E+006  0.2283477E+02  0.7546771E-02  0.1694202E+00
         21   -1    0    0  503  501  0.00000000000E+00  0.00000000000E+00  0.88360137461E+02  0.88360137461E+02  0.00000000000E+00 0.  1.
         21   -1    0    0  504  502 -0.00000000000E+00 -0.00000000000E+00 -0.88303471038E+01  0.88303471038E+01  0.00000000000E+00 0.  1.
         21    1    1    2  503  502 -0.10924996341E+02 -0.20051717812E+02  0.67753338015E+02  0.71497844334E+02  0.00000000000E+00 0.  1.
         21    1    1    2  504  501  0.10924996341E+02  0.20051717812E+02  0.11776452343E+02  0.25692640231E+02  0.00000000000E+00 0.  1.
<mgrwt>
<rscale>  2 0.22834775E+02</rscale>
<asrwt>0</asrwt>
<pdfrwt beam="1">  1       21 0.13593867E-01 0.22834775E+02</pdfrwt>
<pdfrwt beam="2">  1       21 0.13585150E-02 0.22834775E+02</pdfrwt>
<totfact> 0.75117032E+07</totfact>
</mgrwt>
</event>
<event>
 4    1  0.4447136E+006  0.2984074E+02  0.7546771E-02  0.1599856E+00
         21   -1    0    0  503  501  0.00000000000E+00  0.00000000000E+00  0.76708393538E+01  0.76708393538E+01  0.00000000000E+00 0.  1.
         21   -1    0    0  501  502 -0.00000000000E+00 -0.00000000000E+00 -0.25007020261E+03  0.25007020261E+03  0.00000000000E+00 0.  1.
         21    1    1    2  503  504 -0.29444926369E+02  0.48441681512E+01 -0.26869434248E+02  0.40155150987E+02  0.00000000000E+00 0.  1.
         21    1    1    2  504  502  0.29444926369E+02 -0.48441681512E+01 -0.21552992901E+03  0.21758589098E+03  0.00000000000E+00 0.  1.
<mgrwt>
<rscale>  2 0.29840738E+02</rscale>
<asrwt>0</asrwt>
<pdfrwt beam="1">  1       21 0.11801293E-02 0.29840738E+02</pdfrwt>
<pdfrwt beam="2">  1       21 0.38472333E-01 0.29840738E+02</pdfrwt>
<totfact> 0.15455669E+07</totfact>
</mgrwt>
</event>
<event>
 4    1  0.4447136E+006  0.2056764E+02  0.7546771E-02  0.1734270E+00
         21   -1    0    0  504  501  0.00000000000E+00  0.00000000000E+00  0.11467119646E+03  0.11467119646E+03  0.00000000000E+00 0.  1.
         21   -1    0    0  501  502 -0.00000000000E+00 -0.00000000000E+00 -0.50705481073E+02  0.50705481073E+02  0.00000000000E+00 0. -1.
         21    1    1    2  503  502 -0.10522003067E+02 -0.17672444123E+02 -0.47640711416E+02  0.51890897218E+02  0.00000000000E+00 0. -1.
         21    1    1    2  504  503  0.10522003067E+02  0.17672444123E+02  0.11160642680E+03  0.11348578031E+03  0.00000000000E+00 0.  1.
<mgrwt>
<rscale>  2 0.20567640E+02</rscale>
<asrwt>0</asrwt>
<pdfrwt beam="1">  1       21 0.17641722E-01 0.20567640E+02</pdfrwt>
<pdfrwt beam="2">  1       21 0.78008433E-02 0.20567640E+02</pdfrwt>
<totfact> 0.30744672E+06</totfact>
</mgrwt>
</event>
<event>
 4    1  0.4447136E+006  0.2451225E+02  0.7546771E-02  0.1668108E+00
         21   -1    0    0  503  501  0.00000000000E+00  0.00000000000E+00  0.81729172090E+02  0.81729172090E+02  0.00000000000E+00 0.  1.
         21   -1    0    0  501  502 -0.00000000000E+00 -0.00000000000E+00 -0.14409747224E+02  0.14409747224E+02  0.00000000000E+00 0.  1.
         21    1    1    2  503  504  0.17000313797E+02  0.17658988891E+02  0.67301766894E+02  0.71626659736E+02  0.00000000000E+00 0.  1.
         21    1    1    2  504  502 -0.17000313797E+02 -0.17658988891E+02  0.17657971652E-01  0.24512259578E+02  0.00000000000E+00 0.  1.
<mgrwt>
<rscale>  2 0.24512253E+02</rscale>
<asrwt>0</asrwt>
<pdfrwt beam="1">  1       21 0.12573718E-01 0.24512253E+02</pdfrwt>
<pdfrwt beam="2">  1       21 0.22168842E-02 0.24512253E+02</pdfrwt>
<totfact> 0.41275392E+07</totfact>
</mgrwt>
</event>
<event>
 4    1  0.4447136E+006  0.2125146E+02  0.7546771E-02  0.1721529E+00
         21   -1    0    0  504  501  0.00000000000E+00  0.00000000000E+00  0.52338577294E+02  0.52338577294E+02  0.00000000000E+00 0. -1.
         21   -1    0    0  503  502 -0.00000000000E+00 -0.00000000000E+00 -0.32465560191E+02  0.32465560191E+02  0.00000000000E+00 0.  1.
         21    1    1    2  503  501  0.18886598421E+02  0.97427359222E+01  0.46269258609E+02  0.50916292042E+02  0.00000000000E+00 0. -1.
         21    1    1    2  504  502 -0.18886598421E+02 -0.97427359222E+01 -0.26396241505E+02  0.33887845443E+02  0.00000000000E+00 0.  1.
<mgrwt>
<rscale>  2 0.21251459E+02</rscale>
<asrwt>0</asrwt>
<pdfrwt beam="1">  1       21 0.80520888E-02 0.21251459E+02</pdfrwt>
<pdfrwt beam="2">  1       21 0.49947016E-02 0.21251459E+02</pdfrwt>
<totfact> 0.23408445E+07</totfact>
</mgrwt>
</event>
<event>
 4    1  0.4447136E+006  0.2089820E+02  0.7546771E-02  0.1728034E+00
         21   -1    0    0  504  501  0.00000000000E+00  0.00000000000E+00  0.60422271910E+00  0.60422271910E+00  0.00000000000E+00 0.  1.
         21   -1    0    0  501  502 -0.00000000000E+00 -0.00000000000E+00 -0.95189718712E+03  0.95189718712E+03  0.00000000000E+00 0.  1.
         21    1    1    2  503  502 -0.32056298742E+01  0.20650880028E+02 -0.70928595071E+03  0.70959375335E+03  0.00000000000E+00 0.  1.
         21    1    1    2  504  503  0.32056298742E+01 -0.20650880028E+02 -0.24200701369E+03  0.24290765650E+03  0.00000000000E+00 0.  1.
<mgrwt>
<rscale>  2 0.20898203E+02</rscale>
<asrwt>0</asrwt>
<pdfrwt beam="1">  1       21 0.92956963E-04 0.20898203E+02</pdfrwt>
<pdfrwt beam="2">  1       21 0.14644632E+00 0.20898203E+02</pdfrwt>
<totfact> 0.36400636E+07</totfact>
</mgrwt>
</event>
<event>
 4    1  0.4447136E+006  0.2824589E+02  0.7546771E-02  0.1618329E+00
         21   -1    0    0  503  501  0.00000000000E+00  0.00000000000E+00  0.30752088750E+02  0.30752088750E+02  0.00000000000E+00 0. -1.
         21   -1    0    0  501  502 -0.00000000000E+00 -0.00000000000E+00 -0.28449579687E+02  0.28449579687E+02  0.00000000000E+00 0. -1.
         21    1    1    2  503  504 -0.20388594206E+02 -0.19548286505E+02  0.99359259155E+01  0.29942493263E+02  0.00000000000E+00 0. -1.
         21    1    1    2  504  502  0.20388594206E+02  0.19548286505E+02 -0.76334168522E+01  0.29259175174E+02  0.00000000000E+00 0. -1.
<mgrwt>
<rscale>  2 0.28245890E+02</rscale>
<asrwt>0</asrwt>
<pdfrwt beam="1">  1       21 0.47310906E-02 0.28245890E+02</pdfrwt>
<pdfrwt beam="2">  1       21 0.43768584E-02 0.28245890E+02</pdfrwt>
<totfact> 0.72943023E+07</totfact>
</mgrwt>
</event>
<event>
 4    1  0.4447136E+006  0.2203532E+02  0.7546771E-02  0.1707642E+00
         21   -1    0    0  503  501  0.00000000000E+00  0.00000000000E+00  0.20914098781E+01  0.20914098781E+01  0.00000000000E+00 0.  1.
         21   -1    0    0  504  502 -0.00000000000E+00 -0.00000000000E+00 -0.28728059158E+03  0.28728059158E+03  0.00000000000E+00 0.  1.
         21    1    1    2  503  502 -0.19410088725E+02  0.10430911865E+02 -0.79221570850E+02  0.82229026229E+02  0.00000000000E+00 0.  1.
         21    1    1    2  504  501  0.19410088725E+02 -0.10430911865E+02 -0.20596761085E+03  0.20714297523E+03  0.00000000000E+00 0.  1.
<mgrwt>
<rscale>  2 0.22035323E+02</rscale>
<asrwt>0</asrwt>
<pdfrwt beam="1">  1       21 0.32175540E-03 0.22035323E+02</pdfrwt>
<pdfrwt beam="2">  1       21 0.44197009E-01 0.22035323E+02</pdfrwt>
<totfact> 0.77046322E+07</totfact>
</mgrwt>
</event>
<event>
 4    1  0.4447136E+006  0.2278816E+02  0.7546771E-02  0.1694967E+00
         21   -1    0    0  503  501  0.00000000000E+00  0.00000000000E+00  0.46495172061E+02  0.46495172061E+02  0.00000000000E+00 0.  1.
         21   -1    0    0  504  502 -0.00000000000E+00 -0.00000000000E+00 -0.12276216056E+02  0.12276216056E+02  0.00000000000E+00 0.  1.
         21    1    1    2  503  502  0.22519293555E+02 -0.34902523146E+01  0.25934937220E+02  0.34524214865E+02  0.00000000000E+00 0.  1.
         21    1    1    2  504  501 -0.22519293555E+02  0.34902523146E+01  0.82840187860E+01  0.24247173252E+02  0.00000000000E+00 0.  1.
<mgrwt>
<rscale>  2 0.22788165E+02</rscale>
<asrwt>0</asrwt>
<pdfrwt beam="1">  1       21 0.71531033E-02 0.22788165E+02</pdfrwt>
<pdfrwt beam="2">  1       21 0.18886486E-02 0.22788165E+02</pdfrwt>
<totfact> 0.13138054E+08</totfact>
</mgrwt>
</event>
<event>
 4    1  0.4447136E+006  0.2725520E+02  0.7546771E-02  0.1630574E+00
         21   -1    0    0  503  501  0.00000000000E+00  0.00000000000E+00  0.31355605445E+03  0.31355605445E+03  0.00000000000E+00 0. -1.
         21   -1    0    0  504  502 -0.00000000000E+00 -0.00000000000E+00 -0.44976209546E+01  0.44976209546E+01  0.00000000000E+00 0. -1.
         21    1    1    2  503  502  0.26899513998E+02 -0.43888547309E+01  0.45129076032E+02  0.52720768229E+02  0.00000000000E+00 0. -1.
         21    1    1    2  504  501 -0.26899513998E+02  0.43888547309E+01  0.26392935747E+03  0.26533290718E+03  0.00000000000E+00 0. -1.
<mgrwt>
<rscale>  2 0.27255199E+02</rscale>
<asrwt>0</asrwt>
<pdfrwt beam="1">  1       21 0.48239376E-01 0.27255199E+02</pdfrwt>
<pdfrwt beam="2">  1       21 0.69194193E-03 0.27255199E+02</pdfrwt>
<totfact> 0.22034457E+07</totfact>
</mgrwt>
</event>
<event>
 4    1  0.4447136E+006  0.2034826E+02  0.7546771E-02  0.1738490E+00
         21   -1    0    0  504  501  0.00000000000E+00  0.00000000000E+00  0.23304900343E+02  0.23304900343E+02  0.00000000000E+00 0.  1.
         21   -1    0    0  501  502 -0.00000000000E+00 -0.00000000000E+00 -0.14559050567E+03  0.14559050567E+03  0.00000000000E+00 0. -1.
         21    1    1    2  503  502  0.10988346383E+02  0.17126235777E+02 -0.14027024839E+03  0.14173847146E+03  0.00000000000E+00 0. -1.
         21    1    1    2  504  503 -0.10988346383E+02 -0.17126235777E+02  0.17984643064E+02  0.27156934552E+02  0.00000000000E+00 0.  1.
<mgrwt>
<rscale>  2 0.20348261E+02</rscale>
<asrwt>0</asrwt>
<pdfrwt beam="1">  1       21 0.35853693E-02 0.20348261E+02</pdfrwt>
<pdfrwt beam="2">  1       21 0.22398539E-01 0.20348261E+02</pdfrwt>
<totfact> 0.69780464E+06</totfact>
</mgrwt>
</event>
<event>
 4    1  0.4447136E+006  0.2641011E+02  0.7546771E-02  0.1641537E+00
         21   -1    0    0  504  501  0.00000000000E+00  0.00000000000E+00  0.70345841759E+03  0.70345841759E+03  0.00000000000E+00 0.  1.
         21   -1    0    0  501  502 -0.00000000000E+00 -0.00000000000E+00 -0.10277341835E+01  0.10277341835E+01  0.00000000000E+00 0.  1.
         21    1    1    2  503  502  0.14458374560E+02 -0.22100888913E+02  0.28509506950E+03  0.28631572179E+03  0.00000000000E+00 0.  1.
         21    1    1    2  504  503 -0.14458374560E+02  0.22100888913E+02  0.41733561390E+03  0.41817042999E+03  0.00000000000E+00 0.  1.
<mgrwt>
<rscale>  2 0.26410110E+02</rscale>
<asrwt>0</asrwt>
<pdfrwt beam="1">  1       21 0.10822399E+00 0.26410110E+02</pdfrwt>
<pdfrwt beam="2">  1       21 0.15811351E-03 0.26410110E+02</pdfrwt>
<totfact> 0.35623262E+07</totfact>
</mgrwt>
</event>
<event>
 4    1  0.4447136E+006  0.2198778E+02  0.7546771E-02  0.1708463E+00
         21   -1    0    0  503  501  0.00000000000E+00  0.00000000000E+00  0.45879569458E+00  0.45879569458E+00  0.00000000000E+00 0.  1.
         21   -1    0    0  504  502 -0.00000000000E+00 -0.00000000000E+00 -0.10549534513E+04  0.10549534513E+04  0.00000000000E+00 0.  1.
         21    1    1    2  503  502 -0.21753561790E+02 -0.32007846675E+01 -0.50952934402E+03  0.51000354400E+03  0.00000000000E+00 0.  1.
         21    1    1    2  504  501  0.21753561790E+02  0.32007846675E+01 -0.54496531162E+03  0.54540870303E+03  0.00000000000E+00 0.  1.
<mgrwt>
<rscale>  2 0.21987780E+02</rscale>
<asrwt>0</asrwt>
<pdfrwt beam="1">  1       21 0.70583821E-04 0.21987780E+02</pdfrwt>
<pdfrwt beam="2">  1       21 0.16230083E+00 0.21987780E+02</pdfrwt>
<totfact> 0.42529889E+07</totfact>
</mgrwt>
</event>
<event>
 4    1  0.4447136E+006  0.2255199E+02  0.7546771E-02  0.1698877E+00
         21   -1    0    0  504  501  0.00000000000E+00  0.00000000000E+00  0.76372769272E+02  0.76372769272E+02  0.00000000000E+00 0. -1.
         21   -1    0    0  503  502 -0.00000000000E+00 -0.00000000000E+00 -0.27829799998E+02  0.27829799998E+02  0.00000000000E+00 0.  1.
         21    1    1    2  503  501 -0.19487999693E+02  0.11349448311E+02 -0.21170632152E+02  0.30931986272E+02  0.00000000000E+00 0.  1.
         21    1    1    2  504  502  0.19487999693E+02 -0.11349448311E+02  0.69713601426E+02  0.73270582998E+02  0.00000000000E+00 0. -1.
<mgrwt>
<rscale>  2 0.22551987E+02</rscale>
<asrwt>0</asrwt>
<pdfrwt beam="1">  1       21 0.11749657E-01 0.22551987E+02</pdfrwt>
<pdfrwt beam="2">  1       21 0.42815077E-02 0.22551987E+02</pdfrwt>
<totfact> 0.16241040E+07</totfact>
</mgrwt>
</event>
<event>
 4    1  0.4447136E+006  0.2527000E+02  0.7546771E-02  0.1657154E+00
         21   -1    0    0  502  501  0.00000000000E+00  0.00000000000E+00  0.14632829110E+03  0.14632829110E+03  0.00000000000E+00 0.  1.
         21   -1    0    0  503  502 -0.00000000000E+00 -0.00000000000E+00 -0.63781625527E+03  0.63781625527E+03  0.00000000000E+00 0. -1.
         21    1    1    2  503  504  0.24289951295E+02  0.69692942936E+01 -0.63647266316E+03  0.63697411545E+03  0.00000000000E+00 0. -1.
         21    1    1    2  504  501 -0.24289951295E+02 -0.69692942936E+01  0.14498469899E+03  0.14717043093E+03  0.00000000000E+00 0.  1.
<mgrwt>
<rscale>  2 0.25269998E+02</rscale>
<asrwt>0</asrwt>
<pdfrwt beam="1">  1       21 0.22512044E-01 0.25269998E+02</pdfrwt>
<pdfrwt beam="2">  1       21 0.98125579E-01 0.25269998E+02</pdfrwt>
<totfact> 0.19408371E+04</totfact>
</mgrwt>
</event>
<event>
 4    1  0.4447136E+006  0.2076208E+02  0.7546771E-02  0.1730585E+00
         21   -1    0    0  502  501  0.00000000000E+00  0.00000000000E+00  0.51554956837E+03  0.51554956837E+03  0.00000000000E+00 0.  1.
         21   -1    0    0  503  502 -0.00000000000E+00 -0.00000000000E+00 -0.18102854408E+01  0.18102854408E+01  0.00000000000E+00 0.  1.
         21    1    1    2  503  504  0.49550401179E+01 -0.20162128560E+02  0.67109734416E+02  0.70247991459E+02  0.00000000000E+00 0.  1.
         21    1    1    2  504  501 -0.49550401179E+01  0.20162128560E+02  0.44662954851E+03  0.44711186235E+03  0.00000000000E+00 0.  1.
<mgrwt>
<rscale>  2 0.20762077E+02</rscale>
<asrwt>0</asrwt>
<pdfrwt beam="1">  1       21 0.79315201E-01 0.20762077E+02</pdfrwt>
<pdfrwt beam="2">  1       21 0.27850586E-03 0.20762077E+02</pdfrwt>
<totfact> 0.29251805E+07</totfact>
</mgrwt>
</event>
<event>
 4    1  0.4447136E+006  0.2972144E+02  0.7546771E-02  0.1601188E+00
         21   -1    0    0  503  501  0.00000000000E+00  0.00000000000E+00  0.38787173578E+03  0.38787173578E+03  0.00000000000E+00 0.  1.
         21   -1    0    0  504  502 -0.00000000000E+00 -0.00000000000E+00 -0.23298039069E+01  0.23298039069E+01  0.00000000000E+00 0.  1.
         21    1    1    2  503  502  0.29715633433E+02  0.58723844704E+00  0.16352823939E+03  0.16620724652E+03  0.00000000000E+00 0.  1.
         21    1    1    2  504  501 -0.29715633433E+02 -0.58723844704E+00  0.22201369249E+03  0.22399429316E+03  0.00000000000E+00 0.  1.
<mgrwt>
<rscale>  2 0.29721435E+02</rscale>
<asrwt>0</asrwt>
<pdfrwt beam="1">  1       21 0.59672523E-01 0.29721435E+02</pdfrwt>
<pdfrwt beam="2">  1       21 0.35843168E-03 0.29721435E+02</pdfrwt>
<totfact> 0.39034626E+07</totfact>
</mgrwt>
</event>
<event>
 4    1  0.4447136E+006  0.8921312E+02  0.7546771E-02  0.1304768E+00
         21   -1    0    0  504  501  0.00000000000E+00  0.00000000000E+00  0.32079447442E+03  0.32079447442E+03  0.00000000000E+00 0.  1.
         21   -1    0    0  503  502 -0.00000000000E+00 -0.00000000000E+00 -0.27179700970E+02  0.27179700970E+02  0.00000000000E+00 0.  1.
         21    1    1    2  503  501 -0.33242024045E+02 -0.82788578438E+02  0.19817879438E+03  0.21733341995E+03  0.00000000000E+00 0.  1.
         21    1    1    2  504  502  0.33242024045E+02  0.82788578438E+02  0.95435979068E+02  0.13064075544E+03  0.00000000000E+00 0.  1.
<mgrwt>
<rscale>  2 0.89213121E+02</rscale>
<asrwt>0</asrwt>
<pdfrwt beam="1">  1       21 0.49352994E-01 0.89213121E+02</pdfrwt>
<pdfrwt beam="2">  1       21 0.41814927E-02 0.89213121E+02</pdfrwt>
<totfact> 0.14120350E+06</totfact>
</mgrwt>
</event>
<event>
 4    1  0.4447136E+006  0.2173211E+02  0.7546771E-02  0.1712927E+00
         21   -1    0    0  503  501  0.00000000000E+00  0.00000000000E+00  0.70355346115E+02  0.70355346115E+02  0.00000000000E+00 0.  1.
         21   -1    0    0  504  502 -0.00000000000E+00 -0.00000000000E+00 -0.71723282073E+01  0.71723282073E+01  0.00000000000E+00 0.  1.
         21    1    1    2  503  502 -0.17232437166E+02 -0.13241129751E+02  0.21780078065E+02  0.30767778735E+02  0.00000000000E+00 0.  1.
         21    1    1    2  504  501  0.17232437166E+02  0.13241129751E+02  0.41402939843E+02  0.46759895588E+02  0.00000000000E+00 0.  1.
<mgrwt>
<rscale>  2 0.21732105E+02</rscale>
<asrwt>0</asrwt>
<pdfrwt beam="1">  1       21 0.10823899E-01 0.21732105E+02</pdfrwt>
<pdfrwt beam="2">  1       21 0.11034352E-02 0.21732105E+02</pdfrwt>
<totfact> 0.14841368E+08</totfact>
</mgrwt>
</event>
<event>
 4    1  0.4447136E+006  0.2729237E+02  0.7546771E-02  0.1630103E+00
         21   -1    0    0  502  501  0.00000000000E+00  0.00000000000E+00  0.17165863143E+02  0.17165863143E+02  0.00000000000E+00 0. -1.
         21   -1    0    0  503  502 -0.00000000000E+00 -0.00000000000E+00 -0.44124051199E+02  0.44124051199E+02  0.00000000000E+00 0. -1.
         21    1    1    2  503  504  0.25490925331E+02  0.97512262297E+01 -0.17424348481E+02  0.32380265706E+02  0.00000000000E+00 0. -1.
         21    1    1    2  504  501 -0.25490925331E+02 -0.97512262297E+01 -0.95338395749E+01  0.28909648636E+02  0.00000000000E+00 0. -1.
<mgrwt>
<rscale>  2 0.27292374E+02</rscale>
<asrwt>0</asrwt>
<pdfrwt beam="1">  1       21 0.26409020E-02 0.27292374E+02</pdfrwt>
<pdfrwt beam="2">  1       21 0.67883156E-02 0.27292374E+02</pdfrwt>
<totfact> 0.89551152E+07</totfact>
</mgrwt>
</event>
<event>
 4    1  0.4447136E+006  0.2372259E+02  0.7546771E-02  0.1680058E+00
         21   -1    0    0  503  501  0.00000000000E+00  0.00000000000E+00  0.84095759293E+03  0.84095759293E+03  0.00000000000E+00 0.  1.
         21   -1    0    0  504  502 -0.00000000000E+00 -0.00000000000E+00 -0.13494800124E+01  0.13494800124E+01  0.00000000000E+00 0.  1.
         21    1    1    2  503  502 -0.22096821905E+02  0.86308631990E+01  0.12078152105E+03  0.12308914317E+03  0.00000000000E+00 0.  1.
         21    1    1    2  504  501  0.22096821905E+02 -0.86308631990E+01  0.71882659186E+03  0.71921792977E+03  0.00000000000E+00 0.  1.
<mgrwt>
<rscale>  2 0.23722591E+02</rscale>
<asrwt>0</asrwt>
<pdfrwt beam="1">  1       21 0.12937767E+00 0.23722591E+02</pdfrwt>
<pdfrwt beam="2">  1       21 0.20761298E-03 0.23722591E+02</pdfrwt>
<totfact> 0.15731065E+07</totfact>
</mgrwt>
</event>
<event>
 4    1  0.4447136E+006  0.2163519E+02  0.7546771E-02  0.1714639E+00
         21   -1    0    0  503  501  0.00000000000E+00  0.00000000000E+00  0.63315080093E+02  0.63315080093E+02  0.00000000000E+00 0.  1.
         21   -1    0    0  504  502 -0.00000000000E+00 -0.00000000000E+00 -0.84357978138E+01  0.84357978138E+01  0.00000000000E+00 0.  1.
         21    1    1    2  503  502 -0.15216198626E+02  0.15380134645E+02  0.14825499723E+02  0.26227403310E+02  0.00000000000E+00 0.  1.
         21    1    1    2  504  501  0.15216198626E+02 -0.15380134645E+02  0.40053782556E+02  0.45523474597E+02  0.00000000000E+00 0.  1.
<mgrwt>
<rscale>  2 0.21635185E+02</rscale>
<asrwt>0</asrwt>
<pdfrwt beam="1">  1       21 0.97407812E-02 0.21635185E+02</pdfrwt>
<pdfrwt beam="2">  1       21 0.12978151E-02 0.21635185E+02</pdfrwt>
<totfact> 0.13817230E+08</totfact>
</mgrwt>
</event>
<event>
 4    1  0.4447136E+006  0.2468030E+02  0.7546771E-02  0.1665637E+00
         21   -1    0    0  502  501  0.00000000000E+00  0.00000000000E+00  0.32071813796E+02  0.32071813796E+02  0.00000000000E+00 0. -1.
         21   -1    0    0  504  502 -0.00000000000E+00 -0.00000000000E+00 -0.22772890777E+02  0.22772890777E+02  0.00000000000E+00 0. -1.
         21    1    1    2  503  501  0.14770801582E+02 -0.19772223535E+02  0.15822612037E+02  0.29316760642E+02  0.00000000000E+00 0. -1.
         21    1    1    2  504  503 -0.14770801582E+02  0.19772223535E+02 -0.65236890185E+01  0.25527943930E+02  0.00000000000E+00 0. -1.
<mgrwt>
<rscale>  2 0.24680304E+02</rscale>
<asrwt>0</asrwt>
<pdfrwt beam="1">  1       21 0.49341252E-02 0.24680304E+02</pdfrwt>
<pdfrwt beam="2">  1       21 0.35035217E-02 0.24680304E+02</pdfrwt>
<totfact> 0.93707004E+07</totfact>
</mgrwt>
</event>
<event>
 4    1  0.4447136E+006  0.2016129E+02  0.7546771E-02  0.1742140E+00
         21   -1    0    0  502  501  0.00000000000E+00  0.00000000000E+00  0.10371549450E+03  0.10371549450E+03  0.00000000000E+00 0. -1.
         21   -1    0    0  504  502 -0.00000000000E+00 -0.00000000000E+00 -0.19945720454E+02  0.19945720454E+02  0.00000000000E+00 0. -1.
         21    1    1    2  503  501  0.89186890223E+01  0.18081328304E+02  0.97309010644E+02  0.99375655971E+02  0.00000000000E+00 0. -1.
         21    1    1    2  504  503 -0.89186890223E+01 -0.18081328304E+02 -0.13539236602E+02  0.24285558978E+02  0.00000000000E+00 0. -1.
<mgrwt>
<rscale>  2 0.20161286E+02</rscale>
<asrwt>0</asrwt>
<pdfrwt beam="1">  1       21 0.15956230E-01 0.20161286E+02</pdfrwt>
<pdfrwt beam="2">  1       21 0.30685724E-02 0.20161286E+02</pdfrwt>
<totfact> 0.15936586E+07</totfact>
</mgrwt>
</event>
<event>
 4    1  0.4447136E+006  0.2036207E+02  0.7546771E-02  0.1738222E+00
         21   -1    0    0  503  501  0.00000000000E+00  0.00000000000E+00  0.46556003907E+02  0.46556003907E+02  0.00000000000E+00 0. -1.
         21   -1    0    0  504  502 -0.00000000000E+00 -0.00000000000E+00 -0.15072672546E+03  0.15072672546E+03  0.00000000000E+00 0.  1.
         21    1    1    2  503  502  0.13606659618E+02  0.15148352001E+02  0.43597522160E+02  0.48118163855E+02  0.00000000000E+00 0. -1.
         21    1    1    2  504  501 -0.13606659618E+02 -0.15148352001E+02 -0.14776824371E+03  0.14916456551E+03  0.00000000000E+00 0.  1.
<mgrwt>
<rscale>  2 0.20362067E+02</rscale>
<asrwt>0</asrwt>
<pdfrwt beam="1">  1       21 0.71624621E-02 0.20362067E+02</pdfrwt>
<pdfrwt beam="2">  1       21 0.23188727E-01 0.20362067E+02</pdfrwt>
<totfact> 0.21916417E+06</totfact>
</mgrwt>
</event>
<event>
 4    1  0.4447136E+006  0.3113131E+02  0.7546771E-02  0.1585910E+00
         21   -1    0    0  504  501  0.00000000000E+00  0.00000000000E+00  0.28028109161E+03  0.28028109161E+03  0.00000000000E+00 0.  1.
         21   -1    0    0  503  502 -0.00000000000E+00 -0.00000000000E+00 -0.53478167000E+01  0.53478167000E+01  0.00000000000E+00 0.  1.
         21    1    1    2  503  501  0.28633384873E+02  0.12218334638E+02  0.22236820626E+03  0.22453680675E+03  0.00000000000E+00 0.  1.
         21    1    1    2  504  502 -0.28633384873E+02 -0.12218334638E+02  0.52565068643E+02  0.61092101552E+02  0.00000000000E+00 0.  1.
<mgrwt>
<rscale>  2 0.31131309E+02</rscale>
<asrwt>0</asrwt>
<pdfrwt beam="1">  1       21 0.43120156E-01 0.31131309E+02</pdfrwt>
<pdfrwt beam="2">  1       21 0.82274125E-03 0.31131309E+02</pdfrwt>
<totfact> 0.21625848E+07</totfact>
</mgrwt>
</event>
<event>
 4    1  0.4447136E+006  0.2609022E+02  0.7546771E-02  0.1645819E+00
         21   -1    0    0  503  501  0.00000000000E+00  0.00000000000E+00  0.31228293050E+02  0.31228293050E+02  0.00000000000E+00 0. -1.
         21   -1    0    0  504  502 -0.00000000000E+00 -0.00000000000E+00 -0.42593873230E+02  0.42593873230E+02  0.00000000000E+00 0.  1.
         21    1    1    2  503  502 -0.14308474543E+02 -0.21816667203E+02 -0.31474301447E+02  0.40881916090E+02  0.00000000000E+00 0.  1.
         21    1    1    2  504  501  0.14308474543E+02  0.21816667203E+02  0.20108721267E+02  0.32940250190E+02  0.00000000000E+00 0. -1.
<mgrwt>
<rscale>  2 0.26090217E+02</rscale>
<asrwt>0</asrwt>
<pdfrwt beam="1">  1       21 0.48043528E-02 0.26090217E+02</pdfrwt>
<pdfrwt beam="2">  1       21 0.65529036E-02 0.26090217E+02</pdfrwt>
<totfact> 0.36502744E+07</totfact>
</mgrwt>
</event>
<event>
 4    1  0.4447136E+006  0.2392514E+02  0.7546771E-02  0.1676938E+00
         21   -1    0    0  503  501  0.00000000000E+00  0.00000000000E+00  0.21894810747E+02  0.21894810747E+02  0.00000000000E+00 0.  1.
         21   -1    0    0  504  502 -0.00000000000E+00 -0.00000000000E+00 -0.27819039177E+02  0.27819039177E+02  0.00000000000E+00 0.  1.
         21    1    1    2  503  502  0.17632136040E+02 -0.16171580900E+02 -0.90620106692E+01  0.25583828633E+02  0.00000000000E+00 0.  1.
         21    1    1    2  504  501 -0.17632136040E+02  0.16171580900E+02  0.31377822399E+01  0.24130021291E+02  0.00000000000E+00 0.  1.
<mgrwt>
<rscale>  2 0.23925138E+02</rscale>
<asrwt>0</asrwt>
<pdfrwt beam="1">  1       21 0.33684324E-02 0.23925138E+02</pdfrwt>
<pdfrwt beam="2">  1       21 0.42798522E-02 0.23925138E+02</pdfrwt>
<totfact> 0.12386210E+08</totfact>
</mgrwt>
</event>
<event>
 4    1  0.4447136E+006  0.2275517E+02  0.7546771E-02  0.1695510E+00
         21   -1    0    0  503  501  0.00000000000E+00  0.00000000000E+00  0.79665852635E+02  0.79665852635E+02  0.00000000000E+00 0.  1.
         21   -1    0    0  504  502 -0.00000000000E+00 -0.00000000000E+00 -0.19111887949E+03  0.19111887949E+03  0.00000000000E+00 0. -1.
         21    1    1    2  503  502 -0.22744659854E+02  0.69166585940E+00  0.77343708818E+02  0.80621630145E+02  0.00000000000E+00 0.  1.
         21    1    1    2  504  501  0.22744659854E+02 -0.69166585940E+00 -0.18879673568E+03  0.19016310198E+03  0.00000000000E+00 0. -1.
<mgrwt>
<rscale>  2 0.22755174E+02</rscale>
<asrwt>0</asrwt>
<pdfrwt beam="1">  1       21 0.12256285E-01 0.22755174E+02</pdfrwt>
<pdfrwt beam="2">  1       21 0.29402904E-01 0.22755174E+02</pdfrwt>
<totfact> 0.60011480E+05</totfact>
</mgrwt>
</event>
<event>
 4    1  0.4447136E+006  0.2428849E+02  0.7546771E-02  0.1671437E+00
         21   -1    0    0  504  501  0.00000000000E+00  0.00000000000E+00  0.25846314520E+02  0.25846314520E+02  0.00000000000E+00 0.  1.
         21   -1    0    0  503  502 -0.00000000000E+00 -0.00000000000E+00 -0.19504189608E+03  0.19504189608E+03  0.00000000000E+00 0. -1.
         21    1    1    2  503  501  0.66698074401E+00 -0.24279332311E+02 -0.18837859115E+03  0.18993794893E+03  0.00000000000E+00 0. -1.
         21    1    1    2  504  502 -0.66698074401E+00  0.24279332311E+02  0.19183009587E+02  0.30950261672E+02  0.00000000000E+00 0.  1.
<mgrwt>
<rscale>  2 0.24288492E+02</rscale>
<asrwt>0</asrwt>
<pdfrwt beam="1">  1       21 0.39763561E-02 0.24288492E+02</pdfrwt>
<pdfrwt beam="2">  1       21 0.30006445E-01 0.24288492E+02</pdfrwt>
<totfact> 0.36207501E+06</totfact>
</mgrwt>
</event>
<event>
 4    1  0.4447136E+006  0.2284146E+02  0.7546771E-02  0.1694093E+00
         21   -1    0    0  503  501  0.00000000000E+00  0.00000000000E+00  0.38567850201E+03  0.38567850201E+03  0.00000000000E+00 0. -1.
         21   -1    0    0  501  502 -0.00000000000E+00 -0.00000000000E+00 -0.10855257411E+03  0.10855257411E+03  0.00000000000E+00 0.  1.
         21    1    1    2  503  504 -0.11477602870E+02 -0.19748343292E+02  0.38413391731E+03  0.38481242036E+03  0.00000000000E+00 0. -1.
         21    1    1    2  504  502  0.11477602870E+02  0.19748343292E+02 -0.10700798941E+03  0.10941865576E+03  0.00000000000E+00 0.  1.
<mgrwt>
<rscale>  2 0.22841463E+02</rscale>
<asrwt>0</asrwt>
<pdfrwt beam="1">  1       21 0.59335154E-01 0.22841463E+02</pdfrwt>
<pdfrwt beam="2">  1       21 0.16700396E-01 0.22841463E+02</pdfrwt>
<totfact> 0.93707414E+04</totfact>
</mgrwt>
</event>
<event>
 4    1  0.4447136E+006  0.2321393E+02  0.7546771E-02  0.1688066E+00
         21   -1    0    0  504  501  0.00000000000E+00  0.00000000000E+00  0.15148228206E+03  0.15148228206E+03  0.00000000000E+00 0. -1.
         21   -1    0    0  503  502 -0.00000000000E+00 -0.00000000000E+00 -0.10204502617E+02  0.10204502617E+02  0.00000000000E+00 0. -1.
         21    1    1    2  503  501 -0.20588307709E+02  0.10724182621E+02  0.53913622642E+01  0.23831770692E+02  0.00000000000E+00 0. -1.
         21    1    1    2  504  502  0.20588307709E+02 -0.10724182621E+02  0.13588641718E+03  0.13785501398E+03  0.00000000000E+00 0. -1.
<mgrwt>
<rscale>  2 0.23213929E+02</rscale>
<asrwt>0</asrwt>
<pdfrwt beam="1">  1       21 0.23304965E-01 0.23213929E+02</pdfrwt>
<pdfrwt beam="2">  1       21 0.15699236E-02 0.23213929E+02</pdfrwt>
<totfact> 0.23854894E+07</totfact>
</mgrwt>
</event>
<event>
 4    1  0.4447136E+006  0.2670659E+02  0.7546771E-02  0.1637634E+00
         21   -1    0    0  503  501  0.00000000000E+00  0.00000000000E+00  0.49871587410E+01  0.49871587410E+01  0.00000000000E+00 0.  1.
         21   -1    0    0  504  502 -0.00000000000E+00 -0.00000000000E+00 -0.16142880075E+03  0.16142880075E+03  0.00000000000E+00 0.  1.
         21    1    1    2  503  502  0.20155759068E+02  0.17521051440E+02 -0.10632288655E+03  0.10962571811E+03  0.00000000000E+00 0.  1.
         21    1    1    2  504  501 -0.20155759068E+02 -0.17521051440E+02 -0.50118755458E+02  0.56790241379E+02  0.00000000000E+00 0.  1.
<mgrwt>
<rscale>  2 0.26706588E+02</rscale>
<asrwt>0</asrwt>
<pdfrwt beam="1">  1       21 0.76725511E-03 0.26706588E+02</pdfrwt>
<pdfrwt beam="2">  1       21 0.24835203E-01 0.26706588E+02</pdfrwt>
<totfact> 0.64834725E+07</totfact>
</mgrwt>
</event>
<event>
 4    1  0.4447136E+006  0.2045765E+02  0.7546771E-02  0.1736377E+00
         21   -1    0    0  502  501  0.00000000000E+00  0.00000000000E+00  0.80081449128E+02  0.80081449128E+02  0.00000000000E+00 0. -1.
         21   -1    0    0  503  502 -0.00000000000E+00 -0.00000000000E+00 -0.59124792563E+01  0.59124792563E+01  0.00000000000E+00 0. -1.
         21    1    1    2  503  504  0.75545525432E+01 -0.19011688127E+02  0.22434823322E+02  0.30361766204E+02  0.00000000000E+00 0. -1.
         21    1    1    2  504  501 -0.75545525432E+01  0.19011688127E+02  0.51734146550E+02  0.55632162180E+02  0.00000000000E+00 0. -1.
<mgrwt>
<rscale>  2 0.20457653E+02</rscale>
<asrwt>0</asrwt>
<pdfrwt beam="1">  1       21 0.12320222E-01 0.20457653E+02</pdfrwt>
<pdfrwt beam="2">  1       21 0.90961225E-03 0.20457653E+02</pdfrwt>
<totfact> 0.15686651E+08</totfact>
</mgrwt>
</event>
<event>
 4    1  0.4447136E+006  0.2028340E+02  0.7546771E-02  0.1739750E+00
         21   -1    0    0  503  501  0.00000000000E+00  0.00000000000E+00  0.40855736426E+02  0.40855736426E+02  0.00000000000E+00 0. -1.
         21   -1    0    0  504  502 -0.00000000000E+00 -0.00000000000E+00 -0.10151189666E+02  0.10151189666E+02  0.00000000000E+00 0. -1.
         21    1    1    2  503  502  0.18667677921E+02 -0.79331010529E+01  0.17633428658E+02  0.26876645950E+02  0.00000000000E+00 0. -1.
         21    1    1    2  504  501 -0.18667677921E+02  0.79331010529E+01  0.13071118102E+02  0.24130280142E+02  0.00000000000E+00 0. -1.
<mgrwt>
<rscale>  2 0.20283399E+02</rscale>
<asrwt>0</asrwt>
<pdfrwt beam="1">  1       21 0.62854978E-02 0.20283399E+02</pdfrwt>
<pdfrwt beam="2">  1       21 0.15617215E-02 0.20283399E+02</pdfrwt>
<totfact> 0.20844955E+08</totfact>
</mgrwt>
</event>
<event>
 4    1  0.4447136E+006  0.2843053E+02  0.7546771E-02  0.1616114E+00
         21   -1    0    0  503  501  0.00000000000E+00  0.00000000000E+00  0.25528673735E+01  0.25528673735E+01  0.00000000000E+00 0. -1.
         21   -1    0    0  504  502 -0.00000000000E+00 -0.00000000000E+00 -0.41609132843E+03  0.41609132843E+03  0.00000000000E+00 0. -1.
         21    1    1    2  503  502 -0.15360392436E+02  0.23923909371E+02 -0.10442476088E+03  0.10822580921E+03  0.00000000000E+00 0. -1.
         21    1    1    2  504  501  0.15360392436E+02 -0.23923909371E+02 -0.30911370017E+03  0.31041838659E+03  0.00000000000E+00 0. -1.
<mgrwt>
<rscale>  2 0.28430531E+02</rscale>
<asrwt>0</asrwt>
<pdfrwt beam="1">  1       21 0.39274918E-03 0.28430531E+02</pdfrwt>
<pdfrwt beam="2">  1       21 0.64013993E-01 0.28430531E+02</pdfrwt>
<totfact> 0.29328191E+07</totfact>
</mgrwt>
</event>
<event>
 4    1  0.4447136E+006  0.2661629E+02  0.7546771E-02  0.1638816E+00
         21   -1    0    0  504  501  0.00000000000E+00  0.00000000000E+00  0.52165681822E+02  0.52165681822E+02  0.00000000000E+00 0.  1.
         21   -1    0    0  503  502 -0.00000000000E+00 -0.00000000000E+00 -0.19256078105E+02  0.19256078105E+02  0.00000000000E+00 0.  1.
         21    1    1    2  503  501  0.12591706598E+02 -0.23449432589E+02  0.35842593464E+02  0.44644355411E+02  0.00000000000E+00 0.  1.
         21    1    1    2  504  502 -0.12591706598E+02  0.23449432589E+02 -0.29329897477E+01  0.26777404517E+02  0.00000000000E+00 0.  1.
<mgrwt>
<rscale>  2 0.26616291E+02</rscale>
<asrwt>0</asrwt>
<pdfrwt beam="1">  1       21 0.80254895E-02 0.26616291E+02</pdfrwt>
<pdfrwt beam="2">  1       21 0.29624736E-02 0.26616291E+02</pdfrwt>
<totfact> 0.56565822E+07</totfact>
</mgrwt>
</event>
<event>
 4    1  0.4447136E+006  0.2117407E+02  0.7546771E-02  0.1722940E+00
         21   -1    0    0  504  501  0.00000000000E+00  0.00000000000E+00  0.98019393535E+03  0.98019393535E+03  0.00000000000E+00 0. -1.
         21   -1    0    0  503  502 -0.00000000000E+00 -0.00000000000E+00 -0.33928194955E+01  0.33928194955E+01  0.00000000000E+00 0.  1.
         21    1    1    2  503  501  0.40677210414E+01  0.20779674059E+02  0.94584393888E+03  0.94608091510E+03  0.00000000000E+00 0. -1.
         21    1    1    2  504  502 -0.40677210414E+01 -0.20779674059E+02  0.30957176974E+02  0.37505839741E+02  0.00000000000E+00 0.  1.
<mgrwt>
<rscale>  2 0.21174069E+02</rscale>
<asrwt>0</asrwt>
<pdfrwt beam="1">  1       21 0.15079884E+00 0.21174069E+02</pdfrwt>
<pdfrwt beam="2">  1       21 0.52197301E-03 0.21174069E+02</pdfrwt>
<totfact> 0.28219982E+06</totfact>
</mgrwt>
</event>
<event>
 4    1  0.4447136E+006  0.2436218E+02  0.7546771E-02  0.1670336E+00
         21   -1    0    0  504  501  0.00000000000E+00  0.00000000000E+00  0.17070245795E+03  0.17070245795E+03  0.00000000000E+00 0. -1.
         21   -1    0    0  503  502 -0.00000000000E+00 -0.00000000000E+00 -0.78082227225E+01  0.78082227225E+01  0.00000000000E+00 0. -1.
         21    1    1    2  503  501 -0.70349203794E+01 -0.23324361484E+02  0.14792362887E+03  0.14991636309E+03  0.00000000000E+00 0. -1.
         21    1    1    2  504  502  0.70349203794E+01  0.23324361484E+02  0.14970606356E+02  0.28594317583E+02  0.00000000000E+00 0. -1.
<mgrwt>
<rscale>  2 0.24362183E+02</rscale>
<asrwt>0</asrwt>
<pdfrwt beam="1">  1       21 0.26261914E-01 0.24362183E+02</pdfrwt>
<pdfrwt beam="2">  1       21 0.12012652E-02 0.24362183E+02</pdfrwt>
<totfact> 0.29253734E+07</totfact>
</mgrwt>
</event>
<event>
 4    1  0.4447136E+006  0.2001130E+02  0.7546771E-02  0.1745103E+00
         21   -1    0    0  503  501  0.00000000000E+00  0.00000000000E+00  0.17144446336E+03  0.17144446336E+03  0.00000000000E+00 0.  1.
         21   -1    0    0  504  502 -0.00000000000E+00 -0.00000000000E+00 -0.38899568060E+01  0.38899568060E+01  0.00000000000E+00 0.  1.
         21    1    1    2  503  502  0.18512145413E+02  0.75995093220E+01  0.13919114580E+03  0.14062228536E+03  0.00000000000E+00 0.  1.
         21    1    1    2  504  501 -0.18512145413E+02 -0.75995093220E+01  0.28363360751E+02  0.34712134807E+02  0.00000000000E+00 0.  1.
<mgrwt>
<rscale>  2 0.20011299E+02</rscale>
<asrwt>0</asrwt>
<pdfrwt beam="1">  1       21 0.26376065E-01 0.20011299E+02</pdfrwt>
<pdfrwt beam="2">  1       21 0.59845503E-03 0.20011299E+02</pdfrwt>
<totfact> 0.78211054E+07</totfact>
</mgrwt>
</event>
<event>
 4    1  0.4447136E+006  0.2619864E+02  0.7546771E-02  0.1644359E+00
         21   -1    0    0  503  501  0.00000000000E+00  0.00000000000E+00  0.30259757300E+02  0.30259757300E+02  0.00000000000E+00 0.  1.
         21   -1    0    0  501  502 -0.00000000000E+00 -0.00000000000E+00 -0.24883226907E+02  0.24883226907E+02  0.00000000000E+00 0.  1.
         21    1    1    2  503  504 -0.25131401137E+02  0.74014364170E+01  0.10887713865E+02  0.28370951647E+02  0.00000000000E+00 0.  1.
         21    1    1    2  504  502  0.25131401137E+02 -0.74014364170E+01 -0.55111834723E+01  0.26772032560E+02  0.00000000000E+00 0.  1.
<mgrwt>
<rscale>  2 0.26198637E+02</rscale>
<asrwt>0</asrwt>
<pdfrwt beam="1">  1       21 0.46553473E-02 0.26198637E+02</pdfrwt>
<pdfrwt beam="2">  1       21 0.38281887E-02 0.26198637E+02</pdfrwt>
<totfact> 0.90824985E+07</totfact>
</mgrwt>
</event>
<event>
 4    1  0.4447136E+006  0.2044599E+02  0.7546771E-02  0.1736602E+00
         21   -1    0    0  503  501  0.00000000000E+00  0.00000000000E+00  0.13907822214E+02  0.13907822214E+02  0.00000000000E+00 0.  1.
         21   -1    0    0  504  502 -0.00000000000E+00 -0.00000000000E+00 -0.33611477272E+02  0.33611477272E+02  0.00000000000E+00 0. -1.
         21    1    1    2  503  502 -0.13860605839E+02  0.15030704172E+02 -0.21261680536E+01  0.20556241211E+02  0.00000000000E+00 0.  1.
         21    1    1    2  504  501  0.13860605839E+02 -0.15030704172E+02 -0.17577487005E+02  0.26963058275E+02  0.00000000000E+00 0. -1.
<mgrwt>
<rscale>  2 0.20445989E+02</rscale>
<asrwt>0</asrwt>
<pdfrwt beam="1">  1       21 0.21396650E-02 0.20445989E+02</pdfrwt>
<pdfrwt beam="2">  1       21 0.51709964E-02 0.20445989E+02</pdfrwt>
<totfact> 0.17661116E+08</totfact>
</mgrwt>
</event>
<event>
 4    1  0.4447136E+006  0.2335525E+02  0.7546771E-02  0.1685815E+00
         21   -1    0    0  504  501  0.00000000000E+00  0.00000000000E+00  0.15318711354E+02  0.15318711354E+02  0.00000000000E+00 0. -1.
         21   -1    0    0  501  502 -0.00000000000E+00 -0.00000000000E+00 -0.35616448982E+02  0.35616448982E+02  0.00000000000E+00 0. -1.
         21    1    1    2  503  502 -0.30903654837E+01  0.23149890851E+02 -0.10542434346E+02  0.25624416621E+02  0.00000000000E+00 0. -1.
         21    1    1    2  504  503  0.30903654837E+01 -0.23149890851E+02 -0.97553032822E+01  0.25310743714E+02  0.00000000000E+00 0. -1.
<mgrwt>
<rscale>  2 0.23355252E+02</rscale>
<asrwt>0</asrwt>
<pdfrwt beam="1">  1       21 0.23567248E-02 0.23355252E+02</pdfrwt>
<pdfrwt beam="2">  1       21 0.54794537E-02 0.23355252E+02</pdfrwt>
<totfact> 0.14463936E+08</totfact>
</mgrwt>
</event>
<event>
 4    1  0.4447136E+006  0.2063780E+02  0.7546771E-02  0.1732934E+00
         21   -1    0    0  504  501  0.00000000000E+00  0.00000000000E+00  0.74027110006E+00  0.74027110006E+00  0.00000000000E+00 0. -1.
         21   -1    0    0  503  502 -0.00000000000E+00 -0.00000000000E+00 -0.58614001678E+03  0.58614001678E+03  0.00000000000E+00 0. -1.
         21    1    1    2  503  501  0.14775930387E+02 -0.14408008745E+02 -0.25289602932E+03  0.25373671488E+03  0.00000000000E+00 0. -1.
         21    1    1    2  504  502 -0.14775930387E+02  0.14408008745E+02 -0.33250371637E+03  0.33314357300E+03  0.00000000000E+00 0. -1.
<mgrwt>
<rscale>  2 0.20637801E+02</rscale>
<asrwt>0</asrwt>
<pdfrwt beam="1">  1       21 0.11388750E-03 0.20637801E+02</pdfrwt>
<pdfrwt beam="2">  1       21 0.90175673E-01 0.20637801E+02</pdfrwt>
<totfact> 0.80442547E+07</totfact>
</mgrwt>
</event>
<event>
 4    1  0.4447136E+006  0.3798827E+02  0.7546771E-02  0.1523560E+00
         21   -1    0    0  503  501  0.00000000000E+00  0.00000000000E+00  0.78489375992E+02  0.78489375992E+02  0.00000000000E+00 0. -1.
         21   -1    0    0  504  502 -0.00000000000E+00 -0.00000000000E+00 -0.22287159859E+02  0.22287159859E+02  0.00000000000E+00 0. -1.
         21    1    1    2  503  502  0.37808555071E+02  0.36907552825E+01  0.70198307009E+01  0.38631419003E+02  0.00000000000E+00 0. -1.
         21    1    1    2  504  501 -0.37808555071E+02 -0.36907552825E+01  0.49182385432E+02  0.62145116847E+02  0.00000000000E+00 0. -1.
<mgrwt>
<rscale>  2 0.37988268E+02</rscale>
<asrwt>0</asrwt>
<pdfrwt beam="1">  1       21 0.12075288E-01 0.37988268E+02</pdfrwt>
<pdfrwt beam="2">  1       21 0.34287939E-02 0.37988268E+02</pdfrwt>
<totfact> 0.24375184E+07</totfact>
</mgrwt>
</event>
<event>
 4    1  0.4447136E+006  0.2490478E+02  0.7546771E-02  0.1662373E+00
         21   -1    0    0  502  501  0.00000000000E+00  0.00000000000E+00  0.13088736996E+02  0.13088736996E+02  0.00000000000E+00 0. -1.
         21   -1    0    0  503  502 -0.00000000000E+00 -0.00000000000E+00 -0.80287922033E+02  0.80287922033E+02  0.00000000000E+00 0. -1.
         21    1    1    2  503  504  0.27584504492E+01  0.24751546416E+02 -0.63486511749E+02  0.68196666143E+02  0.00000000000E+00 0. -1.
         21    1    1    2  504  501 -0.27584504492E+01 -0.24751546416E+02 -0.37126732878E+01  0.25179992887E+02  0.00000000000E+00 0. -1.
<mgrwt>
<rscale>  2 0.24904781E+02</rscale>
<asrwt>0</asrwt>
<pdfrwt beam="1">  1       21 0.20136518E-02 0.24904781E+02</pdfrwt>
<pdfrwt beam="2">  1       21 0.12351989E-01 0.24904781E+02</pdfrwt>
<totfact> 0.49508505E+07</totfact>
</mgrwt>
</event>
<event>
 4    1  0.4447136E+006  0.2376592E+02  0.7546771E-02  0.1679387E+00
         21   -1    0    0  503  501  0.00000000000E+00  0.00000000000E+00  0.17034383323E+02  0.17034383323E+02  0.00000000000E+00 0.  1.
         21   -1    0    0  504  502 -0.00000000000E+00 -0.00000000000E+00 -0.15335662118E+03  0.15335662118E+03  0.00000000000E+00 0.  1.
         21    1    1    2  503  502  0.98451343740E+01 -0.21630823079E+02  0.72639780050E+01  0.24851248547E+02  0.00000000000E+00 0.  1.
         21    1    1    2  504  501 -0.98451343740E+01  0.21630823079E+02 -0.14358621586E+03  0.14553975595E+03  0.00000000000E+00 0.  1.
<mgrwt>
<rscale>  2 0.23765925E+02</rscale>
<asrwt>0</asrwt>
<pdfrwt beam="1">  1       21 0.26206743E-02 0.23765925E+02</pdfrwt>
<pdfrwt beam="2">  1       21 0.23593326E-01 0.23765925E+02</pdfrwt>
<totfact> 0.10673352E+07</totfact>
</mgrwt>
</event>
<event>
 4    1  0.4447136E+006  0.2511581E+02  0.7546771E-02  0.1659344E+00
         21   -1    0    0  504  501  0.00000000000E+00  0.00000000000E+00  0.67467697594E+02  0.67467697594E+02  0.00000000000E+00 0.  1.
         21   -1    0    0  503  502 -0.00000000000E+00 -0.00000000000E+00 -0.10141451596E+02  0.10141451596E+02  0.00000000000E+00 0.  1.
         21    1    1    2  503  501 -0.10177818638E+02  0.22961185251E+02  0.17820805943E+02  0.30795862463E+02  0.00000000000E+00 0.  1.
         21    1    1    2  504  502  0.10177818638E+02 -0.22961185251E+02  0.39505440054E+02  0.46813286727E+02  0.00000000000E+00 0.  1.
<mgrwt>
<rscale>  2 0.25115812E+02</rscale>
<asrwt>0</asrwt>
<pdfrwt beam="1">  1       21 0.10379645E-01 0.25115812E+02</pdfrwt>
<pdfrwt beam="2">  1       21 0.15602234E-02 0.25115812E+02</pdfrwt>
<totfact> 0.98147108E+07</totfact>
</mgrwt>
</event>
<event>
 4    1  0.4447136E+006  0.3216181E+02  0.7546771E-02  0.1575353E+00
         21   -1    0    0  504  501  0.00000000000E+00  0.00000000000E+00  0.10979163066E+03  0.10979163066E+03  0.00000000000E+00 0.  1.
         21   -1    0    0  503  502 -0.00000000000E+00 -0.00000000000E+00 -0.21580222235E+02  0.21580222235E+02  0.00000000000E+00 0.  1.
         21    1    1    2  503  501 -0.24183720559E+02 -0.21202122068E+02 -0.51993588222E+01  0.32579374648E+02  0.00000000000E+00 0.  1.
         21    1    1    2  504  502  0.24183720559E+02  0.21202122068E+02  0.93410767248E+02  0.98792478247E+02  0.00000000000E+00 0.  1.
<mgrwt>
<rscale>  2 0.32161815E+02</rscale>
<asrwt>0</asrwt>
<pdfrwt beam="1">  1       21 0.16891020E-01 0.32161815E+02</pdfrwt>
<pdfrwt beam="2">  1       21 0.33200343E-02 0.32161815E+02</pdfrwt>
<totfact> 0.13982268E+07</totfact>
</mgrwt>
</event>
<event>
 4    1  0.4447136E+006  0.2256555E+02  0.7546771E-02  0.1698651E+00
         21   -1    0    0  503  501  0.00000000000E+00  0.00000000000E+00  0.39383005798E+03  0.39383005798E+03  0.00000000000E+00 0.  1.
         21   -1    0    0  504  502 -0.00000000000E+00 -0.00000000000E+00 -0.12043526186E+03  0.12043526186E+03  0.00000000000E+00 0. -1.
         21    1    1    2  503  502 -0.12656156854E+02  0.18682228320E+02 -0.11905129136E+03  0.12117101112E+03  0.00000000000E+00 0. -1.
         21    1    1    2  504  501  0.12656156854E+02 -0.18682228320E+02  0.39244608748E+03  0.39309430871E+03  0.00000000000E+00 0.  1.
<mgrwt>
<rscale>  2 0.22565548E+02</rscale>
<asrwt>0</asrwt>
<pdfrwt beam="1">  1       21 0.60589239E-01 0.22565548E+02</pdfrwt>
<pdfrwt beam="2">  1       21 0.18528502E-01 0.22565548E+02</pdfrwt>
<totfact> 0.75146894E+04</totfact>
</mgrwt>
</event>
<event>
 4    1  0.4447136E+006  0.2286036E+02  0.7546771E-02  0.1693784E+00
         21   -1    0    0  504  501  0.00000000000E+00  0.00000000000E+00  0.17566093998E+04  0.17566093998E+04  0.00000000000E+00 0.  1.
         21   -1    0    0  501  502 -0.00000000000E+00 -0.00000000000E+00 -0.12692387935E+01  0.12692387935E+01  0.00000000000E+00 0.  1.
         21    1    1    2  503  502 -0.20353882378E+02 -0.10407468890E+02  0.10860798952E+03  0.11098779809E+03  0.00000000000E+00 0.  1.
         21    1    1    2  504  503  0.20353882378E+02  0.10407468890E+02  0.16467321715E+04  0.16468908406E+04  0.00000000000E+00 0.  1.
<mgrwt>
<rscale>  2 0.22860357E+02</rscale>
<asrwt>0</asrwt>
<pdfrwt beam="1">  1       21 0.27024565E+00 0.22860357E+02</pdfrwt>
<pdfrwt beam="2">  1       21 0.19526891E-03 0.22860357E+02</pdfrwt>
<totfact> 0.25943462E+06</totfact>
</mgrwt>
</event>
<event>
 4    1  0.4447136E+006  0.2533621E+02  0.7546771E-02  0.1656219E+00
         21   -1    0    0  504  501  0.00000000000E+00  0.00000000000E+00  0.21146992151E+03  0.21146992151E+03  0.00000000000E+00 0. -1.
         21   -1    0    0  503  502 -0.00000000000E+00 -0.00000000000E+00 -0.30724778471E+01  0.30724778471E+01  0.00000000000E+00 0. -1.
         21    1    1    2  503  501  0.16451636822E+02  0.19268288305E+02  0.11596213623E+03  0.11869768459E+03  0.00000000000E+00 0. -1.
         21    1    1    2  504  502 -0.16451636822E+02 -0.19268288305E+02  0.92435307434E+02  0.95844714767E+02  0.00000000000E+00 0. -1.
<mgrwt>
<rscale>  2 0.25336205E+02</rscale>
<asrwt>0</asrwt>
<pdfrwt beam="1">  1       21 0.32533823E-01 0.25336205E+02</pdfrwt>
<pdfrwt beam="2">  1       21 0.47268907E-03 0.25336205E+02</pdfrwt>
<totfact> 0.80579118E+07</totfact>
</mgrwt>
</event>
<event>
 4    1  0.4447136E+006  0.3490224E+02  0.7546771E-02  0.1549470E+00
         21   -1    0    0  503  501  0.00000000000E+00  0.00000000000E+00  0.56335679592E+02  0.56335679592E+02  0.00000000000E+00 0. -1.
         21   -1    0    0  504  502 -0.00000000000E+00 -0.00000000000E+00 -0.47794240757E+03  0.47794240757E+03  0.00000000000E+00 0. -1.
         21    1    1    2  503  502 -0.70018290237E+01  0.34192699636E+02 -0.47182943420E+03  0.47311857002E+03  0.00000000000E+00 0. -1.
         21    1    1    2  504  501  0.70018290237E+01 -0.34192699636E+02  0.50222706218E+02  0.61159517149E+02  0.00000000000E+00 0. -1.
<mgrwt>
<rscale>  2 0.34902239E+02</rscale>
<asrwt>0</asrwt>
<pdfrwt beam="1">  1       21 0.86670277E-02 0.34902239E+02</pdfrwt>
<pdfrwt beam="2">  1       21 0.73529600E-01 0.34902239E+02</pdfrwt>
<totfact> 0.18262332E+05</totfact>
</mgrwt>
</event>
<event>
 4    1  0.4447136E+006  0.2443122E+02  0.7546771E-02  0.1669309E+00
         21   -1    0    0  502  501  0.00000000000E+00  0.00000000000E+00  0.16892589041E+02  0.16892589041E+02  0.00000000000E+00 0. -1.
         21   -1    0    0  504  502 -0.00000000000E+00 -0.00000000000E+00 -0.62209556443E+02  0.62209556443E+02  0.00000000000E+00 0.  1.
         21    1    1    2  503  501  0.24417345669E+02  0.82310703359E+00  0.33375872639E+01  0.24658137875E+02  0.00000000000E+00 0. -1.
         21    1    1    2  504  503 -0.24417345669E+02 -0.82310703359E+00 -0.48654554666E+02  0.54444007609E+02  0.00000000000E+00 0.  1.
<mgrwt>
<rscale>  2 0.24431215E+02</rscale>
<asrwt>0</asrwt>
<pdfrwt beam="1">  1       21 0.25988598E-02 0.24431215E+02</pdfrwt>
<pdfrwt beam="2">  1       21 0.95707011E-02 0.24431215E+02</pdfrwt>
<totfact> 0.50846995E+07</totfact>
</mgrwt>
</event>
<event>
 4    1  0.4447136E+006  0.2334332E+02  0.7546771E-02  0.1686005E+00
         21   -1    0    0  502  501  0.00000000000E+00  0.00000000000E+00  0.88227352046E+01  0.88227352046E+01  0.00000000000E+00 0. -1.
         21   -1    0    0  503  502 -0.00000000000E+00 -0.00000000000E+00 -0.94547248839E+02  0.94547248839E+02  0.00000000000E+00 0. -1.
         21    1    1    2  503  504 -0.15005257746E+01 -0.23295046619E+02 -0.73297620437E+02  0.76924976024E+02  0.00000000000E+00 0. -1.
         21    1    1    2  504  501  0.15005257746E+01  0.23295046619E+02 -0.12426893197E+02  0.26445008019E+02  0.00000000000E+00 0. -1.
<mgrwt>
<rscale>  2 0.23343324E+02</rscale>
<asrwt>0</asrwt>
<pdfrwt beam="1">  1       21 0.13573438E-02 0.23343324E+02</pdfrwt>
<pdfrwt beam="2">  1       21 0.14545731E-01 0.23343324E+02</pdfrwt>
<totfact> 0.67464177E+07</totfact>
</mgrwt>
</event>
<event>
 4    1  0.4447136E+006  0.2197919E+02  0.7546771E-02  0.1708612E+00
         21   -1    0    0  503  501  0.00000000000E+00  0.00000000000E+00  0.29499157366E+02  0.29499157366E+02  0.00000000000E+00 0.  1.
         21   -1    0    0  501  502 -0.00000000000E+00 -0.00000000000E+00 -0.29079878698E+02  0.29079878698E+02  0.00000000000E+00 0. -1.
         21    1    1    2  503  504  0.72402838892E+01  0.20752421975E+02  0.19568523299E+02  0.29428078985E+02  0.00000000000E+00 0.  1.
         21    1    1    2  504  502 -0.72402838892E+01 -0.20752421975E+02 -0.19149244632E+02  0.29150957079E+02  0.00000000000E+00 0. -1.
<mgrwt>
<rscale>  2 0.21979189E+02</rscale>
<asrwt>0</asrwt>
<pdfrwt beam="1">  1       21 0.45383319E-02 0.21979189E+02</pdfrwt>
<pdfrwt beam="2">  1       21 0.44738275E-02 0.21979189E+02</pdfrwt>
<totfact> 0.70490184E+07</totfact>
</mgrwt>
</event>
<event>
 4    1  0.4447136E+006  0.2056874E+02  0.7546771E-02  0.1734249E+00
         21   -1    0    0  504  501  0.00000000000E+00  0.00000000000E+00  0.10083532074E+01  0.10083532074E+01  0.00000000000E+00 0.  1.
         21   -1    0    0  503  502 -0.00000000000E+00 -0.00000000000E+00 -0.84899702446E+03  0.84899702446E+03  0.00000000000E+00 0.  1.
         21    1    1    2  503  501  0.20249542724E+02  0.36095747004E+01 -0.12173191595E+03  0.12345741117E+03  0.00000000000E+00 0.  1.
         21    1    1    2  504  502 -0.20249542724E+02 -0.36095747004E+01 -0.72625675530E+03  0.72654796650E+03  0.00000000000E+00 0.  1.
<mgrwt>
<rscale>  2 0.20568739E+02</rscale>
<asrwt>0</asrwt>
<pdfrwt beam="1">  1       21 0.15513127E-03 0.20568739E+02</pdfrwt>
<pdfrwt beam="2">  1       21 0.13061492E+00 0.20568739E+02</pdfrwt>
<totfact> 0.22810050E+07</totfact>
</mgrwt>
</event>
<event>
 4    1  0.4447136E+006  0.2332641E+02  0.7546771E-02  0.1686273E+00
         21   -1    0    0  504  501  0.00000000000E+00  0.00000000000E+00  0.23824277603E+03  0.23824277603E+03  0.00000000000E+00 0.  1.
         21   -1    0    0  503  502 -0.00000000000E+00 -0.00000000000E+00 -0.45363771090E+01  0.45363771090E+01  0.00000000000E+00 0.  1.
         21    1    1    2  503  501  0.10448277814E+02 -0.20855574636E+02  0.31315515053E+02  0.39048469698E+02  0.00000000000E+00 0.  1.
         21    1    1    2  504  502 -0.10448277814E+02  0.20855574636E+02  0.20239088387E+03  0.20373068344E+03  0.00000000000E+00 0.  1.
<mgrwt>
<rscale>  2 0.23326412E+02</rscale>
<asrwt>0</asrwt>
<pdfrwt beam="1">  1       21 0.36652725E-01 0.23326412E+02</pdfrwt>
<pdfrwt beam="2">  1       21 0.69790436E-03 0.23326412E+02</pdfrwt>
<totfact> 0.35551117E+07</totfact>
</mgrwt>
</event>
<event>
 4    1  0.4447136E+006  0.2079375E+02  0.7546771E-02  0.1729989E+00
         21   -1    0    0  504  501  0.00000000000E+00  0.00000000000E+00  0.22203704135E+02  0.22203704135E+02  0.00000000000E+00 0.  1.
         21   -1    0    0  503  502 -0.00000000000E+00 -0.00000000000E+00 -0.80757507589E+02  0.80757507589E+02  0.00000000000E+00 0. -1.
         21    1    1    2  503  501 -0.19016127146E+02 -0.84122986886E+01 -0.74123180117E+02  0.76984580869E+02  0.00000000000E+00 0. -1.
         21    1    1    2  504  502  0.19016127146E+02  0.84122986886E+01  0.15569376664E+02  0.25976630855E+02  0.00000000000E+00 0.  1.
<mgrwt>
<rscale>  2 0.20793746E+02</rscale>
<asrwt>0</asrwt>
<pdfrwt beam="1">  1       21 0.34159545E-02 0.20793746E+02</pdfrwt>
<pdfrwt beam="2">  1       21 0.12424232E-01 0.20793746E+02</pdfrwt>
<totfact> 0.20710572E+07</totfact>
</mgrwt>
</event>
<event>
 4    1  0.4447136E+006  0.2483158E+02  0.7546771E-02  0.1663433E+00
         21   -1    0    0  502  501  0.00000000000E+00  0.00000000000E+00  0.85389850948E+01  0.85389850948E+01  0.00000000000E+00 0.  1.
         21   -1    0    0  504  502 -0.00000000000E+00 -0.00000000000E+00 -0.76971145638E+02  0.76971145638E+02  0.00000000000E+00 0.  1.
         21    1    1    2  503  501  0.24285264393E+02  0.51800771310E+01 -0.23583439800E+02  0.34245961784E+02  0.00000000000E+00 0.  1.
         21    1    1    2  504  503 -0.24285264393E+02 -0.51800771310E+01 -0.44848720743E+02  0.51264168949E+02  0.00000000000E+00 0.  1.
<mgrwt>
<rscale>  2 0.24831578E+02</rscale>
<asrwt>0</asrwt>
<pdfrwt beam="1">  1       21 0.13136900E-02 0.24831578E+02</pdfrwt>
<pdfrwt beam="2">  1       21 0.11841715E-01 0.24831578E+02</pdfrwt>
<totfact> 0.10201214E+08</totfact>
</mgrwt>
</event>
<event>
 4    1  0.4447136E+006  0.2235586E+02  0.7546771E-02  0.1702169E+00
         21   -1    0    0  504  501  0.00000000000E+00  0.00000000000E+00  0.11410457097E+02  0.11410457097E+02  0.00000000000E+00 0. -1.
         21   -1    0    0  501  502 -0.00000000000E+00 -0.00000000000E+00 -0.87488501281E+02  0.87488501281E+02  0.00000000000E+00 0. -1.
         21    1    1    2  503  502 -0.13602902397E+02 -0.17741071138E+02 -0.72982566856E+02  0.76329808225E+02  0.00000000000E+00 0. -1.
         21    1    1    2  504  503  0.13602902397E+02  0.17741071138E+02 -0.30954773278E+01  0.22569150153E+02  0.00000000000E+00 0. -1.
<mgrwt>
<rscale>  2 0.22355862E+02</rscale>
<asrwt>0</asrwt>
<pdfrwt beam="1">  1       21 0.17554549E-02 0.22355862E+02</pdfrwt>
<pdfrwt beam="2">  1       21 0.13459770E-01 0.22355862E+02</pdfrwt>
<totfact> 0.51438626E+07</totfact>
</mgrwt>
</event>
<event>
 4    1  0.4447136E+006  0.4019104E+02  0.7546771E-02  0.1506810E+00
         21   -1    0    0  503  501  0.00000000000E+00  0.00000000000E+00  0.55788694458E+03  0.55788694458E+03  0.00000000000E+00 0. -1.
         21   -1    0    0  504  502 -0.00000000000E+00 -0.00000000000E+00 -0.29383531464E+01  0.29383531464E+01  0.00000000000E+00 0. -1.
         21    1    1    2  503  502  0.22572819385E+02  0.33253386423E+02  0.31136776105E+03  0.31395095558E+03  0.00000000000E+00 0. -1.
         21    1    1    2  504  501 -0.22572819385E+02 -0.33253386423E+02  0.24358083038E+03  0.24687434215E+03  0.00000000000E+00 0. -1.
<mgrwt>
<rscale>  2 0.40191042E+02</rscale>
<asrwt>0</asrwt>
<pdfrwt beam="1">  1       21 0.85828677E-01 0.40191042E+02</pdfrwt>
<pdfrwt beam="2">  1       21 0.45205477E-03 0.40191042E+02</pdfrwt>
<totfact> 0.13539860E+07</totfact>
</mgrwt>
</event>
<event>
 4    1  0.4447136E+006  0.2055204E+02  0.7546771E-02  0.1734568E+00
         21   -1    0    0  502  501  0.00000000000E+00  0.00000000000E+00  0.37037489142E+02  0.37037489142E+02  0.00000000000E+00 0. -1.
         21   -1    0    0  504  502 -0.00000000000E+00 -0.00000000000E+00 -0.10247756856E+04  0.10247756856E+04  0.00000000000E+00 0.  1.
         21    1    1    2  503  501  0.13165704426E+02 -0.15781335488E+02  0.34075107833E+02  0.39793206664E+02  0.00000000000E+00 0. -1.
         21    1    1    2  504  503 -0.13165704426E+02  0.15781335488E+02 -0.10218133043E+04  0.10220199681E+04  0.00000000000E+00 0.  1.
<mgrwt>
<rscale>  2 0.20552039E+02</rscale>
<asrwt>0</asrwt>
<pdfrwt beam="1">  1       21 0.56980754E-02 0.20552039E+02</pdfrwt>
<pdfrwt beam="2">  1       21 0.15765779E+00 0.20552039E+02</pdfrwt>
<totfact> 0.66207790E+04</totfact>
</mgrwt>
</event>
<event>
 4    1  0.4447136E+006  0.2657740E+02  0.7546771E-02  0.1639327E+00
         21   -1    0    0  503  501  0.00000000000E+00  0.00000000000E+00  0.13670787736E+03  0.13670787736E+03  0.00000000000E+00 0.  1.
         21   -1    0    0  504  502 -0.00000000000E+00 -0.00000000000E+00 -0.21541757748E+02  0.21541757748E+02  0.00000000000E+00 0.  1.
         21    1    1    2  503  502  0.65181566743E+01  0.25765713087E+02 -0.11402896242E+02  0.28920310856E+02  0.00000000000E+00 0.  1.
         21    1    1    2  504  501 -0.65181566743E+01 -0.25765713087E+02  0.12656901586E+03  0.12932932426E+03  0.00000000000E+00 0.  1.
<mgrwt>
<rscale>  2 0.26577403E+02</rscale>
<asrwt>0</asrwt>
<pdfrwt beam="1">  1       21 0.21031981E-01 0.26577403E+02</pdfrwt>
<pdfrwt beam="2">  1       21 0.33141167E-02 0.26577403E+02</pdfrwt>
<totfact> 0.92465347E+06</totfact>
</mgrwt>
</event>
<event>
 4    1  0.4447136E+006  0.3299867E+02  0.7546771E-02  0.1567127E+00
         21   -1    0    0  504  501  0.00000000000E+00  0.00000000000E+00  0.85062230663E+03  0.85062230663E+03  0.00000000000E+00 0. -1.
         21   -1    0    0  503  502 -0.00000000000E+00 -0.00000000000E+00 -0.41174234248E+01  0.41174234248E+01  0.00000000000E+00 0.  1.
         21    1    1    2  503  501 -0.23565144883E+02  0.23099702951E+02  0.68485790446E+02  0.76021153785E+02  0.00000000000E+00 0.  1.
         21    1    1    2  504  502  0.23565144883E+02 -0.23099702951E+02  0.77801909276E+03  0.77871857627E+03  0.00000000000E+00 0. -1.
<mgrwt>
<rscale>  2 0.32998672E+02</rscale>
<asrwt>0</asrwt>
<pdfrwt beam="1">  1       21 0.13086483E+00 0.32998672E+02</pdfrwt>
<pdfrwt beam="2">  1       21 0.63345044E-03 0.32998672E+02</pdfrwt>
<totfact> 0.30841901E+06</totfact>
</mgrwt>
</event>
<event>
 4    1  0.4447136E+006  0.2218559E+02  0.7546771E-02  0.1705062E+00
         21   -1    0    0  503  501  0.00000000000E+00  0.00000000000E+00  0.52927527071E+02  0.52927527071E+02  0.00000000000E+00 0. -1.
         21   -1    0    0  504  502 -0.00000000000E+00 -0.00000000000E+00 -0.13635732794E+02  0.13635732794E+02  0.00000000000E+00 0. -1.
         21    1    1    2  503  502  0.89620678204E+01 -0.20294866573E+02  0.38414024825E+02  0.44360315284E+02  0.00000000000E+00 0. -1.
         21    1    1    2  504  501 -0.89620678204E+01  0.20294866573E+02  0.87776945276E+00  0.22202944581E+02  0.00000000000E+00 0. -1.
<mgrwt>
<rscale>  2 0.22185587E+02</rscale>
<asrwt>0</asrwt>
<pdfrwt beam="1">  1       21 0.81426963E-02 0.22185587E+02</pdfrwt>
<pdfrwt beam="2">  1       21 0.20978051E-02 0.22185587E+02</pdfrwt>
<totfact> 0.89894734E+07</totfact>
</mgrwt>
</event>
<event>
 4    1  0.4447136E+006  0.2778466E+02  0.7546771E-02  0.1623952E+00
         21   -1    0    0  503  501  0.00000000000E+00  0.00000000000E+00  0.25896620587E+02  0.25896620587E+02  0.00000000000E+00 0. -1.
         21   -1    0    0  504  502 -0.00000000000E+00 -0.00000000000E+00 -0.29907019748E+02  0.29907019748E+02  0.00000000000E+00 0. -1.
         21    1    1    2  503  502  0.15013180655E+02 -0.23379298487E+02 -0.35915632103E+01  0.28015826195E+02  0.00000000000E+00 0. -1.
         21    1    1    2  504  501 -0.15013180655E+02  0.23379298487E+02 -0.41883595094E+00  0.27787814140E+02  0.00000000000E+00 0. -1.
<mgrwt>
<rscale>  2 0.27784657E+02</rscale>
<asrwt>0</asrwt>
<pdfrwt beam="1">  1       21 0.39840955E-02 0.27784657E+02</pdfrwt>
<pdfrwt beam="2">  1       21 0.46010800E-02 0.27784657E+02</pdfrwt>
<totfact> 0.88201783E+07</totfact>
</mgrwt>
</event>
<event>
 4    1  0.4447136E+006  0.2465215E+02  0.7546771E-02  0.1666049E+00
         21   -1    0    0  504  501  0.00000000000E+00  0.00000000000E+00  0.46573918560E+02  0.46573918560E+02  0.00000000000E+00 0.  1.
         21   -1    0    0  503  502 -0.00000000000E+00 -0.00000000000E+00 -0.29658137278E+02  0.29658137278E+02  0.00000000000E+00 0. -1.
         21    1    1    2  503  501  0.24215237661E+02 -0.46206848305E+01  0.36982081689E+02  0.44445504039E+02  0.00000000000E+00 0.  1.
         21    1    1    2  504  502 -0.24215237661E+02  0.46206848305E+01 -0.20066300407E+02  0.31786551799E+02  0.00000000000E+00 0. -1.
<mgrwt>
<rscale>  2 0.24652149E+02</rscale>
<asrwt>0</asrwt>
<pdfrwt beam="1">  1       21 0.71652183E-02 0.24652149E+02</pdfrwt>
<pdfrwt beam="2">  1       21 0.45627903E-02 0.24652149E+02</pdfrwt>
<totfact> 0.33842913E+07</totfact>
</mgrwt>
</event>
<event>
 4    1  0.4447136E+006  0.2209477E+02  0.7546771E-02  0.1706618E+00
         21   -1    0    0  504  501  0.00000000000E+00  0.00000000000E+00  0.45729154054E+03  0.45729154054E+03  0.00000000000E+00 0.  1.
         21   -1    0    0  503  502 -0.00000000000E+00 -0.00000000000E+00 -0.11430086515E+01  0.11430086515E+01  0.00000000000E+00 0.  1.
         21    1    1    2  503  501  0.22056901325E+02 -0.12929879227E+01  0.16917699565E+03  0.17061369983E+03  0.00000000000E+00 0.  1.
         21    1    1    2  504  502 -0.22056901325E+02  0.12929879227E+01  0.28697153623E+03  0.28782084935E+03  0.00000000000E+00 0.  1.
<mgrwt>
<rscale>  2 0.22094767E+02</rscale>
<asrwt>0</asrwt>
<pdfrwt beam="1">  1       21 0.70352399E-01 0.22094767E+02</pdfrwt>
<pdfrwt beam="2">  1       21 0.17584785E-03 0.22094767E+02</pdfrwt>
<totfact> 0.73845447E+07</totfact>
</mgrwt>
</event>
<event>
 4    1  0.4447136E+006  0.2507375E+02  0.7546771E-02  0.1659945E+00
         21   -1    0    0  504  501  0.00000000000E+00  0.00000000000E+00  0.14373510448E+02  0.14373510448E+02  0.00000000000E+00 0.  1.
         21   -1    0    0  503  502 -0.00000000000E+00 -0.00000000000E+00 -0.46859669326E+02  0.46859669326E+02  0.00000000000E+00 0. -1.
         21    1    1    2  503  501  0.13998468023E+01 -0.25034641681E+02 -0.83429675940E+01  0.26425328067E+02  0.00000000000E+00 0.  1.
         21    1    1    2  504  502 -0.13998468023E+01  0.25034641681E+02 -0.24143191283E+02  0.34807851707E+02  0.00000000000E+00 0. -1.
<mgrwt>
<rscale>  2 0.25073748E+02</rscale>
<asrwt>0</asrwt>
<pdfrwt beam="1">  1       21 0.22113093E-02 0.25073748E+02</pdfrwt>
<pdfrwt beam="2">  1       21 0.72091799E-02 0.25073748E+02</pdfrwt>
<totfact> 0.10460951E+08</totfact>
</mgrwt>
</event>
<event>
 4    1  0.4447136E+006  0.2339315E+02  0.7546771E-02  0.1685215E+00
         21   -1    0    0  504  501  0.00000000000E+00  0.00000000000E+00  0.12739311427E+02  0.12739311427E+02  0.00000000000E+00 0.  1.
         21   -1    0    0  503  502 -0.00000000000E+00 -0.00000000000E+00 -0.14126014550E+04  0.14126014550E+04  0.00000000000E+00 0.  1.
         21    1    1    2  503  501  0.21860924540E+02 -0.83270306582E+01  0.18196164514E+01  0.23463811825E+02  0.00000000000E+00 0.  1.
         21    1    1    2  504  502 -0.21860924540E+02  0.83270306582E+01 -0.14016817600E+04  0.14018769546E+04  0.00000000000E+00 0.  1.
<mgrwt>
<rscale>  2 0.23393150E+02</rscale>
<asrwt>0</asrwt>
<pdfrwt beam="1">  1       21 0.19598950E-02 0.23393150E+02</pdfrwt>
<pdfrwt beam="2">  1       21 0.21732320E+00 0.23393150E+02</pdfrwt>
<totfact> 0.15615326E+05</totfact>
</mgrwt>
</event>
<event>
 4    1  0.4447136E+006  0.2477852E+02  0.7546771E-02  0.1664204E+00
         21   -1    0    0  503  501  0.00000000000E+00  0.00000000000E+00  0.38185512728E+03  0.38185512728E+03  0.00000000000E+00 0. -1.
         21   -1    0    0  504  502 -0.00000000000E+00 -0.00000000000E+00 -0.66776058574E+01  0.66776058574E+01  0.00000000000E+00 0.  1.
         21    1    1    2  503  502 -0.41890156428E+01  0.24421863519E+02  0.35685863965E+03  0.35771785525E+03  0.00000000000E+00 0. -1.
         21    1    1    2  504  501  0.41890156428E+01 -0.24421863519E+02  0.18318881765E+02  0.30814877883E+02  0.00000000000E+00 0.  1.
<mgrwt>
<rscale>  2 0.24778524E+02</rscale>
<asrwt>0</asrwt>
<pdfrwt beam="1">  1       21 0.58746926E-01 0.24778524E+02</pdfrwt>
<pdfrwt beam="2">  1       21 0.10273243E-02 0.24778524E+02</pdfrwt>
<totfact> 0.81190583E+06</totfact>
</mgrwt>
</event>
<event>
 4    1  0.4447136E+006  0.2266090E+02  0.7546771E-02  0.1697067E+00
         21   -1    0    0  504  501  0.00000000000E+00  0.00000000000E+00  0.73272144767E+01  0.73272144767E+01  0.00000000000E+00 0.  1.
         21   -1    0    0  501  502 -0.00000000000E+00 -0.00000000000E+00 -0.58578216271E+03  0.58578216271E+03  0.00000000000E+00 0.  1.
         21    1    1    2  503  502  0.14232495029E+01 -0.22616161317E+02 -0.56747720391E+03  0.56792947920E+03  0.00000000000E+00 0.  1.
         21    1    1    2  504  503 -0.14232495029E+01  0.22616161317E+02 -0.10977744320E+02  0.25179897979E+02  0.00000000000E+00 0.  1.
<mgrwt>
<rscale>  2 0.22660900E+02</rscale>
<asrwt>0</asrwt>
<pdfrwt beam="1">  1       21 0.11272634E-02 0.22660900E+02</pdfrwt>
<pdfrwt beam="2">  1       21 0.90120359E-01 0.22660900E+02</pdfrwt>
<totfact> 0.28767708E+06</totfact>
</mgrwt>
</event>
<event>
 4    1  0.4447136E+006  0.2332717E+02  0.7546771E-02  0.1686261E+00
         21   -1    0    0  503  501  0.00000000000E+00  0.00000000000E+00  0.44608487499E+01  0.44608487499E+01  0.00000000000E+00 0.  1.
         21   -1    0    0  504  502 -0.00000000000E+00 -0.00000000000E+00 -0.19082165595E+03  0.19082165595E+03  0.00000000000E+00 0.  1.
         21    1    1    2  503  502 -0.22462592868E+02  0.62919548652E+01 -0.34535632657E+02  0.41675732716E+02  0.00000000000E+00 0.  1.
         21    1    1    2  504  501  0.22462592868E+02 -0.62919548652E+01 -0.15182517454E+03  0.15360677198E+03  0.00000000000E+00 0.  1.
<mgrwt>
<rscale>  2 0.23327168E+02</rscale>
<asrwt>0</asrwt>
<pdfrwt beam="1">  1       21 0.68628459E-03 0.23327168E+02</pdfrwt>
<pdfrwt beam="2">  1       21 0.29357171E-01 0.23327168E+02</pdfrwt>
<totfact> 0.54827080E+07</totfact>
</mgrwt>
</event>
<event>
 4    1  0.4447136E+006  0.2642037E+02  0.7546771E-02  0.1641401E+00
         21   -1    0    0  504  501  0.00000000000E+00  0.00000000000E+00  0.10892891349E+03  0.10892891349E+03  0.00000000000E+00 0. -1.
         21   -1    0    0  503  502 -0.00000000000E+00 -0.00000000000E+00 -0.13515384553E+03  0.13515384553E+03  0.00000000000E+00 0. -1.
         21    1    1    2  503  501 -0.31807660793E+01 -0.26228200181E+02  0.10600054903E+03  0.10924354513E+03  0.00000000000E+00 0. -1.
         21    1    1    2  504  502  0.31807660793E+01  0.26228200181E+02 -0.13222548107E+03  0.13483921389E+03  0.00000000000E+00 0. -1.
<mgrwt>
<rscale>  2 0.26420366E+02</rscale>
<asrwt>0</asrwt>
<pdfrwt beam="1">  1       21 0.16758294E-01 0.26420366E+02</pdfrwt>
<pdfrwt beam="2">  1       21 0.20792899E-01 0.26420366E+02</pdfrwt>
<totfact> 0.66141671E+05</totfact>
</mgrwt>
</event>
<event>
 4    1  0.4447136E+006  0.2602288E+02  0.7546771E-02  0.1646730E+00
         21   -1    0    0  503  501  0.00000000000E+00  0.00000000000E+00  0.11461149370E+03  0.11461149370E+03  0.00000000000E+00 0.  1.
         21   -1    0    0  504  502 -0.00000000000E+00 -0.00000000000E+00 -0.13236199272E+02  0.13236199272E+02  0.00000000000E+00 0. -1.
         21    1    1    2  503  502  0.21866169123E+02  0.14108899632E+02  0.31253414174E+01  0.26209886682E+02  0.00000000000E+00 0. -1.
         21    1    1    2  504  501 -0.21866169123E+02 -0.14108899632E+02  0.98249953013E+02  0.10163780629E+03  0.00000000000E+00 0.  1.
<mgrwt>
<rscale>  2 0.26022882E+02</rscale>
<asrwt>0</asrwt>
<pdfrwt beam="1">  1       21 0.17632537E-01 0.26022882E+02</pdfrwt>
<pdfrwt beam="2">  1       21 0.20363384E-02 0.26022882E+02</pdfrwt>
<totfact> 0.26755162E+07</totfact>
</mgrwt>
</event>
<event>
 4    1  0.4447136E+006  0.4087878E+02  0.7546771E-02  0.1501842E+00
         21   -1    0    0  503  501  0.00000000000E+00  0.00000000000E+00  0.22134774318E+03  0.22134774318E+03  0.00000000000E+00 0.  1.
         21   -1    0    0  504  502 -0.00000000000E+00 -0.00000000000E+00 -0.13825453017E+02  0.13825453017E+02  0.00000000000E+00 0. -1.
         21    1    1    2  503  502  0.16724954590E+02 -0.37300809636E+02  0.18298508986E+03  0.18749564693E+03  0.00000000000E+00 0.  1.
         21    1    1    2  504  501 -0.16724954590E+02  0.37300809636E+02  0.24537200301E+02  0.47677549268E+02  0.00000000000E+00 0. -1.
<mgrwt>
<rscale>  2 0.40878778E+02</rscale>
<asrwt>0</asrwt>
<pdfrwt beam="1">  1       21 0.34053497E-01 0.40878778E+02</pdfrwt>
<pdfrwt beam="2">  1       21 0.21269929E-02 0.40878778E+02</pdfrwt>
<totfact> 0.82006851E+06</totfact>
</mgrwt>
</event>
<event>
 4    1  0.4447136E+006  0.3337151E+02  0.7546771E-02  0.1563556E+00
         21   -1    0    0  503  501  0.00000000000E+00  0.00000000000E+00  0.65932139065E+02  0.65932139065E+02  0.00000000000E+00 0. -1.
         21   -1    0    0  504  502 -0.00000000000E+00 -0.00000000000E+00 -0.21159296826E+02  0.21159296826E+02  0.00000000000E+00 0.  1.
         21    1    1    2  503  502  0.24276490712E+02  0.22897809101E+02  0.41944390658E+02  0.53600275845E+02  0.00000000000E+00 0. -1.
         21    1    1    2  504  501 -0.24276490712E+02 -0.22897809101E+02  0.28284515812E+01  0.33491160047E+02  0.00000000000E+00 0.  1.
<mgrwt>
<rscale>  2 0.33371510E+02</rscale>
<asrwt>0</asrwt>
<pdfrwt beam="1">  1       21 0.10143406E-01 0.33371510E+02</pdfrwt>
<pdfrwt beam="2">  1       21 0.32552765E-02 0.33371510E+02</pdfrwt>
<totfact> 0.34729606E+07</totfact>
</mgrwt>
</event>
<event>
 4    1  0.4447136E+006  0.2215996E+02  0.7546771E-02  0.1705500E+00
         21   -1    0    0  504  501  0.00000000000E+00  0.00000000000E+00  0.24894937100E+01  0.24894937100E+01  0.00000000000E+00 0. -1.
         21   -1    0    0  503  502 -0.00000000000E+00 -0.00000000000E+00 -0.21106878206E+03  0.21106878206E+03  0.00000000000E+00 0. -1.
         21    1    1    2  503  501 -0.21227678557E+02  0.63599964132E+01 -0.13160697266E+03  0.13345957869E+03  0.00000000000E+00 0. -1.
         21    1    1    2  504  502  0.21227678557E+02 -0.63599964132E+01 -0.76972315687E+02  0.80098697078E+02  0.00000000000E+00 0. -1.
<mgrwt>
<rscale>  2 0.22159961E+02</rscale>
<asrwt>0</asrwt>
<pdfrwt beam="1">  1       21 0.38299886E-03 0.22159961E+02</pdfrwt>
<pdfrwt beam="2">  1       21 0.32472135E-01 0.22159961E+02</pdfrwt>
<totfact> 0.10641431E+08</totfact>
</mgrwt>
</event>
<event>
 4    1  0.4447136E+006  0.2699295E+02  0.7546771E-02  0.1633923E+00
         21   -1    0    0  504  501  0.00000000000E+00  0.00000000000E+00  0.12395708487E+04  0.12395708487E+04  0.00000000000E+00 0.  1.
         21   -1    0    0  503  502 -0.00000000000E+00 -0.00000000000E+00 -0.42539565176E+01  0.42539565176E+01  0.00000000000E+00 0. -1.
         21    1    1    2  503  501 -0.26102259423E+02 -0.68768817161E+01  0.11950071696E+04  0.11953119906E+04  0.00000000000E+00 0.  1.
         21    1    1    2  504  502  0.26102259423E+02  0.68768817161E+01  0.40309722617E+02  0.48512814664E+02  0.00000000000E+00 0. -1.
<mgrwt>
<rscale>  2 0.26992952E+02</rscale>
<asrwt>0</asrwt>
<pdfrwt beam="1">  1       21 0.19070292E+00 0.26992952E+02</pdfrwt>
<pdfrwt beam="2">  1       21 0.65445584E-03 0.26992952E+02</pdfrwt>
<totfact> 0.11545340E+06</totfact>
</mgrwt>
</event>
<event>
 4    1  0.4447136E+006  0.2646634E+02  0.7546771E-02  0.1640792E+00
         21   -1    0    0  504  501  0.00000000000E+00  0.00000000000E+00  0.34774227201E+03  0.34774227201E+03  0.00000000000E+00 0.  1.
         21   -1    0    0  503  502 -0.00000000000E+00 -0.00000000000E+00 -0.21081446795E+02  0.21081446795E+02  0.00000000000E+00 0.  1.
         21    1    1    2  503  501 -0.76502597866E+01 -0.25336547430E+02 -0.12050034485E+02  0.29080413367E+02  0.00000000000E+00 0.  1.
         21    1    1    2  504  502  0.76502597866E+01  0.25336547430E+02  0.33871085971E+03  0.33974330544E+03  0.00000000000E+00 0.  1.
<mgrwt>
<rscale>  2 0.26466339E+02</rscale>
<asrwt>0</asrwt>
<pdfrwt beam="1">  1       21 0.53498807E-01 0.26466339E+02</pdfrwt>
<pdfrwt beam="2">  1       21 0.32432998E-02 0.26466339E+02</pdfrwt>
<totfact> 0.16853191E+06</totfact>
</mgrwt>
</event>
<event>
 4    1  0.4447136E+006  0.2157541E+02  0.7546771E-02  0.1715700E+00
         21   -1    0    0  503  501  0.00000000000E+00  0.00000000000E+00  0.38010010079E+03  0.38010010079E+03  0.00000000000E+00 0.  1.
         21   -1    0    0  504  502 -0.00000000000E+00 -0.00000000000E+00 -0.12246772878E+01  0.12246772878E+01  0.00000000000E+00 0.  1.
         21    1    1    2  503  502  0.91475681555E+01 -0.19540217449E+02  0.18981877107E+03  0.19104100070E+03  0.00000000000E+00 0.  1.
         21    1    1    2  504  501 -0.91475681555E+01  0.19540217449E+02  0.18905665244E+03  0.19028377737E+03  0.00000000000E+00 0.  1.
<mgrwt>
<rscale>  2 0.21575405E+02</rscale>
<asrwt>0</asrwt>
<pdfrwt beam="1">  1       21 0.58476844E-01 0.21575405E+02</pdfrwt>
<pdfrwt beam="2">  1       21 0.18841219E-03 0.21575405E+02</pdfrwt>
<totfact> 0.96493649E+07</totfact>
</mgrwt>
</event>
<event>
 4    1  0.4447136E+006  0.2858665E+02  0.7546771E-02  0.1614258E+00
         21   -1    0    0  503  501  0.00000000000E+00  0.00000000000E+00  0.12007032362E+04  0.12007032362E+04  0.00000000000E+00 0.  1.
         21   -1    0    0  504  502 -0.00000000000E+00 -0.00000000000E+00 -0.69547850654E+00  0.69547850654E+00  0.00000000000E+00 0. -1.
         21    1    1    2  503  502 -0.16860028827E+02  0.23085404159E+02  0.51213778913E+03  0.51293499735E+03  0.00000000000E+00 0.  1.
         21    1    1    2  504  501  0.16860028827E+02 -0.23085404159E+02  0.68786996858E+03  0.68846371737E+03  0.00000000000E+00 0. -1.
<mgrwt>
<rscale>  2 0.28586648E+02</rscale>
<asrwt>0</asrwt>
<pdfrwt beam="1">  1       21 0.18472192E+00 0.28586648E+02</pdfrwt>
<pdfrwt beam="2">  1       21 0.10699765E-03 0.28586648E+02</pdfrwt>
<totfact> 0.17785695E+07</totfact>
</mgrwt>
</event>
<event>
 4    1  0.4447136E+006  0.3127890E+02  0.7546771E-02  0.1584368E+00
         21   -1    0    0  504  501  0.00000000000E+00  0.00000000000E+00  0.55563757341E+02  0.55563757341E+02  0.00000000000E+00 0.  1.
         21   -1    0    0  503  502 -0.00000000000E+00 -0.00000000000E+00 -0.25520698830E+03  0.25520698830E+03  0.00000000000E+00 0.  1.
         21    1    1    2  503  501  0.31014085016E+02 -0.40615722499E+01 -0.24975077066E+03  0.25170184203E+03  0.00000000000E+00 0.  1.
         21    1    1    2  504  502 -0.31014085016E+02  0.40615722499E+01  0.50107539700E+02  0.59068903607E+02  0.00000000000E+00 0.  1.
<mgrwt>
<rscale>  2 0.31278904E+02</rscale>
<asrwt>0</asrwt>
<pdfrwt beam="1">  1       21 0.85482702E-02 0.31278904E+02</pdfrwt>
<pdfrwt beam="2">  1       21 0.39262614E-01 0.31278904E+02</pdfrwt>
<totfact> 0.65249931E+05</totfact>
</mgrwt>
</event>
<event>
 4    1  0.4447136E+006  0.2415315E+02  0.7546771E-02  0.1673472E+00
         21   -1    0    0  504  501  0.00000000000E+00  0.00000000000E+00  0.84522129809E+01  0.84522129809E+01  0.00000000000E+00 0.  1.
         21   -1    0    0  503  502 -0.00000000000E+00 -0.00000000000E+00 -0.43640984079E+03  0.43640984079E+03  0.00000000000E+00 0.  1.
         21    1    1    2  503  501 -0.55957419596E+00  0.24146662435E+02 -0.98936274311E+01  0.26100925152E+02  0.00000000000E+00 0.  1.
         21    1    1    2  504  502  0.55957419596E+00 -0.24146662435E+02 -0.41806400038E+03  0.41876112862E+03  0.00000000000E+00 0.  1.
<mgrwt>
<rscale>  2 0.24153145E+02</rscale>
<asrwt>0</asrwt>
<pdfrwt beam="1">  1       21 0.13003401E-02 0.24153145E+02</pdfrwt>
<pdfrwt beam="2">  1       21 0.67139996E-01 0.24153145E+02</pdfrwt>
<totfact> 0.43253819E+06</totfact>
</mgrwt>
</event>
<event>
 4    1  0.4447136E+006  0.3879474E+02  0.7546771E-02  0.1517273E+00
         21   -1    0    0  502  501  0.00000000000E+00  0.00000000000E+00  0.89943000269E+01  0.89943000269E+01  0.00000000000E+00 0.  1.
         21   -1    0    0  503  502 -0.00000000000E+00 -0.00000000000E+00 -0.52550435142E+03  0.52550435142E+03  0.00000000000E+00 0.  1.
         21    1    1    2  503  504  0.27331202123E+02 -0.27532471366E+02 -0.47889015713E+03  0.48045896202E+03  0.00000000000E+00 0.  1.
         21    1    1    2  504  501 -0.27331202123E+02  0.27532471366E+02 -0.37619894262E+02  0.54039689426E+02  0.00000000000E+00 0.  1.
<mgrwt>
<rscale>  2 0.38794737E+02</rscale>
<asrwt>0</asrwt>
<pdfrwt beam="1">  1       21 0.13837382E-02 0.38794737E+02</pdfrwt>
<pdfrwt beam="2">  1       21 0.80846837E-01 0.38794737E+02</pdfrwt>
<totfact> 0.28064704E+06</totfact>
</mgrwt>
</event>
<event>
 4    1  0.4447136E+006  0.2722656E+02  0.7546771E-02  0.1630938E+00
         21   -1    0    0  503  501  0.00000000000E+00  0.00000000000E+00  0.37893449762E+02  0.37893449762E+02  0.00000000000E+00 0. -1.
         21   -1    0    0  504  502 -0.00000000000E+00 -0.00000000000E+00 -0.83910717066E+02  0.83910717066E+02  0.00000000000E+00 0. -1.
         21    1    1    2  503  502 -0.11297155312E+02 -0.24772162305E+02  0.30323888954E+02  0.40753208275E+02  0.00000000000E+00 0. -1.
         21    1    1    2  504  501  0.11297155312E+02  0.24772162305E+02 -0.76341156259E+02  0.81050958553E+02  0.00000000000E+00 0. -1.
<mgrwt>
<rscale>  2 0.27226563E+02</rscale>
<asrwt>0</asrwt>
<pdfrwt beam="1">  1       21 0.58297615E-02 0.27226563E+02</pdfrwt>
<pdfrwt beam="2">  1       21 0.12909341E-01 0.27226563E+02</pdfrwt>
<totfact> 0.87775543E+06</totfact>
</mgrwt>
</event>
<event>
 4    1  0.4447136E+006  0.2332028E+02  0.7546771E-02  0.1686371E+00
         21   -1    0    0  503  501  0.00000000000E+00  0.00000000000E+00  0.14281596935E+02  0.14281596935E+02  0.00000000000E+00 0.  1.
         21   -1    0    0  504  502 -0.00000000000E+00 -0.00000000000E+00 -0.48219153558E+02  0.48219153558E+02  0.00000000000E+00 0.  1.
         21    1    1    2  503  502 -0.16027320220E+02 -0.16939902405E+02 -0.31299173884E+02  0.39031699588E+02  0.00000000000E+00 0.  1.
         21    1    1    2  504  501  0.16027320220E+02  0.16939902405E+02 -0.26383827381E+01  0.23469050905E+02  0.00000000000E+00 0.  1.
<mgrwt>
<rscale>  2 0.23320276E+02</rscale>
<asrwt>0</asrwt>
<pdfrwt beam="1">  1       21 0.21971687E-02 0.23320276E+02</pdfrwt>
<pdfrwt beam="2">  1       21 0.74183314E-02 0.23320276E+02</pdfrwt>
<totfact> 0.98830717E+07</totfact>
</mgrwt>
</event>
<event>
 4    1  0.4447136E+006  0.2094374E+02  0.7546771E-02  0.1727187E+00
         21   -1    0    0  504  501  0.00000000000E+00  0.00000000000E+00  0.70215918266E+02  0.70215918266E+02  0.00000000000E+00 0. -1.
         21   -1    0    0  503  502 -0.00000000000E+00 -0.00000000000E+00 -0.13699097969E+03  0.13699097969E+03  0.00000000000E+00 0. -1.
         21    1    1    2  503  501  0.10916771742E+02 -0.17873566434E+02 -0.13460117066E+03  0.13622083330E+03  0.00000000000E+00 0. -1.
         21    1    1    2  504  502 -0.10916771742E+02  0.17873566434E+02  0.67826109231E+02  0.70986064659E+02  0.00000000000E+00 0. -1.
<mgrwt>
<rscale>  2 0.20943741E+02</rscale>
<asrwt>0</asrwt>
<pdfrwt beam="1">  1       21 0.10802449E-01 0.20943741E+02</pdfrwt>
<pdfrwt beam="2">  1       21 0.21075535E-01 0.20943741E+02</pdfrwt>
<totfact> 0.13287270E+06</totfact>
</mgrwt>
</event>
<event>
 4    1  0.4447136E+006  0.2689619E+02  0.7546771E-02  0.1635171E+00
         21   -1    0    0  503  501  0.00000000000E+00  0.00000000000E+00  0.11592704011E+03  0.11592704011E+03  0.00000000000E+00 0. -1.
         21   -1    0    0  501  502 -0.00000000000E+00 -0.00000000000E+00 -0.31079146335E+02  0.31079146335E+02  0.00000000000E+00 0.  1.
         21    1    1    2  503  504 -0.94794228614E+01  0.25170328442E+02  0.10813491835E+03  0.11142964354E+03  0.00000000000E+00 0. -1.
         21    1    1    2  504  502  0.94794228614E+01 -0.25170328442E+02 -0.23287024577E+02  0.35576542909E+02  0.00000000000E+00 0.  1.
<mgrwt>
<rscale>  2 0.26896187E+02</rscale>
<asrwt>0</asrwt>
<pdfrwt beam="1">  1       21 0.17834929E-01 0.26896187E+02</pdfrwt>
<pdfrwt beam="2">  1       21 0.47814072E-02 0.26896187E+02</pdfrwt>
<totfact> 0.69171212E+06</totfact>
</mgrwt>
</event>
<event>
 4    1  0.4447136E+006  0.2203188E+02  0.7546771E-02  0.1707701E+00
         21   -1    0    0  504  501  0.00000000000E+00  0.00000000000E+00  0.48385452179E+01  0.48385452179E+01  0.00000000000E+00 0.  1.
         21   -1    0    0  503  502 -0.00000000000E+00 -0.00000000000E+00 -0.13147712960E+03  0.13147712960E+03  0.00000000000E+00 0. -1.
         21    1    1    2  503  501  0.62052298726E+01  0.21139978952E+02 -0.96498679472E+02  0.98981810085E+02  0.00000000000E+00 0. -1.
         21    1    1    2  504  502 -0.62052298726E+01 -0.21139978952E+02 -0.30139904909E+02  0.37333864731E+02  0.00000000000E+00 0.  1.
<mgrwt>
<rscale>  2 0.22031877E+02</rscale>
<asrwt>0</asrwt>
<pdfrwt beam="1">  1       21 0.74439165E-03 0.22031877E+02</pdfrwt>
<pdfrwt beam="2">  1       21 0.20227248E-01 0.22031877E+02</pdfrwt>
<totfact> 0.92812132E+07</totfact>
</mgrwt>
</event>
<event>
 4    1  0.4447136E+006  0.2594944E+02  0.7546771E-02  0.1647728E+00
         21   -1    0    0  504  501  0.00000000000E+00  0.00000000000E+00  0.38382763036E+02  0.38382763036E+02  0.00000000000E+00 0. -1.
         21   -1    0    0  501  502 -0.00000000000E+00 -0.00000000000E+00 -0.22016335419E+02  0.22016335419E+02  0.00000000000E+00 0. -1.
         21    1    1    2  503  502  0.25934823855E+02 -0.87073843133E+00 -0.54284977248E+01  0.26511164843E+02  0.00000000000E+00 0. -1.
         21    1    1    2  504  503 -0.25934823855E+02  0.87073843133E+00  0.21794925341E+02  0.33887933611E+02  0.00000000000E+00 0. -1.
<mgrwt>
<rscale>  2 0.25949437E+02</rscale>
<asrwt>0</asrwt>
<pdfrwt beam="1">  1       21 0.59050405E-02 0.25949437E+02</pdfrwt>
<pdfrwt beam="2">  1       21 0.33871285E-02 0.25949437E+02</pdfrwt>
<totfact> 0.75049283E+07</totfact>
</mgrwt>
</event>
<event>
 4    1  0.4447136E+006  0.2538984E+02  0.7546771E-02  0.1655465E+00
         21   -1    0    0  503  501  0.00000000000E+00  0.00000000000E+00  0.14827268806E+02  0.14827268806E+02  0.00000000000E+00 0.  1.
         21   -1    0    0  504  502 -0.00000000000E+00 -0.00000000000E+00 -0.46456453188E+02  0.46456453188E+02  0.00000000000E+00 0.  1.
         21    1    1    2  503  502  0.98743531300E+01 -0.23391050353E+02 -0.80545210514E+01  0.26636805284E+02  0.00000000000E+00 0.  1.
         21    1    1    2  504  501 -0.98743531300E+01  0.23391050353E+02 -0.23574663331E+02  0.34646916710E+02  0.00000000000E+00 0.  1.
<mgrwt>
<rscale>  2 0.25389842E+02</rscale>
<asrwt>0</asrwt>
<pdfrwt beam="1">  1       21 0.22811183E-02 0.25389842E+02</pdfrwt>
<pdfrwt beam="2">  1       21 0.71471465E-02 0.25389842E+02</pdfrwt>
<totfact> 0.10145152E+08</totfact>
</mgrwt>
</event>
<event>
 4    1  0.4447136E+006  0.2384912E+02  0.7546771E-02  0.1678105E+00
         21   -1    0    0  503  501  0.00000000000E+00  0.00000000000E+00  0.35784838377E+03  0.35784838377E+03  0.00000000000E+00 0.  1.
         21   -1    0    0  504  502 -0.00000000000E+00 -0.00000000000E+00 -0.15933812908E+01  0.15933812908E+01  0.00000000000E+00 0. -1.
         21    1    1    2  503  502 -0.75096315290E+01  0.22635939139E+02  0.16919475415E+03  0.17086733198E+03  0.00000000000E+00 0. -1.
         21    1    1    2  504  501  0.75096315290E+01 -0.22635939139E+02  0.18706024833E+03  0.18857443308E+03  0.00000000000E+00 0.  1.
<mgrwt>
<rscale>  2 0.23849115E+02</rscale>
<asrwt>0</asrwt>
<pdfrwt beam="1">  1       21 0.55053533E-01 0.23849115E+02</pdfrwt>
<pdfrwt beam="2">  1       21 0.24513587E-03 0.23849115E+02</pdfrwt>
<totfact> 0.76233967E+07</totfact>
</mgrwt>
</event>
<event>
 4    1  0.4447136E+006  0.2622781E+02  0.7546771E-02  0.1643968E+00
         21   -1    0    0  503  501  0.00000000000E+00  0.00000000000E+00  0.17448606493E+03  0.17448606493E+03  0.00000000000E+00 0. -1.
         21   -1    0    0  504  502 -0.00000000000E+00 -0.00000000000E+00 -0.41625152213E+01  0.41625152213E+01  0.00000000000E+00 0. -1.
         21    1    1    2  503  502  0.11999930628E+02 -0.23321653768E+02  0.10570147205E+03  0.10890683662E+03  0.00000000000E+00 0. -1.
         21    1    1    2  504  501 -0.11999930628E+02  0.23321653768E+02  0.64622077662E+02  0.69741743532E+02  0.00000000000E+00 0. -1.
<mgrwt>
<rscale>  2 0.26227807E+02</rscale>
<asrwt>0</asrwt>
<pdfrwt beam="1">  1       21 0.26844004E-01 0.26227807E+02</pdfrwt>
<pdfrwt beam="2">  1       21 0.64038709E-03 0.26227807E+02</pdfrwt>
<totfact> 0.73534263E+07</totfact>
</mgrwt>
</event>
<event>
 4    1  0.4447136E+006  0.2653035E+02  0.7546771E-02  0.1639946E+00
         21   -1    0    0  503  501  0.00000000000E+00  0.00000000000E+00  0.47630231181E+02  0.47630231181E+02  0.00000000000E+00 0.  1.
         21   -1    0    0  501  502 -0.00000000000E+00 -0.00000000000E+00 -0.44142452495E+02  0.44142452495E+02  0.00000000000E+00 0.  1.
         21    1    1    2  503  504 -0.69003899067E+01 -0.25617262229E+02  0.39169532634E+02  0.47308686219E+02  0.00000000000E+00 0.  1.
         21    1    1    2  504  502  0.69003899067E+01  0.25617262229E+02 -0.35681753949E+02  0.44463997457E+02  0.00000000000E+00 0.  1.
<mgrwt>
<rscale>  2 0.26530351E+02</rscale>
<asrwt>0</asrwt>
<pdfrwt beam="1">  1       21 0.73277279E-02 0.26530351E+02</pdfrwt>
<pdfrwt beam="2">  1       21 0.67911465E-02 0.26530351E+02</pdfrwt>
<totfact> 0.17487635E+07</totfact>
</mgrwt>
</event>
<event>
 4    1  0.4447136E+006  0.2046420E+02  0.7546771E-02  0.1736251E+00
         21   -1    0    0  503  501  0.00000000000E+00  0.00000000000E+00  0.82945483974E+01  0.82945483974E+01  0.00000000000E+00 0. -1.
         21   -1    0    0  501  502 -0.00000000000E+00 -0.00000000000E+00 -0.64732487123E+02  0.64732487123E+02  0.00000000000E+00 0. -1.
         21    1    1    2  503  504  0.14373483206E+02 -0.14566617725E+02 -0.11091198504E+02  0.23276555924E+02  0.00000000000E+00 0. -1.
         21    1    1    2  504  502 -0.14373483206E+02  0.14566617725E+02 -0.45346740222E+02  0.49750479597E+02  0.00000000000E+00 0. -1.
<mgrwt>
<rscale>  2 0.20464197E+02</rscale>
<asrwt>0</asrwt>
<pdfrwt beam="1">  1       21 0.12760844E-02 0.20464197E+02</pdfrwt>
<pdfrwt beam="2">  1       21 0.99588441E-02 0.20464197E+02</pdfrwt>
<totfact> 0.13438521E+08</totfact>
</mgrwt>
</event>
<event>
 4    1  0.4447136E+006  0.2059004E+02  0.7546771E-02  0.1733843E+00
         21   -1    0    0  504  501  0.00000000000E+00  0.00000000000E+00  0.96298302984E+00  0.96298302984E+00  0.00000000000E+00 0.  1.
         21   -1    0    0  501  502 -0.00000000000E+00 -0.00000000000E+00 -0.48309263501E+03  0.48309263501E+03  0.00000000000E+00 0.  1.
         21    1    1    2  503  502 -0.66929956640E+01  0.19471867409E+02 -0.31314343520E+03  0.31381963103E+03  0.00000000000E+00 0.  1.
         21    1    1    2  504  503  0.66929956640E+01 -0.19471867409E+02 -0.16898621678E+03  0.17023598701E+03  0.00000000000E+00 0.  1.
<mgrwt>
<rscale>  2 0.20590042E+02</rscale>
<asrwt>0</asrwt>
<pdfrwt beam="1">  1       21 0.14815124E-03 0.20590042E+02</pdfrwt>
<pdfrwt beam="2">  1       21 0.74321944E-01 0.20590042E+02</pdfrwt>
<totfact> 0.82864741E+07</totfact>
</mgrwt>
</event>
<event>
 4    1  0.4447136E+006  0.2095373E+02  0.7546771E-02  0.1727001E+00
         21   -1    0    0  503  501  0.00000000000E+00  0.00000000000E+00  0.61717117931E+03  0.61717117931E+03  0.00000000000E+00 0. -1.
         21   -1    0    0  504  502 -0.00000000000E+00 -0.00000000000E+00 -0.97547061232E+01  0.97547061232E+01  0.00000000000E+00 0. -1.
         21    1    1    2  503  502 -0.16915741743E+02  0.12365941144E+02  0.60552447444E+03  0.60588691021E+03  0.00000000000E+00 0. -1.
         21    1    1    2  504  501  0.16915741743E+02 -0.12365941144E+02  0.18919987457E+01  0.21038975221E+02  0.00000000000E+00 0. -1.
<mgrwt>
<rscale>  2 0.20953730E+02</rscale>
<asrwt>0</asrwt>
<pdfrwt beam="1">  1       21 0.94949382E-01 0.20953730E+02</pdfrwt>
<pdfrwt beam="2">  1       21 0.15007245E-02 0.20953730E+02</pdfrwt>
<totfact> 0.16538859E+06</totfact>
</mgrwt>
</event>
<event>
 4    1  0.4447136E+006  0.2647748E+02  0.7546771E-02  0.1640644E+00
         21   -1    0    0  504  501  0.00000000000E+00  0.00000000000E+00  0.34257828061E+02  0.34257828061E+02  0.00000000000E+00 0. -1.
         21   -1    0    0  503  502 -0.00000000000E+00 -0.00000000000E+00 -0.22696446626E+02  0.22696446626E+02  0.00000000000E+00 0. -1.
         21    1    1    2  503  501 -0.25175397820E+02 -0.82010007848E+01 -0.31501859727E+01  0.26664222114E+02  0.00000000000E+00 0. -1.
         21    1    1    2  504  502  0.25175397820E+02  0.82010007848E+01  0.14711567408E+02  0.30290052573E+02  0.00000000000E+00 0. -1.
<mgrwt>
<rscale>  2 0.26477482E+02</rscale>
<asrwt>0</asrwt>
<pdfrwt beam="1">  1       21 0.52704351E-02 0.26477482E+02</pdfrwt>
<pdfrwt beam="2">  1       21 0.34917610E-02 0.26477482E+02</pdfrwt>
<totfact> 0.86340964E+07</totfact>
</mgrwt>
</event>
<event>
 4    1  0.4447136E+006  0.2838088E+02  0.7546771E-02  0.1616708E+00
         21   -1    0    0  503  501  0.00000000000E+00  0.00000000000E+00  0.17198993465E+03  0.17198993465E+03  0.00000000000E+00 0. -1.
         21   -1    0    0  501  502 -0.00000000000E+00 -0.00000000000E+00 -0.25243788476E+02  0.25243788476E+02  0.00000000000E+00 0.  1.
         21    1    1    2  503  504  0.25905744543E+02 -0.11591658261E+02  0.16237327937E+03  0.16483493560E+03  0.00000000000E+00 0. -1.
         21    1    1    2  504  502 -0.25905744543E+02  0.11591658261E+02 -0.15627133191E+02  0.32398787529E+02  0.00000000000E+00 0.  1.
<mgrwt>
<rscale>  2 0.28380876E+02</rscale>
<asrwt>0</asrwt>
<pdfrwt beam="1">  1       21 0.26459989E-01 0.28380876E+02</pdfrwt>
<pdfrwt beam="2">  1       21 0.38836599E-02 0.28380876E+02</pdfrwt>
<totfact> 0.48257542E+06</totfact>
</mgrwt>
</event>
<event>
 4    1  0.4447136E+006  0.2591738E+02  0.7546771E-02  0.1648164E+00
         21   -1    0    0  504  501  0.00000000000E+00  0.00000000000E+00  0.99898401032E+00  0.99898401032E+00  0.00000000000E+00 0.  1.
         21   -1    0    0  503  502 -0.00000000000E+00 -0.00000000000E+00 -0.84098787552E+03  0.84098787552E+03  0.00000000000E+00 0.  1.
         21    1    1    2  503  501  0.23897949007E+02  0.10029885699E+02 -0.23149863191E+03  0.23294490153E+03  0.00000000000E+00 0.  1.
         21    1    1    2  504  502 -0.23897949007E+02 -0.10029885699E+02 -0.60849025960E+03  0.60904195800E+03  0.00000000000E+00 0.  1.
<mgrwt>
<rscale>  2 0.25917380E+02</rscale>
<asrwt>0</asrwt>
<pdfrwt beam="1">  1       21 0.15368879E-03 0.25917380E+02</pdfrwt>
<pdfrwt beam="2">  1       21 0.12938364E+00 0.25917380E+02</pdfrwt>
<totfact> 0.24646794E+07</totfact>
</mgrwt>
</event>
<event>
 4    1  0.4447136E+006  0.2225947E+02  0.7546771E-02  0.1703803E+00
         21   -1    0    0  504  501  0.00000000000E+00  0.00000000000E+00  0.79161663505E+02  0.79161663505E+02  0.00000000000E+00 0.  1.
         21   -1    0    0  503  502 -0.00000000000E+00 -0.00000000000E+00 -0.42626851453E+02  0.42626851453E+02  0.00000000000E+00 0. -1.
         21    1    1    2  503  501 -0.16040934822E+02  0.15432833648E+02 -0.37978730544E+02  0.44021221224E+02  0.00000000000E+00 0. -1.
         21    1    1    2  504  502  0.16040934822E+02 -0.15432833648E+02  0.74513542596E+02  0.77767293733E+02  0.00000000000E+00 0.  1.
<mgrwt>
<rscale>  2 0.22259469E+02</rscale>
<asrwt>0</asrwt>
<pdfrwt beam="1">  1       21 0.12178718E-01 0.22259469E+02</pdfrwt>
<pdfrwt beam="2">  1       21 0.65579771E-02 0.22259469E+02</pdfrwt>
<totfact> 0.77282910E+06</totfact>
</mgrwt>
</event>
<event>
 4    1  0.4447136E+006  0.2342841E+02  0.7546771E-02  0.1684658E+00
         21   -1    0    0  504  501  0.00000000000E+00  0.00000000000E+00  0.78847153779E+02  0.78847153779E+02  0.00000000000E+00 0.  1.
         21   -1    0    0  503  502 -0.00000000000E+00 -0.00000000000E+00 -0.10630874545E+02  0.10630874545E+02  0.00000000000E+00 0.  1.
         21    1    1    2  503  501  0.18794590323E+01  0.23352904560E+02  0.60392710737E+02  0.64777851368E+02  0.00000000000E+00 0.  1.
         21    1    1    2  504  502 -0.18794590323E+01 -0.23352904560E+02  0.78235684964E+01  0.24700176956E+02  0.00000000000E+00 0.  1.
<mgrwt>
<rscale>  2 0.23428413E+02</rscale>
<asrwt>0</asrwt>
<pdfrwt beam="1">  1       21 0.12130331E-01 0.23428413E+02</pdfrwt>
<pdfrwt beam="2">  1       21 0.16355192E-02 0.23428413E+02</pdfrwt>
<totfact> 0.69104125E+07</totfact>
</mgrwt>
</event>
<event>
 4    1  0.4447136E+006  0.2364164E+02  0.7546771E-02  0.1681316E+00
         21   -1    0    0  504  501  0.00000000000E+00  0.00000000000E+00  0.10906050229E+03  0.10906050229E+03  0.00000000000E+00 0. -1.
         21   -1    0    0  503  502 -0.00000000000E+00 -0.00000000000E+00 -0.17119218554E+02  0.17119218554E+02  0.00000000000E+00 0.  1.
         21    1    1    2  503  501  0.21449273317E+02  0.99426278544E+01  0.98779270404E+02  0.10156904763E+03  0.00000000000E+00 0. -1.
         21    1    1    2  504  502 -0.21449273317E+02 -0.99426278544E+01 -0.68379866688E+01  0.24610673216E+02  0.00000000000E+00 0.  1.
<mgrwt>
<rscale>  2 0.23641641E+02</rscale>
<asrwt>0</asrwt>
<pdfrwt beam="1">  1       21 0.16778538E-01 0.23641641E+02</pdfrwt>
<pdfrwt beam="2">  1       21 0.26337260E-02 0.23641641E+02</pdfrwt>
<totfact> 0.19189179E+07</totfact>
</mgrwt>
</event>
<event>
 4    1  0.4447136E+006  0.2201564E+02  0.7546771E-02  0.1707982E+00
         21   -1    0    0  502  501  0.00000000000E+00  0.00000000000E+00  0.46439211136E+02  0.46439211136E+02  0.00000000000E+00 0.  1.
         21   -1    0    0  503  502 -0.00000000000E+00 -0.00000000000E+00 -0.24061593866E+02  0.24061593866E+02  0.00000000000E+00 0. -1.
         21    1    1    2  503  504  0.20644009804E+02 -0.76493956615E+01 -0.15336647511E+02  0.26830973737E+02  0.00000000000E+00 0. -1.
         21    1    1    2  504  501 -0.20644009804E+02  0.76493956615E+01  0.37714264781E+02  0.43669831266E+02  0.00000000000E+00 0.  1.
<mgrwt>
<rscale>  2 0.22015640E+02</rscale>
<asrwt>0</asrwt>
<pdfrwt beam="1">  1       21 0.71444940E-02 0.22015640E+02</pdfrwt>
<pdfrwt beam="2">  1       21 0.37017837E-02 0.22015640E+02</pdfrwt>
<totfact> 0.45984386E+07</totfact>
</mgrwt>
</event>
<event>
 4    1  0.4447136E+006  0.2380672E+02  0.7546771E-02  0.1678757E+00
         21   -1    0    0  502  501  0.00000000000E+00  0.00000000000E+00  0.71076574909E+02  0.71076574909E+02  0.00000000000E+00 0. -1.
         21   -1    0    0  504  502 -0.00000000000E+00 -0.00000000000E+00 -0.63176626010E+02  0.63176626010E+02  0.00000000000E+00 0.  1.
         21    1    1    2  503  501 -0.19223392797E+02 -0.14043550275E+02  0.66697493011E+02  0.70818893729E+02  0.00000000000E+00 0. -1.
         21    1    1    2  504  503  0.19223392797E+02  0.14043550275E+02 -0.58797544113E+02  0.63434307190E+02  0.00000000000E+00 0.  1.
<mgrwt>
<rscale>  2 0.23806725E+02</rscale>
<asrwt>0</asrwt>
<pdfrwt beam="1">  1       21 0.10934858E-01 0.23806725E+02</pdfrwt>
<pdfrwt beam="2">  1       21 0.97194809E-02 0.23806725E+02</pdfrwt>
<totfact> 0.49260386E+06</totfact>
</mgrwt>
</event>
<event>
 4    1  0.4447136E+006  0.2544681E+02  0.7546771E-02  0.1654666E+00
         21   -1    0    0  504  501  0.00000000000E+00  0.00000000000E+00  0.34165305060E+02  0.34165305060E+02  0.00000000000E+00 0.  1.
         21   -1    0    0  501  502 -0.00000000000E+00 -0.00000000000E+00 -0.38961435426E+02  0.38961435426E+02  0.00000000000E+00 0. -1.
         21    1    1    2  503  502  0.16672958338E+02  0.19223756859E+02 -0.28600015222E+02  0.38281865658E+02  0.00000000000E+00 0. -1.
         21    1    1    2  504  503 -0.16672958338E+02 -0.19223756859E+02  0.23803884856E+02  0.34844874828E+02  0.00000000000E+00 0.  1.
<mgrwt>
<rscale>  2 0.25446814E+02</rscale>
<asrwt>0</asrwt>
<pdfrwt beam="1">  1       21 0.52562008E-02 0.25446814E+02</pdfrwt>
<pdfrwt beam="2">  1       21 0.59940669E-02 0.25446814E+02</pdfrwt>
<totfact> 0.36311560E+07</totfact>
</mgrwt>
</event>
<event>
 4    1  0.4447136E+006  0.2925360E+02  0.7546771E-02  0.1606489E+00
         21   -1    0    0  504  501  0.00000000000E+00  0.00000000000E+00  0.11328897285E+01  0.11328897285E+01  0.00000000000E+00 0. -1.
         21   -1    0    0  503  502 -0.00000000000E+00 -0.00000000000E+00 -0.10492768983E+04  0.10492768983E+04  0.00000000000E+00 0.  1.
         21    1    1    2  503  501  0.55143462078E+01 -0.28729170097E+02 -0.80202671925E+03  0.80256004861E+03  0.00000000000E+00 0.  1.
         21    1    1    2  504  502 -0.55143462078E+01  0.28729170097E+02 -0.24611728933E+03  0.24784973943E+03  0.00000000000E+00 0. -1.
<mgrwt>
<rscale>  2 0.29253602E+02</rscale>
<asrwt>0</asrwt>
<pdfrwt beam="1">  1       21 0.17428944E-03 0.29253602E+02</pdfrwt>
<pdfrwt beam="2">  1       21 0.16142841E+00 0.29253602E+02</pdfrwt>
<totfact> 0.12356783E+07</totfact>
</mgrwt>
</event>
<event>
 4    1  0.4447136E+006  0.2553890E+02  0.7546771E-02  0.1653380E+00
         21   -1    0    0  504  501  0.00000000000E+00  0.00000000000E+00  0.26935405474E+02  0.26935405474E+02  0.00000000000E+00 0.  1.
         21   -1    0    0  503  502 -0.00000000000E+00 -0.00000000000E+00 -0.24227108280E+02  0.24227108280E+02  0.00000000000E+00 0.  1.
         21    1    1    2  503  501  0.10394321102E+02 -0.23327959474E+02  0.77768369934E+00  0.25550741600E+02  0.00000000000E+00 0.  1.
         21    1    1    2  504  502 -0.10394321102E+02  0.23327959474E+02  0.19306134952E+01  0.25611772154E+02  0.00000000000E+00 0.  1.
<mgrwt>
<rscale>  2 0.25538904E+02</rscale>
<asrwt>0</asrwt>
<pdfrwt beam="1">  1       21 0.41439085E-02 0.25538904E+02</pdfrwt>
<pdfrwt beam="2">  1       21 0.37272474E-02 0.25538904E+02</pdfrwt>
<totfact> 0.11322435E+08</totfact>
</mgrwt>
</event>
<event>
 4    1  0.4447136E+006  0.2373588E+02  0.7546771E-02  0.1679852E+00
         21   -1    0    0  502  501  0.00000000000E+00  0.00000000000E+00  0.31186843998E+03  0.31186843998E+03  0.00000000000E+00 0.  1.
         21   -1    0    0  504  502 -0.00000000000E+00 -0.00000000000E+00 -0.25614678939E+01  0.25614678939E+01  0.00000000000E+00 0. -1.
         21    1    1    2  503  501  0.78632700065E+01 -0.22395556361E+02  0.24000517885E+03  0.24117603081E+03  0.00000000000E+00 0.  1.
         21    1    1    2  504  503 -0.78632700065E+01  0.22395556361E+02  0.69301793236E+02  0.73253877069E+02  0.00000000000E+00 0. -1.
<mgrwt>
<rscale>  2 0.23735879E+02</rscale>
<asrwt>0</asrwt>
<pdfrwt beam="1">  1       21 0.47979730E-01 0.23735879E+02</pdfrwt>
<pdfrwt beam="2">  1       21 0.39407223E-03 0.23735879E+02</pdfrwt>
<totfact> 0.49819164E+07</totfact>
</mgrwt>
</event>
<event>
 4    1  0.4447136E+006  0.2087508E+02  0.7546771E-02  0.1728466E+00
         21   -1    0    0  503  501  0.00000000000E+00  0.00000000000E+00  0.20995414009E+01  0.20995414009E+01  0.00000000000E+00 0.  1.
         21   -1    0    0  504  502 -0.00000000000E+00 -0.00000000000E+00 -0.20783007762E+03  0.20783007762E+03  0.00000000000E+00 0.  1.
         21    1    1    2  503  502  0.20390853882E+02 -0.44701258715E+01 -0.10668850271E+03  0.10871157049E+03  0.00000000000E+00 0.  1.
         21    1    1    2  504  501 -0.20390853882E+02  0.44701258715E+01 -0.99042033513E+02  0.10121804854E+03  0.00000000000E+00 0.  1.
<mgrwt>
<rscale>  2 0.20875080E+02</rscale>
<asrwt>0</asrwt>
<pdfrwt beam="1">  1       21 0.32300643E-03 0.20875080E+02</pdfrwt>
<pdfrwt beam="2">  1       21 0.31973852E-01 0.20875080E+02</pdfrwt>
<totfact> 0.13802789E+08</totfact>
</mgrwt>
</event>
<event>
 4    1  0.4447136E+006  0.2636267E+02  0.7546771E-02  0.1642167E+00
         21   -1    0    0  504  501  0.00000000000E+00  0.00000000000E+00  0.49351742127E+03  0.49351742127E+03  0.00000000000E+00 0.  1.
         21   -1    0    0  501  502 -0.00000000000E+00 -0.00000000000E+00 -0.14277711475E+02  0.14277711475E+02  0.00000000000E+00 0. -1.
         21    1    1    2  503  502  0.23672508672E+02  0.11601835339E+02 -0.14315227862E+01  0.26401505782E+02  0.00000000000E+00 0. -1.
         21    1    1    2  504  503 -0.23672508672E+02 -0.11601835339E+02  0.48067123258E+03  0.48139362696E+03  0.00000000000E+00 0.  1.
<mgrwt>
<rscale>  2 0.26362668E+02</rscale>
<asrwt>0</asrwt>
<pdfrwt beam="1">  1       21 0.75925744E-01 0.26362668E+02</pdfrwt>
<pdfrwt beam="2">  1       21 0.21965714E-02 0.26362668E+02</pdfrwt>
<totfact> 0.15184200E+06</totfact>
</mgrwt>
</event>
<event>
 4    1  0.4447136E+006  0.2082713E+02  0.7546771E-02  0.1729363E+00
         21   -1    0    0  503  501  0.00000000000E+00  0.00000000000E+00  0.34791974101E+01  0.34791974101E+01  0.00000000000E+00 0. -1.
         21   -1    0    0  504  502 -0.00000000000E+00 -0.00000000000E+00 -0.13580978058E+03  0.13580978058E+03  0.00000000000E+00 0. -1.
         21    1    1    2  503  502  0.13752181989E+02  0.15641186935E+02 -0.46223674336E+02  0.50699085862E+02  0.00000000000E+00 0. -1.
         21    1    1    2  504  501 -0.13752181989E+02 -0.15641186935E+02 -0.86106908833E+02  0.88589892126E+02  0.00000000000E+00 0. -1.
<mgrwt>
<rscale>  2 0.20827127E+02</rscale>
<asrwt>0</asrwt>
<pdfrwt beam="1">  1       21 0.53526116E-03 0.20827127E+02</pdfrwt>
<pdfrwt beam="2">  1       21 0.20893812E-01 0.20827127E+02</pdfrwt>
<totfact> 0.14061857E+08</totfact>
</mgrwt>
</event>
<event>
 4    1  0.4447136E+006  0.2242302E+02  0.7546771E-02  0.1701037E+00
         21   -1    0    0  502  501  0.00000000000E+00  0.00000000000E+00  0.35754754704E+03  0.35754754704E+03  0.00000000000E+00 0. -1.
         21   -1    0    0  503  502 -0.00000000000E+00 -0.00000000000E+00 -0.14877048815E+01  0.14877048815E+01  0.00000000000E+00 0. -1.
         21    1    1    2  503  504 -0.33324945503E+01  0.22174002850E+02  0.13601759700E+03  0.13785346792E+03  0.00000000000E+00 0. -1.
         21    1    1    2  504  501  0.33324945503E+01 -0.22174002850E+02  0.22004224516E+03  0.22118178401E+03  0.00000000000E+00 0. -1.
<mgrwt>
<rscale>  2 0.22423022E+02</rscale>
<asrwt>0</asrwt>
<pdfrwt beam="1">  1       21 0.55007247E-01 0.22423022E+02</pdfrwt>
<pdfrwt beam="2">  1       21 0.22887796E-03 0.22423022E+02</pdfrwt>
<totfact> 0.83062964E+07</totfact>
</mgrwt>
</event>
<event>
 4    1  0.4447136E+006  0.3920127E+02  0.7546771E-02  0.1514173E+00
         21   -1    0    0  504  501  0.00000000000E+00  0.00000000000E+00  0.54451531562E+03  0.54451531562E+03  0.00000000000E+00 0. -1.
         21   -1    0    0  503  502 -0.00000000000E+00 -0.00000000000E+00 -0.59810693398E+01  0.59810693398E+01  0.00000000000E+00 0. -1.
         21    1    1    2  503  501  0.34288614679E+01  0.39051026271E+02  0.69234974429E+02  0.79562688667E+02  0.00000000000E+00 0. -1.
         21    1    1    2  504  502 -0.34288614679E+01 -0.39051026271E+02  0.46929927185E+03  0.47093369629E+03  0.00000000000E+00 0. -1.
<mgrwt>
<rscale>  2 0.39201272E+02</rscale>
<asrwt>0</asrwt>
<pdfrwt beam="1">  1       21 0.83771548E-01 0.39201272E+02</pdfrwt>
<pdfrwt beam="2">  1       21 0.92016494E-03 0.39201272E+02</pdfrwt>
<totfact> 0.48644113E+06</totfact>
</mgrwt>
</event>
<event>
 4    1  0.4447136E+006  0.2124959E+02  0.7546771E-02  0.1721563E+00
         21   -1    0    0  503  501  0.00000000000E+00  0.00000000000E+00  0.29681044209E+02  0.29681044209E+02  0.00000000000E+00 0. -1.
         21   -1    0    0  504  502 -0.00000000000E+00 -0.00000000000E+00 -0.16246691835E+02  0.16246691835E+02  0.00000000000E+00 0. -1.
         21    1    1    2  503  502 -0.20709252148E+02  0.47615130921E+01  0.92548107491E+00  0.21269735463E+02  0.00000000000E+00 0. -1.
         21    1    1    2  504  501  0.20709252148E+02 -0.47615130921E+01  0.12508871299E+02  0.24658000581E+02  0.00000000000E+00 0. -1.
<mgrwt>
<rscale>  2 0.21249591E+02</rscale>
<asrwt>0</asrwt>
<pdfrwt beam="1">  1       21 0.45663145E-02 0.21249591E+02</pdfrwt>
<pdfrwt beam="2">  1       21 0.24994911E-02 0.21249591E+02</pdfrwt>
<totfact> 0.17144230E+08</totfact>
</mgrwt>
</event>
<event>
 4    1  0.4447136E+006  0.3073926E+02  0.7546771E-02  0.1590058E+00
         21   -1    0    0  504  501  0.00000000000E+00  0.00000000000E+00  0.56451217137E+01  0.56451217137E+01  0.00000000000E+00 0.  1.
         21   -1    0    0  503  502 -0.00000000000E+00 -0.00000000000E+00 -0.17348696269E+03  0.17348696269E+03  0.00000000000E+00 0.  1.
         21    1    1    2  503  501  0.21686285992E+02  0.21785475194E+02 -0.67121766932E+02  0.73825696919E+02  0.00000000000E+00 0.  1.
         21    1    1    2  504  502 -0.21686285992E+02 -0.21785475194E+02 -0.10072007404E+03  0.10530638748E+03  0.00000000000E+00 0.  1.
<mgrwt>
<rscale>  2 0.30739257E+02</rscale>
<asrwt>0</asrwt>
<pdfrwt beam="1">  1       21 0.86848020E-03 0.30739257E+02</pdfrwt>
<pdfrwt beam="2">  1       21 0.26690304E-01 0.30739257E+02</pdfrwt>
<totfact> 0.48745440E+07</totfact>
</mgrwt>
</event>
<event>
 4    1  0.4447136E+006  0.2723212E+02  0.7546771E-02  0.1630867E+00
         21   -1    0    0  504  501  0.00000000000E+00  0.00000000000E+00  0.59213151530E+02  0.59213151530E+02  0.00000000000E+00 0. -1.
         21   -1    0    0  501  502 -0.00000000000E+00 -0.00000000000E+00 -0.77814722381E+02  0.77814722381E+02  0.00000000000E+00 0.  1.
         21    1    1    2  503  502 -0.16883508946E+02  0.21366695179E+02 -0.72059437076E+02  0.77033440848E+02  0.00000000000E+00 0.  1.
         21    1    1    2  504  503  0.16883508946E+02 -0.21366695179E+02  0.53457866225E+02  0.59994433063E+02  0.00000000000E+00 0. -1.
<mgrwt>
<rscale>  2 0.27232123E+02</rscale>
<asrwt>0</asrwt>
<pdfrwt beam="1">  1       21 0.91097156E-02 0.27232123E+02</pdfrwt>
<pdfrwt beam="2">  1       21 0.11971496E-01 0.27232123E+02</pdfrwt>
<totfact> 0.48075491E+06</totfact>
</mgrwt>
</event>
<event>
 4    1  0.4447136E+006  0.3199169E+02  0.7546771E-02  0.1577062E+00
         21   -1    0    0  503  501  0.00000000000E+00  0.00000000000E+00  0.22387165320E+03  0.22387165320E+03  0.00000000000E+00 0. -1.
         21   -1    0    0  504  502 -0.00000000000E+00 -0.00000000000E+00 -0.45767232838E+01  0.45767232838E+01  0.00000000000E+00 0. -1.
         21    1    1    2  503  502  0.19307378751E+02 -0.25508693937E+02  0.10585368829E+03  0.11058242023E+03  0.00000000000E+00 0. -1.
         21    1    1    2  504  501 -0.19307378751E+02  0.25508693937E+02  0.11344124163E+03  0.11786595625E+03  0.00000000000E+00 0. -1.
<mgrwt>
<rscale>  2 0.31991692E+02</rscale>
<asrwt>0</asrwt>
<pdfrwt beam="1">  1       21 0.34441784E-01 0.31991692E+02</pdfrwt>
<pdfrwt beam="2">  1       21 0.70411145E-03 0.31991692E+02</pdfrwt>
<totfact> 0.42116069E+07</totfact>
</mgrwt>
</event>
<event>
 4    1  0.4447136E+006  0.2201342E+02  0.7546771E-02  0.1708020E+00
         21   -1    0    0  503  501  0.00000000000E+00  0.00000000000E+00  0.34043261009E+01  0.34043261009E+01  0.00000000000E+00 0. -1.
         21   -1    0    0  504  502 -0.00000000000E+00 -0.00000000000E+00 -0.42847333788E+03  0.42847333788E+03  0.00000000000E+00 0. -1.
         21    1    1    2  503  502  0.16955596446E+02 -0.14039174917E+02 -0.36073454495E+02  0.42259730269E+02  0.00000000000E+00 0. -1.
         21    1    1    2  504  501 -0.16955596446E+02  0.14039174917E+02 -0.38899555728E+03  0.38961793371E+03  0.00000000000E+00 0. -1.
<mgrwt>
<rscale>  2 0.22013421E+02</rscale>
<asrwt>0</asrwt>
<pdfrwt beam="1">  1       21 0.52374279E-03 0.22013421E+02</pdfrwt>
<pdfrwt beam="2">  1       21 0.65918935E-01 0.22013421E+02</pdfrwt>
<totfact> 0.17202704E+07</totfact>
</mgrwt>
</event>
<event>
 4    1  0.4447136E+006  0.2470877E+02  0.7546771E-02  0.1665220E+00
         21   -1    0    0  502  501  0.00000000000E+00  0.00000000000E+00  0.10248992393E+03  0.10248992393E+03  0.00000000000E+00 0.  1.
         21   -1    0    0  504  502 -0.00000000000E+00 -0.00000000000E+00 -0.66236213181E+01  0.66236213181E+01  0.00000000000E+00 0.  1.
         21    1    1    2  503  501  0.17395883994E+02  0.17547269213E+02  0.65242042688E+02  0.69764228447E+02  0.00000000000E+00 0.  1.
         21    1    1    2  504  503 -0.17395883994E+02 -0.17547269213E+02  0.30624259924E+02  0.39349316800E+02  0.00000000000E+00 0.  1.
<mgrwt>
<rscale>  2 0.24708772E+02</rscale>
<asrwt>0</asrwt>
<pdfrwt beam="1">  1       21 0.15767679E-01 0.24708772E+02</pdfrwt>
<pdfrwt beam="2">  1       21 0.10190187E-02 0.24708772E+02</pdfrwt>
<totfact> 0.92045566E+07</totfact>
</mgrwt>
</event>
<event>
 4    1  0.4447136E+006  0.2286481E+02  0.7546771E-02  0.1693711E+00
         21   -1    0    0  503  501  0.00000000000E+00  0.00000000000E+00  0.90739982702E+02  0.90739982702E+02  0.00000000000E+00 0.  1.
         21   -1    0    0  504  502 -0.00000000000E+00 -0.00000000000E+00 -0.61909178341E+01  0.61909178341E+01  0.00000000000E+00 0.  1.
         21    1    1    2  503  502  0.22104337813E+02 -0.58478862316E+01  0.55038584490E+02  0.59599037795E+02  0.00000000000E+00 0.  1.
         21    1    1    2  504  501 -0.22104337813E+02  0.58478862316E+01  0.29510480378E+02  0.37331862741E+02  0.00000000000E+00 0.  1.
<mgrwt>
<rscale>  2 0.22864810E+02</rscale>
<asrwt>0</asrwt>
<pdfrwt beam="1">  1       21 0.13959996E-01 0.22864810E+02</pdfrwt>
<pdfrwt beam="2">  1       21 0.95244896E-03 0.22864810E+02</pdfrwt>
<totfact> 0.12269282E+08</totfact>
</mgrwt>
</event>
<event>
 4    1  0.4447136E+006  0.2451541E+02  0.7546771E-02  0.1668061E+00
         21   -1    0    0  503  501  0.00000000000E+00  0.00000000000E+00  0.97710728254E+03  0.97710728254E+03  0.00000000000E+00 0.  1.
         21   -1    0    0  504  502 -0.00000000000E+00 -0.00000000000E+00 -0.99695764374E+00  0.99695764374E+00  0.00000000000E+00 0.  1.
         21    1    1    2  503  502 -0.24515244266E+02  0.89661684830E-01  0.79072933463E+03  0.79110927556E+03  0.00000000000E+00 0.  1.
         21    1    1    2  504  501  0.24515244266E+02 -0.89661684830E-01  0.18538099027E+03  0.18699496463E+03  0.00000000000E+00 0.  1.
<mgrwt>
<rscale>  2 0.24515408E+02</rscale>
<asrwt>0</asrwt>
<pdfrwt beam="1">  1       21 0.15032343E+00 0.24515408E+02</pdfrwt>
<pdfrwt beam="2">  1       21 0.15337888E-03 0.24515408E+02</pdfrwt>
<totfact> 0.17227369E+07</totfact>
</mgrwt>
</event>
<event>
 4    1  0.4447136E+006  0.2394537E+02  0.7546771E-02  0.1676629E+00
         21   -1    0    0  503  501  0.00000000000E+00  0.00000000000E+00  0.17359324685E+01  0.17359324685E+01  0.00000000000E+00 0.  1.
         21   -1    0    0  501  502 -0.00000000000E+00 -0.00000000000E+00 -0.35031748299E+03  0.35031748299E+03  0.00000000000E+00 0.  1.
         21    1    1    2  503  504 -0.21082742877E+02  0.11353356138E+02 -0.13221439773E+03  0.13436527718E+03  0.00000000000E+00 0.  1.
         21    1    1    2  504  502  0.21082742877E+02 -0.11353356138E+02 -0.21636715279E+03  0.21768813828E+03  0.00000000000E+00 0.  1.
<mgrwt>
<rscale>  2 0.23945370E+02</rscale>
<asrwt>0</asrwt>
<pdfrwt beam="1">  1       21 0.26706677E-03 0.23945370E+02</pdfrwt>
<pdfrwt beam="2">  1       21 0.53894949E-01 0.23945370E+02</pdfrwt>
<totfact> 0.70257623E+07</totfact>
</mgrwt>
</event>
<event>
 4    1  0.4447136E+006  0.2899576E+02  0.7546771E-02  0.1609462E+00
         21   -1    0    0  502  501  0.00000000000E+00  0.00000000000E+00  0.88900460625E+01  0.88900460625E+01  0.00000000000E+00 0.  1.
         21   -1    0    0  504  502 -0.00000000000E+00 -0.00000000000E+00 -0.10375446052E+04  0.10375446052E+04  0.00000000000E+00 0. -1.
         21    1    1    2  503  501 -0.14445316078E+02  0.25141336657E+02 -0.15525322237E+02  0.32890570017E+02  0.00000000000E+00 0.  1.
         21    1    1    2  504  503  0.14445316078E+02 -0.25141336657E+02 -0.10131292369E+04  0.10135440812E+04  0.00000000000E+00 0. -1.
<mgrwt>
<rscale>  2 0.28995758E+02</rscale>
<asrwt>0</asrwt>
<pdfrwt beam="1">  1       21 0.13676999E-02 0.28995758E+02</pdfrwt>
<pdfrwt beam="2">  1       21 0.15962219E+00 0.28995758E+02</pdfrwt>
<totfact> 0.59350986E+05</totfact>
</mgrwt>
</event>
<event>
 4    1  0.4447136E+006  0.2320352E+02  0.7546771E-02  0.1688232E+00
         21   -1    0    0  503  501  0.00000000000E+00  0.00000000000E+00  0.60610994987E+01  0.60610994987E+01  0.00000000000E+00 0.  1.
         21   -1    0    0  504  502 -0.00000000000E+00 -0.00000000000E+00 -0.41062859328E+03  0.41062859328E+03  0.00000000000E+00 0. -1.
         21    1    1    2  503  502  0.59137203296E+01  0.22437278453E+02 -0.17845631799E+02  0.29272344060E+02  0.00000000000E+00 0.  1.
         21    1    1    2  504  501 -0.59137203296E+01 -0.22437278453E+02 -0.38672186198E+03  0.38741734872E+03  0.00000000000E+00 0. -1.
<mgrwt>
<rscale>  2 0.23203525E+02</rscale>
<asrwt>0</asrwt>
<pdfrwt beam="1">  1       21 0.93247686E-03 0.23203525E+02</pdfrwt>
<pdfrwt beam="2">  1       21 0.63173629E-01 0.23203525E+02</pdfrwt>
<totfact> 0.80294659E+06</totfact>
</mgrwt>
</event>
<event>
 4    1  0.4447136E+006  0.3022775E+02  0.7546771E-02  0.1595585E+00
         21   -1    0    0  503  501  0.00000000000E+00  0.00000000000E+00  0.14437675713E+03  0.14437675713E+03  0.00000000000E+00 0. -1.
         21   -1    0    0  501  502 -0.00000000000E+00 -0.00000000000E+00 -0.40447231004E+02  0.40447231004E+02  0.00000000000E+00 0.  1.
         21    1    1    2  503  504 -0.32918351919E+01  0.30047968328E+02  0.13683963509E+03  0.14013851117E+03  0.00000000000E+00 0. -1.
         21    1    1    2  504  502  0.32918351919E+01 -0.30047968328E+02 -0.32910108967E+02  0.44685476967E+02  0.00000000000E+00 0.  1.
<mgrwt>
<rscale>  2 0.30227745E+02</rscale>
<asrwt>0</asrwt>
<pdfrwt beam="1">  1       21 0.22211808E-01 0.30227745E+02</pdfrwt>
<pdfrwt beam="2">  1       21 0.62226510E-02 0.30227745E+02</pdfrwt>
<totfact> 0.31245590E+06</totfact>
</mgrwt>
</event>
<event>
 4    1  0.4447136E+006  0.3040703E+02  0.7546771E-02  0.1593633E+00
         21   -1    0    0  503  501  0.00000000000E+00  0.00000000000E+00  0.96890039380E+02  0.96890039380E+02  0.00000000000E+00 0.  1.
         21   -1    0    0  501  502 -0.00000000000E+00 -0.00000000000E+00 -0.10077083049E+02  0.10077083049E+02  0.00000000000E+00 0.  1.
         21    1    1    2  503  504 -0.30292577020E+02  0.26357312988E+01  0.55723376718E+02  0.63479776424E+02  0.00000000000E+00 0.  1.
         21    1    1    2  504  502  0.30292577020E+02 -0.26357312988E+01  0.31089579613E+02  0.43487346005E+02  0.00000000000E+00 0.  1.
<mgrwt>
<rscale>  2 0.30407027E+02</rscale>
<asrwt>0</asrwt>
<pdfrwt beam="1">  1       21 0.14906159E-01 0.30407027E+02</pdfrwt>
<pdfrwt beam="2">  1       21 0.15503205E-02 0.30407027E+02</pdfrwt>
<totfact> 0.56288769E+07</totfact>
</mgrwt>
</event>
<event>
 4    1  0.4447136E+006  0.2234733E+02  0.7546771E-02  0.1702313E+00
         21   -1    0    0  504  501  0.00000000000E+00  0.00000000000E+00  0.30009262769E+02  0.30009262769E+02  0.00000000000E+00 0. -1.
         21   -1    0    0  503  502 -0.00000000000E+00 -0.00000000000E+00 -0.64515444823E+02  0.64515444823E+02  0.00000000000E+00 0. -1.
         21    1    1    2  503  501 -0.21393271597E+02 -0.64599558509E+01 -0.57966035124E+02  0.62124587140E+02  0.00000000000E+00 0. -1.
         21    1    1    2  504  502  0.21393271597E+02  0.64599558509E+01  0.23459853071E+02  0.32400120452E+02  0.00000000000E+00 0. -1.
<mgrwt>
<rscale>  2 0.22347329E+02</rscale>
<asrwt>0</asrwt>
<pdfrwt beam="1">  1       21 0.46168097E-02 0.22347329E+02</pdfrwt>
<pdfrwt beam="2">  1       21 0.99254531E-02 0.22347329E+02</pdfrwt>
<totfact> 0.19039021E+07</totfact>
</mgrwt>
</event>
<event>
 4    1  0.4447136E+006  0.2028271E+02  0.7546771E-02  0.1739764E+00
         21   -1    0    0  504  501  0.00000000000E+00  0.00000000000E+00  0.27593010041E+01  0.27593010041E+01  0.00000000000E+00 0.  1.
         21   -1    0    0  503  502 -0.00000000000E+00 -0.00000000000E+00 -0.15774720132E+03  0.15774720132E+03  0.00000000000E+00 0.  1.
         21    1    1    2  503  501  0.18783899127E+02 -0.76520221327E+01 -0.58695022140E+02  0.62100675787E+02  0.00000000000E+00 0.  1.
         21    1    1    2  504  502 -0.18783899127E+02  0.76520221327E+01 -0.96292878177E+02  0.98405826539E+02  0.00000000000E+00 0.  1.
<mgrwt>
<rscale>  2 0.20282710E+02</rscale>
<asrwt>0</asrwt>
<pdfrwt beam="1">  1       21 0.42450780E-03 0.20282710E+02</pdfrwt>
<pdfrwt beam="2">  1       21 0.24268803E-01 0.20282710E+02</pdfrwt>
<totfact> 0.15072615E+08</totfact>
</mgrwt>
</event>
<event>
 4    1  0.4447136E+006  0.3177728E+02  0.7546771E-02  0.1579235E+00
         21   -1    0    0  502  501  0.00000000000E+00  0.00000000000E+00  0.25381618331E+01  0.25381618331E+01  0.00000000000E+00 0. -1.
         21   -1    0    0  504  502 -0.00000000000E+00 -0.00000000000E+00 -0.47173753443E+03  0.47173753443E+03  0.00000000000E+00 0. -1.
         21    1    1    2  503  501 -0.26355603414E+02  0.17753236563E+02 -0.14074614686E+03  0.14428885298E+03  0.00000000000E+00 0. -1.
         21    1    1    2  504  503  0.26355603414E+02 -0.17753236563E+02 -0.32845322574E+03  0.32998684329E+03  0.00000000000E+00 0. -1.
<mgrwt>
<rscale>  2 0.31777276E+02</rscale>
<asrwt>0</asrwt>
<pdfrwt beam="1">  1       21 0.39048608E-03 0.31777276E+02</pdfrwt>
<pdfrwt beam="2">  1       21 0.72575072E-01 0.31777276E+02</pdfrwt>
<totfact> 0.23276139E+07</totfact>
</mgrwt>
</event>
<event>
 4    1  0.4447136E+006  0.2057827E+02  0.7546771E-02  0.1734067E+00
         21   -1    0    0  504  501  0.00000000000E+00  0.00000000000E+00  0.81840702711E+02  0.81840702711E+02  0.00000000000E+00 0. -1.
         21   -1    0    0  503  502 -0.00000000000E+00 -0.00000000000E+00 -0.63173085741E+01  0.63173085741E+01  0.00000000000E+00 0. -1.
         21    1    1    2  503  501 -0.16127547743E+02  0.12781526396E+02  0.19011848507E+02  0.28016345173E+02  0.00000000000E+00 0. -1.
         21    1    1    2  504  502  0.16127547743E+02 -0.12781526396E+02  0.56511545630E+02  0.60141666112E+02  0.00000000000E+00 0. -1.
<mgrwt>
<rscale>  2 0.20578270E+02</rscale>
<asrwt>0</asrwt>
<pdfrwt beam="1">  1       21 0.12590877E-01 0.20578270E+02</pdfrwt>
<pdfrwt beam="2">  1       21 0.97189368E-03 0.20578270E+02</pdfrwt>
<totfact> 0.13727602E+08</totfact>
</mgrwt>
</event>
<event>
 4    1  0.4447136E+006  0.4265200E+02  0.7546771E-02  0.1489556E+00
         21   -1    0    0  503  501  0.00000000000E+00  0.00000000000E+00  0.98639505818E+01  0.98639505818E+01  0.00000000000E+00 0. -1.
         21   -1    0    0  504  502 -0.00000000000E+00 -0.00000000000E+00 -0.91703727307E+03  0.91703727307E+03  0.00000000000E+00 0.  1.
         21    1    1    2  503  502  0.20435556914E+02 -0.37437695859E+02 -0.86782094492E+03  0.86886845120E+03  0.00000000000E+00 0.  1.
         21    1    1    2  504  501 -0.20435556914E+02  0.37437695859E+02 -0.39352377568E+02  0.58032772447E+02  0.00000000000E+00 0. -1.
<mgrwt>
<rscale>  2 0.42651999E+02</rscale>
<asrwt>0</asrwt>
<pdfrwt beam="1">  1       21 0.15175306E-02 0.42651999E+02</pdfrwt>
<pdfrwt beam="2">  1       21 0.14108268E+00 0.42651999E+02</pdfrwt>
<totfact> 0.68851961E+05</totfact>
</mgrwt>
</event>
<event>
 4    1  0.4447136E+006  0.2175535E+02  0.7546771E-02  0.1712518E+00
         21   -1    0    0  504  501  0.00000000000E+00  0.00000000000E+00  0.11333067703E+03  0.11333067703E+03  0.00000000000E+00 0.  1.
         21   -1    0    0  501  502 -0.00000000000E+00 -0.00000000000E+00 -0.42937951840E+01  0.42937951840E+01  0.00000000000E+00 0.  1.
         21    1    1    2  503  502  0.21662914562E+02  0.20033087565E+01  0.44786843998E+02  0.49791128814E+02  0.00000000000E+00 0.  1.
         21    1    1    2  504  503 -0.21662914562E+02 -0.20033087565E+01  0.64250037847E+02  0.67833343399E+02  0.00000000000E+00 0.  1.
<mgrwt>
<rscale>  2 0.21755347E+02</rscale>
<asrwt>0</asrwt>
<pdfrwt beam="1">  1       21 0.17435487E-01 0.21755347E+02</pdfrwt>
<pdfrwt beam="2">  1       21 0.66058396E-03 0.21755347E+02</pdfrwt>
<totfact> 0.14280436E+08</totfact>
</mgrwt>
</event>
<event>
 4    1  0.4447136E+006  0.2572365E+02  0.7546771E-02  0.1650820E+00
         21   -1    0    0  503  501  0.00000000000E+00  0.00000000000E+00  0.39484112828E+02  0.39484112828E+02  0.00000000000E+00 0.  1.
         21   -1    0    0  501  502 -0.00000000000E+00 -0.00000000000E+00 -0.14106218550E+03  0.14106218550E+03  0.00000000000E+00 0. -1.
         21    1    1    2  503  504 -0.66025068871E+01  0.24861875649E+02  0.33952197852E+02  0.42596451695E+02  0.00000000000E+00 0.  1.
         21    1    1    2  504  502  0.66025068871E+01 -0.24861875649E+02 -0.13553027052E+03  0.13794984663E+03  0.00000000000E+00 0. -1.
<mgrwt>
<rscale>  2 0.25723646E+02</rscale>
<asrwt>0</asrwt>
<pdfrwt beam="1">  1       21 0.60744790E-02 0.25723646E+02</pdfrwt>
<pdfrwt beam="2">  1       21 0.21701874E-01 0.25723646E+02</pdfrwt>
<totfact> 0.33176236E+06</totfact>
</mgrwt>
</event>
<event>
 4    1  0.4447136E+006  0.2037548E+02  0.7546771E-02  0.1737963E+00
         21   -1    0    0  503  501  0.00000000000E+00  0.00000000000E+00  0.29845813946E+02  0.29845813946E+02  0.00000000000E+00 0.  1.
         21   -1    0    0  504  502 -0.00000000000E+00 -0.00000000000E+00 -0.14085820285E+02  0.14085820285E+02  0.00000000000E+00 0.  1.
         21    1    1    2  503  502 -0.19577868755E+02 -0.56450969166E+01  0.10332967666E+02  0.22845793594E+02  0.00000000000E+00 0.  1.
         21    1    1    2  504  501  0.19577868755E+02  0.56450969166E+01  0.54270259958E+01  0.21085840636E+02  0.00000000000E+00 0.  1.
<mgrwt>
<rscale>  2 0.20375477E+02</rscale>
<asrwt>0</asrwt>
<pdfrwt beam="1">  1       21 0.45916637E-02 0.20375477E+02</pdfrwt>
<pdfrwt beam="2">  1       21 0.21670493E-02 0.20375477E+02</pdfrwt>
<totfact> 0.20880214E+08</totfact>
</mgrwt>
</event>
<event>
 4    1  0.4447136E+006  0.2021283E+02  0.7546771E-02  0.1741128E+00
         21   -1    0    0  502  501  0.00000000000E+00  0.00000000000E+00  0.45281691299E+02  0.45281691299E+02  0.00000000000E+00 0. -1.
         21   -1    0    0  504  502 -0.00000000000E+00 -0.00000000000E+00 -0.33706714432E+02  0.33706714432E+02  0.00000000000E+00 0. -1.
         21    1    1    2  503  501 -0.14552592896E+02  0.14027854164E+02  0.39584936144E+02  0.44446887653E+02  0.00000000000E+00 0. -1.
         21    1    1    2  504  503  0.14552592896E+02 -0.14027854164E+02 -0.28009959277E+02  0.34541518078E+02  0.00000000000E+00 0. -1.
<mgrwt>
<rscale>  2 0.20212834E+02</rscale>
<asrwt>0</asrwt>
<pdfrwt beam="1">  1       21 0.69664141E-02 0.20212834E+02</pdfrwt>
<pdfrwt beam="2">  1       21 0.51856483E-02 0.20212834E+02</pdfrwt>
<totfact> 0.27551233E+07</totfact>
</mgrwt>
</event>
<event>
 4    1  0.4447136E+006  0.2161241E+02  0.7546771E-02  0.1715043E+00
         21   -1    0    0  503  501  0.00000000000E+00  0.00000000000E+00  0.38990036663E+03  0.38990036663E+03  0.00000000000E+00 0. -1.
         21   -1    0    0  501  502 -0.00000000000E+00 -0.00000000000E+00 -0.13261328942E+01  0.13261328942E+01  0.00000000000E+00 0. -1.
         21    1    1    2  503  504  0.10642694383E+02 -0.18810356047E+02  0.25509408091E+03  0.25600798142E+03  0.00000000000E+00 0. -1.
         21    1    1    2  504  502 -0.10642694383E+02  0.18810356047E+02  0.13348015283E+03  0.13521851810E+03  0.00000000000E+00 0. -1.
<mgrwt>
<rscale>  2 0.21612414E+02</rscale>
<asrwt>0</asrwt>
<pdfrwt beam="1">  1       21 0.59984580E-01 0.21612414E+02</pdfrwt>
<pdfrwt beam="2">  1       21 0.20402076E-03 0.21612414E+02</pdfrwt>
<totfact> 0.81830598E+07</totfact>
</mgrwt>
</event>
<event>
 4    1  0.4447136E+006  0.2451393E+02  0.7546771E-02  0.1668083E+00
         21   -1    0    0  503  501  0.00000000000E+00  0.00000000000E+00  0.17222773841E+02  0.17222773841E+02  0.00000000000E+00 0.  1.
         21   -1    0    0  504  502 -0.00000000000E+00 -0.00000000000E+00 -0.97164163605E+02  0.97164163605E+02  0.00000000000E+00 0.  1.
         21    1    1    2  503  502 -0.23678096616E+02 -0.63467033606E+01  0.58161998580E+01  0.25194465338E+02  0.00000000000E+00 0.  1.
         21    1    1    2  504  501  0.23678096616E+02  0.63467033606E+01 -0.85757589622E+02  0.89192472107E+02  0.00000000000E+00 0.  1.
<mgrwt>
<rscale>  2 0.24513933E+02</rscale>
<asrwt>0</asrwt>
<pdfrwt beam="1">  1       21 0.26496575E-02 0.24513933E+02</pdfrwt>
<pdfrwt beam="2">  1       21 0.14948333E-01 0.24513933E+02</pdfrwt>
<totfact> 0.23355364E+07</totfact>
</mgrwt>
</event>
<event>
 4    1  0.4447136E+006  0.4243611E+02  0.7546771E-02  0.1491013E+00
         21   -1    0    0  503  501  0.00000000000E+00  0.00000000000E+00  0.29947999325E+02  0.29947999325E+02  0.00000000000E+00 0.  1.
         21   -1    0    0  504  502 -0.00000000000E+00 -0.00000000000E+00 -0.46352180577E+03  0.46352180577E+03  0.00000000000E+00 0. -1.
         21    1    1    2  503  502 -0.34831450889E+02  0.24240329432E+02  0.13388087517E+02  0.44497914888E+02  0.00000000000E+00 0.  1.
         21    1    1    2  504  501  0.34831450889E+02 -0.24240329432E+02 -0.44696189396E+03  0.44897189021E+03  0.00000000000E+00 0. -1.
<mgrwt>
<rscale>  2 0.42436111E+02</rscale>
<asrwt>0</asrwt>
<pdfrwt beam="1">  1       21 0.46073845E-02 0.42436111E+02</pdfrwt>
<pdfrwt beam="2">  1       21 0.71311048E-01 0.42436111E+02</pdfrwt>
<totfact> 0.55124543E+05</totfact>
</mgrwt>
</event>
<event>
 4    1  0.4447136E+006  0.2380447E+02  0.7546771E-02  0.1678792E+00
         21   -1    0    0  502  501  0.00000000000E+00  0.00000000000E+00  0.41394400212E+02  0.41394400212E+02  0.00000000000E+00 0. -1.
         21   -1    0    0  503  502 -0.00000000000E+00 -0.00000000000E+00 -0.32090833057E+02  0.32090833057E+02  0.00000000000E+00 0. -1.
         21    1    1    2  503  504 -0.17572610520E+02  0.16057900253E+02 -0.23171523222E+02  0.33220058540E+02  0.00000000000E+00 0. -1.
         21    1    1    2  504  501  0.17572610520E+02 -0.16057900253E+02  0.32475090377E+02  0.40265174729E+02  0.00000000000E+00 0. -1.
<mgrwt>
<rscale>  2 0.23804470E+02</rscale>
<asrwt>0</asrwt>
<pdfrwt beam="1">  1       21 0.63683693E-02 0.23804470E+02</pdfrwt>
<pdfrwt beam="2">  1       21 0.49370512E-02 0.23804470E+02</pdfrwt>
<totfact> 0.35832686E+07</totfact>
</mgrwt>
</event>
<event>
 4    1  0.4447136E+006  0.2542946E+02  0.7546771E-02  0.1654909E+00
         21   -1    0    0  502  501  0.00000000000E+00  0.00000000000E+00  0.27521277226E+01  0.27521277226E+01  0.00000000000E+00 0. -1.
         21   -1    0    0  503  502 -0.00000000000E+00 -0.00000000000E+00 -0.89758545185E+03  0.89758545185E+03  0.00000000000E+00 0.  1.
         21    1    1    2  503  504  0.10723557241E+02  0.23057818077E+02 -0.83420148616E+03  0.83458898696E+03  0.00000000000E+00 0.  1.
         21    1    1    2  504  501 -0.10723557241E+02 -0.23057818077E+02 -0.60631837968E+02  0.65748592607E+02  0.00000000000E+00 0. -1.
<mgrwt>
<rscale>  2 0.25429464E+02</rscale>
<asrwt>0</asrwt>
<pdfrwt beam="1">  1       21 0.42340435E-03 0.25429464E+02</pdfrwt>
<pdfrwt beam="2">  1       21 0.13809004E+00 0.25429464E+02</pdfrwt>
<totfact> 0.48251054E+06</totfact>
</mgrwt>
</event>
<event>
 4    1  0.4447136E+006  0.2972349E+02  0.7546771E-02  0.1601165E+00
         21   -1    0    0  503  501  0.00000000000E+00  0.00000000000E+00  0.77139178687E+02  0.77139178687E+02  0.00000000000E+00 0. -1.
         21   -1    0    0  501  502 -0.00000000000E+00 -0.00000000000E+00 -0.39255955605E+03  0.39255955605E+03  0.00000000000E+00 0. -1.
         21    1    1    2  503  504 -0.12297339039E+02 -0.27060329740E+02  0.73687888882E+02  0.79456849679E+02  0.00000000000E+00 0. -1.
         21    1    1    2  504  502  0.12297339039E+02  0.27060329740E+02 -0.38910826624E+03  0.39024188505E+03  0.00000000000E+00 0. -1.
<mgrwt>
<rscale>  2 0.29723492E+02</rscale>
<asrwt>0</asrwt>
<pdfrwt beam="1">  1       21 0.11867566E-01 0.29723492E+02</pdfrwt>
<pdfrwt beam="2">  1       21 0.60393778E-01 0.29723492E+02</pdfrwt>
<totfact> 0.16175941E+05</totfact>
</mgrwt>
</event>
<event>
 4    1  0.4447136E+006  0.2014787E+02  0.7546771E-02  0.1742403E+00
         21   -1    0    0  504  501  0.00000000000E+00  0.00000000000E+00  0.10962141847E+01  0.10962141847E+01  0.00000000000E+00 0. -1.
         21   -1    0    0  503  502 -0.00000000000E+00 -0.00000000000E+00 -0.12634883007E+04  0.12634883007E+04  0.00000000000E+00 0. -1.
         21    1    1    2  503  501 -0.14641442442E+02 -0.13840701933E+02 -0.99575416861E+02  0.10159330938E+03  0.00000000000E+00 0. -1.
         21    1    1    2  504  502  0.14641442442E+02  0.13840701933E+02 -0.11628166696E+04  0.11629912055E+04  0.00000000000E+00 0. -1.
<mgrwt>
<rscale>  2 0.20147875E+02</rscale>
<asrwt>0</asrwt>
<pdfrwt beam="1">  1       21 0.16864761E-03 0.20147875E+02</pdfrwt>
<pdfrwt beam="2">  1       21 0.19438365E+00 0.20147875E+02</pdfrwt>
<totfact> 0.77895257E+06</totfact>
</mgrwt>
</event>
<event>
 4    1  0.4447136E+006  0.3655030E+02  0.7546771E-02  0.1535249E+00
         21   -1    0    0  504  501  0.00000000000E+00  0.00000000000E+00  0.90244314686E+01  0.90244314686E+01  0.00000000000E+00 0. -1.
         21   -1    0    0  503  502 -0.00000000000E+00 -0.00000000000E+00 -0.39927382612E+03  0.39927382612E+03  0.00000000000E+00 0. -1.
         21    1    1    2  503  501 -0.12260414012E+02  0.34432644044E+02 -0.35706545127E+03  0.35893127646E+03  0.00000000000E+00 0. -1.
         21    1    1    2  504  502  0.12260414012E+02 -0.34432644044E+02 -0.33183943375E+02  0.49366981126E+02  0.00000000000E+00 0. -1.
<mgrwt>
<rscale>  2 0.36550304E+02</rscale>
<asrwt>0</asrwt>
<pdfrwt beam="1">  1       21 0.13883745E-02 0.36550304E+02</pdfrwt>
<pdfrwt beam="2">  1       21 0.61426725E-01 0.36550304E+02</pdfrwt>
<totfact> 0.49374691E+06</totfact>
</mgrwt>
</event>
<event>
 4    1  0.4447136E+006  0.2217978E+02  0.7546771E-02  0.1705161E+00
         21   -1    0    0  503  501  0.00000000000E+00  0.00000000000E+00  0.32269375927E+02  0.32269375927E+02  0.00000000000E+00 0. -1.
         21   -1    0    0  504  502 -0.00000000000E+00 -0.00000000000E+00 -0.24170845381E+02  0.24170845381E+02  0.00000000000E+00 0.  1.
         21    1    1    2  503  502 -0.20462678832E+02 -0.85569436948E+01 -0.13099805089E+02  0.25759413886E+02  0.00000000000E+00 0.  1.
         21    1    1    2  504  501  0.20462678832E+02  0.85569436948E+01  0.21198335635E+02  0.30680807422E+02  0.00000000000E+00 0. -1.
<mgrwt>
<rscale>  2 0.22179777E+02</rscale>
<asrwt>0</asrwt>
<pdfrwt beam="1">  1       21 0.49645194E-02 0.22179777E+02</pdfrwt>
<pdfrwt beam="2">  1       21 0.37185916E-02 0.22179777E+02</pdfrwt>
<totfact> 0.82011190E+07</totfact>
</mgrwt>
</event>
<event>
 4    1  0.4447136E+006  0.2236047E+02  0.7546771E-02  0.1702091E+00
         21   -1    0    0  504  501  0.00000000000E+00  0.00000000000E+00  0.20768246000E+02  0.20768246000E+02  0.00000000000E+00 0. -1.
         21   -1    0    0  503  502 -0.00000000000E+00 -0.00000000000E+00 -0.99379846326E+02  0.99379846326E+02  0.00000000000E+00 0.  1.
         21    1    1    2  503  501 -0.11487498313E+02 -0.19184052077E+02  0.12987962091E+02  0.25858801807E+02  0.00000000000E+00 0. -1.
         21    1    1    2  504  502  0.11487498313E+02  0.19184052077E+02 -0.91599562417E+02  0.94289290519E+02  0.00000000000E+00 0.  1.
<mgrwt>
<rscale>  2 0.22360467E+02</rscale>
<asrwt>0</asrwt>
<pdfrwt beam="1">  1       21 0.31951148E-02 0.22360467E+02</pdfrwt>
<pdfrwt beam="2">  1       21 0.15289207E-01 0.22360467E+02</pdfrwt>
<totfact> 0.16459156E+07</totfact>
</mgrwt>
</event>
<event>
 4    1  0.4447136E+006  0.3825906E+02  0.7546771E-02  0.1521428E+00
         21   -1    0    0  504  501  0.00000000000E+00  0.00000000000E+00  0.54697801517E+01  0.54697801517E+01  0.00000000000E+00 0. -1.
         21   -1    0    0  501  502 -0.00000000000E+00 -0.00000000000E+00 -0.35295083608E+03  0.35295083608E+03  0.00000000000E+00 0.  1.
         21    1    1    2  503  502  0.35147161627E+02 -0.15113994988E+02 -0.26186366153E+03  0.26464378520E+03  0.00000000000E+00 0.  1.
         21    1    1    2  504  503 -0.35147161627E+02  0.15113994988E+02 -0.85617394404E+02  0.93776831037E+02  0.00000000000E+00 0. -1.
<mgrwt>
<rscale>  2 0.38259062E+02</rscale>
<asrwt>0</asrwt>
<pdfrwt beam="1">  1       21 0.84150475E-03 0.38259062E+02</pdfrwt>
<pdfrwt beam="2">  1       21 0.54300121E-01 0.38259062E+02</pdfrwt>
<totfact> 0.13711235E+07</totfact>
</mgrwt>
</event>
<event>
 4    1  0.4447136E+006  0.2053665E+02  0.7546771E-02  0.1734862E+00
         21   -1    0    0  502  501  0.00000000000E+00  0.00000000000E+00  0.39629562784E+01  0.39629562784E+01  0.00000000000E+00 0. -1.
         21   -1    0    0  503  502 -0.00000000000E+00 -0.00000000000E+00 -0.16266333840E+03  0.16266333840E+03  0.00000000000E+00 0.  1.
         21    1    1    2  503  504  0.65918463427E+01 -0.19449977885E+02 -0.12833804270E+03  0.12997079396E+03  0.00000000000E+00 0.  1.
         21    1    1    2  504  501 -0.65918463427E+01  0.19449977885E+02 -0.30362339419E+02  0.36655500719E+02  0.00000000000E+00 0. -1.
<mgrwt>
<rscale>  2 0.20536652E+02</rscale>
<asrwt>0</asrwt>
<pdfrwt beam="1">  1       21 0.60968557E-03 0.20536652E+02</pdfrwt>
<pdfrwt beam="2">  1       21 0.25025130E-01 0.20536652E+02</pdfrwt>
<totfact> 0.84161723E+07</totfact>
</mgrwt>
</event>
<event>
 4    1  0.4447136E+006  0.2489123E+02  0.7546771E-02  0.1662569E+00
         21   -1    0    0  504  501  0.00000000000E+00  0.00000000000E+00  0.19183010046E+03  0.19183010046E+03  0.00000000000E+00 0.  1.
         21   -1    0    0  503  502 -0.00000000000E+00 -0.00000000000E+00 -0.38948017495E+01  0.38948017495E+01  0.00000000000E+00 0.  1.
         21    1    1    2  503  501 -0.23684374417E+02  0.76566300224E+01  0.53530215704E+02  0.59034376156E+02  0.00000000000E+00 0.  1.
         21    1    1    2  504  502  0.23684374417E+02 -0.76566300224E+01  0.13440508301E+03  0.13669052606E+03  0.00000000000E+00 0.  1.
<mgrwt>
<rscale>  2 0.24891235E+02</rscale>
<asrwt>0</asrwt>
<pdfrwt beam="1">  1       21 0.29512316E-01 0.24891235E+02</pdfrwt>
<pdfrwt beam="2">  1       21 0.59920042E-03 0.24891235E+02</pdfrwt>
<totfact> 0.67509267E+07</totfact>
</mgrwt>
</event>
<event>
 4    1  0.4447136E+006  0.2149072E+02  0.7546771E-02  0.1717212E+00
         21   -1    0    0  504  501  0.00000000000E+00  0.00000000000E+00  0.12223462780E+03  0.12223462780E+03  0.00000000000E+00 0.  1.
         21   -1    0    0  503  502 -0.00000000000E+00 -0.00000000000E+00 -0.13174575603E+02  0.13174575603E+02  0.00000000000E+00 0.  1.
         21    1    1    2  503  501 -0.92594296350E+01  0.19393658423E+02 -0.26475167879E+01  0.21653183815E+02  0.00000000000E+00 0.  1.
         21    1    1    2  504  502  0.92594296350E+01 -0.19393658423E+02  0.11170756898E+03  0.11375601959E+03  0.00000000000E+00 0.  1.
<mgrwt>
<rscale>  2 0.21490719E+02</rscale>
<asrwt>0</asrwt>
<pdfrwt beam="1">  1       21 0.18805327E-01 0.21490719E+02</pdfrwt>
<pdfrwt beam="2">  1       21 0.20268579E-02 0.21490719E+02</pdfrwt>
<totfact> 0.23104468E+07</totfact>
</mgrwt>
</event>
<event>
 4    1  0.4447136E+006  0.2127236E+02  0.7546771E-02  0.1721149E+00
         21   -1    0    0  503  501  0.00000000000E+00  0.00000000000E+00  0.18668548255E+02  0.18668548255E+02  0.00000000000E+00 0.  1.
         21   -1    0    0  504  502 -0.00000000000E+00 -0.00000000000E+00 -0.92492142323E+02  0.92492142323E+02  0.00000000000E+00 0. -1.
         21    1    1    2  503  502  0.20453011855E+02  0.58470313893E+01 -0.84656921937E+02  0.87288647039E+02  0.00000000000E+00 0. -1.
         21    1    1    2  504  501 -0.20453011855E+02 -0.58470313893E+01  0.10833327869E+02  0.23872043539E+02  0.00000000000E+00 0.  1.
<mgrwt>
<rscale>  2 0.21272364E+02</rscale>
<asrwt>0</asrwt>
<pdfrwt beam="1">  1       21 0.28720844E-02 0.21272364E+02</pdfrwt>
<pdfrwt beam="2">  1       21 0.14229560E-01 0.21272364E+02</pdfrwt>
<totfact> 0.21701949E+07</totfact>
</mgrwt>
</event>
<event>
 4    1  0.4447136E+006  0.2007420E+02  0.7546771E-02  0.1743856E+00
         21   -1    0    0  504  501  0.00000000000E+00  0.00000000000E+00  0.16209260227E+03  0.16209260227E+03  0.00000000000E+00 0. -1.
         21   -1    0    0  501  502 -0.00000000000E+00 -0.00000000000E+00 -0.25849977389E+01  0.25849977389E+01  0.00000000000E+00 0. -1.
         21    1    1    2  503  502  0.14750875983E+02 -0.13615628573E+02  0.63646168077E+02  0.66736859340E+02  0.00000000000E+00 0. -1.
         21    1    1    2  504  503 -0.14750875983E+02  0.13615628573E+02  0.95861436456E+02  0.97940740670E+02  0.00000000000E+00 0. -1.
<mgrwt>
<rscale>  2 0.20074204E+02</rscale>
<asrwt>0</asrwt>
<pdfrwt beam="1">  1       21 0.24937315E-01 0.20074204E+02</pdfrwt>
<pdfrwt beam="2">  1       21 0.39769209E-03 0.20074204E+02</pdfrwt>
<totfact> 0.15751506E+08</totfact>
</mgrwt>
</event>
<event>
 4    1  0.4447136E+006  0.3596962E+02  0.7546771E-02  0.1540155E+00
         21   -1    0    0  503  501  0.00000000000E+00  0.00000000000E+00  0.84293733420E+01  0.84293733420E+01  0.00000000000E+00 0. -1.
         21   -1    0    0  504  502 -0.00000000000E+00 -0.00000000000E+00 -0.18410883936E+03  0.18410883936E+03  0.00000000000E+00 0. -1.
         21    1    1    2  503  502 -0.19607382051E+02  0.30155662480E+02 -0.48579459193E+02  0.60446482660E+02  0.00000000000E+00 0. -1.
         21    1    1    2  504  501  0.19607382051E+02 -0.30155662480E+02 -0.12710000683E+03  0.13209173005E+03  0.00000000000E+00 0. -1.
<mgrwt>
<rscale>  2 0.35969618E+02</rscale>
<asrwt>0</asrwt>
<pdfrwt beam="1">  1       21 0.12968269E-02 0.35969618E+02</pdfrwt>
<pdfrwt beam="2">  1       21 0.28324432E-01 0.35969618E+02</pdfrwt>
<totfact> 0.24458023E+07</totfact>
</mgrwt>
</event>
<event>
 4    1  0.4447136E+006  0.3741506E+02  0.7546771E-02  0.1528144E+00
         21   -1    0    0  503  501  0.00000000000E+00  0.00000000000E+00  0.38052158843E+01  0.38052158843E+01  0.00000000000E+00 0.  1.
         21   -1    0    0  504  502 -0.00000000000E+00 -0.00000000000E+00 -0.38843577739E+03  0.38843577739E+03  0.00000000000E+00 0.  1.
         21    1    1    2  503  502  0.67409116441E+01  0.36802805131E+02 -0.23742446533E+03  0.24035445303E+03  0.00000000000E+00 0.  1.
         21    1    1    2  504  501 -0.67409116441E+01 -0.36802805131E+02 -0.14720609617E+03  0.15188654024E+03  0.00000000000E+00 0.  1.
<mgrwt>
<rscale>  2 0.37415055E+02</rscale>
<asrwt>0</asrwt>
<pdfrwt beam="1">  1       21 0.58541789E-03 0.37415055E+02</pdfrwt>
<pdfrwt beam="2">  1       21 0.59759344E-01 0.37415055E+02</pdfrwt>
<totfact> 0.19487044E+07</totfact>
</mgrwt>
</event>
<event>
 4    1  0.4447136E+006  0.2043971E+02  0.7546771E-02  0.1736723E+00
         21   -1    0    0  502  501  0.00000000000E+00  0.00000000000E+00  0.38217874764E+02  0.38217874764E+02  0.00000000000E+00 0.  1.
         21   -1    0    0  503  502 -0.00000000000E+00 -0.00000000000E+00 -0.11551891981E+03  0.11551891981E+03  0.00000000000E+00 0.  1.
         21    1    1    2  503  504 -0.96110119411E+01  0.18039131804E+02 -0.11179151026E+03  0.11364472532E+03  0.00000000000E+00 0.  1.
         21    1    1    2  504  501  0.96110119411E+01 -0.18039131804E+02  0.34490465211E+02  0.40092069256E+02  0.00000000000E+00 0.  1.
<mgrwt>
<rscale>  2 0.20439712E+02</rscale>
<asrwt>0</asrwt>
<pdfrwt beam="1">  1       21 0.58796731E-02 0.20439712E+02</pdfrwt>
<pdfrwt beam="2">  1       21 0.17772141E-01 0.20439712E+02</pdfrwt>
<totfact> 0.47799718E+06</totfact>
</mgrwt>
</event>
<event>
 4    1  0.4447136E+006  0.2117974E+02  0.7546771E-02  0.1722837E+00
         21   -1    0    0  504  501  0.00000000000E+00  0.00000000000E+00  0.78232337316E+03  0.78232337316E+03  0.00000000000E+00 0. -1.
         21   -1    0    0  503  502 -0.00000000000E+00 -0.00000000000E+00 -0.13431892139E+01  0.13431892139E+01  0.00000000000E+00 0. -1.
         21    1    1    2  503  501  0.66676666501E+01  0.20102826096E+02  0.68712322110E+03  0.68744956351E+03  0.00000000000E+00 0. -1.
         21    1    1    2  504  502 -0.66676666501E+01 -0.20102826096E+02  0.93856962842E+02  0.96216998860E+02  0.00000000000E+00 0. -1.
<mgrwt>
<rscale>  2 0.21179740E+02</rscale>
<asrwt>0</asrwt>
<pdfrwt beam="1">  1       21 0.12035708E+00 0.21179740E+02</pdfrwt>
<pdfrwt beam="2">  1       21 0.20664512E-03 0.21179740E+02</pdfrwt>
<totfact> 0.18305625E+07</totfact>
</mgrwt>
</event>
<event>
 4    1  0.4447136E+006  0.3093289E+02  0.7546771E-02  0.1588000E+00
         21   -1    0    0  503  501  0.00000000000E+00  0.00000000000E+00  0.15966329733E+04  0.15966329733E+04  0.00000000000E+00 0. -1.
         21   -1    0    0  504  502 -0.00000000000E+00 -0.00000000000E+00 -0.61600333103E+00  0.61600333103E+00  0.00000000000E+00 0.  1.
         21    1    1    2  503  502 -0.30579837632E+02 -0.46601620551E+01  0.92956238033E+03  0.93007691215E+03  0.00000000000E+00 0. -1.
         21    1    1    2  504  501  0.30579837632E+02  0.46601620551E+01  0.66645458961E+03  0.66717206446E+03  0.00000000000E+00 0.  1.
<mgrwt>
<rscale>  2 0.30932888E+02</rscale>
<asrwt>0</asrwt>
<pdfrwt beam="1">  1       21 0.24563253E+00 0.30932888E+02</pdfrwt>
<pdfrwt beam="2">  1       21 0.94771022E-04 0.30932888E+02</pdfrwt>
<totfact> 0.98552329E+06</totfact>
</mgrwt>
</event>
<event>
 4    1  0.4447136E+006  0.2354857E+02  0.7546771E-02  0.1682769E+00
         21   -1    0    0  503  501  0.00000000000E+00  0.00000000000E+00  0.17359128270E+01  0.17359128270E+01  0.00000000000E+00 0. -1.
         21   -1    0    0  504  502 -0.00000000000E+00 -0.00000000000E+00 -0.38692250543E+03  0.38692250543E+03  0.00000000000E+00 0.  1.
         21    1    1    2  503  502  0.15967052418E+02  0.17308621097E+02 -0.27374425069E+03  0.27475525457E+03  0.00000000000E+00 0.  1.
         21    1    1    2  504  501 -0.15967052418E+02 -0.17308621097E+02 -0.11144234191E+03  0.11390316369E+03  0.00000000000E+00 0. -1.
<mgrwt>
<rscale>  2 0.23548570E+02</rscale>
<asrwt>0</asrwt>
<pdfrwt beam="1">  1       21 0.26706340E-03 0.23548570E+02</pdfrwt>
<pdfrwt beam="2">  1       21 0.59526563E-01 0.23548570E+02</pdfrwt>
<totfact> 0.57458672E+07</totfact>
</mgrwt>
</event>
<event>
 4    1  0.4447136E+006  0.2457166E+02  0.7546771E-02  0.1667232E+00
         21   -1    0    0  502  501  0.00000000000E+00  0.00000000000E+00  0.27186658494E+02  0.27186658494E+02  0.00000000000E+00 0. -1.
         21   -1    0    0  504  502 -0.00000000000E+00 -0.00000000000E+00 -0.58791590907E+02  0.58791590907E+02  0.00000000000E+00 0. -1.
         21    1    1    2  503  501  0.10103803573E+02 -0.22398209662E+02  0.18108721316E+02  0.30523637241E+02  0.00000000000E+00 0. -1.
         21    1    1    2  504  503 -0.10103803573E+02  0.22398209662E+02 -0.49713653730E+02  0.55454612160E+02  0.00000000000E+00 0. -1.
<mgrwt>
<rscale>  2 0.24571663E+02</rscale>
<asrwt>0</asrwt>
<pdfrwt beam="1">  1       21 0.41825629E-02 0.24571663E+02</pdfrwt>
<pdfrwt beam="2">  1       21 0.90448601E-02 0.24571663E+02</pdfrwt>
<totfact> 0.26515117E+07</totfact>
</mgrwt>
</event>
<event>
 4    1  0.4447136E+006  0.2083416E+02  0.7546771E-02  0.1729231E+00
         21   -1    0    0  502  501  0.00000000000E+00  0.00000000000E+00  0.24677899137E+03  0.24677899137E+03  0.00000000000E+00 0. -1.
         21   -1    0    0  503  502 -0.00000000000E+00 -0.00000000000E+00 -0.21850955116E+01  0.21850955116E+01  0.00000000000E+00 0.  1.
         21    1    1    2  503  504 -0.20778380593E+02  0.15234876820E+01  0.67321259827E+02  0.70471371063E+02  0.00000000000E+00 0.  1.
         21    1    1    2  504  501  0.20778380593E+02 -0.15234876820E+01  0.17727263603E+03  0.17849271582E+03  0.00000000000E+00 0. -1.
<mgrwt>
<rscale>  2 0.20834157E+02</rscale>
<asrwt>0</asrwt>
<pdfrwt beam="1">  1       21 0.37965977E-01 0.20834157E+02</pdfrwt>
<pdfrwt beam="2">  1       21 0.33616874E-03 0.20834157E+02</pdfrwt>
<totfact> 0.94834863E+07</totfact>
</mgrwt>
</event>
<event>
 4    1  0.4447136E+006  0.2124661E+02  0.7546771E-02  0.1721617E+00
         21   -1    0    0  502  501  0.00000000000E+00  0.00000000000E+00  0.20160756105E+01  0.20160756105E+01  0.00000000000E+00 0.  1.
         21   -1    0    0  503  502 -0.00000000000E+00 -0.00000000000E+00 -0.66812967911E+03  0.66812967911E+03  0.00000000000E+00 0. -1.
         21    1    1    2  503  504  0.20595505265E+02 -0.52195256309E+01 -0.60627403068E+03  0.60664620543E+03  0.00000000000E+00 0. -1.
         21    1    1    2  504  501 -0.20595505265E+02  0.52195256309E+01 -0.59839572817E+02  0.63499549289E+02  0.00000000000E+00 0.  1.
<mgrwt>
<rscale>  2 0.21246606E+02</rscale>
<asrwt>0</asrwt>
<pdfrwt beam="1">  1       21 0.31016513E-03 0.21246606E+02</pdfrwt>
<pdfrwt beam="2">  1       21 0.10278930E+00 0.21246606E+02</pdfrwt>
<totfact> 0.14448586E+07</totfact>
</mgrwt>
</event>
<event>
 4    1  0.4447136E+006  0.2530396E+02  0.7546771E-02  0.1656674E+00
         21   -1    0    0  502  501  0.00000000000E+00  0.00000000000E+00  0.13740886019E+03  0.13740886019E+03  0.00000000000E+00 0. -1.
         21   -1    0    0  503  502 -0.00000000000E+00 -0.00000000000E+00 -0.11960139606E+02  0.11960139606E+02  0.00000000000E+00 0. -1.
         21    1    1    2  503  504 -0.22388006773E+02  0.11792698177E+02  0.43750872852E+01  0.25679407437E+02  0.00000000000E+00 0. -1.
         21    1    1    2  504  501  0.22388006773E+02 -0.11792698177E+02  0.12107363330E+03  0.12368959236E+03  0.00000000000E+00 0. -1.
<mgrwt>
<rscale>  2 0.25303964E+02</rscale>
<asrwt>0</asrwt>
<pdfrwt beam="1">  1       21 0.21139824E-01 0.25303964E+02</pdfrwt>
<pdfrwt beam="2">  1       21 0.18400216E-02 0.25303964E+02</pdfrwt>
<totfact> 0.22644972E+07</totfact>
</mgrwt>
</event>
<event>
 4    1  0.4447136E+006  0.2235464E+02  0.7546771E-02  0.1702190E+00
         21   -1    0    0  503  501  0.00000000000E+00  0.00000000000E+00  0.34035772757E+03  0.34035772757E+03  0.00000000000E+00 0.  1.
         21   -1    0    0  504  502 -0.00000000000E+00 -0.00000000000E+00 -0.15027312236E+01  0.15027312236E+01  0.00000000000E+00 0.  1.
         21    1    1    2  503  502  0.23623026248E+01  0.22229471410E+02  0.19532013192E+03  0.19659522834E+03  0.00000000000E+00 0.  1.
         21    1    1    2  504  501 -0.23623026248E+01 -0.22229471410E+02  0.14353486443E+03  0.14526523046E+03  0.00000000000E+00 0.  1.
<mgrwt>
<rscale>  2 0.22354639E+02</rscale>
<asrwt>0</asrwt>
<pdfrwt beam="1">  1       21 0.52362666E-01 0.22354639E+02</pdfrwt>
<pdfrwt beam="2">  1       21 0.23118969E-03 0.22354639E+02</pdfrwt>
<totfact> 0.90101354E+07</totfact>
</mgrwt>
</event>
<event>
 4    1  0.4447136E+006  0.2552013E+02  0.7546771E-02  0.1653642E+00
         21   -1    0    0  503  501  0.00000000000E+00  0.00000000000E+00  0.50233406313E+01  0.50233406313E+01  0.00000000000E+00 0. -1.
         21   -1    0    0  501  502 -0.00000000000E+00 -0.00000000000E+00 -0.13009525575E+03  0.13009525575E+03  0.00000000000E+00 0. -1.
         21    1    1    2  503  504  0.22696272718E+02  0.11668597409E+02 -0.58584322465E+02  0.63901485112E+02  0.00000000000E+00 0. -1.
         21    1    1    2  504  502 -0.22696272718E+02 -0.11668597409E+02 -0.66487592658E+02  0.71217111274E+02  0.00000000000E+00 0. -1.
<mgrwt>
<rscale>  2 0.25520129E+02</rscale>
<asrwt>0</asrwt>
<pdfrwt beam="1">  1       21 0.77282167E-03 0.25520129E+02</pdfrwt>
<pdfrwt beam="2">  1       21 0.20014654E-01 0.25520129E+02</pdfrwt>
<totfact> 0.92983487E+07</totfact>
</mgrwt>
</event>
<event>
 4    1  0.4447136E+006  0.2504380E+02  0.7546771E-02  0.1660374E+00
         21   -1    0    0  503  501  0.00000000000E+00  0.00000000000E+00  0.93871520342E+02  0.93871520342E+02  0.00000000000E+00 0. -1.
         21   -1    0    0  504  502 -0.00000000000E+00 -0.00000000000E+00 -0.37902759605E+02  0.37902759605E+02  0.00000000000E+00 0. -1.
         21    1    1    2  503  502  0.24960837619E+02  0.20367513965E+01  0.87783012591E+02  0.91285535932E+02  0.00000000000E+00 0. -1.
         21    1    1    2  504  501 -0.24960837619E+02 -0.20367513965E+01 -0.31814251854E+02  0.40488744015E+02  0.00000000000E+00 0. -1.
<mgrwt>
<rscale>  2 0.25043797E+02</rscale>
<asrwt>0</asrwt>
<pdfrwt beam="1">  1       21 0.14441772E-01 0.25043797E+02</pdfrwt>
<pdfrwt beam="2">  1       21 0.58311938E-02 0.25043797E+02</pdfrwt>
<totfact> 0.71515444E+06</totfact>
</mgrwt>
</event>
<event>
 4    1  0.4447136E+006  0.2257457E+02  0.7546771E-02  0.1698501E+00
         21   -1    0    0  504  501  0.00000000000E+00  0.00000000000E+00  0.23032205648E+01  0.23032205648E+01  0.00000000000E+00 0. -1.
         21   -1    0    0  503  502 -0.00000000000E+00 -0.00000000000E+00 -0.24062997844E+03  0.24062997844E+03  0.00000000000E+00 0. -1.
         21    1    1    2  503  501 -0.46698963605E+01  0.22086264269E+02 -0.84701056969E+02  0.87657743828E+02  0.00000000000E+00 0. -1.
         21    1    1    2  504  502  0.46698963605E+01 -0.22086264269E+02 -0.15362570091E+03  0.15527545518E+03  0.00000000000E+00 0. -1.
<mgrwt>
<rscale>  2 0.22574565E+02</rscale>
<asrwt>0</asrwt>
<pdfrwt beam="1">  1       21 0.35434175E-03 0.22574565E+02</pdfrwt>
<pdfrwt beam="2">  1       21 0.37019983E-01 0.22574565E+02</pdfrwt>
<totfact> 0.94053987E+07</totfact>
</mgrwt>
</event>
<event>
 4    1  0.4447136E+006  0.3206413E+02  0.7546771E-02  0.1576333E+00
         21   -1    0    0  504  501  0.00000000000E+00  0.00000000000E+00  0.11029585600E+02  0.11029585600E+02  0.00000000000E+00 0. -1.
         21   -1    0    0  503  502 -0.00000000000E+00 -0.00000000000E+00 -0.15364023791E+03  0.15364023791E+03  0.00000000000E+00 0.  1.
         21    1    1    2  503  501  0.11111586733E+02 -0.30077250316E+02 -0.12294047577E+03  0.12705301621E+03  0.00000000000E+00 0.  1.
         21    1    1    2  504  502 -0.11111586733E+02  0.30077250316E+02 -0.19670176546E+02  0.37616807302E+02  0.00000000000E+00 0. -1.
<mgrwt>
<rscale>  2 0.32064129E+02</rscale>
<asrwt>0</asrwt>
<pdfrwt beam="1">  1       21 0.16968593E-02 0.32064129E+02</pdfrwt>
<pdfrwt beam="2">  1       21 0.23636960E-01 0.32064129E+02</pdfrwt>
<totfact> 0.22012578E+07</totfact>
</mgrwt>
</event>
<event>
 4    1  0.4447136E+006  0.2010821E+02  0.7546771E-02  0.1743185E+00
         21   -1    0    0  504  501  0.00000000000E+00  0.00000000000E+00  0.14866367831E+01  0.14866367831E+01  0.00000000000E+00 0.  1.
         21   -1    0    0  503  502 -0.00000000000E+00 -0.00000000000E+00 -0.31103534334E+03  0.31103534334E+03  0.00000000000E+00 0.  1.
         21    1    1    2  503  501  0.10889285462E+02 -0.16904540694E+02 -0.99405074088E+02  0.10141848347E+03  0.00000000000E+00 0.  1.
         21    1    1    2  504  502 -0.10889285462E+02  0.16904540694E+02 -0.21014363246E+03  0.21110349665E+03  0.00000000000E+00 0.  1.
<mgrwt>
<rscale>  2 0.20108208E+02</rscale>
<asrwt>0</asrwt>
<pdfrwt beam="1">  1       21 0.22871331E-03 0.20108208E+02</pdfrwt>
<pdfrwt beam="2">  1       21 0.47851600E-01 0.20108208E+02</pdfrwt>
<totfact> 0.10592371E+08</totfact>
</mgrwt>
</event>
<event>
 4    1  0.4447136E+006  0.2847941E+02  0.7546771E-02  0.1615532E+00
         21   -1    0    0  504  501  0.00000000000E+00  0.00000000000E+00  0.11972193220E+02  0.11972193220E+02  0.00000000000E+00 0.  1.
         21   -1    0    0  503  502 -0.00000000000E+00 -0.00000000000E+00 -0.93469125833E+02  0.93469125833E+02  0.00000000000E+00 0.  1.
         21    1    1    2  503  501 -0.28477226156E+02 -0.35231488268E+00 -0.13091614724E+02  0.31344328218E+02  0.00000000000E+00 0.  1.
         21    1    1    2  504  502  0.28477226156E+02  0.35231488268E+00 -0.68405317888E+02  0.74096990835E+02  0.00000000000E+00 0.  1.
<mgrwt>
<rscale>  2 0.28479405E+02</rscale>
<asrwt>0</asrwt>
<pdfrwt beam="1">  1       21 0.18418759E-02 0.28479405E+02</pdfrwt>
<pdfrwt beam="2">  1       21 0.14379866E-01 0.28479405E+02</pdfrwt>
<totfact> 0.45262017E+07</totfact>
</mgrwt>
</event>
<event>
 4    1  0.4447136E+006  0.2011748E+02  0.7546771E-02  0.1743002E+00
         21   -1    0    0  503  501  0.00000000000E+00  0.00000000000E+00  0.17803317680E+03  0.17803317680E+03  0.00000000000E+00 0.  1.
         21   -1    0    0  504  502 -0.00000000000E+00 -0.00000000000E+00 -0.23307002999E+01  0.23307002999E+01  0.00000000000E+00 0.  1.
         21    1    1    2  503  502  0.37018448345E+01 -0.19773958564E+02  0.10201048178E+03  0.10397524458E+03  0.00000000000E+00 0.  1.
         21    1    1    2  504  501 -0.37018448345E+01  0.19773958564E+02  0.73691994718E+02  0.76388632518E+02  0.00000000000E+00 0.  1.
<mgrwt>
<rscale>  2 0.20117482E+02</rscale>
<asrwt>0</asrwt>
<pdfrwt beam="1">  1       21 0.27389709E-01 0.20117482E+02</pdfrwt>
<pdfrwt beam="2">  1       21 0.35856942E-03 0.20117482E+02</pdfrwt>
<totfact> 0.15511571E+08</totfact>
</mgrwt>
</event>
<event>
 4    1  0.4447136E+006  0.2192647E+02  0.7546771E-02  0.1709527E+00
         21   -1    0    0  502  501  0.00000000000E+00  0.00000000000E+00  0.44777775623E+03  0.44777775623E+03  0.00000000000E+00 0.  1.
         21   -1    0    0  503  502 -0.00000000000E+00 -0.00000000000E+00 -0.80262925613E+01  0.80262925613E+01  0.00000000000E+00 0.  1.
         21    1    1    2  503  504 -0.39750990850E+01 -0.21563134412E+02  0.77639982822E+01  0.23260478235E+02  0.00000000000E+00 0.  1.
         21    1    1    2  504  501  0.39750990850E+01  0.21563134412E+02  0.43198746538E+03  0.43254357055E+03  0.00000000000E+00 0.  1.
<mgrwt>
<rscale>  2 0.21926472E+02</rscale>
<asrwt>0</asrwt>
<pdfrwt beam="1">  1       21 0.68888866E-01 0.21926472E+02</pdfrwt>
<pdfrwt beam="2">  1       21 0.12348146E-02 0.21926472E+02</pdfrwt>
<totfact> 0.43759170E+06</totfact>
</mgrwt>
</event>
<event>
 4    1  0.4447136E+006  0.2097453E+02  0.7546771E-02  0.1726615E+00
         21   -1    0    0  504  501  0.00000000000E+00  0.00000000000E+00  0.21161656922E+01  0.21161656922E+01  0.00000000000E+00 0. -1.
         21   -1    0    0  503  502 -0.00000000000E+00 -0.00000000000E+00 -0.33310739520E+03  0.33310739520E+03  0.00000000000E+00 0. -1.
         21    1    1    2  503  501 -0.14812782067E+02 -0.14849655847E+02 -0.62730945512E+02  0.66144556210E+02  0.00000000000E+00 0. -1.
         21    1    1    2  504  502  0.14812782067E+02  0.14849655847E+02 -0.26826028400E+03  0.26907900468E+03  0.00000000000E+00 0. -1.
<mgrwt>
<rscale>  2 0.20974527E+02</rscale>
<asrwt>0</asrwt>
<pdfrwt beam="1">  1       21 0.32556403E-03 0.20974527E+02</pdfrwt>
<pdfrwt beam="2">  1       21 0.51247279E-01 0.20974527E+02</pdfrwt>
<totfact> 0.56261628E+07</totfact>
</mgrwt>
</event>
<event>
 4    1  0.4447136E+006  0.2984288E+02  0.7546771E-02  0.1599832E+00
         21   -1    0    0  503  501  0.00000000000E+00  0.00000000000E+00  0.74419186152E+03  0.74419186152E+03  0.00000000000E+00 0.  1.
         21   -1    0    0  504  502 -0.00000000000E+00 -0.00000000000E+00 -0.11809991842E+02  0.11809991842E+02  0.00000000000E+00 0. -1.
         21    1    1    2  503  502  0.29796664906E+02 -0.16601864524E+01  0.72452862100E+03  0.72514296529E+03  0.00000000000E+00 0.  1.
         21    1    1    2  504  501 -0.29796664906E+02  0.16601864524E+01  0.78532486819E+01  0.30858888078E+02  0.00000000000E+00 0. -1.
<mgrwt>
<rscale>  2 0.29842880E+02</rscale>
<asrwt>0</asrwt>
<pdfrwt beam="1">  1       21 0.11449102E+00 0.29842880E+02</pdfrwt>
<pdfrwt beam="2">  1       21 0.18169224E-02 0.29842880E+02</pdfrwt>
<totfact> 0.83960334E+05</totfact>
</mgrwt>
</event>
<event>
 4    1  0.4447136E+006  0.2217910E+02  0.7546771E-02  0.1705173E+00
         21   -1    0    0  503  501  0.00000000000E+00  0.00000000000E+00  0.39255401774E+03  0.39255401774E+03  0.00000000000E+00 0. -1.
         21   -1    0    0  504  502 -0.00000000000E+00 -0.00000000000E+00 -0.62405145938E+01  0.62405145938E+01  0.00000000000E+00 0.  1.
         21    1    1    2  503  502 -0.16013502933E+02 -0.15345358542E+02  0.14899824265E+02  0.26719226562E+02  0.00000000000E+00 0.  1.
         21    1    1    2  504  501  0.16013502933E+02  0.15345358542E+02  0.37141367888E+03  0.37207530577E+03  0.00000000000E+00 0. -1.
<mgrwt>
<rscale>  2 0.22179096E+02</rscale>
<asrwt>0</asrwt>
<pdfrwt beam="1">  1       21 0.60392906E-01 0.22179096E+02</pdfrwt>
<pdfrwt beam="2">  1       21 0.96007948E-03 0.22179096E+02</pdfrwt>
<totfact> 0.83481286E+06</totfact>
</mgrwt>
</event>
<event>
 4    1  0.4447136E+006  0.3992970E+02  0.7546771E-02  0.1508729E+00
         21   -1    0    0  503  501  0.00000000000E+00  0.00000000000E+00  0.25114232684E+02  0.25114232684E+02  0.00000000000E+00 0.  1.
         21   -1    0    0  501  502 -0.00000000000E+00 -0.00000000000E+00 -0.64296979342E+02  0.64296979342E+02  0.00000000000E+00 0.  1.
         21    1    1    2  503  504 -0.37761366221E+02  0.12979208014E+02 -0.24614814324E+02  0.46907032562E+02  0.00000000000E+00 0.  1.
         21    1    1    2  504  502  0.37761366221E+02 -0.12979208014E+02 -0.14567932334E+02  0.42504179465E+02  0.00000000000E+00 0.  1.
<mgrwt>
<rscale>  2 0.39929696E+02</rscale>
<asrwt>0</asrwt>
<pdfrwt beam="1">  1       21 0.38637281E-02 0.39929696E+02</pdfrwt>
<pdfrwt beam="2">  1       21 0.98918429E-02 0.39929696E+02</pdfrwt>
<totfact> 0.28495360E+07</totfact>
</mgrwt>
</event>
<event>
 4    1  0.4447136E+006  0.2097704E+02  0.7546771E-02  0.1726569E+00
         21   -1    0    0  503  501  0.00000000000E+00  0.00000000000E+00  0.20161069955E+02  0.20161069955E+02  0.00000000000E+00 0. -1.
         21   -1    0    0  504  502 -0.00000000000E+00 -0.00000000000E+00 -0.31142032187E+02  0.31142032187E+02  0.00000000000E+00 0. -1.
         21    1    1    2  503  502  0.17333192343E+02  0.11815105694E+02  0.85394248444E+01  0.22648577351E+02  0.00000000000E+00 0. -1.
         21    1    1    2  504  501 -0.17333192343E+02 -0.11815105694E+02 -0.19520387077E+02  0.28654524791E+02  0.00000000000E+00 0. -1.
<mgrwt>
<rscale>  2 0.20977042E+02</rscale>
<asrwt>0</asrwt>
<pdfrwt beam="1">  1       21 0.31017031E-02 0.20977042E+02</pdfrwt>
<pdfrwt beam="2">  1       21 0.47910818E-02 0.20977042E+02</pdfrwt>
<totfact> 0.11332037E+08</totfact>
</mgrwt>
</event>
<event>
 4    1  0.4447136E+006  0.2381555E+02  0.7546771E-02  0.1678621E+00
         21   -1    0    0  504  501  0.00000000000E+00  0.00000000000E+00  0.79277337562E+02  0.79277337562E+02  0.00000000000E+00 0.  1.
         21   -1    0    0  501  502 -0.00000000000E+00 -0.00000000000E+00 -0.54639605697E+02  0.54639605697E+02  0.00000000000E+00 0.  1.
         21    1    1    2  503  502  0.19180938737E+02 -0.14116369386E+02 -0.50102174241E+02  0.55474391922E+02  0.00000000000E+00 0.  1.
         21    1    1    2  504  503 -0.19180938737E+02  0.14116369386E+02  0.74739906106E+02  0.78442551336E+02  0.00000000000E+00 0.  1.
<mgrwt>
<rscale>  2 0.23815547E+02</rscale>
<asrwt>0</asrwt>
<pdfrwt beam="1">  1       21 0.12196513E-01 0.23815547E+02</pdfrwt>
<pdfrwt beam="2">  1       21 0.84060932E-02 0.23815547E+02</pdfrwt>
<totfact> 0.52119175E+06</totfact>
</mgrwt>
</event>
<event>
 4    1  0.4447136E+006  0.5319863E+02  0.7546771E-02  0.1428815E+00
         21   -1    0    0  503  501  0.00000000000E+00  0.00000000000E+00  0.36402259981E+02  0.36402259981E+02  0.00000000000E+00 0.  1.
         21   -1    0    0  504  502 -0.00000000000E+00 -0.00000000000E+00 -0.18539685943E+03  0.18539685943E+03  0.00000000000E+00 0. -1.
         21    1    1    2  503  502 -0.77603457798E+01  0.52629569089E+02  0.10009053085E+02  0.54132020587E+02  0.00000000000E+00 0.  1.
         21    1    1    2  504  501  0.77603457798E+01 -0.52629569089E+02 -0.15900365253E+03  0.16766709883E+03  0.00000000000E+00 0. -1.
<mgrwt>
<rscale>  2 0.53198633E+02</rscale>
<asrwt>0</asrwt>
<pdfrwt beam="1">  1       21 0.56003478E-02 0.53198633E+02</pdfrwt>
<pdfrwt beam="2">  1       21 0.28522593E-01 0.53198633E+02</pdfrwt>
<totfact> 0.24776355E+06</totfact>
</mgrwt>
</event>
<event>
 4    1  0.4447136E+006  0.3870469E+02  0.7546771E-02  0.1517966E+00
         21   -1    0    0  502  501  0.00000000000E+00  0.00000000000E+00  0.37850006885E+02  0.37850006885E+02  0.00000000000E+00 0.  1.
         21   -1    0    0  503  502 -0.00000000000E+00 -0.00000000000E+00 -0.77425500802E+02  0.77425500802E+02  0.00000000000E+00 0.  1.
         21    1    1    2  503  504  0.37390890286E+02 -0.99987223398E+01 -0.60085401217E+02  0.71472432198E+02  0.00000000000E+00 0.  1.
         21    1    1    2  504  501 -0.37390890286E+02  0.99987223398E+01  0.20509907300E+02  0.43803075489E+02  0.00000000000E+00 0.  1.
<mgrwt>
<rscale>  2 0.38704691E+02</rscale>
<asrwt>0</asrwt>
<pdfrwt beam="1">  1       21 0.58230780E-02 0.38704691E+02</pdfrwt>
<pdfrwt beam="2">  1       21 0.11911615E-01 0.38704691E+02</pdfrwt>
<totfact> 0.10645108E+07</totfact>
</mgrwt>
</event>
<event>
 4    1  0.4447136E+006  0.2233362E+02  0.7546771E-02  0.1702545E+00
         21   -1    0    0  504  501  0.00000000000E+00  0.00000000000E+00  0.35909939732E+01  0.35909939732E+01  0.00000000000E+00 0.  1.
         21   -1    0    0  503  502 -0.00000000000E+00 -0.00000000000E+00 -0.14146070283E+03  0.14146070283E+03  0.00000000000E+00 0.  1.
         21    1    1    2  503  501 -0.84493625559E+01 -0.20673626920E+02 -0.78691908894E+02  0.81799798918E+02  0.00000000000E+00 0.  1.
         21    1    1    2  504  502  0.84493625559E+01  0.20673626920E+02 -0.59177799963E+02  0.63251897886E+02  0.00000000000E+00 0.  1.
<mgrwt>
<rscale>  2 0.22333620E+02</rscale>
<asrwt>0</asrwt>
<pdfrwt beam="1">  1       21 0.55246066E-03 0.22333620E+02</pdfrwt>
<pdfrwt beam="2">  1       21 0.21763183E-01 0.22333620E+02</pdfrwt>
<totfact> 0.12752706E+08</totfact>
</mgrwt>
</event>
<event>
 4    1  0.4447136E+006  0.2013102E+02  0.7546771E-02  0.1742735E+00
         21   -1    0    0  503  501  0.00000000000E+00  0.00000000000E+00  0.25461952031E+03  0.25461952031E+03  0.00000000000E+00 0.  1.
         21   -1    0    0  501  502 -0.00000000000E+00 -0.00000000000E+00 -0.20837701933E+02  0.20837701933E+02  0.00000000000E+00 0.  1.
         21    1    1    2  503  504  0.18330047433E+02 -0.83227053127E+01  0.24925506629E+03  0.25006668338E+03  0.00000000000E+00 0.  1.
         21    1    1    2  504  502 -0.18330047433E+02  0.83227053127E+01 -0.15473247919E+02  0.25390538864E+02  0.00000000000E+00 0.  1.
<mgrwt>
<rscale>  2 0.20131022E+02</rscale>
<asrwt>0</asrwt>
<pdfrwt beam="1">  1       21 0.39172232E-01 0.20131022E+02</pdfrwt>
<pdfrwt beam="2">  1       21 0.32058005E-02 0.20131022E+02</pdfrwt>
<totfact> 0.30185797E+06</totfact>
</mgrwt>
</event>
<event>
 4    1  0.4447136E+006  0.2337927E+02  0.7546771E-02  0.1685435E+00
         21   -1    0    0  502  501  0.00000000000E+00  0.00000000000E+00  0.50769731913E+03  0.50769731913E+03  0.00000000000E+00 0.  1.
         21   -1    0    0  503  502 -0.00000000000E+00 -0.00000000000E+00 -0.29993246128E+02  0.29993246128E+02  0.00000000000E+00 0. -1.
         21    1    1    2  503  504 -0.47737093054E+01  0.22886719446E+02 -0.25124056112E+02  0.34319213613E+02  0.00000000000E+00 0. -1.
         21    1    1    2  504  501  0.47737093054E+01 -0.22886719446E+02  0.50282812911E+03  0.50337135164E+03  0.00000000000E+00 0.  1.
<mgrwt>
<rscale>  2 0.23379269E+02</rscale>
<asrwt>0</asrwt>
<pdfrwt beam="1">  1       21 0.78107274E-01 0.23379269E+02</pdfrwt>
<pdfrwt beam="2">  1       21 0.46143459E-02 0.23379269E+02</pdfrwt>
<totfact> 0.44364728E+05</totfact>
</mgrwt>
</event>
<event>
 4    1  0.4447136E+006  0.2776180E+02  0.7546771E-02  0.1624234E+00
         21   -1    0    0  504  501  0.00000000000E+00  0.00000000000E+00  0.12151143341E+02  0.12151143341E+02  0.00000000000E+00 0. -1.
         21   -1    0    0  503  502 -0.00000000000E+00 -0.00000000000E+00 -0.59218666486E+03  0.59218666486E+03  0.00000000000E+00 0. -1.
         21    1    1    2  503  501  0.24766762315E+02 -0.12542922175E+02 -0.57554620945E+03  0.57621537348E+03  0.00000000000E+00 0. -1.
         21    1    1    2  504  502 -0.24766762315E+02  0.12542922175E+02 -0.44893120680E+01  0.28122434729E+02  0.00000000000E+00 0. -1.
<mgrwt>
<rscale>  2 0.27761798E+02</rscale>
<asrwt>0</asrwt>
<pdfrwt beam="1">  1       21 0.18694068E-02 0.27761798E+02</pdfrwt>
<pdfrwt beam="2">  1       21 0.91105636E-01 0.27761798E+02</pdfrwt>
<totfact> 0.13276571E+06</totfact>
</mgrwt>
</event>
<event>
 4    1  0.4447136E+006  0.4303186E+02  0.7546771E-02  0.1487016E+00
         21   -1    0    0  503  501  0.00000000000E+00  0.00000000000E+00  0.71275274344E+01  0.71275274344E+01  0.00000000000E+00 0. -1.
         21   -1    0    0  504  502 -0.00000000000E+00 -0.00000000000E+00 -0.46199152440E+03  0.46199152440E+03  0.00000000000E+00 0.  1.
         21    1    1    2  503  502 -0.15657972691E-01  0.43031861591E+02 -0.38260497054E+03  0.38501727862E+03  0.00000000000E+00 0.  1.
         21    1    1    2  504  501  0.15657972691E-01 -0.43031861591E+02 -0.72259026425E+02  0.84101773210E+02  0.00000000000E+00 0. -1.
<mgrwt>
<rscale>  2 0.43031864E+02</rscale>
<asrwt>0</asrwt>
<pdfrwt beam="1">  1       21 0.10965426E-02 0.43031864E+02</pdfrwt>
<pdfrwt beam="2">  1       21 0.71075627E-01 0.43031864E+02</pdfrwt>
<totfact> 0.53313247E+06</totfact>
</mgrwt>
</event>
<event>
 4    1  0.4447136E+006  0.3795562E+02  0.7546771E-02  0.1523818E+00
         21   -1    0    0  503  501  0.00000000000E+00  0.00000000000E+00  0.16052610399E+01  0.16052610399E+01  0.00000000000E+00 0.  1.
         21   -1    0    0  504  502 -0.00000000000E+00 -0.00000000000E+00 -0.10125056628E+04  0.10125056628E+04  0.00000000000E+00 0.  1.
         21    1    1    2  503  502  0.35256223780E+02 -0.14058019248E+02 -0.33451748435E+03  0.33666389256E+03  0.00000000000E+00 0.  1.
         21    1    1    2  504  501 -0.35256223780E+02  0.14058019248E+02 -0.67638291741E+03  0.67744703128E+03  0.00000000000E+00 0.  1.
<mgrwt>
<rscale>  2 0.37955622E+02</rscale>
<asrwt>0</asrwt>
<pdfrwt beam="1">  1       21 0.24696304E-03 0.37955622E+02</pdfrwt>
<pdfrwt beam="2">  1       21 0.15577023E+00 0.37955622E+02</pdfrwt>
<totfact> 0.83325876E+06</totfact>
</mgrwt>
</event>
<event>
 4    1  0.4447136E+006  0.2311520E+02  0.7546771E-02  0.1689649E+00
         21   -1    0    0  503  501  0.00000000000E+00  0.00000000000E+00  0.44120257670E+02  0.44120257670E+02  0.00000000000E+00 0. -1.
         21   -1    0    0  504  502 -0.00000000000E+00 -0.00000000000E+00 -0.12155600773E+02  0.12155600773E+02  0.00000000000E+00 0. -1.
         21    1    1    2  503  502 -0.21438770823E+02  0.86424397933E+01  0.17698731527E+02  0.29112845234E+02  0.00000000000E+00 0. -1.
         21    1    1    2  504  501  0.21438770823E+02 -0.86424397933E+01  0.14265925370E+02  0.27163013210E+02  0.00000000000E+00 0. -1.
<mgrwt>
<rscale>  2 0.23115204E+02</rscale>
<asrwt>0</asrwt>
<pdfrwt beam="1">  1       21 0.67877319E-02 0.23115204E+02</pdfrwt>
<pdfrwt beam="2">  1       21 0.18700924E-02 0.23115204E+02</pdfrwt>
<totfact> 0.14581947E+08</totfact>
</mgrwt>
</event>
<event>
 4    1  0.4447136E+006  0.2119568E+02  0.7546771E-02  0.1722545E+00
         21   -1    0    0  503  501  0.00000000000E+00  0.00000000000E+00  0.10344364634E+03  0.10344364634E+03  0.00000000000E+00 0.  1.
         21   -1    0    0  504  502 -0.00000000000E+00 -0.00000000000E+00 -0.19712809115E+02  0.19712809115E+02  0.00000000000E+00 0. -1.
         21    1    1    2  503  502  0.19026835719E+02 -0.93400485444E+01 -0.12508044707E+02  0.24611139078E+02  0.00000000000E+00 0. -1.
         21    1    1    2  504  501 -0.19026835719E+02  0.93400485444E+01  0.96238881937E+02  0.98545316382E+02  0.00000000000E+00 0.  1.
<mgrwt>
<rscale>  2 0.21195683E+02</rscale>
<asrwt>0</asrwt>
<pdfrwt beam="1">  1       21 0.15914407E-01 0.21195683E+02</pdfrwt>
<pdfrwt beam="2">  1       21 0.30327399E-02 0.21195683E+02</pdfrwt>
<totfact> 0.16481380E+07</totfact>
</mgrwt>
</event>
<event>
 4    1  0.4447136E+006  0.2098888E+02  0.7546771E-02  0.1726349E+00
         21   -1    0    0  504  501  0.00000000000E+00  0.00000000000E+00  0.13645668880E+02  0.13645668880E+02  0.00000000000E+00 0.  1.
         21   -1    0    0  503  502 -0.00000000000E+00 -0.00000000000E+00 -0.62718142554E+02  0.62718142554E+02  0.00000000000E+00 0.  1.
         21    1    1    2  503  501  0.11285514441E+02 -0.17696613770E+02 -0.51133902870E+02  0.55273945018E+02  0.00000000000E+00 0.  1.
         21    1    1    2  504  502 -0.11285514441E+02  0.17696613770E+02  0.20614291969E+01  0.21089866416E+02  0.00000000000E+00 0.  1.
<mgrwt>
<rscale>  2 0.20988877E+02</rscale>
<asrwt>0</asrwt>
<pdfrwt beam="1">  1       21 0.20993336E-02 0.20988877E+02</pdfrwt>
<pdfrwt beam="2">  1       21 0.96489451E-02 0.20988877E+02</pdfrwt>
<totfact> 0.66960231E+07</totfact>
</mgrwt>
</event>
<event>
 4    1  0.4447136E+006  0.5637257E+02  0.7546771E-02  0.1413717E+00
         21   -1    0    0  503  501  0.00000000000E+00  0.00000000000E+00  0.26794396607E+03  0.26794396607E+03  0.00000000000E+00 0.  1.
         21   -1    0    0  504  502 -0.00000000000E+00 -0.00000000000E+00 -0.86084228936E+02  0.86084228936E+02  0.00000000000E+00 0.  1.
         21    1    1    2  503  502  0.47910738094E+02 -0.29705690013E+02 -0.73438537758E+02  0.92580158090E+02  0.00000000000E+00 0.  1.
         21    1    1    2  504  501 -0.47910738094E+02  0.29705690013E+02  0.25529827489E+03  0.26144803691E+03  0.00000000000E+00 0.  1.
<mgrwt>
<rscale>  2 0.56372572E+02</rscale>
<asrwt>0</asrwt>
<pdfrwt beam="1">  1       21 0.41222148E-01 0.56372572E+02</pdfrwt>
<pdfrwt beam="2">  1       21 0.13243728E-01 0.56372572E+02</pdfrwt>
<totfact> 0.28615665E+05</totfact>
</mgrwt>
</event>
<event>
 4    1  0.4447136E+006  0.2018128E+02  0.7546771E-02  0.1741747E+00
         21   -1    0    0  502  501  0.00000000000E+00  0.00000000000E+00  0.11233936611E+02  0.11233936611E+02  0.00000000000E+00 0. -1.
         21   -1    0    0  503  502 -0.00000000000E+00 -0.00000000000E+00 -0.12596453898E+03  0.12596453898E+03  0.00000000000E+00 0. -1.
         21    1    1    2  503  504 -0.27688822555E+01  0.19990429813E+02 -0.11525682278E+03  0.11701033796E+03  0.00000000000E+00 0. -1.
         21    1    1    2  504  501  0.27688822555E+01 -0.19990429813E+02  0.52622040913E+00  0.20188137630E+02  0.00000000000E+00 0. -1.
<mgrwt>
<rscale>  2 0.20181278E+02</rscale>
<asrwt>0</asrwt>
<pdfrwt beam="1">  1       21 0.17282980E-02 0.20181278E+02</pdfrwt>
<pdfrwt beam="2">  1       21 0.19379159E-01 0.20181278E+02</pdfrwt>
<totfact> 0.27560646E+07</totfact>
</mgrwt>
</event>
<event>
 4    1  0.4447136E+006  0.2289855E+02  0.7546771E-02  0.1693160E+00
         21   -1    0    0  504  501  0.00000000000E+00  0.00000000000E+00  0.21320407380E+02  0.21320407380E+02  0.00000000000E+00 0.  1.
         21   -1    0    0  503  502 -0.00000000000E+00 -0.00000000000E+00 -0.76525055352E+02  0.76525055352E+02  0.00000000000E+00 0. -1.
         21    1    1    2  503  501  0.12766552237E+02  0.19009440684E+02 -0.67904127847E+02  0.71661107093E+02  0.00000000000E+00 0. -1.
         21    1    1    2  504  502 -0.12766552237E+02 -0.19009440684E+02  0.12699479875E+02  0.26184355639E+02  0.00000000000E+00 0.  1.
<mgrwt>
<rscale>  2 0.22898552E+02</rscale>
<asrwt>0</asrwt>
<pdfrwt beam="1">  1       21 0.32800627E-02 0.22898552E+02</pdfrwt>
<pdfrwt beam="2">  1       21 0.11773085E-01 0.22898552E+02</pdfrwt>
<totfact> 0.24683285E+07</totfact>
</mgrwt>
</event>
<event>
 4    1  0.4447136E+006  0.2256258E+02  0.7546771E-02  0.1698700E+00
         21   -1    0    0  504  501  0.00000000000E+00  0.00000000000E+00  0.27757996159E+02  0.27757996159E+02  0.00000000000E+00 0. -1.
         21   -1    0    0  501  502 -0.00000000000E+00 -0.00000000000E+00 -0.32604559952E+02  0.32604559952E+02  0.00000000000E+00 0. -1.
         21    1    1    2  503  502 -0.14208425495E+02  0.17526853713E+02 -0.22386661132E+02  0.31784155687E+02  0.00000000000E+00 0. -1.
         21    1    1    2  504  503  0.14208425495E+02 -0.17526853713E+02  0.17540097339E+02  0.28578400424E+02  0.00000000000E+00 0. -1.
<mgrwt>
<rscale>  2 0.22562579E+02</rscale>
<asrwt>0</asrwt>
<pdfrwt beam="1">  1       21 0.42704610E-02 0.22562579E+02</pdfrwt>
<pdfrwt beam="2">  1       21 0.50160861E-02 0.22562579E+02</pdfrwt>
<totfact> 0.65196426E+07</totfact>
</mgrwt>
</event>
<event>
 4    1  0.4447136E+006  0.2087490E+02  0.7546771E-02  0.1728469E+00
         21   -1    0    0  503  501  0.00000000000E+00  0.00000000000E+00  0.28160789671E+03  0.28160789671E+03  0.00000000000E+00 0.  1.
         21   -1    0    0  504  502 -0.00000000000E+00 -0.00000000000E+00 -0.32232689673E+02  0.32232689673E+02  0.00000000000E+00 0.  1.
         21    1    1    2  503  502  0.20841516467E+02  0.11801750298E+01  0.27779490844E+03  0.27857812688E+03  0.00000000000E+00 0.  1.
         21    1    1    2  504  501 -0.20841516467E+02 -0.11801750298E+01 -0.28419701407E+02  0.35262459497E+02  0.00000000000E+00 0.  1.
<mgrwt>
<rscale>  2 0.20874904E+02</rscale>
<asrwt>0</asrwt>
<pdfrwt beam="1">  1       21 0.43324290E-01 0.20874904E+02</pdfrwt>
<pdfrwt beam="2">  1       21 0.49588755E-02 0.20874904E+02</pdfrwt>
<totfact> 0.12655668E+06</totfact>
</mgrwt>
</event>
<event>
 4    1  0.4447136E+006  0.2455007E+02  0.7546771E-02  0.1667550E+00
         21   -1    0    0  503  501  0.00000000000E+00  0.00000000000E+00  0.27151784456E+02  0.27151784456E+02  0.00000000000E+00 0.  1.
         21   -1    0    0  504  502 -0.00000000000E+00 -0.00000000000E+00 -0.85825427265E+03  0.85825427265E+03  0.00000000000E+00 0. -1.
         21    1    1    2  503  502  0.18450687002E+02 -0.16194994876E+02 -0.85249179568E+03  0.85284521890E+03  0.00000000000E+00 0. -1.
         21    1    1    2  504  501 -0.18450687002E+02  0.16194994876E+02  0.21389307483E+02  0.32560838203E+02  0.00000000000E+00 0.  1.
<mgrwt>
<rscale>  2 0.24550065E+02</rscale>
<asrwt>0</asrwt>
<pdfrwt beam="1">  1       21 0.41771980E-02 0.24550065E+02</pdfrwt>
<pdfrwt beam="2">  1       21 0.13203911E+00 0.24550065E+02</pdfrwt>
<totfact> 0.16398461E+05</totfact>
</mgrwt>
</event>
<event>
 4    1  0.4447136E+006  0.7070831E+02  0.7546771E-02  0.1357701E+00
         21   -1    0    0  502  501  0.00000000000E+00  0.00000000000E+00  0.53749957430E+02  0.53749957430E+02  0.00000000000E+00 0. -1.
         21   -1    0    0  504  502 -0.00000000000E+00 -0.00000000000E+00 -0.31725942729E+03  0.31725942729E+03  0.00000000000E+00 0. -1.
         21    1    1    2  503  501 -0.70027776268E+02  0.97864729765E+01  0.24202827846E+02  0.74735810547E+02  0.00000000000E+00 0. -1.
         21    1    1    2  504  503  0.70027776268E+02 -0.97864729765E+01 -0.28771229771E+03  0.29627357417E+03  0.00000000000E+00 0. -1.
<mgrwt>
<rscale>  2 0.70708306E+02</rscale>
<asrwt>0</asrwt>
<pdfrwt beam="1">  1       21 0.82692243E-02 0.70708306E+02</pdfrwt>
<pdfrwt beam="2">  1       21 0.48809142E-01 0.70708306E+02</pdfrwt>
<totfact> 0.45984347E+05</totfact>
</mgrwt>
</event>
<event>
 4    1  0.4447136E+006  0.3237094E+02  0.7546771E-02  0.1573269E+00
         21   -1    0    0  503  501  0.00000000000E+00  0.00000000000E+00  0.92641561827E+02  0.92641561827E+02  0.00000000000E+00 0.  1.
         21   -1    0    0  501  502 -0.00000000000E+00 -0.00000000000E+00 -0.18755553189E+03  0.18755553189E+03  0.00000000000E+00 0.  1.
         21    1    1    2  503  504  0.25560776836E+02  0.19862643413E+02  0.88351340628E+02  0.94094831456E+02  0.00000000000E+00 0.  1.
         21    1    1    2  504  502 -0.25560776836E+02 -0.19862643413E+02 -0.18326531069E+03  0.18610226226E+03  0.00000000000E+00 0.  1.
<mgrwt>
<rscale>  2 0.32370942E+02</rscale>
<asrwt>0</asrwt>
<pdfrwt beam="1">  1       21 0.14252548E-01 0.32370942E+02</pdfrwt>
<pdfrwt beam="2">  1       21 0.28854697E-01 0.32370942E+02</pdfrwt>
<totfact> 0.49054586E+05</totfact>
</mgrwt>
</event>
<event>
 4    1  0.4447136E+006  0.2675663E+02  0.7546771E-02  0.1636981E+00
         21   -1    0    0  503  501  0.00000000000E+00  0.00000000000E+00  0.27374860733E+01  0.27374860733E+01  0.00000000000E+00 0.  1.
         21   -1    0    0  504  502 -0.00000000000E+00 -0.00000000000E+00 -0.35716181925E+03  0.35716181925E+03  0.00000000000E+00 0.  1.
         21    1    1    2  503  502  0.13814055103E+02  0.22914824137E+02 -0.27033028275E+03  0.27165120846E+03  0.00000000000E+00 0.  1.
         21    1    1    2  504  501 -0.13814055103E+02 -0.22914824137E+02 -0.84094050426E+02  0.88248096868E+02  0.00000000000E+00 0.  1.
<mgrwt>
<rscale>  2 0.26756631E+02</rscale>
<asrwt>0</asrwt>
<pdfrwt beam="1">  1       21 0.42115199E-03 0.26756631E+02</pdfrwt>
<pdfrwt beam="2">  1       21 0.54947935E-01 0.26756631E+02</pdfrwt>
<totfact> 0.35542665E+07</totfact>
</mgrwt>
</event>
<event>
 4    1  0.4447136E+006  0.2044536E+02  0.7546771E-02  0.1736614E+00
         21   -1    0    0  503  501  0.00000000000E+00  0.00000000000E+00  0.12360628558E+03  0.12360628558E+03  0.00000000000E+00 0.  1.
         21   -1    0    0  504  502 -0.00000000000E+00 -0.00000000000E+00 -0.54351544874E+01  0.54351544874E+01  0.00000000000E+00 0. -1.
         21    1    1    2  503  502  0.18687936457E+02 -0.82930008295E+01  0.98742970104E+02  0.10083742845E+03  0.00000000000E+00 0.  1.
         21    1    1    2  504  501 -0.18687936457E+02  0.82930008295E+01  0.19428160987E+02  0.28204011614E+02  0.00000000000E+00 0. -1.
<mgrwt>
<rscale>  2 0.20445362E+02</rscale>
<asrwt>0</asrwt>
<pdfrwt beam="1">  1       21 0.19016349E-01 0.20445362E+02</pdfrwt>
<pdfrwt beam="2">  1       21 0.83617771E-03 0.20445362E+02</pdfrwt>
<totfact> 0.85109195E+07</totfact>
</mgrwt>
</event>
<event>
 4    1  0.4447136E+006  0.2057294E+02  0.7546771E-02  0.1734169E+00
         21   -1    0    0  504  501  0.00000000000E+00  0.00000000000E+00  0.10120646174E+03  0.10120646174E+03  0.00000000000E+00 0.  1.
         21   -1    0    0  503  502 -0.00000000000E+00 -0.00000000000E+00 -0.68915950800E+01  0.68915950800E+01  0.00000000000E+00 0. -1.
         21    1    1    2  503  501  0.20529585516E+02  0.13348728023E+01  0.81048086624E+02  0.83618407736E+02  0.00000000000E+00 0.  1.
         21    1    1    2  504  502 -0.20529585516E+02 -0.13348728023E+01  0.13266780040E+02  0.24479649088E+02  0.00000000000E+00 0. -1.
<mgrwt>
<rscale>  2 0.20572938E+02</rscale>
<asrwt>0</asrwt>
<pdfrwt beam="1">  1       21 0.15570224E-01 0.20572938E+02</pdfrwt>
<pdfrwt beam="2">  1       21 0.10602455E-02 0.20572938E+02</pdfrwt>
<totfact> 0.84242424E+07</totfact>
</mgrwt>
</event>
<event>
 4    1  0.4447136E+006  0.2191533E+02  0.7546771E-02  0.1709720E+00
         21   -1    0    0  504  501  0.00000000000E+00  0.00000000000E+00  0.25318153637E+02  0.25318153637E+02  0.00000000000E+00 0. -1.
         21   -1    0    0  501  502 -0.00000000000E+00 -0.00000000000E+00 -0.44473477880E+03  0.44473477880E+03  0.00000000000E+00 0.  1.
         21    1    1    2  503  502 -0.21178058028E+02 -0.56366133539E+01 -0.43966771270E+03  0.44021356083E+03  0.00000000000E+00 0.  1.
         21    1    1    2  504  503  0.21178058028E+02  0.56366133539E+01  0.20251087530E+02  0.29839371610E+02  0.00000000000E+00 0. -1.
<mgrwt>
<rscale>  2 0.21915327E+02</rscale>
<asrwt>0</asrwt>
<pdfrwt beam="1">  1       21 0.38951008E-02 0.21915327E+02</pdfrwt>
<pdfrwt beam="2">  1       21 0.68420730E-01 0.21915327E+02</pdfrwt>
<totfact> 0.75852566E+05</totfact>
</mgrwt>
</event>
<event>
 4    1  0.4447136E+006  0.2066363E+02  0.7546771E-02  0.1732444E+00
         21   -1    0    0  504  501  0.00000000000E+00  0.00000000000E+00  0.91670587299E+01  0.91670587299E+01  0.00000000000E+00 0.  1.
         21   -1    0    0  503  502 -0.00000000000E+00 -0.00000000000E+00 -0.67499071681E+02  0.67499071681E+02  0.00000000000E+00 0.  1.
         21    1    1    2  503  501  0.29306535644E+01 -0.20454753364E+02 -0.78250495254E+01  0.22095634537E+02  0.00000000000E+00 0.  1.
         21    1    1    2  504  502 -0.29306535644E+01  0.20454753364E+02 -0.50506963426E+02  0.54570495874E+02  0.00000000000E+00 0.  1.
<mgrwt>
<rscale>  2 0.20663631E+02</rscale>
<asrwt>0</asrwt>
<pdfrwt beam="1">  1       21 0.14103166E-02 0.20663631E+02</pdfrwt>
<pdfrwt beam="2">  1       21 0.10384473E-01 0.20663631E+02</pdfrwt>
<totfact> 0.10817490E+08</totfact>
</mgrwt>
</event>
<event>
 4    1  0.4447136E+006  0.2392736E+02  0.7546771E-02  0.1676904E+00
         21   -1    0    0  503  501  0.00000000000E+00  0.00000000000E+00  0.20773912452E+03  0.20773912452E+03  0.00000000000E+00 0. -1.
         21   -1    0    0  504  502 -0.00000000000E+00 -0.00000000000E+00 -0.43017026938E+01  0.43017026938E+01  0.00000000000E+00 0. -1.
         21    1    1    2  503  502  0.17714647842E+02  0.16084460990E+02  0.38165234896E+02  0.45045574568E+02  0.00000000000E+00 0. -1.
         21    1    1    2  504  501 -0.17714647842E+02 -0.16084460990E+02  0.16527218693E+03  0.16699525265E+03  0.00000000000E+00 0. -1.
<mgrwt>
<rscale>  2 0.23927362E+02</rscale>
<asrwt>0</asrwt>
<pdfrwt beam="1">  1       21 0.31959857E-01 0.23927362E+02</pdfrwt>
<pdfrwt beam="2">  1       21 0.66180058E-03 0.23927362E+02</pdfrwt>
<totfact> 0.49868306E+07</totfact>
</mgrwt>
</event>
<event>
 4    1  0.4447136E+006  0.2567730E+02  0.7546771E-02  0.1651460E+00
         21   -1    0    0  502  501  0.00000000000E+00  0.00000000000E+00  0.32213703905E+03  0.32213703905E+03  0.00000000000E+00 0. -1.
         21   -1    0    0  504  502 -0.00000000000E+00 -0.00000000000E+00 -0.11681884733E+02  0.11681884733E+02  0.00000000000E+00 0. -1.
         21    1    1    2  503  501 -0.48222296081E+01 -0.25220424755E+02  0.30681183876E+03  0.30788443957E+03  0.00000000000E+00 0. -1.
         21    1    1    2  504  503  0.48222296081E+01  0.25220424755E+02  0.36433155526E+01  0.25934484214E+02  0.00000000000E+00 0. -1.
<mgrwt>
<rscale>  2 0.25677300E+02</rscale>
<asrwt>0</asrwt>
<pdfrwt beam="1">  1       21 0.49559538E-01 0.25677300E+02</pdfrwt>
<pdfrwt beam="2">  1       21 0.17972133E-02 0.25677300E+02</pdfrwt>
<totfact> 0.48779419E+06</totfact>
</mgrwt>
</event>
<event>
 4    1  0.4447136E+006  0.2254997E+02  0.7546771E-02  0.1698911E+00
         21   -1    0    0  503  501  0.00000000000E+00  0.00000000000E+00  0.39920675930E+01  0.39920675930E+01  0.00000000000E+00 0.  1.
         21   -1    0    0  504  502 -0.00000000000E+00 -0.00000000000E+00 -0.17475998337E+03  0.17475998337E+03  0.00000000000E+00 0.  1.
         21    1    1    2  503  502 -0.11239878014E+02 -0.19549072366E+02 -0.38846009904E+02  0.44916740460E+02  0.00000000000E+00 0.  1.
         21    1    1    2  504  501  0.11239878014E+02  0.19549072366E+02 -0.13192190587E+03  0.13383531050E+03  0.00000000000E+00 0.  1.
<mgrwt>
<rscale>  2 0.22549969E+02</rscale>
<asrwt>0</asrwt>
<pdfrwt beam="1">  1       21 0.61416433E-03 0.22549969E+02</pdfrwt>
<pdfrwt beam="2">  1       21 0.26886147E-01 0.22549969E+02</pdfrwt>
<totfact> 0.75119918E+07</totfact>
</mgrwt>
</event>
<event>
 4    1  0.4447136E+006  0.3003916E+02  0.7546771E-02  0.1597656E+00
         21   -1    0    0  503  501  0.00000000000E+00  0.00000000000E+00  0.28514838534E+01  0.28514838534E+01  0.00000000000E+00 0. -1.
         21   -1    0    0  504  502 -0.00000000000E+00 -0.00000000000E+00 -0.59210861322E+03  0.59210861322E+03  0.00000000000E+00 0. -1.
         21    1    1    2  503  502  0.29432849368E+02  0.60048689486E+01 -0.49760387403E+03  0.49850974567E+03  0.00000000000E+00 0. -1.
         21    1    1    2  504  501 -0.29432849368E+02 -0.60048689486E+01 -0.91653255328E+02  0.96450351400E+02  0.00000000000E+00 0. -1.
<mgrwt>
<rscale>  2 0.30039159E+02</rscale>
<asrwt>0</asrwt>
<pdfrwt beam="1">  1       21 0.43868993E-03 0.30039159E+02</pdfrwt>
<pdfrwt beam="2">  1       21 0.91093611E-01 0.30039159E+02</pdfrwt>
<totfact> 0.11964904E+07</totfact>
</mgrwt>
</event>
<event>
 4    1  0.4447136E+006  0.3506467E+02  0.7546771E-02  0.1548027E+00
         21   -1    0    0  504  501  0.00000000000E+00  0.00000000000E+00  0.34934993741E+03  0.34934993741E+03  0.00000000000E+00 0. -1.
         21   -1    0    0  501  502 -0.00000000000E+00 -0.00000000000E+00 -0.58742833375E+02  0.58742833375E+02  0.00000000000E+00 0.  1.
         21    1    1    2  503  502 -0.24644870871E+02  0.24943164797E+02 -0.52535871038E+02  0.63162875774E+02  0.00000000000E+00 0.  1.
         21    1    1    2  504  503  0.24644870871E+02 -0.24943164797E+02  0.34314297507E+03  0.34492989501E+03  0.00000000000E+00 0. -1.
<mgrwt>
<rscale>  2 0.35064671E+02</rscale>
<asrwt>0</asrwt>
<pdfrwt beam="1">  1       21 0.53746143E-01 0.35064671E+02</pdfrwt>
<pdfrwt beam="2">  1       21 0.90373591E-02 0.35064671E+02</pdfrwt>
<totfact> 0.32383097E+05</totfact>
</mgrwt>
</event>
<event>
 4    1  0.4447136E+006  0.2989309E+02  0.7546771E-02  0.1599273E+00
         21   -1    0    0  502  501  0.00000000000E+00  0.00000000000E+00  0.25232363993E+02  0.25232363993E+02  0.00000000000E+00 0.  1.
         21   -1    0    0  504  502 -0.00000000000E+00 -0.00000000000E+00 -0.38732485713E+02  0.38732485713E+02  0.00000000000E+00 0.  1.
         21    1    1    2  503  501 -0.15256638489E+02  0.25706644387E+02  0.26104147282E+01  0.30006846697E+02  0.00000000000E+00 0.  1.
         21    1    1    2  504  503  0.15256638489E+02 -0.25706644387E+02 -0.16110536449E+02  0.33958003008E+02  0.00000000000E+00 0.  1.
<mgrwt>
<rscale>  2 0.29893086E+02</rscale>
<asrwt>0</asrwt>
<pdfrwt beam="1">  1       21 0.38819022E-02 0.29893086E+02</pdfrwt>
<pdfrwt beam="2">  1       21 0.59588439E-02 0.29893086E+02</pdfrwt>
<totfact> 0.61723158E+07</totfact>
</mgrwt>
</event>
<event>
 4    1  0.4447136E+006  0.2167037E+02  0.7546771E-02  0.1714016E+00
         21   -1    0    0  504  501  0.00000000000E+00  0.00000000000E+00  0.76543103783E+01  0.76543103783E+01  0.00000000000E+00 0. -1.
         21   -1    0    0  503  502 -0.00000000000E+00 -0.00000000000E+00 -0.45565656416E+03  0.45565656416E+03  0.00000000000E+00 0. -1.
         21    1    1    2  503  501  0.18213012643E+02  0.11742711589E+02 -0.43949738777E+03  0.44003131589E+03  0.00000000000E+00 0. -1.
         21    1    1    2  504  502 -0.18213012643E+02 -0.11742711589E+02 -0.85048660080E+01  0.23279558647E+02  0.00000000000E+00 0. -1.
<mgrwt>
<rscale>  2 0.21670374E+02</rscale>
<asrwt>0</asrwt>
<pdfrwt beam="1">  1       21 0.11775859E-02 0.21670374E+02</pdfrwt>
<pdfrwt beam="2">  1       21 0.70101029E-01 0.21670374E+02</pdfrwt>
<totfact> 0.45278494E+06</totfact>
</mgrwt>
</event>
<event>
 4    1  0.4447136E+006  0.3163842E+02  0.7546771E-02  0.1580654E+00
         21   -1    0    0  504  501  0.00000000000E+00  0.00000000000E+00  0.10341182143E+03  0.10341182143E+03  0.00000000000E+00 0. -1.
         21   -1    0    0  503  502 -0.00000000000E+00 -0.00000000000E+00 -0.38413989007E+03  0.38413989007E+03  0.00000000000E+00 0.  1.
         21    1    1    2  503  501  0.14861284899E+02  0.27930839746E+02  0.10032086598E+03  0.10519156691E+03  0.00000000000E+00 0. -1.
         21    1    1    2  504  502 -0.14861284899E+02 -0.27930839746E+02 -0.38104893462E+03  0.38236014459E+03  0.00000000000E+00 0.  1.
<mgrwt>
<rscale>  2 0.31638420E+02</rscale>
<asrwt>0</asrwt>
<pdfrwt beam="1">  1       21 0.15909511E-01 0.31638420E+02</pdfrwt>
<pdfrwt beam="2">  1       21 0.59098445E-01 0.31638420E+02</pdfrwt>
<totfact> 0.10228218E+05</totfact>
</mgrwt>
</event>
<event>
 4    1  0.4447136E+006  0.2054062E+02  0.7546771E-02  0.1734786E+00
         21   -1    0    0  504  501  0.00000000000E+00  0.00000000000E+00  0.19399200287E+03  0.19399200287E+03  0.00000000000E+00 0. -1.
         21   -1    0    0  503  502 -0.00000000000E+00 -0.00000000000E+00 -0.81802121165E+01  0.81802121165E+01  0.00000000000E+00 0. -1.
         21    1    1    2  503  501  0.20474641305E+02 -0.16449713392E+01  0.17951754308E+03  0.18068886280E+03  0.00000000000E+00 0. -1.
         21    1    1    2  504  502 -0.20474641305E+02  0.16449713392E+01  0.62942476728E+01  0.21483352184E+02  0.00000000000E+00 0. -1.
<mgrwt>
<rscale>  2 0.20540615E+02</rscale>
<asrwt>0</asrwt>
<pdfrwt beam="1">  1       21 0.29844920E-01 0.20540615E+02</pdfrwt>
<pdfrwt beam="2">  1       21 0.12584943E-02 0.20540615E+02</pdfrwt>
<totfact> 0.20843387E+07</totfact>
</mgrwt>
</event>
<event>
 4    1  0.4447136E+006  0.2003068E+02  0.7546771E-02  0.1744719E+00
         21   -1    0    0  503  501  0.00000000000E+00  0.00000000000E+00  0.64152042514E+02  0.64152042514E+02  0.00000000000E+00 0.  1.
         21   -1    0    0  501  502 -0.00000000000E+00 -0.00000000000E+00 -0.10955976065E+02  0.10955976065E+02  0.00000000000E+00 0. -1.
         21    1    1    2  503  504  0.97797951697E+01 -0.17480959355E+02  0.51199190075E+02  0.54978044690E+02  0.00000000000E+00 0.  1.
         21    1    1    2  504  502 -0.97797951697E+01  0.17480959355E+02  0.19968763733E+01  0.20129973889E+02  0.00000000000E+00 0. -1.
<mgrwt>
<rscale>  2 0.20030685E+02</rscale>
<asrwt>0</asrwt>
<pdfrwt beam="1">  1       21 0.98695448E-02 0.20030685E+02</pdfrwt>
<pdfrwt beam="2">  1       21 0.16855348E-02 0.20030685E+02</pdfrwt>
<totfact> 0.88967100E+07</totfact>
</mgrwt>
</event>
<event>
 4    1  0.4447136E+006  0.2007091E+02  0.7546771E-02  0.1743922E+00
         21   -1    0    0  504  501  0.00000000000E+00  0.00000000000E+00  0.21405051072E+02  0.21405051072E+02  0.00000000000E+00 0.  1.
         21   -1    0    0  501  502 -0.00000000000E+00 -0.00000000000E+00 -0.21459052818E+02  0.21459052818E+02  0.00000000000E+00 0.  1.
         21    1    1    2  503  502  0.20011854904E+02  0.15385784542E+01 -0.75430271399E+01  0.21441520906E+02  0.00000000000E+00 0.  1.
         21    1    1    2  504  503 -0.20011854904E+02 -0.15385784542E+01  0.74890253939E+01  0.21422582984E+02  0.00000000000E+00 0.  1.
<mgrwt>
<rscale>  2 0.20070913E+02</rscale>
<asrwt>0</asrwt>
<pdfrwt beam="1">  1       21 0.32930848E-02 0.20070913E+02</pdfrwt>
<pdfrwt beam="2">  1       21 0.33013927E-02 0.20070913E+02</pdfrwt>
<totfact> 0.18262132E+08</totfact>
</mgrwt>
</event>
<event>
 4    1  0.4447136E+006  0.2013496E+02  0.7546771E-02  0.1742658E+00
         21   -1    0    0  504  501  0.00000000000E+00  0.00000000000E+00  0.11190660259E+04  0.11190660259E+04  0.00000000000E+00 0. -1.
         21   -1    0    0  503  502 -0.00000000000E+00 -0.00000000000E+00 -0.67735817704E+01  0.67735817704E+01  0.00000000000E+00 0.  1.
         21    1    1    2  503  501 -0.19564101246E+02 -0.47605090965E+01  0.84869940689E+01  0.21850527974E+02  0.00000000000E+00 0.  1.
         21    1    1    2  504  502  0.19564101246E+02  0.47605090965E+01  0.11038054501E+04  0.11039890797E+04  0.00000000000E+00 0. -1.
<mgrwt>
<rscale>  2 0.20134957E+02</rscale>
<asrwt>0</asrwt>
<pdfrwt beam="1">  1       21 0.17216386E+00 0.20134957E+02</pdfrwt>
<pdfrwt beam="2">  1       21 0.10420904E-02 0.20134957E+02</pdfrwt>
<totfact> 0.73329931E+05</totfact>
</mgrwt>
</event>
<event>
 4    1  0.4447136E+006  0.3309349E+02  0.7546771E-02  0.1566213E+00
         21   -1    0    0  504  501  0.00000000000E+00  0.00000000000E+00  0.11280893079E+04  0.11280893079E+04  0.00000000000E+00 0.  1.
         21   -1    0    0  503  502 -0.00000000000E+00 -0.00000000000E+00 -0.10807385712E+01  0.10807385712E+01  0.00000000000E+00 0. -1.
         21    1    1    2  503  501 -0.24937148566E+02 -0.21755871087E+02  0.74355347762E+03  0.74428956286E+03  0.00000000000E+00 0.  1.
         21    1    1    2  504  502  0.24937148566E+02  0.21755871087E+02  0.38345509167E+03  0.38488048357E+03  0.00000000000E+00 0. -1.
<mgrwt>
<rscale>  2 0.33093493E+02</rscale>
<asrwt>0</asrwt>
<pdfrwt beam="1">  1       21 0.17355126E+00 0.33093493E+02</pdfrwt>
<pdfrwt beam="2">  1       21 0.16626837E-03 0.33093493E+02</pdfrwt>
<totfact> 0.11205426E+07</totfact>
</mgrwt>
</event>
<event>
 4    1  0.4447136E+006  0.3194883E+02  0.7546771E-02  0.1577495E+00
         21   -1    0    0  502  501  0.00000000000E+00  0.00000000000E+00  0.38168165596E+03  0.38168165596E+03  0.00000000000E+00 0.  1.
         21   -1    0    0  504  502 -0.00000000000E+00 -0.00000000000E+00 -0.29971028469E+01  0.29971028469E+01  0.00000000000E+00 0.  1.
         21    1    1    2  503  501 -0.87639959588E+00 -0.31936809003E+02  0.25246592174E+03  0.25447940877E+03  0.00000000000E+00 0.  1.
         21    1    1    2  504  503  0.87639959588E+00  0.31936809003E+02  0.12621863137E+03  0.13019935004E+03  0.00000000000E+00 0.  1.
<mgrwt>
<rscale>  2 0.31948832E+02</rscale>
<asrwt>0</asrwt>
<pdfrwt beam="1">  1       21 0.58720216E-01 0.31948832E+02</pdfrwt>
<pdfrwt beam="2">  1       21 0.46109305E-03 0.31948832E+02</pdfrwt>
<totfact> 0.28132572E+07</totfact>
</mgrwt>
</event>
<event>
 4    1  0.4447136E+006  0.2503198E+02  0.7546771E-02  0.1660543E+00
         21   -1    0    0  504  501  0.00000000000E+00  0.00000000000E+00  0.61127728448E+03  0.61127728448E+03  0.00000000000E+00 0.  1.
         21   -1    0    0  503  502 -0.00000000000E+00 -0.00000000000E+00 -0.18761275407E+01  0.18761275407E+01  0.00000000000E+00 0. -1.
         21    1    1    2  503  501  0.95736036192E+01 -0.23128903028E+02  0.51118545879E+03  0.51179798096E+03  0.00000000000E+00 0.  1.
         21    1    1    2  504  502 -0.95736036192E+01  0.23128903028E+02  0.98215698148E+02  0.10135543105E+03  0.00000000000E+00 0. -1.
<mgrwt>
<rscale>  2 0.25031980E+02</rscale>
<asrwt>0</asrwt>
<pdfrwt beam="1">  1       21 0.94042501E-01 0.25031980E+02</pdfrwt>
<pdfrwt beam="2">  1       21 0.28863549E-03 0.25031980E+02</pdfrwt>
<totfact> 0.20070917E+07</totfact>
</mgrwt>
</event>
<event>
 4    1  0.4447136E+006  0.2802918E+02  0.7546771E-02  0.1620954E+00
         21   -1    0    0  504  501  0.00000000000E+00  0.00000000000E+00  0.23273457091E+01  0.23273457091E+01  0.00000000000E+00 0. -1.
         21   -1    0    0  503  502 -0.00000000000E+00 -0.00000000000E+00 -0.33875052223E+03  0.33875052223E+03  0.00000000000E+00 0. -1.
         21    1    1    2  503  501  0.27605485883E+02  0.48551077090E+01 -0.17829219171E+03  0.18048196738E+03  0.00000000000E+00 0. -1.
         21    1    1    2  504  502 -0.27605485883E+02 -0.48551077090E+01 -0.15813098481E+03  0.16059590057E+03  0.00000000000E+00 0. -1.
<mgrwt>
<rscale>  2 0.28029180E+02</rscale>
<asrwt>0</asrwt>
<pdfrwt beam="1">  1       21 0.35805348E-03 0.28029180E+02</pdfrwt>
<pdfrwt beam="2">  1       21 0.52115423E-01 0.28029180E+02</pdfrwt>
<totfact> 0.50617953E+07</totfact>
</mgrwt>
</event>
<event>
 4    1  0.4447136E+006  0.2719166E+02  0.7546771E-02  0.1631381E+00
         21   -1    0    0  502  501  0.00000000000E+00  0.00000000000E+00  0.22334789286E+02  0.22334789286E+02  0.00000000000E+00 0. -1.
         21   -1    0    0  504  502 -0.00000000000E+00 -0.00000000000E+00 -0.58495934946E+02  0.58495934946E+02  0.00000000000E+00 0.  1.
         21    1    1    2  503  501  0.11421371247E+02  0.24676678887E+02  0.85466367562E+01  0.28503178804E+02  0.00000000000E+00 0. -1.
         21    1    1    2  504  503 -0.11421371247E+02 -0.24676678887E+02 -0.44707782415E+02  0.52327545428E+02  0.00000000000E+00 0.  1.
<mgrwt>
<rscale>  2 0.27191657E+02</rscale>
<asrwt>0</asrwt>
<pdfrwt beam="1">  1       21 0.34361215E-02 0.27191657E+02</pdfrwt>
<pdfrwt beam="2">  1       21 0.89993745E-02 0.27191657E+02</pdfrwt>
<totfact> 0.37290612E+07</totfact>
</mgrwt>
</event>
<event>
 4    1  0.4447136E+006  0.2959053E+02  0.7546771E-02  0.1602659E+00
         21   -1    0    0  502  501  0.00000000000E+00  0.00000000000E+00  0.27836214878E+02  0.27836214878E+02  0.00000000000E+00 0.  1.
         21   -1    0    0  503  502 -0.00000000000E+00 -0.00000000000E+00 -0.60438566308E+03  0.60438566308E+03  0.00000000000E+00 0. -1.
         21    1    1    2  503  504  0.28942265432E+02 -0.61599487056E+01 -0.59604971256E+03  0.59678376280E+03  0.00000000000E+00 0. -1.
         21    1    1    2  504  501 -0.28942265432E+02  0.61599487056E+01  0.19500264355E+02  0.35438115163E+02  0.00000000000E+00 0.  1.
<mgrwt>
<rscale>  2 0.29590534E+02</rscale>
<asrwt>0</asrwt>
<pdfrwt beam="1">  1       21 0.42824946E-02 0.29590534E+02</pdfrwt>
<pdfrwt beam="2">  1       21 0.92982409E-01 0.29590534E+02</pdfrwt>
<totfact> 0.34773588E+05</totfact>
</mgrwt>
</event>
<event>
 4    1  0.4447136E+006  0.3096315E+02  0.7546771E-02  0.1587680E+00
         21   -1    0    0  502  501  0.00000000000E+00  0.00000000000E+00  0.84828502346E+01  0.84828502346E+01  0.00000000000E+00 0.  1.
         21   -1    0    0  503  502 -0.00000000000E+00 -0.00000000000E+00 -0.40134773332E+03  0.40134773332E+03  0.00000000000E+00 0. -1.
         21    1    1    2  503  504 -0.30261630322E+02  0.65536774880E+01 -0.37011590951E+03  0.37140880904E+03  0.00000000000E+00 0. -1.
         21    1    1    2  504  501  0.30261630322E+02 -0.65536774880E+01 -0.22748973578E+02  0.38421774520E+02  0.00000000000E+00 0.  1.
<mgrwt>
<rscale>  2 0.30963155E+02</rscale>
<asrwt>0</asrwt>
<pdfrwt beam="1">  1       21 0.13050535E-02 0.30963155E+02</pdfrwt>
<pdfrwt beam="2">  1       21 0.61745823E-01 0.30963155E+02</pdfrwt>
<totfact> 0.52700194E+06</totfact>
</mgrwt>
</event>
<event>
 4    1  0.4447136E+006  0.3766630E+02  0.7546771E-02  0.1526123E+00
         21   -1    0    0  504  501  0.00000000000E+00  0.00000000000E+00  0.59681565501E+02  0.59681565501E+02  0.00000000000E+00 0. -1.
         21   -1    0    0  503  502 -0.00000000000E+00 -0.00000000000E+00 -0.45500986761E+02  0.45500986761E+02  0.00000000000E+00 0.  1.
         21    1    1    2  503  501  0.37440775450E+02  0.41156480224E+01 -0.29252899484E+02  0.47691533349E+02  0.00000000000E+00 0.  1.
         21    1    1    2  504  502 -0.37440775450E+02 -0.41156480224E+01  0.43433478224E+02  0.57491018912E+02  0.00000000000E+00 0. -1.
<mgrwt>
<rscale>  2 0.37666301E+02</rscale>
<asrwt>0</asrwt>
<pdfrwt beam="1">  1       21 0.91817793E-02 0.37666301E+02</pdfrwt>
<pdfrwt beam="2">  1       21 0.70001518E-02 0.37666301E+02</pdfrwt>
<totfact> 0.12172687E+07</totfact>
</mgrwt>
</event>
<event>
 4    1  0.4447136E+006  0.2126257E+02  0.7546771E-02  0.1721326E+00
         21   -1    0    0  504  501  0.00000000000E+00  0.00000000000E+00  0.16481995801E+02  0.16481995801E+02  0.00000000000E+00 0. -1.
         21   -1    0    0  503  502 -0.00000000000E+00 -0.00000000000E+00 -0.52250692665E+03  0.52250692665E+03  0.00000000000E+00 0. -1.
         21    1    1    2  503  501  0.21205923847E+02  0.15510907390E+01 -0.51533782016E+03  0.51577627512E+03  0.00000000000E+00 0. -1.
         21    1    1    2  504  502 -0.21205923847E+02 -0.15510907390E+01  0.93128893132E+01  0.23212647330E+02  0.00000000000E+00 0. -1.
<mgrwt>
<rscale>  2 0.21262575E+02</rscale>
<asrwt>0</asrwt>
<pdfrwt beam="1">  1       21 0.25356915E-02 0.21262575E+02</pdfrwt>
<pdfrwt beam="2">  1       21 0.80385687E-01 0.21262575E+02</pdfrwt>
<totfact> 0.10579480E+06</totfact>
</mgrwt>
</event>
<event>
 4    1  0.4447136E+006  0.2873662E+02  0.7546771E-02  0.1612489E+00
         21   -1    0    0  504  501  0.00000000000E+00  0.00000000000E+00  0.12767969380E+01  0.12767969380E+01  0.00000000000E+00 0. -1.
         21   -1    0    0  503  502 -0.00000000000E+00 -0.00000000000E+00 -0.10692923642E+04  0.10692923642E+04  0.00000000000E+00 0. -1.
         21    1    1    2  503  501  0.28694055230E+02  0.15634732701E+01 -0.87048962613E+03  0.87096382385E+03  0.00000000000E+00 0. -1.
         21    1    1    2  504  502 -0.28694055230E+02 -0.15634732701E+01 -0.19752594117E+03  0.19960533733E+03  0.00000000000E+00 0. -1.
<mgrwt>
<rscale>  2 0.28736619E+02</rscale>
<asrwt>0</asrwt>
<pdfrwt beam="1">  1       21 0.19643028E-03 0.28736619E+02</pdfrwt>
<pdfrwt beam="2">  1       21 0.16450653E+00 0.28736619E+02</pdfrwt>
<totfact> 0.98949292E+06</totfact>
</mgrwt>
</event>
<event>
 4    1  0.4447136E+006  0.2810819E+02  0.7546771E-02  0.1619994E+00
         21   -1    0    0  503  501  0.00000000000E+00  0.00000000000E+00  0.76512816997E+01  0.76512816997E+01  0.00000000000E+00 0.  1.
         21   -1    0    0  504  502 -0.00000000000E+00 -0.00000000000E+00 -0.32130176832E+03  0.32130176832E+03  0.00000000000E+00 0.  1.
         21    1    1    2  503  502 -0.26672377092E+02  0.88687502157E+01 -0.21332095910E+02  0.35286381878E+02  0.00000000000E+00 0.  1.
         21    1    1    2  504  501  0.26672377092E+02 -0.88687502157E+01 -0.29231839071E+03  0.29366666815E+03  0.00000000000E+00 0.  1.
<mgrwt>
<rscale>  2 0.28108192E+02</rscale>
<asrwt>0</asrwt>
<pdfrwt beam="1">  1       21 0.11771201E-02 0.28108192E+02</pdfrwt>
<pdfrwt beam="2">  1       21 0.49431049E-01 0.28108192E+02</pdfrwt>
<totfact> 0.94823956E+06</totfact>
</mgrwt>
</event>
<event>
 4    1  0.4447136E+006  0.2126056E+02  0.7546771E-02  0.1721363E+00
         21   -1    0    0  502  501  0.00000000000E+00  0.00000000000E+00  0.14695987479E+03  0.14695987479E+03  0.00000000000E+00 0. -1.
         21   -1    0    0  504  502 -0.00000000000E+00 -0.00000000000E+00 -0.11543296260E+02  0.11543296260E+02  0.00000000000E+00 0. -1.
         21    1    1    2  503  501  0.20695983788E+02  0.48669960432E+01  0.13558517438E+03  0.13724194296E+03  0.00000000000E+00 0. -1.
         21    1    1    2  504  503 -0.20695983788E+02 -0.48669960432E+01 -0.16859584972E+00  0.21261228092E+02  0.00000000000E+00 0. -1.
<mgrwt>
<rscale>  2 0.21260560E+02</rscale>
<asrwt>0</asrwt>
<pdfrwt beam="1">  1       21 0.22609210E-01 0.21260560E+02</pdfrwt>
<pdfrwt beam="2">  1       21 0.17758918E-02 0.21260560E+02</pdfrwt>
<totfact> 0.20453481E+07</totfact>
</mgrwt>
</event>
<event>
 4    1  0.4447136E+006  0.2438717E+02  0.7546771E-02  0.1669963E+00
         21   -1    0    0  504  501  0.00000000000E+00  0.00000000000E+00  0.25107718103E+02  0.25107718103E+02  0.00000000000E+00 0.  1.
         21   -1    0    0  503  502 -0.00000000000E+00 -0.00000000000E+00 -0.10278086324E+03  0.10278086324E+03  0.00000000000E+00 0. -1.
         21    1    1    2  503  501  0.23758956773E+02  0.54996263440E+01  0.17257404034E+02  0.29875607288E+02  0.00000000000E+00 0.  1.
         21    1    1    2  504  502 -0.23758956773E+02 -0.54996263440E+01 -0.94930549167E+02  0.98012974049E+02  0.00000000000E+00 0. -1.
<mgrwt>
<rscale>  2 0.24387167E+02</rscale>
<asrwt>0</asrwt>
<pdfrwt beam="1">  1       21 0.38627259E-02 0.24387167E+02</pdfrwt>
<pdfrwt beam="2">  1       21 0.15812440E-01 0.24387167E+02</pdfrwt>
<totfact> 0.11748869E+07</totfact>
</mgrwt>
</event>
<event>
 4    1  0.4447136E+006  0.5321809E+02  0.7546771E-02  0.1428719E+00
         21   -1    0    0  503  501  0.00000000000E+00  0.00000000000E+00  0.18662909086E+02  0.18662909086E+02  0.00000000000E+00 0. -1.
         21   -1    0    0  501  502 -0.00000000000E+00 -0.00000000000E+00 -0.16538200923E+03  0.16538200923E+03  0.00000000000E+00 0.  1.
         21    1    1    2  503  504 -0.41807796232E+02  0.32928304363E+02 -0.46943305366E+02  0.70963645429E+02  0.00000000000E+00 0. -1.
         21    1    1    2  504  502  0.41807796232E+02 -0.32928304363E+02 -0.99775794775E+02  0.11308127288E+03  0.00000000000E+00 0.  1.
<mgrwt>
<rscale>  2 0.53218090E+02</rscale>
<asrwt>0</asrwt>
<pdfrwt beam="1">  1       21 0.28712168E-02 0.53218090E+02</pdfrwt>
<pdfrwt beam="2">  1       21 0.25443386E-01 0.53218090E+02</pdfrwt>
<totfact> 0.90563309E+06</totfact>
</mgrwt>
</event>
<event>
 4    1  0.4447136E+006  0.2520978E+02  0.7546771E-02  0.1658007E+00
         21   -1    0    0  504  501  0.00000000000E+00  0.00000000000E+00  0.61569655021E+00  0.61569655021E+00  0.00000000000E+00 0.  1.
         21   -1    0    0  503  502 -0.00000000000E+00 -0.00000000000E+00 -0.13437126936E+04  0.13437126936E+04  0.00000000000E+00 0. -1.
         21    1    1    2  503  501 -0.75706892534E+00  0.25198405131E+02 -0.99517778544E+03  0.99549704038E+03  0.00000000000E+00 0. -1.
         21    1    1    2  504  502  0.75706892534E+00 -0.25198405131E+02 -0.34791921164E+03  0.34883134980E+03  0.00000000000E+00 0.  1.
<mgrwt>
<rscale>  2 0.25209775E+02</rscale>
<asrwt>0</asrwt>
<pdfrwt beam="1">  1       21 0.94722902E-04 0.25209775E+02</pdfrwt>
<pdfrwt beam="2">  1       21 0.20672425E+00 0.25209775E+02</pdfrwt>
<totfact> 0.15586124E+07</totfact>
</mgrwt>
</event>
<event>
 4    1  0.4447136E+006  0.2032321E+02  0.7546771E-02  0.1738976E+00
         21   -1    0    0  503  501  0.00000000000E+00  0.00000000000E+00  0.88958807346E+01  0.88958807346E+01  0.00000000000E+00 0. -1.
         21   -1    0    0  504  502 -0.00000000000E+00 -0.00000000000E+00 -0.84628315049E+02  0.84628315049E+02  0.00000000000E+00 0.  1.
         21    1    1    2  503  502  0.17303751075E+02  0.10658939657E+02 -0.69282885388E+02  0.72202153732E+02  0.00000000000E+00 0.  1.
         21    1    1    2  504  501 -0.17303751075E+02 -0.10658939657E+02 -0.64495489264E+01  0.21322042051E+02  0.00000000000E+00 0. -1.
<mgrwt>
<rscale>  2 0.20323208E+02</rscale>
<asrwt>0</asrwt>
<pdfrwt beam="1">  1       21 0.13685970E-02 0.20323208E+02</pdfrwt>
<pdfrwt beam="2">  1       21 0.13019741E-01 0.20323208E+02</pdfrwt>
<totfact> 0.77347034E+07</totfact>
</mgrwt>
</event>
<event>
 4    1  0.4447136E+006  0.3470828E+02  0.7546771E-02  0.1551206E+00
         21   -1    0    0  504  501  0.00000000000E+00  0.00000000000E+00  0.14615753722E+02  0.14615753722E+02  0.00000000000E+00 0. -1.
         21   -1    0    0  503  502 -0.00000000000E+00 -0.00000000000E+00 -0.20439981775E+03  0.20439981775E+03  0.00000000000E+00 0. -1.
         21    1    1    2  503  501  0.79185946101E+00  0.34699250684E+02 -0.17948699779E+03  0.18281205490E+03  0.00000000000E+00 0. -1.
         21    1    1    2  504  502 -0.79185946101E+00 -0.34699250684E+02 -0.10297066238E+02  0.36203516577E+02  0.00000000000E+00 0. -1.
<mgrwt>
<rscale>  2 0.34708285E+02</rscale>
<asrwt>0</asrwt>
<pdfrwt beam="1">  1       21 0.22485777E-02 0.34708285E+02</pdfrwt>
<pdfrwt beam="2">  1       21 0.31446123E-01 0.34708285E+02</pdfrwt>
<totfact> 0.85448788E+06</totfact>
</mgrwt>
</event>
<event>
 4    1  0.4447136E+006  0.3179150E+02  0.7546771E-02  0.1579090E+00
         21   -1    0    0  504  501  0.00000000000E+00  0.00000000000E+00  0.16005656131E+03  0.16005656131E+03  0.00000000000E+00 0.  1.
         21   -1    0    0  503  502 -0.00000000000E+00 -0.00000000000E+00 -0.79841147497E+01  0.79841147497E+01  0.00000000000E+00 0. -1.
         21    1    1    2  503  501 -0.11172567539E+02  0.29763624214E+02  0.37615906220E+02  0.49250949153E+02  0.00000000000E+00 0. -1.
         21    1    1    2  504  502  0.11172567539E+02 -0.29763624214E+02  0.11445654034E+03  0.11878972690E+03  0.00000000000E+00 0.  1.
<mgrwt>
<rscale>  2 0.31791502E+02</rscale>
<asrwt>0</asrwt>
<pdfrwt beam="1">  1       21 0.24624084E-01 0.31791502E+02</pdfrwt>
<pdfrwt beam="2">  1       21 0.12283255E-02 0.31791502E+02</pdfrwt>
<totfact> 0.33533973E+07</totfact>
</mgrwt>
</event>
<event>
 4    1  0.4447136E+006  0.2402939E+02  0.7546771E-02  0.1675348E+00
         21   -1    0    0  504  501  0.00000000000E+00  0.00000000000E+00  0.38061443134E+02  0.38061443134E+02  0.00000000000E+00 0. -1.
         21   -1    0    0  503  502 -0.00000000000E+00 -0.00000000000E+00 -0.16706526153E+02  0.16706526153E+02  0.00000000000E+00 0. -1.
         21    1    1    2  503  501 -0.14930274079E+02  0.18828136777E+02  0.18980750034E+02  0.30621572305E+02  0.00000000000E+00 0. -1.
         21    1    1    2  504  502  0.14930274079E+02 -0.18828136777E+02  0.23741669464E+01  0.24146396983E+02  0.00000000000E+00 0. -1.
<mgrwt>
<rscale>  2 0.24029395E+02</rscale>
<asrwt>0</asrwt>
<pdfrwt beam="1">  1       21 0.58556066E-02 0.24029395E+02</pdfrwt>
<pdfrwt beam="2">  1       21 0.25702348E-02 0.24029395E+02</pdfrwt>
<totfact> 0.11466618E+08</totfact>
</mgrwt>
</event>
<event>
 4    1  0.4447136E+006  0.2016427E+02  0.7546771E-02  0.1742081E+00
         21   -1    0    0  502  501  0.00000000000E+00  0.00000000000E+00  0.47393347058E+03  0.47393347058E+03  0.00000000000E+00 0. -1.
         21   -1    0    0  503  502 -0.00000000000E+00 -0.00000000000E+00 -0.14311852047E+02  0.14311852047E+02  0.00000000000E+00 0.  1.
         21    1    1    2  503  504  0.17472309636E+02  0.10065601414E+02 -0.68818341637E+01  0.21306280231E+02  0.00000000000E+00 0.  1.
         21    1    1    2  504  501 -0.17472309636E+02 -0.10065601414E+02  0.46650345270E+03  0.46693904240E+03  0.00000000000E+00 0. -1.
<mgrwt>
<rscale>  2 0.20164274E+02</rscale>
<asrwt>0</asrwt>
<pdfrwt beam="1">  1       21 0.72912830E-01 0.20164274E+02</pdfrwt>
<pdfrwt beam="2">  1       21 0.22018238E-02 0.20164274E+02</pdfrwt>
<totfact> 0.15999359E+06</totfact>
</mgrwt>
</event>
<event>
 4    1  0.4447136E+006  0.2184835E+02  0.7546771E-02  0.1710888E+00
         21   -1    0    0  503  501  0.00000000000E+00  0.00000000000E+00  0.33279123087E+03  0.33279123087E+03  0.00000000000E+00 0.  1.
         21   -1    0    0  504  502 -0.00000000000E+00 -0.00000000000E+00 -0.14416894079E+01  0.14416894079E+01  0.00000000000E+00 0.  1.
         21    1    1    2  503  502 -0.30988623266E+01  0.21627464885E+02  0.17757146538E+03  0.17891052374E+03  0.00000000000E+00 0.  1.
         21    1    1    2  504  501  0.30988623266E+01 -0.21627464885E+02  0.15377807608E+03  0.15532239654E+03  0.00000000000E+00 0.  1.
<mgrwt>
<rscale>  2 0.21848345E+02</rscale>
<asrwt>0</asrwt>
<pdfrwt beam="1">  1       21 0.51198590E-01 0.21848345E+02</pdfrwt>
<pdfrwt beam="2">  1       21 0.22179864E-03 0.21848345E+02</pdfrwt>
<totfact> 0.99362601E+07</totfact>
</mgrwt>
</event>
<event>
 4    1  0.4447136E+006  0.2440953E+02  0.7546771E-02  0.1669631E+00
         21   -1    0    0  503  501  0.00000000000E+00  0.00000000000E+00  0.49507928523E+02  0.49507928523E+02  0.00000000000E+00 0.  1.
         21   -1    0    0  504  502 -0.00000000000E+00 -0.00000000000E+00 -0.12093628069E+02  0.12093628069E+02  0.00000000000E+00 0. -1.
         21    1    1    2  503  502 -0.22017516556E+02  0.10538210937E+02  0.16561494160E+02  0.29497593357E+02  0.00000000000E+00 0. -1.
         21    1    1    2  504  501  0.22017516556E+02 -0.10538210937E+02  0.20852806295E+02  0.32103963235E+02  0.00000000000E+00 0.  1.
<mgrwt>
<rscale>  2 0.24409525E+02</rscale>
<asrwt>0</asrwt>
<pdfrwt beam="1">  1       21 0.76166043E-02 0.24409525E+02</pdfrwt>
<pdfrwt beam="2">  1       21 0.18605582E-02 0.24409525E+02</pdfrwt>
<totfact> 0.12387101E+08</totfact>
</mgrwt>
</event>
<event>
 4    1  0.4447136E+006  0.1736956E+03  0.7546771E-02  0.1174048E+00
         21   -1    0    0  503  501  0.00000000000E+00  0.00000000000E+00  0.59800978603E+02  0.59800978603E+02  0.00000000000E+00 0. -1.
         21   -1    0    0  504  502 -0.00000000000E+00 -0.00000000000E+00 -0.13878904928E+04  0.13878904928E+04  0.00000000000E+00 0. -1.
         21    1    1    2  503  502  0.17368989420E+03 -0.14096902132E+01 -0.12415320409E+04  0.12536235380E+04  0.00000000000E+00 0. -1.
         21    1    1    2  504  501 -0.17368989420E+03  0.14096902132E+01 -0.86557473303E+02  0.19406793336E+03  0.00000000000E+00 0. -1.
<mgrwt>
<rscale>  2 0.17369561E+03</rscale>
<asrwt>0</asrwt>
<pdfrwt beam="1">  1       21 0.92001514E-02 0.17369561E+03</pdfrwt>
<pdfrwt beam="2">  1       21 0.21352159E+00 0.17369561E+03</pdfrwt>
<totfact> 0.10544790E+04</totfact>
</mgrwt>
</event>
<event>
 4    1  0.4447136E+006  0.2167367E+02  0.7546771E-02  0.1713958E+00
         21   -1    0    0  502  501  0.00000000000E+00  0.00000000000E+00  0.26259194865E+01  0.26259194865E+01  0.00000000000E+00 0. -1.
         21   -1    0    0  504  502 -0.00000000000E+00 -0.00000000000E+00 -0.45213182325E+03  0.45213182325E+03  0.00000000000E+00 0.  1.
         21    1    1    2  503  501 -0.21593970336E+02 -0.18570147638E+01 -0.47989706615E+02  0.52657003330E+02  0.00000000000E+00 0. -1.
         21    1    1    2  504  503  0.21593970336E+02  0.18570147638E+01 -0.40151619715E+03  0.40210073941E+03  0.00000000000E+00 0.  1.
<mgrwt>
<rscale>  2 0.21673672E+02</rscale>
<asrwt>0</asrwt>
<pdfrwt beam="1">  1       21 0.40398810E-03 0.21673672E+02</pdfrwt>
<pdfrwt beam="2">  1       21 0.69558659E-01 0.21673672E+02</pdfrwt>
<totfact> 0.22511873E+07</totfact>
</mgrwt>
</event>
<event>
 4    1  0.4447136E+006  0.2031169E+02  0.7546771E-02  0.1739200E+00
         21   -1    0    0  503  501  0.00000000000E+00  0.00000000000E+00  0.55383311709E+01  0.55383311709E+01  0.00000000000E+00 0.  1.
         21   -1    0    0  501  502 -0.00000000000E+00 -0.00000000000E+00 -0.61419246561E+03  0.61419246561E+03  0.00000000000E+00 0.  1.
         21    1    1    2  503  504 -0.80672273986E+01  0.18640942943E+02 -0.13859946858E+02  0.24589897084E+02  0.00000000000E+00 0.  1.
         21    1    1    2  504  502  0.80672273986E+01 -0.18640942943E+02 -0.59479418758E+03  0.59514089970E+03  0.00000000000E+00 0.  1.
<mgrwt>
<rscale>  2 0.20311694E+02</rscale>
<asrwt>0</asrwt>
<pdfrwt beam="1">  1       21 0.85205090E-03 0.20311694E+02</pdfrwt>
<pdfrwt beam="2">  1       21 0.94491154E-01 0.20311694E+02</pdfrwt>
<totfact> 0.38941509E+06</totfact>
</mgrwt>
</event>
<event>
 4    1  0.4447136E+006  0.2226534E+02  0.7546771E-02  0.1703703E+00
         21   -1    0    0  504  501  0.00000000000E+00  0.00000000000E+00  0.15636064167E+02  0.15636064167E+02  0.00000000000E+00 0. -1.
         21   -1    0    0  503  502 -0.00000000000E+00 -0.00000000000E+00 -0.35079033527E+02  0.35079033527E+02  0.00000000000E+00 0. -1.
         21    1    1    2  503  501  0.11887082081E-01 -0.22265335911E+02 -0.17585458576E+02  0.28372410505E+02  0.00000000000E+00 0. -1.
         21    1    1    2  504  502 -0.11887082081E-01  0.22265335911E+02 -0.18575107847E+01  0.22342687189E+02  0.00000000000E+00 0. -1.
<mgrwt>
<rscale>  2 0.22265339E+02</rscale>
<asrwt>0</asrwt>
<pdfrwt beam="1">  1       21 0.24055484E-02 0.22265339E+02</pdfrwt>
<pdfrwt beam="2">  1       21 0.53967743E-02 0.22265339E+02</pdfrwt>
<totfact> 0.14151804E+08</totfact>
</mgrwt>
</event>
<event>
 4    1  0.4447136E+006  0.2540971E+02  0.7546771E-02  0.1655186E+00
         21   -1    0    0  503  501  0.00000000000E+00  0.00000000000E+00  0.32343015449E+02  0.32343015449E+02  0.00000000000E+00 0.  1.
         21   -1    0    0  504  502 -0.00000000000E+00 -0.00000000000E+00 -0.33667040607E+02  0.33667040607E+02  0.00000000000E+00 0.  1.
         21    1    1    2  503  502  0.52425847336E+00  0.25404305188E+02  0.20395490641E+02  0.32582658079E+02  0.00000000000E+00 0.  1.
         21    1    1    2  504  501 -0.52425847336E+00 -0.25404305188E+02 -0.21719515798E+02  0.33427397977E+02  0.00000000000E+00 0.  1.
<mgrwt>
<rscale>  2 0.25409714E+02</rscale>
<asrwt>0</asrwt>
<pdfrwt beam="1">  1       21 0.49758486E-02 0.25409714E+02</pdfrwt>
<pdfrwt beam="2">  1       21 0.51795447E-02 0.25409714E+02</pdfrwt>
<totfact> 0.50106248E+07</totfact>
</mgrwt>
</event>
<event>
 4    1  0.4447136E+006  0.2252117E+02  0.7546771E-02  0.1699391E+00
         21   -1    0    0  504  501  0.00000000000E+00  0.00000000000E+00  0.59023435131E+01  0.59023435131E+01  0.00000000000E+00 0.  1.
         21   -1    0    0  503  502 -0.00000000000E+00 -0.00000000000E+00 -0.87863014846E+02  0.87863014846E+02  0.00000000000E+00 0.  1.
         21    1    1    2  503  501  0.18449732564E+02  0.12915506200E+02 -0.34030895962E+02  0.40808146393E+02  0.00000000000E+00 0.  1.
         21    1    1    2  504  502 -0.18449732564E+02 -0.12915506200E+02 -0.47929775371E+02  0.52957211966E+02  0.00000000000E+00 0.  1.
<mgrwt>
<rscale>  2 0.22521166E+02</rscale>
<asrwt>0</asrwt>
<pdfrwt beam="1">  1       21 0.90805288E-03 0.22521166E+02</pdfrwt>
<pdfrwt beam="2">  1       21 0.13517386E-01 0.22521166E+02</pdfrwt>
<totfact> 0.13855032E+08</totfact>
</mgrwt>
</event>
<event>
 4    1  0.4447136E+006  0.2325343E+02  0.7546771E-02  0.1687435E+00
         21   -1    0    0  502  501  0.00000000000E+00  0.00000000000E+00  0.42090713470E+02  0.42090713470E+02  0.00000000000E+00 0. -1.
         21   -1    0    0  504  502 -0.00000000000E+00 -0.00000000000E+00 -0.67474638234E+02  0.67474638234E+02  0.00000000000E+00 0.  1.
         21    1    1    2  503  501  0.22352266390E+02  0.64107956922E+01  0.36600532898E+02  0.43362669690E+02  0.00000000000E+00 0. -1.
         21    1    1    2  504  503 -0.22352266390E+02 -0.64107956922E+01 -0.61984457663E+02  0.66202682015E+02  0.00000000000E+00 0.  1.
<mgrwt>
<rscale>  2 0.23253432E+02</rscale>
<asrwt>0</asrwt>
<pdfrwt beam="1">  1       21 0.64754945E-02 0.23253432E+02</pdfrwt>
<pdfrwt beam="2">  1       21 0.10380713E-01 0.23253432E+02</pdfrwt>
<totfact> 0.10379373E+07</totfact>
</mgrwt>
</event>
<event>
 4    1  0.4447136E+006  0.2102622E+02  0.7546771E-02  0.1725658E+00
         21   -1    0    0  503  501  0.00000000000E+00  0.00000000000E+00  0.88174295067E+02  0.88174295067E+02  0.00000000000E+00 0.  1.
         21   -1    0    0  504  502 -0.00000000000E+00 -0.00000000000E+00 -0.99887758518E+03  0.99887758518E+03  0.00000000000E+00 0.  1.
         21    1    1    2  503  502 -0.16646666132E+02 -0.12844859424E+02 -0.99751173071E+03  0.99773330846E+03  0.00000000000E+00 0.  1.
         21    1    1    2  504  501  0.16646666132E+02  0.12844859424E+02  0.86808440597E+02  0.89318571786E+02  0.00000000000E+00 0.  1.
<mgrwt>
<rscale>  2 0.21026220E+02</rscale>
<asrwt>0</asrwt>
<pdfrwt beam="1">  1       21 0.13565276E-01 0.21026220E+02</pdfrwt>
<pdfrwt beam="2">  1       21 0.15367348E+00 0.21026220E+02</pdfrwt>
<totfact> 0.17006264E+04</totfact>
</mgrwt>
</event>
<event>
 4    1  0.4447136E+006  0.2442504E+02  0.7546771E-02  0.1669400E+00
         21   -1    0    0  502  501  0.00000000000E+00  0.00000000000E+00  0.33306600615E+03  0.33306600615E+03  0.00000000000E+00 0. -1.
         21   -1    0    0  504  502 -0.00000000000E+00 -0.00000000000E+00 -0.34750756694E+01  0.34750756694E+01  0.00000000000E+00 0. -1.
         21    1    1    2  503  501 -0.38413208387E+00 -0.24422017954E+02  0.28192947905E+03  0.28298553616E+03  0.00000000000E+00 0. -1.
         21    1    1    2  504  503  0.38413208387E+00  0.24422017954E+02  0.47661451434E+02  0.53555545662E+02  0.00000000000E+00 0. -1.
<mgrwt>
<rscale>  2 0.24425039E+02</rscale>
<asrwt>0</asrwt>
<pdfrwt beam="1">  1       21 0.51240899E-01 0.24425039E+02</pdfrwt>
<pdfrwt beam="2">  1       21 0.53462729E-03 0.24425039E+02</pdfrwt>
<totfact> 0.28140784E+07</totfact>
</mgrwt>
</event>
<event>
 4    1  0.4447136E+006  0.3353710E+02  0.7546771E-02  0.1561989E+00
         21   -1    0    0  504  501  0.00000000000E+00  0.00000000000E+00  0.23412822163E+03  0.23412822163E+03  0.00000000000E+00 0.  1.
         21   -1    0    0  503  502 -0.00000000000E+00 -0.00000000000E+00 -0.36942687344E+02  0.36942687344E+02  0.00000000000E+00 0. -1.
         21    1    1    2  503  501  0.16875506047E+02 -0.28981970312E+02  0.22500909329E+03  0.22749467987E+03  0.00000000000E+00 0.  1.
         21    1    1    2  504  502 -0.16875506047E+02  0.28981970312E+02 -0.27823559001E+02  0.43576229104E+02  0.00000000000E+00 0. -1.
<mgrwt>
<rscale>  2 0.33537103E+02</rscale>
<asrwt>0</asrwt>
<pdfrwt beam="1">  1       21 0.36019726E-01 0.33537103E+02</pdfrwt>
<pdfrwt beam="2">  1       21 0.56834905E-02 0.33537103E+02</pdfrwt>
<totfact> 0.15080866E+06</totfact>
</mgrwt>
</event>
<event>
 4    1  0.4447136E+006  0.2338794E+02  0.7546771E-02  0.1685298E+00
         21   -1    0    0  503  501  0.00000000000E+00  0.00000000000E+00  0.70451572836E+03  0.70451572836E+03  0.00000000000E+00 0. -1.
         21   -1    0    0  504  502 -0.00000000000E+00 -0.00000000000E+00 -0.31182880789E+01  0.31182880789E+01  0.00000000000E+00 0.  1.
         21    1    1    2  503  502 -0.18768353390E+02 -0.13955093952E+02  0.44077380520E+02  0.49898008073E+02  0.00000000000E+00 0.  1.
         21    1    1    2  504  501  0.18768353390E+02  0.13955093952E+02  0.65732005976E+03  0.65773600837E+03  0.00000000000E+00 0. -1.
<mgrwt>
<rscale>  2 0.23387940E+02</rscale>
<asrwt>0</asrwt>
<pdfrwt beam="1">  1       21 0.10838691E+00 0.23387940E+02</pdfrwt>
<pdfrwt beam="2">  1       21 0.47973719E-03 0.23387940E+02</pdfrwt>
<totfact> 0.68952875E+06</totfact>
</mgrwt>
</event>
<event>
 4    1  0.4447136E+006  0.2082438E+02  0.7546771E-02  0.1729414E+00
         21   -1    0    0  503  501  0.00000000000E+00  0.00000000000E+00  0.48547540517E+02  0.48547540517E+02  0.00000000000E+00 0.  1.
         21   -1    0    0  504  502 -0.00000000000E+00 -0.00000000000E+00 -0.29555027472E+02  0.29555027472E+02  0.00000000000E+00 0. -1.
         21    1    1    2  503  502 -0.20456388637E+02 -0.38975567970E+01  0.42116690777E+02  0.46983725130E+02  0.00000000000E+00 0.  1.
         21    1    1    2  504  501  0.20456388637E+02  0.38975567970E+01 -0.23124177733E+02  0.31118842859E+02  0.00000000000E+00 0. -1.
<mgrwt>
<rscale>  2 0.20824380E+02</rscale>
<asrwt>0</asrwt>
<pdfrwt beam="1">  1       21 0.74688524E-02 0.20824380E+02</pdfrwt>
<pdfrwt beam="2">  1       21 0.45469273E-02 0.20824380E+02</pdfrwt>
<totfact> 0.30535960E+07</totfact>
</mgrwt>
</event>
<event>
 4    1  0.4447136E+006  0.4950768E+02  0.7546771E-02  0.1448015E+00
         21   -1    0    0  502  501  0.00000000000E+00  0.00000000000E+00  0.71804741744E+02  0.71804741744E+02  0.00000000000E+00 0.  1.
         21   -1    0    0  503  502 -0.00000000000E+00 -0.00000000000E+00 -0.41474325854E+02  0.41474325854E+02  0.00000000000E+00 0.  1.
         21    1    1    2  503  504 -0.26020464920E+02 -0.42118240962E+02 -0.86621689420E+01  0.50259765093E+02  0.00000000000E+00 0.  1.
         21    1    1    2  504  501  0.26020464920E+02  0.42118240962E+02  0.38992584833E+02  0.63019302506E+02  0.00000000000E+00 0.  1.
<mgrwt>
<rscale>  2 0.49507684E+02</rscale>
<asrwt>0</asrwt>
<pdfrwt beam="1">  1       21 0.11046883E-01 0.49507684E+02</pdfrwt>
<pdfrwt beam="2">  1       21 0.63806655E-02 0.49507684E+02</pdfrwt>
<totfact> 0.10761990E+07</totfact>
</mgrwt>
</event>
<event>
 4    1  0.4447136E+006  0.2170317E+02  0.7546771E-02  0.1713437E+00
         21   -1    0    0  504  501  0.00000000000E+00  0.00000000000E+00  0.67693320363E+03  0.67693320363E+03  0.00000000000E+00 0.  1.
         21   -1    0    0  501  502 -0.00000000000E+00 -0.00000000000E+00 -0.77703520147E+00  0.77703520147E+00  0.00000000000E+00 0. -1.
         21    1    1    2  503  502  0.29703402671E+01  0.21498944360E+02  0.22853194186E+03  0.22956017943E+03  0.00000000000E+00 0. -1.
         21    1    1    2  504  503 -0.29703402671E+01 -0.21498944360E+02  0.44762422657E+03  0.44815005940E+03  0.00000000000E+00 0.  1.
<mgrwt>
<rscale>  2 0.21703169E+02</rscale>
<asrwt>0</asrwt>
<pdfrwt beam="1">  1       21 0.10414310E+00 0.21703169E+02</pdfrwt>
<pdfrwt beam="2">  1       21 0.11954442E-03 0.21703169E+02</pdfrwt>
<totfact> 0.55630388E+07</totfact>
</mgrwt>
</event>
<event>
 4    1  0.4447136E+006  0.2644736E+02  0.7546771E-02  0.1641043E+00
         21   -1    0    0  503  501  0.00000000000E+00  0.00000000000E+00  0.98139655768E+03  0.98139655768E+03  0.00000000000E+00 0.  1.
         21   -1    0    0  504  502 -0.00000000000E+00 -0.00000000000E+00 -0.18031979031E+01  0.18031979031E+01  0.00000000000E+00 0.  1.
         21    1    1    2  503  502  0.21300532214E+01  0.26361447331E+02  0.87209120873E+03  0.87249214288E+03  0.00000000000E+00 0.  1.
         21    1    1    2  504  501 -0.21300532214E+01 -0.26361447331E+02  0.10750215104E+03  0.11070761271E+03  0.00000000000E+00 0.  1.
<mgrwt>
<rscale>  2 0.26447363E+02</rscale>
<asrwt>0</asrwt>
<pdfrwt beam="1">  1       21 0.15098366E+00 0.26447363E+02</pdfrwt>
<pdfrwt beam="2">  1       21 0.27741585E-03 0.26447363E+02</pdfrwt>
<totfact> 0.72968728E+06</totfact>
</mgrwt>
</event>
<event>
 4    1  0.4447136E+006  0.3433619E+02  0.7546771E-02  0.1554576E+00
         21   -1    0    0  504  501  0.00000000000E+00  0.00000000000E+00  0.10415687883E+02  0.10415687883E+02  0.00000000000E+00 0.  1.
         21   -1    0    0  503  502 -0.00000000000E+00 -0.00000000000E+00 -0.12545134888E+03  0.12545134888E+03  0.00000000000E+00 0. -1.
         21    1    1    2  503  501  0.14625822296E+02  0.31065406867E+02 -0.78754057330E+02  0.85913769138E+02  0.00000000000E+00 0. -1.
         21    1    1    2  504  502 -0.14625822296E+02 -0.31065406867E+02 -0.36281603663E+02  0.49953267620E+02  0.00000000000E+00 0.  1.
<mgrwt>
<rscale>  2 0.34336193E+02</rscale>
<asrwt>0</asrwt>
<pdfrwt beam="1">  1       21 0.16024135E-02 0.34336193E+02</pdfrwt>
<pdfrwt beam="2">  1       21 0.19300207E-01 0.34336193E+02</pdfrwt>
<totfact> 0.34952573E+07</totfact>
</mgrwt>
</event>
<event>
 4    1  0.4447136E+006  0.2128659E+02  0.7546771E-02  0.1720890E+00
         21   -1    0    0  503  501  0.00000000000E+00  0.00000000000E+00  0.23707728042E+02  0.23707728042E+02  0.00000000000E+00 0. -1.
         21   -1    0    0  504  502 -0.00000000000E+00 -0.00000000000E+00 -0.22087417238E+02  0.22087417238E+02  0.00000000000E+00 0. -1.
         21    1    1    2  503  502 -0.32910326184E+01 -0.21030645874E+02 -0.75929342742E+01  0.22600256911E+02  0.00000000000E+00 0. -1.
         21    1    1    2  504  501  0.32910326184E+01  0.21030645874E+02  0.92132450785E+01  0.23194888369E+02  0.00000000000E+00 0. -1.
<mgrwt>
<rscale>  2 0.21286591E+02</rscale>
<asrwt>0</asrwt>
<pdfrwt beam="1">  1       21 0.36473428E-02 0.21286591E+02</pdfrwt>
<pdfrwt beam="2">  1       21 0.33980642E-02 0.21286591E+02</pdfrwt>
<totfact> 0.15168637E+08</totfact>
</mgrwt>
</event>
<event>
 4    1  0.4447136E+006  0.2591409E+02  0.7546771E-02  0.1648209E+00
         21   -1    0    0  504  501  0.00000000000E+00  0.00000000000E+00  0.36212536760E+03  0.36212536760E+03  0.00000000000E+00 0.  1.
         21   -1    0    0  501  502 -0.00000000000E+00 -0.00000000000E+00 -0.18752942348E+01  0.18752942348E+01  0.00000000000E+00 0.  1.
         21    1    1    2  503  502 -0.67875274265E+01 -0.25009386336E+02  0.19931745948E+03  0.20099499891E+03  0.00000000000E+00 0.  1.
         21    1    1    2  504  503  0.67875274265E+01  0.25009386336E+02  0.16093261389E+03  0.16300566293E+03  0.00000000000E+00 0.  1.
<mgrwt>
<rscale>  2 0.25914088E+02</rscale>
<asrwt>0</asrwt>
<pdfrwt beam="1">  1       21 0.55711540E-01 0.25914088E+02</pdfrwt>
<pdfrwt beam="2">  1       21 0.28850709E-03 0.25914088E+02</pdfrwt>
<totfact> 0.59868364E+07</totfact>
</mgrwt>
</event>
<event>
 4    1  0.4447136E+006  0.2814503E+02  0.7546771E-02  0.1619547E+00
         21   -1    0    0  503  501  0.00000000000E+00  0.00000000000E+00  0.31626880523E+03  0.31626880523E+03  0.00000000000E+00 0. -1.
         21   -1    0    0  504  502 -0.00000000000E+00 -0.00000000000E+00 -0.48320120090E+01  0.48320120090E+01  0.00000000000E+00 0. -1.
         21    1    1    2  503  502  0.27631498554E+02  0.53519417085E+01  0.44294257841E+02  0.52479751048E+02  0.00000000000E+00 0. -1.
         21    1    1    2  504  501 -0.27631498554E+02 -0.53519417085E+01  0.26714253538E+03  0.26862106619E+03  0.00000000000E+00 0. -1.
<mgrwt>
<rscale>  2 0.28145035E+02</rscale>
<asrwt>0</asrwt>
<pdfrwt beam="1">  1       21 0.48656723E-01 0.28145035E+02</pdfrwt>
<pdfrwt beam="2">  1       21 0.74338671E-03 0.28145035E+02</pdfrwt>
<totfact> 0.19576529E+07</totfact>
</mgrwt>
</event>
<event>
 4    1  0.4447136E+006  0.2092082E+02  0.7546771E-02  0.1727613E+00
         21   -1    0    0  502  501  0.00000000000E+00  0.00000000000E+00  0.53965440935E+03  0.53965440935E+03  0.00000000000E+00 0.  1.
         21   -1    0    0  504  502 -0.00000000000E+00 -0.00000000000E+00 -0.81303984145E+00  0.81303984145E+00  0.00000000000E+00 0.  1.
         21    1    1    2  503  501 -0.13340364300E+02  0.16115682442E+02  0.28282784139E+03  0.28360054374E+03  0.00000000000E+00 0.  1.
         21    1    1    2  504  503  0.13340364300E+02 -0.16115682442E+02  0.25601352811E+03  0.25686690545E+03  0.00000000000E+00 0.  1.
<mgrwt>
<rscale>  2 0.20920816E+02</rscale>
<asrwt>0</asrwt>
<pdfrwt beam="1">  1       21 0.83023469E-01 0.20920816E+02</pdfrwt>
<pdfrwt beam="2">  1       21 0.12508348E-03 0.20920816E+02</pdfrwt>
<totfact> 0.84131330E+07</totfact>
</mgrwt>
</event>
<event>
 4    1  0.4447136E+006  0.2310060E+02  0.7546771E-02  0.1689885E+00
         21   -1    0    0  504  501  0.00000000000E+00  0.00000000000E+00  0.11944298885E+03  0.11944298885E+03  0.00000000000E+00 0. -1.
         21   -1    0    0  503  502 -0.00000000000E+00 -0.00000000000E+00 -0.45886400982E+01  0.45886400982E+01  0.00000000000E+00 0. -1.
         21    1    1    2  503  501 -0.74960768368E+01 -0.21850546834E+02  0.47359858685E+02  0.52693394078E+02  0.00000000000E+00 0. -1.
         21    1    1    2  504  502  0.74960768368E+01  0.21850546834E+02  0.67494490065E+02  0.71338234868E+02  0.00000000000E+00 0. -1.
<mgrwt>
<rscale>  2 0.23100597E+02</rscale>
<asrwt>0</asrwt>
<pdfrwt beam="1">  1       21 0.18375842E-01 0.23100597E+02</pdfrwt>
<pdfrwt beam="2">  1       21 0.70594472E-03 0.23100597E+02</pdfrwt>
<totfact> 0.12024802E+08</totfact>
</mgrwt>
</event>
<event>
 4    1  0.4447136E+006  0.2590548E+02  0.7546771E-02  0.1648327E+00
         21   -1    0    0  504  501  0.00000000000E+00  0.00000000000E+00  0.11278691731E+03  0.11278691731E+03  0.00000000000E+00 0. -1.
         21   -1    0    0  503  502 -0.00000000000E+00 -0.00000000000E+00 -0.76134077654E+01  0.76134077654E+01  0.00000000000E+00 0. -1.
         21    1    1    2  503  501 -0.19667757491E+02  0.16860397021E+02  0.24448694658E+02  0.35620672971E+02  0.00000000000E+00 0. -1.
         21    1    1    2  504  502  0.19667757491E+02 -0.16860397021E+02  0.80724814886E+02  0.84779652104E+02  0.00000000000E+00 0. -1.
<mgrwt>
<rscale>  2 0.25905476E+02</rscale>
<asrwt>0</asrwt>
<pdfrwt beam="1">  1       21 0.17351832E-01 0.25905476E+02</pdfrwt>
<pdfrwt beam="2">  1       21 0.11712936E-02 0.25905476E+02</pdfrwt>
<totfact> 0.63988287E+07</totfact>
</mgrwt>
</event>
<event>
 4    1  0.4447136E+006  0.2111585E+02  0.7546771E-02  0.1724007E+00
         21   -1    0    0  503  501  0.00000000000E+00  0.00000000000E+00  0.41341733716E+02  0.41341733716E+02  0.00000000000E+00 0. -1.
         21   -1    0    0  501  502 -0.00000000000E+00 -0.00000000000E+00 -0.13718697408E+02  0.13718697408E+02  0.00000000000E+00 0.  1.
         21    1    1    2  503  504  0.16679318836E+02  0.12949117852E+02  0.26542010436E+02  0.33916922737E+02  0.00000000000E+00 0. -1.
         21    1    1    2  504  502 -0.16679318836E+02 -0.12949117852E+02  0.10810258731E+01  0.21143508387E+02  0.00000000000E+00 0.  1.
<mgrwt>
<rscale>  2 0.21115855E+02</rscale>
<asrwt>0</asrwt>
<pdfrwt beam="1">  1       21 0.63602667E-02 0.21115855E+02</pdfrwt>
<pdfrwt beam="2">  1       21 0.21105688E-02 0.21115855E+02</pdfrwt>
<totfact> 0.13091519E+08</totfact>
</mgrwt>
</event>
<event>
 4    1  0.4447136E+006  0.2238640E+02  0.7546771E-02  0.1701654E+00
         21   -1    0    0  502  501  0.00000000000E+00  0.00000000000E+00  0.78380894103E+03  0.78380894103E+03  0.00000000000E+00 0.  1.
         21   -1    0    0  503  502 -0.00000000000E+00 -0.00000000000E+00 -0.42046969625E+01  0.42046969625E+01  0.00000000000E+00 0.  1.
         21    1    1    2  503  504  0.22103275434E+02  0.35491286380E+01  0.26986890025E+02  0.35063418718E+02  0.00000000000E+00 0.  1.
         21    1    1    2  504  501 -0.22103275434E+02 -0.35491286380E+01  0.75261735404E+03  0.75295021927E+03  0.00000000000E+00 0.  1.
<mgrwt>
<rscale>  2 0.22386404E+02</rscale>
<asrwt>0</asrwt>
<pdfrwt beam="1">  1       21 0.12058587E+00 0.22386404E+02</pdfrwt>
<pdfrwt beam="2">  1       21 0.64687708E-03 0.22386404E+02</pdfrwt>
<totfact> 0.34690894E+06</totfact>
</mgrwt>
</event>
<event>
 4    1  0.4447136E+006  0.3145208E+02  0.7546771E-02  0.1582571E+00
         21   -1    0    0  502  501  0.00000000000E+00  0.00000000000E+00  0.16394394819E+03  0.16394394819E+03  0.00000000000E+00 0.  1.
         21   -1    0    0  504  502 -0.00000000000E+00 -0.00000000000E+00 -0.32127541681E+02  0.32127541681E+02  0.00000000000E+00 0. -1.
         21    1    1    2  503  501  0.21890159039E+02 -0.22584377913E+02  0.15425940346E+03  0.15743315009E+03  0.00000000000E+00 0.  1.
         21    1    1    2  504  503 -0.21890159039E+02  0.22584377913E+02 -0.22442996960E+02  0.38638339781E+02  0.00000000000E+00 0. -1.
<mgrwt>
<rscale>  2 0.31452078E+02</rscale>
<asrwt>0</asrwt>
<pdfrwt beam="1">  1       21 0.25222145E-01 0.31452078E+02</pdfrwt>
<pdfrwt beam="2">  1       21 0.49426988E-02 0.31452078E+02</pdfrwt>
<totfact> 0.36266920E+06</totfact>
</mgrwt>
</event>
<event>
 4    1  0.4447136E+006  0.2020466E+02  0.7546771E-02  0.1741289E+00
         21   -1    0    0  502  501  0.00000000000E+00  0.00000000000E+00  0.66321705387E+02  0.66321705387E+02  0.00000000000E+00 0. -1.
         21   -1    0    0  504  502 -0.00000000000E+00 -0.00000000000E+00 -0.10365832217E+02  0.10365832217E+02  0.00000000000E+00 0. -1.
         21    1    1    2  503  501  0.20136692961E+02  0.16558156768E+01  0.52415767571E+02  0.56175090734E+02  0.00000000000E+00 0. -1.
         21    1    1    2  504  503 -0.20136692961E+02 -0.16558156768E+01  0.35401055991E+01  0.20512446870E+02  0.00000000000E+00 0. -1.
<mgrwt>
<rscale>  2 0.20204656E+02</rscale>
<asrwt>0</asrwt>
<pdfrwt beam="1">  1       21 0.10203339E-01 0.20204656E+02</pdfrwt>
<pdfrwt beam="2">  1       21 0.15947435E-02 0.20204656E+02</pdfrwt>
<totfact> 0.91853078E+07</totfact>
</mgrwt>
</event>
<event>
 4    1  0.4447136E+006  0.2250912E+02  0.7546771E-02  0.1699593E+00
         21   -1    0    0  503  501  0.00000000000E+00  0.00000000000E+00  0.73593037876E+01  0.73593037876E+01  0.00000000000E+00 0.  1.
         21   -1    0    0  501  502 -0.00000000000E+00 -0.00000000000E+00 -0.17995330046E+03  0.17995330046E+03  0.00000000000E+00 0.  1.
         21    1    1    2  503  504 -0.19053336700E+02 -0.11984615008E+02 -0.12705463134E+02  0.25847425979E+02  0.00000000000E+00 0.  1.
         21    1    1    2  504  502  0.19053336700E+02  0.11984615008E+02 -0.15988853354E+03  0.16146517827E+03  0.00000000000E+00 0.  1.
<mgrwt>
<rscale>  2 0.22509123E+02</rscale>
<asrwt>0</asrwt>
<pdfrwt beam="1">  1       21 0.11322007E-02 0.22509123E+02</pdfrwt>
<pdfrwt beam="2">  1       21 0.27685119E-01 0.22509123E+02</pdfrwt>
<totfact> 0.28573322E+07</totfact>
</mgrwt>
</event>
<event>
 4    1  0.4447136E+006  0.2199139E+02  0.7546771E-02  0.1708401E+00
         21   -1    0    0  503  501  0.00000000000E+00  0.00000000000E+00  0.53450031423E+01  0.53450031423E+01  0.00000000000E+00 0.  1.
         21   -1    0    0  504  502 -0.00000000000E+00 -0.00000000000E+00 -0.47676247997E+03  0.47676247997E+03  0.00000000000E+00 0. -1.
         21    1    1    2  503  502 -0.17719376663E+02  0.13024783664E+02 -0.45268627678E+03  0.45322013027E+03  0.00000000000E+00 0. -1.
         21    1    1    2  504  501  0.17719376663E+02 -0.13024783664E+02 -0.18731200044E+02  0.28887352837E+02  0.00000000000E+00 0.  1.
<mgrwt>
<rscale>  2 0.21991391E+02</rscale>
<asrwt>0</asrwt>
<pdfrwt beam="1">  1       21 0.82230785E-03 0.21991391E+02</pdfrwt>
<pdfrwt beam="2">  1       21 0.73348103E-01 0.21991391E+02</pdfrwt>
<totfact> 0.70830005E+06</totfact>
</mgrwt>
</event>
<event>
 4    1  0.4447136E+006  0.4003592E+02  0.7546771E-02  0.1507947E+00
         21   -1    0    0  503  501  0.00000000000E+00  0.00000000000E+00  0.11969225806E+02  0.11969225806E+02  0.00000000000E+00 0.  1.
         21   -1    0    0  504  502 -0.00000000000E+00 -0.00000000000E+00 -0.13555689966E+03  0.13555689966E+03  0.00000000000E+00 0.  1.
         21    1    1    2  503  502  0.40034140748E+02 -0.37734344680E+00 -0.53679085206E+02  0.66965058068E+02  0.00000000000E+00 0.  1.
         21    1    1    2  504  501 -0.40034140748E+02  0.37734344680E+00 -0.69908588650E+02  0.80561067400E+02  0.00000000000E+00 0.  1.
<mgrwt>
<rscale>  2 0.40035919E+02</rscale>
<asrwt>0</asrwt>
<pdfrwt beam="1">  1       21 0.18414194E-02 0.40035919E+02</pdfrwt>
<pdfrwt beam="2">  1       21 0.20854907E-01 0.40035919E+02</pdfrwt>
<totfact> 0.25213898E+07</totfact>
</mgrwt>
</event>
<event>
 4    1  0.4447136E+006  0.2245376E+02  0.7546771E-02  0.1700521E+00
         21   -1    0    0  503  501  0.00000000000E+00  0.00000000000E+00  0.26923952063E+02  0.26923952063E+02  0.00000000000E+00 0. -1.
         21   -1    0    0  504  502 -0.00000000000E+00 -0.00000000000E+00 -0.25389775749E+02  0.25389775749E+02  0.00000000000E+00 0. -1.
         21    1    1    2  503  502 -0.10322590427E+02 -0.19940295914E+02 -0.12633519064E+02  0.25763871568E+02  0.00000000000E+00 0. -1.
         21    1    1    2  504  501  0.10322590427E+02  0.19940295914E+02  0.14167695377E+02  0.26549856244E+02  0.00000000000E+00 0. -1.
<mgrwt>
<rscale>  2 0.22453759E+02</rscale>
<asrwt>0</asrwt>
<pdfrwt beam="1">  1       21 0.41421465E-02 0.22453759E+02</pdfrwt>
<pdfrwt beam="2">  1       21 0.39061193E-02 0.22453759E+02</pdfrwt>
<totfact> 0.10147078E+08</totfact>
</mgrwt>
</event>
<event>
 4    1  0.4447136E+006  0.2406658E+02  0.7546771E-02  0.1674783E+00
         21   -1    0    0  503  501  0.00000000000E+00  0.00000000000E+00  0.54660293451E+03  0.54660293451E+03  0.00000000000E+00 0.  1.
         21   -1    0    0  501  502 -0.00000000000E+00 -0.00000000000E+00 -0.81880910465E+02  0.81880910465E+02  0.00000000000E+00 0.  1.
         21    1    1    2  503  504  0.20745508209E+02  0.12199350021E+02  0.54456298139E+03  0.54509452479E+03  0.00000000000E+00 0.  1.
         21    1    1    2  504  502 -0.20745508209E+02 -0.12199350021E+02 -0.79840957345E+02  0.83389320188E+02  0.00000000000E+00 0.  1.
<mgrwt>
<rscale>  2 0.24066580E+02</rscale>
<asrwt>0</asrwt>
<pdfrwt beam="1">  1       21 0.84092757E-01 0.24066580E+02</pdfrwt>
<pdfrwt beam="2">  1       21 0.12597063E-01 0.24066580E+02</pdfrwt>
<totfact> 0.73841899E+04</totfact>
</mgrwt>
</event>
<event>
 4    1  0.4447136E+006  0.2065952E+02  0.7546771E-02  0.1732522E+00
         21   -1    0    0  503  501  0.00000000000E+00  0.00000000000E+00  0.10842046932E+02  0.10842046932E+02  0.00000000000E+00 0. -1.
         21   -1    0    0  504  502 -0.00000000000E+00 -0.00000000000E+00 -0.42475105204E+02  0.42475105204E+02  0.00000000000E+00 0. -1.
         21    1    1    2  503  502 -0.10198817728E+02  0.17966632076E+02 -0.23028228501E+02  0.30937276206E+02  0.00000000000E+00 0. -1.
         21    1    1    2  504  501  0.10198817728E+02 -0.17966632076E+02 -0.86048297713E+01  0.22379875929E+02  0.00000000000E+00 0. -1.
<mgrwt>
<rscale>  2 0.20659520E+02</rscale>
<asrwt>0</asrwt>
<pdfrwt beam="1">  1       21 0.16680072E-02 0.20659520E+02</pdfrwt>
<pdfrwt beam="2">  1       21 0.65346317E-02 0.20659520E+02</pdfrwt>
<totfact> 0.17827769E+08</totfact>
</mgrwt>
</event>
<event>
 4    1  0.4447136E+006  0.2401765E+02  0.7546771E-02  0.1675526E+00
         21   -1    0    0  503  501  0.00000000000E+00  0.00000000000E+00  0.53095436434E+02  0.53095436434E+02  0.00000000000E+00 0. -1.
         21   -1    0    0  504  502 -0.00000000000E+00 -0.00000000000E+00 -0.38633511757E+02  0.38633511757E+02  0.00000000000E+00 0. -1.
         21    1    1    2  503  502 -0.20408991989E+02  0.12661782848E+02  0.46115386008E+02  0.51994966348E+02  0.00000000000E+00 0. -1.
         21    1    1    2  504  501  0.20408991989E+02 -0.12661782848E+02 -0.31653461330E+02  0.39733981843E+02  0.00000000000E+00 0. -1.
<mgrwt>
<rscale>  2 0.24017654E+02</rscale>
<asrwt>0</asrwt>
<pdfrwt beam="1">  1       21 0.81685287E-02 0.24017654E+02</pdfrwt>
<pdfrwt beam="2">  1       21 0.59436172E-02 0.24017654E+02</pdfrwt>
<totfact> 0.17804386E+07</totfact>
</mgrwt>
</event>
<event>
 4    1  0.4447136E+006  0.2356384E+02  0.7546771E-02  0.1682530E+00
         21   -1    0    0  504  501  0.00000000000E+00  0.00000000000E+00  0.33582776372E+03  0.33582776372E+03  0.00000000000E+00 0.  1.
         21   -1    0    0  501  502 -0.00000000000E+00 -0.00000000000E+00 -0.27655877874E+01  0.27655877874E+01  0.00000000000E+00 0.  1.
         21    1    1    2  503  502 -0.16699250410E+02 -0.16624967455E+02  0.59170327388E+02  0.63689733477E+02  0.00000000000E+00 0.  1.
         21    1    1    2  504  503  0.16699250410E+02  0.16624967455E+02  0.27389184855E+03  0.27490361803E+03  0.00000000000E+00 0.  1.
<mgrwt>
<rscale>  2 0.23563839E+02</rscale>
<asrwt>0</asrwt>
<pdfrwt beam="1">  1       21 0.51665777E-01 0.23563839E+02</pdfrwt>
<pdfrwt beam="2">  1       21 0.42547531E-03 0.23563839E+02</pdfrwt>
<totfact> 0.38480016E+07</totfact>
</mgrwt>
</event>
<event>
 4    1  0.4447136E+006  0.2318806E+02  0.7546771E-02  0.1688480E+00
         21   -1    0    0  504  501  0.00000000000E+00  0.00000000000E+00  0.37764556421E+02  0.37764556421E+02  0.00000000000E+00 0.  1.
         21   -1    0    0  503  502 -0.00000000000E+00 -0.00000000000E+00 -0.26873986335E+02  0.26873986335E+02  0.00000000000E+00 0.  1.
         21    1    1    2  503  501 -0.10811142633E+02 -0.20513539622E+02  0.27606963845E+02  0.36053163046E+02  0.00000000000E+00 0.  1.
         21    1    1    2  504  502  0.10811142633E+02  0.20513539622E+02 -0.16716393759E+02  0.28585379710E+02  0.00000000000E+00 0.  1.
<mgrwt>
<rscale>  2 0.23188060E+02</rscale>
<asrwt>0</asrwt>
<pdfrwt beam="1">  1       21 0.58099318E-02 0.23188060E+02</pdfrwt>
<pdfrwt beam="2">  1       21 0.41344594E-02 0.23188060E+02</pdfrwt>
<totfact> 0.54661289E+07</totfact>
</mgrwt>
</event>
<event>
 4    1  0.4447136E+006  0.2205330E+02  0.7546771E-02  0.1707332E+00
         21   -1    0    0  502  501  0.00000000000E+00  0.00000000000E+00  0.24206805143E+02  0.24206805143E+02  0.00000000000E+00 0. -1.
         21   -1    0    0  504  502 -0.00000000000E+00 -0.00000000000E+00 -0.61398479836E+02  0.61398479836E+02  0.00000000000E+00 0. -1.
         21    1    1    2  503  501  0.14950409924E+02  0.16212132135E+02  0.16512006174E+02  0.27549851781E+02  0.00000000000E+00 0. -1.
         21    1    1    2  504  503 -0.14950409924E+02 -0.16212132135E+02 -0.53703680867E+02  0.58055433199E+02  0.00000000000E+00 0. -1.
<mgrwt>
<rscale>  2 0.22053299E+02</rscale>
<asrwt>0</asrwt>
<pdfrwt beam="1">  1       21 0.37241238E-02 0.22053299E+02</pdfrwt>
<pdfrwt beam="2">  1       21 0.94459200E-02 0.22053299E+02</pdfrwt>
<totfact> 0.28896653E+07</totfact>
</mgrwt>
</event>
<event>
 4    1  0.4447136E+006  0.2644014E+02  0.7546771E-02  0.1641139E+00
         21   -1    0    0  503  501  0.00000000000E+00  0.00000000000E+00  0.94263749202E+01  0.94263749202E+01  0.00000000000E+00 0. -1.
         21   -1    0    0  504  502 -0.00000000000E+00 -0.00000000000E+00 -0.15219393042E+03  0.15219393042E+03  0.00000000000E+00 0. -1.
         21    1    1    2  503  502  0.22800332360E+02  0.13387521458E+02 -0.13520527439E+02  0.29696557861E+02  0.00000000000E+00 0. -1.
         21    1    1    2  504  501 -0.22800332360E+02 -0.13387521458E+02 -0.12924702806E+03  0.13192374748E+03  0.00000000000E+00 0. -1.
<mgrwt>
<rscale>  2 0.26440138E+02</rscale>
<asrwt>0</asrwt>
<pdfrwt beam="1">  1       21 0.14502116E-02 0.26440138E+02</pdfrwt>
<pdfrwt beam="2">  1       21 0.23414450E-01 0.26440138E+02</pdfrwt>
<totfact> 0.27449096E+07</totfact>
</mgrwt>
</event>
<event>
 4    1  0.4447136E+006  0.2304226E+02  0.7546771E-02  0.1690826E+00
         21   -1    0    0  504  501  0.00000000000E+00  0.00000000000E+00  0.59728952291E+02  0.59728952291E+02  0.00000000000E+00 0. -1.
         21   -1    0    0  503  502 -0.00000000000E+00 -0.00000000000E+00 -0.18766286013E+02  0.18766286013E+02  0.00000000000E+00 0.  1.
         21    1    1    2  503  501  0.22970198783E+02 -0.18209424979E+01 -0.79919383238E+01  0.24388869221E+02  0.00000000000E+00 0.  1.
         21    1    1    2  504  502 -0.22970198783E+02  0.18209424979E+01  0.48954604601E+02  0.54106369083E+02  0.00000000000E+00 0. -1.
<mgrwt>
<rscale>  2 0.23042263E+02</rscale>
<asrwt>0</asrwt>
<pdfrwt beam="1">  1       21 0.91890695E-02 0.23042263E+02</pdfrwt>
<pdfrwt beam="2">  1       21 0.28871209E-02 0.23042263E+02</pdfrwt>
<totfact> 0.45491392E+07</totfact>
</mgrwt>
</event>
<event>
 4    1  0.4447136E+006  0.2386959E+02  0.7546771E-02  0.1677790E+00
         21   -1    0    0  503  501  0.00000000000E+00  0.00000000000E+00  0.46489478542E+02  0.46489478542E+02  0.00000000000E+00 0. -1.
         21   -1    0    0  504  502 -0.00000000000E+00 -0.00000000000E+00 -0.32604688676E+03  0.32604688676E+03  0.00000000000E+00 0. -1.
         21    1    1    2  503  502 -0.21024788872E+02 -0.11301128568E+02 -0.32251258447E+03  0.32339468827E+03  0.00000000000E+00 0. -1.
         21    1    1    2  504  501  0.21024788872E+02  0.11301128568E+02  0.42955176260E+02  0.49141677033E+02  0.00000000000E+00 0. -1.
<mgrwt>
<rscale>  2 0.23869588E+02</rscale>
<asrwt>0</asrwt>
<pdfrwt beam="1">  1       21 0.71522277E-02 0.23869588E+02</pdfrwt>
<pdfrwt beam="2">  1       21 0.50161058E-01 0.23869588E+02</pdfrwt>
<totfact> 0.53698235E+05</totfact>
</mgrwt>
</event>
<event>
 4    1  0.4447136E+006  0.2343758E+02  0.7546771E-02  0.1684514E+00
         21   -1    0    0  504  501  0.00000000000E+00  0.00000000000E+00  0.54767315858E+02  0.54767315858E+02  0.00000000000E+00 0.  1.
         21   -1    0    0  503  502 -0.00000000000E+00 -0.00000000000E+00 -0.67394166296E+03  0.67394166296E+03  0.00000000000E+00 0.  1.
         21    1    1    2  503  501  0.15926869197E+02 -0.17194619016E+02  0.52045863045E+02  0.57079698191E+02  0.00000000000E+00 0.  1.
         21    1    1    2  504  502 -0.15926869197E+02  0.17194619016E+02 -0.67122021015E+03  0.67162928063E+03  0.00000000000E+00 0.  1.
<mgrwt>
<rscale>  2 0.23437578E+02</rscale>
<asrwt>0</asrwt>
<pdfrwt beam="1">  1       21 0.84257417E-02 0.23437578E+02</pdfrwt>
<pdfrwt beam="2">  1       21 0.10368332E+00 0.23437578E+02</pdfrwt>
<totfact> 0.91578839E+04</totfact>
</mgrwt>
</event>
<event>
 4    1  0.4447136E+006  0.2159188E+02  0.7546771E-02  0.1715407E+00
         21   -1    0    0  503  501  0.00000000000E+00  0.00000000000E+00  0.10707423116E+02  0.10707423116E+02  0.00000000000E+00 0. -1.
         21   -1    0    0  504  502 -0.00000000000E+00 -0.00000000000E+00 -0.37042341624E+03  0.37042341624E+03  0.00000000000E+00 0. -1.
         21    1    1    2  503  502  0.21472961655E+02  0.22629800285E+01 -0.35887357642E+03  0.35952253478E+03  0.00000000000E+00 0. -1.
         21    1    1    2  504  501 -0.21472961655E+02 -0.22629800285E+01 -0.84241670540E+00  0.21608304579E+02  0.00000000000E+00 0. -1.
<mgrwt>
<rscale>  2 0.21591877E+02</rscale>
<asrwt>0</asrwt>
<pdfrwt beam="1">  1       21 0.16472958E-02 0.21591877E+02</pdfrwt>
<pdfrwt beam="2">  1       21 0.56988221E-01 0.21591877E+02</pdfrwt>
<totfact> 0.41295911E+06</totfact>
</mgrwt>
</event>
<event>
 4    1  0.4447136E+006  0.2437604E+02  0.7546771E-02  0.1670129E+00
         21   -1    0    0  503  501  0.00000000000E+00  0.00000000000E+00  0.19977455185E+02  0.19977455185E+02  0.00000000000E+00 0. -1.
         21   -1    0    0  504  502 -0.00000000000E+00 -0.00000000000E+00 -0.34223036108E+03  0.34223036108E+03  0.00000000000E+00 0.  1.
         21    1    1    2  503  502 -0.20859564776E+02 -0.12612287578E+02  0.11928773698E+02  0.27138291814E+02  0.00000000000E+00 0. -1.
         21    1    1    2  504  501  0.20859564776E+02  0.12612287578E+02 -0.33418167959E+03  0.33506952445E+03  0.00000000000E+00 0.  1.
<mgrwt>
<rscale>  2 0.24376038E+02</rscale>
<asrwt>0</asrwt>
<pdfrwt beam="1">  1       21 0.30734547E-02 0.24376038E+02</pdfrwt>
<pdfrwt beam="2">  1       21 0.52650824E-01 0.24376038E+02</pdfrwt>
<totfact> 0.18762806E+06</totfact>
</mgrwt>
</event>
<event>
 4    1  0.4447136E+006  0.4311620E+02  0.7546771E-02  0.1486457E+00
         21   -1    0    0  504  501  0.00000000000E+00  0.00000000000E+00  0.12315744303E+03  0.12315744303E+03  0.00000000000E+00 0. -1.
         21   -1    0    0  503  502 -0.00000000000E+00 -0.00000000000E+00 -0.35511108096E+02  0.35511108096E+02  0.00000000000E+00 0. -1.
         21    1    1    2  503  501  0.22820411821E+02  0.36581898207E+02 -0.16331591025E+02  0.46105610694E+02  0.00000000000E+00 0. -1.
         21    1    1    2  504  502 -0.22820411821E+02 -0.36581898207E+02  0.10397792595E+03  0.11256294043E+03  0.00000000000E+00 0. -1.
<mgrwt>
<rscale>  2 0.43116197E+02</rscale>
<asrwt>0</asrwt>
<pdfrwt beam="1">  1       21 0.18947299E-01 0.43116197E+02</pdfrwt>
<pdfrwt beam="2">  1       21 0.54632475E-02 0.43116197E+02</pdfrwt>
<totfact> 0.53369793E+06</totfact>
</mgrwt>
</event>
<event>
 4    1  0.4447136E+006  0.2515657E+02  0.7546771E-02  0.1658763E+00
         21   -1    0    0  503  501  0.00000000000E+00  0.00000000000E+00  0.66378865449E+03  0.66378865449E+03  0.00000000000E+00 0. -1.
         21   -1    0    0  504  502 -0.00000000000E+00 -0.00000000000E+00 -0.33677819140E+01  0.33677819140E+01  0.00000000000E+00 0.  1.
         21    1    1    2  503  502 -0.22506648428E+02 -0.11238492405E+02  0.47768540238E+02  0.53987835402E+02  0.00000000000E+00 0.  1.
         21    1    1    2  504  501  0.22506648428E+02  0.11238492405E+02  0.61265233234E+03  0.61316860100E+03  0.00000000000E+00 0. -1.
<mgrwt>
<rscale>  2 0.25156568E+02</rscale>
<asrwt>0</asrwt>
<pdfrwt beam="1">  1       21 0.10212123E+00 0.25156568E+02</pdfrwt>
<pdfrwt beam="2">  1       21 0.51812082E-03 0.25156568E+02</pdfrwt>
<totfact> 0.70974479E+06</totfact>
</mgrwt>
</event>
<event>
 4    1  0.4447136E+006  0.2203741E+02  0.7546771E-02  0.1707606E+00
         21   -1    0    0  503  501  0.00000000000E+00  0.00000000000E+00  0.69575761443E+03  0.69575761443E+03  0.00000000000E+00 0.  1.
         21   -1    0    0  504  502 -0.00000000000E+00 -0.00000000000E+00 -0.89293934541E+00  0.89293934541E+00  0.00000000000E+00 0.  1.
         21    1    1    2  503  502 -0.17918172072E+02  0.12829131186E+02  0.51017816456E+03  0.51065390147E+03  0.00000000000E+00 0.  1.
         21    1    1    2  504  501  0.17918172072E+02 -0.12829131186E+02  0.18468651053E+03  0.18599665230E+03  0.00000000000E+00 0.  1.
<mgrwt>
<rscale>  2 0.22037411E+02</rscale>
<asrwt>0</asrwt>
<pdfrwt beam="1">  1       21 0.10703920E+00 0.22037411E+02</pdfrwt>
<pdfrwt beam="2">  1       21 0.13737584E-03 0.22037411E+02</pdfrwt>
<totfact> 0.43078552E+07</totfact>
</mgrwt>
</event>
<event>
 4    1  0.4447136E+006  0.2578688E+02  0.7546771E-02  0.1649950E+00
         21   -1    0    0  504  501  0.00000000000E+00  0.00000000000E+00  0.44904814839E+02  0.44904814839E+02  0.00000000000E+00 0.  1.
         21   -1    0    0  501  502 -0.00000000000E+00 -0.00000000000E+00 -0.18059735427E+02  0.18059735427E+02  0.00000000000E+00 0.  1.
         21    1    1    2  503  502  0.24891823617E+02  0.67350062000E+01  0.64302776981E-01  0.25786960394E+02  0.00000000000E+00 0.  1.
         21    1    1    2  504  503 -0.24891823617E+02 -0.67350062000E+01  0.26780776635E+02  0.37177589872E+02  0.00000000000E+00 0.  1.
<mgrwt>
<rscale>  2 0.25786880E+02</rscale>
<asrwt>0</asrwt>
<pdfrwt beam="1">  1       21 0.69084330E-02 0.25786880E+02</pdfrwt>
<pdfrwt beam="2">  1       21 0.27784208E-02 0.25786880E+02</pdfrwt>
<totfact> 0.79248354E+07</totfact>
</mgrwt>
</event>
<event>
 4    1  0.4447136E+006  0.2756589E+02  0.7546771E-02  0.1626666E+00
         21   -1    0    0  503  501  0.00000000000E+00  0.00000000000E+00  0.67779167180E+01  0.67779167180E+01  0.00000000000E+00 0. -1.
         21   -1    0    0  504  502 -0.00000000000E+00 -0.00000000000E+00 -0.19647865056E+03  0.19647865056E+03  0.00000000000E+00 0. -1.
         21    1    1    2  503  502  0.25367599221E+02  0.10787164937E+02 -0.28254808286E+02  0.39474196748E+02  0.00000000000E+00 0. -1.
         21    1    1    2  504  501 -0.25367599221E+02 -0.10787164937E+02 -0.16144592556E+03  0.16378237053E+03  0.00000000000E+00 0. -1.
<mgrwt>
<rscale>  2 0.27565885E+02</rscale>
<asrwt>0</asrwt>
<pdfrwt beam="1">  1       21 0.10427565E-02 0.27565885E+02</pdfrwt>
<pdfrwt beam="2">  1       21 0.30227482E-01 0.27565885E+02</pdfrwt>
<totfact> 0.28803499E+07</totfact>
</mgrwt>
</event>
<event>
 4    1  0.4447136E+006  0.2670247E+02  0.7546771E-02  0.1637688E+00
         21   -1    0    0  503  501  0.00000000000E+00  0.00000000000E+00  0.10797078351E+03  0.10797078351E+03  0.00000000000E+00 0.  1.
         21   -1    0    0  504  502 -0.00000000000E+00 -0.00000000000E+00 -0.43690469033E+02  0.43690469033E+02  0.00000000000E+00 0.  1.
         21    1    1    2  503  502  0.26688023248E+02  0.87834021268E+00  0.10200520394E+03  0.10544232404E+03  0.00000000000E+00 0.  1.
         21    1    1    2  504  501 -0.26688023248E+02 -0.87834021268E+00 -0.37724889470E+02  0.46218928503E+02  0.00000000000E+00 0.  1.
<mgrwt>
<rscale>  2 0.26702473E+02</rscale>
<asrwt>0</asrwt>
<pdfrwt beam="1">  1       21 0.16610890E-01 0.26702473E+02</pdfrwt>
<pdfrwt beam="2">  1       21 0.67216107E-02 0.26702473E+02</pdfrwt>
<totfact> 0.45142258E+06</totfact>
</mgrwt>
</event>
<event>
 4    1  0.4447136E+006  0.2155141E+02  0.7546771E-02  0.1716128E+00
         21   -1    0    0  503  501  0.00000000000E+00  0.00000000000E+00  0.51485993855E+02  0.51485993855E+02  0.00000000000E+00 0. -1.
         21   -1    0    0  504  502 -0.00000000000E+00 -0.00000000000E+00 -0.18241881075E+02  0.18241881075E+02  0.00000000000E+00 0. -1.
         21    1    1    2  503  502 -0.13403240576E+02 -0.16876501108E+02  0.41409068356E+02  0.46681624755E+02  0.00000000000E+00 0. -1.
         21    1    1    2  504  501  0.13403240576E+02  0.16876501108E+02 -0.81649555761E+01  0.23046250176E+02  0.00000000000E+00 0. -1.
<mgrwt>
<rscale>  2 0.21551407E+02</rscale>
<asrwt>0</asrwt>
<pdfrwt beam="1">  1       21 0.79209221E-02 0.21551407E+02</pdfrwt>
<pdfrwt beam="2">  1       21 0.28064433E-02 0.21551407E+02</pdfrwt>
<totfact> 0.59550425E+07</totfact>
</mgrwt>
</event>
<event>
 4    1  0.4447136E+006  0.2436820E+02  0.7546771E-02  0.1670246E+00
         21   -1    0    0  504  501  0.00000000000E+00  0.00000000000E+00  0.58177485101E+02  0.58177485101E+02  0.00000000000E+00 0. -1.
         21   -1    0    0  503  502 -0.00000000000E+00 -0.00000000000E+00 -0.11874502482E+02  0.11874502482E+02  0.00000000000E+00 0. -1.
         21    1    1    2  503  501 -0.13642878363E+02  0.20191116686E+02  0.36277554910E+02  0.43702063032E+02  0.00000000000E+00 0. -1.
         21    1    1    2  504  502  0.13642878363E+02 -0.20191116686E+02  0.10025427710E+02  0.26349924551E+02  0.00000000000E+00 0. -1.
<mgrwt>
<rscale>  2 0.24368203E+02</rscale>
<asrwt>0</asrwt>
<pdfrwt beam="1">  1       21 0.89503822E-02 0.24368203E+02</pdfrwt>
<pdfrwt beam="2">  1       21 0.18268466E-02 0.24368203E+02</pdfrwt>
<totfact> 0.97746740E+07</totfact>
</mgrwt>
</event>
<event>
 4    1  0.4447136E+006  0.2203146E+02  0.7546771E-02  0.1707708E+00
         21   -1    0    0  502  501  0.00000000000E+00  0.00000000000E+00  0.98413060243E+02  0.98413060243E+02  0.00000000000E+00 0. -1.
         21   -1    0    0  503  502 -0.00000000000E+00 -0.00000000000E+00 -0.28038441557E+02  0.28038441557E+02  0.00000000000E+00 0. -1.
         21    1    1    2  503  504 -0.14614145557E+02  0.16486725016E+02 -0.22208797517E+02  0.31282839374E+02  0.00000000000E+00 0. -1.
         21    1    1    2  504  501  0.14614145557E+02 -0.16486725016E+02  0.92583416204E+02  0.95168662427E+02  0.00000000000E+00 0. -1.
<mgrwt>
<rscale>  2 0.22031463E+02</rscale>
<asrwt>0</asrwt>
<pdfrwt beam="1">  1       21 0.15140471E-01 0.22031463E+02</pdfrwt>
<pdfrwt beam="2">  1       21 0.43136064E-02 0.22031463E+02</pdfrwt>
<totfact> 0.10418942E+07</totfact>
</mgrwt>
</event>
<event>
 4    1  0.4447136E+006  0.2071147E+02  0.7546771E-02  0.1731539E+00
         21   -1    0    0  504  501  0.00000000000E+00  0.00000000000E+00  0.54412361948E+01  0.54412361948E+01  0.00000000000E+00 0.  1.
         21   -1    0    0  503  502 -0.00000000000E+00 -0.00000000000E+00 -0.80806674128E+02  0.80806674128E+02  0.00000000000E+00 0.  1.
         21    1    1    2  503  501 -0.14731360931E+02  0.14558574924E+02 -0.30948203014E+02  0.37239177871E+02  0.00000000000E+00 0.  1.
         21    1    1    2  504  502  0.14731360931E+02 -0.14558574924E+02 -0.44417234919E+02  0.49008732452E+02  0.00000000000E+00 0.  1.
<mgrwt>
<rscale>  2 0.20711473E+02</rscale>
<asrwt>0</asrwt>
<pdfrwt beam="1">  1       21 0.83711324E-03 0.20711473E+02</pdfrwt>
<pdfrwt beam="2">  1       21 0.12431796E-01 0.20711473E+02</pdfrwt>
<totfact> 0.17555042E+08</totfact>
</mgrwt>
</event>
<event>
 4    1  0.4447136E+006  0.2044563E+02  0.7546771E-02  0.1736609E+00
         21   -1    0    0  504  501  0.00000000000E+00  0.00000000000E+00  0.21326934914E+02  0.21326934914E+02  0.00000000000E+00 0.  1.
         21   -1    0    0  503  502 -0.00000000000E+00 -0.00000000000E+00 -0.20032159777E+02  0.20032159777E+02  0.00000000000E+00 0.  1.
         21    1    1    2  503  501  0.91701862076E+01 -0.18273788110E+02  0.36821770060E+01  0.20774553533E+02  0.00000000000E+00 0.  1.
         21    1    1    2  504  502 -0.91701862076E+01  0.18273788110E+02 -0.23874018691E+01  0.20584541157E+02  0.00000000000E+00 0.  1.
<mgrwt>
<rscale>  2 0.20445627E+02</rscale>
<asrwt>0</asrwt>
<pdfrwt beam="1">  1       21 0.32810669E-02 0.20445627E+02</pdfrwt>
<pdfrwt beam="2">  1       21 0.30818707E-02 0.20445627E+02</pdfrwt>
<totfact> 0.20563821E+08</totfact>
</mgrwt>
</event>
