<event>
 5    1  0.6112843E+000  0.9074174E+02  0.7546771E-02  0.1301065E+00
         -2   -1    0    0    0  501 -0.00000000000E+00  0.00000000000E+00  0.35955116017E+02  0.35955116017E+02  0.00000000000E+00 0.  1.
          2   -1    0    0  501    0  0.00000000000E+00 -0.00000000000E+00 -0.57252372788E+02  0.57252372788E+02  0.00000000000E+00 0. -1.
         23    2    1    2    0    0  0.00000000000E+00  0.00000000000E+00 -0.21297256771E+02  0.93207488805E+02  0.90741736943E+02 0.  0.
        -13    1    3    3    0    0 -0.25082970702E+02  0.66640754752E+00 -0.49476814028E+02  0.55475712204E+02  0.00000000000E+00 0. -1.
         13    1    3    3    0    0  0.25082970702E+02 -0.66640754752E+00  0.28179557257E+02  0.37731776601E+02  0.00000000000E+00 0.  1.
<mgrwt>
<rscale>  0 0.90741737E+02</rscale>
<asrwt>0</asrwt>
<pdfrwt beam="2">  1        2 0.88080572E-02 0.90741737E+02</pdfrwt>
<pdfrwt beam="1">  1       -2 0.55315564E-02 0.90741737E+02</pdfrwt>
<totfact> 0.10617490E+05</totfact>
</mgrwt>
</event>
<event>
 5    1  0.6112843E+000  0.9181613E+02  0.7546771E-02  0.1298512E+00
          2   -1    0    0  501    0  0.00000000000E+00  0.00000000000E+00  0.88818931612E+02  0.88818931612E+02  0.00000000000E+00 0. -1.
         -2   -1    0    0    0  501 -0.00000000000E+00 -0.00000000000E+00 -0.23728617929E+02  0.23728617929E+02  0.00000000000E+00 0.  1.
         23    2    1    2    0    0  0.00000000000E+00  0.00000000000E+00  0.65090313683E+02  0.11254754954E+03  0.91816131330E+02 0.  0.
        -13    1    3    3    0    0 -0.29890468599E+02 -0.29752639188E+02  0.54775335027E+02  0.69130289881E+02  0.00000000000E+00 0. -1.
         13    1    3    3    0    0  0.29890468599E+02  0.29752639188E+02  0.10314978656E+02  0.43417259660E+02  0.00000000000E+00 0.  1.
<mgrwt>
<rscale>  0 0.91816131E+02</rscale>
<asrwt>0</asrwt>
<pdfrwt beam="1">  1        2 0.13664451E-01 0.91816131E+02</pdfrwt>
<pdfrwt beam="2">  1       -2 0.36505566E-02 0.91816131E+02</pdfrwt>
<totfact> 0.11612598E+05</totfact>
</mgrwt>
</event>
<event>
 5    1  0.6112843E+000  0.9513619E+02  0.7546771E-02  0.1290870E+00
          4   -1    0    0  501    0  0.00000000000E+00  0.00000000000E+00  0.43172812614E+02  0.43172812614E+02  0.00000000000E+00 0.  1.
         -4   -1    0    0    0  501 -0.00000000000E+00 -0.00000000000E+00 -0.52410850052E+02  0.52410850052E+02  0.00000000000E+00 0. -1.
         23    2    1    2    0    0  0.00000000000E+00  0.00000000000E+00 -0.92380374374E+01  0.95583662666E+02  0.95136193076E+02 0.  0.
        -13    1    3    3    0    0  0.12010360707E+02 -0.35127650235E+02 -0.34499839422E+02  0.50679774027E+02  0.00000000000E+00 0. -1.
         13    1    3    3    0    0 -0.12010360707E+02  0.35127650235E+02  0.25261801984E+02  0.44903888638E+02  0.00000000000E+00 0.  1.
<mgrwt>
<rscale>  0 0.95136193E+02</rscale>
<asrwt>0</asrwt>
<pdfrwt beam="1">  1        4 0.66419712E-02 0.95136193E+02</pdfrwt>
<pdfrwt beam="2">  1       -4 0.80632077E-02 0.95136193E+02</pdfrwt>
<totfact> 0.23810576E+04</totfact>
</mgrwt>
</event>
<event>
 5    1  0.6112843E+000  0.9150756E+02  0.7546771E-02  0.1299241E+00
          4   -1    0    0  501    0  0.00000000000E+00  0.00000000000E+00  0.10923768782E+03  0.10923768782E+03  0.00000000000E+00 0. -1.
         -4   -1    0    0    0  501 -0.00000000000E+00 -0.00000000000E+00 -0.19163793884E+02  0.19163793884E+02  0.00000000000E+00 0.  1.
         23    2    1    2    0    0  0.00000000000E+00  0.00000000000E+00  0.90073893939E+02  0.12840148171E+03  0.91507563268E+02 0.  0.
        -13    1    3    3    0    0  0.40026735582E+02 -0.76175470346E+01  0.74243364890E+02  0.84689100919E+02  0.00000000000E+00 0. -1.
         13    1    3    3    0    0 -0.40026735582E+02  0.76175470346E+01  0.15830529048E+02  0.43712380788E+02  0.00000000000E+00 0.  1.
<mgrwt>
<rscale>  0 0.91507563E+02</rscale>
<asrwt>0</asrwt>
<pdfrwt beam="1">  1        4 0.16805798E-01 0.91507563E+02</pdfrwt>
<pdfrwt beam="2">  1       -4 0.29482760E-02 0.91507563E+02</pdfrwt>
<totfact> 0.24563298E+04</totfact>
</mgrwt>
</event>
<event>
 5    1  0.6112843E+000  0.9476497E+02  0.7546771E-02  0.1291706E+00
         -2   -1    0    0    0  501 -0.00000000000E+00  0.00000000000E+00  0.16990474920E+02  0.16990474920E+02  0.00000000000E+00 0.  1.
          2   -1    0    0  501    0  0.00000000000E+00 -0.00000000000E+00 -0.13213874670E+03  0.13213874670E+03  0.00000000000E+00 0. -1.
         23    2    1    2    0    0  0.00000000000E+00  0.00000000000E+00 -0.11514827178E+03  0.14912922162E+03  0.94764973736E+02 0.  0.
        -13    1    3    3    0    0  0.18663765267E+02 -0.37253060329E+02 -0.22071348014E+02  0.47151575169E+02  0.00000000000E+00 0.  1.
         13    1    3    3    0    0 -0.18663765267E+02  0.37253060329E+02 -0.93076923770E+02  0.10197764645E+03  0.00000000000E+00 0. -1.
<mgrwt>
<rscale>  0 0.94764974E+02</rscale>
<asrwt>0</asrwt>
<pdfrwt beam="2">  1        2 0.20329038E-01 0.94764974E+02</pdfrwt>
<pdfrwt beam="1">  1       -2 0.26139193E-02 0.94764974E+02</pdfrwt>
<totfact> 0.12057613E+05</totfact>
</mgrwt>
</event>
<event>
 5    1  0.6112843E+000  0.9758915E+02  0.7546771E-02  0.1285449E+00
          4   -1    0    0  501    0  0.00000000000E+00  0.00000000000E+00  0.11178526720E+03  0.11178526720E+03  0.00000000000E+00 0. -1.
         -4   -1    0    0    0  501 -0.00000000000E+00 -0.00000000000E+00 -0.21298965084E+02  0.21298965084E+02  0.00000000000E+00 0.  1.
         23    2    1    2    0    0  0.00000000000E+00  0.00000000000E+00  0.90486302112E+02  0.13308423228E+03  0.97589149046E+02 0.  0.
        -13    1    3    3    0    0  0.19606726493E+01 -0.37809802099E+02  0.32661629613E+01  0.38001226198E+02  0.00000000000E+00 0.  1.
         13    1    3    3    0    0 -0.19606726493E+01  0.37809802099E+02  0.87220139151E+02  0.95083006082E+02  0.00000000000E+00 0. -1.
<mgrwt>
<rscale>  0 0.97589149E+02</rscale>
<asrwt>0</asrwt>
<pdfrwt beam="1">  1        4 0.17197733E-01 0.97589149E+02</pdfrwt>
<pdfrwt beam="2">  1       -4 0.32767639E-02 0.97589149E+02</pdfrwt>
<totfact> 0.20416308E+04</totfact>
</mgrwt>
</event>
<event>
 5    1  0.6112843E+000  0.9044746E+02  0.7546771E-02  0.1301772E+00
          2   -1    0    0  501    0  0.00000000000E+00  0.00000000000E+00  0.11282989521E+02  0.11282989521E+02  0.00000000000E+00 0. -1.
         -2   -1    0    0    0  501 -0.00000000000E+00 -0.00000000000E+00 -0.18126275585E+03  0.18126275585E+03  0.00000000000E+00 0.  1.
         23    2    1    2    0    0  0.00000000000E+00  0.00000000000E+00 -0.16997976633E+03  0.19254574537E+03  0.90447460433E+02 0.  0.
        -13    1    3    3    0    0  0.58789397112E+01  0.42294110373E+02 -0.11669648621E+03  0.12426352481E+03  0.00000000000E+00 0. -1.
         13    1    3    3    0    0 -0.58789397112E+01 -0.42294110373E+02 -0.53283280117E+02  0.68282220559E+02  0.00000000000E+00 0.  1.
<mgrwt>
<rscale>  0 0.90447460E+02</rscale>
<asrwt>0</asrwt>
<pdfrwt beam="1">  1        2 0.17358448E-02 0.90447460E+02</pdfrwt>
<pdfrwt beam="2">  1       -2 0.27886574E-01 0.90447460E+02</pdfrwt>
<totfact> 0.66289897E+04</totfact>
</mgrwt>
</event>
<event>
 5    1  0.6112843E+000  0.9168818E+02  0.7546771E-02  0.1298814E+00
         -1   -1    0    0    0  501 -0.00000000000E+00  0.00000000000E+00  0.34968946514E+03  0.34968946514E+03  0.00000000000E+00 0.  1.
          1   -1    0    0  501    0  0.00000000000E+00 -0.00000000000E+00 -0.60101345001E+01  0.60101345001E+01  0.00000000000E+00 0. -1.
         23    2    1    2    0    0  0.00000000000E+00  0.00000000000E+00  0.34367933064E+03  0.35569959964E+03  0.91688182854E+02 0.  0.
        -13    1    3    3    0    0  0.42347257679E+02  0.11796505481E+02  0.22230724366E+03  0.22661191133E+03  0.00000000000E+00 0.  1.
         13    1    3    3    0    0 -0.42347257679E+02 -0.11796505481E+02  0.12137208698E+03  0.12908768831E+03  0.00000000000E+00 0. -1.
<mgrwt>
<rscale>  0 0.91688183E+02</rscale>
<asrwt>0</asrwt>
<pdfrwt beam="2">  1        1 0.92463635E-03 0.91688183E+02</pdfrwt>
<pdfrwt beam="1">  1       -1 0.53798363E-01 0.91688183E+02</pdfrwt>
<totfact> 0.55983313E+04</totfact>
</mgrwt>
</event>
<event>
 5    1  0.6112843E+000  0.9174628E+02  0.7546771E-02  0.1298677E+00
         -3   -1    0    0    0  501 -0.00000000000E+00  0.00000000000E+00  0.54700453130E+02  0.54700453130E+02  0.00000000000E+00 0.  1.
          3   -1    0    0  501    0  0.00000000000E+00 -0.00000000000E+00 -0.38470336415E+02  0.38470336415E+02  0.00000000000E+00 0. -1.
         23    2    1    2    0    0  0.00000000000E+00  0.00000000000E+00  0.16230116714E+02  0.93170789545E+02  0.91746276959E+02 0.  0.
        -13    1    3    3    0    0  0.12484402379E+02 -0.43599970769E+02  0.11140290902E+01  0.45365833119E+02  0.00000000000E+00 0.  1.
         13    1    3    3    0    0 -0.12484402379E+02  0.43599970769E+02  0.15116087624E+02  0.47804956426E+02  0.00000000000E+00 0. -1.
<mgrwt>
<rscale>  0 0.91746277E+02</rscale>
<asrwt>0</asrwt>
<pdfrwt beam="2">  1        3 0.59185133E-02 0.91746277E+02</pdfrwt>
<pdfrwt beam="1">  1       -3 0.84154543E-02 0.91746277E+02</pdfrwt>
<totfact> 0.34593763E+04</totfact>
</mgrwt>
</event>
<event>
 5    1  0.6112843E+000  0.9039967E+02  0.7546771E-02  0.1301887E+00
         -3   -1    0    0    0  501 -0.00000000000E+00  0.00000000000E+00  0.56400054666E+02  0.56400054666E+02  0.00000000000E+00 0.  1.
          3   -1    0    0  501    0  0.00000000000E+00 -0.00000000000E+00 -0.36223810618E+02  0.36223810618E+02  0.00000000000E+00 0. -1.
         23    2    1    2    0    0  0.00000000000E+00  0.00000000000E+00  0.20176244047E+02  0.92623865284E+02  0.90399665908E+02 0.  0.
        -13    1    3    3    0    0 -0.17736367729E+02  0.38408446451E+02  0.26393091801E+02  0.49863642003E+02  0.00000000000E+00 0.  1.
         13    1    3    3    0    0  0.17736367729E+02 -0.38408446451E+02 -0.62168477532E+01  0.42760223281E+02  0.00000000000E+00 0. -1.
<mgrwt>
<rscale>  0 0.90399666E+02</rscale>
<asrwt>0</asrwt>
<pdfrwt beam="2">  1        3 0.55728939E-02 0.90399666E+02</pdfrwt>
<pdfrwt beam="1">  1       -3 0.86769315E-02 0.90399666E+02</pdfrwt>
<totfact> 0.36058245E+04</totfact>
</mgrwt>
</event>
<event>
 5    1  0.6112843E+000  0.9162126E+02  0.7546771E-02  0.1298972E+00
          1   -1    0    0  501    0  0.00000000000E+00  0.00000000000E+00  0.94428114421E+02  0.94428114421E+02  0.00000000000E+00 0.  1.
         -1   -1    0    0    0  501 -0.00000000000E+00 -0.00000000000E+00 -0.22224459602E+02  0.22224459602E+02  0.00000000000E+00 0. -1.
         23    2    1    2    0    0  0.00000000000E+00  0.00000000000E+00  0.72203654819E+02  0.11665257402E+03  0.91621259854E+02 0.  0.
        -13    1    3    3    0    0 -0.41196516440E+02  0.87030649615E+01  0.59080165681E+02  0.72549033648E+02  0.00000000000E+00 0.  1.
         13    1    3    3    0    0  0.41196516440E+02 -0.87030649615E+01  0.13123489138E+02  0.44103540375E+02  0.00000000000E+00 0. -1.
<mgrwt>
<rscale>  0 0.91621260E+02</rscale>
<asrwt>0</asrwt>
<pdfrwt beam="1">  1        1 0.14527402E-01 0.91621260E+02</pdfrwt>
<pdfrwt beam="2">  1       -1 0.34191477E-02 0.91621260E+02</pdfrwt>
<totfact> 0.10210116E+05</totfact>
</mgrwt>
</event>
<event>
 5    1  0.6112843E+000  0.9009673E+02  0.7546771E-02  0.1302618E+00
         -2   -1    0    0    0  501 -0.00000000000E+00  0.00000000000E+00  0.37349728946E+02  0.37349728946E+02  0.00000000000E+00 0. -1.
          2   -1    0    0  501    0  0.00000000000E+00 -0.00000000000E+00 -0.54333862018E+02  0.54333862018E+02  0.00000000000E+00 0.  1.
         23    2    1    2    0    0  0.00000000000E+00  0.00000000000E+00 -0.16984133072E+02  0.91683590964E+02  0.90096726222E+02 0.  0.
        -13    1    3    3    0    0 -0.14511485586E+02 -0.22682446672E+02 -0.45242947856E+02  0.52649795172E+02  0.00000000000E+00 0.  1.
         13    1    3    3    0    0  0.14511485586E+02  0.22682446672E+02  0.28258814784E+02  0.39033795792E+02  0.00000000000E+00 0. -1.
<mgrwt>
<rscale>  0 0.90096726E+02</rscale>
<asrwt>0</asrwt>
<pdfrwt beam="2">  1        2 0.83590557E-02 0.90096726E+02</pdfrwt>
<pdfrwt beam="1">  1       -2 0.57461122E-02 0.90096726E+02</pdfrwt>
<totfact> 0.10685333E+05</totfact>
</mgrwt>
</event>
<event>
 5    1  0.6112843E+000  0.9016410E+02  0.7546771E-02  0.1302455E+00
         -2   -1    0    0    0  501 -0.00000000000E+00  0.00000000000E+00  0.91572831004E+01  0.91572831004E+01  0.00000000000E+00 0.  1.
          2   -1    0    0  501    0  0.00000000000E+00 -0.00000000000E+00 -0.22194260544E+03  0.22194260544E+03  0.00000000000E+00 0. -1.
         23    2    1    2    0    0  0.00000000000E+00  0.00000000000E+00 -0.21278532234E+03  0.23109988855E+03  0.90164100841E+02 0.  0.
        -13    1    3    3    0    0 -0.23048872000E+02  0.28743739365E+02 -0.39804336272E+02  0.54238715317E+02  0.00000000000E+00 0.  1.
         13    1    3    3    0    0  0.23048872000E+02 -0.28743739365E+02 -0.17298098607E+03  0.17686117323E+03  0.00000000000E+00 0. -1.
<mgrwt>
<rscale>  0 0.90164101E+02</rscale>
<asrwt>0</asrwt>
<pdfrwt beam="2">  1        2 0.34145016E-01 0.90164101E+02</pdfrwt>
<pdfrwt beam="1">  1       -2 0.14088128E-02 0.90164101E+02</pdfrwt>
<totfact> 0.16554304E+05</totfact>
</mgrwt>
</event>
<event>
 5    1  0.6112843E+000  0.9172333E+02  0.7546771E-02  0.1298731E+00
         -1   -1    0    0    0  501 -0.00000000000E+00  0.00000000000E+00  0.54055336754E+02  0.54055336754E+02  0.00000000000E+00 0.  1.
          1   -1    0    0  501    0  0.00000000000E+00 -0.00000000000E+00 -0.38909987771E+02  0.38909987771E+02  0.00000000000E+00 0. -1.
         23    2    1    2    0    0  0.00000000000E+00  0.00000000000E+00  0.15145348983E+02  0.92965324525E+02  0.91723333826E+02 0.  0.
        -13    1    3    3    0    0 -0.23010261737E+02  0.30734285469E+02 -0.17851321587E+02  0.42340738431E+02  0.00000000000E+00 0. -1.
         13    1    3    3    0    0  0.23010261737E+02 -0.30734285469E+02  0.32996670570E+02  0.50624586094E+02  0.00000000000E+00 0.  1.
<mgrwt>
<rscale>  0 0.91723334E+02</rscale>
<asrwt>0</asrwt>
<pdfrwt beam="2">  1        1 0.59861520E-02 0.91723334E+02</pdfrwt>
<pdfrwt beam="1">  1       -1 0.83162056E-02 0.91723334E+02</pdfrwt>
<totfact> 0.88767479E+04</totfact>
</mgrwt>
</event>
<event>
 5    1  0.6112843E+000  0.8832390E+02  0.7546771E-02  0.1306962E+00
          1   -1    0    0  501    0  0.00000000000E+00  0.00000000000E+00  0.11365561612E+03  0.11365561612E+03  0.00000000000E+00 0. -1.
         -1   -1    0    0    0  501 -0.00000000000E+00 -0.00000000000E+00 -0.17159536571E+02  0.17159536571E+02  0.00000000000E+00 0.  1.
         23    2    1    2    0    0  0.00000000000E+00  0.00000000000E+00  0.96496079553E+02  0.13081515270E+03  0.88323897138E+02 0.  0.
        -13    1    3    3    0    0 -0.21833263313E+02  0.66713521478E+01  0.10423772229E+03  0.10670848643E+03  0.00000000000E+00 0. -1.
         13    1    3    3    0    0  0.21833263313E+02 -0.66713521478E+01 -0.77416427397E+01  0.24106666270E+02  0.00000000000E+00 0.  1.
<mgrwt>
<rscale>  0 0.88323897E+02</rscale>
<asrwt>0</asrwt>
<pdfrwt beam="1">  1        1 0.17485479E-01 0.88323897E+02</pdfrwt>
<pdfrwt beam="2">  1       -1 0.26399288E-02 0.88323897E+02</pdfrwt>
<totfact> 0.11633086E+05</totfact>
</mgrwt>
</event>
<event>
 5    1  0.6112843E+000  0.9187225E+02  0.7546771E-02  0.1298380E+00
          1   -1    0    0  501    0  0.00000000000E+00  0.00000000000E+00  0.62099649280E+02  0.62099649280E+02  0.00000000000E+00 0. -1.
         -1   -1    0    0    0  501 -0.00000000000E+00 -0.00000000000E+00 -0.33979702186E+02  0.33979702186E+02  0.00000000000E+00 0.  1.
         23    2    1    2    0    0  0.00000000000E+00  0.00000000000E+00  0.28119947094E+02  0.96079351466E+02  0.91872250182E+02 0.  0.
        -13    1    3    3    0    0  0.36203288586E+01  0.38918402330E+02 -0.11177651043E+02  0.40653274207E+02  0.00000000000E+00 0.  1.
         13    1    3    3    0    0 -0.36203288586E+01 -0.38918402330E+02  0.39297598137E+02  0.55426077259E+02  0.00000000000E+00 0. -1.
<mgrwt>
<rscale>  0 0.91872250E+02</rscale>
<asrwt>0</asrwt>
<pdfrwt beam="1">  1        1 0.95537922E-02 0.91872250E+02</pdfrwt>
<pdfrwt beam="2">  1       -1 0.52276465E-02 0.91872250E+02</pdfrwt>
<totfact> 0.94854335E+04</totfact>
</mgrwt>
</event>
<event>
 5    1  0.6112843E+000  0.9232952E+02  0.7546771E-02  0.1297307E+00
          2   -1    0    0  501    0  0.00000000000E+00  0.00000000000E+00  0.37289752391E+02  0.37289752391E+02  0.00000000000E+00 0. -1.
         -2   -1    0    0    0  501 -0.00000000000E+00 -0.00000000000E+00 -0.57152027372E+02  0.57152027372E+02  0.00000000000E+00 0.  1.
         23    2    1    2    0    0  0.00000000000E+00  0.00000000000E+00 -0.19862274980E+02  0.94441779763E+02  0.92329517476E+02 0.  0.
        -13    1    3    3    0    0 -0.26122785937E+02  0.10727191349E+02 -0.47286648907E+02  0.55077216199E+02  0.00000000000E+00 0.  1.
         13    1    3    3    0    0  0.26122785937E+02 -0.10727191349E+02  0.27424373926E+02  0.39364563564E+02  0.00000000000E+00 0. -1.
<mgrwt>
<rscale>  0 0.92329517E+02</rscale>
<asrwt>0</asrwt>
<pdfrwt beam="1">  1        2 0.57368850E-02 0.92329517E+02</pdfrwt>
<pdfrwt beam="2">  1       -2 0.87926195E-02 0.92329517E+02</pdfrwt>
<totfact> 0.90296973E+04</totfact>
</mgrwt>
</event>
<event>
 5    1  0.6112843E+000  0.9128748E+02  0.7546771E-02  0.1299763E+00
         -1   -1    0    0    0  501 -0.00000000000E+00  0.00000000000E+00  0.22714233866E+03  0.22714233866E+03  0.00000000000E+00 0.  1.
          1   -1    0    0  501    0  0.00000000000E+00 -0.00000000000E+00 -0.91720069579E+01  0.91720069579E+01  0.00000000000E+00 0. -1.
         23    2    1    2    0    0  0.00000000000E+00  0.00000000000E+00  0.21797033170E+03  0.23631434562E+03  0.91287482397E+02 0.  0.
        -13    1    3    3    0    0  0.31342947730E+02 -0.27930183097E+02  0.15535624582E+03  0.16092867555E+03  0.00000000000E+00 0.  1.
         13    1    3    3    0    0 -0.31342947730E+02  0.27930183097E+02  0.62614085885E+02  0.75385670067E+02  0.00000000000E+00 0. -1.
<mgrwt>
<rscale>  0 0.91287482E+02</rscale>
<asrwt>0</asrwt>
<pdfrwt beam="2">  1        1 0.14110782E-02 0.91287482E+02</pdfrwt>
<pdfrwt beam="1">  1       -1 0.34944971E-01 0.91287482E+02</pdfrwt>
<totfact> 0.66613272E+04</totfact>
</mgrwt>
</event>
<event>
 5    1  0.6112843E+000  0.9126208E+02  0.7546771E-02  0.1299824E+00
          3   -1    0    0  501    0  0.00000000000E+00  0.00000000000E+00  0.25104501736E+03  0.25104501736E+03  0.00000000000E+00 0. -1.
         -3   -1    0    0    0  501 -0.00000000000E+00 -0.00000000000E+00 -0.82940982295E+01  0.82940982295E+01  0.00000000000E+00 0.  1.
         23    2    1    2    0    0  0.00000000000E+00  0.00000000000E+00  0.24275091913E+03  0.25933911559E+03  0.91262084877E+02 0.  0.
        -13    1    3    3    0    0  0.33978357360E+02  0.14859599802E+02  0.45823979207E+02  0.58950602589E+02  0.00000000000E+00 0.  1.
         13    1    3    3    0    0 -0.33978357360E+02 -0.14859599802E+02  0.19692693993E+03  0.20038851300E+03  0.00000000000E+00 0. -1.
<mgrwt>
<rscale>  0 0.91262085E+02</rscale>
<asrwt>0</asrwt>
<pdfrwt beam="1">  1        3 0.38622305E-01 0.91262085E+02</pdfrwt>
<pdfrwt beam="2">  1       -3 0.12760153E-02 0.91262085E+02</pdfrwt>
<totfact> 0.25629984E+04</totfact>
</mgrwt>
</event>
<event>
 5    1  0.6112843E+000  0.9147092E+02  0.7546771E-02  0.1299328E+00
         -2   -1    0    0    0  501 -0.00000000000E+00  0.00000000000E+00  0.23776196900E+02  0.23776196900E+02  0.00000000000E+00 0.  1.
          2   -1    0    0  501    0  0.00000000000E+00 -0.00000000000E+00 -0.87975908022E+02  0.87975908022E+02  0.00000000000E+00 0. -1.
         23    2    1    2    0    0  0.00000000000E+00  0.00000000000E+00 -0.64199711123E+02  0.11175210492E+03  0.91470924595E+02 0.  0.
        -13    1    3    3    0    0 -0.29130024604E+02 -0.12063894721E+02  0.83765498789E+01  0.32623035989E+02  0.00000000000E+00 0.  1.
         13    1    3    3    0    0  0.29130024604E+02  0.12063894721E+02 -0.72576261002E+02  0.79129068933E+02  0.00000000000E+00 0. -1.
<mgrwt>
<rscale>  0 0.91470925E+02</rscale>
<asrwt>0</asrwt>
<pdfrwt beam="2">  1        2 0.13534755E-01 0.91470925E+02</pdfrwt>
<pdfrwt beam="1">  1       -2 0.36578765E-02 0.91470925E+02</pdfrwt>
<totfact> 0.11701527E+05</totfact>
</mgrwt>
</event>
<event>
 5    1  0.6112843E+000  0.9693780E+02  0.7546771E-02  0.1286870E+00
          2   -1    0    0  501    0  0.00000000000E+00  0.00000000000E+00  0.41159987474E+03  0.41159987474E+03  0.00000000000E+00 0.  1.
         -2   -1    0    0    0  501 -0.00000000000E+00 -0.00000000000E+00 -0.57075681677E+01  0.57075681677E+01  0.00000000000E+00 0. -1.
         23    2    1    2    0    0  0.00000000000E+00  0.00000000000E+00  0.40589230658E+03  0.41730744291E+03  0.96937801562E+02 0.  0.
        -13    1    3    3    0    0 -0.31165678734E+02  0.34090089425E+02  0.13970652574E+03  0.14714396713E+03  0.00000000000E+00 0. -1.
         13    1    3    3    0    0  0.31165678734E+02 -0.34090089425E+02  0.26618578083E+03  0.27016347578E+03  0.00000000000E+00 0.  1.
<mgrwt>
<rscale>  0 0.96937802E+02</rscale>
<asrwt>0</asrwt>
<pdfrwt beam="1">  1        2 0.63323034E-01 0.96937802E+02</pdfrwt>
<pdfrwt beam="2">  1       -2 0.87808773E-03 0.96937802E+02</pdfrwt>
<totfact> 0.17130254E+05</totfact>
</mgrwt>
</event>
<event>
 5    1  0.6112843E+000  0.9517514E+02  0.7546771E-02  0.1290782E+00
          1   -1    0    0  501    0  0.00000000000E+00  0.00000000000E+00  0.77249061065E+02  0.77249061065E+02  0.00000000000E+00 0. -1.
         -1   -1    0    0    0  501 -0.00000000000E+00 -0.00000000000E+00 -0.29315269165E+02  0.29315269165E+02  0.00000000000E+00 0.  1.
         23    2    1    2    0    0  0.00000000000E+00  0.00000000000E+00  0.47933791900E+02  0.10656433023E+03  0.95175144189E+02 0.  0.
        -13    1    3    3    0    0  0.44239923055E+02  0.10193016599E+02  0.79941442427E+01  0.46097448102E+02  0.00000000000E+00 0.  1.
         13    1    3    3    0    0 -0.44239923055E+02 -0.10193016599E+02  0.39939647658E+02  0.60466882128E+02  0.00000000000E+00 0. -1.
<mgrwt>
<rscale>  0 0.95175144E+02</rscale>
<asrwt>0</asrwt>
<pdfrwt beam="1">  1        1 0.11884471E-01 0.95175144E+02</pdfrwt>
<pdfrwt beam="2">  1       -1 0.45100414E-02 0.95175144E+02</pdfrwt>
<totfact> 0.89003153E+04</totfact>
</mgrwt>
</event>
<event>
 5    1  0.6112843E+000  0.6991283E+02  0.7546771E-02  0.1360390E+00
         -4   -1    0    0    0  501 -0.00000000000E+00  0.00000000000E+00  0.12218710665E+03  0.12218710665E+03  0.00000000000E+00 0.  1.
          4   -1    0    0  501    0  0.00000000000E+00 -0.00000000000E+00 -0.10000652728E+02  0.10000652728E+02  0.00000000000E+00 0. -1.
         23    2    1    2    0    0  0.00000000000E+00  0.00000000000E+00  0.11218645392E+03  0.13218775938E+03  0.69912826331E+02 0.  0.
        -13    1    3    3    0    0 -0.91012330269E+01 -0.19681735642E+02  0.10793387531E+03  0.11009052911E+03  0.00000000000E+00 0.  1.
         13    1    3    3    0    0  0.91012330269E+01  0.19681735642E+02  0.42525786091E+01  0.22097230263E+02  0.00000000000E+00 0. -1.
<mgrwt>
<rscale>  0 0.69912826E+02</rscale>
<asrwt>0</asrwt>
<pdfrwt beam="2">  1        4 0.15385620E-02 0.69912826E+02</pdfrwt>
<pdfrwt beam="1">  1       -4 0.18798015E-01 0.69912826E+02</pdfrwt>
<totfact> 0.49630581E+04</totfact>
</mgrwt>
</event>
<event>
 5    1  0.6112843E+000  0.8651802E+02  0.7546771E-02  0.1311510E+00
         -1   -1    0    0    0  501 -0.00000000000E+00  0.00000000000E+00  0.15454430205E+03  0.15454430205E+03  0.00000000000E+00 0.  1.
          1   -1    0    0  501    0  0.00000000000E+00 -0.00000000000E+00 -0.12108774265E+02  0.12108774265E+02  0.00000000000E+00 0. -1.
         23    2    1    2    0    0  0.00000000000E+00  0.00000000000E+00  0.14243552779E+03  0.16665307632E+03  0.86518022804E+02 0.  0.
        -13    1    3    3    0    0 -0.39368208268E+02  0.62842969294E+01  0.38871317697E+02  0.55680585033E+02  0.00000000000E+00 0.  1.
         13    1    3    3    0    0  0.39368208268E+02 -0.62842969294E+01  0.10356421009E+03  0.11097249128E+03  0.00000000000E+00 0. -1.
<mgrwt>
<rscale>  0 0.86518023E+02</rscale>
<asrwt>0</asrwt>
<pdfrwt beam="2">  1        1 0.18628885E-02 0.86518023E+02</pdfrwt>
<pdfrwt beam="1">  1       -1 0.23776045E-01 0.86518023E+02</pdfrwt>
<totfact> 0.85072514E+04</totfact>
</mgrwt>
</event>
<event>
 5    1  0.6112843E+000  0.9294596E+02  0.7546771E-02  0.1295870E+00
         -1   -1    0    0    0  501 -0.00000000000E+00  0.00000000000E+00  0.32740467738E+02  0.32740467738E+02  0.00000000000E+00 0.  1.
          1   -1    0    0  501    0  0.00000000000E+00 -0.00000000000E+00 -0.65965390636E+02  0.65965390636E+02  0.00000000000E+00 0. -1.
         23    2    1    2    0    0  0.00000000000E+00  0.00000000000E+00 -0.33224922898E+02  0.98705858373E+02  0.92945957285E+02 0.  0.
        -13    1    3    3    0    0 -0.13408329007E+02  0.16729203814E+02 -0.60399759866E+02  0.64091969379E+02  0.00000000000E+00 0. -1.
         13    1    3    3    0    0  0.13408329007E+02 -0.16729203814E+02  0.27174836969E+02  0.34613888994E+02  0.00000000000E+00 0.  1.
<mgrwt>
<rscale>  0 0.92945957E+02</rscale>
<asrwt>0</asrwt>
<pdfrwt beam="2">  1        1 0.10148522E-01 0.92945957E+02</pdfrwt>
<pdfrwt beam="1">  1       -1 0.50369951E-02 0.92945957E+02</pdfrwt>
<totfact> 0.92701973E+04</totfact>
</mgrwt>
</event>
<event>
 5    1  0.6112843E+000  0.9051956E+02  0.7546771E-02  0.1301598E+00
         -1   -1    0    0    0  501 -0.00000000000E+00  0.00000000000E+00  0.67604299566E+01  0.67604299566E+01  0.00000000000E+00 0.  1.
          1   -1    0    0  501    0  0.00000000000E+00 -0.00000000000E+00 -0.30300550224E+03  0.30300550224E+03  0.00000000000E+00 0. -1.
         23    2    1    2    0    0  0.00000000000E+00  0.00000000000E+00 -0.29624507228E+03  0.30976593219E+03  0.90519555331E+02 0.  0.
        -13    1    3    3    0    0  0.20265217349E+02 -0.39672339417E+02 -0.12077280610E+03  0.12872701442E+03  0.00000000000E+00 0. -1.
         13    1    3    3    0    0 -0.20265217349E+02  0.39672339417E+02 -0.17547226618E+03  0.18103891777E+03  0.00000000000E+00 0.  1.
<mgrwt>
<rscale>  0 0.90519555E+02</rscale>
<asrwt>0</asrwt>
<pdfrwt beam="2">  1        1 0.46616235E-01 0.90519555E+02</pdfrwt>
<pdfrwt beam="1">  1       -1 0.10400661E-02 0.90519555E+02</pdfrwt>
<totfact> 0.13086168E+05</totfact>
</mgrwt>
</event>
<event>
 5    1  0.6112843E+000  0.9166717E+02  0.7546771E-02  0.1298864E+00
         -3   -1    0    0    0  501 -0.00000000000E+00  0.00000000000E+00  0.57539831817E+02  0.57539831817E+02  0.00000000000E+00 0.  1.
          3   -1    0    0  501    0  0.00000000000E+00 -0.00000000000E+00 -0.36508929440E+02  0.36508929440E+02  0.00000000000E+00 0. -1.
         23    2    1    2    0    0  0.00000000000E+00  0.00000000000E+00  0.21030902376E+02  0.94048761257E+02  0.91667173182E+02 0.  0.
        -13    1    3    3    0    0  0.33813904117E+02  0.13365739032E+02 -0.18114645423E+02  0.40622204153E+02  0.00000000000E+00 0. -1.
         13    1    3    3    0    0 -0.33813904117E+02 -0.13365739032E+02  0.39145547799E+02  0.53426557104E+02  0.00000000000E+00 0.  1.
<mgrwt>
<rscale>  0 0.91667173E+02</rscale>
<asrwt>0</asrwt>
<pdfrwt beam="2">  1        3 0.56167584E-02 0.91667173E+02</pdfrwt>
<pdfrwt beam="1">  1       -3 0.88522818E-02 0.91667173E+02</pdfrwt>
<totfact> 0.34609620E+04</totfact>
</mgrwt>
</event>
<event>
 5    1  0.6112843E+000  0.8615952E+02  0.7546771E-02  0.1312428E+00
          2   -1    0    0  501    0  0.00000000000E+00  0.00000000000E+00  0.17476186992E+03  0.17476186992E+03  0.00000000000E+00 0. -1.
         -2   -1    0    0    0  501 -0.00000000000E+00 -0.00000000000E+00 -0.10619397498E+02  0.10619397498E+02  0.00000000000E+00 0.  1.
         23    2    1    2    0    0  0.00000000000E+00  0.00000000000E+00  0.16414247242E+03  0.18538126742E+03  0.86159520987E+02 0.  0.
        -13    1    3    3    0    0  0.96550378984E+01 -0.41025312631E+02  0.62878516728E+02  0.75696789227E+02  0.00000000000E+00 0.  1.
         13    1    3    3    0    0 -0.96550378984E+01  0.41025312631E+02  0.10126395570E+03  0.10968447819E+03  0.00000000000E+00 0. -1.
<mgrwt>
<rscale>  0 0.86159521E+02</rscale>
<asrwt>0</asrwt>
<pdfrwt beam="1">  1        2 0.26886439E-01 0.86159521E+02</pdfrwt>
<pdfrwt beam="2">  1       -2 0.16337536E-02 0.86159521E+02</pdfrwt>
<totfact> 0.17164730E+05</totfact>
</mgrwt>
</event>
<event>
 5    1  0.6112843E+000  0.9239879E+02  0.7546771E-02  0.1297144E+00
          1   -1    0    0  501    0  0.00000000000E+00  0.00000000000E+00  0.15654596296E+02  0.15654596296E+02  0.00000000000E+00 0. -1.
         -1   -1    0    0    0  501 -0.00000000000E+00 -0.00000000000E+00 -0.13634232942E+03  0.13634232942E+03  0.00000000000E+00 0.  1.
         23    2    1    2    0    0  0.00000000000E+00  0.00000000000E+00 -0.12068773312E+03  0.15199692571E+03  0.92398790578E+02 0.  0.
        -13    1    3    3    0    0  0.15668866276E+02 -0.26857525423E+02 -0.41349569091E+01  0.31367784603E+02  0.00000000000E+00 0. -1.
         13    1    3    3    0    0 -0.15668866276E+02  0.26857525423E+02 -0.11655277621E+03  0.12062914111E+03  0.00000000000E+00 0.  1.
<mgrwt>
<rscale>  0 0.92398791E+02</rscale>
<asrwt>0</asrwt>
<pdfrwt beam="1">  1        1 0.24083995E-02 0.92398791E+02</pdfrwt>
<pdfrwt beam="2">  1       -1 0.20975742E-01 0.92398791E+02</pdfrwt>
<totfact> 0.73833887E+04</totfact>
</mgrwt>
</event>
<event>
 5    1  0.6112843E+000  0.9188371E+02  0.7546771E-02  0.1298353E+00
         -3   -1    0    0    0  501 -0.00000000000E+00  0.00000000000E+00  0.21541905883E+02  0.21541905883E+02  0.00000000000E+00 0. -1.
          3   -1    0    0  501    0  0.00000000000E+00 -0.00000000000E+00 -0.97978989294E+02  0.97978989294E+02  0.00000000000E+00 0.  1.
         23    2    1    2    0    0  0.00000000000E+00  0.00000000000E+00 -0.76437083411E+02  0.11952089518E+03  0.91883712722E+02 0.  0.
        -13    1    3    3    0    0 -0.31932593005E+02  0.25995300649E+02 -0.64724173803E+02  0.76711569052E+02  0.00000000000E+00 0.  1.
         13    1    3    3    0    0  0.31932593005E+02 -0.25995300649E+02 -0.11712909608E+02  0.42809326126E+02  0.00000000000E+00 0. -1.
<mgrwt>
<rscale>  0 0.91883713E+02</rscale>
<asrwt>0</asrwt>
<pdfrwt beam="2">  1        3 0.15073691E-01 0.91883713E+02</pdfrwt>
<pdfrwt beam="1">  1       -3 0.33141393E-02 0.91883713E+02</pdfrwt>
<totfact> 0.32586884E+04</totfact>
</mgrwt>
</event>
<event>
 5    1  0.6112843E+000  0.9076019E+02  0.7546771E-02  0.1301021E+00
         -2   -1    0    0    0  501 -0.00000000000E+00  0.00000000000E+00  0.11866042161E+02  0.11866042161E+02  0.00000000000E+00 0. -1.
          2   -1    0    0  501    0  0.00000000000E+00 -0.00000000000E+00 -0.17355009955E+03  0.17355009955E+03  0.00000000000E+00 0.  1.
         23    2    1    2    0    0  0.00000000000E+00  0.00000000000E+00 -0.16168405739E+03  0.18541614171E+03  0.90760185065E+02 0.  0.
        -13    1    3    3    0    0  0.29584572230E+02 -0.64724795699E+01 -0.11798068128E+02  0.32501297165E+02  0.00000000000E+00 0. -1.
         13    1    3    3    0    0 -0.29584572230E+02  0.64724795699E+01 -0.14988598926E+03  0.15291484455E+03  0.00000000000E+00 0.  1.
<mgrwt>
<rscale>  0 0.90760185E+02</rscale>
<asrwt>0</asrwt>
<pdfrwt beam="2">  1        2 0.26700016E-01 0.90760185E+02</pdfrwt>
<pdfrwt beam="1">  1       -2 0.18255449E-02 0.90760185E+02</pdfrwt>
<totfact> 0.14886981E+05</totfact>
</mgrwt>
</event>
<event>
 5    1  0.6112843E+000  0.9260379E+02  0.7546771E-02  0.1296666E+00
          4   -1    0    0  501    0  0.00000000000E+00  0.00000000000E+00  0.71466792314E+02  0.71466792314E+02  0.00000000000E+00 0.  1.
         -4   -1    0    0    0  501 -0.00000000000E+00 -0.00000000000E+00 -0.29998063656E+02  0.29998063656E+02  0.00000000000E+00 0. -1.
         23    2    1    2    0    0  0.00000000000E+00  0.00000000000E+00  0.41468728658E+02  0.10146485597E+03  0.92603787939E+02 0.  0.
        -13    1    3    3    0    0  0.55153807914E+01 -0.40693634423E+02  0.44169643771E+02  0.60310436399E+02  0.00000000000E+00 0.  1.
         13    1    3    3    0    0 -0.55153807914E+01  0.40693634423E+02 -0.27009151125E+01  0.41154419571E+02  0.00000000000E+00 0. -1.
<mgrwt>
<rscale>  0 0.92603788E+02</rscale>
<asrwt>0</asrwt>
<pdfrwt beam="1">  1        4 0.10994891E-01 0.92603788E+02</pdfrwt>
<pdfrwt beam="2">  1       -4 0.46150867E-02 0.92603788E+02</pdfrwt>
<totfact> 0.25278086E+04</totfact>
</mgrwt>
</event>
<event>
 5    1  0.6112843E+000  0.8372336E+02  0.7546771E-02  0.1318805E+00
          1   -1    0    0  501    0  0.00000000000E+00  0.00000000000E+00  0.38017704351E+02  0.38017704351E+02  0.00000000000E+00 0. -1.
         -1   -1    0    0    0  501 -0.00000000000E+00 -0.00000000000E+00 -0.46094324020E+02  0.46094324020E+02  0.00000000000E+00 0.  1.
         23    2    1    2    0    0  0.00000000000E+00  0.00000000000E+00 -0.80766196689E+01  0.84112028371E+02  0.83723363115E+02 0.  0.
        -13    1    3    3    0    0  0.20074019657E+02 -0.34326889172E+02  0.91028869690E+01  0.40794167924E+02  0.00000000000E+00 0. -1.
         13    1    3    3    0    0 -0.20074019657E+02  0.34326889172E+02 -0.17179506638E+02  0.43317860447E+02  0.00000000000E+00 0.  1.
<mgrwt>
<rscale>  0 0.83723363E+02</rscale>
<asrwt>0</asrwt>
<pdfrwt beam="1">  1        1 0.58488776E-02 0.83723363E+02</pdfrwt>
<pdfrwt beam="2">  1       -1 0.70914345E-02 0.83723363E+02</pdfrwt>
<totfact> 0.11431900E+05</totfact>
</mgrwt>
</event>
<event>
 5    1  0.6112843E+000  0.9270920E+02  0.7546771E-02  0.1296421E+00
          1   -1    0    0  501    0  0.00000000000E+00  0.00000000000E+00  0.21729429918E+02  0.21729429918E+02  0.00000000000E+00 0. -1.
         -1   -1    0    0    0  501 -0.00000000000E+00 -0.00000000000E+00 -0.98886572274E+02  0.98886572274E+02  0.00000000000E+00 0.  1.
         23    2    1    2    0    0  0.00000000000E+00  0.00000000000E+00 -0.77157142356E+02  0.12061600219E+03  0.92709197861E+02 0.  0.
        -13    1    3    3    0    0  0.25589231375E+02 -0.59363481703E+00 -0.88858825667E+02  0.92471898777E+02  0.00000000000E+00 0.  1.
         13    1    3    3    0    0 -0.25589231375E+02  0.59363481703E+00  0.11701683311E+02  0.28144103414E+02  0.00000000000E+00 0. -1.
<mgrwt>
<rscale>  0 0.92709198E+02</rscale>
<asrwt>0</asrwt>
<pdfrwt beam="1">  1        1 0.33429892E-02 0.92709198E+02</pdfrwt>
<pdfrwt beam="2">  1       -1 0.15213319E-01 0.92709198E+02</pdfrwt>
<totfact> 0.78110841E+04</totfact>
</mgrwt>
</event>
<event>
 5    1  0.6112843E+000  0.8985334E+02  0.7546771E-02  0.1303207E+00
         -1   -1    0    0    0  501 -0.00000000000E+00  0.00000000000E+00  0.64931385327E+02  0.64931385327E+02  0.00000000000E+00 0.  1.
          1   -1    0    0  501    0  0.00000000000E+00 -0.00000000000E+00 -0.31085206873E+02  0.31085206873E+02  0.00000000000E+00 0. -1.
         23    2    1    2    0    0  0.00000000000E+00  0.00000000000E+00  0.33846178454E+02  0.96016592199E+02  0.89853337065E+02 0.  0.
        -13    1    3    3    0    0  0.30719376514E+02  0.31871751879E+02  0.87208588621E+01  0.45116981731E+02  0.00000000000E+00 0.  1.
         13    1    3    3    0    0 -0.30719376514E+02 -0.31871751879E+02  0.25125319592E+02  0.50899610468E+02  0.00000000000E+00 0. -1.
<mgrwt>
<rscale>  0 0.89853337E+02</rscale>
<asrwt>0</asrwt>
<pdfrwt beam="2">  1        1 0.47823395E-02 0.89853337E+02</pdfrwt>
<pdfrwt beam="1">  1       -1 0.99894439E-02 0.89853337E+02</pdfrwt>
<totfact> 0.90901636E+04</totfact>
</mgrwt>
</event>
<event>
 5    1  0.6112843E+000  0.9670858E+02  0.7546771E-02  0.1287374E+00
          2   -1    0    0  501    0  0.00000000000E+00  0.00000000000E+00  0.70968217692E+02  0.70968217692E+02  0.00000000000E+00 0. -1.
         -2   -1    0    0    0  501 -0.00000000000E+00 -0.00000000000E+00 -0.32946261697E+02  0.32946261697E+02  0.00000000000E+00 0.  1.
         23    2    1    2    0    0  0.00000000000E+00  0.00000000000E+00  0.38021955995E+02  0.10391447939E+03  0.96708582293E+02 0.  0.
        -13    1    3    3    0    0  0.29375082001E+02 -0.31583002949E+02 -0.44752949430E+01  0.43363691986E+02  0.00000000000E+00 0. -1.
         13    1    3    3    0    0 -0.29375082001E+02  0.31583002949E+02  0.42497250938E+02  0.60550787403E+02  0.00000000000E+00 0.  1.
<mgrwt>
<rscale>  0 0.96708582E+02</rscale>
<asrwt>0</asrwt>
<pdfrwt beam="1">  1        2 0.10918187E-01 0.96708582E+02</pdfrwt>
<pdfrwt beam="2">  1       -2 0.50686557E-02 0.96708582E+02</pdfrwt>
<totfact> 0.94092450E+04</totfact>
</mgrwt>
</event>
<event>
 5    1  0.6112843E+000  0.9171049E+02  0.7546771E-02  0.1298762E+00
         -2   -1    0    0    0  501 -0.00000000000E+00  0.00000000000E+00  0.25753849178E+03  0.25753849178E+03  0.00000000000E+00 0.  1.
          2   -1    0    0  501    0  0.00000000000E+00 -0.00000000000E+00 -0.81646183877E+01  0.81646183877E+01  0.00000000000E+00 0. -1.
         23    2    1    2    0    0  0.00000000000E+00  0.00000000000E+00  0.24937387339E+03  0.26570311017E+03  0.91710490251E+02 0.  0.
        -13    1    3    3    0    0 -0.28589761372E+02 -0.22503837889E+02  0.43829449663E+02  0.56963302509E+02  0.00000000000E+00 0. -1.
         13    1    3    3    0    0  0.28589761372E+02  0.22503837889E+02  0.20554442373E+03  0.20873980766E+03  0.00000000000E+00 0.  1.
<mgrwt>
<rscale>  0 0.91710490E+02</rscale>
<asrwt>0</asrwt>
<pdfrwt beam="2">  1        2 0.12560953E-02 0.91710490E+02</pdfrwt>
<pdfrwt beam="1">  1       -2 0.39621300E-01 0.91710490E+02</pdfrwt>
<totfact> 0.54518284E+04</totfact>
</mgrwt>
</event>
<event>
 5    1  0.6112843E+000  0.9470581E+02  0.7546771E-02  0.1291840E+00
         -1   -1    0    0    0  501 -0.00000000000E+00  0.00000000000E+00  0.31681187885E+02  0.31681187885E+02  0.00000000000E+00 0.  1.
          1   -1    0    0  501    0  0.00000000000E+00 -0.00000000000E+00 -0.70776940829E+02  0.70776940829E+02  0.00000000000E+00 0. -1.
         23    2    1    2    0    0  0.00000000000E+00  0.00000000000E+00 -0.39095752944E+02  0.10245812871E+03  0.94705808910E+02 0.  0.
        -13    1    3    3    0    0 -0.26122843037E+01  0.44886739770E+02 -0.35618244625E+02  0.57361160960E+02  0.00000000000E+00 0. -1.
         13    1    3    3    0    0  0.26122843037E+01 -0.44886739770E+02 -0.34775083186E+01  0.45096967754E+02  0.00000000000E+00 0.  1.
<mgrwt>
<rscale>  0 0.94705809E+02</rscale>
<asrwt>0</asrwt>
<pdfrwt beam="2">  1        1 0.10888760E-01 0.94705809E+02</pdfrwt>
<pdfrwt beam="1">  1       -1 0.48740289E-02 0.94705809E+02</pdfrwt>
<totfact> 0.88978097E+04</totfact>
</mgrwt>
</event>
<event>
 5    1  0.6112843E+000  0.9498956E+02  0.7546771E-02  0.1291200E+00
          3   -1    0    0  501    0  0.00000000000E+00  0.00000000000E+00  0.26962502432E+02  0.26962502432E+02  0.00000000000E+00 0. -1.
         -3   -1    0    0    0  501 -0.00000000000E+00 -0.00000000000E+00 -0.83662647742E+02  0.83662647742E+02  0.00000000000E+00 0.  1.
         23    2    1    2    0    0  0.00000000000E+00  0.00000000000E+00 -0.56700145310E+02  0.11062515017E+03  0.94989564546E+02 0.  0.
        -13    1    3    3    0    0 -0.26983447985E+02 -0.13265381176E+02  0.14466758791E+02  0.33367108248E+02  0.00000000000E+00 0. -1.
         13    1    3    3    0    0  0.26983447985E+02  0.13265381176E+02 -0.71166904101E+02  0.77258041926E+02  0.00000000000E+00 0.  1.
<mgrwt>
<rscale>  0 0.94989565E+02</rscale>
<asrwt>0</asrwt>
<pdfrwt beam="1">  1        3 0.41480773E-02 0.94989565E+02</pdfrwt>
<pdfrwt beam="2">  1       -3 0.12871177E-01 0.94989565E+02</pdfrwt>
<totfact> 0.30316336E+04</totfact>
</mgrwt>
</event>
<event>
 5    1  0.6112843E+000  0.6869183E+02  0.7546771E-02  0.1364599E+00
         -1   -1    0    0    0  501 -0.00000000000E+00  0.00000000000E+00  0.17308118677E+03  0.17308118677E+03  0.00000000000E+00 0.  1.
          1   -1    0    0  501    0  0.00000000000E+00 -0.00000000000E+00 -0.68155410805E+01  0.68155410805E+01  0.00000000000E+00 0. -1.
         23    2    1    2    0    0  0.00000000000E+00  0.00000000000E+00  0.16626564569E+03  0.17989672785E+03  0.68691831790E+02 0.  0.
        -13    1    3    3    0    0 -0.17204298338E+02  0.19122935843E+02  0.23529650946E+02  0.34861426107E+02  0.00000000000E+00 0. -1.
         13    1    3    3    0    0  0.17204298338E+02 -0.19122935843E+02  0.14273599474E+03  0.14503530174E+03  0.00000000000E+00 0.  1.
<mgrwt>
<rscale>  0 0.68691832E+02</rscale>
<asrwt>0</asrwt>
<pdfrwt beam="2">  1        1 0.10485449E-02 0.68691832E+02</pdfrwt>
<pdfrwt beam="1">  1       -1 0.26627872E-01 0.68691832E+02</pdfrwt>
<totfact> 0.14976890E+05</totfact>
</mgrwt>
</event>
<event>
 5    1  0.6112843E+000  0.8891573E+02  0.7546771E-02  0.1305499E+00
         -2   -1    0    0    0  501 -0.00000000000E+00  0.00000000000E+00  0.17307702521E+02  0.17307702521E+02  0.00000000000E+00 0.  1.
          2   -1    0    0  501    0  0.00000000000E+00 -0.00000000000E+00 -0.11419780285E+03  0.11419780285E+03  0.00000000000E+00 0. -1.
         23    2    1    2    0    0  0.00000000000E+00  0.00000000000E+00 -0.96890100333E+02  0.13150550538E+03  0.88915726402E+02 0.  0.
        -13    1    3    3    0    0 -0.32860356464E+01 -0.26573215220E+02 -0.10093499655E+03  0.10442608546E+03  0.00000000000E+00 0. -1.
         13    1    3    3    0    0  0.32860356464E+01  0.26573215220E+02  0.40448962138E+01  0.27079419912E+02  0.00000000000E+00 0.  1.
<mgrwt>
<rscale>  0 0.88915726E+02</rscale>
<asrwt>0</asrwt>
<pdfrwt beam="2">  1        2 0.17568893E-01 0.88915726E+02</pdfrwt>
<pdfrwt beam="1">  1       -2 0.26627235E-02 0.88915726E+02</pdfrwt>
<totfact> 0.13691083E+05</totfact>
</mgrwt>
</event>
<event>
 5    1  0.6112843E+000  0.9022841E+02  0.7546771E-02  0.1302300E+00
          1   -1    0    0  501    0  0.00000000000E+00  0.00000000000E+00  0.67343694820E+02  0.67343694820E+02  0.00000000000E+00 0. -1.
         -1   -1    0    0    0  501 -0.00000000000E+00 -0.00000000000E+00 -0.30222453004E+02  0.30222453004E+02  0.00000000000E+00 0.  1.
         23    2    1    2    0    0  0.00000000000E+00  0.00000000000E+00  0.37121241816E+02  0.97566147823E+02  0.90228413524E+02 0.  0.
        -13    1    3    3    0    0  0.34902856902E+02  0.16992950078E+02  0.43415126882E+02  0.58239531372E+02  0.00000000000E+00 0. -1.
         13    1    3    3    0    0 -0.34902856902E+02 -0.16992950078E+02 -0.62938850665E+01  0.39326616451E+02  0.00000000000E+00 0.  1.
<mgrwt>
<rscale>  0 0.90228414E+02</rscale>
<asrwt>0</asrwt>
<pdfrwt beam="1">  1        1 0.10360568E-01 0.90228414E+02</pdfrwt>
<pdfrwt beam="2">  1       -1 0.46496082E-02 0.90228414E+02</pdfrwt>
<totfact> 0.10095075E+05</totfact>
</mgrwt>
</event>
<event>
 5    1  0.6112843E+000  0.9143467E+02  0.7546771E-02  0.1299414E+00
         -1   -1    0    0    0  501 -0.00000000000E+00  0.00000000000E+00  0.35073621580E+03  0.35073621580E+03  0.00000000000E+00 0.  1.
          1   -1    0    0  501    0  0.00000000000E+00 -0.00000000000E+00 -0.59591066896E+01  0.59591066896E+01  0.00000000000E+00 0. -1.
         23    2    1    2    0    0  0.00000000000E+00  0.00000000000E+00  0.34477710911E+03  0.35669532249E+03  0.91434665851E+02 0.  0.
        -13    1    3    3    0    0 -0.32223204166E+02  0.30469957946E+02  0.21571026443E+03  0.22022186858E+03  0.00000000000E+00 0.  1.
         13    1    3    3    0    0  0.32223204166E+02 -0.30469957946E+02  0.12906684468E+03  0.13647345390E+03  0.00000000000E+00 0. -1.
<mgrwt>
<rscale>  0 0.91434666E+02</rscale>
<asrwt>0</asrwt>
<pdfrwt beam="2">  1        1 0.91678592E-03 0.91434666E+02</pdfrwt>
<pdfrwt beam="1">  1       -1 0.53959402E-01 0.91434666E+02</pdfrwt>
<totfact> 0.56315418E+04</totfact>
</mgrwt>
</event>
<event>
 5    1  0.6112843E+000  0.9403082E+02  0.7546771E-02  0.1293374E+00
          1   -1    0    0  501    0  0.00000000000E+00  0.00000000000E+00  0.48432072635E+02  0.48432072635E+02  0.00000000000E+00 0. -1.
         -1   -1    0    0    0  501 -0.00000000000E+00 -0.00000000000E+00 -0.45640182835E+02  0.45640182835E+02  0.00000000000E+00 0.  1.
         23    2    1    2    0    0  0.00000000000E+00  0.00000000000E+00  0.27918897994E+01  0.94072255470E+02  0.94030817291E+02 0.  0.
        -13    1    3    3    0    0 -0.34335396293E+02 -0.18840498348E+02 -0.24626377668E+02  0.46263833538E+02  0.00000000000E+00 0.  1.
         13    1    3    3    0    0  0.34335396293E+02  0.18840498348E+02  0.27418267468E+02  0.47808421931E+02  0.00000000000E+00 0. -1.
<mgrwt>
<rscale>  0 0.94030817E+02</rscale>
<asrwt>0</asrwt>
<pdfrwt beam="1">  1        1 0.74510882E-02 0.94030817E+02</pdfrwt>
<pdfrwt beam="2">  1       -1 0.70215665E-02 0.94030817E+02</pdfrwt>
<totfact> 0.85578023E+04</totfact>
</mgrwt>
</event>
<event>
 5    1  0.6112843E+000  0.9098845E+02  0.7546771E-02  0.1300476E+00
         -1   -1    0    0    0  501 -0.00000000000E+00  0.00000000000E+00  0.46585272857E+02  0.46585272857E+02  0.00000000000E+00 0.  1.
          1   -1    0    0  501    0  0.00000000000E+00 -0.00000000000E+00 -0.44428734539E+02  0.44428734539E+02  0.00000000000E+00 0. -1.
         23    2    1    2    0    0  0.00000000000E+00  0.00000000000E+00  0.21565383182E+01  0.91014007397E+02  0.90988454679E+02 0.  0.
        -13    1    3    3    0    0 -0.30773734123E+02 -0.20583369377E+02 -0.25368272990E+02  0.44880364095E+02  0.00000000000E+00 0. -1.
         13    1    3    3    0    0  0.30773734123E+02  0.20583369377E+02  0.27524811308E+02  0.46133643302E+02  0.00000000000E+00 0.  1.
<mgrwt>
<rscale>  0 0.90988455E+02</rscale>
<asrwt>0</asrwt>
<pdfrwt beam="2">  1        1 0.68351899E-02 0.90988455E+02</pdfrwt>
<pdfrwt beam="1">  1       -1 0.71669651E-02 0.90988455E+02</pdfrwt>
<totfact> 0.92651674E+04</totfact>
</mgrwt>
</event>
<event>
 5    1  0.6112843E+000  0.9153941E+02  0.7546771E-02  0.1299166E+00
          2   -1    0    0  501    0  0.00000000000E+00  0.00000000000E+00  0.13568157748E+03  0.13568157748E+03  0.00000000000E+00 0. -1.
         -2   -1    0    0    0  501 -0.00000000000E+00 -0.00000000000E+00 -0.15439573921E+02  0.15439573921E+02  0.00000000000E+00 0.  1.
         23    2    1    2    0    0  0.00000000000E+00  0.00000000000E+00  0.12024200356E+03  0.15112115140E+03  0.91539406712E+02 0.  0.
        -13    1    3    3    0    0  0.35995492796E+02  0.45578070747E+00  0.13456589961E+02  0.38431276990E+02  0.00000000000E+00 0.  1.
         13    1    3    3    0    0 -0.35995492796E+02 -0.45578070747E+00  0.10678541360E+03  0.11268987441E+03  0.00000000000E+00 0. -1.
<mgrwt>
<rscale>  0 0.91539407E+02</rscale>
<asrwt>0</asrwt>
<pdfrwt beam="1">  1        2 0.20874088E-01 0.91539407E+02</pdfrwt>
<pdfrwt beam="2">  1       -2 0.23753192E-02 0.91539407E+02</pdfrwt>
<totfact> 0.13372069E+05</totfact>
</mgrwt>
</event>
<event>
 5    1  0.6112843E+000  0.9203069E+02  0.7546771E-02  0.1298007E+00
         -4   -1    0    0    0  501 -0.00000000000E+00  0.00000000000E+00  0.25712768789E+03  0.25712768789E+03  0.00000000000E+00 0.  1.
          4   -1    0    0  501    0  0.00000000000E+00 -0.00000000000E+00 -0.82348661441E+01  0.82348661441E+01  0.00000000000E+00 0. -1.
         23    2    1    2    0    0  0.00000000000E+00  0.00000000000E+00  0.24889282174E+03  0.26536255403E+03  0.92030692525E+02 0.  0.
        -13    1    3    3    0    0  0.29907156025E+02 -0.34900544758E+02  0.11804673567E+03  0.12667879778E+03  0.00000000000E+00 0.  1.
         13    1    3    3    0    0 -0.29907156025E+02  0.34900544758E+02  0.13084608607E+03  0.13868375624E+03  0.00000000000E+00 0. -1.
<mgrwt>
<rscale>  0 0.92030693E+02</rscale>
<asrwt>0</asrwt>
<pdfrwt beam="2">  1        4 0.12669027E-02 0.92030693E+02</pdfrwt>
<pdfrwt beam="1">  1       -4 0.39558100E-01 0.92030693E+02</pdfrwt>
<totfact> 0.18466889E+04</totfact>
</mgrwt>
</event>
<event>
 5    1  0.6112843E+000  0.9157591E+02  0.7546771E-02  0.1299080E+00
          2   -1    0    0  501    0  0.00000000000E+00  0.00000000000E+00  0.31330667862E+02  0.31330667862E+02  0.00000000000E+00 0.  1.
         -2   -1    0    0    0  501 -0.00000000000E+00 -0.00000000000E+00 -0.66916445640E+02  0.66916445640E+02  0.00000000000E+00 0. -1.
         23    2    1    2    0    0  0.00000000000E+00  0.00000000000E+00 -0.35585777779E+02  0.98247113502E+02  0.91575912397E+02 0.  0.
        -13    1    3    3    0    0  0.27788326390E+02  0.10934814923E+02  0.19445564896E+02  0.35635533602E+02  0.00000000000E+00 0.  1.
         13    1    3    3    0    0 -0.27788326390E+02 -0.10934814923E+02 -0.55031342675E+02  0.62611579900E+02  0.00000000000E+00 0. -1.
<mgrwt>
<rscale>  0 0.91575912E+02</rscale>
<asrwt>0</asrwt>
<pdfrwt beam="1">  1        2 0.48201027E-02 0.91575912E+02</pdfrwt>
<pdfrwt beam="2">  1       -2 0.10294838E-01 0.91575912E+02</pdfrwt>
<totfact> 0.88343480E+04</totfact>
</mgrwt>
</event>
<event>
 5    1  0.6112843E+000  0.8955123E+02  0.7546771E-02  0.1303942E+00
          4   -1    0    0  501    0  0.00000000000E+00  0.00000000000E+00  0.18078443919E+03  0.18078443919E+03  0.00000000000E+00 0.  1.
         -4   -1    0    0    0  501 -0.00000000000E+00 -0.00000000000E+00 -0.11089758982E+02  0.11089758982E+02  0.00000000000E+00 0. -1.
         23    2    1    2    0    0  0.00000000000E+00  0.00000000000E+00  0.16969468021E+03  0.19187419818E+03  0.89551233567E+02 0.  0.
        -13    1    3    3    0    0 -0.30526725961E+02 -0.61390411764E+01  0.15378799312E+03  0.15690862198E+03  0.00000000000E+00 0.  1.
         13    1    3    3    0    0  0.30526725961E+02  0.61390411764E+01  0.15906687097E+02  0.34965576198E+02  0.00000000000E+00 0. -1.
<mgrwt>
<rscale>  0 0.89551234E+02</rscale>
<asrwt>0</asrwt>
<pdfrwt beam="1">  1        4 0.27812989E-01 0.89551234E+02</pdfrwt>
<pdfrwt beam="2">  1       -4 0.17061169E-02 0.89551234E+02</pdfrwt>
<totfact> 0.22800251E+04</totfact>
</mgrwt>
</event>
<event>
 5    1  0.6112843E+000  0.7345089E+02  0.7546771E-02  0.1348736E+00
         -1   -1    0    0    0  501 -0.00000000000E+00  0.00000000000E+00  0.18176778961E+03  0.18176778961E+03  0.00000000000E+00 0.  1.
          1   -1    0    0  501    0  0.00000000000E+00 -0.00000000000E+00 -0.74202277393E+01  0.74202277393E+01  0.00000000000E+00 0. -1.
         23    2    1    2    0    0  0.00000000000E+00  0.00000000000E+00  0.17434756187E+03  0.18918801735E+03  0.73450892290E+02 0.  0.
        -13    1    3    3    0    0 -0.20435231190E+02 -0.21764812717E+02  0.14226338143E+03  0.14536222151E+03  0.00000000000E+00 0.  1.
         13    1    3    3    0    0  0.20435231190E+02  0.21764812717E+02  0.32084180441E+02  0.43825795840E+02  0.00000000000E+00 0. -1.
<mgrwt>
<rscale>  0 0.73450892E+02</rscale>
<asrwt>0</asrwt>
<pdfrwt beam="2">  1        1 0.11415736E-02 0.73450892E+02</pdfrwt>
<pdfrwt beam="1">  1       -1 0.27964272E-01 0.73450892E+02</pdfrwt>
<totfact> 0.12462279E+05</totfact>
</mgrwt>
</event>
<event>
 5    1  0.6112843E+000  0.9422711E+02  0.7546771E-02  0.1292926E+00
          2   -1    0    0  501    0  0.00000000000E+00  0.00000000000E+00  0.83568247992E+02  0.83568247992E+02  0.00000000000E+00 0. -1.
         -2   -1    0    0    0  501 -0.00000000000E+00 -0.00000000000E+00 -0.26561369871E+02  0.26561369871E+02  0.00000000000E+00 0.  1.
         23    2    1    2    0    0  0.00000000000E+00  0.00000000000E+00  0.57006878122E+02  0.11012961786E+03  0.94227111690E+02 0.  0.
        -13    1    3    3    0    0  0.96284070443E+01 -0.28661903345E+02 -0.13725749422E+02  0.33205528497E+02  0.00000000000E+00 0.  1.
         13    1    3    3    0    0 -0.96284070443E+01  0.28661903345E+02  0.70732627544E+02  0.76924089366E+02  0.00000000000E+00 0. -1.
<mgrwt>
<rscale>  0 0.94227112E+02</rscale>
<asrwt>0</asrwt>
<pdfrwt beam="1">  1        2 0.12856653E-01 0.94227112E+02</pdfrwt>
<pdfrwt beam="2">  1       -2 0.40863646E-02 0.94227112E+02</pdfrwt>
<totfact> 0.10612709E+05</totfact>
</mgrwt>
</event>
<event>
 5    1  0.6112843E+000  0.9456402E+02  0.7546771E-02  0.1292161E+00
         -1   -1    0    0    0  501 -0.00000000000E+00  0.00000000000E+00  0.30330124943E+02  0.30330124943E+02  0.00000000000E+00 0.  1.
          1   -1    0    0  501    0  0.00000000000E+00 -0.00000000000E+00 -0.73708509050E+02  0.73708509050E+02  0.00000000000E+00 0. -1.
         23    2    1    2    0    0  0.00000000000E+00  0.00000000000E+00 -0.43378384108E+02  0.10403863399E+03  0.94564016176E+02 0.  0.
        -13    1    3    3    0    0 -0.58969937212E+01 -0.29409772278E+02  0.18522495741E+02  0.35253256430E+02  0.00000000000E+00 0.  1.
         13    1    3    3    0    0  0.58969937212E+01  0.29409772278E+02 -0.61900879849E+02  0.68785377563E+02  0.00000000000E+00 0. -1.
<mgrwt>
<rscale>  0 0.94564016E+02</rscale>
<asrwt>0</asrwt>
<pdfrwt beam="2">  1        1 0.11339771E-01 0.94564016E+02</pdfrwt>
<pdfrwt beam="1">  1       -1 0.46661731E-02 0.94564016E+02</pdfrwt>
<totfact> 0.89926169E+04</totfact>
</mgrwt>
</event>
<event>
 5    1  0.6112843E+000  0.9366146E+02  0.7546771E-02  0.1294220E+00
          1   -1    0    0  501    0  0.00000000000E+00  0.00000000000E+00  0.22297284131E+03  0.22297284131E+03  0.00000000000E+00 0.  1.
         -1   -1    0    0    0  501 -0.00000000000E+00 -0.00000000000E+00 -0.98358048217E+01  0.98358048217E+01  0.00000000000E+00 0. -1.
         23    2    1    2    0    0  0.00000000000E+00  0.00000000000E+00  0.21313703649E+03  0.23280864613E+03  0.93661461609E+02 0.  0.
        -13    1    3    3    0    0 -0.45486335834E+02  0.10387042052E+02  0.96557850892E+02  0.10723952610E+03  0.00000000000E+00 0.  1.
         13    1    3    3    0    0  0.45486335834E+02 -0.10387042052E+02  0.11657918560E+03  0.12556912003E+03  0.00000000000E+00 0. -1.
<mgrwt>
<rscale>  0 0.93661462E+02</rscale>
<asrwt>0</asrwt>
<pdfrwt beam="1">  1        1 0.34303510E-01 0.93661462E+02</pdfrwt>
<pdfrwt beam="2">  1       -1 0.15132009E-02 0.93661462E+02</pdfrwt>
<totfact> 0.11252451E+05</totfact>
</mgrwt>
</event>
<event>
 5    1  0.6112843E+000  0.9139788E+02  0.7546771E-02  0.1299501E+00
         -1   -1    0    0    0  501 -0.00000000000E+00  0.00000000000E+00  0.13364636362E+02  0.13364636362E+02  0.00000000000E+00 0.  1.
          1   -1    0    0  501    0  0.00000000000E+00 -0.00000000000E+00 -0.15626262144E+03  0.15626262144E+03  0.00000000000E+00 0. -1.
         23    2    1    2    0    0  0.00000000000E+00  0.00000000000E+00 -0.14289798508E+03  0.16962725780E+03  0.91397879899E+02 0.  0.
        -13    1    3    3    0    0  0.34034011109E+02 -0.30180235842E+02 -0.63309859972E+02  0.77957032507E+02  0.00000000000E+00 0.  1.
         13    1    3    3    0    0 -0.34034011109E+02  0.30180235842E+02 -0.79588125110E+02  0.91670225298E+02  0.00000000000E+00 0. -1.
<mgrwt>
<rscale>  0 0.91397880E+02</rscale>
<asrwt>0</asrwt>
<pdfrwt beam="2">  1        1 0.24040401E-01 0.91397880E+02</pdfrwt>
<pdfrwt beam="1">  1       -1 0.20560981E-02 0.91397880E+02</pdfrwt>
<totfact> 0.11224707E+05</totfact>
</mgrwt>
</event>
<event>
 5    1  0.6112843E+000  0.9087699E+02  0.7546771E-02  0.1300742E+00
         -2   -1    0    0    0  501 -0.00000000000E+00  0.00000000000E+00  0.13892071934E+03  0.13892071934E+03  0.00000000000E+00 0. -1.
          2   -1    0    0  501    0  0.00000000000E+00 -0.00000000000E+00 -0.14862122319E+02  0.14862122319E+02  0.00000000000E+00 0.  1.
         23    2    1    2    0    0  0.00000000000E+00  0.00000000000E+00  0.12405859702E+03  0.15378284166E+03  0.90876987703E+02 0.  0.
        -13    1    3    3    0    0  0.13803640259E+02  0.18050276826E+02  0.12861516273E+03  0.13060709423E+03  0.00000000000E+00 0. -1.
         13    1    3    3    0    0 -0.13803640259E+02 -0.18050276826E+02 -0.45565657112E+01  0.23175747431E+02  0.00000000000E+00 0.  1.
<mgrwt>
<rscale>  0 0.90876988E+02</rscale>
<asrwt>0</asrwt>
<pdfrwt beam="2">  1        2 0.22864805E-02 0.90876988E+02</pdfrwt>
<pdfrwt beam="1">  1       -2 0.21372417E-01 0.90876988E+02</pdfrwt>
<totfact> 0.72393449E+04</totfact>
</mgrwt>
</event>
<event>
 5    1  0.6112843E+000  0.9188881E+02  0.7546771E-02  0.1298341E+00
          1   -1    0    0  501    0  0.00000000000E+00  0.00000000000E+00  0.15173762527E+02  0.15173762527E+02  0.00000000000E+00 0. -1.
         -1   -1    0    0    0  501 -0.00000000000E+00 -0.00000000000E+00 -0.13911437024E+03  0.13911437024E+03  0.00000000000E+00 0.  1.
         23    2    1    2    0    0  0.00000000000E+00  0.00000000000E+00 -0.12394060771E+03  0.15428813277E+03  0.91888811467E+02 0.  0.
        -13    1    3    3    0    0 -0.22507258587E+02  0.31215727079E+02 -0.10411105616E+03  0.11099599236E+03  0.00000000000E+00 0.  1.
         13    1    3    3    0    0  0.22507258587E+02 -0.31215727079E+02 -0.19829551558E+02  0.43292140408E+02  0.00000000000E+00 0. -1.
<mgrwt>
<rscale>  0 0.91888811E+02</rscale>
<asrwt>0</asrwt>
<pdfrwt beam="1">  1        1 0.23344250E-02 0.91888811E+02</pdfrwt>
<pdfrwt beam="2">  1       -1 0.21402211E-01 0.91888811E+02</pdfrwt>
<totfact> 0.74567506E+04</totfact>
</mgrwt>
</event>
<event>
 5    1  0.6112843E+000  0.9052556E+02  0.7546771E-02  0.1301584E+00
          1   -1    0    0  501    0  0.00000000000E+00  0.00000000000E+00  0.18329753018E+02  0.18329753018E+02  0.00000000000E+00 0. -1.
         -1   -1    0    0    0  501 -0.00000000000E+00 -0.00000000000E+00 -0.11177014288E+03  0.11177014288E+03  0.00000000000E+00 0.  1.
         23    2    1    2    0    0  0.00000000000E+00  0.00000000000E+00 -0.93440389860E+02  0.13009989590E+03  0.90525556915E+02 0.  0.
        -13    1    3    3    0    0 -0.26914425371E+02 -0.71549761677E+01  0.45592928079E+01  0.28219977462E+02  0.00000000000E+00 0. -1.
         13    1    3    3    0    0  0.26914425371E+02  0.71549761677E+01 -0.97999682668E+02  0.10187991843E+03  0.00000000000E+00 0.  1.
<mgrwt>
<rscale>  0 0.90525557E+02</rscale>
<asrwt>0</asrwt>
<pdfrwt beam="1">  1        1 0.28199620E-02 0.90525557E+02</pdfrwt>
<pdfrwt beam="2">  1       -1 0.17195407E-01 0.90525557E+02</pdfrwt>
<totfact> 0.81144511E+04</totfact>
</mgrwt>
</event>
<event>
 5    1  0.6112843E+000  0.9553734E+02  0.7546771E-02  0.1289970E+00
          2   -1    0    0  501    0  0.00000000000E+00  0.00000000000E+00  0.15448135517E+03  0.15448135517E+03  0.00000000000E+00 0. -1.
         -2   -1    0    0    0  501 -0.00000000000E+00 -0.00000000000E+00 -0.14771011410E+02  0.14771011410E+02  0.00000000000E+00 0.  1.
         23    2    1    2    0    0  0.00000000000E+00  0.00000000000E+00  0.13971034376E+03  0.16925236658E+03  0.95537340550E+02 0.  0.
        -13    1    3    3    0    0  0.30356745332E+02  0.32465337739E+02  0.38849136127E+02  0.59032071957E+02  0.00000000000E+00 0.  1.
         13    1    3    3    0    0 -0.30356745332E+02 -0.32465337739E+02  0.10086120764E+03  0.11022029463E+03  0.00000000000E+00 0. -1.
<mgrwt>
<rscale>  0 0.95537341E+02</rscale>
<asrwt>0</asrwt>
<pdfrwt beam="1">  1        2 0.23766361E-01 0.95537341E+02</pdfrwt>
<pdfrwt beam="2">  1       -2 0.22724634E-02 0.95537341E+02</pdfrwt>
<totfact> 0.12435871E+05</totfact>
</mgrwt>
</event>
<event>
 5    1  0.6112843E+000  0.9669117E+02  0.7546771E-02  0.1287412E+00
          2   -1    0    0  501    0  0.00000000000E+00  0.00000000000E+00  0.18114975191E+03  0.18114975191E+03  0.00000000000E+00 0. -1.
         -2   -1    0    0    0  501 -0.00000000000E+00 -0.00000000000E+00 -0.12902560458E+02  0.12902560458E+02  0.00000000000E+00 0.  1.
         23    2    1    2    0    0  0.00000000000E+00  0.00000000000E+00  0.16824719145E+03  0.19405231236E+03  0.96691170765E+02 0.  0.
        -13    1    3    3    0    0 -0.44049079202E+02  0.28320270658E+00  0.44141155734E+02  0.62360590214E+02  0.00000000000E+00 0.  1.
         13    1    3    3    0    0  0.44049079202E+02 -0.28320270658E+00  0.12410603571E+03  0.13169172215E+03  0.00000000000E+00 0. -1.
<mgrwt>
<rscale>  0 0.96691171E+02</rscale>
<asrwt>0</asrwt>
<pdfrwt beam="1">  1        2 0.27869191E-01 0.96691171E+02</pdfrwt>
<pdfrwt beam="2">  1       -2 0.19850094E-02 0.96691171E+02</pdfrwt>
<totfact> 0.12731494E+05</totfact>
</mgrwt>
</event>
<event>
 5    1  0.6112843E+000  0.9228934E+02  0.7546771E-02  0.1297401E+00
         -2   -1    0    0    0  501 -0.00000000000E+00  0.00000000000E+00  0.14678595867E+02  0.14678595867E+02  0.00000000000E+00 0.  1.
          2   -1    0    0  501    0  0.00000000000E+00 -0.00000000000E+00 -0.14506364719E+03  0.14506364719E+03  0.00000000000E+00 0. -1.
         23    2    1    2    0    0  0.00000000000E+00  0.00000000000E+00 -0.13038505132E+03  0.15974224306E+03  0.92289341792E+02 0.  0.
        -13    1    3    3    0    0  0.32461184533E+02 -0.29678324046E+02 -0.89350574265E+02  0.99589439906E+02  0.00000000000E+00 0. -1.
         13    1    3    3    0    0 -0.32461184533E+02  0.29678324046E+02 -0.41034477056E+02  0.60152803149E+02  0.00000000000E+00 0.  1.
<mgrwt>
<rscale>  0 0.92289342E+02</rscale>
<asrwt>0</asrwt>
<pdfrwt beam="2">  1        2 0.22317485E-01 0.92289342E+02</pdfrwt>
<pdfrwt beam="1">  1       -2 0.22582455E-02 0.92289342E+02</pdfrwt>
<totfact> 0.13374570E+05</totfact>
</mgrwt>
</event>
<event>
 5    1  0.6112843E+000  0.7947401E+02  0.7546771E-02  0.1330551E+00
         -2   -1    0    0    0  501 -0.00000000000E+00  0.00000000000E+00  0.76293271913E+01  0.76293271913E+01  0.00000000000E+00 0.  1.
          2   -1    0    0  501    0  0.00000000000E+00 -0.00000000000E+00 -0.20696839608E+03  0.20696839608E+03  0.00000000000E+00 0. -1.
         23    2    1    2    0    0  0.00000000000E+00  0.00000000000E+00 -0.19933906889E+03  0.21459772327E+03  0.79474011147E+02 0.  0.
        -13    1    3    3    0    0  0.24438508136E+01 -0.33152782740E+02 -0.40884560045E+02  0.52693706079E+02  0.00000000000E+00 0.  1.
         13    1    3    3    0    0 -0.24438508136E+01  0.33152782740E+02 -0.15845450884E+03  0.16190401719E+03  0.00000000000E+00 0. -1.
<mgrwt>
<rscale>  0 0.79474011E+02</rscale>
<asrwt>0</asrwt>
<pdfrwt beam="2">  1        2 0.31841288E-01 0.79474011E+02</pdfrwt>
<pdfrwt beam="1">  1       -2 0.11737428E-02 0.79474011E+02</pdfrwt>
<totfact> 0.22591402E+05</totfact>
</mgrwt>
</event>
<event>
 5    1  0.6112843E+000  0.9093703E+02  0.7546771E-02  0.1300598E+00
         -3   -1    0    0    0  501 -0.00000000000E+00  0.00000000000E+00  0.98128941475E+01  0.98128941475E+01  0.00000000000E+00 0.  1.
          3   -1    0    0  501    0  0.00000000000E+00 -0.00000000000E+00 -0.21068055806E+03  0.21068055806E+03  0.00000000000E+00 0. -1.
         23    2    1    2    0    0  0.00000000000E+00  0.00000000000E+00 -0.20086766391E+03  0.22049345221E+03  0.90937033494E+02 0.  0.
        -13    1    3    3    0    0  0.13880593064E+01  0.34507132961E+02 -0.28722346599E+02  0.44918171468E+02  0.00000000000E+00 0.  1.
         13    1    3    3    0    0 -0.13880593064E+01 -0.34507132961E+02 -0.17214531731E+03  0.17557528074E+03  0.00000000000E+00 0. -1.
<mgrwt>
<rscale>  0 0.90937033E+02</rscale>
<asrwt>0</asrwt>
<pdfrwt beam="2">  1        3 0.32412388E-01 0.90937033E+02</pdfrwt>
<pdfrwt beam="1">  1       -3 0.15096763E-02 0.90937033E+02</pdfrwt>
<totfact> 0.27668352E+04</totfact>
</mgrwt>
</event>
<event>
 5    1  0.6112843E+000  0.8697703E+02  0.7546771E-02  0.1310342E+00
         -2   -1    0    0    0  501 -0.00000000000E+00  0.00000000000E+00  0.22727046434E+02  0.22727046434E+02  0.00000000000E+00 0.  1.
          2   -1    0    0  501    0  0.00000000000E+00 -0.00000000000E+00 -0.83215865617E+02  0.83215865617E+02  0.00000000000E+00 0. -1.
         23    2    1    2    0    0  0.00000000000E+00  0.00000000000E+00 -0.60488819183E+02  0.10594291205E+03  0.86977027815E+02 0.  0.
        -13    1    3    3    0    0 -0.17529855769E+02  0.37165268847E+02 -0.47586116834E+02  0.62872820576E+02  0.00000000000E+00 0. -1.
         13    1    3    3    0    0  0.17529855769E+02 -0.37165268847E+02 -0.12902702348E+02  0.43070091475E+02  0.00000000000E+00 0.  1.
<mgrwt>
<rscale>  0 0.86977028E+02</rscale>
<asrwt>0</asrwt>
<pdfrwt beam="2">  1        2 0.12802441E-01 0.86977028E+02</pdfrwt>
<pdfrwt beam="1">  1       -2 0.34964686E-02 0.86977028E+02</pdfrwt>
<totfact> 0.13232375E+05</totfact>
</mgrwt>
</event>
<event>
 5    1  0.6112843E+000  0.9276821E+02  0.7546771E-02  0.1296283E+00
          2   -1    0    0  501    0  0.00000000000E+00  0.00000000000E+00  0.16919272575E+03  0.16919272575E+03  0.00000000000E+00 0. -1.
         -2   -1    0    0    0  501 -0.00000000000E+00 -0.00000000000E+00 -0.12716179706E+02  0.12716179706E+02  0.00000000000E+00 0.  1.
         23    2    1    2    0    0  0.00000000000E+00  0.00000000000E+00  0.15647654604E+03  0.18190890545E+03  0.92768208036E+02 0.  0.
        -13    1    3    3    0    0  0.40705417213E+01 -0.30980198131E+02  0.14545853089E+03  0.14877676631E+03  0.00000000000E+00 0. -1.
         13    1    3    3    0    0 -0.40705417213E+01  0.30980198131E+02  0.11018015153E+02  0.33132139141E+02  0.00000000000E+00 0.  1.
<mgrwt>
<rscale>  0 0.92768208E+02</rscale>
<asrwt>0</asrwt>
<pdfrwt beam="1">  1        2 0.26029649E-01 0.92768208E+02</pdfrwt>
<pdfrwt beam="2">  1       -2 0.19563355E-02 0.92768208E+02</pdfrwt>
<totfact> 0.13906129E+05</totfact>
</mgrwt>
</event>
<event>
 5    1  0.6112843E+000  0.8993264E+02  0.7546771E-02  0.1303015E+00
          1   -1    0    0  501    0  0.00000000000E+00  0.00000000000E+00  0.22519803455E+02  0.22519803455E+02  0.00000000000E+00 0. -1.
         -1   -1    0    0    0  501 -0.00000000000E+00 -0.00000000000E+00 -0.89786298118E+02  0.89786298118E+02  0.00000000000E+00 0.  1.
         23    2    1    2    0    0  0.00000000000E+00  0.00000000000E+00 -0.67266494663E+02  0.11230610157E+03  0.89932636714E+02 0.  0.
        -13    1    3    3    0    0  0.31169619532E+02 -0.36173916658E+01  0.65871536221E+01  0.32062771201E+02  0.00000000000E+00 0. -1.
         13    1    3    3    0    0 -0.31169619532E+02  0.36173916658E+01 -0.73853648285E+02  0.80243330372E+02  0.00000000000E+00 0.  1.
<mgrwt>
<rscale>  0 0.89932637E+02</rscale>
<asrwt>0</asrwt>
<pdfrwt beam="1">  1        1 0.34645851E-02 0.89932637E+02</pdfrwt>
<pdfrwt beam="2">  1       -1 0.13813277E-01 0.89932637E+02</pdfrwt>
<totfact> 0.85954245E+04</totfact>
</mgrwt>
</event>
<event>
 5    1  0.6112843E+000  0.9215862E+02  0.7546771E-02  0.1297707E+00
          4   -1    0    0  501    0  0.00000000000E+00  0.00000000000E+00  0.64129173286E+01  0.64129173286E+01  0.00000000000E+00 0. -1.
         -4   -1    0    0    0  501 -0.00000000000E+00 -0.00000000000E+00 -0.33109776973E+03  0.33109776973E+03  0.00000000000E+00 0.  1.
         23    2    1    2    0    0  0.00000000000E+00  0.00000000000E+00 -0.32468485240E+03  0.33751068706E+03  0.92158615983E+02 0.  0.
        -13    1    3    3    0    0 -0.28372640689E+02  0.35996213944E+02 -0.14494429447E+03  0.15201836290E+03  0.00000000000E+00 0.  1.
         13    1    3    3    0    0  0.28372640689E+02 -0.35996213944E+02 -0.17974055793E+03  0.18549232416E+03  0.00000000000E+00 0. -1.
<mgrwt>
<rscale>  0 0.92158616E+02</rscale>
<asrwt>0</asrwt>
<pdfrwt beam="1">  1        4 0.98660264E-03 0.92158616E+02</pdfrwt>
<pdfrwt beam="2">  1       -4 0.50938120E-01 0.92158616E+02</pdfrwt>
<totfact> 0.16264237E+04</totfact>
</mgrwt>
</event>
<event>
 5    1  0.6112843E+000  0.9517656E+02  0.7546771E-02  0.1290779E+00
         -1   -1    0    0    0  501 -0.00000000000E+00  0.00000000000E+00  0.13811668799E+02  0.13811668799E+02  0.00000000000E+00 0.  1.
          1   -1    0    0  501    0  0.00000000000E+00 -0.00000000000E+00 -0.16396601686E+03  0.16396601686E+03  0.00000000000E+00 0. -1.
         23    2    1    2    0    0  0.00000000000E+00  0.00000000000E+00 -0.15015434806E+03  0.17777768566E+03  0.95176558439E+02 0.  0.
        -13    1    3    3    0    0  0.22198168367E+02  0.37209428469E+02 -0.11183888439E+03  0.11993846884E+03  0.00000000000E+00 0. -1.
         13    1    3    3    0    0 -0.22198168367E+02 -0.37209428469E+02 -0.38315463666E+02  0.57839216815E+02  0.00000000000E+00 0.  1.
<mgrwt>
<rscale>  0 0.95176558E+02</rscale>
<asrwt>0</asrwt>
<pdfrwt beam="2">  1        1 0.25225543E-01 0.95176558E+02</pdfrwt>
<pdfrwt beam="1">  1       -1 0.21248720E-02 0.95176558E+02</pdfrwt>
<totfact> 0.10151730E+05</totfact>
</mgrwt>
</event>
<event>
 5    1  0.6112843E+000  0.9164371E+02  0.7546771E-02  0.1298919E+00
         -2   -1    0    0    0  501 -0.00000000000E+00  0.00000000000E+00  0.13342740539E+02  0.13342740539E+02  0.00000000000E+00 0.  1.
          2   -1    0    0  501    0  0.00000000000E+00 -0.00000000000E+00 -0.15736215640E+03  0.15736215640E+03  0.00000000000E+00 0. -1.
         23    2    1    2    0    0  0.00000000000E+00  0.00000000000E+00 -0.14401941586E+03  0.17070489694E+03  0.91643710610E+02 0.  0.
        -13    1    3    3    0    0 -0.28773630876E+02 -0.22644128168E+02 -0.12332584031E+03  0.12864657501E+03  0.00000000000E+00 0. -1.
         13    1    3    3    0    0  0.28773630876E+02  0.22644128168E+02 -0.20693575553E+02  0.42058321929E+02  0.00000000000E+00 0.  1.
<mgrwt>
<rscale>  0 0.91643711E+02</rscale>
<asrwt>0</asrwt>
<pdfrwt beam="2">  1        2 0.24209562E-01 0.91643711E+02</pdfrwt>
<pdfrwt beam="1">  1       -2 0.20527294E-02 0.91643711E+02</pdfrwt>
<totfact> 0.14016397E+05</totfact>
</mgrwt>
</event>
<event>
 5    1  0.6112843E+000  0.7936366E+02  0.7546771E-02  0.1330867E+00
          2   -1    0    0  501    0  0.00000000000E+00  0.00000000000E+00  0.16390638919E+03  0.16390638919E+03  0.00000000000E+00 0. -1.
         -2   -1    0    0    0  501 -0.00000000000E+00 -0.00000000000E+00 -0.96069935025E+01  0.96069935025E+01  0.00000000000E+00 0.  1.
         23    2    1    2    0    0  0.00000000000E+00  0.00000000000E+00  0.15429939569E+03  0.17351338270E+03  0.79363659593E+02 0.  0.
        -13    1    3    3    0    0 -0.84313259234E+01  0.27522225656E+02  0.13686782229E+03  0.13986193528E+03  0.00000000000E+00 0. -1.
         13    1    3    3    0    0  0.84313259234E+01 -0.27522225656E+02  0.17431573399E+02  0.33651447414E+02  0.00000000000E+00 0.  1.
<mgrwt>
<rscale>  0 0.79363660E+02</rscale>
<asrwt>0</asrwt>
<pdfrwt beam="1">  1        2 0.25216366E-01 0.79363660E+02</pdfrwt>
<pdfrwt beam="2">  1       -2 0.14779991E-02 0.79363660E+02</pdfrwt>
<totfact> 0.20912673E+05</totfact>
</mgrwt>
</event>
<event>
 5    1  0.6112843E+000  0.8864991E+02  0.7546771E-02  0.1306154E+00
          1   -1    0    0  501    0  0.00000000000E+00  0.00000000000E+00  0.61717689336E+01  0.61717689336E+01  0.00000000000E+00 0. -1.
         -1   -1    0    0    0  501 -0.00000000000E+00 -0.00000000000E+00 -0.31833690344E+03  0.31833690344E+03  0.00000000000E+00 0.  1.
         23    2    1    2    0    0  0.00000000000E+00  0.00000000000E+00 -0.31216513451E+03  0.32450867237E+03  0.88649913955E+02 0.  0.
        -13    1    3    3    0    0 -0.30058242478E+02  0.28874280380E+02 -0.21129277874E+03  0.21536448258E+03  0.00000000000E+00 0. -1.
         13    1    3    3    0    0  0.30058242478E+02 -0.28874280380E+02 -0.10087235576E+03  0.10914418979E+03  0.00000000000E+00 0.  1.
<mgrwt>
<rscale>  0 0.88649914E+02</rscale>
<asrwt>0</asrwt>
<pdfrwt beam="1">  1        1 0.94950260E-03 0.88649914E+02</pdfrwt>
<pdfrwt beam="2">  1       -1 0.48974924E-01 0.88649914E+02</pdfrwt>
<totfact> 0.63659774E+04</totfact>
</mgrwt>
</event>
<event>
 5    1  0.6112843E+000  0.9035834E+02  0.7546771E-02  0.1301986E+00
          2   -1    0    0  501    0  0.00000000000E+00  0.00000000000E+00  0.76438479719E+02  0.76438479719E+02  0.00000000000E+00 0. -1.
         -2   -1    0    0    0  501 -0.00000000000E+00 -0.00000000000E+00 -0.26703267812E+02  0.26703267812E+02  0.00000000000E+00 0.  1.
         23    2    1    2    0    0  0.00000000000E+00  0.00000000000E+00  0.49735211907E+02  0.10314174753E+03  0.90358335422E+02 0.  0.
        -13    1    3    3    0    0  0.32476959178E+02 -0.10866164398E+02 -0.87687441180E+01  0.35351340563E+02  0.00000000000E+00 0.  1.
         13    1    3    3    0    0 -0.32476959178E+02  0.10866164398E+02  0.58503956025E+02  0.67790406967E+02  0.00000000000E+00 0. -1.
<mgrwt>
<rscale>  0 0.90358335E+02</rscale>
<asrwt>0</asrwt>
<pdfrwt beam="1">  1        2 0.11759766E-01 0.90358335E+02</pdfrwt>
<pdfrwt beam="2">  1       -2 0.41081951E-02 0.90358335E+02</pdfrwt>
<totfact> 0.11625751E+05</totfact>
</mgrwt>
</event>
<event>
 5    1  0.6112843E+000  0.9282042E+02  0.7546771E-02  0.1296162E+00
          3   -1    0    0  501    0  0.00000000000E+00  0.00000000000E+00  0.10984275988E+02  0.10984275988E+02  0.00000000000E+00 0.  1.
         -3   -1    0    0    0  501 -0.00000000000E+00 -0.00000000000E+00 -0.19609009103E+03  0.19609009103E+03  0.00000000000E+00 0. -1.
         23    2    1    2    0    0  0.00000000000E+00  0.00000000000E+00 -0.18510581504E+03  0.20707436702E+03  0.92820421855E+02 0.  0.
        -13    1    3    3    0    0  0.31866047082E+02 -0.33430738243E+02 -0.10273928622E+03  0.11264288770E+03  0.00000000000E+00 0.  1.
         13    1    3    3    0    0 -0.31866047082E+02  0.33430738243E+02 -0.82366528824E+02  0.94431479320E+02  0.00000000000E+00 0. -1.
<mgrwt>
<rscale>  0 0.92820422E+02</rscale>
<asrwt>0</asrwt>
<pdfrwt beam="1">  1        3 0.16898885E-02 0.92820422E+02</pdfrwt>
<pdfrwt beam="2">  1       -3 0.30167708E-01 0.92820422E+02</pdfrwt>
<totfact> 0.26808631E+04</totfact>
</mgrwt>
</event>
<event>
 5    1  0.6112843E+000  0.8193054E+02  0.7546771E-02  0.1323660E+00
          2   -1    0    0  501    0  0.00000000000E+00  0.00000000000E+00  0.13805669792E+03  0.13805669792E+03  0.00000000000E+00 0.  1.
         -2   -1    0    0    0  501 -0.00000000000E+00 -0.00000000000E+00 -0.12155536755E+02  0.12155536755E+02  0.00000000000E+00 0. -1.
         23    2    1    2    0    0  0.00000000000E+00  0.00000000000E+00  0.12590116117E+03  0.15021223468E+03  0.81930538041E+02 0.  0.
        -13    1    3    3    0    0 -0.32007053570E+02  0.25544252367E+02  0.60948082071E+02  0.73427712857E+02  0.00000000000E+00 0.  1.
         13    1    3    3    0    0  0.32007053570E+02 -0.25544252367E+02  0.64953079097E+02  0.76784521822E+02  0.00000000000E+00 0. -1.
<mgrwt>
<rscale>  0 0.81930538E+02</rscale>
<asrwt>0</asrwt>
<pdfrwt beam="1">  1        2 0.21239491E-01 0.81930538E+02</pdfrwt>
<pdfrwt beam="2">  1       -2 0.18700827E-02 0.81930538E+02</pdfrwt>
<totfact> 0.18147393E+05</totfact>
</mgrwt>
</event>
<event>
 5    1  0.6112843E+000  0.9418969E+02  0.7546771E-02  0.1293012E+00
         -3   -1    0    0    0  501 -0.00000000000E+00  0.00000000000E+00  0.12114232559E+02  0.12114232559E+02  0.00000000000E+00 0.  1.
          3   -1    0    0  501    0  0.00000000000E+00 -0.00000000000E+00 -0.18308416926E+03  0.18308416926E+03  0.00000000000E+00 0. -1.
         23    2    1    2    0    0  0.00000000000E+00  0.00000000000E+00 -0.17096993670E+03  0.19519840182E+03  0.94189685301E+02 0.  0.
        -13    1    3    3    0    0 -0.60411298573E+01  0.43999073084E+02 -0.11795688822E+03  0.12604063298E+03  0.00000000000E+00 0. -1.
         13    1    3    3    0    0  0.60411298573E+01 -0.43999073084E+02 -0.53013048477E+02  0.69157768840E+02  0.00000000000E+00 0.  1.
<mgrwt>
<rscale>  0 0.94189685E+02</rscale>
<asrwt>0</asrwt>
<pdfrwt beam="2">  1        3 0.28166793E-01 0.94189685E+02</pdfrwt>
<pdfrwt beam="1">  1       -3 0.18637283E-02 0.94189685E+02</pdfrwt>
<totfact> 0.26326410E+04</totfact>
</mgrwt>
</event>
<event>
 5    1  0.6112843E+000  0.8997626E+02  0.7546771E-02  0.1302909E+00
         -2   -1    0    0    0  501 -0.00000000000E+00  0.00000000000E+00  0.19932122916E+02  0.19932122916E+02  0.00000000000E+00 0.  1.
          2   -1    0    0  501    0  0.00000000000E+00 -0.00000000000E+00 -0.10154120457E+03  0.10154120457E+03  0.00000000000E+00 0. -1.
         23    2    1    2    0    0  0.00000000000E+00  0.00000000000E+00 -0.81609081653E+02  0.12147332749E+03  0.89976258436E+02 0.  0.
        -13    1    3    3    0    0  0.42550000491E+02  0.12286302188E+02 -0.51475651696E+02  0.67905805943E+02  0.00000000000E+00 0.  1.
         13    1    3    3    0    0 -0.42550000491E+02 -0.12286302188E+02 -0.30133429957E+02  0.53567521543E+02  0.00000000000E+00 0. -1.
<mgrwt>
<rscale>  0 0.89976258E+02</rscale>
<asrwt>0</asrwt>
<pdfrwt beam="2">  1        2 0.15621724E-01 0.89976258E+02</pdfrwt>
<pdfrwt beam="1">  1       -2 0.30664804E-02 0.89976258E+02</pdfrwt>
<totfact> 0.12782005E+05</totfact>
</mgrwt>
</event>
<event>
 5    1  0.6112843E+000  0.9333657E+02  0.7546771E-02  0.1294967E+00
         -4   -1    0    0    0  501 -0.00000000000E+00  0.00000000000E+00  0.13166186685E+02  0.13166186685E+02  0.00000000000E+00 0.  1.
          4   -1    0    0  501    0  0.00000000000E+00 -0.00000000000E+00 -0.16541835867E+03  0.16541835867E+03  0.00000000000E+00 0. -1.
         23    2    1    2    0    0  0.00000000000E+00  0.00000000000E+00 -0.15225217199E+03  0.17858454536E+03  0.93336573568E+02 0.  0.
        -13    1    3    3    0    0 -0.36330178812E+02 -0.28959300457E+02 -0.67697393479E+02  0.82106394752E+02  0.00000000000E+00 0. -1.
         13    1    3    3    0    0  0.36330178812E+02  0.28959300457E+02 -0.84554778510E+02  0.96478150606E+02  0.00000000000E+00 0.  1.
<mgrwt>
<rscale>  0 0.93336574E+02</rscale>
<asrwt>0</asrwt>
<pdfrwt beam="2">  1        4 0.25448977E-01 0.93336574E+02</pdfrwt>
<pdfrwt beam="1">  1       -4 0.20255673E-02 0.93336574E+02</pdfrwt>
<totfact> 0.20952286E+04</totfact>
</mgrwt>
</event>
<event>
 5    1  0.6112843E+000  0.8916056E+02  0.7546771E-02  0.1304897E+00
          4   -1    0    0  501    0  0.00000000000E+00  0.00000000000E+00  0.76726654972E+02  0.76726654972E+02  0.00000000000E+00 0.  1.
         -4   -1    0    0    0  501 -0.00000000000E+00 -0.00000000000E+00 -0.25902356339E+02  0.25902356339E+02  0.00000000000E+00 0. -1.
         23    2    1    2    0    0  0.00000000000E+00  0.00000000000E+00  0.50824298633E+02  0.10262901131E+03  0.89160555354E+02 0.  0.
        -13    1    3    3    0    0  0.16324668438E+02  0.34495232675E+02  0.51936125019E+02  0.64449801853E+02  0.00000000000E+00 0.  1.
         13    1    3    3    0    0 -0.16324668438E+02 -0.34495232675E+02 -0.11118263864E+01  0.38179209458E+02  0.00000000000E+00 0. -1.
<mgrwt>
<rscale>  0 0.89160555E+02</rscale>
<asrwt>0</asrwt>
<pdfrwt beam="1">  1        4 0.11804101E-01 0.89160555E+02</pdfrwt>
<pdfrwt beam="2">  1       -4 0.39849779E-02 0.89160555E+02</pdfrwt>
<totfact> 0.27933057E+04</totfact>
</mgrwt>
</event>
<event>
 5    1  0.6112843E+000  0.9124764E+02  0.7546771E-02  0.1299858E+00
          2   -1    0    0  501    0  0.00000000000E+00  0.00000000000E+00  0.21082915490E+03  0.21082915490E+03  0.00000000000E+00 0. -1.
         -2   -1    0    0    0  501 -0.00000000000E+00 -0.00000000000E+00 -0.98730792667E+01  0.98730792667E+01  0.00000000000E+00 0.  1.
         23    2    1    2    0    0  0.00000000000E+00  0.00000000000E+00  0.20095607563E+03  0.22070223417E+03  0.91247640146E+02 0.  0.
        -13    1    3    3    0    0 -0.19464305775E+02 -0.39913511140E+02  0.75158171334E+02  0.87296610983E+02  0.00000000000E+00 0.  1.
         13    1    3    3    0    0  0.19464305775E+02  0.39913511140E+02  0.12579790430E+03  0.13340562318E+03  0.00000000000E+00 0. -1.
<mgrwt>
<rscale>  0 0.91247640E+02</rscale>
<asrwt>0</asrwt>
<pdfrwt beam="1">  1        2 0.32435251E-01 0.91247640E+02</pdfrwt>
<pdfrwt beam="2">  1       -2 0.15189354E-02 0.91247640E+02</pdfrwt>
<totfact> 0.15733984E+05</totfact>
</mgrwt>
</event>
<event>
 5    1  0.6112843E+000  0.9372790E+02  0.7546771E-02  0.1294067E+00
          3   -1    0    0  501    0  0.00000000000E+00  0.00000000000E+00  0.87243157266E+01  0.87243157266E+01  0.00000000000E+00 0. -1.
         -3   -1    0    0    0  501 -0.00000000000E+00 -0.00000000000E+00 -0.25173663219E+03  0.25173663219E+03  0.00000000000E+00 0.  1.
         23    2    1    2    0    0  0.00000000000E+00  0.00000000000E+00 -0.24301231647E+03  0.26046094792E+03  0.93727901059E+02 0.  0.
        -13    1    3    3    0    0 -0.34997971895E+01  0.40543887010E+02 -0.56919804547E+02  0.69970847529E+02  0.00000000000E+00 0. -1.
         13    1    3    3    0    0  0.34997971895E+01 -0.40543887010E+02 -0.18609251192E+03  0.19049010039E+03  0.00000000000E+00 0.  1.
<mgrwt>
<rscale>  0 0.93727901E+02</rscale>
<asrwt>0</asrwt>
<pdfrwt beam="1">  1        3 0.13422026E-02 0.93727901E+02</pdfrwt>
<pdfrwt beam="2">  1       -3 0.38728707E-01 0.93727901E+02</pdfrwt>
<totfact> 0.23802443E+04</totfact>
</mgrwt>
</event>
<event>
 5    1  0.6112843E+000  0.9216760E+02  0.7546771E-02  0.1297686E+00
         -1   -1    0    0    0  501 -0.00000000000E+00  0.00000000000E+00  0.11581321453E+03  0.11581321453E+03  0.00000000000E+00 0.  1.
          1   -1    0    0  501    0  0.00000000000E+00 -0.00000000000E+00 -0.18337428254E+02  0.18337428254E+02  0.00000000000E+00 0. -1.
         23    2    1    2    0    0  0.00000000000E+00  0.00000000000E+00  0.97475786276E+02  0.13415064278E+03  0.92167597610E+02 0.  0.
        -13    1    3    3    0    0  0.22527135335E+02  0.31747557579E+02  0.84637252951E+02  0.93160312503E+02  0.00000000000E+00 0.  1.
         13    1    3    3    0    0 -0.22527135335E+02 -0.31747557579E+02  0.12838533325E+02  0.40990330281E+02  0.00000000000E+00 0. -1.
<mgrwt>
<rscale>  0 0.92167598E+02</rscale>
<asrwt>0</asrwt>
<pdfrwt beam="2">  1        1 0.28211429E-02 0.92167598E+02</pdfrwt>
<pdfrwt beam="1">  1       -1 0.17817417E-01 0.92167598E+02</pdfrwt>
<totfact> 0.76917109E+04</totfact>
</mgrwt>
</event>
<event>
 5    1  0.6112843E+000  0.9010263E+02  0.7546771E-02  0.1302603E+00
         -2   -1    0    0    0  501 -0.00000000000E+00  0.00000000000E+00  0.13538211348E+02  0.13538211348E+02  0.00000000000E+00 0.  1.
          2   -1    0    0  501    0  0.00000000000E+00 -0.00000000000E+00 -0.14991797179E+03  0.14991797179E+03  0.00000000000E+00 0. -1.
         23    2    1    2    0    0  0.00000000000E+00  0.00000000000E+00 -0.13637976044E+03  0.16345618314E+03  0.90102634522E+02 0.  0.
        -13    1    3    3    0    0 -0.33131910937E+02 -0.75105300049E+01 -0.14512741128E+02  0.36942539685E+02  0.00000000000E+00 0.  1.
         13    1    3    3    0    0  0.33131910937E+02  0.75105300049E+01 -0.12186701931E+03  0.12651364345E+03  0.00000000000E+00 0. -1.
<mgrwt>
<rscale>  0 0.90102635E+02</rscale>
<asrwt>0</asrwt>
<pdfrwt beam="2">  1        2 0.23064305E-01 0.90102635E+02</pdfrwt>
<pdfrwt beam="1">  1       -2 0.20828016E-02 0.90102635E+02</pdfrwt>
<totfact> 0.14434678E+05</totfact>
</mgrwt>
</event>
<event>
 5    1  0.6112843E+000  0.9216757E+02  0.7546771E-02  0.1297686E+00
         -1   -1    0    0    0  501 -0.00000000000E+00  0.00000000000E+00  0.94533877714E+01  0.94533877714E+01  0.00000000000E+00 0.  1.
          1   -1    0    0  501    0  0.00000000000E+00 -0.00000000000E+00 -0.22465123068E+03  0.22465123068E+03  0.00000000000E+00 0. -1.
         23    2    1    2    0    0  0.00000000000E+00  0.00000000000E+00 -0.21519784291E+03  0.23410461845E+03  0.92167569067E+02 0.  0.
        -13    1    3    3    0    0 -0.14389918879E+02  0.43370934956E+02 -0.92442307853E+02  0.10311977524E+03  0.00000000000E+00 0.  1.
         13    1    3    3    0    0  0.14389918879E+02 -0.43370934956E+02 -0.12275553505E+03  0.13098484321E+03  0.00000000000E+00 0. -1.
<mgrwt>
<rscale>  0 0.92167569E+02</rscale>
<asrwt>0</asrwt>
<pdfrwt beam="2">  1        1 0.34561728E-01 0.92167569E+02</pdfrwt>
<pdfrwt beam="1">  1       -1 0.14543674E-02 0.92167569E+02</pdfrwt>
<totfact> 0.11765939E+05</totfact>
</mgrwt>
</event>
<event>
 5    1  0.6112843E+000  0.9409825E+02  0.7546771E-02  0.1293220E+00
         -1   -1    0    0    0  501 -0.00000000000E+00  0.00000000000E+00  0.31651364592E+03  0.31651364592E+03  0.00000000000E+00 0.  1.
          1   -1    0    0  501    0  0.00000000000E+00 -0.00000000000E+00 -0.69937596795E+01  0.69937596795E+01  0.00000000000E+00 0. -1.
         23    2    1    2    0    0  0.00000000000E+00  0.00000000000E+00  0.30951988624E+03  0.32350740560E+03  0.94098254497E+02 0.  0.
        -13    1    3    3    0    0  0.36384282639E+02  0.29786755490E+02  0.14926611884E+03  0.15649741551E+03  0.00000000000E+00 0. -1.
         13    1    3    3    0    0 -0.36384282639E+02 -0.29786755490E+02  0.16025376739E+03  0.16700999009E+03  0.00000000000E+00 0.  1.
<mgrwt>
<rscale>  0 0.94098254E+02</rscale>
<asrwt>0</asrwt>
<pdfrwt beam="2">  1        1 0.10759633E-02 0.94098254E+02</pdfrwt>
<pdfrwt beam="1">  1       -1 0.48694396E-01 0.94098254E+02</pdfrwt>
<totfact> 0.54589847E+04</totfact>
</mgrwt>
</event>
<event>
 5    1  0.6112843E+000  0.9206270E+02  0.7546771E-02  0.1297932E+00
          2   -1    0    0  501    0  0.00000000000E+00  0.00000000000E+00  0.92419458912E+02  0.92419458912E+02  0.00000000000E+00 0. -1.
         -2   -1    0    0    0  501 -0.00000000000E+00 -0.00000000000E+00 -0.22926831464E+02  0.22926831464E+02  0.00000000000E+00 0.  1.
         23    2    1    2    0    0  0.00000000000E+00  0.00000000000E+00  0.69492627448E+02  0.11534629038E+03  0.92062703816E+02 0.  0.
        -13    1    3    3    0    0 -0.35995532772E+02 -0.50310933039E+01  0.70137310901E+02  0.78995143267E+02  0.00000000000E+00 0. -1.
         13    1    3    3    0    0  0.35995532772E+02  0.50310933039E+01 -0.64468345368E+00  0.36351147109E+02  0.00000000000E+00 0.  1.
<mgrwt>
<rscale>  0 0.92062704E+02</rscale>
<asrwt>0</asrwt>
<pdfrwt beam="1">  1        2 0.14218378E-01 0.92062704E+02</pdfrwt>
<pdfrwt beam="2">  1       -2 0.35272049E-02 0.92062704E+02</pdfrwt>
<totfact> 0.11663595E+05</totfact>
</mgrwt>
</event>
<event>
 5    1  0.6112843E+000  0.9128351E+02  0.7546771E-02  0.1299773E+00
          1   -1    0    0  501    0  0.00000000000E+00  0.00000000000E+00  0.94592569912E+02  0.94592569912E+02  0.00000000000E+00 0. -1.
         -1   -1    0    0    0  501 -0.00000000000E+00 -0.00000000000E+00 -0.22022553244E+02  0.22022553244E+02  0.00000000000E+00 0.  1.
         23    2    1    2    0    0  0.00000000000E+00  0.00000000000E+00  0.72570016668E+02  0.11661512316E+03  0.91283512364E+02 0.  0.
        -13    1    3    3    0    0  0.19008937403E+02 -0.11915231005E+02 -0.14492511891E+02  0.26708525455E+02  0.00000000000E+00 0.  1.
         13    1    3    3    0    0 -0.19008937403E+02  0.11915231005E+02  0.87062528559E+02  0.89906597701E+02  0.00000000000E+00 0. -1.
<mgrwt>
<rscale>  0 0.91283512E+02</rscale>
<asrwt>0</asrwt>
<pdfrwt beam="1">  1        1 0.14552703E-01 0.91283512E+02</pdfrwt>
<pdfrwt beam="2">  1       -1 0.33880852E-02 0.91283512E+02</pdfrwt>
<totfact> 0.10316689E+05</totfact>
</mgrwt>
</event>
<event>
 5    1  0.6112843E+000  0.9648551E+02  0.7546771E-02  0.1287865E+00
          1   -1    0    0  501    0  0.00000000000E+00  0.00000000000E+00  0.93905144990E+01  0.93905144990E+01  0.00000000000E+00 0. -1.
         -1   -1    0    0    0  501 -0.00000000000E+00 -0.00000000000E+00 -0.24784195360E+03  0.24784195360E+03  0.00000000000E+00 0.  1.
         23    2    1    2    0    0  0.00000000000E+00  0.00000000000E+00 -0.23845143910E+03  0.25723246810E+03  0.96485511010E+02 0.  0.
        -13    1    3    3    0    0 -0.43716033095E+02  0.19219479602E+02 -0.10097105922E+03  0.11169438099E+03  0.00000000000E+00 0. -1.
         13    1    3    3    0    0  0.43716033095E+02 -0.19219479602E+02 -0.13748037988E+03  0.14553808710E+03  0.00000000000E+00 0.  1.
<mgrwt>
<rscale>  0 0.96485511E+02</rscale>
<asrwt>0</asrwt>
<pdfrwt beam="1">  1        1 0.14446943E-02 0.96485511E+02</pdfrwt>
<pdfrwt beam="2">  1       -1 0.38129538E-01 0.96485511E+02</pdfrwt>
<totfact> 0.56012389E+04</totfact>
</mgrwt>
</event>
<event>
 5    1  0.6112843E+000  0.9155762E+02  0.7546771E-02  0.1299123E+00
          1   -1    0    0  501    0  0.00000000000E+00  0.00000000000E+00  0.79171965503E+01  0.79171965503E+01  0.00000000000E+00 0.  1.
         -1   -1    0    0    0  501 -0.00000000000E+00 -0.00000000000E+00 -0.26470224033E+03  0.26470224033E+03  0.00000000000E+00 0. -1.
         23    2    1    2    0    0  0.00000000000E+00  0.00000000000E+00 -0.25678504378E+03  0.27261943688E+03  0.91557624784E+02 0.  0.
        -13    1    3    3    0    0  0.29893482717E+02  0.27698797219E+02 -0.66300610930E+02  0.77824255127E+02  0.00000000000E+00 0.  1.
         13    1    3    3    0    0 -0.29893482717E+02 -0.27698797219E+02 -0.19048443285E+03  0.19479518176E+03  0.00000000000E+00 0. -1.
<mgrwt>
<rscale>  0 0.91557625E+02</rscale>
<asrwt>0</asrwt>
<pdfrwt beam="1">  1        1 0.12180303E-02 0.91557625E+02</pdfrwt>
<pdfrwt beam="2">  1       -1 0.40723418E-01 0.91557625E+02</pdfrwt>
<totfact> 0.62804357E+04</totfact>
</mgrwt>
</event>
<event>
 5    1  0.6112843E+000  0.9135468E+02  0.7546771E-02  0.1299604E+00
          2   -1    0    0  501    0  0.00000000000E+00  0.00000000000E+00  0.14462076568E+02  0.14462076568E+02  0.00000000000E+00 0. -1.
         -2   -1    0    0    0  501 -0.00000000000E+00 -0.00000000000E+00 -0.14426831607E+03  0.14426831607E+03  0.00000000000E+00 0.  1.
         23    2    1    2    0    0  0.00000000000E+00  0.00000000000E+00 -0.12980623950E+03  0.15873039264E+03  0.91354680960E+02 0.  0.
        -13    1    3    3    0    0 -0.20561375498E+02  0.29062313226E+02 -0.15177579095E+02  0.38700737972E+02  0.00000000000E+00 0. -1.
         13    1    3    3    0    0  0.20561375498E+02 -0.29062313226E+02 -0.11462866041E+03  0.12002965467E+03  0.00000000000E+00 0.  1.
<mgrwt>
<rscale>  0 0.91354681E+02</rscale>
<asrwt>0</asrwt>
<pdfrwt beam="1">  1        2 0.22249347E-02 0.91354681E+02</pdfrwt>
<pdfrwt beam="2">  1       -2 0.22195127E-01 0.91354681E+02</pdfrwt>
<totfact> 0.70495243E+04</totfact>
</mgrwt>
</event>
<event>
 5    1  0.6112843E+000  0.8984779E+02  0.7546771E-02  0.1303221E+00
         -2   -1    0    0    0  501 -0.00000000000E+00  0.00000000000E+00  0.58997998288E+02  0.58997998288E+02  0.00000000000E+00 0. -1.
          2   -1    0    0  501    0  0.00000000000E+00 -0.00000000000E+00 -0.34207200573E+02  0.34207200573E+02  0.00000000000E+00 0.  1.
         23    2    1    2    0    0  0.00000000000E+00  0.00000000000E+00  0.24790797715E+02  0.93205198860E+02  0.89847790419E+02 0.  0.
        -13    1    3    3    0    0 -0.12214916181E+02  0.33743702536E+01 -0.32314618712E+02  0.34710591098E+02  0.00000000000E+00 0.  1.
         13    1    3    3    0    0  0.12214916181E+02 -0.33743702536E+01  0.57105416427E+02  0.58494607762E+02  0.00000000000E+00 0. -1.
<mgrwt>
<rscale>  0 0.89847790E+02</rscale>
<asrwt>0</asrwt>
<pdfrwt beam="2">  1        2 0.52626462E-02 0.89847790E+02</pdfrwt>
<pdfrwt beam="1">  1       -2 0.90766151E-02 0.89847790E+02</pdfrwt>
<totfact> 0.95608785E+04</totfact>
</mgrwt>
</event>
<event>
 5    1  0.6112843E+000  0.8905110E+02  0.7546771E-02  0.1305166E+00
         -2   -1    0    0    0  501 -0.00000000000E+00  0.00000000000E+00  0.96401502270E+02  0.96401502270E+02  0.00000000000E+00 0.  1.
          2   -1    0    0  501    0  0.00000000000E+00 -0.00000000000E+00 -0.20565286327E+02  0.20565286327E+02  0.00000000000E+00 0. -1.
         23    2    1    2    0    0  0.00000000000E+00  0.00000000000E+00  0.75836215944E+02  0.11696678860E+03  0.89051097613E+02 0.  0.
        -13    1    3    3    0    0  0.37531844915E+01 -0.41465306005E+02  0.17188984001E+02  0.45043525250E+02  0.00000000000E+00 0.  1.
         13    1    3    3    0    0 -0.37531844915E+01  0.41465306005E+02  0.58647231943E+02  0.71923263347E+02  0.00000000000E+00 0. -1.
<mgrwt>
<rscale>  0 0.89051098E+02</rscale>
<asrwt>0</asrwt>
<pdfrwt beam="2">  1        2 0.31638903E-02 0.89051098E+02</pdfrwt>
<pdfrwt beam="1">  1       -2 0.14831000E-01 0.89051098E+02</pdfrwt>
<totfact> 0.85542324E+04</totfact>
</mgrwt>
</event>
<event>
 5    1  0.6112843E+000  0.8585017E+02  0.7546771E-02  0.1313224E+00
         -1   -1    0    0    0  501 -0.00000000000E+00  0.00000000000E+00  0.14913315968E+03  0.14913315968E+03  0.00000000000E+00 0.  1.
          1   -1    0    0  501    0  0.00000000000E+00 -0.00000000000E+00 -0.12355152980E+02  0.12355152980E+02  0.00000000000E+00 0. -1.
         23    2    1    2    0    0  0.00000000000E+00  0.00000000000E+00  0.13677800670E+03  0.16148831266E+03  0.85850171863E+02 0.  0.
        -13    1    3    3    0    0 -0.18400403036E+02 -0.25265313275E+02  0.12373314104E+03  0.12761975191E+03  0.00000000000E+00 0.  1.
         13    1    3    3    0    0  0.18400403036E+02  0.25265313275E+02  0.13044865655E+02  0.33868560742E+02  0.00000000000E+00 0. -1.
<mgrwt>
<rscale>  0 0.85850172E+02</rscale>
<asrwt>0</asrwt>
<pdfrwt beam="2">  1        1 0.19007929E-02 0.85850172E+02</pdfrwt>
<pdfrwt beam="1">  1       -1 0.22943562E-01 0.85850172E+02</pdfrwt>
<totfact> 0.87521609E+04</totfact>
</mgrwt>
</event>
<event>
 5    1  0.6112843E+000  0.9175258E+02  0.7546771E-02  0.1298662E+00
         -2   -1    0    0    0  501 -0.00000000000E+00  0.00000000000E+00  0.85957663542E+01  0.85957663542E+01  0.00000000000E+00 0.  1.
          2   -1    0    0  501    0  0.00000000000E+00 -0.00000000000E+00 -0.24484543158E+03  0.24484543158E+03  0.00000000000E+00 0. -1.
         23    2    1    2    0    0  0.00000000000E+00  0.00000000000E+00 -0.23624966523E+03  0.25344119794E+03  0.91752583022E+02 0.  0.
        -13    1    3    3    0    0 -0.56909851989E+01  0.40897603144E+02 -0.17334395663E+03  0.17819407554E+03  0.00000000000E+00 0. -1.
         13    1    3    3    0    0  0.56909851989E+01 -0.40897603144E+02 -0.62905708596E+02  0.75247122400E+02  0.00000000000E+00 0.  1.
<mgrwt>
<rscale>  0 0.91752583E+02</rscale>
<asrwt>0</asrwt>
<pdfrwt beam="2">  1        2 0.37668535E-01 0.91752583E+02</pdfrwt>
<pdfrwt beam="1">  1       -2 0.13224254E-02 0.91752583E+02</pdfrwt>
<totfact> 0.16378331E+05</totfact>
</mgrwt>
</event>
<event>
 5    1  0.6112843E+000  0.9164336E+02  0.7546771E-02  0.1298920E+00
         -1   -1    0    0    0  501 -0.00000000000E+00  0.00000000000E+00  0.21332214856E+02  0.21332214856E+02  0.00000000000E+00 0.  1.
          1   -1    0    0  501    0  0.00000000000E+00 -0.00000000000E+00 -0.98425144371E+02  0.98425144371E+02  0.00000000000E+00 0. -1.
         23    2    1    2    0    0  0.00000000000E+00  0.00000000000E+00 -0.77092929516E+02  0.11975735923E+03  0.91643359322E+02 0.  0.
        -13    1    3    3    0    0 -0.20401246128E+02  0.31025764987E+02 -0.34620821741E+01  0.37293363345E+02  0.00000000000E+00 0.  1.
         13    1    3    3    0    0  0.20401246128E+02 -0.31025764987E+02 -0.73630847342E+02  0.82463995882E+02  0.00000000000E+00 0. -1.
<mgrwt>
<rscale>  0 0.91643359E+02</rscale>
<asrwt>0</asrwt>
<pdfrwt beam="2">  1        1 0.15142330E-01 0.91643359E+02</pdfrwt>
<pdfrwt beam="1">  1       -1 0.32818792E-02 0.91643359E+02</pdfrwt>
<totfact> 0.10273511E+05</totfact>
</mgrwt>
</event>
<event>
 5    1  0.6112843E+000  0.9152290E+02  0.7546771E-02  0.1299205E+00
          2   -1    0    0  501    0  0.00000000000E+00  0.00000000000E+00  0.38503466370E+02  0.38503466370E+02  0.00000000000E+00 0. -1.
         -2   -1    0    0    0  501 -0.00000000000E+00 -0.00000000000E+00 -0.54387572754E+02  0.54387572754E+02  0.00000000000E+00 0.  1.
         23    2    1    2    0    0  0.00000000000E+00  0.00000000000E+00 -0.15884106384E+02  0.92891039124E+02  0.91522895025E+02 0.  0.
        -13    1    3    3    0    0 -0.44692321706E+02 -0.89845842451E+01 -0.11999779953E+02  0.47139379423E+02  0.00000000000E+00 0.  1.
         13    1    3    3    0    0  0.44692321706E+02  0.89845842451E+01 -0.38843264308E+01  0.45751659700E+02  0.00000000000E+00 0. -1.
<mgrwt>
<rscale>  0 0.91522895E+02</rscale>
<asrwt>0</asrwt>
<pdfrwt beam="1">  1        2 0.59236102E-02 0.91522895E+02</pdfrwt>
<pdfrwt beam="2">  1       -2 0.83673189E-02 0.91522895E+02</pdfrwt>
<totfact> 0.93415976E+04</totfact>
</mgrwt>
</event>
<event>
 5    1  0.6112843E+000  0.9148327E+02  0.7546771E-02  0.1299299E+00
          1   -1    0    0  501    0  0.00000000000E+00  0.00000000000E+00  0.97456182178E+02  0.97456182178E+02  0.00000000000E+00 0. -1.
         -1   -1    0    0    0  501 -0.00000000000E+00 -0.00000000000E+00 -0.21469107709E+02  0.21469107709E+02  0.00000000000E+00 0.  1.
         23    2    1    2    0    0  0.00000000000E+00  0.00000000000E+00  0.75987074469E+02  0.11892528989E+03  0.91483272178E+02 0.  0.
        -13    1    3    3    0    0 -0.21170928366E+02 -0.27913199684E+02  0.76225457255E+02  0.83890853245E+02  0.00000000000E+00 0. -1.
         13    1    3    3    0    0  0.21170928366E+02  0.27913199684E+02 -0.23838278588E+00  0.35034436642E+02  0.00000000000E+00 0.  1.
<mgrwt>
<rscale>  0 0.91483272E+02</rscale>
<asrwt>0</asrwt>
<pdfrwt beam="1">  1        1 0.14993258E-01 0.91483272E+02</pdfrwt>
<pdfrwt beam="2">  1       -1 0.33029397E-02 0.91483272E+02</pdfrwt>
<totfact> 0.10305781E+05</totfact>
</mgrwt>
</event>
<event>
 5    1  0.6112843E+000  0.9052076E+02  0.7546771E-02  0.1301595E+00
          3   -1    0    0  501    0  0.00000000000E+00  0.00000000000E+00  0.45943365239E+03  0.45943365239E+03  0.00000000000E+00 0. -1.
         -3   -1    0    0    0  501 -0.00000000000E+00 -0.00000000000E+00 -0.44587543151E+01  0.44587543151E+01  0.00000000000E+00 0.  1.
         23    2    1    2    0    0  0.00000000000E+00  0.00000000000E+00  0.45497489808E+03  0.46389240671E+03  0.90520755191E+02 0.  0.
        -13    1    3    3    0    0 -0.40243198674E+02 -0.20485666296E+02  0.24313604155E+03  0.24729397943E+03  0.00000000000E+00 0.  1.
         13    1    3    3    0    0  0.40243198674E+02  0.20485666296E+02  0.21183885653E+03  0.21659842728E+03  0.00000000000E+00 0. -1.
<mgrwt>
<rscale>  0 0.90520755E+02</rscale>
<asrwt>0</asrwt>
<pdfrwt beam="1">  1        3 0.70682063E-01 0.90520755E+02</pdfrwt>
<pdfrwt beam="2">  1       -3 0.68596256E-03 0.90520755E+02</pdfrwt>
<totfact> 0.19186128E+04</totfact>
</mgrwt>
</event>
<event>
 5    1  0.6112843E+000  0.1044268E+03  0.7546771E-02  0.1271253E+00
         -1   -1    0    0    0  501 -0.00000000000E+00  0.00000000000E+00  0.28002306574E+02  0.28002306574E+02  0.00000000000E+00 0.  1.
          1   -1    0    0  501    0  0.00000000000E+00 -0.00000000000E+00 -0.97357598920E+02  0.97357598920E+02  0.00000000000E+00 0. -1.
         23    2    1    2    0    0  0.00000000000E+00  0.00000000000E+00 -0.69355292346E+02  0.12535990549E+03  0.10442676539E+03 0.  0.
        -13    1    3    3    0    0 -0.61946012257E+01 -0.50702565815E+02 -0.47668908813E+02  0.69867360992E+02  0.00000000000E+00 0. -1.
         13    1    3    3    0    0  0.61946012257E+01  0.50702565815E+02 -0.21686383534E+02  0.55492544502E+02  0.00000000000E+00 0.  1.
<mgrwt>
<rscale>  0 0.10442677E+03</rscale>
<asrwt>0</asrwt>
<pdfrwt beam="2">  1        1 0.14978092E-01 0.10442677E+03</pdfrwt>
<pdfrwt beam="1">  1       -1 0.43080471E-02 0.10442677E+03</pdfrwt>
<totfact> 0.71562719E+04</totfact>
</mgrwt>
</event>
<event>
 5    1  0.6112843E+000  0.9013599E+02  0.7546771E-02  0.1302523E+00
         -1   -1    0    0    0  501 -0.00000000000E+00  0.00000000000E+00  0.24497416075E+03  0.24497416075E+03  0.00000000000E+00 0.  1.
          1   -1    0    0  501    0  0.00000000000E+00 -0.00000000000E+00 -0.82911773406E+01  0.82911773406E+01  0.00000000000E+00 0. -1.
         23    2    1    2    0    0  0.00000000000E+00  0.00000000000E+00  0.23668298340E+03  0.25326533809E+03  0.90135990827E+02 0.  0.
        -13    1    3    3    0    0 -0.34744141946E+02 -0.57906602357E+01  0.19733859518E+03  0.20045749747E+03  0.00000000000E+00 0.  1.
         13    1    3    3    0    0  0.34744141946E+02  0.57906602357E+01  0.39344388229E+02  0.52807840617E+02  0.00000000000E+00 0. -1.
<mgrwt>
<rscale>  0 0.90135991E+02</rscale>
<asrwt>0</asrwt>
<pdfrwt beam="2">  1        1 0.12755659E-02 0.90135991E+02</pdfrwt>
<pdfrwt beam="1">  1       -1 0.37688327E-01 0.90135991E+02</pdfrwt>
<totfact> 0.67190947E+04</totfact>
</mgrwt>
</event>
<event>
 5    1  0.6112843E+000  0.9029456E+02  0.7546771E-02  0.1302140E+00
          3   -1    0    0  501    0  0.00000000000E+00  0.00000000000E+00  0.13272744287E+03  0.13272744287E+03  0.00000000000E+00 0. -1.
         -3   -1    0    0    0  501 -0.00000000000E+00 -0.00000000000E+00 -0.15356860582E+02  0.15356860582E+02  0.00000000000E+00 0.  1.
         23    2    1    2    0    0  0.00000000000E+00  0.00000000000E+00  0.11737058229E+03  0.14808430345E+03  0.90294558761E+02 0.  0.
        -13    1    3    3    0    0  0.90880086883E+01  0.38344529937E+02  0.94817063152E+02  0.10267994129E+03  0.00000000000E+00 0. -1.
         13    1    3    3    0    0 -0.90880086883E+01 -0.38344529937E+02  0.22553519135E+02  0.45404362163E+02  0.00000000000E+00 0.  1.
<mgrwt>
<rscale>  0 0.90294559E+02</rscale>
<asrwt>0</asrwt>
<pdfrwt beam="1">  1        3 0.20419606E-01 0.90294559E+02</pdfrwt>
<pdfrwt beam="2">  1       -3 0.23625940E-02 0.90294559E+02</pdfrwt>
<totfact> 0.32261727E+04</totfact>
</mgrwt>
</event>
<event>
 5    1  0.6112843E+000  0.8839095E+02  0.7546771E-02  0.1306796E+00
         -1   -1    0    0    0  501 -0.00000000000E+00  0.00000000000E+00  0.44198861849E+02  0.44198861849E+02  0.00000000000E+00 0.  1.
          1   -1    0    0  501    0  0.00000000000E+00 -0.00000000000E+00 -0.44192084175E+02  0.44192084175E+02  0.00000000000E+00 0. -1.
         23    2    1    2    0    0  0.00000000000E+00  0.00000000000E+00  0.67776739425E-02  0.88390946023E+02  0.88390945763E+02 0.  0.
        -13    1    3    3    0    0 -0.28694232033E+02 -0.13357187723E+02 -0.30842460364E+02  0.44193107802E+02  0.00000000000E+00 0. -1.
         13    1    3    3    0    0  0.28694232033E+02  0.13357187723E+02  0.30849238038E+02  0.44197838221E+02  0.00000000000E+00 0.  1.
<mgrwt>
<rscale>  0 0.88390946E+02</rscale>
<asrwt>0</asrwt>
<pdfrwt beam="2">  1        1 0.67987822E-02 0.88390946E+02</pdfrwt>
<pdfrwt beam="1">  1       -1 0.67998249E-02 0.88390946E+02</pdfrwt>
<totfact> 0.10039979E+05</totfact>
</mgrwt>
</event>
<event>
 5    1  0.6112843E+000  0.9664366E+02  0.7546771E-02  0.1287516E+00
         -3   -1    0    0    0  501 -0.00000000000E+00  0.00000000000E+00  0.20980454319E+02  0.20980454319E+02  0.00000000000E+00 0.  1.
          3   -1    0    0  501    0  0.00000000000E+00 -0.00000000000E+00 -0.11129402062E+03  0.11129402062E+03  0.00000000000E+00 0. -1.
         23    2    1    2    0    0  0.00000000000E+00  0.00000000000E+00 -0.90313566305E+02  0.13227447494E+03  0.96643657126E+02 0.  0.
        -13    1    3    3    0    0 -0.44106041966E+01  0.27331908109E+02 -0.99362698240E+02  0.10314762446E+03  0.00000000000E+00 0. -1.
         13    1    3    3    0    0  0.44106041966E+01 -0.27331908109E+02  0.90491319349E+01  0.29126850482E+02  0.00000000000E+00 0.  1.
<mgrwt>
<rscale>  0 0.96643657E+02</rscale>
<asrwt>0</asrwt>
<pdfrwt beam="2">  1        3 0.17122158E-01 0.96643657E+02</pdfrwt>
<pdfrwt beam="1">  1       -3 0.32277621E-02 0.96643657E+02</pdfrwt>
<totfact> 0.27667995E+04</totfact>
</mgrwt>
</event>
<event>
 5    1  0.6112843E+000  0.8826609E+02  0.7546771E-02  0.1307106E+00
          3   -1    0    0  501    0  0.00000000000E+00  0.00000000000E+00  0.20442347200E+02  0.20442347200E+02  0.00000000000E+00 0. -1.
         -3   -1    0    0    0  501 -0.00000000000E+00 -0.00000000000E+00 -0.95278967855E+02  0.95278967855E+02  0.00000000000E+00 0.  1.
         23    2    1    2    0    0  0.00000000000E+00  0.00000000000E+00 -0.74836620655E+02  0.11572131505E+03  0.88266091830E+02 0.  0.
        -13    1    3    3    0    0 -0.40448773270E+02 -0.76029379917E+01 -0.58305524241E+02  0.71368354907E+02  0.00000000000E+00 0.  1.
         13    1    3    3    0    0  0.40448773270E+02  0.76029379917E+01 -0.16531096414E+02  0.44352960147E+02  0.00000000000E+00 0. -1.
<mgrwt>
<rscale>  0 0.88266092E+02</rscale>
<asrwt>0</asrwt>
<pdfrwt beam="1">  1        3 0.31449765E-02 0.88266092E+02</pdfrwt>
<pdfrwt beam="2">  1       -3 0.14658303E-01 0.88266092E+02</pdfrwt>
<totfact> 0.36623545E+04</totfact>
</mgrwt>
</event>
<event>
 5    1  0.6112843E+000  0.9213237E+02  0.7546771E-02  0.1297768E+00
          2   -1    0    0  501    0  0.00000000000E+00  0.00000000000E+00  0.29814906918E+03  0.29814906918E+03  0.00000000000E+00 0. -1.
         -2   -1    0    0    0  501 -0.00000000000E+00 -0.00000000000E+00 -0.71175587430E+01  0.71175587430E+01  0.00000000000E+00 0.  1.
         23    2    1    2    0    0  0.00000000000E+00  0.00000000000E+00  0.29103151044E+03  0.30526662792E+03  0.92132372466E+02 0.  0.
        -13    1    3    3    0    0  0.81343251239E+01 -0.45079162815E+02  0.12935308500E+03  0.13722433736E+03  0.00000000000E+00 0.  1.
         13    1    3    3    0    0 -0.81343251239E+01  0.45079162815E+02  0.16167842544E+03  0.16804229056E+03  0.00000000000E+00 0. -1.
<mgrwt>
<rscale>  0 0.92132372E+02</rscale>
<asrwt>0</asrwt>
<pdfrwt beam="1">  1        2 0.45869078E-01 0.92132372E+02</pdfrwt>
<pdfrwt beam="2">  1       -2 0.10950093E-02 0.92132372E+02</pdfrwt>
<totfact> 0.17432261E+05</totfact>
</mgrwt>
</event>
<event>
 5    1  0.6112843E+000  0.8919913E+02  0.7546771E-02  0.1304803E+00
          3   -1    0    0  501    0  0.00000000000E+00  0.00000000000E+00  0.55104413482E+02  0.55104413482E+02  0.00000000000E+00 0. -1.
         -3   -1    0    0    0  501 -0.00000000000E+00 -0.00000000000E+00 -0.36097310638E+02  0.36097310638E+02  0.00000000000E+00 0.  1.
         23    2    1    2    0    0  0.00000000000E+00  0.00000000000E+00  0.19007102844E+02  0.91201724121E+02  0.89199128494E+02 0.  0.
        -13    1    3    3    0    0  0.13823934629E+02  0.25584856731E+02 -0.25070334217E+02  0.38395412751E+02  0.00000000000E+00 0.  1.
         13    1    3    3    0    0 -0.13823934629E+02 -0.25584856731E+02  0.44077437061E+02  0.52806311370E+02  0.00000000000E+00 0. -1.
<mgrwt>
<rscale>  0 0.89199128E+02</rscale>
<asrwt>0</asrwt>
<pdfrwt beam="1">  1        3 0.84776021E-02 0.89199128E+02</pdfrwt>
<pdfrwt beam="2">  1       -3 0.55534324E-02 0.89199128E+02</pdfrwt>
<totfact> 0.37506191E+04</totfact>
</mgrwt>
</event>
<event>
 5    1  0.6112843E+000  0.8691470E+02  0.7546771E-02  0.1310500E+00
          2   -1    0    0  501    0  0.00000000000E+00  0.00000000000E+00  0.45288311233E+02  0.45288311233E+02  0.00000000000E+00 0. -1.
         -2   -1    0    0    0  501 -0.00000000000E+00 -0.00000000000E+00 -0.41700411107E+02  0.41700411107E+02  0.00000000000E+00 0.  1.
         23    2    1    2    0    0  0.00000000000E+00  0.00000000000E+00  0.35879001263E+01  0.86988722341E+02  0.86914698338E+02 0.  0.
        -13    1    3    3    0    0  0.36191991843E+02 -0.20624721218E+02 -0.10598105415E+02  0.42983243680E+02  0.00000000000E+00 0.  1.
         13    1    3    3    0    0 -0.36191991843E+02  0.20624721218E+02  0.14186005542E+02  0.44005478660E+02  0.00000000000E+00 0. -1.
<mgrwt>
<rscale>  0 0.86914698E+02</rscale>
<asrwt>0</asrwt>
<pdfrwt beam="1">  1        2 0.69674325E-02 0.86914698E+02</pdfrwt>
<pdfrwt beam="2">  1       -2 0.64154479E-02 0.86914698E+02</pdfrwt>
<totfact> 0.11293204E+05</totfact>
</mgrwt>
</event>
<event>
 5    1  0.6112843E+000  0.9065141E+02  0.7546771E-02  0.1301282E+00
         -1   -1    0    0    0  501 -0.00000000000E+00  0.00000000000E+00  0.20647085963E+03  0.20647085963E+03  0.00000000000E+00 0.  1.
          1   -1    0    0  501    0  0.00000000000E+00 -0.00000000000E+00 -0.99501678169E+01  0.99501678169E+01  0.00000000000E+00 0. -1.
         23    2    1    2    0    0  0.00000000000E+00  0.00000000000E+00  0.19652069182E+03  0.21642102745E+03  0.90651413726E+02 0.  0.
        -13    1    3    3    0    0 -0.78255932891E+01 -0.39290927638E+02  0.14887109425E+03  0.15416750504E+03  0.00000000000E+00 0. -1.
         13    1    3    3    0    0  0.78255932891E+01  0.39290927638E+02  0.47649597562E+02  0.62253522412E+02  0.00000000000E+00 0.  1.
<mgrwt>
<rscale>  0 0.90651414E+02</rscale>
<asrwt>0</asrwt>
<pdfrwt beam="2">  1        1 0.15307952E-02 0.90651414E+02</pdfrwt>
<pdfrwt beam="1">  1       -1 0.31764744E-01 0.90651414E+02</pdfrwt>
<totfact> 0.69831170E+04</totfact>
</mgrwt>
</event>
<event>
 5    1  0.6112843E+000  0.9243252E+02  0.7546771E-02  0.1297066E+00
         -1   -1    0    0    0  501 -0.00000000000E+00  0.00000000000E+00  0.60790086438E+02  0.60790086438E+02  0.00000000000E+00 0.  1.
          1   -1    0    0  501    0  0.00000000000E+00 -0.00000000000E+00 -0.35136362750E+02  0.35136362750E+02  0.00000000000E+00 0. -1.
         23    2    1    2    0    0  0.00000000000E+00  0.00000000000E+00  0.25653723688E+02  0.95926449187E+02  0.92432516544E+02 0.  0.
        -13    1    3    3    0    0 -0.19542355977E+02  0.37976969327E+02  0.31151851750E+02  0.52863898303E+02  0.00000000000E+00 0.  1.
         13    1    3    3    0    0  0.19542355977E+02 -0.37976969327E+02 -0.54981280615E+01  0.43062550884E+02  0.00000000000E+00 0. -1.
<mgrwt>
<rscale>  0 0.92432517E+02</rscale>
<asrwt>0</asrwt>
<pdfrwt beam="2">  1        1 0.54055943E-02 0.92432517E+02</pdfrwt>
<pdfrwt beam="1">  1       -1 0.93523209E-02 0.92432517E+02</pdfrwt>
<totfact> 0.85478653E+04</totfact>
</mgrwt>
</event>
<event>
 5    1  0.6112843E+000  0.9225277E+02  0.7546771E-02  0.1297486E+00
         -1   -1    0    0    0  501 -0.00000000000E+00  0.00000000000E+00  0.13679507239E+02  0.13679507239E+02  0.00000000000E+00 0.  1.
          1   -1    0    0  501    0  0.00000000000E+00 -0.00000000000E+00 -0.15553507422E+03  0.15553507422E+03  0.00000000000E+00 0. -1.
         23    2    1    2    0    0  0.00000000000E+00  0.00000000000E+00 -0.14185556698E+03  0.16921458146E+03  0.92252765244E+02 0.  0.
        -13    1    3    3    0    0  0.24447127560E+02 -0.87448234064E+01 -0.99717898658E+00  0.25983232060E+02  0.00000000000E+00 0.  1.
         13    1    3    3    0    0 -0.24447127560E+02  0.87448234064E+01 -0.14085838800E+03  0.14323134940E+03  0.00000000000E+00 0. -1.
<mgrwt>
<rscale>  0 0.92252765E+02</rscale>
<asrwt>0</asrwt>
<pdfrwt beam="2">  1        1 0.23928474E-01 0.92252765E+02</pdfrwt>
<pdfrwt beam="1">  1       -1 0.21045395E-02 0.92252765E+02</pdfrwt>
<totfact> 0.10936587E+05</totfact>
</mgrwt>
</event>
<event>
 5    1  0.6112843E+000  0.9258094E+02  0.7546771E-02  0.1296719E+00
          3   -1    0    0  501    0  0.00000000000E+00  0.00000000000E+00  0.15725532902E+03  0.15725532902E+03  0.00000000000E+00 0. -1.
         -3   -1    0    0    0  501 -0.00000000000E+00 -0.00000000000E+00 -0.13626296109E+02  0.13626296109E+02  0.00000000000E+00 0.  1.
         23    2    1    2    0    0  0.00000000000E+00  0.00000000000E+00  0.14362903291E+03  0.17088162513E+03  0.92580941408E+02 0.  0.
        -13    1    3    3    0    0 -0.22512224400E+02 -0.23179300176E+02  0.13299582553E+03  0.13686478660E+03  0.00000000000E+00 0. -1.
         13    1    3    3    0    0  0.22512224400E+02  0.23179300176E+02  0.10633207382E+02  0.34016838526E+02  0.00000000000E+00 0.  1.
<mgrwt>
<rscale>  0 0.92580941E+02</rscale>
<asrwt>0</asrwt>
<pdfrwt beam="1">  1        3 0.24193126E-01 0.92580941E+02</pdfrwt>
<pdfrwt beam="2">  1       -3 0.20963534E-02 0.92580941E+02</pdfrwt>
<totfact> 0.28856098E+04</totfact>
</mgrwt>
</event>
<event>
 5    1  0.6112843E+000  0.9072380E+02  0.7546771E-02  0.1301108E+00
         -2   -1    0    0    0  501 -0.00000000000E+00  0.00000000000E+00  0.80523319931E+01  0.80523319931E+01  0.00000000000E+00 0. -1.
          2   -1    0    0  501    0  0.00000000000E+00 -0.00000000000E+00 -0.25554110444E+03  0.25554110444E+03  0.00000000000E+00 0.  1.
         23    2    1    2    0    0  0.00000000000E+00  0.00000000000E+00 -0.24748877244E+03  0.26359343643E+03  0.90723796455E+02 0.  0.
        -13    1    3    3    0    0 -0.16069746343E+02  0.40213305911E+02 -0.84509506768E+02  0.94958956681E+02  0.00000000000E+00 0. -1.
         13    1    3    3    0    0  0.16069746343E+02 -0.40213305911E+02 -0.16297926567E+03  0.16863447975E+03  0.00000000000E+00 0.  1.
<mgrwt>
<rscale>  0 0.90723796E+02</rscale>
<asrwt>0</asrwt>
<pdfrwt beam="2">  1        2 0.39314012E-01 0.90723796E+02</pdfrwt>
<pdfrwt beam="1">  1       -2 0.12388204E-02 0.90723796E+02</pdfrwt>
<totfact> 0.17149891E+05</totfact>
</mgrwt>
</event>
<event>
 5    1  0.6112843E+000  0.9060611E+02  0.7546771E-02  0.1301391E+00
         -1   -1    0    0    0  501 -0.00000000000E+00  0.00000000000E+00  0.48450868686E+01  0.48450868686E+01  0.00000000000E+00 0.  1.
          1   -1    0    0  501    0  0.00000000000E+00 -0.00000000000E+00 -0.42359751428E+03  0.42359751428E+03  0.00000000000E+00 0. -1.
         23    2    1    2    0    0  0.00000000000E+00  0.00000000000E+00 -0.41875242741E+03  0.42844260115E+03  0.90606109154E+02 0.  0.
        -13    1    3    3    0    0 -0.19538070631E+01 -0.45118032695E+02 -0.22636806234E+03  0.23082884110E+03  0.00000000000E+00 0. -1.
         13    1    3    3    0    0  0.19538070631E+01  0.45118032695E+02 -0.19238436507E+03  0.19761376005E+03  0.00000000000E+00 0.  1.
<mgrwt>
<rscale>  0 0.90606109E+02</rscale>
<asrwt>0</asrwt>
<pdfrwt beam="2">  1        1 0.65168841E-01 0.90606109E+02</pdfrwt>
<pdfrwt beam="1">  1       -1 0.74539807E-03 0.90606109E+02</pdfrwt>
<totfact> 0.13841407E+05</totfact>
</mgrwt>
</event>
<event>
 5    1  0.6112843E+000  0.9154067E+02  0.7546771E-02  0.1299163E+00
          1   -1    0    0  501    0  0.00000000000E+00  0.00000000000E+00  0.34097694852E+02  0.34097694852E+02  0.00000000000E+00 0. -1.
         -1   -1    0    0    0  501 -0.00000000000E+00 -0.00000000000E+00 -0.61438860033E+02  0.61438860033E+02  0.00000000000E+00 0.  1.
         23    2    1    2    0    0  0.00000000000E+00  0.00000000000E+00 -0.27341165182E+02  0.95536554885E+02  0.91540668590E+02 0.  0.
        -13    1    3    3    0    0  0.18052492658E+02  0.19136544184E+02  0.25418640735E+02  0.36581513245E+02  0.00000000000E+00 0. -1.
         13    1    3    3    0    0 -0.18052492658E+02 -0.19136544184E+02 -0.52759805916E+02  0.58955041640E+02  0.00000000000E+00 0.  1.
<mgrwt>
<rscale>  0 0.91540669E+02</rscale>
<asrwt>0</asrwt>
<pdfrwt beam="1">  1        1 0.52457992E-02 0.91540669E+02</pdfrwt>
<pdfrwt beam="2">  1       -1 0.94521323E-02 0.91540669E+02</pdfrwt>
<totfact> 0.87463653E+04</totfact>
</mgrwt>
</event>
<event>
 5    1  0.6112843E+000  0.8857422E+02  0.7546771E-02  0.1306342E+00
          1   -1    0    0  501    0  0.00000000000E+00  0.00000000000E+00  0.13023088936E+03  0.13023088936E+03  0.00000000000E+00 0. -1.
         -1   -1    0    0    0  501 -0.00000000000E+00 -0.00000000000E+00 -0.15060543338E+02  0.15060543338E+02  0.00000000000E+00 0.  1.
         23    2    1    2    0    0  0.00000000000E+00  0.00000000000E+00  0.11517034602E+03  0.14529143270E+03  0.88574216411E+02 0.  0.
        -13    1    3    3    0    0  0.38150091548E+02  0.21299494871E+02  0.45728146856E+02  0.63246829026E+02  0.00000000000E+00 0.  1.
         13    1    3    3    0    0 -0.38150091548E+02 -0.21299494871E+02  0.69442199168E+02  0.82044603675E+02  0.00000000000E+00 0. -1.
<mgrwt>
<rscale>  0 0.88574216E+02</rscale>
<asrwt>0</asrwt>
<pdfrwt beam="1">  1        1 0.20035521E-01 0.88574216E+02</pdfrwt>
<pdfrwt beam="2">  1       -1 0.23170068E-02 0.88574216E+02</pdfrwt>
<totfact> 0.11819069E+05</totfact>
</mgrwt>
</event>
<event>
 5    1  0.6112843E+000  0.8798647E+02  0.7546771E-02  0.1307802E+00
          1   -1    0    0  501    0  0.00000000000E+00  0.00000000000E+00  0.11152998314E+02  0.11152998314E+02  0.00000000000E+00 0. -1.
         -1   -1    0    0    0  501 -0.00000000000E+00 -0.00000000000E+00 -0.17353224121E+03  0.17353224121E+03  0.00000000000E+00 0.  1.
         23    2    1    2    0    0  0.00000000000E+00  0.00000000000E+00 -0.16237924290E+03  0.18468523953E+03  0.87986471545E+02 0.  0.
        -13    1    3    3    0    0  0.37488505428E+02 -0.22616570018E+02 -0.72159567564E+02  0.84403201773E+02  0.00000000000E+00 0. -1.
         13    1    3    3    0    0 -0.37488505428E+02  0.22616570018E+02 -0.90219675335E+02  0.10028203775E+03  0.00000000000E+00 0.  1.
<mgrwt>
<rscale>  0 0.87986472E+02</rscale>
<asrwt>0</asrwt>
<pdfrwt beam="1">  1        1 0.17158460E-02 0.87986472E+02</pdfrwt>
<pdfrwt beam="2">  1       -1 0.26697267E-01 0.87986472E+02</pdfrwt>
<totfact> 0.79147920E+04</totfact>
</mgrwt>
</event>
<event>
 5    1  0.6112843E+000  0.8683992E+02  0.7546771E-02  0.1310690E+00
          3   -1    0    0  501    0  0.00000000000E+00  0.00000000000E+00  0.76613595030E+01  0.76613595030E+01  0.00000000000E+00 0. -1.
         -3   -1    0    0    0  501 -0.00000000000E+00 -0.00000000000E+00 -0.24607814277E+03  0.24607814277E+03  0.00000000000E+00 0.  1.
         23    2    1    2    0    0  0.00000000000E+00  0.00000000000E+00 -0.23841678327E+03  0.25373950228E+03  0.86839924404E+02 0.  0.
        -13    1    3    3    0    0  0.16186191798E+01 -0.41709170271E+02 -0.84265047925E+02  0.94036552014E+02  0.00000000000E+00 0. -1.
         13    1    3    3    0    0 -0.16186191798E+01  0.41709170271E+02 -0.15415173534E+03  0.15970295026E+03  0.00000000000E+00 0.  1.
<mgrwt>
<rscale>  0 0.86839924E+02</rscale>
<asrwt>0</asrwt>
<pdfrwt beam="1">  1        3 0.11786708E-02 0.86839924E+02</pdfrwt>
<pdfrwt beam="2">  1       -3 0.37858174E-01 0.86839924E+02</pdfrwt>
<totfact> 0.29550287E+04</totfact>
</mgrwt>
</event>
<event>
 5    1  0.6112843E+000  0.8911683E+02  0.7546771E-02  0.1305005E+00
         -2   -1    0    0    0  501 -0.00000000000E+00  0.00000000000E+00  0.13453014362E+03  0.13453014362E+03  0.00000000000E+00 0.  1.
          2   -1    0    0  501    0  0.00000000000E+00 -0.00000000000E+00 -0.14758419316E+02  0.14758419316E+02  0.00000000000E+00 0. -1.
         23    2    1    2    0    0  0.00000000000E+00  0.00000000000E+00  0.11977172430E+03  0.14928856293E+03  0.89116828270E+02 0.  0.
        -13    1    3    3    0    0 -0.40908934120E+02  0.62185898042E+01  0.87576908592E+02  0.96860346213E+02  0.00000000000E+00 0.  1.
         13    1    3    3    0    0  0.40908934120E+02 -0.62185898042E+01  0.32194815710E+02  0.52428216721E+02  0.00000000000E+00 0. -1.
<mgrwt>
<rscale>  0 0.89116828E+02</rscale>
<asrwt>0</asrwt>
<pdfrwt beam="2">  1        2 0.22705261E-02 0.89116828E+02</pdfrwt>
<pdfrwt beam="1">  1       -2 0.20696944E-01 0.89116828E+02</pdfrwt>
<totfact> 0.76898798E+04</totfact>
</mgrwt>
</event>
<event>
 5    1  0.6112843E+000  0.9243807E+02  0.7546771E-02  0.1297053E+00
         -2   -1    0    0    0  501 -0.00000000000E+00  0.00000000000E+00  0.18861489895E+02  0.18861489895E+02  0.00000000000E+00 0.  1.
          2   -1    0    0  501    0  0.00000000000E+00 -0.00000000000E+00 -0.11325718048E+03  0.11325718048E+03  0.00000000000E+00 0. -1.
         23    2    1    2    0    0  0.00000000000E+00  0.00000000000E+00 -0.94395690586E+02  0.13211867038E+03  0.92438069326E+02 0.  0.
        -13    1    3    3    0    0 -0.43483401027E+02 -0.77605372645E+01 -0.27748938471E+02  0.52163547519E+02  0.00000000000E+00 0.  1.
         13    1    3    3    0    0  0.43483401027E+02  0.77605372645E+01 -0.66646752116E+02  0.79955122857E+02  0.00000000000E+00 0. -1.
<mgrwt>
<rscale>  0 0.92438069E+02</rscale>
<asrwt>0</asrwt>
<pdfrwt beam="2">  1        2 0.17424181E-01 0.92438069E+02</pdfrwt>
<pdfrwt beam="1">  1       -2 0.29017677E-02 0.92438069E+02</pdfrwt>
<totfact> 0.12278219E+05</totfact>
</mgrwt>
</event>
<event>
 5    1  0.6112843E+000  0.8272597E+02  0.7546771E-02  0.1321489E+00
          2   -1    0    0  501    0  0.00000000000E+00  0.00000000000E+00  0.98043690139E+02  0.98043690139E+02  0.00000000000E+00 0.  1.
         -2   -1    0    0    0  501 -0.00000000000E+00 -0.00000000000E+00 -0.17450346201E+02  0.17450346201E+02  0.00000000000E+00 0. -1.
         23    2    1    2    0    0  0.00000000000E+00  0.00000000000E+00  0.80593343937E+02  0.11549403634E+03  0.82725965350E+02 0.  0.
        -13    1    3    3    0    0 -0.27961445093E+02 -0.27158806219E+02  0.59614086317E+02  0.71226978416E+02  0.00000000000E+00 0. -1.
         13    1    3    3    0    0  0.27961445093E+02  0.27158806219E+02  0.20979257621E+02  0.44267057924E+02  0.00000000000E+00 0.  1.
<mgrwt>
<rscale>  0 0.82725965E+02</rscale>
<asrwt>0</asrwt>
<pdfrwt beam="1">  1        2 0.15083644E-01 0.82725965E+02</pdfrwt>
<pdfrwt beam="2">  1       -2 0.26846687E-02 0.82725965E+02</pdfrwt>
<totfact> 0.15908686E+05</totfact>
</mgrwt>
</event>
<event>
 5    1  0.6112843E+000  0.8867124E+02  0.7546771E-02  0.1306102E+00
          2   -1    0    0  501    0  0.00000000000E+00  0.00000000000E+00  0.21278849559E+03  0.21278849559E+03  0.00000000000E+00 0. -1.
         -2   -1    0    0    0  501 -0.00000000000E+00 -0.00000000000E+00 -0.92375642137E+01  0.92375642137E+01  0.00000000000E+00 0.  1.
         23    2    1    2    0    0  0.00000000000E+00  0.00000000000E+00  0.20355093138E+03  0.22202605981E+03  0.88671244312E+02 0.  0.
        -13    1    3    3    0    0  0.36457417953E+02  0.11016496169E+02  0.44944615026E+02  0.58911161349E+02  0.00000000000E+00 0.  1.
         13    1    3    3    0    0 -0.36457417953E+02 -0.11016496169E+02  0.15860631635E+03  0.16311489846E+03  0.00000000000E+00 0. -1.
<mgrwt>
<rscale>  0 0.88671244E+02</rscale>
<asrwt>0</asrwt>
<pdfrwt beam="1">  1        2 0.32736688E-01 0.88671244E+02</pdfrwt>
<pdfrwt beam="2">  1       -2 0.14211639E-02 0.88671244E+02</pdfrwt>
<totfact> 0.17047804E+05</totfact>
</mgrwt>
</event>
<event>
 5    1  0.6112843E+000  0.8997896E+02  0.7546771E-02  0.1302903E+00
          2   -1    0    0  501    0  0.00000000000E+00  0.00000000000E+00  0.13471555903E+02  0.13471555903E+02  0.00000000000E+00 0. -1.
         -2   -1    0    0    0  501 -0.00000000000E+00 -0.00000000000E+00 -0.15024642591E+03  0.15024642591E+03  0.00000000000E+00 0.  1.
         23    2    1    2    0    0  0.00000000000E+00  0.00000000000E+00 -0.13677487000E+03  0.16371798181E+03  0.89978955892E+02 0.  0.
        -13    1    3    3    0    0 -0.34339131787E+02 -0.13977905581E+02 -0.11475811264E+03  0.12059843380E+03  0.00000000000E+00 0.  1.
         13    1    3    3    0    0  0.34339131787E+02  0.13977905581E+02 -0.22016757358E+02  0.43119548013E+02  0.00000000000E+00 0. -1.
<mgrwt>
<rscale>  0 0.89978956E+02</rscale>
<asrwt>0</asrwt>
<pdfrwt beam="1">  1        2 0.20725470E-02 0.89978956E+02</pdfrwt>
<pdfrwt beam="2">  1       -2 0.23114835E-01 0.89978956E+02</pdfrwt>
<totfact> 0.72190036E+04</totfact>
</mgrwt>
</event>
<event>
 5    1  0.6112843E+000  0.9115318E+02  0.7546771E-02  0.1300083E+00
          2   -1    0    0  501    0  0.00000000000E+00  0.00000000000E+00  0.26817139582E+02  0.26817139582E+02  0.00000000000E+00 0. -1.
         -2   -1    0    0    0  501 -0.00000000000E+00 -0.00000000000E+00 -0.77458881745E+02  0.77458881745E+02  0.00000000000E+00 0.  1.
         23    2    1    2    0    0  0.00000000000E+00  0.00000000000E+00 -0.50641742164E+02  0.10427602133E+03  0.91153181922E+02 0.  0.
        -13    1    3    3    0    0 -0.41949431039E+02  0.77244951784E+01 -0.43688650162E+02  0.61058338851E+02  0.00000000000E+00 0.  1.
         13    1    3    3    0    0  0.41949431039E+02 -0.77244951784E+01 -0.69530920020E+01  0.43217682477E+02  0.00000000000E+00 0. -1.
<mgrwt>
<rscale>  0 0.91153182E+02</rscale>
<asrwt>0</asrwt>
<pdfrwt beam="1">  1        2 0.41257138E-02 0.91153182E+02</pdfrwt>
<pdfrwt beam="2">  1       -2 0.11916751E-01 0.91153182E+02</pdfrwt>
<totfact> 0.85892003E+04</totfact>
</mgrwt>
</event>
<event>
 5    1  0.6112843E+000  0.9254128E+02  0.7546771E-02  0.1296812E+00
         -3   -1    0    0    0  501 -0.00000000000E+00  0.00000000000E+00  0.10037992320E+02  0.10037992320E+02  0.00000000000E+00 0.  1.
          3   -1    0    0  501    0  0.00000000000E+00 -0.00000000000E+00 -0.21328688991E+03  0.21328688991E+03  0.00000000000E+00 0. -1.
         23    2    1    2    0    0  0.00000000000E+00  0.00000000000E+00 -0.20324889759E+03  0.22332488223E+03  0.92541280799E+02 0.  0.
        -13    1    3    3    0    0 -0.40473049714E+02 -0.58229459418E+01 -0.49362335280E+02  0.64098475777E+02  0.00000000000E+00 0.  1.
         13    1    3    3    0    0  0.40473049714E+02  0.58229459418E+01 -0.15388656231E+03  0.15922640646E+03  0.00000000000E+00 0. -1.
<mgrwt>
<rscale>  0 0.92541281E+02</rscale>
<asrwt>0</asrwt>
<pdfrwt beam="2">  1        3 0.32813366E-01 0.92541281E+02</pdfrwt>
<pdfrwt beam="1">  1       -3 0.15443066E-02 0.92541281E+02</pdfrwt>
<totfact> 0.26261228E+04</totfact>
</mgrwt>
</event>
<event>
 5    1  0.6112843E+000  0.9585654E+02  0.7546771E-02  0.1289259E+00
         -1   -1    0    0    0  501 -0.00000000000E+00  0.00000000000E+00  0.41112570313E+02  0.41112570313E+02  0.00000000000E+00 0.  1.
          1   -1    0    0  501    0  0.00000000000E+00 -0.00000000000E+00 -0.55873886503E+02  0.55873886503E+02  0.00000000000E+00 0. -1.
         23    2    1    2    0    0  0.00000000000E+00  0.00000000000E+00 -0.14761316190E+02  0.96986456816E+02  0.95856540466E+02 0.  0.
        -13    1    3    3    0    0 -0.20345075065E+02  0.20709807040E+02  0.31204161962E+02  0.42620627761E+02  0.00000000000E+00 0.  1.
         13    1    3    3    0    0  0.20345075065E+02 -0.20709807040E+02 -0.45965478152E+02  0.54365829054E+02  0.00000000000E+00 0. -1.
<mgrwt>
<rscale>  0 0.95856540E+02</rscale>
<asrwt>0</asrwt>
<pdfrwt beam="2">  1        1 0.85959825E-02 0.95856540E+02</pdfrwt>
<pdfrwt beam="1">  1       -1 0.63250108E-02 0.95856540E+02</pdfrwt>
<totfact> 0.82894359E+04</totfact>
</mgrwt>
</event>
<event>
 5    1  0.6112843E+000  0.8461867E+02  0.7546771E-02  0.1316433E+00
          2   -1    0    0  501    0  0.00000000000E+00  0.00000000000E+00  0.20996736688E+02  0.20996736688E+02  0.00000000000E+00 0. -1.
         -2   -1    0    0    0  501 -0.00000000000E+00 -0.00000000000E+00 -0.85255135456E+02  0.85255135456E+02  0.00000000000E+00 0.  1.
         23    2    1    2    0    0  0.00000000000E+00  0.00000000000E+00 -0.64258398768E+02  0.10625187214E+03  0.84618665328E+02 0.  0.
        -13    1    3    3    0    0  0.15542917096E+02 -0.13478818670E+02 -0.78551418032E+02  0.81200899623E+02  0.00000000000E+00 0.  1.
         13    1    3    3    0    0 -0.15542917096E+02  0.13478818670E+02  0.14293019264E+02  0.25050972522E+02  0.00000000000E+00 0. -1.
<mgrwt>
<rscale>  0 0.84618665E+02</rscale>
<asrwt>0</asrwt>
<pdfrwt beam="1">  1        2 0.32302672E-02 0.84618665E+02</pdfrwt>
<pdfrwt beam="2">  1       -2 0.13116175E-01 0.84618665E+02</pdfrwt>
<totfact> 0.10048498E+05</totfact>
</mgrwt>
</event>
<event>
 5    1  0.6112843E+000  0.9024608E+02  0.7546771E-02  0.1302257E+00
         -4   -1    0    0    0  501 -0.00000000000E+00  0.00000000000E+00  0.12189985936E+02  0.12189985936E+02  0.00000000000E+00 0.  1.
          4   -1    0    0  501    0  0.00000000000E+00 -0.00000000000E+00 -0.16702961856E+03  0.16702961856E+03  0.00000000000E+00 0. -1.
         23    2    1    2    0    0  0.00000000000E+00  0.00000000000E+00 -0.15483963262E+03  0.17921960450E+03  0.90246079163E+02 0.  0.
        -13    1    3    3    0    0 -0.64241905814E-01  0.34558234170E+02 -0.13503872024E+03  0.13939057228E+03  0.00000000000E+00 0. -1.
         13    1    3    3    0    0  0.64241905814E-01 -0.34558234170E+02 -0.19800912380E+02  0.39829032214E+02  0.00000000000E+00 0.  1.
<mgrwt>
<rscale>  0 0.90246079E+02</rscale>
<asrwt>0</asrwt>
<pdfrwt beam="2">  1        4 0.25696864E-01 0.90246079E+02</pdfrwt>
<pdfrwt beam="1">  1       -4 0.18753825E-02 0.90246079E+02</pdfrwt>
<totfact> 0.22906837E+04</totfact>
</mgrwt>
</event>
<event>
 5    1  0.6112843E+000  0.9123104E+02  0.7546771E-02  0.1299898E+00
         -1   -1    0    0    0  501 -0.00000000000E+00  0.00000000000E+00  0.72613407231E+02  0.72613407231E+02  0.00000000000E+00 0.  1.
          1   -1    0    0  501    0  0.00000000000E+00 -0.00000000000E+00 -0.28655527193E+02  0.28655527193E+02  0.00000000000E+00 0. -1.
         23    2    1    2    0    0  0.00000000000E+00  0.00000000000E+00  0.43957880038E+02  0.10126893442E+03  0.91231035630E+02 0.  0.
        -13    1    3    3    0    0  0.71035114570E+01 -0.40618822580E+02  0.43629503898E+02  0.60032343226E+02  0.00000000000E+00 0.  1.
         13    1    3    3    0    0 -0.71035114570E+01  0.40618822580E+02  0.32837614006E+00  0.41236591199E+02  0.00000000000E+00 0. -1.
<mgrwt>
<rscale>  0 0.91231036E+02</rscale>
<asrwt>0</asrwt>
<pdfrwt beam="2">  1        1 0.44085427E-02 0.91231036E+02</pdfrwt>
<pdfrwt beam="1">  1       -1 0.11171293E-01 0.91231036E+02</pdfrwt>
<totfact> 0.85894407E+04</totfact>
</mgrwt>
</event>
<event>
 5    1  0.6112843E+000  0.9210340E+02  0.7546771E-02  0.1297836E+00
         -2   -1    0    0    0  501 -0.00000000000E+00  0.00000000000E+00  0.30225116814E+02  0.30225116814E+02  0.00000000000E+00 0.  1.
          2   -1    0    0  501    0  0.00000000000E+00 -0.00000000000E+00 -0.70165454133E+02  0.70165454133E+02  0.00000000000E+00 0. -1.
         23    2    1    2    0    0  0.00000000000E+00  0.00000000000E+00 -0.39940337319E+02  0.10039057095E+03  0.92103399448E+02 0.  0.
        -13    1    3    3    0    0  0.80922420740E+01 -0.39783122411E+02 -0.43665017328E+02  0.59622268900E+02  0.00000000000E+00 0.  1.
         13    1    3    3    0    0 -0.80922420740E+01  0.39783122411E+02  0.37246800087E+01  0.40768302046E+02  0.00000000000E+00 0. -1.
<mgrwt>
<rscale>  0 0.92103399E+02</rscale>
<asrwt>0</asrwt>
<pdfrwt beam="2">  1        2 0.10794685E-01 0.92103399E+02</pdfrwt>
<pdfrwt beam="1">  1       -2 0.46500180E-02 0.92103399E+02</pdfrwt>
<totfact> 0.10759948E+05</totfact>
</mgrwt>
</event>
<event>
 5    1  0.6112843E+000  0.8694074E+02  0.7546771E-02  0.1310434E+00
          2   -1    0    0  501    0  0.00000000000E+00  0.00000000000E+00  0.11422072965E+02  0.11422072965E+02  0.00000000000E+00 0.  1.
         -2   -1    0    0    0  501 -0.00000000000E+00 -0.00000000000E+00 -0.16544045191E+03  0.16544045191E+03  0.00000000000E+00 0. -1.
         23    2    1    2    0    0  0.00000000000E+00  0.00000000000E+00 -0.15401837895E+03  0.17686252488E+03  0.86940736439E+02 0.  0.
        -13    1    3    3    0    0  0.26940139898E+02  0.32052028510E+02 -0.10078246142E+03  0.10913390032E+03  0.00000000000E+00 0. -1.
         13    1    3    3    0    0 -0.26940139898E+02 -0.32052028510E+02 -0.53235917523E+02  0.67728624553E+02  0.00000000000E+00 0.  1.
<mgrwt>
<rscale>  0 0.86940736E+02</rscale>
<asrwt>0</asrwt>
<pdfrwt beam="1">  1        2 0.17572420E-02 0.86940736E+02</pdfrwt>
<pdfrwt beam="2">  1       -2 0.25452376E-01 0.86940736E+02</pdfrwt>
<totfact> 0.75977314E+04</totfact>
</mgrwt>
</event>
<event>
 5    1  0.6112843E+000  0.8318579E+02  0.7546771E-02  0.1320246E+00
         -4   -1    0    0    0  501 -0.00000000000E+00  0.00000000000E+00  0.12284730212E+03  0.12284730212E+03  0.00000000000E+00 0.  1.
          4   -1    0    0  501    0  0.00000000000E+00 -0.00000000000E+00 -0.14082270552E+02  0.14082270552E+02  0.00000000000E+00 0. -1.
         23    2    1    2    0    0  0.00000000000E+00  0.00000000000E+00  0.10876503156E+03  0.13692957267E+03  0.83185790734E+02 0.  0.
        -13    1    3    3    0    0 -0.41202657102E+02 -0.56698054711E+01  0.53717335485E+02  0.67936424530E+02  0.00000000000E+00 0.  1.
         13    1    3    3    0    0  0.41202657102E+02  0.56698054711E+01  0.55047696079E+02  0.68993148138E+02  0.00000000000E+00 0. -1.
<mgrwt>
<rscale>  0 0.83185791E+02</rscale>
<asrwt>0</asrwt>
<pdfrwt beam="2">  1        4 0.21665032E-02 0.83185791E+02</pdfrwt>
<pdfrwt beam="1">  1       -4 0.18899584E-01 0.83185791E+02</pdfrwt>
<totfact> 0.31114666E+04</totfact>
</mgrwt>
</event>
<event>
 5    1  0.6112843E+000  0.9238191E+02  0.7546771E-02  0.1297184E+00
          3   -1    0    0  501    0  0.00000000000E+00  0.00000000000E+00  0.25317351948E+02  0.25317351948E+02  0.00000000000E+00 0. -1.
         -3   -1    0    0    0  501 -0.00000000000E+00 -0.00000000000E+00 -0.84274388553E+02  0.84274388553E+02  0.00000000000E+00 0.  1.
         23    2    1    2    0    0  0.00000000000E+00  0.00000000000E+00 -0.58957036605E+02  0.10959174050E+03  0.92381910679E+02 0.  0.
        -13    1    3    3    0    0  0.24170187463E+02  0.27373545770E+02 -0.63033867815E+02  0.72847631820E+02  0.00000000000E+00 0.  1.
         13    1    3    3    0    0 -0.24170187463E+02 -0.27373545770E+02  0.40768312101E+01  0.36744108681E+02  0.00000000000E+00 0. -1.
<mgrwt>
<rscale>  0 0.92381911E+02</rscale>
<asrwt>0</asrwt>
<pdfrwt beam="1">  1        3 0.38949771E-02 0.92381911E+02</pdfrwt>
<pdfrwt beam="2">  1       -3 0.12965291E-01 0.92381911E+02</pdfrwt>
<totfact> 0.32781435E+04</totfact>
</mgrwt>
</event>
<event>
 5    1  0.6112843E+000  0.9098522E+02  0.7546771E-02  0.1300483E+00
         -2   -1    0    0    0  501 -0.00000000000E+00  0.00000000000E+00  0.14126725692E+03  0.14126725692E+03  0.00000000000E+00 0.  1.
          2   -1    0    0  501    0  0.00000000000E+00 -0.00000000000E+00 -0.14650085391E+02  0.14650085391E+02  0.00000000000E+00 0. -1.
         23    2    1    2    0    0  0.00000000000E+00  0.00000000000E+00  0.12661717153E+03  0.15591734231E+03  0.90985215873E+02 0.  0.
        -13    1    3    3    0    0 -0.15397221298E+02  0.42783128757E+02  0.65795954010E+02  0.79978610228E+02  0.00000000000E+00 0. -1.
         13    1    3    3    0    0  0.15397221298E+02 -0.42783128757E+02  0.60821217521E+02  0.75938732085E+02  0.00000000000E+00 0.  1.
<mgrwt>
<rscale>  0 0.90985216E+02</rscale>
<asrwt>0</asrwt>
<pdfrwt beam="2">  1        2 0.22538594E-02 0.90985216E+02</pdfrwt>
<pdfrwt beam="1">  1       -2 0.21733423E-01 0.90985216E+02</pdfrwt>
<totfact> 0.71753922E+04</totfact>
</mgrwt>
</event>
<event>
 5    1  0.6112843E+000  0.9003396E+02  0.7546771E-02  0.1302769E+00
         -2   -1    0    0    0  501 -0.00000000000E+00  0.00000000000E+00  0.86876818653E+01  0.86876818653E+01  0.00000000000E+00 0.  1.
          2   -1    0    0  501    0  0.00000000000E+00 -0.00000000000E+00 -0.23326459446E+03  0.23326459446E+03  0.00000000000E+00 0. -1.
         23    2    1    2    0    0  0.00000000000E+00  0.00000000000E+00 -0.22457691259E+03  0.24195227633E+03  0.90033962194E+02 0.  0.
        -13    1    3    3    0    0  0.21048650097E+02 -0.39791210317E+02 -0.11127401432E+03  0.12003454650E+03  0.00000000000E+00 0. -1.
         13    1    3    3    0    0 -0.21048650097E+02  0.39791210317E+02 -0.11330289827E+03  0.12191772983E+03  0.00000000000E+00 0.  1.
<mgrwt>
<rscale>  0 0.90033962E+02</rscale>
<asrwt>0</asrwt>
<pdfrwt beam="2">  1        2 0.35886861E-01 0.90033962E+02</pdfrwt>
<pdfrwt beam="1">  1       -2 0.13365664E-02 0.90033962E+02</pdfrwt>
<totfact> 0.16924404E+05</totfact>
</mgrwt>
</event>
<event>
 5    1  0.6112843E+000  0.8822479E+02  0.7546771E-02  0.1307208E+00
         -2   -1    0    0    0  501 -0.00000000000E+00  0.00000000000E+00  0.91221928186E+02  0.91221928186E+02  0.00000000000E+00 0.  1.
          2   -1    0    0  501    0  0.00000000000E+00 -0.00000000000E+00 -0.21331531629E+02  0.21331531629E+02  0.00000000000E+00 0. -1.
         23    2    1    2    0    0  0.00000000000E+00  0.00000000000E+00  0.69890396558E+02  0.11255345981E+03  0.88224791217E+02 0.  0.
        -13    1    3    3    0    0  0.23791995514E+02  0.18207285249E+02  0.76251766458E+02  0.81926162943E+02  0.00000000000E+00 0.  1.
         13    1    3    3    0    0 -0.23791995514E+02 -0.18207285249E+02 -0.63613698998E+01  0.30627296872E+02  0.00000000000E+00 0. -1.
<mgrwt>
<rscale>  0 0.88224791E+02</rscale>
<asrwt>0</asrwt>
<pdfrwt beam="2">  1        2 0.32817741E-02 0.88224791E+02</pdfrwt>
<pdfrwt beam="1">  1       -2 0.14034143E-01 0.88224791E+02</pdfrwt>
<totfact> 0.88943539E+04</totfact>
</mgrwt>
</event>
<event>
 5    1  0.6112843E+000  0.9203272E+02  0.7546771E-02  0.1298003E+00
         -1   -1    0    0    0  501 -0.00000000000E+00  0.00000000000E+00  0.32922031275E+03  0.32922031275E+03  0.00000000000E+00 0.  1.
          1   -1    0    0  501    0  0.00000000000E+00 -0.00000000000E+00 -0.64318801834E+01  0.64318801834E+01  0.00000000000E+00 0. -1.
         23    2    1    2    0    0  0.00000000000E+00  0.00000000000E+00  0.32278843257E+03  0.33565219294E+03  0.92032724736E+02 0.  0.
        -13    1    3    3    0    0  0.29315196513E+02 -0.33698145445E+02  0.20177003333E+03  0.20665452355E+03  0.00000000000E+00 0. -1.
         13    1    3    3    0    0 -0.29315196513E+02  0.33698145445E+02  0.12101839924E+03  0.12899766939E+03  0.00000000000E+00 0.  1.
<mgrwt>
<rscale>  0 0.92032725E+02</rscale>
<asrwt>0</asrwt>
<pdfrwt beam="2">  1        1 0.98952028E-03 0.92032725E+02</pdfrwt>
<pdfrwt beam="1">  1       -1 0.50649266E-01 0.92032725E+02</pdfrwt>
<totfact> 0.56914888E+04</totfact>
</mgrwt>
</event>
<event>
 5    1  0.6112843E+000  0.9256462E+02  0.7546771E-02  0.1296757E+00
          1   -1    0    0  501    0  0.00000000000E+00  0.00000000000E+00  0.23129901504E+03  0.23129901504E+03  0.00000000000E+00 0. -1.
         -1   -1    0    0    0  501 -0.00000000000E+00 -0.00000000000E+00 -0.92609656722E+01  0.92609656722E+01  0.00000000000E+00 0.  1.
         23    2    1    2    0    0  0.00000000000E+00  0.00000000000E+00  0.22203804937E+03  0.24055998071E+03  0.92564620419E+02 0.  0.
        -13    1    3    3    0    0  0.33447853275E+02 -0.31430984786E+02  0.95559453746E+02  0.10601073009E+03  0.00000000000E+00 0.  1.
         13    1    3    3    0    0 -0.33447853275E+02  0.31430984786E+02  0.12647859562E+03  0.13454925063E+03  0.00000000000E+00 0. -1.
<mgrwt>
<rscale>  0 0.92564620E+02</rscale>
<asrwt>0</asrwt>
<pdfrwt beam="1">  1        1 0.35584460E-01 0.92564620E+02</pdfrwt>
<pdfrwt beam="2">  1       -1 0.14247641E-02 0.92564620E+02</pdfrwt>
<totfact> 0.11697745E+05</totfact>
</mgrwt>
</event>
<event>
 5    1  0.6112843E+000  0.9270612E+02  0.7546771E-02  0.1296428E+00
         -2   -1    0    0    0  501 -0.00000000000E+00  0.00000000000E+00  0.18542683455E+02  0.18542683455E+02  0.00000000000E+00 0.  1.
          2   -1    0    0  501    0  0.00000000000E+00 -0.00000000000E+00 -0.11587352565E+03  0.11587352565E+03  0.00000000000E+00 0. -1.
         23    2    1    2    0    0  0.00000000000E+00  0.00000000000E+00 -0.97330842194E+02  0.13441620910E+03  0.92706118610E+02 0.  0.
        -13    1    3    3    0    0  0.61540016869E+01 -0.21985259196E+02  0.98254512118E+01  0.24854835549E+02  0.00000000000E+00 0.  1.
         13    1    3    3    0    0 -0.61540016869E+01  0.21985259196E+02 -0.10715629341E+03  0.10956137355E+03  0.00000000000E+00 0. -1.
<mgrwt>
<rscale>  0 0.92706119E+02</rscale>
<asrwt>0</asrwt>
<pdfrwt beam="2">  1        2 0.17826696E-01 0.92706119E+02</pdfrwt>
<pdfrwt beam="1">  1       -2 0.28527206E-02 0.92706119E+02</pdfrwt>
<totfact> 0.12269641E+05</totfact>
</mgrwt>
</event>
<event>
 5    1  0.6112843E+000  0.9037242E+02  0.7546771E-02  0.1301952E+00
         -1   -1    0    0    0  501 -0.00000000000E+00  0.00000000000E+00  0.18650732807E+02  0.18650732807E+02  0.00000000000E+00 0.  1.
          1   -1    0    0  501    0  0.00000000000E+00 -0.00000000000E+00 -0.10947524060E+03  0.10947524060E+03  0.00000000000E+00 0. -1.
         23    2    1    2    0    0  0.00000000000E+00  0.00000000000E+00 -0.90824507792E+02  0.12812597341E+03  0.90372417503E+02 0.  0.
        -13    1    3    3    0    0  0.73052260784E+01 -0.43479272258E+02 -0.31378623522E+02  0.54114983676E+02  0.00000000000E+00 0.  1.
         13    1    3    3    0    0 -0.73052260784E+01  0.43479272258E+02 -0.59445884269E+02  0.74010989729E+02  0.00000000000E+00 0. -1.
<mgrwt>
<rscale>  0 0.90372418E+02</rscale>
<asrwt>0</asrwt>
<pdfrwt beam="2">  1        1 0.16842344E-01 0.90372418E+02</pdfrwt>
<pdfrwt beam="1">  1       -1 0.28693436E-02 0.90372418E+02</pdfrwt>
<totfact> 0.10863666E+05</totfact>
</mgrwt>
</event>
<event>
 5    1  0.6112843E+000  0.7885939E+02  0.7546771E-02  0.1332320E+00
          1   -1    0    0  501    0  0.00000000000E+00  0.00000000000E+00  0.13027192277E+03  0.13027192277E+03  0.00000000000E+00 0. -1.
         -1   -1    0    0    0  501 -0.00000000000E+00 -0.00000000000E+00 -0.11934274037E+02  0.11934274037E+02  0.00000000000E+00 0.  1.
         23    2    1    2    0    0  0.00000000000E+00  0.00000000000E+00  0.11833764873E+03  0.14220619680E+03  0.78859389437E+02 0.  0.
        -13    1    3    3    0    0  0.38460168344E+02 -0.86147733540E+01  0.61226435812E+02  0.72815350794E+02  0.00000000000E+00 0. -1.
         13    1    3    3    0    0 -0.38460168344E+02  0.86147733540E+01  0.57111212919E+02  0.69390846011E+02  0.00000000000E+00 0.  1.
<mgrwt>
<rscale>  0 0.78859389E+02</rscale>
<asrwt>0</asrwt>
<pdfrwt beam="1">  1        1 0.20041833E-01 0.78859389E+02</pdfrwt>
<pdfrwt beam="2">  1       -1 0.18360423E-02 0.78859389E+02</pdfrwt>
<totfact> 0.16132066E+05</totfact>
</mgrwt>
</event>
<event>
 5    1  0.6112843E+000  0.9513836E+02  0.7546771E-02  0.1290865E+00
         -1   -1    0    0    0  501 -0.00000000000E+00  0.00000000000E+00  0.95486840373E+02  0.95486840373E+02  0.00000000000E+00 0.  1.
          1   -1    0    0  501    0  0.00000000000E+00 -0.00000000000E+00 -0.23697787992E+02  0.23697787992E+02  0.00000000000E+00 0. -1.
         23    2    1    2    0    0  0.00000000000E+00  0.00000000000E+00  0.71789052381E+02  0.11918462836E+03  0.95138360280E+02 0.  0.
        -13    1    3    3    0    0  0.42553429896E+02 -0.19578269751E+02  0.46279809461E+02  0.65847731973E+02  0.00000000000E+00 0. -1.
         13    1    3    3    0    0 -0.42553429896E+02  0.19578269751E+02  0.25509242920E+02  0.53336896391E+02  0.00000000000E+00 0.  1.
<mgrwt>
<rscale>  0 0.95138360E+02</rscale>
<asrwt>0</asrwt>
<pdfrwt beam="2">  1        1 0.36458136E-02 0.95138360E+02</pdfrwt>
<pdfrwt beam="1">  1       -1 0.14690283E-01 0.95138360E+02</pdfrwt>
<totfact> 0.73548578E+04</totfact>
</mgrwt>
</event>
<event>
 5    1  0.6112843E+000  0.9343579E+02  0.7546771E-02  0.1294738E+00
         -3   -1    0    0    0  501 -0.00000000000E+00  0.00000000000E+00  0.10294287719E+03  0.10294287719E+03  0.00000000000E+00 0.  1.
          3   -1    0    0  501    0  0.00000000000E+00 -0.00000000000E+00 -0.21201676764E+02  0.21201676764E+02  0.00000000000E+00 0. -1.
         23    2    1    2    0    0  0.00000000000E+00  0.00000000000E+00  0.81741200428E+02  0.12414455396E+03  0.93435787734E+02 0.  0.
        -13    1    3    3    0    0  0.20811630041E+02 -0.37827987498E+00  0.96441303698E+02  0.98662009404E+02  0.00000000000E+00 0.  1.
         13    1    3    3    0    0 -0.20811630041E+02  0.37827987498E+00 -0.14700103271E+02  0.25482544551E+02  0.00000000000E+00 0. -1.
<mgrwt>
<rscale>  0 0.93435788E+02</rscale>
<asrwt>0</asrwt>
<pdfrwt beam="2">  1        3 0.32617965E-02 0.93435788E+02</pdfrwt>
<pdfrwt beam="1">  1       -3 0.15837365E-01 0.93435788E+02</pdfrwt>
<totfact> 0.30841540E+04</totfact>
</mgrwt>
</event>
<event>
 5    1  0.6112843E+000  0.9166772E+02  0.7546771E-02  0.1298863E+00
          2   -1    0    0  501    0  0.00000000000E+00  0.00000000000E+00  0.32880513433E+02  0.32880513433E+02  0.00000000000E+00 0. -1.
         -2   -1    0    0    0  501 -0.00000000000E+00 -0.00000000000E+00 -0.63890207759E+02  0.63890207759E+02  0.00000000000E+00 0.  1.
         23    2    1    2    0    0  0.00000000000E+00  0.00000000000E+00 -0.31009694326E+02  0.96770721192E+02  0.91667722443E+02 0.  0.
        -13    1    3    3    0    0  0.22750850199E+02  0.23523967864E+02 -0.49381189471E+02  0.59240865308E+02  0.00000000000E+00 0.  1.
         13    1    3    3    0    0 -0.22750850199E+02 -0.23523967864E+02  0.18371495145E+02  0.37529855884E+02  0.00000000000E+00 0. -1.
<mgrwt>
<rscale>  0 0.91667722E+02</rscale>
<asrwt>0</asrwt>
<pdfrwt beam="1">  1        2 0.50585405E-02 0.91667722E+02</pdfrwt>
<pdfrwt beam="2">  1       -2 0.98292627E-02 0.91667722E+02</pdfrwt>
<totfact> 0.89217654E+04</totfact>
</mgrwt>
</event>
<event>
 5    1  0.6112843E+000  0.8236260E+02  0.7546771E-02  0.1322477E+00
         -2   -1    0    0    0  501 -0.00000000000E+00  0.00000000000E+00  0.32916490489E+02  0.32916490489E+02  0.00000000000E+00 0.  1.
          2   -1    0    0  501    0  0.00000000000E+00 -0.00000000000E+00 -0.51521271469E+02  0.51521271469E+02  0.00000000000E+00 0. -1.
         23    2    1    2    0    0  0.00000000000E+00  0.00000000000E+00 -0.18604780980E+02  0.84437761959E+02  0.82362599335E+02 0.  0.
        -13    1    3    3    0    0 -0.48118962332E+01 -0.34624829129E+02 -0.31619327291E+02  0.47136132594E+02  0.00000000000E+00 0. -1.
         13    1    3    3    0    0  0.48118962332E+01  0.34624829129E+02  0.13014546311E+02  0.37301629365E+02  0.00000000000E+00 0.  1.
<mgrwt>
<rscale>  0 0.82362599E+02</rscale>
<asrwt>0</asrwt>
<pdfrwt beam="2">  1        2 0.79263494E-02 0.82362599E+02</pdfrwt>
<pdfrwt beam="1">  1       -2 0.50640755E-02 0.82362599E+02</pdfrwt>
<totfact> 0.13566171E+05</totfact>
</mgrwt>
</event>
<event>
 5    1  0.6112843E+000  0.9688690E+02  0.7546771E-02  0.1286982E+00
          1   -1    0    0  501    0  0.00000000000E+00  0.00000000000E+00  0.17990969739E+03  0.17990969739E+03  0.00000000000E+00 0. -1.
         -1   -1    0    0    0  501 -0.00000000000E+00 -0.00000000000E+00 -0.13044142703E+02  0.13044142703E+02  0.00000000000E+00 0.  1.
         23    2    1    2    0    0  0.00000000000E+00  0.00000000000E+00  0.16686555469E+03  0.19295384009E+03  0.96886898316E+02 0.  0.
        -13    1    3    3    0    0  0.75538068799E+01  0.40314701182E+02  0.13476781106E+03  0.14087121078E+03  0.00000000000E+00 0. -1.
         13    1    3    3    0    0 -0.75538068799E+01 -0.40314701182E+02  0.32097743628E+02  0.52082629310E+02  0.00000000000E+00 0.  1.
<mgrwt>
<rscale>  0 0.96886898E+02</rscale>
<asrwt>0</asrwt>
<pdfrwt beam="1">  1        1 0.27678413E-01 0.96886898E+02</pdfrwt>
<pdfrwt beam="2">  1       -1 0.20067913E-02 0.96886898E+02</pdfrwt>
<totfact> 0.98476854E+04</totfact>
</mgrwt>
</event>
<event>
 5    1  0.6112843E+000  0.9014759E+02  0.7546771E-02  0.1302495E+00
          4   -1    0    0  501    0  0.00000000000E+00  0.00000000000E+00  0.39104680533E+02  0.39104680533E+02  0.00000000000E+00 0.  1.
         -4   -1    0    0    0  501 -0.00000000000E+00 -0.00000000000E+00 -0.51954062201E+02  0.51954062201E+02  0.00000000000E+00 0. -1.
         23    2    1    2    0    0  0.00000000000E+00  0.00000000000E+00 -0.12849381668E+02  0.91058742735E+02  0.90147590202E+02 0.  0.
        -13    1    3    3    0    0  0.11298360026E+02  0.31024994880E+02 -0.37417769461E+02  0.49902832766E+02  0.00000000000E+00 0. -1.
         13    1    3    3    0    0 -0.11298360026E+02 -0.31024994880E+02  0.24568387794E+02  0.41155909969E+02  0.00000000000E+00 0.  1.
<mgrwt>
<rscale>  0 0.90147590E+02</rscale>
<asrwt>0</asrwt>
<pdfrwt beam="1">  1        4 0.60161047E-02 0.90147590E+02</pdfrwt>
<pdfrwt beam="2">  1       -4 0.79929326E-02 0.90147590E+02</pdfrwt>
<totfact> 0.27867972E+04</totfact>
</mgrwt>
</event>
<event>
 5    1  0.6112843E+000  0.9110128E+02  0.7546771E-02  0.1300206E+00
          2   -1    0    0  501    0  0.00000000000E+00  0.00000000000E+00  0.12077998421E+02  0.12077998421E+02  0.00000000000E+00 0. -1.
         -2   -1    0    0    0  501 -0.00000000000E+00 -0.00000000000E+00 -0.17178845587E+03  0.17178845587E+03  0.00000000000E+00 0.  1.
         23    2    1    2    0    0  0.00000000000E+00  0.00000000000E+00 -0.15971045745E+03  0.18386645429E+03  0.91101277679E+02 0.  0.
        -13    1    3    3    0    0 -0.90952120160E+01 -0.39096314185E+02 -0.36398477376E+02  0.54185734467E+02  0.00000000000E+00 0.  1.
         13    1    3    3    0    0  0.90952120160E+01  0.39096314185E+02 -0.12331198007E+03  0.12968071982E+03  0.00000000000E+00 0. -1.
<mgrwt>
<rscale>  0 0.91101278E+02</rscale>
<asrwt>0</asrwt>
<pdfrwt beam="1">  1        2 0.18581538E-02 0.91101278E+02</pdfrwt>
<pdfrwt beam="2">  1       -2 0.26428991E-01 0.91101278E+02</pdfrwt>
<totfact> 0.66500642E+04</totfact>
</mgrwt>
</event>
<event>
 5    1  0.6112843E+000  0.9263938E+02  0.7546771E-02  0.1296583E+00
          1   -1    0    0  501    0  0.00000000000E+00  0.00000000000E+00  0.14889474446E+03  0.14889474446E+03  0.00000000000E+00 0. -1.
         -1   -1    0    0    0  501 -0.00000000000E+00 -0.00000000000E+00 -0.14409600483E+02  0.14409600483E+02  0.00000000000E+00 0.  1.
         23    2    1    2    0    0  0.00000000000E+00  0.00000000000E+00  0.13448514397E+03  0.16330434494E+03  0.92639382158E+02 0.  0.
        -13    1    3    3    0    0 -0.10890371641E+02  0.38446962778E+02  0.10853659882E+03  0.11565881906E+03  0.00000000000E+00 0. -1.
         13    1    3    3    0    0  0.10890371641E+02 -0.38446962778E+02  0.25948545150E+02  0.47645525883E+02  0.00000000000E+00 0.  1.
<mgrwt>
<rscale>  0 0.92639382E+02</rscale>
<asrwt>0</asrwt>
<pdfrwt beam="1">  1        1 0.22906883E-01 0.92639382E+02</pdfrwt>
<pdfrwt beam="2">  1       -1 0.22168617E-02 0.92639382E+02</pdfrwt>
<totfact> 0.10726583E+05</totfact>
</mgrwt>
</event>
<event>
 5    1  0.6112843E+000  0.8862458E+02  0.7546771E-02  0.1306217E+00
          2   -1    0    0  501    0  0.00000000000E+00  0.00000000000E+00  0.19462814541E+03  0.19462814541E+03  0.00000000000E+00 0. -1.
         -2   -1    0    0    0  501 -0.00000000000E+00 -0.00000000000E+00 -0.10088875372E+02  0.10088875372E+02  0.00000000000E+00 0.  1.
         23    2    1    2    0    0  0.00000000000E+00  0.00000000000E+00  0.18453927004E+03  0.20471702078E+03  0.88624581305E+02 0.  0.
        -13    1    3    3    0    0 -0.30542674088E+02 -0.22691887253E+02  0.39808045865E+02  0.55067751026E+02  0.00000000000E+00 0.  1.
         13    1    3    3    0    0  0.30542674088E+02  0.22691887253E+02  0.14473122417E+03  0.14964926976E+03  0.00000000000E+00 0. -1.
<mgrwt>
<rscale>  0 0.88624581E+02</rscale>
<asrwt>0</asrwt>
<pdfrwt beam="1">  1        2 0.29942789E-01 0.88624581E+02</pdfrwt>
<pdfrwt beam="2">  1       -2 0.15521348E-02 0.88624581E+02</pdfrwt>
<totfact> 0.16531339E+05</totfact>
</mgrwt>
</event>
<event>
 5    1  0.6112843E+000  0.9132721E+02  0.7546771E-02  0.1299669E+00
          4   -1    0    0  501    0  0.00000000000E+00  0.00000000000E+00  0.67811041412E+02  0.67811041412E+02  0.00000000000E+00 0. -1.
         -4   -1    0    0    0  501 -0.00000000000E+00 -0.00000000000E+00 -0.30749632733E+02  0.30749632733E+02  0.00000000000E+00 0.  1.
         23    2    1    2    0    0  0.00000000000E+00  0.00000000000E+00  0.37061408678E+02  0.98560674145E+02  0.91327205556E+02 0.  0.
        -13    1    3    3    0    0 -0.63626814429E+00  0.27068367694E+02 -0.21152067564E+02  0.34358569950E+02  0.00000000000E+00 0.  1.
         13    1    3    3    0    0  0.63626814429E+00 -0.27068367694E+02  0.58213476243E+02  0.64202104195E+02  0.00000000000E+00 0. -1.
<mgrwt>
<rscale>  0 0.91327206E+02</rscale>
<asrwt>0</asrwt>
<pdfrwt beam="1">  1        4 0.10432468E-01 0.91327206E+02</pdfrwt>
<pdfrwt beam="2">  1       -4 0.47307127E-02 0.91327206E+02</pdfrwt>
<totfact> 0.26429031E+04</totfact>
</mgrwt>
</event>
<event>
 5    1  0.6112843E+000  0.9092953E+02  0.7546771E-02  0.1300616E+00
          1   -1    0    0  501    0  0.00000000000E+00  0.00000000000E+00  0.30530857254E+02  0.30530857254E+02  0.00000000000E+00 0. -1.
         -1   -1    0    0    0  501 -0.00000000000E+00 -0.00000000000E+00 -0.67703464419E+02  0.67703464419E+02  0.00000000000E+00 0.  1.
         23    2    1    2    0    0  0.00000000000E+00  0.00000000000E+00 -0.37172607165E+02  0.98234321673E+02  0.90929528929E+02 0.  0.
        -13    1    3    3    0    0 -0.20259989435E+02 -0.53963605346E+01  0.24996288986E+02  0.32625179570E+02  0.00000000000E+00 0. -1.
         13    1    3    3    0    0  0.20259989435E+02  0.53963605346E+01 -0.62168896151E+02  0.65609142103E+02  0.00000000000E+00 0.  1.
<mgrwt>
<rscale>  0 0.90929529E+02</rscale>
<asrwt>0</asrwt>
<pdfrwt beam="1">  1        1 0.46970550E-02 0.90929529E+02</pdfrwt>
<pdfrwt beam="2">  1       -1 0.10415918E-01 0.90929529E+02</pdfrwt>
<totfact> 0.87609271E+04</totfact>
</mgrwt>
</event>
<event>
 5    1  0.6112843E+000  0.9022807E+02  0.7546771E-02  0.1302300E+00
          3   -1    0    0  501    0  0.00000000000E+00  0.00000000000E+00  0.64306520024E+02  0.64306520024E+02  0.00000000000E+00 0. -1.
         -3   -1    0    0    0  501 -0.00000000000E+00 -0.00000000000E+00 -0.31649610784E+02  0.31649610784E+02  0.00000000000E+00 0.  1.
         23    2    1    2    0    0  0.00000000000E+00  0.00000000000E+00  0.32656909241E+02  0.95956130808E+02  0.90228073893E+02 0.  0.
        -13    1    3    3    0    0  0.29456352702E+02 -0.13893013436E+02  0.49528649556E+02  0.59277142843E+02  0.00000000000E+00 0. -1.
         13    1    3    3    0    0 -0.29456352702E+02  0.13893013436E+02 -0.16871740315E+02  0.36678987964E+02  0.00000000000E+00 0.  1.
<mgrwt>
<rscale>  0 0.90228074E+02</rscale>
<asrwt>0</asrwt>
<pdfrwt beam="1">  1        3 0.98933107E-02 0.90228074E+02</pdfrwt>
<pdfrwt beam="2">  1       -3 0.48691709E-02 0.90228074E+02</pdfrwt>
<totfact> 0.35982236E+04</totfact>
</mgrwt>
</event>
<event>
 5    1  0.6112843E+000  0.8724458E+02  0.7546771E-02  0.1309665E+00
         -4   -1    0    0    0  501 -0.00000000000E+00  0.00000000000E+00  0.42776697771E+02  0.42776697771E+02  0.00000000000E+00 0.  1.
          4   -1    0    0  501    0  0.00000000000E+00 -0.00000000000E+00 -0.44484601578E+02  0.44484601578E+02  0.00000000000E+00 0. -1.
         23    2    1    2    0    0  0.00000000000E+00  0.00000000000E+00 -0.17079038071E+01  0.87261299349E+02  0.87244583950E+02 0.  0.
        -13    1    3    3    0    0  0.21151375357E+02  0.72291341777E+01 -0.38321285107E+02  0.44363971336E+02  0.00000000000E+00 0. -1.
         13    1    3    3    0    0 -0.21151375357E+02 -0.72291341777E+01  0.36613381299E+02  0.42897328013E+02  0.00000000000E+00 0.  1.
<mgrwt>
<rscale>  0 0.87244584E+02</rscale>
<asrwt>0</asrwt>
<pdfrwt beam="2">  1        4 0.68437848E-02 0.87244584E+02</pdfrwt>
<pdfrwt beam="1">  1       -4 0.65810304E-02 0.87244584E+02</pdfrwt>
<totfact> 0.30723233E+04</totfact>
</mgrwt>
</event>
<event>
 5    1  0.6112843E+000  0.9162284E+02  0.7546771E-02  0.1298969E+00
          2   -1    0    0  501    0  0.00000000000E+00  0.00000000000E+00  0.31890217082E+03  0.31890217082E+03  0.00000000000E+00 0. -1.
         -2   -1    0    0    0  501 -0.00000000000E+00 -0.00000000000E+00 -0.65809714760E+01  0.65809714760E+01  0.00000000000E+00 0.  1.
         23    2    1    2    0    0  0.00000000000E+00  0.00000000000E+00  0.31232119934E+03  0.32548314229E+03  0.91622837542E+02 0.  0.
        -13    1    3    3    0    0 -0.12493744852E+02 -0.42765496037E+02  0.11828023773E+03  0.12639302176E+03  0.00000000000E+00 0. -1.
         13    1    3    3    0    0  0.12493744852E+02  0.42765496037E+02  0.19404096161E+03  0.19909012053E+03  0.00000000000E+00 0.  1.
<mgrwt>
<rscale>  0 0.91622838E+02</rscale>
<asrwt>0</asrwt>
<pdfrwt beam="1">  1        2 0.49061861E-01 0.91622838E+02</pdfrwt>
<pdfrwt beam="2">  1       -2 0.10124574E-02 0.91622838E+02</pdfrwt>
<totfact> 0.18140906E+05</totfact>
</mgrwt>
</event>
<event>
 5    1  0.6112843E+000  0.9313462E+02  0.7546771E-02  0.1295434E+00
         -1   -1    0    0    0  501 -0.00000000000E+00  0.00000000000E+00  0.10635576808E+02  0.10635576808E+02  0.00000000000E+00 0.  1.
          1   -1    0    0  501    0  0.00000000000E+00 -0.00000000000E+00 -0.20389251676E+03  0.20389251676E+03  0.00000000000E+00 0. -1.
         23    2    1    2    0    0  0.00000000000E+00  0.00000000000E+00 -0.19325693995E+03  0.21452809357E+03  0.93134623476E+02 0.  0.
        -13    1    3    3    0    0  0.36235309578E+02  0.72710779920E+01 -0.16188675431E+03  0.16605176138E+03  0.00000000000E+00 0. -1.
         13    1    3    3    0    0 -0.36235309578E+02 -0.72710779920E+01 -0.31370185642E+02  0.48476332190E+02  0.00000000000E+00 0.  1.
<mgrwt>
<rscale>  0 0.93134623E+02</rscale>
<asrwt>0</asrwt>
<pdfrwt beam="2">  1        1 0.31368079E-01 0.93134623E+02</pdfrwt>
<pdfrwt beam="1">  1       -1 0.16362426E-02 0.93134623E+02</pdfrwt>
<totfact> 0.11225759E+05</totfact>
</mgrwt>
</event>
<event>
 5    1  0.6112843E+000  0.8905971E+02  0.7546771E-02  0.1305145E+00
          2   -1    0    0  501    0  0.00000000000E+00  0.00000000000E+00  0.44086426301E+03  0.44086426301E+03  0.00000000000E+00 0. -1.
         -2   -1    0    0    0  501 -0.00000000000E+00 -0.00000000000E+00 -0.44977747531E+01  0.44977747531E+01  0.00000000000E+00 0.  1.
         23    2    1    2    0    0  0.00000000000E+00  0.00000000000E+00  0.43636648826E+03  0.44536203776E+03  0.89059713714E+02 0.  0.
        -13    1    3    3    0    0  0.38077069203E+02 -0.22686474219E+02  0.19675074734E+03  0.20168142178E+03  0.00000000000E+00 0. -1.
         13    1    3    3    0    0 -0.38077069203E+02  0.22686474219E+02  0.23961574091E+03  0.24368061598E+03  0.00000000000E+00 0.  1.
<mgrwt>
<rscale>  0 0.89059714E+02</rscale>
<asrwt>0</asrwt>
<pdfrwt beam="1">  1        2 0.67825237E-01 0.89059714E+02</pdfrwt>
<pdfrwt beam="2">  1       -2 0.69196569E-03 0.89059714E+02</pdfrwt>
<totfact> 0.21982950E+05</totfact>
</mgrwt>
</event>
<event>
 5    1  0.6112843E+000  0.8338640E+02  0.7546771E-02  0.1319707E+00
         -2   -1    0    0    0  501 -0.00000000000E+00  0.00000000000E+00  0.18048743876E+02  0.18048743876E+02  0.00000000000E+00 0.  1.
          2   -1    0    0  501    0  0.00000000000E+00 -0.00000000000E+00 -0.96312684516E+02  0.96312684516E+02  0.00000000000E+00 0. -1.
         23    2    1    2    0    0  0.00000000000E+00  0.00000000000E+00 -0.78263940640E+02  0.11436142839E+03  0.83386401166E+02 0.  0.
        -13    1    3    3    0    0  0.30140809218E+02 -0.10265321568E+01 -0.78614905248E+02  0.84201101392E+02  0.00000000000E+00 0. -1.
         13    1    3    3    0    0 -0.30140809218E+02  0.10265321568E+01  0.35096460755E+00  0.30160327000E+02  0.00000000000E+00 0.  1.
<mgrwt>
<rscale>  0 0.83386401E+02</rscale>
<asrwt>0</asrwt>
<pdfrwt beam="2">  1        2 0.14817336E-01 0.83386401E+02</pdfrwt>
<pdfrwt beam="1">  1       -2 0.27767299E-02 0.83386401E+02</pdfrwt>
<totfact> 0.15487775E+05</totfact>
</mgrwt>
</event>
<event>
 5    1  0.6112843E+000  0.9151760E+02  0.7546771E-02  0.1299218E+00
          1   -1    0    0  501    0  0.00000000000E+00  0.00000000000E+00  0.30872784699E+02  0.30872784699E+02  0.00000000000E+00 0. -1.
         -1   -1    0    0    0  501 -0.00000000000E+00 -0.00000000000E+00 -0.67822443688E+02  0.67822443688E+02  0.00000000000E+00 0.  1.
         23    2    1    2    0    0  0.00000000000E+00  0.00000000000E+00 -0.36949658989E+02  0.98695228387E+02  0.91517598346E+02 0.  0.
        -13    1    3    3    0    0 -0.10054149246E+01 -0.33081115886E+02 -0.52552103009E+02  0.62105511979E+02  0.00000000000E+00 0.  1.
         13    1    3    3    0    0  0.10054149246E+01  0.33081115886E+02  0.15602444020E+02  0.36589716408E+02  0.00000000000E+00 0. -1.
<mgrwt>
<rscale>  0 0.91517598E+02</rscale>
<asrwt>0</asrwt>
<pdfrwt beam="1">  1        1 0.47496592E-02 0.91517598E+02</pdfrwt>
<pdfrwt beam="2">  1       -1 0.10434222E-01 0.91517598E+02</pdfrwt>
<totfact> 0.86157509E+04</totfact>
</mgrwt>
</event>
<event>
 5    1  0.6112843E+000  0.9272546E+02  0.7546771E-02  0.1296383E+00
          3   -1    0    0  501    0  0.00000000000E+00  0.00000000000E+00  0.13043946831E+03  0.13043946831E+03  0.00000000000E+00 0. -1.
         -3   -1    0    0    0  501 -0.00000000000E+00 -0.00000000000E+00 -0.16478928775E+02  0.16478928775E+02  0.00000000000E+00 0.  1.
         23    2    1    2    0    0  0.00000000000E+00  0.00000000000E+00  0.11396053954E+03  0.14691839709E+03  0.92725459455E+02 0.  0.
        -13    1    3    3    0    0  0.28765757913E+02 -0.31618280931E+01 -0.41157475992E+00  0.28941931155E+02  0.00000000000E+00 0.  1.
         13    1    3    3    0    0 -0.28765757913E+02  0.31618280931E+01  0.11437211430E+03  0.11797646593E+03  0.00000000000E+00 0. -1.
<mgrwt>
<rscale>  0 0.92725459E+02</rscale>
<asrwt>0</asrwt>
<pdfrwt beam="1">  1        3 0.20067610E-01 0.92725459E+02</pdfrwt>
<pdfrwt beam="2">  1       -3 0.25352199E-02 0.92725459E+02</pdfrwt>
<totfact> 0.30088521E+04</totfact>
</mgrwt>
</event>
<event>
 5    1  0.6112843E+000  0.8849550E+02  0.7546771E-02  0.1306536E+00
         -2   -1    0    0    0  501 -0.00000000000E+00  0.00000000000E+00  0.11224236070E+02  0.11224236070E+02  0.00000000000E+00 0.  1.
          2   -1    0    0  501    0  0.00000000000E+00 -0.00000000000E+00 -0.17443178874E+03  0.17443178874E+03  0.00000000000E+00 0. -1.
         23    2    1    2    0    0  0.00000000000E+00  0.00000000000E+00 -0.16320755267E+03  0.18565602481E+03  0.88495504404E+02 0.  0.
        -13    1    3    3    0    0  0.22393913198E+02 -0.35331612028E+02 -0.51343334429E+02  0.66226491279E+02  0.00000000000E+00 0.  1.
         13    1    3    3    0    0 -0.22393913198E+02  0.35331612028E+02 -0.11186421824E+03  0.11942953353E+03  0.00000000000E+00 0. -1.
<mgrwt>
<rscale>  0 0.88495504E+02</rscale>
<asrwt>0</asrwt>
<pdfrwt beam="2">  1        2 0.26835657E-01 0.88495504E+02</pdfrwt>
<pdfrwt beam="1">  1       -2 0.17268057E-02 0.88495504E+02</pdfrwt>
<totfact> 0.15964144E+05</totfact>
</mgrwt>
</event>
<event>
 5    1  0.6112843E+000  0.9149696E+02  0.7546771E-02  0.1299267E+00
          1   -1    0    0  501    0  0.00000000000E+00  0.00000000000E+00  0.32538237191E+02  0.32538237191E+02  0.00000000000E+00 0. -1.
         -1   -1    0    0    0  501 -0.00000000000E+00 -0.00000000000E+00 -0.64321961505E+02  0.64321961505E+02  0.00000000000E+00 0.  1.
         23    2    1    2    0    0  0.00000000000E+00  0.00000000000E+00 -0.31783724314E+02  0.96860198696E+02  0.91496956016E+02 0.  0.
        -13    1    3    3    0    0 -0.22766192027E+02  0.30419986811E+02 -0.42865782323E+02  0.57281326723E+02  0.00000000000E+00 0.  1.
         13    1    3    3    0    0  0.22766192027E+02 -0.30419986811E+02  0.11082058009E+02  0.39578871973E+02  0.00000000000E+00 0. -1.
<mgrwt>
<rscale>  0 0.91496956E+02</rscale>
<asrwt>0</asrwt>
<pdfrwt beam="1">  1        1 0.50058827E-02 0.91496956E+02</pdfrwt>
<pdfrwt beam="2">  1       -1 0.98956862E-02 0.91496956E+02</pdfrwt>
<totfact> 0.86939000E+04</totfact>
</mgrwt>
</event>
<event>
 5    1  0.6112843E+000  0.9113069E+02  0.7546771E-02  0.1300136E+00
          3   -1    0    0  501    0  0.00000000000E+00  0.00000000000E+00  0.49123095459E+02  0.49123095459E+02  0.00000000000E+00 0. -1.
         -3   -1    0    0    0  501 -0.00000000000E+00 -0.00000000000E+00 -0.42265264473E+02  0.42265264473E+02  0.00000000000E+00 0.  1.
         23    2    1    2    0    0  0.00000000000E+00  0.00000000000E+00  0.68578309863E+01  0.91388359932E+02  0.91130689042E+02 0.  0.
        -13    1    3    3    0    0  0.34056168605E+02 -0.12786098330E+02  0.30945407003E+02  0.47759032079E+02  0.00000000000E+00 0. -1.
         13    1    3    3    0    0 -0.34056168605E+02  0.12786098330E+02 -0.24087576017E+02  0.43629327853E+02  0.00000000000E+00 0.  1.
<mgrwt>
<rscale>  0 0.91130689E+02</rscale>
<asrwt>0</asrwt>
<pdfrwt beam="1">  1        3 0.75573993E-02 0.91130689E+02</pdfrwt>
<pdfrwt beam="2">  1       -3 0.65023484E-02 0.91130689E+02</pdfrwt>
<totfact> 0.35371226E+04</totfact>
</mgrwt>
</event>
<event>
 5    1  0.6112843E+000  0.8472782E+02  0.7546771E-02  0.1316146E+00
          1   -1    0    0  501    0  0.00000000000E+00  0.00000000000E+00  0.16896660372E+03  0.16896660372E+03  0.00000000000E+00 0. -1.
         -1   -1    0    0    0  501 -0.00000000000E+00 -0.00000000000E+00 -0.10621631907E+02  0.10621631907E+02  0.00000000000E+00 0.  1.
         23    2    1    2    0    0  0.00000000000E+00  0.00000000000E+00  0.15834497182E+03  0.17958823563E+03  0.84727824694E+02 0.  0.
        -13    1    3    3    0    0 -0.61169459292E+01  0.29324906120E+02  0.15679043994E+02  0.33811234331E+02  0.00000000000E+00 0.  1.
         13    1    3    3    0    0  0.61169459292E+01 -0.29324906120E+02  0.14266592782E+03  0.14577700130E+03  0.00000000000E+00 0. -1.
<mgrwt>
<rscale>  0 0.84727825E+02</rscale>
<asrwt>0</asrwt>
<pdfrwt beam="1">  1        1 0.25994860E-01 0.84727825E+02</pdfrwt>
<pdfrwt beam="2">  1       -1 0.16340973E-02 0.84727825E+02</pdfrwt>
<totfact> 0.13952718E+05</totfact>
</mgrwt>
</event>
<event>
 5    1  0.6112843E+000  0.9259197E+02  0.7546771E-02  0.1296694E+00
          1   -1    0    0  501    0  0.00000000000E+00  0.00000000000E+00  0.64357313490E+01  0.64357313490E+01  0.00000000000E+00 0. -1.
         -1   -1    0    0    0  501 -0.00000000000E+00 -0.00000000000E+00 -0.33303416695E+03  0.33303416695E+03  0.00000000000E+00 0.  1.
         23    2    1    2    0    0  0.00000000000E+00  0.00000000000E+00 -0.32659843561E+03  0.33946989830E+03  0.92591974351E+02 0.  0.
        -13    1    3    3    0    0  0.30472405465E+02  0.33612267734E+02 -0.12950429080E+03  0.13722140275E+03  0.00000000000E+00 0. -1.
         13    1    3    3    0    0 -0.30472405465E+02 -0.33612267734E+02 -0.19709414481E+03  0.20224849556E+03  0.00000000000E+00 0.  1.
<mgrwt>
<rscale>  0 0.92591974E+02</rscale>
<asrwt>0</asrwt>
<pdfrwt beam="1">  1        1 0.99011210E-03 0.92591974E+02</pdfrwt>
<pdfrwt beam="2">  1       -1 0.51236047E-01 0.92591974E+02</pdfrwt>
<totfact> 0.55743077E+04</totfact>
</mgrwt>
</event>
<event>
 5    1  0.6112843E+000  0.9460142E+02  0.7546771E-02  0.1292076E+00
          1   -1    0    0  501    0  0.00000000000E+00  0.00000000000E+00  0.13923091717E+03  0.13923091717E+03  0.00000000000E+00 0. -1.
         -1   -1    0    0    0  501 -0.00000000000E+00 -0.00000000000E+00 -0.16069400244E+02  0.16069400244E+02  0.00000000000E+00 0.  1.
         23    2    1    2    0    0  0.00000000000E+00  0.00000000000E+00  0.12316151693E+03  0.15530031741E+03  0.94601423548E+02 0.  0.
        -13    1    3    3    0    0  0.68104213280E+01  0.46298991283E+02  0.50281051866E+02  0.68688882719E+02  0.00000000000E+00 0.  1.
         13    1    3    3    0    0 -0.68104213280E+01 -0.46298991283E+02  0.72880465061E+02  0.86611434695E+02  0.00000000000E+00 0. -1.
<mgrwt>
<rscale>  0 0.94601424E+02</rscale>
<asrwt>0</asrwt>
<pdfrwt beam="1">  1        1 0.21420140E-01 0.94601424E+02</pdfrwt>
<pdfrwt beam="2">  1       -1 0.24722155E-02 0.94601424E+02</pdfrwt>
<totfact> 0.10009906E+05</totfact>
</mgrwt>
</event>
<event>
 5    1  0.6112843E+000  0.8913323E+02  0.7546771E-02  0.1304964E+00
         -4   -1    0    0    0  501 -0.00000000000E+00  0.00000000000E+00  0.21322814361E+02  0.21322814361E+02  0.00000000000E+00 0.  1.
          4   -1    0    0  501    0  0.00000000000E+00 -0.00000000000E+00 -0.93148263999E+02  0.93148263999E+02  0.00000000000E+00 0. -1.
         23    2    1    2    0    0  0.00000000000E+00  0.00000000000E+00 -0.71825449638E+02  0.11447107836E+03  0.89133229298E+02 0.  0.
        -13    1    3    3    0    0  0.36856893081E+01  0.17284512092E+02  0.16630132291E+02  0.24267261155E+02  0.00000000000E+00 0.  1.
         13    1    3    3    0    0 -0.36856893081E+01 -0.17284512092E+02 -0.88455581929E+02  0.90203817205E+02  0.00000000000E+00 0. -1.
<mgrwt>
<rscale>  0 0.89133229E+02</rscale>
<asrwt>0</asrwt>
<pdfrwt beam="2">  1        4 0.14330502E-01 0.89133229E+02</pdfrwt>
<pdfrwt beam="1">  1       -4 0.32804330E-02 0.89133229E+02</pdfrwt>
<totfact> 0.27202108E+04</totfact>
</mgrwt>
</event>
<event>
 5    1  0.6112843E+000  0.9321994E+02  0.7546771E-02  0.1295236E+00
         -2   -1    0    0    0  501 -0.00000000000E+00  0.00000000000E+00  0.54668440210E+02  0.54668440210E+02  0.00000000000E+00 0.  1.
          2   -1    0    0  501    0  0.00000000000E+00 -0.00000000000E+00 -0.39739365054E+02  0.39739365054E+02  0.00000000000E+00 0. -1.
         23    2    1    2    0    0  0.00000000000E+00  0.00000000000E+00  0.14929075156E+02  0.94407805263E+02  0.93219935688E+02 0.  0.
        -13    1    3    3    0    0  0.33307279085E+02 -0.31411927359E+02 -0.13878460338E+01  0.45804040619E+02  0.00000000000E+00 0.  1.
         13    1    3    3    0    0 -0.33307279085E+02  0.31411927359E+02  0.16316921190E+02  0.48603764644E+02  0.00000000000E+00 0. -1.
<mgrwt>
<rscale>  0 0.93219936E+02</rscale>
<asrwt>0</asrwt>
<pdfrwt beam="2">  1        2 0.61137485E-02 0.93219936E+02</pdfrwt>
<pdfrwt beam="1">  1       -2 0.84105292E-02 0.93219936E+02</pdfrwt>
<totfact> 0.89284401E+04</totfact>
</mgrwt>
</event>
<event>
 5    1  0.6112843E+000  0.9074524E+02  0.7546771E-02  0.1301057E+00
         -1   -1    0    0    0  501 -0.00000000000E+00  0.00000000000E+00  0.75328832887E+02  0.75328832887E+02  0.00000000000E+00 0.  1.
          1   -1    0    0  501    0  0.00000000000E+00 -0.00000000000E+00 -0.27329172481E+02  0.27329172481E+02  0.00000000000E+00 0. -1.
         23    2    1    2    0    0  0.00000000000E+00  0.00000000000E+00  0.47999660406E+02  0.10265800537E+03  0.90745240465E+02 0.  0.
        -13    1    3    3    0    0  0.73394583916E+01 -0.16862973848E+02  0.70923247338E+02  0.73268919396E+02  0.00000000000E+00 0.  1.
         13    1    3    3    0    0 -0.73394583916E+01  0.16862973848E+02 -0.22923586932E+02  0.29389085973E+02  0.00000000000E+00 0. -1.
<mgrwt>
<rscale>  0 0.90745240E+02</rscale>
<asrwt>0</asrwt>
<pdfrwt beam="2">  1        1 0.42044881E-02 0.90745240E+02</pdfrwt>
<pdfrwt beam="1">  1       -1 0.11589051E-01 0.90745240E+02</pdfrwt>
<totfact> 0.86549552E+04</totfact>
</mgrwt>
</event>
<event>
 5    1  0.6112843E+000  0.8378216E+02  0.7546771E-02  0.1318648E+00
          3   -1    0    0  501    0  0.00000000000E+00  0.00000000000E+00  0.67210341747E+01  0.67210341747E+01  0.00000000000E+00 0. -1.
         -3   -1    0    0    0  501 -0.00000000000E+00 -0.00000000000E+00 -0.26110007060E+03  0.26110007060E+03  0.00000000000E+00 0.  1.
         23    2    1    2    0    0  0.00000000000E+00  0.00000000000E+00 -0.25437903642E+03  0.26782110477E+03  0.83782157945E+02 0.  0.
        -13    1    3    3    0    0 -0.26529224119E+02 -0.24152330057E+02 -0.58055816935E+02  0.68246704386E+02  0.00000000000E+00 0.  1.
         13    1    3    3    0    0  0.26529224119E+02  0.24152330057E+02 -0.19632321949E+03  0.19957440038E+03  0.00000000000E+00 0. -1.
<mgrwt>
<rscale>  0 0.83782158E+02</rscale>
<asrwt>0</asrwt>
<pdfrwt beam="1">  1        3 0.10340053E-02 0.83782158E+02</pdfrwt>
<pdfrwt beam="2">  1       -3 0.40169239E-01 0.83782158E+02</pdfrwt>
<totfact> 0.31747831E+04</totfact>
</mgrwt>
</event>
<event>
 5    1  0.6112843E+000  0.9077610E+02  0.7546771E-02  0.1300983E+00
          2   -1    0    0  501    0  0.00000000000E+00  0.00000000000E+00  0.95874662757E+02  0.95874662757E+02  0.00000000000E+00 0. -1.
         -2   -1    0    0    0  501 -0.00000000000E+00 -0.00000000000E+00 -0.21487170721E+02  0.21487170721E+02  0.00000000000E+00 0.  1.
         23    2    1    2    0    0  0.00000000000E+00  0.00000000000E+00  0.74387492036E+02  0.11736183348E+03  0.90776103607E+02 0.  0.
        -13    1    3    3    0    0  0.22647653265E+01  0.44164471272E+02  0.50406712803E+02  0.67055696106E+02  0.00000000000E+00 0. -1.
         13    1    3    3    0    0 -0.22647653265E+01 -0.44164471272E+02  0.23980779233E+02  0.50306137372E+02  0.00000000000E+00 0.  1.
<mgrwt>
<rscale>  0 0.90776104E+02</rscale>
<asrwt>0</asrwt>
<pdfrwt beam="1">  1        2 0.14749948E-01 0.90776104E+02</pdfrwt>
<pdfrwt beam="2">  1       -2 0.33057186E-02 0.90776104E+02</pdfrwt>
<totfact> 0.12260096E+05</totfact>
</mgrwt>
</event>
<event>
 5    1  0.6112843E+000  0.9078702E+02  0.7546771E-02  0.1300957E+00
         -3   -1    0    0    0  501 -0.00000000000E+00  0.00000000000E+00  0.28268222984E+02  0.28268222984E+02  0.00000000000E+00 0.  1.
          3   -1    0    0  501    0  0.00000000000E+00 -0.00000000000E+00 -0.72893540053E+02  0.72893540053E+02  0.00000000000E+00 0. -1.
         23    2    1    2    0    0  0.00000000000E+00  0.00000000000E+00 -0.44625317069E+02  0.10116176304E+03  0.90787022075E+02 0.  0.
        -13    1    3    3    0    0  0.23976627073E+02 -0.62162941301E+01  0.20074506452E+02  0.31882703270E+02  0.00000000000E+00 0.  1.
         13    1    3    3    0    0 -0.23976627073E+02  0.62162941301E+01 -0.64699823521E+02  0.69279059767E+02  0.00000000000E+00 0. -1.
<mgrwt>
<rscale>  0 0.90787022E+02</rscale>
<asrwt>0</asrwt>
<pdfrwt beam="2">  1        3 0.11214391E-01 0.90787022E+02</pdfrwt>
<pdfrwt beam="1">  1       -3 0.43489574E-02 0.90787022E+02</pdfrwt>
<totfact> 0.34990535E+04</totfact>
</mgrwt>
</event>
<event>
 5    1  0.6112843E+000  0.9356420E+02  0.7546771E-02  0.1294443E+00
          2   -1    0    0  501    0  0.00000000000E+00  0.00000000000E+00  0.82247590399E+02  0.82247590399E+02  0.00000000000E+00 0.  1.
         -2   -1    0    0    0  501 -0.00000000000E+00 -0.00000000000E+00 -0.26609470160E+02  0.26609470160E+02  0.00000000000E+00 0. -1.
         23    2    1    2    0    0  0.00000000000E+00  0.00000000000E+00  0.55638120239E+02  0.10885706056E+03  0.93564198334E+02 0.  0.
        -13    1    3    3    0    0  0.79809895361E+01 -0.27569296395E+02 -0.15162463614E+02  0.32460169447E+02  0.00000000000E+00 0. -1.
         13    1    3    3    0    0 -0.79809895361E+01  0.27569296395E+02  0.70800583853E+02  0.76396891112E+02  0.00000000000E+00 0.  1.
<mgrwt>
<rscale>  0 0.93564198E+02</rscale>
<asrwt>0</asrwt>
<pdfrwt beam="1">  1        2 0.12653475E-01 0.93564198E+02</pdfrwt>
<pdfrwt beam="2">  1       -2 0.40937647E-02 0.93564198E+02</pdfrwt>
<totfact> 0.10773508E+05</totfact>
</mgrwt>
</event>
<event>
 5    1  0.6112843E+000  0.9253577E+02  0.7546771E-02  0.1296825E+00
          4   -1    0    0  501    0  0.00000000000E+00  0.00000000000E+00  0.21433889072E+02  0.21433889072E+02  0.00000000000E+00 0. -1.
         -4   -1    0    0    0  501 -0.00000000000E+00 -0.00000000000E+00 -0.99875348269E+02  0.99875348269E+02  0.00000000000E+00 0.  1.
         23    2    1    2    0    0  0.00000000000E+00  0.00000000000E+00 -0.78441459197E+02  0.12130923734E+03  0.92535768994E+02 0.  0.
        -13    1    3    3    0    0  0.76492018010E+01  0.43365185497E+02 -0.57837409366E+02  0.72692609827E+02  0.00000000000E+00 0.  1.
         13    1    3    3    0    0 -0.76492018010E+01 -0.43365185497E+02 -0.20604049831E+02  0.48616627514E+02  0.00000000000E+00 0. -1.
<mgrwt>
<rscale>  0 0.92535769E+02</rscale>
<asrwt>0</asrwt>
<pdfrwt beam="1">  1        4 0.32975214E-02 0.92535769E+02</pdfrwt>
<pdfrwt beam="2">  1       -4 0.15365438E-01 0.92535769E+02</pdfrwt>
<totfact> 0.24208704E+04</totfact>
</mgrwt>
</event>
<event>
 5    1  0.6112843E+000  0.8809405E+02  0.7546771E-02  0.1307534E+00
          2   -1    0    0  501    0  0.00000000000E+00  0.00000000000E+00  0.17834222461E+03  0.17834222461E+03  0.00000000000E+00 0. -1.
         -2   -1    0    0    0  501 -0.00000000000E+00 -0.00000000000E+00 -0.10878749286E+02  0.10878749286E+02  0.00000000000E+00 0.  1.
         23    2    1    2    0    0  0.00000000000E+00  0.00000000000E+00  0.16746347532E+03  0.18922097389E+03  0.88094048574E+02 0.  0.
        -13    1    3    3    0    0  0.48025606176E+00 -0.31200319487E+02  0.16956975986E+02  0.35513794736E+02  0.00000000000E+00 0.  1.
         13    1    3    3    0    0 -0.48025606176E+00  0.31200319487E+02  0.15050649934E+03  0.15370717916E+03  0.00000000000E+00 0. -1.
<mgrwt>
<rscale>  0 0.88094049E+02</rscale>
<asrwt>0</asrwt>
<pdfrwt beam="1">  1        2 0.27437263E-01 0.88094049E+02</pdfrwt>
<pdfrwt beam="2">  1       -2 0.16736539E-02 0.88094049E+02</pdfrwt>
<totfact> 0.16286600E+05</totfact>
</mgrwt>
</event>
<event>
 5    1  0.6112843E+000  0.9297115E+02  0.7546771E-02  0.1295812E+00
          1   -1    0    0  501    0  0.00000000000E+00  0.00000000000E+00  0.18785499145E+02  0.18785499145E+02  0.00000000000E+00 0. -1.
         -1   -1    0    0    0  501 -0.00000000000E+00 -0.00000000000E+00 -0.11503067729E+03  0.11503067729E+03  0.00000000000E+00 0.  1.
         23    2    1    2    0    0  0.00000000000E+00  0.00000000000E+00 -0.96245178142E+02  0.13381617643E+03  0.92971150146E+02 0.  0.
        -13    1    3    3    0    0 -0.35650279154E+02  0.56984471974E+01 -0.59746877905E+01  0.36593873783E+02  0.00000000000E+00 0. -1.
         13    1    3    3    0    0  0.35650279154E+02 -0.56984471974E+01 -0.90270490351E+02  0.97222302649E+02  0.00000000000E+00 0.  1.
<mgrwt>
<rscale>  0 0.92971150E+02</rscale>
<asrwt>0</asrwt>
<pdfrwt beam="1">  1        1 0.28900768E-02 0.92971150E+02</pdfrwt>
<pdfrwt beam="2">  1       -1 0.17697027E-01 0.92971150E+02</pdfrwt>
<totfact> 0.75311652E+04</totfact>
</mgrwt>
</event>
<event>
 5    1  0.6112843E+000  0.8628146E+02  0.7546771E-02  0.1312115E+00
         -1   -1    0    0    0  501 -0.00000000000E+00  0.00000000000E+00  0.10605326869E+03  0.10605326869E+03  0.00000000000E+00 0.  1.
          1   -1    0    0  501    0  0.00000000000E+00 -0.00000000000E+00 -0.17548942752E+02  0.17548942752E+02  0.00000000000E+00 0. -1.
         23    2    1    2    0    0  0.00000000000E+00  0.00000000000E+00  0.88504325941E+02  0.12360221144E+03  0.86281463616E+02 0.  0.
        -13    1    3    3    0    0  0.26569669695E+02 -0.14313290582E+02  0.88413302248E+02  0.93422318796E+02  0.00000000000E+00 0.  1.
         13    1    3    3    0    0 -0.26569669695E+02  0.14313290582E+02  0.91023693265E-01  0.30179892648E+02  0.00000000000E+00 0. -1.
<mgrwt>
<rscale>  0 0.86281464E+02</rscale>
<asrwt>0</asrwt>
<pdfrwt beam="2">  1        1 0.26998374E-02 0.86281464E+02</pdfrwt>
<pdfrwt beam="1">  1       -1 0.16315887E-01 0.86281464E+02</pdfrwt>
<totfact> 0.92754968E+04</totfact>
</mgrwt>
</event>
<event>
 5    1  0.6112843E+000  0.9000843E+02  0.7546771E-02  0.1302831E+00
         -1   -1    0    0    0  501 -0.00000000000E+00  0.00000000000E+00  0.90034083607E+02  0.90034083607E+02  0.00000000000E+00 0.  1.
          1   -1    0    0  501    0  0.00000000000E+00 -0.00000000000E+00 -0.22495695163E+02  0.22495695163E+02  0.00000000000E+00 0. -1.
         23    2    1    2    0    0  0.00000000000E+00  0.00000000000E+00  0.67538388444E+02  0.11252977877E+03  0.90008428475E+02 0.  0.
        -13    1    3    3    0    0 -0.63678950437E+01  0.15591230014E+02 -0.18407467908E+02  0.24949377055E+02  0.00000000000E+00 0. -1.
         13    1    3    3    0    0  0.63678950437E+01 -0.15591230014E+02  0.85945856352E+02  0.87580401716E+02  0.00000000000E+00 0.  1.
<mgrwt>
<rscale>  0 0.90008428E+02</rscale>
<asrwt>0</asrwt>
<pdfrwt beam="2">  1        1 0.34608762E-02 0.90008428E+02</pdfrwt>
<pdfrwt beam="1">  1       -1 0.13851397E-01 0.90008428E+02</pdfrwt>
<totfact> 0.85727058E+04</totfact>
</mgrwt>
</event>
<event>
 5    1  0.6112843E+000  0.8835506E+02  0.7546771E-02  0.1306885E+00
          3   -1    0    0  501    0  0.00000000000E+00  0.00000000000E+00  0.56148330873E+02  0.56148330873E+02  0.00000000000E+00 0. -1.
         -3   -1    0    0    0  501 -0.00000000000E+00 -0.00000000000E+00 -0.34758901247E+02  0.34758901247E+02  0.00000000000E+00 0.  1.
         23    2    1    2    0    0  0.00000000000E+00  0.00000000000E+00  0.21389429626E+02  0.90907232119E+02  0.88355062967E+02 0.  0.
        -13    1    3    3    0    0 -0.33400226667E+02 -0.12987596099E+01 -0.19025514514E+02  0.38460786789E+02  0.00000000000E+00 0. -1.
         13    1    3    3    0    0  0.33400226667E+02  0.12987596099E+01  0.40414944140E+02  0.52446445330E+02  0.00000000000E+00 0.  1.
<mgrwt>
<rscale>  0 0.88355063E+02</rscale>
<asrwt>0</asrwt>
<pdfrwt beam="1">  1        3 0.86382047E-02 0.88355063E+02</pdfrwt>
<pdfrwt beam="2">  1       -3 0.53475233E-02 0.88355063E+02</pdfrwt>
<totfact> 0.38510544E+04</totfact>
</mgrwt>
</event>
<event>
 5    1  0.6112843E+000  0.9082797E+02  0.7546771E-02  0.1300859E+00
         -2   -1    0    0    0  501 -0.00000000000E+00  0.00000000000E+00  0.13777233688E+03  0.13777233688E+03  0.00000000000E+00 0.  1.
          2   -1    0    0  501    0  0.00000000000E+00 -0.00000000000E+00 -0.14969842507E+02  0.14969842507E+02  0.00000000000E+00 0. -1.
         23    2    1    2    0    0  0.00000000000E+00  0.00000000000E+00  0.12280249438E+03  0.15274217939E+03  0.90827973334E+02 0.  0.
        -13    1    3    3    0    0 -0.38229165328E+02 -0.20361902234E+02  0.38444583799E+02  0.57914265667E+02  0.00000000000E+00 0. -1.
         13    1    3    3    0    0  0.38229165328E+02  0.20361902234E+02  0.84357910577E+02  0.94827913724E+02  0.00000000000E+00 0.  1.
<mgrwt>
<rscale>  0 0.90827973E+02</rscale>
<asrwt>0</asrwt>
<pdfrwt beam="2">  1        2 0.23030528E-02 0.90827973E+02</pdfrwt>
<pdfrwt beam="1">  1       -2 0.21195743E-01 0.90827973E+02</pdfrwt>
<totfact> 0.72701748E+04</totfact>
</mgrwt>
</event>
<event>
 5    1  0.6112843E+000  0.1019606E+03  0.7546771E-02  0.1276226E+00
         -1   -1    0    0    0  501 -0.00000000000E+00  0.00000000000E+00  0.31716166918E+02  0.31716166918E+02  0.00000000000E+00 0.  1.
          1   -1    0    0  501    0  0.00000000000E+00 -0.00000000000E+00 -0.81945301360E+02  0.81945301360E+02  0.00000000000E+00 0. -1.
         23    2    1    2    0    0  0.00000000000E+00  0.00000000000E+00 -0.50229134441E+02  0.11366146828E+03  0.10196059741E+03 0.  0.
        -13    1    3    3    0    0  0.30243501130E+02  0.88110433360E+01  0.19568865734E+02  0.37084287123E+02  0.00000000000E+00 0.  1.
         13    1    3    3    0    0 -0.30243501130E+02 -0.88110433360E+01 -0.69798000175E+02  0.76577181156E+02  0.00000000000E+00 0. -1.
<mgrwt>
<rscale>  0 0.10196060E+03</rscale>
<asrwt>0</asrwt>
<pdfrwt beam="2">  1        1 0.12606969E-01 0.10196060E+03</pdfrwt>
<pdfrwt beam="1">  1       -1 0.48794104E-02 0.10196060E+03</pdfrwt>
<totfact> 0.74231353E+04</totfact>
</mgrwt>
</event>
<event>
 5    1  0.6112843E+000  0.8482248E+02  0.7546771E-02  0.1315897E+00
          4   -1    0    0  501    0  0.00000000000E+00  0.00000000000E+00  0.72275783621E+02  0.72275783621E+02  0.00000000000E+00 0. -1.
         -4   -1    0    0    0  501 -0.00000000000E+00 -0.00000000000E+00 -0.24886805018E+02  0.24886805018E+02  0.00000000000E+00 0.  1.
         23    2    1    2    0    0  0.00000000000E+00  0.00000000000E+00  0.47388978603E+02  0.97162588639E+02  0.84822481324E+02 0.  0.
        -13    1    3    3    0    0 -0.13066977293E+02 -0.19011050432E+02  0.64460557628E+02  0.68464073964E+02  0.00000000000E+00 0. -1.
         13    1    3    3    0    0  0.13066977293E+02  0.19011050432E+02 -0.17071579025E+02  0.28698514675E+02  0.00000000000E+00 0.  1.
<mgrwt>
<rscale>  0 0.84822481E+02</rscale>
<asrwt>0</asrwt>
<pdfrwt beam="1">  1        4 0.11119351E-01 0.84822481E+02</pdfrwt>
<pdfrwt beam="2">  1       -4 0.38287393E-02 0.84822481E+02</pdfrwt>
<totfact> 0.32356108E+04</totfact>
</mgrwt>
</event>
<event>
 5    1  0.6112843E+000  0.9185431E+02  0.7546771E-02  0.1298422E+00
         -2   -1    0    0    0  501 -0.00000000000E+00  0.00000000000E+00  0.22172602432E+02  0.22172602432E+02  0.00000000000E+00 0.  1.
          2   -1    0    0  501    0  0.00000000000E+00 -0.00000000000E+00 -0.95131067684E+02  0.95131067684E+02  0.00000000000E+00 0. -1.
         23    2    1    2    0    0  0.00000000000E+00  0.00000000000E+00 -0.72958465252E+02  0.11730367012E+03  0.91854305129E+02 0.  0.
        -13    1    3    3    0    0  0.19831168053E+02 -0.27718681769E+02  0.28348517468E+01  0.34199955114E+02  0.00000000000E+00 0.  1.
         13    1    3    3    0    0 -0.19831168053E+02  0.27718681769E+02 -0.75793316999E+02  0.83103715002E+02  0.00000000000E+00 0. -1.
<mgrwt>
<rscale>  0 0.91854305E+02</rscale>
<asrwt>0</asrwt>
<pdfrwt beam="2">  1        2 0.14635549E-01 0.91854305E+02</pdfrwt>
<pdfrwt beam="1">  1       -2 0.34111696E-02 0.91854305E+02</pdfrwt>
<totfact> 0.11839228E+05</totfact>
</mgrwt>
</event>
<event>
 5    1  0.6112843E+000  0.9469707E+02  0.7546771E-02  0.1291860E+00
          1   -1    0    0  501    0  0.00000000000E+00  0.00000000000E+00  0.10066888524E+03  0.10066888524E+03  0.00000000000E+00 0. -1.
         -1   -1    0    0    0  501 -0.00000000000E+00 -0.00000000000E+00 -0.22269878047E+02  0.22269878047E+02  0.00000000000E+00 0.  1.
         23    2    1    2    0    0  0.00000000000E+00  0.00000000000E+00  0.78399007193E+02  0.12293876329E+03  0.94697070650E+02 0.  0.
        -13    1    3    3    0    0  0.26417975422E+02  0.19331258109E+02  0.83611121928E+02  0.89791016675E+02  0.00000000000E+00 0. -1.
         13    1    3    3    0    0 -0.26417975422E+02 -0.19331258109E+02 -0.52121147351E+01  0.33147746612E+02  0.00000000000E+00 0.  1.
<mgrwt>
<rscale>  0 0.94697071E+02</rscale>
<asrwt>0</asrwt>
<pdfrwt beam="1">  1        1 0.15487521E-01 0.94697071E+02</pdfrwt>
<pdfrwt beam="2">  1       -1 0.34261351E-02 0.94697071E+02</pdfrwt>
<totfact> 0.94277613E+04</totfact>
</mgrwt>
</event>
<event>
 5    1  0.6112843E+000  0.9104903E+02  0.7546771E-02  0.1300331E+00
          3   -1    0    0  501    0  0.00000000000E+00  0.00000000000E+00  0.79750610813E+02  0.79750610813E+02  0.00000000000E+00 0. -1.
         -3   -1    0    0    0  501 -0.00000000000E+00 -0.00000000000E+00 -0.25987027552E+02  0.25987027552E+02  0.00000000000E+00 0.  1.
         23    2    1    2    0    0  0.00000000000E+00  0.00000000000E+00  0.53763583261E+02  0.10573763837E+03  0.91049026805E+02 0.  0.
        -13    1    3    3    0    0  0.11588975532E+02  0.24460235782E+02  0.69391316499E+02  0.74483302114E+02  0.00000000000E+00 0. -1.
         13    1    3    3    0    0 -0.11588975532E+02 -0.24460235782E+02 -0.15627733238E+02  0.31254336252E+02  0.00000000000E+00 0.  1.
<mgrwt>
<rscale>  0 0.91049027E+02</rscale>
<asrwt>0</asrwt>
<pdfrwt beam="1">  1        3 0.12269325E-01 0.91049027E+02</pdfrwt>
<pdfrwt beam="2">  1       -3 0.39980043E-02 0.91049027E+02</pdfrwt>
<totfact> 0.34381958E+04</totfact>
</mgrwt>
</event>
<event>
 5    1  0.6112843E+000  0.9171318E+02  0.7546771E-02  0.1298755E+00
         -4   -1    0    0    0  501 -0.00000000000E+00  0.00000000000E+00  0.24812497408E+03  0.24812497408E+03  0.00000000000E+00 0.  1.
          4   -1    0    0  501    0  0.00000000000E+00 -0.00000000000E+00 -0.84748693680E+01  0.84748693680E+01  0.00000000000E+00 0. -1.
         23    2    1    2    0    0  0.00000000000E+00  0.00000000000E+00  0.23965010471E+03  0.25659984345E+03  0.91713177729E+02 0.  0.
        -13    1    3    3    0    0  0.21444627970E+02  0.27482081204E+02  0.36465517693E+02  0.50446712843E+02  0.00000000000E+00 0. -1.
         13    1    3    3    0    0 -0.21444627970E+02 -0.27482081204E+02  0.20318458702E+03  0.20615313061E+03  0.00000000000E+00 0.  1.
<mgrwt>
<rscale>  0 0.91713178E+02</rscale>
<asrwt>0</asrwt>
<pdfrwt beam="2">  1        4 0.13038262E-02 0.91713178E+02</pdfrwt>
<pdfrwt beam="1">  1       -4 0.38173067E-01 0.91713178E+02</pdfrwt>
<totfact> 0.18933353E+04</totfact>
</mgrwt>
</event>
<event>
 5    1  0.6112843E+000  0.9118486E+02  0.7546771E-02  0.1300007E+00
          2   -1    0    0  501    0  0.00000000000E+00  0.00000000000E+00  0.12778551157E+03  0.12778551157E+03  0.00000000000E+00 0. -1.
         -2   -1    0    0    0  501 -0.00000000000E+00 -0.00000000000E+00 -0.16266866808E+02  0.16266866808E+02  0.00000000000E+00 0.  1.
         23    2    1    2    0    0  0.00000000000E+00  0.00000000000E+00  0.11151864477E+03  0.14405237838E+03  0.91184864900E+02 0.  0.
        -13    1    3    3    0    0 -0.69558982025E+01  0.25219673497E+02 -0.32293385122E+01  0.26359914232E+02  0.00000000000E+00 0.  1.
         13    1    3    3    0    0  0.69558982025E+01 -0.25219673497E+02  0.11474798328E+03  0.11769246415E+03  0.00000000000E+00 0. -1.
<mgrwt>
<rscale>  0 0.91184865E+02</rscale>
<asrwt>0</asrwt>
<pdfrwt beam="1">  1        2 0.19659309E-01 0.91184865E+02</pdfrwt>
<pdfrwt beam="2">  1       -2 0.25025950E-02 0.91184865E+02</pdfrwt>
<totfact> 0.13250126E+05</totfact>
</mgrwt>
</event>
<event>
 5    1  0.6112843E+000  0.9035874E+02  0.7546771E-02  0.1301985E+00
          1   -1    0    0  501    0  0.00000000000E+00  0.00000000000E+00  0.52471472691E+02  0.52471472691E+02  0.00000000000E+00 0. -1.
         -1   -1    0    0    0  501 -0.00000000000E+00 -0.00000000000E+00 -0.38900672672E+02  0.38900672672E+02  0.00000000000E+00 0.  1.
         23    2    1    2    0    0  0.00000000000E+00  0.00000000000E+00  0.13570800019E+02  0.91372145363E+02  0.90358742438E+02 0.  0.
        -13    1    3    3    0    0  0.29871202017E+02  0.91925348574E+01 -0.26205400130E+02  0.40786203587E+02  0.00000000000E+00 0.  1.
         13    1    3    3    0    0 -0.29871202017E+02 -0.91925348574E+01  0.39776200149E+02  0.50585941776E+02  0.00000000000E+00 0. -1.
<mgrwt>
<rscale>  0 0.90358742E+02</rscale>
<asrwt>0</asrwt>
<pdfrwt beam="1">  1        1 0.80725343E-02 0.90358742E+02</pdfrwt>
<pdfrwt beam="2">  1       -1 0.59847189E-02 0.90358742E+02</pdfrwt>
<totfact> 0.96846299E+04</totfact>
</mgrwt>
</event>
<event>
 5    1  0.6112843E+000  0.9126440E+02  0.7546771E-02  0.1299818E+00
         -1   -1    0    0    0  501 -0.00000000000E+00  0.00000000000E+00  0.38082657622E+02  0.38082657622E+02  0.00000000000E+00 0.  1.
          1   -1    0    0  501    0  0.00000000000E+00 -0.00000000000E+00 -0.54678366110E+02  0.54678366110E+02  0.00000000000E+00 0. -1.
         23    2    1    2    0    0  0.00000000000E+00  0.00000000000E+00 -0.16595708488E+02  0.92761023732E+02  0.91264396035E+02 0.  0.
        -13    1    3    3    0    0  0.24843697282E+02 -0.52441827891E+00 -0.47198361936E+02  0.53340131971E+02  0.00000000000E+00 0. -1.
         13    1    3    3    0    0 -0.24843697282E+02  0.52441827891E+00  0.30602653448E+02  0.39420891762E+02  0.00000000000E+00 0.  1.
<mgrwt>
<rscale>  0 0.91264396E+02</rscale>
<asrwt>0</asrwt>
<pdfrwt beam="2">  1        1 0.84120563E-02 0.91264396E+02</pdfrwt>
<pdfrwt beam="1">  1       -1 0.58588704E-02 0.91264396E+02</pdfrwt>
<totfact> 0.94777477E+04</totfact>
</mgrwt>
</event>
<event>
 5    1  0.6112843E+000  0.8988772E+02  0.7546771E-02  0.1303124E+00
          2   -1    0    0  501    0  0.00000000000E+00  0.00000000000E+00  0.11989929960E+02  0.11989929960E+02  0.00000000000E+00 0. -1.
         -2   -1    0    0    0  501 -0.00000000000E+00 -0.00000000000E+00 -0.16847059960E+03  0.16847059960E+03  0.00000000000E+00 0.  1.
         23    2    1    2    0    0  0.00000000000E+00  0.00000000000E+00 -0.15648066964E+03  0.18046052956E+03  0.89887723068E+02 0.  0.
        -13    1    3    3    0    0  0.59528712590E+01  0.29386976912E+02 -0.11024889579E+02  0.31946506514E+02  0.00000000000E+00 0. -1.
         13    1    3    3    0    0 -0.59528712590E+01 -0.29386976912E+02 -0.14545578006E+03  0.14851402305E+03  0.00000000000E+00 0.  1.
<mgrwt>
<rscale>  0 0.89887723E+02</rscale>
<asrwt>0</asrwt>
<pdfrwt beam="1">  1        2 0.18446046E-02 0.89887723E+02</pdfrwt>
<pdfrwt beam="2">  1       -2 0.25918555E-01 0.89887723E+02</pdfrwt>
<totfact> 0.69330729E+04</totfact>
</mgrwt>
</event>
<event>
 5    1  0.6112843E+000  0.8885119E+02  0.7546771E-02  0.1305658E+00
         -4   -1    0    0    0  501 -0.00000000000E+00  0.00000000000E+00  0.33819070646E+02  0.33819070646E+02  0.00000000000E+00 0.  1.
          4   -1    0    0  501    0  0.00000000000E+00 -0.00000000000E+00 -0.58358602128E+02  0.58358602128E+02  0.00000000000E+00 0. -1.
         23    2    1    2    0    0  0.00000000000E+00  0.00000000000E+00 -0.24539531482E+02  0.92177672774E+02  0.88851194436E+02 0.  0.
        -13    1    3    3    0    0 -0.30841665875E+02  0.21472382214E+02  0.12310355850E+02  0.39545118701E+02  0.00000000000E+00 0.  1.
         13    1    3    3    0    0  0.30841665875E+02 -0.21472382214E+02 -0.36849887332E+02  0.52632554073E+02  0.00000000000E+00 0. -1.
<mgrwt>
<rscale>  0 0.88851194E+02</rscale>
<asrwt>0</asrwt>
<pdfrwt beam="2">  1        4 0.89782464E-02 0.88851194E+02</pdfrwt>
<pdfrwt beam="1">  1       -4 0.52029340E-02 0.88851194E+02</pdfrwt>
<totfact> 0.28902656E+04</totfact>
</mgrwt>
</event>
<event>
 5    1  0.6112843E+000  0.8941586E+02  0.7546771E-02  0.1304272E+00
         -2   -1    0    0    0  501 -0.00000000000E+00  0.00000000000E+00  0.67932952840E+02  0.67932952840E+02  0.00000000000E+00 0.  1.
          2   -1    0    0  501    0  0.00000000000E+00 -0.00000000000E+00 -0.29423110653E+02  0.29423110653E+02  0.00000000000E+00 0. -1.
         23    2    1    2    0    0  0.00000000000E+00  0.00000000000E+00  0.38509842187E+02  0.97356063493E+02  0.89415855158E+02 0.  0.
        -13    1    3    3    0    0  0.14514169208E+01 -0.44262825778E+02  0.25921942619E+02  0.51315216711E+02  0.00000000000E+00 0.  1.
         13    1    3    3    0    0 -0.14514169208E+01  0.44262825778E+02  0.12587899567E+02  0.46040846782E+02  0.00000000000E+00 0. -1.
<mgrwt>
<rscale>  0 0.89415855E+02</rscale>
<asrwt>0</asrwt>
<pdfrwt beam="2">  1        2 0.45266324E-02 0.89415855E+02</pdfrwt>
<pdfrwt beam="1">  1       -2 0.10451224E-01 0.89415855E+02</pdfrwt>
<totfact> 0.93244152E+04</totfact>
</mgrwt>
</event>
<event>
 5    1  0.6112843E+000  0.9139498E+02  0.7546771E-02  0.1299508E+00
          1   -1    0    0  501    0  0.00000000000E+00  0.00000000000E+00  0.63871613284E+02  0.63871613284E+02  0.00000000000E+00 0. -1.
         -1   -1    0    0    0  501 -0.00000000000E+00 -0.00000000000E+00 -0.32694658561E+02  0.32694658561E+02  0.00000000000E+00 0.  1.
         23    2    1    2    0    0  0.00000000000E+00  0.00000000000E+00  0.31176954723E+02  0.96566271846E+02  0.91394979908E+02 0.  0.
        -13    1    3    3    0    0 -0.37157345182E+02  0.26580324185E+02  0.16685824605E+02  0.48637420547E+02  0.00000000000E+00 0.  1.
         13    1    3    3    0    0  0.37157345182E+02 -0.26580324185E+02  0.14491130118E+02  0.47928851299E+02  0.00000000000E+00 0. -1.
<mgrwt>
<rscale>  0 0.91394980E+02</rscale>
<asrwt>0</asrwt>
<pdfrwt beam="1">  1        1 0.98264020E-02 0.91394980E+02</pdfrwt>
<pdfrwt beam="2">  1       -1 0.50299475E-02 0.91394980E+02</pdfrwt>
<totfact> 0.96648675E+04</totfact>
</mgrwt>
</event>
<event>
 5    1  0.6112843E+000  0.9240822E+02  0.7546771E-02  0.1297122E+00
          2   -1    0    0  501    0  0.00000000000E+00  0.00000000000E+00  0.66062118915E+02  0.66062118915E+02  0.00000000000E+00 0. -1.
         -2   -1    0    0    0  501 -0.00000000000E+00 -0.00000000000E+00 -0.32315340318E+02  0.32315340318E+02  0.00000000000E+00 0.  1.
         23    2    1    2    0    0  0.00000000000E+00  0.00000000000E+00  0.33746778597E+02  0.98377459233E+02  0.92408221601E+02 0.  0.
        -13    1    3    3    0    0  0.43157089234E+02  0.14798761398E+02  0.91024069877E+01  0.46523021216E+02  0.00000000000E+00 0.  1.
         13    1    3    3    0    0 -0.43157089234E+02 -0.14798761398E+02  0.24644371609E+02  0.51854438017E+02  0.00000000000E+00 0. -1.
<mgrwt>
<rscale>  0 0.92408222E+02</rscale>
<asrwt>0</asrwt>
<pdfrwt beam="1">  1        2 0.10163403E-01 0.92408222E+02</pdfrwt>
<pdfrwt beam="2">  1       -2 0.49715908E-02 0.92408222E+02</pdfrwt>
<totfact> 0.10484028E+05</totfact>
</mgrwt>
</event>
<event>
 5    1  0.6112843E+000  0.8983088E+02  0.7546771E-02  0.1303262E+00
         -2   -1    0    0    0  501 -0.00000000000E+00  0.00000000000E+00  0.29251513613E+02  0.29251513613E+02  0.00000000000E+00 0.  1.
          2   -1    0    0  501    0  0.00000000000E+00 -0.00000000000E+00 -0.68967261714E+02  0.68967261714E+02  0.00000000000E+00 0. -1.
         23    2    1    2    0    0  0.00000000000E+00  0.00000000000E+00 -0.39715748101E+02  0.98218775327E+02  0.89830880991E+02 0.  0.
        -13    1    3    3    0    0 -0.16991929715E+02 -0.29905823919E+02  0.11723666637E+02  0.36339074550E+02  0.00000000000E+00 0.  1.
         13    1    3    3    0    0  0.16991929715E+02  0.29905823919E+02 -0.51439414738E+02  0.61879700777E+02  0.00000000000E+00 0. -1.
<mgrwt>
<rscale>  0 0.89830881E+02</rscale>
<asrwt>0</asrwt>
<pdfrwt beam="2">  1        2 0.10610348E-01 0.89830881E+02</pdfrwt>
<pdfrwt beam="1">  1       -2 0.45002329E-02 0.89830881E+02</pdfrwt>
<totfact> 0.11484003E+05</totfact>
</mgrwt>
</event>
<event>
 5    1  0.6112843E+000  0.9104085E+02  0.7546771E-02  0.1300351E+00
          2   -1    0    0  501    0  0.00000000000E+00  0.00000000000E+00  0.28281223407E+02  0.28281223407E+02  0.00000000000E+00 0. -1.
         -2   -1    0    0    0  501 -0.00000000000E+00 -0.00000000000E+00 -0.73268018219E+02  0.73268018219E+02  0.00000000000E+00 0.  1.
         23    2    1    2    0    0  0.00000000000E+00  0.00000000000E+00 -0.44986794812E+02  0.10154924163E+03  0.91040852188E+02 0.  0.
        -13    1    3    3    0    0 -0.18602579062E+02 -0.73354128358E+01 -0.68106573987E+02  0.70981473988E+02  0.00000000000E+00 0.  1.
         13    1    3    3    0    0  0.18602579062E+02  0.73354128358E+01  0.23119779175E+02  0.30567767637E+02  0.00000000000E+00 0. -1.
<mgrwt>
<rscale>  0 0.91040852E+02</rscale>
<asrwt>0</asrwt>
<pdfrwt beam="1">  1        2 0.43509576E-02 0.91040852E+02</pdfrwt>
<pdfrwt beam="2">  1       -2 0.11272002E-01 0.91040852E+02</pdfrwt>
<totfact> 0.87464185E+04</totfact>
</mgrwt>
</event>
<event>
 5    1  0.6112843E+000  0.8526577E+02  0.7546771E-02  0.1314739E+00
         -2   -1    0    0    0  501 -0.00000000000E+00  0.00000000000E+00  0.95016536568E+01  0.95016536568E+01  0.00000000000E+00 0.  1.
          2   -1    0    0  501    0  0.00000000000E+00 -0.00000000000E+00 -0.19128909316E+03  0.19128909316E+03  0.00000000000E+00 0. -1.
         23    2    1    2    0    0  0.00000000000E+00  0.00000000000E+00 -0.18178743950E+03  0.20079074682E+03  0.85265765968E+02 0.  0.
        -13    1    3    3    0    0  0.94401968720E+01  0.35956891243E+02 -0.41747887562E+02  0.55900818069E+02  0.00000000000E+00 0.  1.
         13    1    3    3    0    0 -0.94401968720E+01 -0.35956891243E+02 -0.14003955194E+03  0.14488992875E+03  0.00000000000E+00 0. -1.
<mgrwt>
<rscale>  0 0.85265766E+02</rscale>
<asrwt>0</asrwt>
<pdfrwt beam="2">  1        2 0.29429090E-01 0.85265766E+02</pdfrwt>
<pdfrwt beam="1">  1       -2 0.14617929E-02 0.85265766E+02</pdfrwt>
<totfact> 0.18220614E+05</totfact>
</mgrwt>
</event>
<event>
 5    1  0.6112843E+000  0.8468065E+02  0.7546771E-02  0.1316270E+00
          1   -1    0    0  501    0  0.00000000000E+00  0.00000000000E+00  0.19558656187E+03  0.19558656187E+03  0.00000000000E+00 0. -1.
         -1   -1    0    0    0  501 -0.00000000000E+00 -0.00000000000E+00 -0.91657781621E+01  0.91657781621E+01  0.00000000000E+00 0.  1.
         23    2    1    2    0    0  0.00000000000E+00  0.00000000000E+00  0.18642078371E+03  0.20475234003E+03  0.84680648028E+02 0.  0.
        -13    1    3    3    0    0 -0.39265809609E+02 -0.14420336706E+02  0.10905720993E+03  0.11680421633E+03  0.00000000000E+00 0.  1.
         13    1    3    3    0    0  0.39265809609E+02  0.14420336706E+02  0.77363573784E+02  0.87948123707E+02  0.00000000000E+00 0. -1.
<mgrwt>
<rscale>  0 0.84680648E+02</rscale>
<asrwt>0</asrwt>
<pdfrwt beam="1">  1        1 0.30090237E-01 0.84680648E+02</pdfrwt>
<pdfrwt beam="2">  1       -1 0.14101199E-02 0.84680648E+02</pdfrwt>
<totfact> 0.14362147E+05</totfact>
</mgrwt>
</event>
<event>
 5    1  0.6112843E+000  0.8456367E+02  0.7546771E-02  0.1316578E+00
          2   -1    0    0  501    0  0.00000000000E+00  0.00000000000E+00  0.62287255497E+01  0.62287255497E+01  0.00000000000E+00 0. -1.
         -2   -1    0    0    0  501 -0.00000000000E+00 -0.00000000000E+00 -0.28701758051E+03  0.28701758051E+03  0.00000000000E+00 0.  1.
         23    2    1    2    0    0  0.00000000000E+00  0.00000000000E+00 -0.28078885496E+03  0.29324630606E+03  0.84563673925E+02 0.  0.
        -13    1    3    3    0    0  0.12518116020E+02  0.39941606159E+02 -0.16111949508E+03  0.16646779516E+03  0.00000000000E+00 0.  1.
         13    1    3    3    0    0 -0.12518116020E+02 -0.39941606159E+02 -0.11966935988E+03  0.12677851090E+03  0.00000000000E+00 0. -1.
<mgrwt>
<rscale>  0 0.84563674E+02</rscale>
<asrwt>0</asrwt>
<pdfrwt beam="1">  1        2 0.95826532E-03 0.84563674E+02</pdfrwt>
<pdfrwt beam="2">  1       -2 0.44156558E-01 0.84563674E+02</pdfrwt>
<totfact> 0.63413283E+04</totfact>
</mgrwt>
</event>
<event>
 5    1  0.6112843E+000  0.9031667E+02  0.7546771E-02  0.1302087E+00
          3   -1    0    0  501    0  0.00000000000E+00  0.00000000000E+00  0.21435261869E+03  0.21435261869E+03  0.00000000000E+00 0. -1.
         -3   -1    0    0    0  501 -0.00000000000E+00 -0.00000000000E+00 -0.95136483626E+01  0.95136483626E+01  0.00000000000E+00 0.  1.
         23    2    1    2    0    0  0.00000000000E+00  0.00000000000E+00  0.20483897033E+03  0.22386626705E+03  0.90316674868E+02 0.  0.
        -13    1    3    3    0    0  0.70752344772E+01  0.39444411037E+02  0.50820330031E+02  0.64719598650E+02  0.00000000000E+00 0.  1.
         13    1    3    3    0    0 -0.70752344772E+01 -0.39444411037E+02  0.15401864029E+03  0.15914666840E+03  0.00000000000E+00 0. -1.
<mgrwt>
<rscale>  0 0.90316675E+02</rscale>
<asrwt>0</asrwt>
<pdfrwt beam="1">  1        3 0.32977322E-01 0.90316675E+02</pdfrwt>
<pdfrwt beam="2">  1       -3 0.14636384E-02 0.90316675E+02</pdfrwt>
<totfact> 0.28015248E+04</totfact>
</mgrwt>
</event>
<event>
 5    1  0.6112843E+000  0.9063562E+02  0.7546771E-02  0.1301320E+00
         -3   -1    0    0    0  501 -0.00000000000E+00  0.00000000000E+00  0.98413823842E+02  0.98413823842E+02  0.00000000000E+00 0.  1.
          3   -1    0    0  501    0  0.00000000000E+00 -0.00000000000E+00 -0.20868042288E+02  0.20868042288E+02  0.00000000000E+00 0. -1.
         23    2    1    2    0    0  0.00000000000E+00  0.00000000000E+00  0.77545781554E+02  0.11928186613E+03  0.90635618553E+02 0.  0.
        -13    1    3    3    0    0  0.37409329019E+02 -0.13681304268E+02  0.67215243023E+02  0.78131458957E+02  0.00000000000E+00 0.  1.
         13    1    3    3    0    0 -0.37409329019E+02  0.13681304268E+02  0.10330538532E+02  0.41150407173E+02  0.00000000000E+00 0. -1.
<mgrwt>
<rscale>  0 0.90635619E+02</rscale>
<asrwt>0</asrwt>
<pdfrwt beam="2">  1        3 0.32104681E-02 0.90635619E+02</pdfrwt>
<pdfrwt beam="1">  1       -3 0.15140588E-01 0.90635619E+02</pdfrwt>
<totfact> 0.33839362E+04</totfact>
</mgrwt>
</event>
<event>
 5    1  0.6112843E+000  0.9059920E+02  0.7546771E-02  0.1301407E+00
         -1   -1    0    0    0  501 -0.00000000000E+00  0.00000000000E+00  0.10389811066E+02  0.10389811066E+02  0.00000000000E+00 0.  1.
          1   -1    0    0  501    0  0.00000000000E+00 -0.00000000000E+00 -0.19750635805E+03  0.19750635805E+03  0.00000000000E+00 0. -1.
         23    2    1    2    0    0  0.00000000000E+00  0.00000000000E+00 -0.18711654698E+03  0.20789616912E+03  0.90599199654E+02 0.  0.
        -13    1    3    3    0    0  0.24294705759E+02  0.30835187801E+02 -0.41685703656E+02  0.57260277889E+02  0.00000000000E+00 0.  1.
         13    1    3    3    0    0 -0.24294705759E+02 -0.30835187801E+02 -0.14543084333E+03  0.15063589123E+03  0.00000000000E+00 0. -1.
<mgrwt>
<rscale>  0 0.90599200E+02</rscale>
<asrwt>0</asrwt>
<pdfrwt beam="2">  1        1 0.30385593E-01 0.90599200E+02</pdfrwt>
<pdfrwt beam="1">  1       -1 0.15984325E-02 0.90599200E+02</pdfrwt>
<totfact> 0.12014791E+05</totfact>
</mgrwt>
</event>
<event>
 5    1  0.6112843E+000  0.1004223E+03  0.7546771E-02  0.1279410E+00
         -1   -1    0    0    0  501 -0.00000000000E+00  0.00000000000E+00  0.50261125849E+01  0.50261125849E+01  0.00000000000E+00 0.  1.
          1   -1    0    0  501    0  0.00000000000E+00 -0.00000000000E+00 -0.50161200770E+03  0.50161200770E+03  0.00000000000E+00 0. -1.
         23    2    1    2    0    0  0.00000000000E+00  0.00000000000E+00 -0.49658589511E+03  0.50663812028E+03  0.10042227690E+03 0.  0.
        -13    1    3    3    0    0 -0.49929734740E+02  0.29783199613E+01 -0.27046238658E+03  0.27504863453E+03  0.00000000000E+00 0. -1.
         13    1    3    3    0    0  0.49929734740E+02 -0.29783199613E+01 -0.22612350854E+03  0.23158948576E+03  0.00000000000E+00 0.  1.
<mgrwt>
<rscale>  0 0.10042228E+03</rscale>
<asrwt>0</asrwt>
<pdfrwt beam="2">  1        1 0.77171086E-01 0.10042228E+03</pdfrwt>
<pdfrwt beam="1">  1       -1 0.77324801E-03 0.10042228E+03</pdfrwt>
<totfact> 0.10772054E+05</totfact>
</mgrwt>
</event>
<event>
 5    1  0.6112843E+000  0.9352528E+02  0.7546771E-02  0.1294532E+00
          1   -1    0    0  501    0  0.00000000000E+00  0.00000000000E+00  0.15254993997E+03  0.15254993997E+03  0.00000000000E+00 0. -1.
         -1   -1    0    0    0  501 -0.00000000000E+00 -0.00000000000E+00 -0.14334614242E+02  0.14334614242E+02  0.00000000000E+00 0.  1.
         23    2    1    2    0    0  0.00000000000E+00  0.00000000000E+00  0.13821532572E+03  0.16688455421E+03  0.93525280905E+02 0.  0.
        -13    1    3    3    0    0  0.41074212224E+02  0.18635306788E+02  0.47080952399E+02  0.65199552511E+02  0.00000000000E+00 0. -1.
         13    1    3    3    0    0 -0.41074212224E+02 -0.18635306788E+02  0.91134373326E+02  0.10168500170E+03  0.00000000000E+00 0.  1.
<mgrwt>
<rscale>  0 0.93525281E+02</rscale>
<asrwt>0</asrwt>
<pdfrwt beam="1">  1        1 0.23469220E-01 0.93525281E+02</pdfrwt>
<pdfrwt beam="2">  1       -1 0.22053254E-02 0.93525281E+02</pdfrwt>
<totfact> 0.10500930E+05</totfact>
</mgrwt>
</event>
<event>
 5    1  0.6112843E+000  0.9053692E+02  0.7546771E-02  0.1301557E+00
          1   -1    0    0  501    0  0.00000000000E+00  0.00000000000E+00  0.16289335109E+03  0.16289335109E+03  0.00000000000E+00 0. -1.
         -1   -1    0    0    0  501 -0.00000000000E+00 -0.00000000000E+00 -0.12580216238E+02  0.12580216238E+02  0.00000000000E+00 0.  1.
         23    2    1    2    0    0  0.00000000000E+00  0.00000000000E+00  0.15031313485E+03  0.17547356733E+03  0.90536922421E+02 0.  0.
        -13    1    3    3    0    0  0.36137695889E+02 -0.21245317481E+02  0.42041125959E+02  0.59369629028E+02  0.00000000000E+00 0.  1.
         13    1    3    3    0    0 -0.36137695889E+02  0.21245317481E+02  0.10827200889E+03  0.11610393830E+03  0.00000000000E+00 0. -1.
<mgrwt>
<rscale>  0 0.90536922E+02</rscale>
<asrwt>0</asrwt>
<pdfrwt beam="1">  1        1 0.25060514E-01 0.90536922E+02</pdfrwt>
<pdfrwt beam="2">  1       -1 0.19354180E-02 0.90536922E+02</pdfrwt>
<totfact> 0.11603793E+05</totfact>
</mgrwt>
</event>
<event>
 5    1  0.6112843E+000  0.9063843E+02  0.7546771E-02  0.1301313E+00
          2   -1    0    0  501    0  0.00000000000E+00  0.00000000000E+00  0.20597543243E+02  0.20597543243E+02  0.00000000000E+00 0. -1.
         -2   -1    0    0    0  501 -0.00000000000E+00 -0.00000000000E+00 -0.99712436752E+02  0.99712436752E+02  0.00000000000E+00 0.  1.
         23    2    1    2    0    0  0.00000000000E+00  0.00000000000E+00 -0.79114893509E+02  0.12030998000E+03  0.90638429551E+02 0.  0.
        -13    1    3    3    0    0 -0.88356229110E+01  0.19132587397E+02 -0.92812731563E+02  0.95175245063E+02  0.00000000000E+00 0.  1.
         13    1    3    3    0    0  0.88356229110E+01 -0.19132587397E+02  0.13697838054E+02  0.25134734932E+02  0.00000000000E+00 0. -1.
<mgrwt>
<rscale>  0 0.90638430E+02</rscale>
<asrwt>0</asrwt>
<pdfrwt beam="1">  1        2 0.31688529E-02 0.90638430E+02</pdfrwt>
<pdfrwt beam="2">  1       -2 0.15340375E-01 0.90638430E+02</pdfrwt>
<totfact> 0.81059974E+04</totfact>
</mgrwt>
</event>
<event>
 5    1  0.6112843E+000  0.9064255E+02  0.7546771E-02  0.1301303E+00
         -1   -1    0    0    0  501 -0.00000000000E+00  0.00000000000E+00  0.92474363590E+01  0.92474363590E+01  0.00000000000E+00 0.  1.
          1   -1    0    0  501    0  0.00000000000E+00 -0.00000000000E+00 -0.22211754457E+03  0.22211754457E+03  0.00000000000E+00 0. -1.
         23    2    1    2    0    0  0.00000000000E+00  0.00000000000E+00 -0.21287010821E+03  0.23136498093E+03  0.90642547573E+02 0.  0.
        -13    1    3    3    0    0  0.13744844811E+02 -0.42771668401E+02 -0.12168214390E+03  0.12971075715E+03  0.00000000000E+00 0.  1.
         13    1    3    3    0    0 -0.13744844811E+02  0.42771668401E+02 -0.91187964313E+02  0.10165422378E+03  0.00000000000E+00 0. -1.
<mgrwt>
<rscale>  0 0.90642548E+02</rscale>
<asrwt>0</asrwt>
<pdfrwt beam="2">  1        1 0.34171929E-01 0.90642548E+02</pdfrwt>
<pdfrwt beam="1">  1       -1 0.14226826E-02 0.90642548E+02</pdfrwt>
<totfact> 0.12276410E+05</totfact>
</mgrwt>
</event>
<event>
 5    1  0.6112843E+000  0.8551170E+02  0.7546771E-02  0.1314100E+00
         -1   -1    0    0    0  501 -0.00000000000E+00  0.00000000000E+00  0.85999861513E+01  0.85999861513E+01  0.00000000000E+00 0.  1.
          1   -1    0    0  501    0  0.00000000000E+00 -0.00000000000E+00 -0.21256577938E+03  0.21256577938E+03  0.00000000000E+00 0. -1.
         23    2    1    2    0    0  0.00000000000E+00  0.00000000000E+00 -0.20396579323E+03  0.22116576553E+03  0.85511701163E+02 0.  0.
        -13    1    3    3    0    0 -0.95880058864E+01  0.41662458204E+02 -0.10356139070E+03  0.11203861801E+03  0.00000000000E+00 0.  1.
         13    1    3    3    0    0  0.95880058864E+01 -0.41662458204E+02 -0.10040440253E+03  0.10912714753E+03  0.00000000000E+00 0. -1.
<mgrwt>
<rscale>  0 0.85511701E+02</rscale>
<asrwt>0</asrwt>
<pdfrwt beam="2">  1        1 0.32702426E-01 0.85511701E+02</pdfrwt>
<pdfrwt beam="1">  1       -1 0.13230749E-02 0.85511701E+02</pdfrwt>
<totfact> 0.14218227E+05</totfact>
</mgrwt>
</event>
<event>
 5    1  0.6112843E+000  0.9202102E+02  0.7546771E-02  0.1298030E+00
         -2   -1    0    0    0  501 -0.00000000000E+00  0.00000000000E+00  0.44679323897E+02  0.44679323897E+02  0.00000000000E+00 0.  1.
          2   -1    0    0  501    0  0.00000000000E+00 -0.00000000000E+00 -0.47381359650E+02  0.47381359650E+02  0.00000000000E+00 0. -1.
         23    2    1    2    0    0  0.00000000000E+00  0.00000000000E+00 -0.27020357528E+01  0.92060683546E+02  0.92021021825E+02 0.  0.
        -13    1    3    3    0    0  0.35922338806E+02  0.28401525734E+02  0.31125219853E+01  0.45899334227E+02  0.00000000000E+00 0.  1.
         13    1    3    3    0    0 -0.35922338806E+02 -0.28401525734E+02 -0.58145577381E+01  0.46161349320E+02  0.00000000000E+00 0. -1.
<mgrwt>
<rscale>  0 0.92021022E+02</rscale>
<asrwt>0</asrwt>
<pdfrwt beam="2">  1        2 0.72894399E-02 0.92021022E+02</pdfrwt>
<pdfrwt beam="1">  1       -2 0.68737421E-02 0.92021022E+02</pdfrwt>
<totfact> 0.97069130E+04</totfact>
</mgrwt>
</event>
<event>
 5    1  0.6112843E+000  0.9286457E+02  0.7546771E-02  0.1296059E+00
          1   -1    0    0  501    0  0.00000000000E+00  0.00000000000E+00  0.11284955105E+03  0.11284955105E+03  0.00000000000E+00 0. -1.
         -1   -1    0    0    0  501 -0.00000000000E+00 -0.00000000000E+00 -0.19104701128E+02  0.19104701128E+02  0.00000000000E+00 0.  1.
         23    2    1    2    0    0  0.00000000000E+00  0.00000000000E+00  0.93744849924E+02  0.13195425218E+03  0.92864566878E+02 0.  0.
        -13    1    3    3    0    0  0.43319210027E+01 -0.20254751000E+02 -0.12176437082E+02  0.24026778762E+02  0.00000000000E+00 0.  1.
         13    1    3    3    0    0 -0.43319210027E+01  0.20254751000E+02  0.10592128701E+03  0.10792747342E+03  0.00000000000E+00 0. -1.
<mgrwt>
<rscale>  0 0.92864567E+02</rscale>
<asrwt>0</asrwt>
<pdfrwt beam="1">  1        1 0.17361469E-01 0.92864567E+02</pdfrwt>
<pdfrwt beam="2">  1       -1 0.29391849E-02 0.92864567E+02</pdfrwt>
<totfact> 0.10141193E+05</totfact>
</mgrwt>
</event>
<event>
 5    1  0.6112843E+000  0.9019280E+02  0.7546771E-02  0.1302385E+00
         -3   -1    0    0    0  501 -0.00000000000E+00  0.00000000000E+00  0.53378509707E+02  0.53378509707E+02  0.00000000000E+00 0.  1.
          3   -1    0    0  501    0  0.00000000000E+00 -0.00000000000E+00 -0.38099324557E+02  0.38099324557E+02  0.00000000000E+00 0. -1.
         23    2    1    2    0    0  0.00000000000E+00  0.00000000000E+00  0.15279185150E+02  0.91477834264E+02  0.90192797177E+02 0.  0.
        -13    1    3    3    0    0  0.27201929775E+02 -0.17157013396E+02 -0.24423743649E+02  0.40383503390E+02  0.00000000000E+00 0. -1.
         13    1    3    3    0    0 -0.27201929775E+02  0.17157013396E+02  0.39702928800E+02  0.51094330874E+02  0.00000000000E+00 0.  1.
<mgrwt>
<rscale>  0 0.90192797E+02</rscale>
<asrwt>0</asrwt>
<pdfrwt beam="2">  1        3 0.58614345E-02 0.90192797E+02</pdfrwt>
<pdfrwt beam="1">  1       -3 0.82120785E-02 0.90192797E+02</pdfrwt>
<totfact> 0.36373849E+04</totfact>
</mgrwt>
</event>
<event>
 5    1  0.6112843E+000  0.8882794E+02  0.7546771E-02  0.1305715E+00
         -1   -1    0    0    0  501 -0.00000000000E+00  0.00000000000E+00  0.48708525361E+02  0.48708525361E+02  0.00000000000E+00 0.  1.
          1   -1    0    0  501    0  0.00000000000E+00 -0.00000000000E+00 -0.40498062912E+02  0.40498062912E+02  0.00000000000E+00 0. -1.
         23    2    1    2    0    0  0.00000000000E+00  0.00000000000E+00  0.82104624497E+01  0.89206588273E+02  0.88827944351E+02 0.  0.
        -13    1    3    3    0    0 -0.20109680814E+02 -0.38416917973E+02  0.13755671644E+02  0.45491508563E+02  0.00000000000E+00 0.  1.
         13    1    3    3    0    0  0.20109680814E+02  0.38416917973E+02 -0.55452091945E+01  0.43715079709E+02  0.00000000000E+00 0. -1.
<mgrwt>
<rscale>  0 0.88827944E+02</rscale>
<asrwt>0</asrwt>
<pdfrwt beam="2">  1        1 0.62304712E-02 0.88827944E+02</pdfrwt>
<pdfrwt beam="1">  1       -1 0.74936193E-02 0.88827944E+02</pdfrwt>
<totfact> 0.97757479E+04</totfact>
</mgrwt>
</event>
<event>
 5    1  0.6112843E+000  0.9070139E+02  0.7546771E-02  0.1301162E+00
          1   -1    0    0  501    0  0.00000000000E+00  0.00000000000E+00  0.23835546310E+02  0.23835546310E+02  0.00000000000E+00 0. -1.
         -1   -1    0    0    0  501 -0.00000000000E+00 -0.00000000000E+00 -0.86286487637E+02  0.86286487637E+02  0.00000000000E+00 0.  1.
         23    2    1    2    0    0  0.00000000000E+00  0.00000000000E+00 -0.62450941326E+02  0.11012203395E+03  0.90701390773E+02 0.  0.
        -13    1    3    3    0    0 -0.27881097162E+02 -0.33942589580E+02 -0.17530658650E+02  0.47294597568E+02  0.00000000000E+00 0. -1.
         13    1    3    3    0    0  0.27881097162E+02  0.33942589580E+02 -0.44920282676E+02  0.62827436380E+02  0.00000000000E+00 0.  1.
<mgrwt>
<rscale>  0 0.90701391E+02</rscale>
<asrwt>0</asrwt>
<pdfrwt beam="1">  1        1 0.36670071E-02 0.90701391E+02</pdfrwt>
<pdfrwt beam="2">  1       -1 0.13274844E-01 0.90701391E+02</pdfrwt>
<totfact> 0.84686555E+04</totfact>
</mgrwt>
</event>
<event>
 5    1  0.6112843E+000  0.9362122E+02  0.7546771E-02  0.1294312E+00
          2   -1    0    0  501    0  0.00000000000E+00  0.00000000000E+00  0.28764812125E+02  0.28764812125E+02  0.00000000000E+00 0. -1.
         -2   -1    0    0    0  501 -0.00000000000E+00 -0.00000000000E+00 -0.76177566144E+02  0.76177566144E+02  0.00000000000E+00 0.  1.
         23    2    1    2    0    0  0.00000000000E+00  0.00000000000E+00 -0.47412754019E+02  0.10494237827E+03  0.93621223625E+02 0.  0.
        -13    1    3    3    0    0 -0.40197430602E+02  0.20956569222E+02 -0.36789169914E+02  0.58381968479E+02  0.00000000000E+00 0.  1.
         13    1    3    3    0    0  0.40197430602E+02 -0.20956569222E+02 -0.10623584105E+02  0.46560409790E+02  0.00000000000E+00 0. -1.
<mgrwt>
<rscale>  0 0.93621224E+02</rscale>
<asrwt>0</asrwt>
<pdfrwt beam="1">  1        2 0.44253557E-02 0.93621224E+02</pdfrwt>
<pdfrwt beam="2">  1       -2 0.11719626E-01 0.93621224E+02</pdfrwt>
<totfact> 0.80816910E+04</totfact>
</mgrwt>
</event>
<event>
 5    1  0.6112843E+000  0.8894034E+02  0.7546771E-02  0.1305438E+00
         -3   -1    0    0    0  501 -0.00000000000E+00  0.00000000000E+00  0.15115709189E+02  0.15115709189E+02  0.00000000000E+00 0.  1.
          3   -1    0    0  501    0  0.00000000000E+00 -0.00000000000E+00 -0.13083051893E+03  0.13083051893E+03  0.00000000000E+00 0. -1.
         23    2    1    2    0    0  0.00000000000E+00  0.00000000000E+00 -0.11571480974E+03  0.14594622811E+03  0.88940341287E+02 0.  0.
        -13    1    3    3    0    0 -0.14326261062E+02 -0.38503376703E+02 -0.29920617104E+02  0.50823174846E+02  0.00000000000E+00 0.  1.
         13    1    3    3    0    0  0.14326261062E+02  0.38503376703E+02 -0.85794192634E+02  0.95123053269E+02  0.00000000000E+00 0. -1.
<mgrwt>
<rscale>  0 0.88940341E+02</rscale>
<asrwt>0</asrwt>
<pdfrwt beam="2">  1        3 0.20127773E-01 0.88940341E+02</pdfrwt>
<pdfrwt beam="1">  1       -3 0.23254936E-02 0.88940341E+02</pdfrwt>
<totfact> 0.33746364E+04</totfact>
</mgrwt>
</event>
<event>
 5    1  0.6112843E+000  0.9234111E+02  0.7546771E-02  0.1297279E+00
          2   -1    0    0  501    0  0.00000000000E+00  0.00000000000E+00  0.87401214018E+02  0.87401214018E+02  0.00000000000E+00 0. -1.
         -2   -1    0    0    0  501 -0.00000000000E+00 -0.00000000000E+00 -0.24390052985E+02  0.24390052985E+02  0.00000000000E+00 0.  1.
         23    2    1    2    0    0  0.00000000000E+00  0.00000000000E+00  0.63011161033E+02  0.11179126700E+03  0.92341111989E+02 0.  0.
        -13    1    3    3    0    0 -0.34064562294E+02  0.14985423243E+02 -0.15773637122E+01  0.37248428025E+02  0.00000000000E+00 0.  1.
         13    1    3    3    0    0  0.34064562294E+02 -0.14985423243E+02  0.64588524745E+02  0.74542838978E+02  0.00000000000E+00 0. -1.
<mgrwt>
<rscale>  0 0.92341112E+02</rscale>
<asrwt>0</asrwt>
<pdfrwt beam="1">  1        2 0.13446341E-01 0.92341112E+02</pdfrwt>
<pdfrwt beam="2">  1       -2 0.37523159E-02 0.92341112E+02</pdfrwt>
<totfact> 0.11376218E+05</totfact>
</mgrwt>
</event>
<event>
 5    1  0.6112843E+000  0.9148811E+02  0.7546771E-02  0.1299288E+00
          1   -1    0    0  501    0  0.00000000000E+00  0.00000000000E+00  0.13445250700E+03  0.13445250700E+03  0.00000000000E+00 0. -1.
         -1   -1    0    0    0  501 -0.00000000000E+00 -0.00000000000E+00 -0.15563255912E+02  0.15563255912E+02  0.00000000000E+00 0.  1.
         23    2    1    2    0    0  0.00000000000E+00  0.00000000000E+00  0.11888925109E+03  0.15001576292E+03  0.91488114518E+02 0.  0.
        -13    1    3    3    0    0 -0.31980530713E+02 -0.12606583113E+02  0.99574228704E+01  0.35788693085E+02  0.00000000000E+00 0.  1.
         13    1    3    3    0    0  0.31980530713E+02  0.12606583113E+02  0.10893182822E+03  0.11422706983E+03  0.00000000000E+00 0. -1.
<mgrwt>
<rscale>  0 0.91488115E+02</rscale>
<asrwt>0</asrwt>
<pdfrwt beam="1">  1        1 0.20685000E-01 0.91488115E+02</pdfrwt>
<pdfrwt beam="2">  1       -1 0.23943472E-02 0.91488115E+02</pdfrwt>
<totfact> 0.10891659E+05</totfact>
</mgrwt>
</event>
<event>
 5    1  0.6112843E+000  0.9689315E+02  0.7546771E-02  0.1286968E+00
         -1   -1    0    0    0  501 -0.00000000000E+00  0.00000000000E+00  0.81480347966E+01  0.81480347966E+01  0.00000000000E+00 0.  1.
          1   -1    0    0  501    0  0.00000000000E+00 -0.00000000000E+00 -0.28805358411E+03  0.28805358411E+03  0.00000000000E+00 0. -1.
         23    2    1    2    0    0  0.00000000000E+00  0.00000000000E+00 -0.27990554931E+03  0.29620161890E+03  0.96893149945E+02 0.  0.
        -13    1    3    3    0    0 -0.33960891225E+02  0.30190884592E+02 -0.88595395727E+02  0.99568949926E+02  0.00000000000E+00 0.  1.
         13    1    3    3    0    0  0.33960891225E+02 -0.30190884592E+02 -0.19131015358E+03  0.19663266898E+03  0.00000000000E+00 0. -1.
<mgrwt>
<rscale>  0 0.96893150E+02</rscale>
<asrwt>0</asrwt>
<pdfrwt beam="2">  1        1 0.44315940E-01 0.96893150E+02</pdfrwt>
<pdfrwt beam="1">  1       -1 0.12535437E-02 0.96893150E+02</pdfrwt>
<totfact> 0.10803786E+05</totfact>
</mgrwt>
</event>
<event>
 5    1  0.6112843E+000  0.9282256E+02  0.7546771E-02  0.1296157E+00
          4   -1    0    0  501    0  0.00000000000E+00  0.00000000000E+00  0.12163058528E+03  0.12163058528E+03  0.00000000000E+00 0. -1.
         -4   -1    0    0    0  501 -0.00000000000E+00 -0.00000000000E+00 -0.17709416915E+02  0.17709416915E+02  0.00000000000E+00 0.  1.
         23    2    1    2    0    0  0.00000000000E+00  0.00000000000E+00  0.10392116837E+03  0.13934000220E+03  0.92822556405E+02 0.  0.
        -13    1    3    3    0    0  0.82075634210E+00 -0.24732722770E+02  0.11090080175E+03  0.11362820532E+03  0.00000000000E+00 0. -1.
         13    1    3    3    0    0 -0.82075634210E+00  0.24732722770E+02 -0.69796333770E+01  0.25711796878E+02  0.00000000000E+00 0.  1.
<mgrwt>
<rscale>  0 0.92822556E+02</rscale>
<asrwt>0</asrwt>
<pdfrwt beam="1">  1        4 0.18712397E-01 0.92822556E+02</pdfrwt>
<pdfrwt beam="2">  1       -4 0.27245258E-02 0.92822556E+02</pdfrwt>
<totfact> 0.23076803E+04</totfact>
</mgrwt>
</event>
<event>
 5    1  0.6112843E+000  0.9089427E+02  0.7546771E-02  0.1300700E+00
          1   -1    0    0  501    0  0.00000000000E+00  0.00000000000E+00  0.51553275661E+02  0.51553275661E+02  0.00000000000E+00 0. -1.
         -1   -1    0    0    0  501 -0.00000000000E+00 -0.00000000000E+00 -0.40064229939E+02  0.40064229939E+02  0.00000000000E+00 0.  1.
         23    2    1    2    0    0  0.00000000000E+00  0.00000000000E+00  0.11489045722E+02  0.91617505600E+02  0.90894274631E+02 0.  0.
        -13    1    3    3    0    0 -0.25164625242E+02  0.50057316270E+01  0.43554683127E+02  0.50550233778E+02  0.00000000000E+00 0. -1.
         13    1    3    3    0    0  0.25164625242E+02 -0.50057316270E+01 -0.32065637405E+02  0.41067271822E+02  0.00000000000E+00 0.  1.
<mgrwt>
<rscale>  0 0.90894275E+02</rscale>
<asrwt>0</asrwt>
<pdfrwt beam="1">  1        1 0.79312732E-02 0.90894275E+02</pdfrwt>
<pdfrwt beam="2">  1       -1 0.61637277E-02 0.90894275E+02</pdfrwt>
<totfact> 0.95015001E+04</totfact>
</mgrwt>
</event>
<event>
 5    1  0.6112843E+000  0.9176559E+02  0.7546771E-02  0.1298632E+00
          2   -1    0    0  501    0  0.00000000000E+00  0.00000000000E+00  0.69217667344E+02  0.69217667344E+02  0.00000000000E+00 0. -1.
         -2   -1    0    0    0  501 -0.00000000000E+00 -0.00000000000E+00 -0.30414647662E+02  0.30414647662E+02  0.00000000000E+00 0.  1.
         23    2    1    2    0    0  0.00000000000E+00  0.00000000000E+00  0.38803019682E+02  0.99632315006E+02  0.91765591901E+02 0.  0.
        -13    1    3    3    0    0 -0.38793539195E+02  0.24412175254E+02  0.21662840873E+02  0.50696860441E+02  0.00000000000E+00 0.  1.
         13    1    3    3    0    0  0.38793539195E+02 -0.24412175254E+02  0.17140178809E+02  0.48935454565E+02  0.00000000000E+00 0. -1.
<mgrwt>
<rscale>  0 0.91765592E+02</rscale>
<asrwt>0</asrwt>
<pdfrwt beam="1">  1        2 0.10648872E-01 0.91765592E+02</pdfrwt>
<pdfrwt beam="2">  1       -2 0.46791766E-02 0.91765592E+02</pdfrwt>
<totfact> 0.10830400E+05</totfact>
</mgrwt>
</event>
<event>
 5    1  0.6112843E+000  0.9442880E+02  0.7546771E-02  0.1292468E+00
         -3   -1    0    0    0  501 -0.00000000000E+00  0.00000000000E+00  0.38167907907E+02  0.38167907907E+02  0.00000000000E+00 0.  1.
          3   -1    0    0  501    0  0.00000000000E+00 -0.00000000000E+00 -0.58405077814E+02  0.58405077814E+02  0.00000000000E+00 0. -1.
         23    2    1    2    0    0  0.00000000000E+00  0.00000000000E+00 -0.20237169907E+02  0.96572985722E+02  0.94428801355E+02 0.  0.
        -13    1    3    3    0    0  0.10911725775E+02  0.20730659707E+02 -0.52041754466E+02  0.57071623590E+02  0.00000000000E+00 0. -1.
         13    1    3    3    0    0 -0.10911725775E+02 -0.20730659707E+02  0.31804584559E+02  0.39501362132E+02  0.00000000000E+00 0.  1.
<mgrwt>
<rscale>  0 0.94428801E+02</rscale>
<asrwt>0</asrwt>
<pdfrwt beam="2">  1        3 0.89853966E-02 0.94428801E+02</pdfrwt>
<pdfrwt beam="1">  1       -3 0.58719858E-02 0.94428801E+02</pdfrwt>
<totfact> 0.31738631E+04</totfact>
</mgrwt>
</event>
<event>
 5    1  0.6112843E+000  0.9270442E+02  0.7546771E-02  0.1296432E+00
          1   -1    0    0  501    0  0.00000000000E+00  0.00000000000E+00  0.11024430245E+02  0.11024430245E+02  0.00000000000E+00 0. -1.
         -1   -1    0    0    0  501 -0.00000000000E+00 -0.00000000000E+00 -0.19488784453E+03  0.19488784453E+03  0.00000000000E+00 0.  1.
         23    2    1    2    0    0  0.00000000000E+00  0.00000000000E+00 -0.18386341429E+03  0.20591227478E+03  0.92704421634E+02 0.  0.
        -13    1    3    3    0    0 -0.25881883890E+02  0.37745621219E+02 -0.10824235750E+03  0.11752026120E+03  0.00000000000E+00 0. -1.
         13    1    3    3    0    0  0.25881883890E+02 -0.37745621219E+02 -0.75621056783E+02  0.88392013575E+02  0.00000000000E+00 0.  1.
<mgrwt>
<rscale>  0 0.92704422E+02</rscale>
<asrwt>0</asrwt>
<pdfrwt beam="1">  1        1 0.16960664E-02 0.92704422E+02</pdfrwt>
<pdfrwt beam="2">  1       -1 0.29982742E-01 0.92704422E+02</pdfrwt>
<totfact> 0.66970091E+04</totfact>
</mgrwt>
</event>
<event>
 5    1  0.6112843E+000  0.9044928E+02  0.7546771E-02  0.1301767E+00
          1   -1    0    0  501    0  0.00000000000E+00  0.00000000000E+00  0.13309602344E+03  0.13309602344E+03  0.00000000000E+00 0. -1.
         -1   -1    0    0    0  501 -0.00000000000E+00 -0.00000000000E+00 -0.15366859505E+02  0.15366859505E+02  0.00000000000E+00 0.  1.
         23    2    1    2    0    0  0.00000000000E+00  0.00000000000E+00  0.11772916394E+03  0.14846288295E+03  0.90449276236E+02 0.  0.
        -13    1    3    3    0    0 -0.15147341227E+02  0.28101766035E+02  0.11144344249E+03  0.11592580418E+03  0.00000000000E+00 0. -1.
         13    1    3    3    0    0  0.15147341227E+02 -0.28101766035E+02  0.62857214457E+01  0.32537078766E+02  0.00000000000E+00 0.  1.
<mgrwt>
<rscale>  0 0.90449276E+02</rscale>
<asrwt>0</asrwt>
<pdfrwt beam="1">  1        1 0.20476310E-01 0.90449276E+02</pdfrwt>
<pdfrwt beam="2">  1       -1 0.23641323E-02 0.90449276E+02</pdfrwt>
<totfact> 0.11212844E+05</totfact>
</mgrwt>
</event>
<event>
 5    1  0.6112843E+000  0.9200098E+02  0.7546771E-02  0.1298077E+00
          2   -1    0    0  501    0  0.00000000000E+00  0.00000000000E+00  0.15197585714E+02  0.15197585714E+02  0.00000000000E+00 0. -1.
         -2   -1    0    0    0  501 -0.00000000000E+00 -0.00000000000E+00 -0.13923559759E+03  0.13923559759E+03  0.00000000000E+00 0.  1.
         23    2    1    2    0    0  0.00000000000E+00  0.00000000000E+00 -0.12403801188E+03  0.15443318330E+03  0.92000976708E+02 0.  0.
        -13    1    3    3    0    0 -0.38950945353E+02  0.74210705323E+01 -0.10116311281E+03  0.10865644861E+03  0.00000000000E+00 0.  1.
         13    1    3    3    0    0  0.38950945353E+02 -0.74210705323E+01 -0.22874899067E+02  0.45776734692E+02  0.00000000000E+00 0. -1.
<mgrwt>
<rscale>  0 0.92000977E+02</rscale>
<asrwt>0</asrwt>
<pdfrwt beam="1">  1        2 0.23380902E-02 0.92000977E+02</pdfrwt>
<pdfrwt beam="2">  1       -2 0.21420861E-01 0.92000977E+02</pdfrwt>
<totfact> 0.70124156E+04</totfact>
</mgrwt>
</event>
<event>
 5    1  0.6112843E+000  0.9461452E+02  0.7546771E-02  0.1292047E+00
          2   -1    0    0  501    0  0.00000000000E+00  0.00000000000E+00  0.13802594268E+02  0.13802594268E+02  0.00000000000E+00 0.  1.
         -2   -1    0    0    0  501 -0.00000000000E+00 -0.00000000000E+00 -0.16214173811E+03  0.16214173811E+03  0.00000000000E+00 0. -1.
         23    2    1    2    0    0  0.00000000000E+00  0.00000000000E+00 -0.14833914384E+03  0.17594433238E+03  0.94614515274E+02 0.  0.
        -13    1    3    3    0    0 -0.10000902967E+02  0.44692756438E+02 -0.96213071150E+02  0.10655710018E+03  0.00000000000E+00 0. -1.
         13    1    3    3    0    0  0.10000902967E+02 -0.44692756438E+02 -0.52126072693E+02  0.69387232202E+02  0.00000000000E+00 0.  1.
<mgrwt>
<rscale>  0 0.94614515E+02</rscale>
<asrwt>0</asrwt>
<pdfrwt beam="1">  1        2 0.21234760E-02 0.94614515E+02</pdfrwt>
<pdfrwt beam="2">  1       -2 0.24944884E-01 0.94614515E+02</pdfrwt>
<totfact> 0.61770900E+04</totfact>
</mgrwt>
</event>
<event>
 5    1  0.6112843E+000  0.8977235E+02  0.7546771E-02  0.1303404E+00
         -1   -1    0    0    0  501 -0.00000000000E+00  0.00000000000E+00  0.15032969961E+03  0.15032969961E+03  0.00000000000E+00 0.  1.
          1   -1    0    0  501    0  0.00000000000E+00 -0.00000000000E+00 -0.13402334410E+02  0.13402334410E+02  0.00000000000E+00 0. -1.
         23    2    1    2    0    0  0.00000000000E+00  0.00000000000E+00  0.13692736520E+03  0.16373203402E+03  0.89772354451E+02 0.  0.
        -13    1    3    3    0    0 -0.34772100197E+02 -0.17618282132E+02  0.10905286821E+03  0.11581032287E+03  0.00000000000E+00 0.  1.
         13    1    3    3    0    0  0.34772100197E+02  0.17618282132E+02  0.27874496985E+02  0.47921711150E+02  0.00000000000E+00 0. -1.
<mgrwt>
<rscale>  0 0.89772354E+02</rscale>
<asrwt>0</asrwt>
<pdfrwt beam="2">  1        1 0.20618977E-02 0.89772354E+02</pdfrwt>
<pdfrwt beam="1">  1       -1 0.23127645E-01 0.89772354E+02</pdfrwt>
<totfact> 0.77819966E+04</totfact>
</mgrwt>
</event>
<event>
 5    1  0.6112843E+000  0.9050587E+02  0.7546771E-02  0.1301631E+00
          1   -1    0    0  501    0  0.00000000000E+00  0.00000000000E+00  0.72892120051E+02  0.72892120051E+02  0.00000000000E+00 0. -1.
         -1   -1    0    0    0  501 -0.00000000000E+00 -0.00000000000E+00 -0.28093954830E+02  0.28093954830E+02  0.00000000000E+00 0.  1.
         23    2    1    2    0    0  0.00000000000E+00  0.00000000000E+00  0.44798165221E+02  0.10098607488E+03  0.90505865625E+02 0.  0.
        -13    1    3    3    0    0  0.18386808490E+02 -0.34763103970E+02 -0.25827831203E+01  0.39410898147E+02  0.00000000000E+00 0.  1.
         13    1    3    3    0    0 -0.18386808490E+02  0.34763103970E+02  0.47380948341E+02  0.61575176734E+02  0.00000000000E+00 0. -1.
<mgrwt>
<rscale>  0 0.90505866E+02</rscale>
<asrwt>0</asrwt>
<pdfrwt beam="1">  1        1 0.11214172E-01 0.90505866E+02</pdfrwt>
<pdfrwt beam="2">  1       -1 0.43221469E-02 0.90505866E+02</pdfrwt>
<totfact> 0.10132551E+05</totfact>
</mgrwt>
</event>
<event>
 5    1  0.6112843E+000  0.9037169E+02  0.7546771E-02  0.1301954E+00
          2   -1    0    0  501    0  0.00000000000E+00  0.00000000000E+00  0.64621629116E+02  0.64621629116E+02  0.00000000000E+00 0. -1.
         -2   -1    0    0    0  501 -0.00000000000E+00 -0.00000000000E+00 -0.31595621057E+02  0.31595621057E+02  0.00000000000E+00 0.  1.
         23    2    1    2    0    0  0.00000000000E+00  0.00000000000E+00  0.33026008059E+02  0.96217250172E+02  0.90371688168E+02 0.  0.
        -13    1    3    3    0    0 -0.25664970981E+02 -0.30299290113E+01 -0.22950570159E+02  0.34562984187E+02  0.00000000000E+00 0.  1.
         13    1    3    3    0    0  0.25664970981E+02  0.30299290113E+01  0.55976578218E+02  0.61654265986E+02  0.00000000000E+00 0. -1.
<mgrwt>
<rscale>  0 0.90371688E+02</rscale>
<asrwt>0</asrwt>
<pdfrwt beam="1">  1        2 0.99417891E-02 0.90371688E+02</pdfrwt>
<pdfrwt beam="2">  1       -2 0.48608648E-02 0.90371688E+02</pdfrwt>
<totfact> 0.11094419E+05</totfact>
</mgrwt>
</event>
<event>
 5    1  0.6112843E+000  0.9025891E+02  0.7546771E-02  0.1302226E+00
          2   -1    0    0  501    0  0.00000000000E+00  0.00000000000E+00  0.14410689097E+03  0.14410689097E+03  0.00000000000E+00 0.  1.
         -2   -1    0    0    0  501 -0.00000000000E+00 -0.00000000000E+00 -0.14133034553E+02  0.14133034553E+02  0.00000000000E+00 0. -1.
         23    2    1    2    0    0  0.00000000000E+00  0.00000000000E+00  0.12997385642E+03  0.15823992553E+03  0.90258909132E+02 0.  0.
        -13    1    3    3    0    0 -0.18448627043E+02  0.20716645632E+02  0.12739455632E+03  0.13037984593E+03  0.00000000000E+00 0.  1.
         13    1    3    3    0    0  0.18448627043E+02 -0.20716645632E+02  0.25793001049E+01  0.27860079595E+02  0.00000000000E+00 0. -1.
<mgrwt>
<rscale>  0 0.90258909E+02</rscale>
<asrwt>0</asrwt>
<pdfrwt beam="1">  1        2 0.22170290E-01 0.90258909E+02</pdfrwt>
<pdfrwt beam="2">  1       -2 0.21743131E-02 0.90258909E+02</pdfrwt>
<totfact> 0.14176586E+05</totfact>
</mgrwt>
</event>
<event>
 5    1  0.6112843E+000  0.9125481E+02  0.7546771E-02  0.1299841E+00
          3   -1    0    0  501    0  0.00000000000E+00  0.00000000000E+00  0.24343414542E+03  0.24343414542E+03  0.00000000000E+00 0. -1.
         -3   -1    0    0    0  501 -0.00000000000E+00 -0.00000000000E+00 -0.85520466015E+01  0.85520466015E+01  0.00000000000E+00 0.  1.
         23    2    1    2    0    0  0.00000000000E+00  0.00000000000E+00  0.23488209882E+03  0.25198619202E+03  0.91254811511E+02 0.  0.
        -13    1    3    3    0    0 -0.42213887408E+02 -0.14964047851E+02  0.14150205454E+03  0.14842090977E+03  0.00000000000E+00 0. -1.
         13    1    3    3    0    0  0.42213887408E+02  0.14964047851E+02  0.93380044280E+02  0.10356528225E+03  0.00000000000E+00 0.  1.
<mgrwt>
<rscale>  0 0.91254812E+02</rscale>
<asrwt>0</asrwt>
<pdfrwt beam="1">  1        3 0.37451402E-01 0.91254812E+02</pdfrwt>
<pdfrwt beam="2">  1       -3 0.13156997E-02 0.91254812E+02</pdfrwt>
<totfact> 0.25956015E+04</totfact>
</mgrwt>
</event>
<event>
 5    1  0.6112843E+000  0.9089299E+02  0.7546771E-02  0.1300703E+00
          1   -1    0    0  501    0  0.00000000000E+00  0.00000000000E+00  0.18935620974E+03  0.18935620974E+03  0.00000000000E+00 0. -1.
         -1   -1    0    0    0  501 -0.00000000000E+00 -0.00000000000E+00 -0.10907400572E+02  0.10907400572E+02  0.00000000000E+00 0.  1.
         23    2    1    2    0    0  0.00000000000E+00  0.00000000000E+00  0.17844880917E+03  0.20026361032E+03  0.90892992698E+02 0.  0.
        -13    1    3    3    0    0 -0.11231644907E+01 -0.34592391570E+02  0.24330542594E+02  0.42306859443E+02  0.00000000000E+00 0.  1.
         13    1    3    3    0    0  0.11231644907E+01  0.34592391570E+02  0.15411826658E+03  0.15795675087E+03  0.00000000000E+00 0. -1.
<mgrwt>
<rscale>  0 0.90892993E+02</rscale>
<asrwt>0</asrwt>
<pdfrwt beam="1">  1        1 0.29131722E-01 0.90892993E+02</pdfrwt>
<pdfrwt beam="2">  1       -1 0.16780618E-02 0.90892993E+02</pdfrwt>
<totfact> 0.11814525E+05</totfact>
</mgrwt>
</event>
<event>
 5    1  0.6112843E+000  0.9067507E+02  0.7546771E-02  0.1301225E+00
          1   -1    0    0  501    0  0.00000000000E+00  0.00000000000E+00  0.70071750484E+02  0.70071750484E+02  0.00000000000E+00 0. -1.
         -1   -1    0    0    0  501 -0.00000000000E+00 -0.00000000000E+00 -0.29334101952E+02  0.29334101952E+02  0.00000000000E+00 0.  1.
         23    2    1    2    0    0  0.00000000000E+00  0.00000000000E+00  0.40737648532E+02  0.99405852437E+02  0.90675065430E+02 0.  0.
        -13    1    3    3    0    0 -0.43246630251E+02  0.13585785118E+02  0.21250832510E+02  0.50064383225E+02  0.00000000000E+00 0. -1.
         13    1    3    3    0    0  0.43246630251E+02 -0.13585785118E+02  0.19486816022E+02  0.49341469212E+02  0.00000000000E+00 0.  1.
<mgrwt>
<rscale>  0 0.90675065E+02</rscale>
<asrwt>0</asrwt>
<pdfrwt beam="1">  1        1 0.10780269E-01 0.90675065E+02</pdfrwt>
<pdfrwt beam="2">  1       -1 0.45129388E-02 0.90675065E+02</pdfrwt>
<totfact> 0.10019463E+05</totfact>
</mgrwt>
</event>
<event>
 5    1  0.6112843E+000  0.9207774E+02  0.7546771E-02  0.1297897E+00
          1   -1    0    0  501    0  0.00000000000E+00  0.00000000000E+00  0.13841804984E+02  0.13841804984E+02  0.00000000000E+00 0. -1.
         -1   -1    0    0    0  501 -0.00000000000E+00 -0.00000000000E+00 -0.15312868515E+03  0.15312868515E+03  0.00000000000E+00 0.  1.
         23    2    1    2    0    0  0.00000000000E+00  0.00000000000E+00 -0.13928688017E+03  0.16697049014E+03  0.92077736666E+02 0.  0.
        -13    1    3    3    0    0  0.35860501379E+02  0.10798489313E+02 -0.11819944968E+03  0.12399069657E+03  0.00000000000E+00 0.  1.
         13    1    3    3    0    0 -0.35860501379E+02 -0.10798489313E+02 -0.21087430485E+02  0.42979793566E+02  0.00000000000E+00 0. -1.
<mgrwt>
<rscale>  0 0.92077737E+02</rscale>
<asrwt>0</asrwt>
<pdfrwt beam="1">  1        1 0.21295085E-02 0.92077737E+02</pdfrwt>
<pdfrwt beam="2">  1       -1 0.23558259E-01 0.92077737E+02</pdfrwt>
<totfact> 0.72547447E+04</totfact>
</mgrwt>
</event>
<event>
 5    1  0.6112843E+000  0.9110573E+02  0.7546771E-02  0.1300196E+00
         -1   -1    0    0    0  501 -0.00000000000E+00  0.00000000000E+00  0.14742656488E+02  0.14742656488E+02  0.00000000000E+00 0.  1.
          1   -1    0    0  501    0  0.00000000000E+00 -0.00000000000E+00 -0.14075235321E+03  0.14075235321E+03  0.00000000000E+00 0. -1.
         23    2    1    2    0    0  0.00000000000E+00  0.00000000000E+00 -0.12600969673E+03  0.15549500970E+03  0.91105731836E+02 0.  0.
        -13    1    3    3    0    0  0.34444688393E+02 -0.14226712214E+01 -0.12184766171E+02  0.36564040785E+02  0.00000000000E+00 0.  1.
         13    1    3    3    0    0 -0.34444688393E+02  0.14226712214E+01 -0.11382493056E+03  0.11893096892E+03  0.00000000000E+00 0. -1.
<mgrwt>
<rscale>  0 0.91105732E+02</rscale>
<asrwt>0</asrwt>
<pdfrwt beam="2">  1        1 0.21654208E-01 0.91105732E+02</pdfrwt>
<pdfrwt beam="1">  1       -1 0.22681011E-02 0.91105732E+02</pdfrwt>
<totfact> 0.11107165E+05</totfact>
</mgrwt>
</event>
<event>
 5    1  0.6112843E+000  0.9111181E+02  0.7546771E-02  0.1300181E+00
         -2   -1    0    0    0  501 -0.00000000000E+00  0.00000000000E+00  0.20554899850E+02  0.20554899850E+02  0.00000000000E+00 0.  1.
          2   -1    0    0  501    0  0.00000000000E+00 -0.00000000000E+00 -0.10096573202E+03  0.10096573202E+03  0.00000000000E+00 0. -1.
         23    2    1    2    0    0  0.00000000000E+00  0.00000000000E+00 -0.80410832166E+02  0.12152063187E+03  0.91111810649E+02 0.  0.
        -13    1    3    3    0    0 -0.28105387238E+02 -0.32426724269E+02 -0.60605088579E+02  0.74258884992E+02  0.00000000000E+00 0.  1.
         13    1    3    3    0    0  0.28105387238E+02  0.32426724269E+02 -0.19805743587E+02  0.47261746875E+02  0.00000000000E+00 0. -1.
<mgrwt>
<rscale>  0 0.91111811E+02</rscale>
<asrwt>0</asrwt>
<pdfrwt beam="2">  1        2 0.15533189E-01 0.91111811E+02</pdfrwt>
<pdfrwt beam="1">  1       -2 0.31622923E-02 0.91111811E+02</pdfrwt>
<totfact> 0.12327825E+05</totfact>
</mgrwt>
</event>
<event>
 5    1  0.6112843E+000  0.8850428E+02  0.7546771E-02  0.1306515E+00
          3   -1    0    0  501    0  0.00000000000E+00  0.00000000000E+00  0.48678379645E+02  0.48678379645E+02  0.00000000000E+00 0. -1.
         -3   -1    0    0    0  501 -0.00000000000E+00 -0.00000000000E+00 -0.40228368586E+02  0.40228368586E+02  0.00000000000E+00 0.  1.
         23    2    1    2    0    0  0.00000000000E+00  0.00000000000E+00  0.84500110594E+01  0.88906748231E+02  0.88504277829E+02 0.  0.
        -13    1    3    3    0    0  0.22732185875E+02 -0.35504669308E+02  0.17736747093E+02  0.45737577710E+02  0.00000000000E+00 0. -1.
         13    1    3    3    0    0 -0.22732185875E+02  0.35504669308E+02 -0.92867360340E+01  0.43169170521E+02  0.00000000000E+00 0.  1.
<mgrwt>
<rscale>  0 0.88504278E+02</rscale>
<asrwt>0</asrwt>
<pdfrwt beam="1">  1        3 0.74889815E-02 0.88504278E+02</pdfrwt>
<pdfrwt beam="2">  1       -3 0.61889798E-02 0.88504278E+02</pdfrwt>
<totfact> 0.38503860E+04</totfact>
</mgrwt>
</event>
<event>
 5    1  0.6112843E+000  0.8270569E+02  0.7546771E-02  0.1321544E+00
          1   -1    0    0  501    0  0.00000000000E+00  0.00000000000E+00  0.18995508002E+02  0.18995508002E+02  0.00000000000E+00 0. -1.
         -1   -1    0    0    0  501 -0.00000000000E+00 -0.00000000000E+00 -0.90024328258E+02  0.90024328258E+02  0.00000000000E+00 0.  1.
         23    2    1    2    0    0  0.00000000000E+00  0.00000000000E+00 -0.71028820256E+02  0.10901983626E+03  0.82705691407E+02 0.  0.
        -13    1    3    3    0    0 -0.37743548463E+02 -0.79107960376E+01 -0.55194488441E+02  0.67331921841E+02  0.00000000000E+00 0.  1.
         13    1    3    3    0    0  0.37743548463E+02  0.79107960376E+01 -0.15834331814E+02  0.41687914418E+02  0.00000000000E+00 0. -1.
<mgrwt>
<rscale>  0 0.82705691E+02</rscale>
<asrwt>0</asrwt>
<pdfrwt beam="1">  1        1 0.29223858E-02 0.82705691E+02</pdfrwt>
<pdfrwt beam="2">  1       -1 0.13849897E-01 0.82705691E+02</pdfrwt>
<totfact> 0.10648307E+05</totfact>
</mgrwt>
</event>
<event>
 5    1  0.6112843E+000  0.9199052E+02  0.7546771E-02  0.1298102E+00
         -1   -1    0    0    0  501 -0.00000000000E+00  0.00000000000E+00  0.21529580048E+03  0.21529580048E+03  0.00000000000E+00 0.  1.
          1   -1    0    0  501    0  0.00000000000E+00 -0.00000000000E+00 -0.98263135237E+01  0.98263135237E+01  0.00000000000E+00 0. -1.
         23    2    1    2    0    0  0.00000000000E+00  0.00000000000E+00  0.20546948696E+03  0.22512211400E+03  0.91990522030E+02 0.  0.
        -13    1    3    3    0    0 -0.37187052873E+02  0.23438459760E+02  0.13586972987E+03  0.14280343761E+03  0.00000000000E+00 0. -1.
         13    1    3    3    0    0  0.37187052873E+02 -0.23438459760E+02  0.69599757083E+02  0.82318676394E+02  0.00000000000E+00 0.  1.
<mgrwt>
<rscale>  0 0.91990522E+02</rscale>
<asrwt>0</asrwt>
<pdfrwt beam="2">  1        1 0.15117407E-02 0.91990522E+02</pdfrwt>
<pdfrwt beam="1">  1       -1 0.33122427E-01 0.91990522E+02</pdfrwt>
<totfact> 0.66379353E+04</totfact>
</mgrwt>
</event>
<event>
 5    1  0.6112843E+000  0.9941722E+02  0.7546771E-02  0.1281526E+00
         -2   -1    0    0    0  501 -0.00000000000E+00  0.00000000000E+00  0.13994823394E+03  0.13994823394E+03  0.00000000000E+00 0.  1.
          2   -1    0    0  501    0  0.00000000000E+00 -0.00000000000E+00 -0.17656141362E+02  0.17656141362E+02  0.00000000000E+00 0. -1.
         23    2    1    2    0    0  0.00000000000E+00  0.00000000000E+00  0.12229209257E+03  0.15760437530E+03  0.99417217861E+02 0.  0.
        -13    1    3    3    0    0  0.36855740302E+02  0.23082968429E+02  0.22974735623E+02  0.49183406772E+02  0.00000000000E+00 0.  1.
         13    1    3    3    0    0 -0.36855740302E+02 -0.23082968429E+02  0.99317356950E+02  0.10842096853E+03  0.00000000000E+00 0. -1.
<mgrwt>
<rscale>  0 0.99417218E+02</rscale>
<asrwt>0</asrwt>
<pdfrwt beam="2">  1        2 0.27163295E-02 0.99417218E+02</pdfrwt>
<pdfrwt beam="1">  1       -2 0.21530497E-01 0.99417218E+02</pdfrwt>
<totfact> 0.57545253E+04</totfact>
</mgrwt>
</event>
<event>
 5    1  0.6112843E+000  0.9248696E+02  0.7546771E-02  0.1296939E+00
          1   -1    0    0  501    0  0.00000000000E+00  0.00000000000E+00  0.15004470239E+02  0.15004470239E+02  0.00000000000E+00 0. -1.
         -1   -1    0    0    0  501 -0.00000000000E+00 -0.00000000000E+00 -0.14252149433E+03  0.14252149433E+03  0.00000000000E+00 0.  1.
         23    2    1    2    0    0  0.00000000000E+00  0.00000000000E+00 -0.12751702409E+03  0.15752596457E+03  0.92486961679E+02 0.  0.
        -13    1    3    3    0    0  0.40705054240E+02  0.10819838585E+01 -0.26427700212E+02  0.48543747983E+02  0.00000000000E+00 0. -1.
         13    1    3    3    0    0 -0.40705054240E+02 -0.10819838585E+01 -0.10108932388E+03  0.10898221659E+03  0.00000000000E+00 0.  1.
<mgrwt>
<rscale>  0 0.92486962E+02</rscale>
<asrwt>0</asrwt>
<pdfrwt beam="1">  1        1 0.23083799E-02 0.92486962E+02</pdfrwt>
<pdfrwt beam="2">  1       -1 0.21926385E-01 0.92486962E+02</pdfrwt>
<totfact> 0.72922798E+04</totfact>
</mgrwt>
</event>
<event>
 5    1  0.6112843E+000  0.9269210E+02  0.7546771E-02  0.1296460E+00
          2   -1    0    0  501    0  0.00000000000E+00  0.00000000000E+00  0.12732167979E+03  0.12732167979E+03  0.00000000000E+00 0.  1.
         -2   -1    0    0    0  501 -0.00000000000E+00 -0.00000000000E+00 -0.16870311185E+02  0.16870311185E+02  0.00000000000E+00 0. -1.
         23    2    1    2    0    0  0.00000000000E+00  0.00000000000E+00  0.11045136860E+03  0.14419199098E+03  0.92692100174E+02 0.  0.
        -13    1    3    3    0    0 -0.17177010593E+02 -0.19078770020E+02  0.11525069295E+03  0.11807527846E+03  0.00000000000E+00 0.  1.
         13    1    3    3    0    0  0.17177010593E+02  0.19078770020E+02 -0.47993243447E+01  0.26116712514E+02  0.00000000000E+00 0. -1.
<mgrwt>
<rscale>  0 0.92692100E+02</rscale>
<asrwt>0</asrwt>
<pdfrwt beam="1">  1        2 0.19587950E-01 0.92692100E+02</pdfrwt>
<pdfrwt beam="2">  1       -2 0.25954326E-02 0.92692100E+02</pdfrwt>
<totfact> 0.12654345E+05</totfact>
</mgrwt>
</event>
<event>
 5    1  0.6112843E+000  0.9275166E+02  0.7546771E-02  0.1296322E+00
          2   -1    0    0  501    0  0.00000000000E+00  0.00000000000E+00  0.90282057073E+02  0.90282057073E+02  0.00000000000E+00 0. -1.
         -2   -1    0    0    0  501 -0.00000000000E+00 -0.00000000000E+00 -0.23822202493E+02  0.23822202493E+02  0.00000000000E+00 0.  1.
         23    2    1    2    0    0  0.00000000000E+00  0.00000000000E+00  0.66459854580E+02  0.11410425957E+03  0.92751656484E+02 0.  0.
        -13    1    3    3    0    0  0.14348358292E+02 -0.22114455396E+02 -0.13708656739E+02  0.29712822026E+02  0.00000000000E+00 0.  1.
         13    1    3    3    0    0 -0.14348358292E+02  0.22114455396E+02  0.80168511319E+02  0.84391437541E+02  0.00000000000E+00 0. -1.
<mgrwt>
<rscale>  0 0.92751656E+02</rscale>
<asrwt>0</asrwt>
<pdfrwt beam="1">  1        2 0.13889547E-01 0.92751656E+02</pdfrwt>
<pdfrwt beam="2">  1       -2 0.36649543E-02 0.92751656E+02</pdfrwt>
<totfact> 0.11345565E+05</totfact>
</mgrwt>
</event>
<event>
 5    1  0.6112843E+000  0.8995407E+02  0.7546771E-02  0.1302963E+00
          1   -1    0    0  501    0  0.00000000000E+00  0.00000000000E+00  0.56232724324E+02  0.56232724324E+02  0.00000000000E+00 0. -1.
         -1   -1    0    0    0  501 -0.00000000000E+00 -0.00000000000E+00 -0.35974316914E+02  0.35974316914E+02  0.00000000000E+00 0.  1.
         23    2    1    2    0    0  0.00000000000E+00  0.00000000000E+00  0.20258407409E+02  0.92207041238E+02  0.89954073744E+02 0.  0.
        -13    1    3    3    0    0 -0.72678630393E+01 -0.20212465294E+02  0.50635612090E+02  0.55003007174E+02  0.00000000000E+00 0. -1.
         13    1    3    3    0    0  0.72678630393E+01  0.20212465294E+02 -0.30377204681E+02  0.37204034064E+02  0.00000000000E+00 0.  1.
<mgrwt>
<rscale>  0 0.89954074E+02</rscale>
<asrwt>0</asrwt>
<pdfrwt beam="1">  1        1 0.86511884E-02 0.89954074E+02</pdfrwt>
<pdfrwt beam="2">  1       -1 0.55345102E-02 0.89954074E+02</pdfrwt>
<totfact> 0.99077519E+04</totfact>
</mgrwt>
</event>
<event>
 5    1  0.6112843E+000  0.9232682E+02  0.7546771E-02  0.1297313E+00
         -2   -1    0    0    0  501 -0.00000000000E+00  0.00000000000E+00  0.24758339991E+02  0.24758339991E+02  0.00000000000E+00 0. -1.
          2   -1    0    0  501    0  0.00000000000E+00 -0.00000000000E+00 -0.86074454432E+02  0.86074454432E+02  0.00000000000E+00 0.  1.
         23    2    1    2    0    0  0.00000000000E+00  0.00000000000E+00 -0.61316114441E+02  0.11083279442E+03  0.92326823997E+02 0.  0.
        -13    1    3    3    0    0  0.34985210955E+02 -0.68892752444E+01  0.45382463520E+01  0.35944718373E+02  0.00000000000E+00 0. -1.
         13    1    3    3    0    0 -0.34985210955E+02  0.68892752444E+01 -0.65854360793E+02  0.74888076049E+02  0.00000000000E+00 0.  1.
<mgrwt>
<rscale>  0 0.92326824E+02</rscale>
<asrwt>0</asrwt>
<pdfrwt beam="2">  1        2 0.13242224E-01 0.92326824E+02</pdfrwt>
<pdfrwt beam="1">  1       -2 0.38089753E-02 0.92326824E+02</pdfrwt>
<totfact> 0.11329997E+05</totfact>
</mgrwt>
</event>
<event>
 5    1  0.6112843E+000  0.9085688E+02  0.7546771E-02  0.1300790E+00
          2   -1    0    0  501    0  0.00000000000E+00  0.00000000000E+00  0.17115290953E+02  0.17115290953E+02  0.00000000000E+00 0. -1.
         -2   -1    0    0    0  501 -0.00000000000E+00 -0.00000000000E+00 -0.12057892426E+03  0.12057892426E+03  0.00000000000E+00 0.  1.
         23    2    1    2    0    0  0.00000000000E+00  0.00000000000E+00 -0.10346363330E+03  0.13769421521E+03  0.90856884636E+02 0.  0.
        -13    1    3    3    0    0  0.61999151148E+01  0.24438931923E+02 -0.10900199041E+03  0.11187999935E+03  0.00000000000E+00 0.  1.
         13    1    3    3    0    0 -0.61999151148E+01 -0.24438931923E+02  0.55383571078E+01  0.25814215859E+02  0.00000000000E+00 0. -1.
<mgrwt>
<rscale>  0 0.90856885E+02</rscale>
<asrwt>0</asrwt>
<pdfrwt beam="1">  1        2 0.26331218E-02 0.90856885E+02</pdfrwt>
<pdfrwt beam="2">  1       -2 0.18550603E-01 0.90856885E+02</pdfrwt>
<totfact> 0.75966630E+04</totfact>
</mgrwt>
</event>
<event>
 5    1  0.6112843E+000  0.9162254E+02  0.7546771E-02  0.1298969E+00
          2   -1    0    0  501    0  0.00000000000E+00  0.00000000000E+00  0.16957922654E+03  0.16957922654E+03  0.00000000000E+00 0.  1.
         -2   -1    0    0    0  501 -0.00000000000E+00 -0.00000000000E+00 -0.12375763671E+02  0.12375763671E+02  0.00000000000E+00 0. -1.
         23    2    1    2    0    0  0.00000000000E+00  0.00000000000E+00  0.15720346287E+03  0.18195499021E+03  0.91622539391E+02 0.  0.
        -13    1    3    3    0    0 -0.39711475390E+02 -0.15906877046E+02  0.11115157748E+03  0.11909955160E+03  0.00000000000E+00 0. -1.
         13    1    3    3    0    0  0.39711475390E+02  0.15906877046E+02  0.46051885387E+02  0.62855438609E+02  0.00000000000E+00 0.  1.
<mgrwt>
<rscale>  0 0.91622539E+02</rscale>
<asrwt>0</asrwt>
<pdfrwt beam="1">  1        2 0.26089110E-01 0.91622539E+02</pdfrwt>
<pdfrwt beam="2">  1       -2 0.19039638E-02 0.91622539E+02</pdfrwt>
<totfact> 0.14393928E+05</totfact>
</mgrwt>
</event>
<event>
 5    1  0.6112843E+000  0.9142003E+02  0.7546771E-02  0.1299449E+00
          1   -1    0    0  501    0  0.00000000000E+00  0.00000000000E+00  0.12353295142E+03  0.12353295142E+03  0.00000000000E+00 0. -1.
         -1   -1    0    0    0  501 -0.00000000000E+00 -0.00000000000E+00 -0.16913750201E+02  0.16913750201E+02  0.00000000000E+00 0.  1.
         23    2    1    2    0    0  0.00000000000E+00  0.00000000000E+00  0.10661920122E+03  0.14044670162E+03  0.91420030232E+02 0.  0.
        -13    1    3    3    0    0 -0.21930387928E+02 -0.14217890946E+02 -0.43022081665E+01  0.26487720414E+02  0.00000000000E+00 0.  1.
         13    1    3    3    0    0  0.21930387928E+02  0.14217890946E+02  0.11092140939E+03  0.11395898121E+03  0.00000000000E+00 0. -1.
<mgrwt>
<rscale>  0 0.91420030E+02</rscale>
<asrwt>0</asrwt>
<pdfrwt beam="1">  1        1 0.19005069E-01 0.91420030E+02</pdfrwt>
<pdfrwt beam="2">  1       -1 0.26021155E-02 0.91420030E+02</pdfrwt>
<totfact> 0.10750645E+05</totfact>
</mgrwt>
</event>
<event>
 5    1  0.6112843E+000  0.9118009E+02  0.7546771E-02  0.1300019E+00
          1   -1    0    0  501    0  0.00000000000E+00  0.00000000000E+00  0.11347799860E+03  0.11347799860E+03  0.00000000000E+00 0. -1.
         -1   -1    0    0    0  501 -0.00000000000E+00 -0.00000000000E+00 -0.18315903050E+02  0.18315903050E+02  0.00000000000E+00 0.  1.
         23    2    1    2    0    0  0.00000000000E+00  0.00000000000E+00  0.95162095555E+02  0.13179390165E+03  0.91180085999E+02 0.  0.
        -13    1    3    3    0    0 -0.44878430421E+02 -0.80007611809E+01  0.48455886721E+02  0.66528630336E+02  0.00000000000E+00 0.  1.
         13    1    3    3    0    0  0.44878430421E+02  0.80007611809E+01  0.46706208834E+02  0.65265271318E+02  0.00000000000E+00 0. -1.
<mgrwt>
<rscale>  0 0.91180086E+02</rscale>
<asrwt>0</asrwt>
<pdfrwt beam="1">  1        1 0.17458153E-01 0.91180086E+02</pdfrwt>
<pdfrwt beam="2">  1       -1 0.28178313E-02 0.91180086E+02</pdfrwt>
<totfact> 0.10669473E+05</totfact>
</mgrwt>
</event>
<event>
 5    1  0.6112843E+000  0.9251314E+02  0.7546771E-02  0.1296877E+00
         -4   -1    0    0    0  501 -0.00000000000E+00  0.00000000000E+00  0.94557473095E+02  0.94557473095E+02  0.00000000000E+00 0.  1.
          4   -1    0    0  501    0  0.00000000000E+00 -0.00000000000E+00 -0.22628253522E+02  0.22628253522E+02  0.00000000000E+00 0. -1.
         23    2    1    2    0    0  0.00000000000E+00  0.00000000000E+00  0.71929219572E+02  0.11718572662E+03  0.92513144442E+02 0.  0.
        -13    1    3    3    0    0  0.37358219271E+02 -0.25803696431E+02  0.24762921759E+02  0.51717207877E+02  0.00000000000E+00 0.  1.
         13    1    3    3    0    0 -0.37358219271E+02  0.25803696431E+02  0.47166297813E+02  0.65468518740E+02  0.00000000000E+00 0. -1.
<mgrwt>
<rscale>  0 0.92513144E+02</rscale>
<asrwt>0</asrwt>
<pdfrwt beam="2">  1        4 0.34812698E-02 0.92513144E+02</pdfrwt>
<pdfrwt beam="1">  1       -4 0.14547303E-01 0.92513144E+02</pdfrwt>
<totfact> 0.24449756E+04</totfact>
</mgrwt>
</event>
<event>
 5    1  0.6112843E+000  0.9243315E+02  0.7546771E-02  0.1297064E+00
         -2   -1    0    0    0  501 -0.00000000000E+00  0.00000000000E+00  0.16194954870E+02  0.16194954870E+02  0.00000000000E+00 0.  1.
          2   -1    0    0  501    0  0.00000000000E+00 -0.00000000000E+00 -0.13189117655E+03  0.13189117655E+03  0.00000000000E+00 0. -1.
         23    2    1    2    0    0  0.00000000000E+00  0.00000000000E+00 -0.11569622168E+03  0.14808613141E+03  0.92433146692E+02 0.  0.
        -13    1    3    3    0    0 -0.11992919619E+02  0.21274471774E+02  0.50129795734E+01  0.24931169938E+02  0.00000000000E+00 0.  1.
         13    1    3    3    0    0  0.11992919619E+02 -0.21274471774E+02 -0.12070920125E+03  0.12315496148E+03  0.00000000000E+00 0. -1.
<mgrwt>
<rscale>  0 0.92433147E+02</rscale>
<asrwt>0</asrwt>
<pdfrwt beam="2">  1        2 0.20290951E-01 0.92433147E+02</pdfrwt>
<pdfrwt beam="1">  1       -2 0.24915314E-02 0.92433147E+02</pdfrwt>
<totfact> 0.12900410E+05</totfact>
</mgrwt>
</event>
<event>
 5    1  0.6112843E+000  0.9584149E+02  0.7546771E-02  0.1289292E+00
         -2   -1    0    0    0  501 -0.00000000000E+00  0.00000000000E+00  0.19090551301E+03  0.19090551301E+03  0.00000000000E+00 0.  1.
          2   -1    0    0  501    0  0.00000000000E+00 -0.00000000000E+00 -0.12028975262E+02  0.12028975262E+02  0.00000000000E+00 0. -1.
         23    2    1    2    0    0  0.00000000000E+00  0.00000000000E+00  0.17887653775E+03  0.20293448827E+03  0.95841487747E+02 0.  0.
        -13    1    3    3    0    0 -0.42473551659E+02  0.15438192579E+02  0.12318783267E+03  0.13121578602E+03  0.00000000000E+00 0.  1.
         13    1    3    3    0    0  0.42473551659E+02 -0.15438192579E+02  0.55688705073E+02  0.71718702256E+02  0.00000000000E+00 0. -1.
<mgrwt>
<rscale>  0 0.95841488E+02</rscale>
<asrwt>0</asrwt>
<pdfrwt beam="2">  1        2 0.18506117E-02 0.95841488E+02</pdfrwt>
<pdfrwt beam="1">  1       -2 0.29370077E-01 0.95841488E+02</pdfrwt>
<totfact> 0.55964222E+04</totfact>
</mgrwt>
</event>
<event>
 5    1  0.6112843E+000  0.9002596E+02  0.7546771E-02  0.1302789E+00
          3   -1    0    0  501    0  0.00000000000E+00  0.00000000000E+00  0.96736251194E+02  0.96736251194E+02  0.00000000000E+00 0. -1.
         -3   -1    0    0    0  501 -0.00000000000E+00 -0.00000000000E+00 -0.20945285399E+02  0.20945285399E+02  0.00000000000E+00 0.  1.
         23    2    1    2    0    0  0.00000000000E+00  0.00000000000E+00  0.75790965795E+02  0.11768153659E+03  0.90025960472E+02 0.  0.
        -13    1    3    3    0    0  0.12227368692E+02  0.26588728753E+02 -0.68117397372E+01  0.30047775958E+02  0.00000000000E+00 0.  1.
         13    1    3    3    0    0 -0.12227368692E+02 -0.26588728753E+02  0.82602705532E+02  0.87633760635E+02  0.00000000000E+00 0. -1.
<mgrwt>
<rscale>  0 0.90025960E+02</rscale>
<asrwt>0</asrwt>
<pdfrwt beam="1">  1        3 0.14882500E-01 0.90025960E+02</pdfrwt>
<pdfrwt beam="2">  1       -3 0.32223517E-02 0.90025960E+02</pdfrwt>
<totfact> 0.34575959E+04</totfact>
</mgrwt>
</event>
<event>
 5    1  0.6112843E+000  0.9120461E+02  0.7546771E-02  0.1299961E+00
         -4   -1    0    0    0  501 -0.00000000000E+00  0.00000000000E+00  0.17189721230E+02  0.17189721230E+02  0.00000000000E+00 0.  1.
          4   -1    0    0  501    0  0.00000000000E+00 -0.00000000000E+00 -0.12097753548E+03  0.12097753548E+03  0.00000000000E+00 0. -1.
         23    2    1    2    0    0  0.00000000000E+00  0.00000000000E+00 -0.10378781425E+03  0.13816725670E+03  0.91204607556E+02 0.  0.
        -13    1    3    3    0    0  0.24606920170E+02  0.13542719338E+02  0.25306635478E+01  0.28201241556E+02  0.00000000000E+00 0.  1.
         13    1    3    3    0    0 -0.24606920170E+02 -0.13542719338E+02 -0.10631847779E+03  0.10996601515E+03  0.00000000000E+00 0. -1.
<mgrwt>
<rscale>  0 0.91204608E+02</rscale>
<asrwt>0</asrwt>
<pdfrwt beam="2">  1        4 0.18611928E-01 0.91204608E+02</pdfrwt>
<pdfrwt beam="1">  1       -4 0.26445726E-02 0.91204608E+02</pdfrwt>
<totfact> 0.24261389E+04</totfact>
</mgrwt>
</event>
<event>
 5    1  0.6112843E+000  0.9074890E+02  0.7546771E-02  0.1301048E+00
         -4   -1    0    0    0  501 -0.00000000000E+00  0.00000000000E+00  0.84035870933E+02  0.84035870933E+02  0.00000000000E+00 0.  1.
          4   -1    0    0  501    0  0.00000000000E+00 -0.00000000000E+00 -0.24499548764E+02  0.24499548764E+02  0.00000000000E+00 0. -1.
         23    2    1    2    0    0  0.00000000000E+00  0.00000000000E+00  0.59536322169E+02  0.10853541970E+03  0.90748904519E+02 0.  0.
        -13    1    3    3    0    0  0.12943130252E+02  0.93206412273E+01 -0.21036265703E+02  0.26399307724E+02  0.00000000000E+00 0. -1.
         13    1    3    3    0    0 -0.12943130252E+02 -0.93206412273E+01  0.80572587872E+02  0.82136111973E+02  0.00000000000E+00 0.  1.
<mgrwt>
<rscale>  0 0.90748905E+02</rscale>
<asrwt>0</asrwt>
<pdfrwt beam="2">  1        4 0.37691614E-02 0.90748905E+02</pdfrwt>
<pdfrwt beam="1">  1       -4 0.12928595E-01 0.90748905E+02</pdfrwt>
<totfact> 0.26271931E+04</totfact>
</mgrwt>
</event>
<event>
 5    1  0.6112843E+000  0.9083335E+02  0.7546771E-02  0.1300846E+00
          2   -1    0    0  501    0  0.00000000000E+00  0.00000000000E+00  0.95353826788E+02  0.95353826788E+02  0.00000000000E+00 0.  1.
         -2   -1    0    0    0  501 -0.00000000000E+00 -0.00000000000E+00 -0.21631792357E+02  0.21631792357E+02  0.00000000000E+00 0. -1.
         23    2    1    2    0    0  0.00000000000E+00  0.00000000000E+00  0.73722034432E+02  0.11698561914E+03  0.90833345892E+02 0.  0.
        -13    1    3    3    0    0  0.20614314041E+02  0.25901311855E+02 -0.31856041641E+01  0.33256217059E+02  0.00000000000E+00 0. -1.
         13    1    3    3    0    0 -0.20614314041E+02 -0.25901311855E+02  0.76907638596E+02  0.83729402085E+02  0.00000000000E+00 0.  1.
<mgrwt>
<rscale>  0 0.90833346E+02</rscale>
<asrwt>0</asrwt>
<pdfrwt beam="1">  1        2 0.14669819E-01 0.90833346E+02</pdfrwt>
<pdfrwt beam="2">  1       -2 0.33279681E-02 0.90833346E+02</pdfrwt>
<totfact> 0.12218832E+05</totfact>
</mgrwt>
</event>
<event>
 5    1  0.6112843E+000  0.9327089E+02  0.7546771E-02  0.1295119E+00
          1   -1    0    0  501    0  0.00000000000E+00  0.00000000000E+00  0.21794447353E+02  0.21794447353E+02  0.00000000000E+00 0. -1.
         -1   -1    0    0    0  501 -0.00000000000E+00 -0.00000000000E+00 -0.99789859388E+02  0.99789859388E+02  0.00000000000E+00 0.  1.
         23    2    1    2    0    0  0.00000000000E+00  0.00000000000E+00 -0.77995412035E+02  0.12158430674E+03  0.93270892282E+02 0.  0.
        -13    1    3    3    0    0 -0.26508701893E+02 -0.34030343989E+02 -0.15895261991E+02  0.45972110478E+02  0.00000000000E+00 0. -1.
         13    1    3    3    0    0  0.26508701893E+02  0.34030343989E+02 -0.62100150045E+02  0.75612196263E+02  0.00000000000E+00 0.  1.
<mgrwt>
<rscale>  0 0.93270892E+02</rscale>
<asrwt>0</asrwt>
<pdfrwt beam="1">  1        1 0.33529919E-02 0.93270892E+02</pdfrwt>
<pdfrwt beam="2">  1       -1 0.15352286E-01 0.93270892E+02</pdfrwt>
<totfact> 0.76773223E+04</totfact>
</mgrwt>
</event>
<event>
 5    1  0.6112843E+000  0.9105221E+02  0.7546771E-02  0.1300323E+00
          1   -1    0    0  501    0  0.00000000000E+00  0.00000000000E+00  0.15479371820E+02  0.15479371820E+02  0.00000000000E+00 0. -1.
         -1   -1    0    0    0  501 -0.00000000000E+00 -0.00000000000E+00 -0.13389602467E+03  0.13389602467E+03  0.00000000000E+00 0.  1.
         23    2    1    2    0    0  0.00000000000E+00  0.00000000000E+00 -0.11841665285E+03  0.14937539649E+03  0.91052212517E+02 0.  0.
        -13    1    3    3    0    0  0.39495156660E+01 -0.44946604011E+02 -0.49252159528E+02  0.66794993108E+02  0.00000000000E+00 0.  1.
         13    1    3    3    0    0 -0.39495156660E+01  0.44946604011E+02 -0.69164493319E+02  0.82580403379E+02  0.00000000000E+00 0. -1.
<mgrwt>
<rscale>  0 0.91052213E+02</rscale>
<asrwt>0</asrwt>
<pdfrwt beam="1">  1        1 0.23814418E-02 0.91052213E+02</pdfrwt>
<pdfrwt beam="2">  1       -1 0.20599389E-01 0.91052213E+02</pdfrwt>
<totfact> 0.77005685E+04</totfact>
</mgrwt>
</event>
<event>
 5    1  0.6112843E+000  0.9196833E+02  0.7546771E-02  0.1298154E+00
         -1   -1    0    0    0  501 -0.00000000000E+00  0.00000000000E+00  0.11446134976E+03  0.11446134976E+03  0.00000000000E+00 0.  1.
          1   -1    0    0  501    0  0.00000000000E+00 -0.00000000000E+00 -0.18473863457E+02  0.18473863457E+02  0.00000000000E+00 0. -1.
         23    2    1    2    0    0  0.00000000000E+00  0.00000000000E+00  0.95987486298E+02  0.13293521321E+03  0.91968328169E+02 0.  0.
        -13    1    3    3    0    0 -0.37552912147E+02  0.85417946338E+01  0.84313274440E+02  0.92692565576E+02  0.00000000000E+00 0.  1.
         13    1    3    3    0    0  0.37552912147E+02 -0.85417946338E+01  0.11674211858E+02  0.40242647637E+02  0.00000000000E+00 0. -1.
<mgrwt>
<rscale>  0 0.91968328E+02</rscale>
<asrwt>0</asrwt>
<pdfrwt beam="2">  1        1 0.28421329E-02 0.91968328E+02</pdfrwt>
<pdfrwt beam="1">  1       -1 0.17609438E-01 0.91968328E+02</pdfrwt>
<totfact> 0.77531140E+04</totfact>
</mgrwt>
</event>
<event>
 5    1  0.6112843E+000  0.9090644E+02  0.7546771E-02  0.1300671E+00
          1   -1    0    0  501    0  0.00000000000E+00  0.00000000000E+00  0.29623418277E+02  0.29623418277E+02  0.00000000000E+00 0. -1.
         -1   -1    0    0    0  501 -0.00000000000E+00 -0.00000000000E+00 -0.69741965625E+02  0.69741965625E+02  0.00000000000E+00 0.  1.
         23    2    1    2    0    0  0.00000000000E+00  0.00000000000E+00 -0.40118547349E+02  0.99365383902E+02  0.90906444637E+02 0.  0.
        -13    1    3    3    0    0 -0.44443623466E+02 -0.82517846937E+01 -0.25263367819E+02  0.51783833104E+02  0.00000000000E+00 0.  1.
         13    1    3    3    0    0  0.44443623466E+02  0.82517846937E+01 -0.14855179530E+02  0.47581550797E+02  0.00000000000E+00 0. -1.
<mgrwt>
<rscale>  0 0.90906445E+02</rscale>
<asrwt>0</asrwt>
<pdfrwt beam="1">  1        1 0.45574490E-02 0.90906445E+02</pdfrwt>
<pdfrwt beam="2">  1       -1 0.10729533E-01 0.90906445E+02</pdfrwt>
<totfact> 0.87249054E+04</totfact>
</mgrwt>
</event>
<event>
 5    1  0.6112843E+000  0.8839086E+02  0.7546771E-02  0.1306796E+00
          1   -1    0    0  501    0  0.00000000000E+00  0.00000000000E+00  0.13818628147E+03  0.13818628147E+03  0.00000000000E+00 0. -1.
         -1   -1    0    0    0  501 -0.00000000000E+00 -0.00000000000E+00 -0.14134803659E+02  0.14134803659E+02  0.00000000000E+00 0.  1.
         23    2    1    2    0    0  0.00000000000E+00  0.00000000000E+00  0.12405147782E+03  0.15232108513E+03  0.88390858283E+02 0.  0.
        -13    1    3    3    0    0 -0.11346646876E+02  0.30242884035E+02  0.10045368478E+02  0.33827324132E+02  0.00000000000E+00 0.  1.
         13    1    3    3    0    0  0.11346646876E+02 -0.30242884035E+02  0.11400610934E+03  0.11849376100E+03  0.00000000000E+00 0. -1.
<mgrwt>
<rscale>  0 0.88390858E+02</rscale>
<asrwt>0</asrwt>
<pdfrwt beam="1">  1        1 0.21259427E-01 0.88390858E+02</pdfrwt>
<pdfrwt beam="2">  1       -1 0.21745853E-02 0.88390858E+02</pdfrwt>
<totfact> 0.12010850E+05</totfact>
</mgrwt>
</event>
<event>
 5    1  0.6112843E+000  0.9056197E+02  0.7546771E-02  0.1301496E+00
         -2   -1    0    0    0  501 -0.00000000000E+00  0.00000000000E+00  0.47700842840E+02  0.47700842840E+02  0.00000000000E+00 0.  1.
          2   -1    0    0  501    0  0.00000000000E+00 -0.00000000000E+00 -0.42983890314E+02  0.42983890314E+02  0.00000000000E+00 0. -1.
         23    2    1    2    0    0  0.00000000000E+00  0.00000000000E+00  0.47169525259E+01  0.90684733155E+02  0.90561974284E+02 0.  0.
        -13    1    3    3    0    0  0.25638149115E+02 -0.97527788236E+00  0.39719934356E+02  0.47285717106E+02  0.00000000000E+00 0.  1.
         13    1    3    3    0    0 -0.25638149115E+02  0.97527788236E+00 -0.35002981830E+02  0.43399016049E+02  0.00000000000E+00 0. -1.
<mgrwt>
<rscale>  0 0.90561974E+02</rscale>
<asrwt>0</asrwt>
<pdfrwt beam="2">  1        2 0.66129062E-02 0.90561974E+02</pdfrwt>
<pdfrwt beam="1">  1       -2 0.73385912E-02 0.90561974E+02</pdfrwt>
<totfact> 0.99092363E+04</totfact>
</mgrwt>
</event>
<event>
 5    1  0.6112843E+000  0.9167937E+02  0.7546771E-02  0.1298835E+00
         -2   -1    0    0    0  501 -0.00000000000E+00  0.00000000000E+00  0.13111040878E+02  0.13111040878E+02  0.00000000000E+00 0.  1.
          2   -1    0    0  501    0  0.00000000000E+00 -0.00000000000E+00 -0.16026772941E+03  0.16026772941E+03  0.00000000000E+00 0. -1.
         23    2    1    2    0    0  0.00000000000E+00  0.00000000000E+00 -0.14715668854E+03  0.17337877029E+03  0.91679370674E+02 0.  0.
        -13    1    3    3    0    0 -0.51504639997E+01  0.35511361671E+02 -0.12752375391E+03  0.13247600499E+03  0.00000000000E+00 0. -1.
         13    1    3    3    0    0  0.51504639997E+01 -0.35511361671E+02 -0.19632934622E+02  0.40902765298E+02  0.00000000000E+00 0.  1.
<mgrwt>
<rscale>  0 0.91679371E+02</rscale>
<asrwt>0</asrwt>
<pdfrwt beam="2">  1        2 0.24656573E-01 0.91679371E+02</pdfrwt>
<pdfrwt beam="1">  1       -2 0.20170833E-02 0.91679371E+02</pdfrwt>
<totfact> 0.14090290E+05</totfact>
</mgrwt>
</event>
<event>
 5    1  0.6112843E+000  0.9067906E+02  0.7546771E-02  0.1301216E+00
          2   -1    0    0  501    0  0.00000000000E+00  0.00000000000E+00  0.89957417017E+02  0.89957417017E+02  0.00000000000E+00 0. -1.
         -2   -1    0    0    0  501 -0.00000000000E+00 -0.00000000000E+00 -0.22851625024E+02  0.22851625024E+02  0.00000000000E+00 0.  1.
         23    2    1    2    0    0  0.00000000000E+00  0.00000000000E+00  0.67105791994E+02  0.11280904204E+03  0.90679063996E+02 0.  0.
        -13    1    3    3    0    0 -0.19589044046E+02 -0.40583862993E+02  0.39759754368E+02  0.60096744084E+02  0.00000000000E+00 0. -1.
         13    1    3    3    0    0  0.19589044046E+02  0.40583862993E+02  0.27346037626E+02  0.52712297957E+02  0.00000000000E+00 0.  1.
<mgrwt>
<rscale>  0 0.90679064E+02</rscale>
<asrwt>0</asrwt>
<pdfrwt beam="1">  1        2 0.13839603E-01 0.90679064E+02</pdfrwt>
<pdfrwt beam="2">  1       -2 0.35156346E-02 0.90679064E+02</pdfrwt>
<totfact> 0.12065273E+05</totfact>
</mgrwt>
</event>
<event>
 5    1  0.6112843E+000  0.9552670E+02  0.7546771E-02  0.1289994E+00
          2   -1    0    0  501    0  0.00000000000E+00  0.00000000000E+00  0.95842113268E+02  0.95842113268E+02  0.00000000000E+00 0. -1.
         -2   -1    0    0    0  501 -0.00000000000E+00 -0.00000000000E+00 -0.23803079521E+02  0.23803079521E+02  0.00000000000E+00 0.  1.
         23    2    1    2    0    0  0.00000000000E+00  0.00000000000E+00  0.72039033747E+02  0.11964519279E+03  0.95526696657E+02 0.  0.
        -13    1    3    3    0    0  0.18212121994E+02  0.38788685725E+02  0.95956530379E+01  0.43912641517E+02  0.00000000000E+00 0.  1.
         13    1    3    3    0    0 -0.18212121994E+02 -0.38788685725E+02  0.62443380709E+02  0.75732551272E+02  0.00000000000E+00 0. -1.
<mgrwt>
<rscale>  0 0.95526697E+02</rscale>
<asrwt>0</asrwt>
<pdfrwt beam="1">  1        2 0.14744940E-01 0.95526697E+02</pdfrwt>
<pdfrwt beam="2">  1       -2 0.36620123E-02 0.95526697E+02</pdfrwt>
<totfact> 0.10644371E+05</totfact>
</mgrwt>
</event>
<event>
 5    1  0.6112843E+000  0.9108780E+02  0.7546771E-02  0.1300239E+00
         -1   -1    0    0    0  501 -0.00000000000E+00  0.00000000000E+00  0.19529845462E+02  0.19529845462E+02  0.00000000000E+00 0.  1.
          1   -1    0    0  501    0  0.00000000000E+00 -0.00000000000E+00 -0.10620907538E+03  0.10620907538E+03  0.00000000000E+00 0. -1.
         23    2    1    2    0    0  0.00000000000E+00  0.00000000000E+00 -0.86679229913E+02  0.12573892084E+03  0.91087800034E+02 0.  0.
        -13    1    3    3    0    0  0.43416827025E+02 -0.12820064517E+02 -0.36455247455E+02  0.58123661190E+02  0.00000000000E+00 0. -1.
         13    1    3    3    0    0 -0.43416827025E+02  0.12820064517E+02 -0.50223982458E+02  0.67615259647E+02  0.00000000000E+00 0.  1.
<mgrwt>
<rscale>  0 0.91087800E+02</rscale>
<asrwt>0</asrwt>
<pdfrwt beam="2">  1        1 0.16339857E-01 0.91087800E+02</pdfrwt>
<pdfrwt beam="1">  1       -1 0.30045917E-02 0.91087800E+02</pdfrwt>
<totfact> 0.10579208E+05</totfact>
</mgrwt>
</event>
<event>
 5    1  0.6112843E+000  0.8995105E+02  0.7546771E-02  0.1302970E+00
          2   -1    0    0  501    0  0.00000000000E+00  0.00000000000E+00  0.31407218369E+02  0.31407218369E+02  0.00000000000E+00 0.  1.
         -2   -1    0    0    0  501 -0.00000000000E+00 -0.00000000000E+00 -0.64405505628E+02  0.64405505628E+02  0.00000000000E+00 0. -1.
         23    2    1    2    0    0  0.00000000000E+00  0.00000000000E+00 -0.32998287260E+02  0.95812723997E+02  0.89951048452E+02 0.  0.
        -13    1    3    3    0    0 -0.22383857388E+02 -0.28089423177E+02  0.12334092826E+02  0.37976079469E+02  0.00000000000E+00 0.  1.
         13    1    3    3    0    0  0.22383857388E+02  0.28089423177E+02 -0.45332380086E+02  0.57836644528E+02  0.00000000000E+00 0. -1.
<mgrwt>
<rscale>  0 0.89951048E+02</rscale>
<asrwt>0</asrwt>
<pdfrwt beam="1">  1        2 0.48318798E-02 0.89951048E+02</pdfrwt>
<pdfrwt beam="2">  1       -2 0.99085393E-02 0.89951048E+02</pdfrwt>
<totfact> 0.93197155E+04</totfact>
</mgrwt>
</event>
<event>
 5    1  0.6112843E+000  0.9653510E+02  0.7546771E-02  0.1287756E+00
          3   -1    0    0  501    0  0.00000000000E+00  0.00000000000E+00  0.13826320615E+03  0.13826320615E+03  0.00000000000E+00 0. -1.
         -3   -1    0    0    0  501 -0.00000000000E+00 -0.00000000000E+00 -0.16850153513E+02  0.16850153513E+02  0.00000000000E+00 0.  1.
         23    2    1    2    0    0  0.00000000000E+00  0.00000000000E+00  0.12141305264E+03  0.15511335966E+03  0.96535097219E+02 0.  0.
        -13    1    3    3    0    0 -0.46322363636E+02 -0.84260673064E+01  0.77786846662E+02  0.90926088098E+02  0.00000000000E+00 0. -1.
         13    1    3    3    0    0  0.46322363636E+02  0.84260673064E+01  0.43626205974E+02  0.64187271564E+02  0.00000000000E+00 0.  1.
<mgrwt>
<rscale>  0 0.96535097E+02</rscale>
<asrwt>0</asrwt>
<pdfrwt beam="1">  1        3 0.21271262E-01 0.96535097E+02</pdfrwt>
<pdfrwt beam="2">  1       -3 0.25923314E-02 0.96535097E+02</pdfrwt>
<totfact> 0.26538376E+04</totfact>
</mgrwt>
</event>
<event>
 5    1  0.6112843E+000  0.9219106E+02  0.7546771E-02  0.1297631E+00
         -4   -1    0    0    0  501 -0.00000000000E+00  0.00000000000E+00  0.16800158955E+02  0.16800158955E+02  0.00000000000E+00 0.  1.
          4   -1    0    0  501    0  0.00000000000E+00 -0.00000000000E+00 -0.12647486764E+03  0.12647486764E+03  0.00000000000E+00 0. -1.
         23    2    1    2    0    0  0.00000000000E+00  0.00000000000E+00 -0.10967470868E+03  0.14327502659E+03  0.92191059874E+02 0.  0.
        -13    1    3    3    0    0 -0.11745010650E+02  0.43797075748E+02 -0.67715736115E+02  0.81495705634E+02  0.00000000000E+00 0.  1.
         13    1    3    3    0    0  0.11745010650E+02 -0.43797075748E+02 -0.41958972570E+02  0.61779320961E+02  0.00000000000E+00 0. -1.
<mgrwt>
<rscale>  0 0.92191060E+02</rscale>
<asrwt>0</asrwt>
<pdfrwt beam="2">  1        4 0.19457671E-01 0.92191060E+02</pdfrwt>
<pdfrwt beam="1">  1       -4 0.25846399E-02 0.92191060E+02</pdfrwt>
<totfact> 0.23308570E+04</totfact>
</mgrwt>
</event>
<event>
 5    1  0.6112843E+000  0.8966881E+02  0.7546771E-02  0.1303656E+00
          4   -1    0    0  501    0  0.00000000000E+00  0.00000000000E+00  0.17237590703E+02  0.17237590703E+02  0.00000000000E+00 0. -1.
         -4   -1    0    0    0  501 -0.00000000000E+00 -0.00000000000E+00 -0.11661280796E+03  0.11661280796E+03  0.00000000000E+00 0.  1.
         23    2    1    2    0    0  0.00000000000E+00  0.00000000000E+00 -0.99375217253E+02  0.13385039866E+03  0.89668809613E+02 0.  0.
        -13    1    3    3    0    0 -0.38701303490E+02  0.30722507311E+01 -0.16212916266E+02  0.42072416976E+02  0.00000000000E+00 0. -1.
         13    1    3    3    0    0  0.38701303490E+02 -0.30722507311E+01 -0.83162300987E+02  0.91777981683E+02  0.00000000000E+00 0.  1.
<mgrwt>
<rscale>  0 0.89668810E+02</rscale>
<asrwt>0</asrwt>
<pdfrwt beam="1">  1        4 0.26519370E-02 0.89668810E+02</pdfrwt>
<pdfrwt beam="2">  1       -4 0.17940432E-01 0.89668810E+02</pdfrwt>
<totfact> 0.25634218E+04</totfact>
</mgrwt>
</event>
<event>
 5    1  0.6112843E+000  0.9045509E+02  0.7546771E-02  0.1301753E+00
          2   -1    0    0  501    0  0.00000000000E+00  0.00000000000E+00  0.32372202882E+03  0.32372202882E+03  0.00000000000E+00 0. -1.
         -2   -1    0    0    0  501 -0.00000000000E+00 -0.00000000000E+00 -0.63187883411E+01  0.63187883411E+01  0.00000000000E+00 0.  1.
         23    2    1    2    0    0  0.00000000000E+00  0.00000000000E+00  0.31740324048E+03  0.33004081716E+03  0.90455093421E+02 0.  0.
        -13    1    3    3    0    0  0.25390649058E+02  0.31760527274E+02  0.23095218742E+03  0.23450443285E+03  0.00000000000E+00 0.  1.
         13    1    3    3    0    0 -0.25390649058E+02 -0.31760527274E+02  0.86451053065E+02  0.95536384317E+02  0.00000000000E+00 0. -1.
<mgrwt>
<rscale>  0 0.90455093E+02</rscale>
<asrwt>0</asrwt>
<pdfrwt beam="1">  1        2 0.49803376E-01 0.90455093E+02</pdfrwt>
<pdfrwt beam="2">  1       -2 0.97212154E-03 0.90455093E+02</pdfrwt>
<totfact> 0.18876150E+05</totfact>
</mgrwt>
</event>
<event>
 5    1  0.6112843E+000  0.9205433E+02  0.7546771E-02  0.1297952E+00
         -1   -1    0    0    0  501 -0.00000000000E+00  0.00000000000E+00  0.19231683553E+02  0.19231683553E+02  0.00000000000E+00 0.  1.
          1   -1    0    0  501    0  0.00000000000E+00 -0.00000000000E+00 -0.11015676730E+03  0.11015676730E+03  0.00000000000E+00 0. -1.
         23    2    1    2    0    0  0.00000000000E+00  0.00000000000E+00 -0.90925083746E+02  0.12938845085E+03  0.92054333736E+02 0.  0.
        -13    1    3    3    0    0  0.10165941522E+02  0.26595579629E+02 -0.96293317150E+02  0.10041451165E+03  0.00000000000E+00 0. -1.
         13    1    3    3    0    0 -0.10165941522E+02 -0.26595579629E+02  0.53682334038E+01  0.28973939199E+02  0.00000000000E+00 0.  1.
<mgrwt>
<rscale>  0 0.92054334E+02</rscale>
<asrwt>0</asrwt>
<pdfrwt beam="2">  1        1 0.16947195E-01 0.92054334E+02</pdfrwt>
<pdfrwt beam="1">  1       -1 0.29587206E-02 0.92054334E+02</pdfrwt>
<totfact> 0.10343262E+05</totfact>
</mgrwt>
</event>
<event>
 5    1  0.6112843E+000  0.9032823E+02  0.7546771E-02  0.1302059E+00
          2   -1    0    0  501    0  0.00000000000E+00  0.00000000000E+00  0.30423337479E+03  0.30423337479E+03  0.00000000000E+00 0. -1.
         -2   -1    0    0    0  501 -0.00000000000E+00 -0.00000000000E+00 -0.67047129280E+01  0.67047129280E+01  0.00000000000E+00 0.  1.
         23    2    1    2    0    0  0.00000000000E+00  0.00000000000E+00  0.29752866186E+03  0.31093808771E+03  0.90328233484E+02 0.  0.
        -13    1    3    3    0    0  0.41099962123E+02  0.10645981799E+02  0.20178642010E+03  0.20620451777E+03  0.00000000000E+00 0. -1.
         13    1    3    3    0    0 -0.41099962123E+02 -0.10645981799E+02  0.95742241763E+02  0.10473356994E+03  0.00000000000E+00 0.  1.
<mgrwt>
<rscale>  0 0.90328233E+02</rscale>
<asrwt>0</asrwt>
<pdfrwt beam="1">  1        2 0.46805124E-01 0.90328233E+02</pdfrwt>
<pdfrwt beam="2">  1       -2 0.10314945E-02 0.90328233E+02</pdfrwt>
<totfact> 0.18515662E+05</totfact>
</mgrwt>
</event>
<event>
 5    1  0.6112843E+000  0.9180259E+02  0.7546771E-02  0.1298544E+00
         -2   -1    0    0    0  501 -0.00000000000E+00  0.00000000000E+00  0.12403734556E+03  0.12403734556E+03  0.00000000000E+00 0.  1.
          2   -1    0    0  501    0  0.00000000000E+00 -0.00000000000E+00 -0.16986247019E+02  0.16986247019E+02  0.00000000000E+00 0. -1.
         23    2    1    2    0    0  0.00000000000E+00  0.00000000000E+00  0.10705109854E+03  0.14102359258E+03  0.91802592364E+02 0.  0.
        -13    1    3    3    0    0  0.31535998766E+02  0.18374903355E+02  0.10766899403E+02  0.38053678064E+02  0.00000000000E+00 0. -1.
         13    1    3    3    0    0 -0.31535998766E+02 -0.18374903355E+02  0.96284199136E+02  0.10296991451E+03  0.00000000000E+00 0.  1.
<mgrwt>
<rscale>  0 0.91802592E+02</rscale>
<asrwt>0</asrwt>
<pdfrwt beam="2">  1        2 0.26132689E-02 0.91802592E+02</pdfrwt>
<pdfrwt beam="1">  1       -2 0.19082668E-01 0.91802592E+02</pdfrwt>
<totfact> 0.73333802E+04</totfact>
</mgrwt>
</event>
<event>
 5    1  0.6112843E+000  0.9212132E+02  0.7546771E-02  0.1297794E+00
         -2   -1    0    0    0  501 -0.00000000000E+00  0.00000000000E+00  0.46537387111E+02  0.46537387111E+02  0.00000000000E+00 0.  1.
          2   -1    0    0  501    0  0.00000000000E+00 -0.00000000000E+00 -0.45588818194E+02  0.45588818194E+02  0.00000000000E+00 0. -1.
         23    2    1    2    0    0  0.00000000000E+00  0.00000000000E+00  0.94856891716E+00  0.92126205305E+02  0.92121321750E+02 0.  0.
        -13    1    3    3    0    0  0.27387689793E+02  0.73416441685E+01 -0.35826388956E+02  0.45689336140E+02  0.00000000000E+00 0. -1.
         13    1    3    3    0    0 -0.27387689793E+02 -0.73416441685E+01  0.36774957873E+02  0.46436869165E+02  0.00000000000E+00 0.  1.
<mgrwt>
<rscale>  0 0.92121322E+02</rscale>
<asrwt>0</asrwt>
<pdfrwt beam="2">  1        2 0.70136643E-02 0.92121322E+02</pdfrwt>
<pdfrwt beam="1">  1       -2 0.71595980E-02 0.92121322E+02</pdfrwt>
<totfact> 0.95793625E+04</totfact>
</mgrwt>
</event>
<event>
 5    1  0.6112843E+000  0.9314369E+02  0.7546771E-02  0.1295413E+00
         -4   -1    0    0    0  501 -0.00000000000E+00  0.00000000000E+00  0.18146759812E+03  0.18146759812E+03  0.00000000000E+00 0.  1.
          4   -1    0    0  501    0  0.00000000000E+00 -0.00000000000E+00 -0.11952197980E+02  0.11952197980E+02  0.00000000000E+00 0. -1.
         23    2    1    2    0    0  0.00000000000E+00  0.00000000000E+00  0.16951540014E+03  0.19341979610E+03  0.93143688133E+02 0.  0.
        -13    1    3    3    0    0 -0.88113008657E+01  0.30369482284E+02  0.13758526388E+02  0.34485381330E+02  0.00000000000E+00 0. -1.
         13    1    3    3    0    0  0.88113008657E+01 -0.30369482284E+02  0.15575687375E+03  0.15893441477E+03  0.00000000000E+00 0.  1.
<mgrwt>
<rscale>  0 0.93143688E+02</rscale>
<asrwt>0</asrwt>
<pdfrwt beam="2">  1        4 0.18387998E-02 0.93143688E+02</pdfrwt>
<pdfrwt beam="1">  1       -4 0.27918090E-01 0.93143688E+02</pdfrwt>
<totfact> 0.20456779E+04</totfact>
</mgrwt>
</event>
<event>
 4    1  0.6112843E+000  0.4349533E+02  0.7546771E-02  0.1483960E+00
          1   -1    0    0  501    0  0.00000000000E+00  0.00000000000E+00  0.22141670431E+02  0.22141670431E+02  0.00000000000E+00 0. -1.
         -1   -1    0    0    0  501 -0.00000000000E+00 -0.00000000000E+00 -0.21360675549E+02  0.21360675549E+02  0.00000000000E+00 0.  1.
        -13    1    1    2    0    0 -0.79656780784E-01  0.12475171972E+02  0.18206981003E+02  0.22071031199E+02  0.00000000000E+00 0. -1.
         13    1    1    2    0    0  0.79656780784E-01 -0.12475171972E+02 -0.17425986121E+02  0.21431314781E+02  0.00000000000E+00 0.  1.
<mgrwt>
<rscale>  0 0.43495335E+02</rscale>
<asrwt>0</asrwt>
<pdfrwt beam="1">  1        1 0.34064109E-02 0.43495335E+02</pdfrwt>
<pdfrwt beam="2">  1       -1 0.32862578E-02 0.43495335E+02</pdfrwt>
<totfact> 0.62002379E+05</totfact>
</mgrwt>
</event>
<event>
 5    1  0.6112843E+000  0.9265509E+02  0.7546771E-02  0.1296546E+00
         -2   -1    0    0    0  501 -0.00000000000E+00  0.00000000000E+00  0.27969108672E+02  0.27969108672E+02  0.00000000000E+00 0.  1.
          2   -1    0    0  501    0  0.00000000000E+00 -0.00000000000E+00 -0.76736143102E+02  0.76736143102E+02  0.00000000000E+00 0. -1.
         23    2    1    2    0    0  0.00000000000E+00  0.00000000000E+00 -0.48767034430E+02  0.10470525177E+03  0.92655092153E+02 0.  0.
        -13    1    3    3    0    0  0.45504980512E+02  0.22085892557E+01 -0.33882721821E+02  0.56776931547E+02  0.00000000000E+00 0. -1.
         13    1    3    3    0    0 -0.45504980512E+02 -0.22085892557E+01 -0.14884312609E+02  0.47928320227E+02  0.00000000000E+00 0.  1.
<mgrwt>
<rscale>  0 0.92655092E+02</rscale>
<asrwt>0</asrwt>
<pdfrwt beam="2">  1        2 0.11805561E-01 0.92655092E+02</pdfrwt>
<pdfrwt beam="1">  1       -2 0.43029398E-02 0.92655092E+02</pdfrwt>
<totfact> 0.10852015E+05</totfact>
</mgrwt>
</event>
<event>
 5    1  0.6112843E+000  0.9521545E+02  0.7546771E-02  0.1290692E+00
          2   -1    0    0  501    0  0.00000000000E+00  0.00000000000E+00  0.11674956935E+03  0.11674956935E+03  0.00000000000E+00 0. -1.
         -2   -1    0    0    0  501 -0.00000000000E+00 -0.00000000000E+00 -0.19413309049E+02  0.19413309049E+02  0.00000000000E+00 0.  1.
         23    2    1    2    0    0  0.00000000000E+00  0.00000000000E+00  0.97336260298E+02  0.13616287840E+03  0.95215449819E+02 0.  0.
        -13    1    3    3    0    0  0.38794247961E+02 -0.27266922410E+02  0.54738139877E+02  0.72420595757E+02  0.00000000000E+00 0.  1.
         13    1    3    3    0    0 -0.38794247961E+02  0.27266922410E+02  0.42598120421E+02  0.63742282639E+02  0.00000000000E+00 0. -1.
<mgrwt>
<rscale>  0 0.95215450E+02</rscale>
<asrwt>0</asrwt>
<pdfrwt beam="1">  1        2 0.17961472E-01 0.95215450E+02</pdfrwt>
<pdfrwt beam="2">  1       -2 0.29866630E-02 0.95215450E+02</pdfrwt>
<totfact> 0.11428095E+05</totfact>
</mgrwt>
</event>
<event>
 5    1  0.6112843E+000  0.9393020E+02  0.7546771E-02  0.1293604E+00
         -1   -1    0    0    0  501 -0.00000000000E+00  0.00000000000E+00  0.12009987155E+02  0.12009987155E+02  0.00000000000E+00 0.  1.
          1   -1    0    0  501    0  0.00000000000E+00 -0.00000000000E+00 -0.18365721092E+03  0.18365721092E+03  0.00000000000E+00 0. -1.
         23    2    1    2    0    0  0.00000000000E+00  0.00000000000E+00 -0.17164722377E+03  0.19566719808E+03  0.93930202687E+02 0.  0.
        -13    1    3    3    0    0  0.13757146821E+02 -0.40571104425E+02 -0.12591728917E+03  0.13300540333E+03  0.00000000000E+00 0. -1.
         13    1    3    3    0    0 -0.13757146821E+02  0.40571104425E+02 -0.45729934601E+02  0.62661794753E+02  0.00000000000E+00 0.  1.
<mgrwt>
<rscale>  0 0.93930203E+02</rscale>
<asrwt>0</asrwt>
<pdfrwt beam="2">  1        1 0.28254955E-01 0.93930203E+02</pdfrwt>
<pdfrwt beam="1">  1       -1 0.18476904E-02 0.93930203E+02</pdfrwt>
<totfact> 0.10750756E+05</totfact>
</mgrwt>
</event>
<event>
 5    1  0.6112843E+000  0.9133695E+02  0.7546771E-02  0.1299646E+00
          3   -1    0    0  501    0  0.00000000000E+00  0.00000000000E+00  0.16653220513E+02  0.16653220513E+02  0.00000000000E+00 0. -1.
         -3   -1    0    0    0  501 -0.00000000000E+00 -0.00000000000E+00 -0.12523760448E+03  0.12523760448E+03  0.00000000000E+00 0.  1.
         23    2    1    2    0    0  0.00000000000E+00  0.00000000000E+00 -0.10858438397E+03  0.14189082500E+03  0.91336946390E+02 0.  0.
        -13    1    3    3    0    0 -0.59829566644E+01 -0.20933322833E+02 -0.11665673695E+03  0.11867094864E+03  0.00000000000E+00 0.  1.
         13    1    3    3    0    0  0.59829566644E+01  0.20933322833E+02  0.80723529811E+01  0.23219876354E+02  0.00000000000E+00 0. -1.
<mgrwt>
<rscale>  0 0.91336946E+02</rscale>
<asrwt>0</asrwt>
<pdfrwt beam="1">  1        3 0.25620339E-02 0.91336946E+02</pdfrwt>
<pdfrwt beam="2">  1       -3 0.19267324E-01 0.91336946E+02</pdfrwt>
<totfact> 0.31660775E+04</totfact>
</mgrwt>
</event>
<event>
 5    1  0.6112843E+000  0.9078035E+02  0.7546771E-02  0.1300973E+00
          2   -1    0    0  501    0  0.00000000000E+00  0.00000000000E+00  0.16012829798E+03  0.16012829798E+03  0.00000000000E+00 0. -1.
         -2   -1    0    0    0  501 -0.00000000000E+00 -0.00000000000E+00 -0.12866357476E+02  0.12866357476E+02  0.00000000000E+00 0.  1.
         23    2    1    2    0    0  0.00000000000E+00  0.00000000000E+00  0.14726194050E+03  0.17299465545E+03  0.90780348618E+02 0.  0.
        -13    1    3    3    0    0 -0.42401899047E+02  0.18912697574E+01  0.10428572075E+03  0.11259222663E+03  0.00000000000E+00 0. -1.
         13    1    3    3    0    0  0.42401899047E+02 -0.18912697574E+01  0.42976219746E+02  0.60402428823E+02  0.00000000000E+00 0.  1.
<mgrwt>
<rscale>  0 0.90780349E+02</rscale>
<asrwt>0</asrwt>
<pdfrwt beam="1">  1        2 0.24635121E-01 0.90780349E+02</pdfrwt>
<pdfrwt beam="2">  1       -2 0.19794397E-02 0.90780349E+02</pdfrwt>
<totfact> 0.14467275E+05</totfact>
</mgrwt>
</event>
<event>
 5    1  0.6112843E+000  0.8862165E+02  0.7546771E-02  0.1306224E+00
         -2   -1    0    0    0  501 -0.00000000000E+00  0.00000000000E+00  0.82621921512E+02  0.82621921512E+02  0.00000000000E+00 0. -1.
          2   -1    0    0  501    0  0.00000000000E+00 -0.00000000000E+00 -0.23764262410E+02  0.23764262410E+02  0.00000000000E+00 0.  1.
         23    2    1    2    0    0  0.00000000000E+00  0.00000000000E+00  0.58857659102E+02  0.10638618392E+03  0.88621645744E+02 0.  0.
        -13    1    3    3    0    0 -0.13723670300E+02  0.34936427425E+02  0.57698327734E+02  0.68833059724E+02  0.00000000000E+00 0. -1.
         13    1    3    3    0    0  0.13723670300E+02 -0.34936427425E+02  0.11593313681E+01  0.37553124197E+02  0.00000000000E+00 0.  1.
<mgrwt>
<rscale>  0 0.88621646E+02</rscale>
<asrwt>0</asrwt>
<pdfrwt beam="2">  1        2 0.36560404E-02 0.88621646E+02</pdfrwt>
<pdfrwt beam="1">  1       -2 0.12711065E-01 0.88621646E+02</pdfrwt>
<totfact> 0.90430044E+04</totfact>
</mgrwt>
</event>
<event>
 5    1  0.6112843E+000  0.9008964E+02  0.7546771E-02  0.1302635E+00
         -1   -1    0    0    0  501 -0.00000000000E+00  0.00000000000E+00  0.32854029300E+03  0.32854029300E+03  0.00000000000E+00 0.  1.
          1   -1    0    0  501    0  0.00000000000E+00 -0.00000000000E+00 -0.61759112927E+01  0.61759112927E+01  0.00000000000E+00 0. -1.
         23    2    1    2    0    0  0.00000000000E+00  0.00000000000E+00  0.32236438171E+03  0.33471620429E+03  0.90089637709E+02 0.  0.
        -13    1    3    3    0    0  0.37038458552E+02  0.25582700914E+02  0.16730264193E+03  0.17325269405E+03  0.00000000000E+00 0.  1.
         13    1    3    3    0    0 -0.37038458552E+02 -0.25582700914E+02  0.15506173978E+03  0.16146351024E+03  0.00000000000E+00 0. -1.
<mgrwt>
<rscale>  0 0.90089638E+02</rscale>
<asrwt>0</asrwt>
<pdfrwt beam="2">  1        1 0.95014046E-03 0.90089638E+02</pdfrwt>
<pdfrwt beam="1">  1       -1 0.50544647E-01 0.90089638E+02</pdfrwt>
<totfact> 0.60236251E+04</totfact>
</mgrwt>
</event>
<event>
 5    1  0.6112843E+000  0.8814828E+02  0.7546771E-02  0.1307399E+00
          2   -1    0    0  501    0  0.00000000000E+00  0.00000000000E+00  0.25462441130E+03  0.25462441130E+03  0.00000000000E+00 0. -1.
         -2   -1    0    0    0  501 -0.00000000000E+00 -0.00000000000E+00 -0.76290015707E+01  0.76290015707E+01  0.00000000000E+00 0.  1.
         23    2    1    2    0    0  0.00000000000E+00  0.00000000000E+00  0.24699540973E+03  0.26225341287E+03  0.88148284924E+02 0.  0.
        -13    1    3    3    0    0  0.27562843583E+02 -0.22090137384E+02  0.45073267428E+02  0.57265032547E+02  0.00000000000E+00 0.  1.
         13    1    3    3    0    0 -0.27562843583E+02  0.22090137384E+02  0.20192214230E+03  0.20498838033E+03  0.00000000000E+00 0. -1.
<mgrwt>
<rscale>  0 0.88148285E+02</rscale>
<asrwt>0</asrwt>
<pdfrwt beam="1">  1        2 0.39172980E-01 0.88148285E+02</pdfrwt>
<pdfrwt beam="2">  1       -2 0.11736927E-02 0.88148285E+02</pdfrwt>
<totfact> 0.18495673E+05</totfact>
</mgrwt>
</event>
<event>
 5    1  0.6112843E+000  0.8981687E+02  0.7546771E-02  0.1303296E+00
         -2   -1    0    0    0  501 -0.00000000000E+00  0.00000000000E+00  0.29911430002E+03  0.29911430002E+03  0.00000000000E+00 0.  1.
          2   -1    0    0  501    0  0.00000000000E+00 -0.00000000000E+00 -0.67424647023E+01  0.67424647023E+01  0.00000000000E+00 0. -1.
         23    2    1    2    0    0  0.00000000000E+00  0.00000000000E+00  0.29237183532E+03  0.30585676472E+03  0.89816871685E+02 0.  0.
        -13    1    3    3    0    0  0.21826002523E+02 -0.37883095894E+02  0.18112412805E+03  0.18632620079E+03  0.00000000000E+00 0.  1.
         13    1    3    3    0    0 -0.21826002523E+02  0.37883095894E+02  0.11124770727E+03  0.11953056393E+03  0.00000000000E+00 0. -1.
<mgrwt>
<rscale>  0 0.89816872E+02</rscale>
<asrwt>0</asrwt>
<pdfrwt beam="2">  1        2 0.10373025E-02 0.89816872E+02</pdfrwt>
<pdfrwt beam="1">  1       -2 0.46017574E-01 0.89816872E+02</pdfrwt>
<totfact> 0.53099790E+04</totfact>
</mgrwt>
</event>
<event>
 5    1  0.6112843E+000  0.8983274E+02  0.7546771E-02  0.1303257E+00
         -2   -1    0    0    0  501 -0.00000000000E+00  0.00000000000E+00  0.31656180332E+02  0.31656180332E+02  0.00000000000E+00 0.  1.
          2   -1    0    0  501    0  0.00000000000E+00 -0.00000000000E+00 -0.63731007865E+02  0.63731007865E+02  0.00000000000E+00 0. -1.
         23    2    1    2    0    0  0.00000000000E+00  0.00000000000E+00 -0.32074827533E+02  0.95387188198E+02  0.89832739639E+02 0.  0.
        -13    1    3    3    0    0 -0.25343656538E+02 -0.18813996174E+02 -0.49969733316E+02  0.59103651549E+02  0.00000000000E+00 0. -1.
         13    1    3    3    0    0  0.25343656538E+02  0.18813996174E+02  0.17894905783E+02  0.36283536649E+02  0.00000000000E+00 0.  1.
<mgrwt>
<rscale>  0 0.89832740E+02</rscale>
<asrwt>0</asrwt>
<pdfrwt beam="2">  1        2 0.98047704E-02 0.89832740E+02</pdfrwt>
<pdfrwt beam="1">  1       -2 0.48701816E-02 0.89832740E+02</pdfrwt>
<totfact> 0.11239713E+05</totfact>
</mgrwt>
</event>
<event>
 5    1  0.6112843E+000  0.9020136E+02  0.7546771E-02  0.1302365E+00
          2   -1    0    0  501    0  0.00000000000E+00  0.00000000000E+00  0.38340586785E+02  0.38340586785E+02  0.00000000000E+00 0. -1.
         -2   -1    0    0    0  501 -0.00000000000E+00 -0.00000000000E+00 -0.53052688591E+02  0.53052688591E+02  0.00000000000E+00 0.  1.
         23    2    1    2    0    0  0.00000000000E+00  0.00000000000E+00 -0.14712101805E+02  0.91393275376E+02  0.90201357221E+02 0.  0.
        -13    1    3    3    0    0 -0.29615819357E+02 -0.32698742176E+02 -0.16848233668E+02  0.47224649006E+02  0.00000000000E+00 0. -1.
         13    1    3    3    0    0  0.29615819357E+02  0.32698742176E+02  0.21361318633E+01  0.44168626370E+02  0.00000000000E+00 0.  1.
<mgrwt>
<rscale>  0 0.90201357E+02</rscale>
<asrwt>0</asrwt>
<pdfrwt beam="1">  1        2 0.58985518E-02 0.90201357E+02</pdfrwt>
<pdfrwt beam="2">  1       -2 0.81619521E-02 0.90201357E+02</pdfrwt>
<totfact> 0.97337460E+04</totfact>
</mgrwt>
</event>
<event>
 5    1  0.6112843E+000  0.8990646E+02  0.7546771E-02  0.1303078E+00
         -1   -1    0    0    0  501 -0.00000000000E+00  0.00000000000E+00  0.13228699878E+02  0.13228699878E+02  0.00000000000E+00 0.  1.
          1   -1    0    0  501    0  0.00000000000E+00 -0.00000000000E+00 -0.15275822463E+03  0.15275822463E+03  0.00000000000E+00 0. -1.
         23    2    1    2    0    0  0.00000000000E+00  0.00000000000E+00 -0.13952952476E+03  0.16598692451E+03  0.89906455999E+02 0.  0.
        -13    1    3    3    0    0  0.42409071516E+02  0.10805889127E+02 -0.50802015630E+02  0.67053272692E+02  0.00000000000E+00 0.  1.
         13    1    3    3    0    0 -0.42409071516E+02 -0.10805889127E+02 -0.88727509126E+02  0.98933651820E+02  0.00000000000E+00 0. -1.
<mgrwt>
<rscale>  0 0.89906456E+02</rscale>
<asrwt>0</asrwt>
<pdfrwt beam="2">  1        1 0.23501266E-01 0.89906456E+02</pdfrwt>
<pdfrwt beam="1">  1       -1 0.20351845E-02 0.89906456E+02</pdfrwt>
<totfact> 0.11684182E+05</totfact>
</mgrwt>
</event>
<event>
 5    1  0.6112843E+000  0.9266132E+02  0.7546771E-02  0.1296532E+00
         -4   -1    0    0    0  501 -0.00000000000E+00  0.00000000000E+00  0.41221622310E+02  0.41221622310E+02  0.00000000000E+00 0.  1.
          4   -1    0    0  501    0  0.00000000000E+00 -0.00000000000E+00 -0.52072920389E+02  0.52072920389E+02  0.00000000000E+00 0. -1.
         23    2    1    2    0    0  0.00000000000E+00  0.00000000000E+00 -0.10851298079E+02  0.93294542699E+02  0.92661324335E+02 0.  0.
        -13    1    3    3    0    0 -0.32404388164E+02 -0.31084623592E+02  0.60642627271E+01  0.45310853871E+02  0.00000000000E+00 0.  1.
         13    1    3    3    0    0  0.32404388164E+02  0.31084623592E+02 -0.16915560806E+02  0.47983688828E+02  0.00000000000E+00 0. -1.
<mgrwt>
<rscale>  0 0.92661324E+02</rscale>
<asrwt>0</asrwt>
<pdfrwt beam="2">  1        4 0.80112185E-02 0.92661324E+02</pdfrwt>
<pdfrwt beam="1">  1       -4 0.63417881E-02 0.92661324E+02</pdfrwt>
<totfact> 0.25724557E+04</totfact>
</mgrwt>
</event>
<event>
 5    1  0.6112843E+000  0.8874085E+02  0.7546771E-02  0.1305930E+00
          2   -1    0    0  501    0  0.00000000000E+00  0.00000000000E+00  0.35658101950E+02  0.35658101950E+02  0.00000000000E+00 0. -1.
         -2   -1    0    0    0  501 -0.00000000000E+00 -0.00000000000E+00 -0.55211420389E+02  0.55211420389E+02  0.00000000000E+00 0.  1.
         23    2    1    2    0    0  0.00000000000E+00  0.00000000000E+00 -0.19553318439E+02  0.90869522339E+02  0.88740846447E+02 0.  0.
        -13    1    3    3    0    0 -0.49936464453E+01 -0.43919485657E+02 -0.58271016777E+01  0.44584894742E+02  0.00000000000E+00 0. -1.
         13    1    3    3    0    0  0.49936464453E+01  0.43919485657E+02 -0.13726216762E+02  0.46284627597E+02  0.00000000000E+00 0.  1.
<mgrwt>
<rscale>  0 0.88740846E+02</rscale>
<asrwt>0</asrwt>
<pdfrwt beam="1">  1        2 0.54858618E-02 0.88740846E+02</pdfrwt>
<pdfrwt beam="2">  1       -2 0.84940647E-02 0.88740846E+02</pdfrwt>
<totfact> 0.10018229E+05</totfact>
</mgrwt>
</event>
<event>
 5    1  0.6112843E+000  0.9207998E+02  0.7546771E-02  0.1297891E+00
         -1   -1    0    0    0  501 -0.00000000000E+00  0.00000000000E+00  0.59797167995E+02  0.59797167995E+02  0.00000000000E+00 0.  1.
          1   -1    0    0  501    0  0.00000000000E+00 -0.00000000000E+00 -0.35447840827E+02  0.35447840827E+02  0.00000000000E+00 0. -1.
         23    2    1    2    0    0  0.00000000000E+00  0.00000000000E+00  0.24349327168E+02  0.95245008822E+02  0.92079975955E+02 0.  0.
        -13    1    3    3    0    0 -0.95275602546E+01 -0.13556746843E+02  0.56606004491E+02  0.58981349033E+02  0.00000000000E+00 0.  1.
         13    1    3    3    0    0  0.95275602546E+01  0.13556746843E+02 -0.32256677323E+02  0.36263659789E+02  0.00000000000E+00 0. -1.
<mgrwt>
<rscale>  0 0.92079976E+02</rscale>
<asrwt>0</asrwt>
<pdfrwt beam="2">  1        1 0.54535140E-02 0.92079976E+02</pdfrwt>
<pdfrwt beam="1">  1       -1 0.91995643E-02 0.92079976E+02</pdfrwt>
<totfact> 0.86535398E+04</totfact>
</mgrwt>
</event>
<event>
 5    1  0.6112843E+000  0.9028490E+02  0.7546771E-02  0.1302163E+00
         -1   -1    0    0    0  501 -0.00000000000E+00  0.00000000000E+00  0.25275833036E+02  0.25275833036E+02  0.00000000000E+00 0.  1.
          1   -1    0    0  501    0  0.00000000000E+00 -0.00000000000E+00 -0.80624084594E+02  0.80624084594E+02  0.00000000000E+00 0. -1.
         23    2    1    2    0    0  0.00000000000E+00  0.00000000000E+00 -0.55348251559E+02  0.10589991763E+03  0.90284902412E+02 0.  0.
        -13    1    3    3    0    0  0.17169895658E+02  0.37815854540E+02 -0.69225830437E+01  0.42104231705E+02  0.00000000000E+00 0.  1.
         13    1    3    3    0    0 -0.17169895658E+02 -0.37815854540E+02 -0.48425668515E+02  0.63795685925E+02  0.00000000000E+00 0. -1.
<mgrwt>
<rscale>  0 0.90284902E+02</rscale>
<asrwt>0</asrwt>
<pdfrwt beam="2">  1        1 0.12403705E-01 0.90284902E+02</pdfrwt>
<pdfrwt beam="1">  1       -1 0.38885898E-02 0.90284902E+02</pdfrwt>
<totfact> 0.10362220E+05</totfact>
</mgrwt>
</event>
<event>
 5    1  0.6112843E+000  0.8905781E+02  0.7546771E-02  0.1305150E+00
          1   -1    0    0  501    0  0.00000000000E+00  0.00000000000E+00  0.39240665679E+02  0.39240665679E+02  0.00000000000E+00 0. -1.
         -1   -1    0    0    0  501 -0.00000000000E+00 -0.00000000000E+00 -0.50529805552E+02  0.50529805552E+02  0.00000000000E+00 0.  1.
         23    2    1    2    0    0  0.00000000000E+00  0.00000000000E+00 -0.11289139874E+02  0.89770471231E+02  0.89057806092E+02 0.  0.
        -13    1    3    3    0    0  0.32738963469E+02  0.13459003281E+02 -0.32876282807E+02  0.48309776128E+02  0.00000000000E+00 0.  1.
         13    1    3    3    0    0 -0.32738963469E+02 -0.13459003281E+02  0.21587142934E+02  0.41460695103E+02  0.00000000000E+00 0. -1.
<mgrwt>
<rscale>  0 0.89057806E+02</rscale>
<asrwt>0</asrwt>
<pdfrwt beam="1">  1        1 0.60370255E-02 0.89057806E+02</pdfrwt>
<pdfrwt beam="2">  1       -1 0.77738162E-02 0.89057806E+02</pdfrwt>
<totfact> 0.96596233E+04</totfact>
</mgrwt>
</event>
<event>
 5    1  0.6112843E+000  0.9303584E+02  0.7546771E-02  0.1295662E+00
         -2   -1    0    0    0  501 -0.00000000000E+00  0.00000000000E+00  0.53544353790E+01  0.53544353790E+01  0.00000000000E+00 0.  1.
          2   -1    0    0  501    0  0.00000000000E+00 -0.00000000000E+00 -0.40413540594E+03  0.40413540594E+03  0.00000000000E+00 0. -1.
         23    2    1    2    0    0  0.00000000000E+00  0.00000000000E+00 -0.39878097056E+03  0.40948984132E+03  0.93035840738E+02 0.  0.
        -13    1    3    3    0    0  0.28922443842E+02  0.33819607756E+02 -0.13974461542E+03  0.14665889391E+03  0.00000000000E+00 0.  1.
         13    1    3    3    0    0 -0.28922443842E+02 -0.33819607756E+02 -0.25903635514E+03  0.26283094740E+03  0.00000000000E+00 0. -1.
<mgrwt>
<rscale>  0 0.93035841E+02</rscale>
<asrwt>0</asrwt>
<pdfrwt beam="2">  1        2 0.62174674E-01 0.93035841E+02</pdfrwt>
<pdfrwt beam="1">  1       -2 0.82375934E-03 0.93035841E+02</pdfrwt>
<totfact> 0.18989097E+05</totfact>
</mgrwt>
</event>
<event>
 5    1  0.6112843E+000  0.9080706E+02  0.7546771E-02  0.1300909E+00
         -1   -1    0    0    0  501 -0.00000000000E+00  0.00000000000E+00  0.10933098642E+02  0.10933098642E+02  0.00000000000E+00 0.  1.
          1   -1    0    0  501    0  0.00000000000E+00 -0.00000000000E+00 -0.18855408783E+03  0.18855408783E+03  0.00000000000E+00 0. -1.
         23    2    1    2    0    0  0.00000000000E+00  0.00000000000E+00 -0.17762098918E+03  0.19948718647E+03  0.90807057910E+02 0.  0.
        -13    1    3    3    0    0 -0.18993874127E+02 -0.41135577782E+02 -0.95244389074E+02  0.10547225542E+03  0.00000000000E+00 0.  1.
         13    1    3    3    0    0  0.18993874127E+02  0.41135577782E+02 -0.82376600111E+02  0.94014931046E+02  0.00000000000E+00 0. -1.
<mgrwt>
<rscale>  0 0.90807058E+02</rscale>
<asrwt>0</asrwt>
<pdfrwt beam="2">  1        1 0.29008322E-01 0.90807058E+02</pdfrwt>
<pdfrwt beam="1">  1       -1 0.16820151E-02 0.90807058E+02</pdfrwt>
<totfact> 0.11834855E+05</totfact>
</mgrwt>
</event>
<event>
 5    1  0.6112843E+000  0.9022709E+02  0.7546771E-02  0.1302303E+00
         -2   -1    0    0    0  501 -0.00000000000E+00  0.00000000000E+00  0.13381574901E+03  0.13381574901E+03  0.00000000000E+00 0.  1.
          2   -1    0    0  501    0  0.00000000000E+00 -0.00000000000E+00 -0.15209209920E+02  0.15209209920E+02  0.00000000000E+00 0. -1.
         23    2    1    2    0    0  0.00000000000E+00  0.00000000000E+00  0.11860653909E+03  0.14902495893E+03  0.90227087226E+02 0.  0.
        -13    1    3    3    0    0  0.18077458841E+02  0.35289876793E+02  0.94845247718E+02  0.10279976137E+03  0.00000000000E+00 0.  1.
         13    1    3    3    0    0 -0.18077458841E+02 -0.35289876793E+02  0.23761291374E+02  0.46225197565E+02  0.00000000000E+00 0. -1.
<mgrwt>
<rscale>  0 0.90227087E+02</rscale>
<asrwt>0</asrwt>
<pdfrwt beam="2">  1        2 0.23398785E-02 0.90227087E+02</pdfrwt>
<pdfrwt beam="1">  1       -2 0.20587037E-01 0.90227087E+02</pdfrwt>
<totfact> 0.74673311E+04</totfact>
</mgrwt>
</event>
<event>
 5    1  0.6112843E+000  0.9113823E+02  0.7546771E-02  0.1300118E+00
          1   -1    0    0  501    0  0.00000000000E+00  0.00000000000E+00  0.11804500556E+03  0.11804500556E+03  0.00000000000E+00 0. -1.
         -1   -1    0    0    0  501 -0.00000000000E+00 -0.00000000000E+00 -0.17591123273E+02  0.17591123273E+02  0.00000000000E+00 0.  1.
         23    2    1    2    0    0  0.00000000000E+00  0.00000000000E+00  0.10045388229E+03  0.13563612883E+03  0.91138230060E+02 0.  0.
        -13    1    3    3    0    0 -0.16606263326E+02 -0.24213228169E+02 -0.16378714065E+01  0.29406309234E+02  0.00000000000E+00 0.  1.
         13    1    3    3    0    0  0.16606263326E+02  0.24213228169E+02  0.10209175369E+03  0.10622981960E+03  0.00000000000E+00 0. -1.
<mgrwt>
<rscale>  0 0.91138230E+02</rscale>
<asrwt>0</asrwt>
<pdfrwt beam="1">  1        1 0.18160770E-01 0.91138230E+02</pdfrwt>
<pdfrwt beam="2">  1       -1 0.27063267E-02 0.91138230E+02</pdfrwt>
<totfact> 0.10755601E+05</totfact>
</mgrwt>
</event>
<event>
 5    1  0.6112843E+000  0.8940811E+02  0.7546771E-02  0.1304291E+00
          2   -1    0    0  501    0  0.00000000000E+00  0.00000000000E+00  0.14660812668E+03  0.14660812668E+03  0.00000000000E+00 0. -1.
         -2   -1    0    0    0  501 -0.00000000000E+00 -0.00000000000E+00 -0.13631252562E+02  0.13631252562E+02  0.00000000000E+00 0.  1.
         23    2    1    2    0    0  0.00000000000E+00  0.00000000000E+00  0.13297687412E+03  0.16023937924E+03  0.89408107071E+02 0.  0.
        -13    1    3    3    0    0  0.32069327396E+02 -0.11460877002E+02  0.14586323398E+02  0.37047999832E+02  0.00000000000E+00 0.  1.
         13    1    3    3    0    0 -0.32069327396E+02  0.11460877002E+02  0.11839055072E+03  0.12319137941E+03  0.00000000000E+00 0. -1.
<mgrwt>
<rscale>  0 0.89408107E+02</rscale>
<asrwt>0</asrwt>
<pdfrwt beam="1">  1        2 0.22555095E-01 0.89408107E+02</pdfrwt>
<pdfrwt beam="2">  1       -2 0.20971159E-02 0.89408107E+02</pdfrwt>
<totfact> 0.14629491E+05</totfact>
</mgrwt>
</event>
<event>
 5    1  0.6112843E+000  0.9144860E+02  0.7546771E-02  0.1299381E+00
          3   -1    0    0  501    0  0.00000000000E+00  0.00000000000E+00  0.61061527699E+02  0.61061527699E+02  0.00000000000E+00 0. -1.
         -3   -1    0    0    0  501 -0.00000000000E+00 -0.00000000000E+00 -0.34239424653E+02  0.34239424653E+02  0.00000000000E+00 0.  1.
         23    2    1    2    0    0  0.00000000000E+00  0.00000000000E+00  0.26822103046E+02  0.95300952351E+02  0.91448599263E+02 0.  0.
        -13    1    3    3    0    0 -0.27187551652E+02 -0.35838595579E+02  0.48717421219E+01  0.45247118905E+02  0.00000000000E+00 0. -1.
         13    1    3    3    0    0  0.27187551652E+02  0.35838595579E+02  0.21950360924E+02  0.50053833446E+02  0.00000000000E+00 0.  1.
<mgrwt>
<rscale>  0 0.91448599E+02</rscale>
<asrwt>0</asrwt>
<pdfrwt beam="1">  1        3 0.93940812E-02 0.91448599E+02</pdfrwt>
<pdfrwt beam="2">  1       -3 0.52676038E-02 0.91448599E+02</pdfrwt>
<totfact> 0.34740317E+04</totfact>
</mgrwt>
</event>
<event>
 5    1  0.6112843E+000  0.9253788E+02  0.7546771E-02  0.1296820E+00
          1   -1    0    0  501    0  0.00000000000E+00  0.00000000000E+00  0.11419388477E+03  0.11419388477E+03  0.00000000000E+00 0. -1.
         -1   -1    0    0    0  501 -0.00000000000E+00 -0.00000000000E+00 -0.18747194914E+02  0.18747194914E+02  0.00000000000E+00 0.  1.
         23    2    1    2    0    0  0.00000000000E+00  0.00000000000E+00  0.95446689859E+02  0.13294107969E+03  0.92537884476E+02 0.  0.
        -13    1    3    3    0    0 -0.28999529453E+02 -0.35907242526E+02  0.43065475621E+02  0.63126365053E+02  0.00000000000E+00 0.  1.
         13    1    3    3    0    0  0.28999529453E+02  0.35907242526E+02  0.52381214238E+02  0.69814714634E+02  0.00000000000E+00 0. -1.
<mgrwt>
<rscale>  0 0.92537884E+02</rscale>
<asrwt>0</asrwt>
<pdfrwt beam="1">  1        1 0.17568289E-01 0.92537884E+02</pdfrwt>
<pdfrwt beam="2">  1       -1 0.28841839E-02 0.92537884E+02</pdfrwt>
<totfact> 0.10259974E+05</totfact>
</mgrwt>
</event>
<event>
 5    1  0.6112843E+000  0.9040468E+02  0.7546771E-02  0.1301875E+00
         -1   -1    0    0    0  501 -0.00000000000E+00  0.00000000000E+00  0.49292671700E+01  0.49292671700E+01  0.00000000000E+00 0.  1.
          1   -1    0    0  501    0  0.00000000000E+00 -0.00000000000E+00 -0.41451422192E+03  0.41451422192E+03  0.00000000000E+00 0. -1.
         23    2    1    2    0    0  0.00000000000E+00  0.00000000000E+00 -0.40958495475E+03  0.41944348909E+03  0.90404675667E+02 0.  0.
        -13    1    3    3    0    0  0.36483393034E+02  0.26534589178E+02 -0.21802065260E+03  0.22263900680E+03  0.00000000000E+00 0.  1.
         13    1    3    3    0    0 -0.36483393034E+02 -0.26534589178E+02 -0.19156430215E+03  0.19680448229E+03  0.00000000000E+00 0. -1.
<mgrwt>
<rscale>  0 0.90404676E+02</rscale>
<asrwt>0</asrwt>
<pdfrwt beam="2">  1        1 0.63771428E-01 0.90404676E+02</pdfrwt>
<pdfrwt beam="1">  1       -1 0.75834868E-03 0.90404676E+02</pdfrwt>
<totfact> 0.13876292E+05</totfact>
</mgrwt>
</event>
<event>
 5    1  0.6112843E+000  0.9122049E+02  0.7546771E-02  0.1299923E+00
          1   -1    0    0  501    0  0.00000000000E+00  0.00000000000E+00  0.31190001128E+02  0.31190001128E+02  0.00000000000E+00 0. -1.
         -1   -1    0    0    0  501 -0.00000000000E+00 -0.00000000000E+00 -0.66697479201E+02  0.66697479201E+02  0.00000000000E+00 0.  1.
         23    2    1    2    0    0  0.00000000000E+00  0.00000000000E+00 -0.35507478073E+02  0.97887480329E+02  0.91220490056E+02 0.  0.
        -13    1    3    3    0    0 -0.40536752370E+02 -0.19177594431E+02 -0.26685921572E+02  0.52183779386E+02  0.00000000000E+00 0. -1.
         13    1    3    3    0    0  0.40536752370E+02  0.19177594431E+02 -0.88215565010E+01  0.45703700944E+02  0.00000000000E+00 0.  1.
<mgrwt>
<rscale>  0 0.91220490E+02</rscale>
<asrwt>0</asrwt>
<pdfrwt beam="1">  1        1 0.47984617E-02 0.91220490E+02</pdfrwt>
<pdfrwt beam="2">  1       -1 0.10261151E-01 0.91220490E+02</pdfrwt>
<totfact> 0.87107570E+04</totfact>
</mgrwt>
</event>
<event>
 5    1  0.6112843E+000  0.9215183E+02  0.7546771E-02  0.1297723E+00
          3   -1    0    0  501    0  0.00000000000E+00  0.00000000000E+00  0.19526721654E+03  0.19526721654E+03  0.00000000000E+00 0. -1.
         -3   -1    0    0    0  501 -0.00000000000E+00 -0.00000000000E+00 -0.10872228082E+02  0.10872228082E+02  0.00000000000E+00 0.  1.
         23    2    1    2    0    0  0.00000000000E+00  0.00000000000E+00  0.18439498845E+03  0.20613944462E+03  0.92151825053E+02 0.  0.
        -13    1    3    3    0    0 -0.45710808941E+02 -0.51211676605E+01  0.98235325445E+02  0.10847065768E+03  0.00000000000E+00 0. -1.
         13    1    3    3    0    0  0.45710808941E+02  0.51211676605E+01  0.86159663009E+02  0.97668786938E+02  0.00000000000E+00 0.  1.
<mgrwt>
<rscale>  0 0.92151825E+02</rscale>
<asrwt>0</asrwt>
<pdfrwt beam="1">  1        3 0.30041108E-01 0.92151825E+02</pdfrwt>
<pdfrwt beam="2">  1       -3 0.16726506E-02 0.92151825E+02</pdfrwt>
<totfact> 0.27385595E+04</totfact>
</mgrwt>
</event>
<event>
 5    1  0.6112843E+000  0.8898940E+02  0.7546771E-02  0.1305318E+00
          2   -1    0    0  501    0  0.00000000000E+00  0.00000000000E+00  0.10199980559E+02  0.10199980559E+02  0.00000000000E+00 0. -1.
         -2   -1    0    0    0  501 -0.00000000000E+00 -0.00000000000E+00 -0.19409628643E+03  0.19409628643E+03  0.00000000000E+00 0.  1.
         23    2    1    2    0    0  0.00000000000E+00  0.00000000000E+00 -0.18389630587E+03  0.20429626699E+03  0.88989400451E+02 0.  0.
        -13    1    3    3    0    0 -0.21494220952E+02  0.29484889037E+02 -0.15040692998E+03  0.15476952155E+03  0.00000000000E+00 0.  1.
         13    1    3    3    0    0  0.21494220952E+02 -0.29484889037E+02 -0.33489375889E+02  0.49526745434E+02  0.00000000000E+00 0. -1.
<mgrwt>
<rscale>  0 0.88989400E+02</rscale>
<asrwt>0</asrwt>
<pdfrwt beam="1">  1        2 0.15692278E-02 0.88989400E+02</pdfrwt>
<pdfrwt beam="2">  1       -2 0.29860966E-01 0.88989400E+02</pdfrwt>
<totfact> 0.67155984E+04</totfact>
</mgrwt>
</event>
<event>
 5    1  0.6112843E+000  0.9049400E+02  0.7546771E-02  0.1301660E+00
         -2   -1    0    0    0  501 -0.00000000000E+00  0.00000000000E+00  0.13785471150E+02  0.13785471150E+02  0.00000000000E+00 0.  1.
          2   -1    0    0  501    0  0.00000000000E+00 -0.00000000000E+00 -0.14851077388E+03  0.14851077388E+03  0.00000000000E+00 0. -1.
         23    2    1    2    0    0  0.00000000000E+00  0.00000000000E+00 -0.13472530273E+03  0.16229624503E+03  0.90493999554E+02 0.  0.
        -13    1    3    3    0    0 -0.21612039188E+02  0.34898540074E+02 -0.10149958007E+03  0.10948585795E+03  0.00000000000E+00 0. -1.
         13    1    3    3    0    0  0.21612039188E+02 -0.34898540074E+02 -0.33225722662E+02  0.52810387080E+02  0.00000000000E+00 0.  1.
<mgrwt>
<rscale>  0 0.90494000E+02</rscale>
<asrwt>0</asrwt>
<pdfrwt beam="2">  1        2 0.22847812E-01 0.90494000E+02</pdfrwt>
<pdfrwt beam="1">  1       -2 0.21208417E-02 0.90494000E+02</pdfrwt>
<totfact> 0.14220667E+05</totfact>
</mgrwt>
</event>
<event>
 5    1  0.6112843E+000  0.9073799E+02  0.7546771E-02  0.1301074E+00
         -1   -1    0    0    0  501 -0.00000000000E+00  0.00000000000E+00  0.54801464851E+01  0.54801464851E+01  0.00000000000E+00 0.  1.
          1   -1    0    0  501    0  0.00000000000E+00 -0.00000000000E+00 -0.37560052302E+03  0.37560052302E+03  0.00000000000E+00 0. -1.
         23    2    1    2    0    0  0.00000000000E+00  0.00000000000E+00 -0.37012037654E+03  0.38108066951E+03  0.90737993939E+02 0.  0.
        -13    1    3    3    0    0  0.38855517962E+02  0.22427285161E+02 -0.15669635805E+03  0.16299227902E+03  0.00000000000E+00 0.  1.
         13    1    3    3    0    0 -0.38855517962E+02 -0.22427285161E+02 -0.21342401849E+03  0.21808839048E+03  0.00000000000E+00 0. -1.
<mgrwt>
<rscale>  0 0.90737994E+02</rscale>
<asrwt>0</asrwt>
<pdfrwt beam="2">  1        1 0.57784707E-01 0.90737994E+02</pdfrwt>
<pdfrwt beam="1">  1       -1 0.84309930E-03 0.90737994E+02</pdfrwt>
<totfact> 0.13519237E+05</totfact>
</mgrwt>
</event>
<event>
 5    1  0.6112843E+000  0.9603694E+02  0.7546771E-02  0.1288858E+00
         -1   -1    0    0    0  501 -0.00000000000E+00  0.00000000000E+00  0.53787263490E+01  0.53787263490E+01  0.00000000000E+00 0.  1.
          1   -1    0    0  501    0  0.00000000000E+00 -0.00000000000E+00 -0.42868390317E+03  0.42868390317E+03  0.00000000000E+00 0. -1.
         23    2    1    2    0    0  0.00000000000E+00  0.00000000000E+00 -0.42330517682E+03  0.43406262952E+03  0.96036938839E+02 0.  0.
        -13    1    3    3    0    0 -0.35735944894E+02  0.30939910971E+02 -0.17345135495E+03  0.17977682938E+03  0.00000000000E+00 0. -1.
         13    1    3    3    0    0  0.35735944894E+02 -0.30939910971E+02 -0.24985382187E+03  0.25428580014E+03  0.00000000000E+00 0.  1.
<mgrwt>
<rscale>  0 0.96036939E+02</rscale>
<asrwt>0</asrwt>
<pdfrwt beam="2">  1        1 0.65951390E-01 0.96036939E+02</pdfrwt>
<pdfrwt beam="1">  1       -1 0.82749611E-03 0.96036939E+02</pdfrwt>
<totfact> 0.11877276E+05</totfact>
</mgrwt>
</event>
<event>
 5    1  0.6112843E+000  0.9291751E+02  0.7546771E-02  0.1295936E+00
         -1   -1    0    0    0  501 -0.00000000000E+00  0.00000000000E+00  0.62558933666E+01  0.62558933666E+01  0.00000000000E+00 0.  1.
          1   -1    0    0  501    0  0.00000000000E+00 -0.00000000000E+00 -0.34502122231E+03  0.34502122231E+03  0.00000000000E+00 0. -1.
         23    2    1    2    0    0  0.00000000000E+00  0.00000000000E+00 -0.33876532894E+03  0.35127711568E+03  0.92917511288E+02 0.  0.
        -13    1    3    3    0    0 -0.44311076405E+02 -0.18924415355E+01 -0.11708510249E+03  0.12520373018E+03  0.00000000000E+00 0.  1.
         13    1    3    3    0    0  0.44311076405E+02  0.18924415355E+01 -0.22168022646E+03  0.22607338549E+03  0.00000000000E+00 0. -1.
<mgrwt>
<rscale>  0 0.92917511E+02</rscale>
<asrwt>0</asrwt>
<pdfrwt beam="2">  1        1 0.53080215E-01 0.92917511E+02</pdfrwt>
<pdfrwt beam="1">  1       -1 0.96244465E-03 0.92917511E+02</pdfrwt>
<totfact> 0.12503459E+05</totfact>
</mgrwt>
</event>
<event>
 5    1  0.6112843E+000  0.9305681E+02  0.7546771E-02  0.1295614E+00
          1   -1    0    0  501    0  0.00000000000E+00  0.00000000000E+00  0.17497252589E+03  0.17497252589E+03  0.00000000000E+00 0. -1.
         -1   -1    0    0    0  501 -0.00000000000E+00 -0.00000000000E+00 -0.12372756100E+02  0.12372756100E+02  0.00000000000E+00 0.  1.
         23    2    1    2    0    0  0.00000000000E+00  0.00000000000E+00  0.16259976979E+03  0.18734528199E+03  0.93056808177E+02 0.  0.
        -13    1    3    3    0    0 -0.27710166339E+02  0.36764339180E+02  0.67731448422E+02  0.81896392223E+02  0.00000000000E+00 0. -1.
         13    1    3    3    0    0  0.27710166339E+02 -0.36764339180E+02  0.94868321367E+02  0.10544888977E+03  0.00000000000E+00 0.  1.
<mgrwt>
<rscale>  0 0.93056808E+02</rscale>
<asrwt>0</asrwt>
<pdfrwt beam="1">  1        1 0.26918848E-01 0.93056808E+02</pdfrwt>
<pdfrwt beam="2">  1       -1 0.19035011E-02 0.93056808E+02</pdfrwt>
<totfact> 0.10922836E+05</totfact>
</mgrwt>
</event>
<event>
 5    1  0.6112843E+000  0.9536685E+02  0.7546771E-02  0.1290352E+00
         -1   -1    0    0    0  501 -0.00000000000E+00  0.00000000000E+00  0.18294373858E+02  0.18294373858E+02  0.00000000000E+00 0.  1.
          1   -1    0    0  501    0  0.00000000000E+00 -0.00000000000E+00 -0.12428460197E+03  0.12428460197E+03  0.00000000000E+00 0. -1.
         23    2    1    2    0    0  0.00000000000E+00  0.00000000000E+00 -0.10599022811E+03  0.14257897583E+03  0.95366849027E+02 0.  0.
        -13    1    3    3    0    0 -0.23212079746E+02 -0.38812532481E+02 -0.30395708018E+02  0.54489562208E+02  0.00000000000E+00 0.  1.
         13    1    3    3    0    0  0.23212079746E+02  0.38812532481E+02 -0.75594520097E+02  0.88089413623E+02  0.00000000000E+00 0. -1.
<mgrwt>
<rscale>  0 0.95366849E+02</rscale>
<asrwt>0</asrwt>
<pdfrwt beam="2">  1        1 0.19120708E-01 0.95366849E+02</pdfrwt>
<pdfrwt beam="1">  1       -1 0.28145191E-02 0.95366849E+02</pdfrwt>
<totfact> 0.95934266E+04</totfact>
</mgrwt>
</event>
<event>
 5    1  0.6112843E+000  0.8888802E+02  0.7546771E-02  0.1305567E+00
          2   -1    0    0  501    0  0.00000000000E+00  0.00000000000E+00  0.20491171501E+03  0.20491171501E+03  0.00000000000E+00 0. -1.
         -2   -1    0    0    0  501 -0.00000000000E+00 -0.00000000000E+00 -0.96396147060E+01  0.96396147060E+01  0.00000000000E+00 0.  1.
         23    2    1    2    0    0  0.00000000000E+00  0.00000000000E+00  0.19527210030E+03  0.21455132971E+03  0.88888019022E+02 0.  0.
        -13    1    3    3    0    0  0.38397208644E+02  0.22072359690E+02  0.88690504018E+02  0.99133950778E+02  0.00000000000E+00 0.  1.
         13    1    3    3    0    0 -0.38397208644E+02 -0.22072359690E+02  0.10658159628E+03  0.11541737894E+03  0.00000000000E+00 0. -1.
<mgrwt>
<rscale>  0 0.88888019E+02</rscale>
<asrwt>0</asrwt>
<pdfrwt beam="1">  1        2 0.31524876E-01 0.88888019E+02</pdfrwt>
<pdfrwt beam="2">  1       -2 0.14830178E-02 0.88888019E+02</pdfrwt>
<totfact> 0.16706872E+05</totfact>
</mgrwt>
</event>
<event>
 5    1  0.6112843E+000  0.8635586E+02  0.7546771E-02  0.1311924E+00
         -1   -1    0    0    0  501 -0.00000000000E+00  0.00000000000E+00  0.71202661256E+02  0.71202661256E+02  0.00000000000E+00 0.  1.
          1   -1    0    0  501    0  0.00000000000E+00 -0.00000000000E+00 -0.26183480280E+02  0.26183480280E+02  0.00000000000E+00 0. -1.
         23    2    1    2    0    0  0.00000000000E+00  0.00000000000E+00  0.45019180975E+02  0.97386141536E+02  0.86355856244E+02 0.  0.
        -13    1    3    3    0    0 -0.13017477902E+02 -0.20604069268E+02  0.62704147298E+02  0.67274010506E+02  0.00000000000E+00 0.  1.
         13    1    3    3    0    0  0.13017477902E+02  0.20604069268E+02 -0.17684966322E+02  0.30112131030E+02  0.00000000000E+00 0. -1.
<mgrwt>
<rscale>  0 0.86355856E+02</rscale>
<asrwt>0</asrwt>
<pdfrwt beam="2">  1        1 0.40282278E-02 0.86355856E+02</pdfrwt>
<pdfrwt beam="1">  1       -1 0.10954255E-01 0.86355856E+02</pdfrwt>
<totfact> 0.99108426E+04</totfact>
</mgrwt>
</event>
<event>
 5    1  0.6112843E+000  0.9113703E+02  0.7546771E-02  0.1300121E+00
         -2   -1    0    0    0  501 -0.00000000000E+00  0.00000000000E+00  0.74293149761E+01  0.74293149761E+01  0.00000000000E+00 0. -1.
          2   -1    0    0  501    0  0.00000000000E+00 -0.00000000000E+00 -0.27949945077E+03  0.27949945077E+03  0.00000000000E+00 0.  1.
         23    2    1    2    0    0  0.00000000000E+00  0.00000000000E+00 -0.27207013579E+03  0.28692876574E+03  0.91137027720E+02 0.  0.
        -13    1    3    3    0    0  0.42543398989E+02 -0.73466166584E+00 -0.84686618001E+02  0.94775016717E+02  0.00000000000E+00 0. -1.
         13    1    3    3    0    0 -0.42543398989E+02  0.73466166584E+00 -0.18738351779E+03  0.19215374903E+03  0.00000000000E+00 0.  1.
<mgrwt>
<rscale>  0 0.91137028E+02</rscale>
<asrwt>0</asrwt>
<pdfrwt beam="2">  1        2 0.42999918E-01 0.91137028E+02</pdfrwt>
<pdfrwt beam="1">  1       -2 0.11429715E-02 0.91137028E+02</pdfrwt>
<totfact> 0.17518461E+05</totfact>
</mgrwt>
</event>
<event>
 5    1  0.6112843E+000  0.6288671E+02  0.7546771E-02  0.1386102E+00
         -1   -1    0    0    0  501 -0.00000000000E+00  0.00000000000E+00  0.12697213711E+02  0.12697213711E+02  0.00000000000E+00 0.  1.
          1   -1    0    0  501    0  0.00000000000E+00 -0.00000000000E+00 -0.77866259385E+02  0.77866259385E+02  0.00000000000E+00 0. -1.
         23    2    1    2    0    0  0.00000000000E+00  0.00000000000E+00 -0.65169045674E+02  0.90563473096E+02  0.62886708811E+02 0.  0.
        -13    1    3    3    0    0 -0.15021895716E+02  0.12063633000E+02 -0.68370366275E+02  0.71033059745E+02  0.00000000000E+00 0. -1.
         13    1    3    3    0    0  0.15021895716E+02 -0.12063633000E+02  0.32013206008E+01  0.19530413351E+02  0.00000000000E+00 0.  1.
<mgrwt>
<rscale>  0 0.62886709E+02</rscale>
<asrwt>0</asrwt>
<pdfrwt beam="2">  1        1 0.11979424E-01 0.62886709E+02</pdfrwt>
<pdfrwt beam="1">  1       -1 0.19534175E-02 0.62886709E+02</pdfrwt>
<totfact> 0.27124047E+05</totfact>
</mgrwt>
</event>
<event>
 5    1  0.6112843E+000  0.8211126E+02  0.7546771E-02  0.1323165E+00
         -2   -1    0    0    0  501 -0.00000000000E+00  0.00000000000E+00  0.92004596139E+02  0.92004596139E+02  0.00000000000E+00 0.  1.
          2   -1    0    0  501    0  0.00000000000E+00 -0.00000000000E+00 -0.18320439314E+02  0.18320439314E+02  0.00000000000E+00 0. -1.
         23    2    1    2    0    0  0.00000000000E+00  0.00000000000E+00  0.73684156824E+02  0.11032503545E+03  0.82111256724E+02 0.  0.
        -13    1    3    3    0    0 -0.36335356691E+02 -0.86752707938E+01  0.13959501548E+02  0.39879645845E+02  0.00000000000E+00 0. -1.
         13    1    3    3    0    0  0.36335356691E+02  0.86752707938E+01  0.59724655276E+02  0.70445389609E+02  0.00000000000E+00 0.  1.
<mgrwt>
<rscale>  0 0.82111257E+02</rscale>
<asrwt>0</asrwt>
<pdfrwt beam="2">  1        2 0.28185292E-02 0.82111257E+02</pdfrwt>
<pdfrwt beam="1">  1       -2 0.14154553E-01 0.82111257E+02</pdfrwt>
<totfact> 0.10601950E+05</totfact>
</mgrwt>
</event>
<event>
 5    1  0.6112843E+000  0.8913838E+02  0.7546771E-02  0.1304952E+00
          1   -1    0    0  501    0  0.00000000000E+00  0.00000000000E+00  0.11409288056E+03  0.11409288056E+03  0.00000000000E+00 0. -1.
         -1   -1    0    0    0  501 -0.00000000000E+00 -0.00000000000E+00 -0.17410489476E+02  0.17410489476E+02  0.00000000000E+00 0.  1.
         23    2    1    2    0    0  0.00000000000E+00  0.00000000000E+00  0.96682391089E+02  0.13150337004E+03  0.89138384466E+02 0.  0.
        -13    1    3    3    0    0 -0.29152477462E+01 -0.35525938548E+02  0.88705145241E+01  0.36732506137E+02  0.00000000000E+00 0.  1.
         13    1    3    3    0    0  0.29152477462E+01  0.35525938548E+02  0.87811876565E+02  0.94770863903E+02  0.00000000000E+00 0. -1.
<mgrwt>
<rscale>  0 0.89138384E+02</rscale>
<asrwt>0</asrwt>
<pdfrwt beam="1">  1        1 0.17552750E-01 0.89138384E+02</pdfrwt>
<pdfrwt beam="2">  1       -1 0.26785369E-02 0.89138384E+02</pdfrwt>
<totfact> 0.11355242E+05</totfact>
</mgrwt>
</event>
<event>
 5    1  0.6112843E+000  0.9470732E+02  0.7546771E-02  0.1291837E+00
          2   -1    0    0  501    0  0.00000000000E+00  0.00000000000E+00  0.53623151658E+02  0.53623151658E+02  0.00000000000E+00 0. -1.
         -2   -1    0    0    0  501 -0.00000000000E+00 -0.00000000000E+00 -0.41817183283E+02  0.41817183283E+02  0.00000000000E+00 0.  1.
         23    2    1    2    0    0  0.00000000000E+00  0.00000000000E+00  0.11805968375E+02  0.95440334940E+02  0.94707320965E+02 0.  0.
        -13    1    3    3    0    0  0.32591592487E+02 -0.20808871013E+02 -0.21642585904E+02  0.44312780755E+02  0.00000000000E+00 0.  1.
         13    1    3    3    0    0 -0.32591592487E+02  0.20808871013E+02  0.33448554279E+02  0.51127554185E+02  0.00000000000E+00 0. -1.
<mgrwt>
<rscale>  0 0.94707321E+02</rscale>
<asrwt>0</asrwt>
<pdfrwt beam="1">  1        2 0.82497157E-02 0.94707321E+02</pdfrwt>
<pdfrwt beam="2">  1       -2 0.64334128E-02 0.94707321E+02</pdfrwt>
<totfact> 0.92376787E+04</totfact>
</mgrwt>
</event>
<event>
 5    1  0.6112843E+000  0.9075830E+02  0.7546771E-02  0.1301026E+00
          1   -1    0    0  501    0  0.00000000000E+00  0.00000000000E+00  0.75250011995E+01  0.75250011995E+01  0.00000000000E+00 0. -1.
         -1   -1    0    0    0  501 -0.00000000000E+00 -0.00000000000E+00 -0.27365674387E+03  0.27365674387E+03  0.00000000000E+00 0.  1.
         23    2    1    2    0    0  0.00000000000E+00  0.00000000000E+00 -0.26613174267E+03  0.28118174507E+03  0.90758301568E+02 0.  0.
        -13    1    3    3    0    0  0.74214156754E+01  0.35948464131E+02 -0.21572857393E+03  0.21882912762E+03  0.00000000000E+00 0.  1.
         13    1    3    3    0    0 -0.74214156754E+01 -0.35948464131E+02 -0.50403168739E+02  0.62352617451E+02  0.00000000000E+00 0. -1.
<mgrwt>
<rscale>  0 0.90758302E+02</rscale>
<asrwt>0</asrwt>
<pdfrwt beam="1">  1        1 0.11576926E-02 0.90758302E+02</pdfrwt>
<pdfrwt beam="2">  1       -1 0.42101034E-01 0.90758302E+02</pdfrwt>
<totfact> 0.63494194E+04</totfact>
</mgrwt>
</event>
<event>
 5    1  0.6112843E+000  0.9201148E+02  0.7546771E-02  0.1298052E+00
         -1   -1    0    0    0  501 -0.00000000000E+00  0.00000000000E+00  0.19249105526E+02  0.19249105526E+02  0.00000000000E+00 0. -1.
          1   -1    0    0  501    0  0.00000000000E+00 -0.00000000000E+00 -0.10995462865E+03  0.10995462865E+03  0.00000000000E+00 0.  1.
         23    2    1    2    0    0  0.00000000000E+00  0.00000000000E+00 -0.90705523124E+02  0.12920373418E+03  0.92011482979E+02 0.  0.
        -13    1    3    3    0    0 -0.21033332159E+02 -0.19552189095E+02  0.51176964651E+01  0.29169847056E+02  0.00000000000E+00 0. -1.
         13    1    3    3    0    0  0.21033332159E+02  0.19552189095E+02 -0.95823219590E+02  0.10003388712E+03  0.00000000000E+00 0.  1.
<mgrwt>
<rscale>  0 0.92011483E+02</rscale>
<asrwt>0</asrwt>
<pdfrwt beam="2">  1        1 0.16916097E-01 0.92011483E+02</pdfrwt>
<pdfrwt beam="1">  1       -1 0.29614009E-02 0.92011483E+02</pdfrwt>
<totfact> 0.10353140E+05</totfact>
</mgrwt>
</event>
<event>
 5    1  0.6112843E+000  0.9296832E+02  0.7546771E-02  0.1295819E+00
         -1   -1    0    0    0  501 -0.00000000000E+00  0.00000000000E+00  0.59170107660E+01  0.59170107660E+01  0.00000000000E+00 0.  1.
          1   -1    0    0  501    0  0.00000000000E+00 -0.00000000000E+00 -0.36518055801E+03  0.36518055801E+03  0.00000000000E+00 0. -1.
         23    2    1    2    0    0  0.00000000000E+00  0.00000000000E+00 -0.35926354724E+03  0.37109756878E+03  0.92968323493E+02 0.  0.
        -13    1    3    3    0    0 -0.29565607700E+02 -0.35800066687E+02 -0.17069959270E+03  0.17690144398E+03  0.00000000000E+00 0.  1.
         13    1    3    3    0    0  0.29565607700E+02  0.35800066687E+02 -0.18856395454E+03  0.19419612480E+03  0.00000000000E+00 0. -1.
<mgrwt>
<rscale>  0 0.92968323E+02</rscale>
<asrwt>0</asrwt>
<pdfrwt beam="2">  1        1 0.56181644E-01 0.92968323E+02</pdfrwt>
<pdfrwt beam="1">  1       -1 0.91030903E-03 0.92968323E+02</pdfrwt>
<totfact> 0.12611885E+05</totfact>
</mgrwt>
</event>
<event>
 5    1  0.6112843E+000  0.9058252E+02  0.7546771E-02  0.1301447E+00
         -2   -1    0    0    0  501 -0.00000000000E+00  0.00000000000E+00  0.16699211274E+02  0.16699211274E+02  0.00000000000E+00 0.  1.
          2   -1    0    0  501    0  0.00000000000E+00 -0.00000000000E+00 -0.12283802416E+03  0.12283802416E+03  0.00000000000E+00 0. -1.
         23    2    1    2    0    0  0.00000000000E+00  0.00000000000E+00 -0.10613881289E+03  0.13953723544E+03  0.90582517474E+02 0.  0.
        -13    1    3    3    0    0  0.37067386968E+02 -0.17832992987E+02 -0.82268480527E+02  0.91978854655E+02  0.00000000000E+00 0. -1.
         13    1    3    3    0    0 -0.37067386968E+02  0.17832992987E+02 -0.23870332362E+02  0.47558380782E+02  0.00000000000E+00 0.  1.
<mgrwt>
<rscale>  0 0.90582517E+02</rscale>
<asrwt>0</asrwt>
<pdfrwt beam="2">  1        2 0.18898157E-01 0.90582517E+02</pdfrwt>
<pdfrwt beam="1">  1       -2 0.25691095E-02 0.90582517E+02</pdfrwt>
<totfact> 0.13320020E+05</totfact>
</mgrwt>
</event>
<event>
 5    1  0.6112843E+000  0.8768426E+02  0.7546771E-02  0.1308559E+00
          1   -1    0    0  501    0  0.00000000000E+00  0.00000000000E+00  0.92237188610E+01  0.92237188610E+01  0.00000000000E+00 0. -1.
         -1   -1    0    0    0  501 -0.00000000000E+00 -0.00000000000E+00 -0.20839015891E+03  0.20839015891E+03  0.00000000000E+00 0.  1.
         23    2    1    2    0    0  0.00000000000E+00  0.00000000000E+00 -0.19916644005E+03  0.21761387778E+03  0.87684257178E+02 0.  0.
        -13    1    3    3    0    0 -0.36123621677E+02  0.24079078283E+02 -0.11476361623E+03  0.12270047133E+03  0.00000000000E+00 0.  1.
         13    1    3    3    0    0  0.36123621677E+02 -0.24079078283E+02 -0.84402823827E+02  0.94913406450E+02  0.00000000000E+00 0. -1.
<mgrwt>
<rscale>  0 0.87684257E+02</rscale>
<asrwt>0</asrwt>
<pdfrwt beam="1">  1        1 0.14190337E-02 0.87684257E+02</pdfrwt>
<pdfrwt beam="2">  1       -1 0.32060024E-01 0.87684257E+02</pdfrwt>
<totfact> 0.75938952E+04</totfact>
</mgrwt>
</event>
<event>
 5    1  0.6112843E+000  0.7716006E+02  0.7546771E-02  0.1337310E+00
          1   -1    0    0  501    0  0.00000000000E+00  0.00000000000E+00  0.13714179175E+03  0.13714179175E+03  0.00000000000E+00 0. -1.
         -1   -1    0    0    0  501 -0.00000000000E+00 -0.00000000000E+00 -0.10853136278E+02  0.10853136278E+02  0.00000000000E+00 0.  1.
         23    2    1    2    0    0  0.00000000000E+00  0.00000000000E+00  0.12628865547E+03  0.14799492803E+03  0.77160055865E+02 0.  0.
        -13    1    3    3    0    0 -0.56101128606E+01  0.33166781101E+02  0.26908887066E+02  0.43076640283E+02  0.00000000000E+00 0.  1.
         13    1    3    3    0    0  0.56101128606E+01 -0.33166781101E+02  0.99379768406E+02  0.10491828774E+03  0.00000000000E+00 0. -1.
<mgrwt>
<rscale>  0 0.77160056E+02</rscale>
<asrwt>0</asrwt>
<pdfrwt beam="1">  1        1 0.21098736E-01 0.77160056E+02</pdfrwt>
<pdfrwt beam="2">  1       -1 0.16697134E-02 0.77160056E+02</pdfrwt>
<totfact> 0.17242546E+05</totfact>
</mgrwt>
</event>
<event>
 5    1  0.6112843E+000  0.9035414E+02  0.7546771E-02  0.1301996E+00
          2   -1    0    0  501    0  0.00000000000E+00  0.00000000000E+00  0.48224312529E+01  0.48224312529E+01  0.00000000000E+00 0.  1.
         -2   -1    0    0    0  501 -0.00000000000E+00 -0.00000000000E+00 -0.42322377730E+03  0.42322377730E+03  0.00000000000E+00 0. -1.
         23    2    1    2    0    0  0.00000000000E+00  0.00000000000E+00 -0.41840134605E+03  0.42804620855E+03  0.90354138159E+02 0.  0.
        -13    1    3    3    0    0 -0.15341584881E+02  0.41767634383E+02 -0.24622180347E+03  0.25021006377E+03  0.00000000000E+00 0.  1.
         13    1    3    3    0    0  0.15341584881E+02 -0.41767634383E+02 -0.17217954258E+03  0.17783614478E+03  0.00000000000E+00 0. -1.
<mgrwt>
<rscale>  0 0.90354138E+02</rscale>
<asrwt>0</asrwt>
<pdfrwt beam="1">  1        2 0.74191256E-03 0.90354138E+02</pdfrwt>
<pdfrwt beam="2">  1       -2 0.65111345E-01 0.90354138E+02</pdfrwt>
<totfact> 0.42038266E+04</totfact>
</mgrwt>
</event>
<event>
 5    1  0.6112843E+000  0.9035900E+02  0.7546771E-02  0.1301985E+00
         -2   -1    0    0    0  501 -0.00000000000E+00  0.00000000000E+00  0.16885897609E+03  0.16885897609E+03  0.00000000000E+00 0.  1.
          2   -1    0    0  501    0  0.00000000000E+00 -0.00000000000E+00 -0.12088117352E+02  0.12088117352E+02  0.00000000000E+00 0. -1.
         23    2    1    2    0    0  0.00000000000E+00  0.00000000000E+00  0.15677085873E+03  0.18094709344E+03  0.90358997757E+02 0.  0.
        -13    1    3    3    0    0 -0.33206469627E+02 -0.16202693232E+02  0.13045097386E+03  0.13558264444E+03  0.00000000000E+00 0.  1.
         13    1    3    3    0    0  0.33206469627E+02  0.16202693232E+02  0.26319884878E+02  0.45364448999E+02  0.00000000000E+00 0. -1.
<mgrwt>
<rscale>  0 0.90358998E+02</rscale>
<asrwt>0</asrwt>
<pdfrwt beam="2">  1        2 0.18597105E-02 0.90358998E+02</pdfrwt>
<pdfrwt beam="1">  1       -2 0.25978302E-01 0.90358998E+02</pdfrwt>
<totfact> 0.68355398E+04</totfact>
</mgrwt>
</event>
<event>
 5    1  0.6112843E+000  0.8894517E+02  0.7546771E-02  0.1305426E+00
          1   -1    0    0  501    0  0.00000000000E+00  0.00000000000E+00  0.40630593789E+02  0.40630593789E+02  0.00000000000E+00 0. -1.
         -1   -1    0    0    0  501 -0.00000000000E+00 -0.00000000000E+00 -0.48677874607E+02  0.48677874607E+02  0.00000000000E+00 0.  1.
         23    2    1    2    0    0  0.00000000000E+00  0.00000000000E+00 -0.80472808174E+01  0.89308468396E+02  0.88945172992E+02 0.  0.
        -13    1    3    3    0    0  0.14291178501E+02  0.25780189099E+02 -0.37460634026E+02  0.47667127400E+02  0.00000000000E+00 0.  1.
         13    1    3    3    0    0 -0.14291178501E+02 -0.25780189099E+02  0.29413353209E+02  0.41641340996E+02  0.00000000000E+00 0. -1.
<mgrwt>
<rscale>  0 0.88945173E+02</rscale>
<asrwt>0</asrwt>
<pdfrwt beam="1">  1        1 0.62508606E-02 0.88945173E+02</pdfrwt>
<pdfrwt beam="2">  1       -1 0.74889038E-02 0.88945173E+02</pdfrwt>
<totfact> 0.97443275E+04</totfact>
</mgrwt>
</event>
<event>
 5    1  0.6112843E+000  0.8876548E+02  0.7546771E-02  0.1305869E+00
         -2   -1    0    0    0  501 -0.00000000000E+00  0.00000000000E+00  0.49481664552E+02  0.49481664552E+02  0.00000000000E+00 0.  1.
          2   -1    0    0  501    0  0.00000000000E+00 -0.00000000000E+00 -0.39809240455E+02  0.39809240455E+02  0.00000000000E+00 0. -1.
         23    2    1    2    0    0  0.00000000000E+00  0.00000000000E+00  0.96724240972E+01  0.89290905006E+02  0.88765477123E+02 0.  0.
        -13    1    3    3    0    0 -0.16775422290E+02 -0.38132148717E+02 -0.10562960815E+02  0.42977339377E+02  0.00000000000E+00 0. -1.
         13    1    3    3    0    0  0.16775422290E+02  0.38132148717E+02  0.20235384912E+02  0.46313565629E+02  0.00000000000E+00 0.  1.
<mgrwt>
<rscale>  0 0.88765477E+02</rscale>
<asrwt>0</asrwt>
<pdfrwt beam="2">  1        2 0.61244985E-02 0.88765477E+02</pdfrwt>
<pdfrwt beam="1">  1       -2 0.76125638E-02 0.88765477E+02</pdfrwt>
<totfact> 0.10293516E+05</totfact>
</mgrwt>
</event>
<event>
 5    1  0.6112843E+000  0.8850646E+02  0.7546771E-02  0.1306509E+00
          2   -1    0    0  501    0  0.00000000000E+00  0.00000000000E+00  0.18462951423E+03  0.18462951423E+03  0.00000000000E+00 0. -1.
         -2   -1    0    0    0  501 -0.00000000000E+00 -0.00000000000E+00 -0.10606908437E+02  0.10606908437E+02  0.00000000000E+00 0.  1.
         23    2    1    2    0    0  0.00000000000E+00  0.00000000000E+00  0.17402260579E+03  0.19523642267E+03  0.88506459703E+02 0.  0.
        -13    1    3    3    0    0 -0.29869167836E+02  0.22919695668E+02  0.35709597384E+02  0.51890798626E+02  0.00000000000E+00 0.  1.
         13    1    3    3    0    0  0.29869167836E+02 -0.22919695668E+02  0.13831300841E+03  0.14334562404E+03  0.00000000000E+00 0. -1.
<mgrwt>
<rscale>  0 0.88506460E+02</rscale>
<asrwt>0</asrwt>
<pdfrwt beam="1">  1        2 0.28404538E-01 0.88506460E+02</pdfrwt>
<pdfrwt beam="2">  1       -2 0.16318322E-02 0.88506460E+02</pdfrwt>
<totfact> 0.16281634E+05</totfact>
</mgrwt>
</event>
<event>
 5    1  0.6112843E+000  0.9122658E+02  0.7546771E-02  0.1299908E+00
          2   -1    0    0  501    0  0.00000000000E+00  0.00000000000E+00  0.34880689555E+02  0.34880689555E+02  0.00000000000E+00 0. -1.
         -2   -1    0    0    0  501 -0.00000000000E+00 -0.00000000000E+00 -0.59648250494E+02  0.59648250494E+02  0.00000000000E+00 0.  1.
         23    2    1    2    0    0  0.00000000000E+00  0.00000000000E+00 -0.24767560939E+02  0.94528940049E+02  0.91226577443E+02 0.  0.
        -13    1    3    3    0    0  0.21204113118E+02 -0.34274869076E+02 -0.34515582882E+02  0.53063231384E+02  0.00000000000E+00 0.  1.
         13    1    3    3    0    0 -0.21204113118E+02  0.34274869076E+02  0.97480219429E+01  0.41465708665E+02  0.00000000000E+00 0. -1.
<mgrwt>
<rscale>  0 0.91226577E+02</rscale>
<asrwt>0</asrwt>
<pdfrwt beam="1">  1        2 0.53662600E-02 0.91226577E+02</pdfrwt>
<pdfrwt beam="2">  1       -2 0.91766538E-02 0.91226577E+02</pdfrwt>
<totfact> 0.91908441E+04</totfact>
</mgrwt>
</event>
<event>
 5    1  0.6112843E+000  0.9113108E+02  0.7546771E-02  0.1300136E+00
         -2   -1    0    0    0  501 -0.00000000000E+00  0.00000000000E+00  0.15171597562E+03  0.15171597562E+03  0.00000000000E+00 0.  1.
          2   -1    0    0  501    0  0.00000000000E+00 -0.00000000000E+00 -0.13684903288E+02  0.13684903288E+02  0.00000000000E+00 0. -1.
         23    2    1    2    0    0  0.00000000000E+00  0.00000000000E+00  0.13803107234E+03  0.16540087891E+03  0.91131080400E+02 0.  0.
        -13    1    3    3    0    0  0.10951325889E+02  0.33960039832E+02  0.12044710504E+03  0.12562133957E+03  0.00000000000E+00 0.  1.
         13    1    3    3    0    0 -0.10951325889E+02 -0.33960039832E+02  0.17583967297E+02  0.39779539339E+02  0.00000000000E+00 0. -1.
<mgrwt>
<rscale>  0 0.91131080E+02</rscale>
<asrwt>0</asrwt>
<pdfrwt beam="2">  1        2 0.21053698E-02 0.91131080E+02</pdfrwt>
<pdfrwt beam="1">  1       -2 0.23340918E-01 0.91131080E+02</pdfrwt>
<totfact> 0.69655576E+04</totfact>
</mgrwt>
</event>
<event>
 5    1  0.6112843E+000  0.8869600E+02  0.7546771E-02  0.1306041E+00
         -1   -1    0    0    0  501 -0.00000000000E+00  0.00000000000E+00  0.35566970933E+02  0.35566970933E+02  0.00000000000E+00 0.  1.
          1   -1    0    0  501    0  0.00000000000E+00 -0.00000000000E+00 -0.55296947601E+02  0.55296947601E+02  0.00000000000E+00 0. -1.
         23    2    1    2    0    0  0.00000000000E+00  0.00000000000E+00 -0.19729976669E+02  0.90863918534E+02  0.88695996031E+02 0.  0.
        -13    1    3    3    0    0  0.29845571982E+02  0.10177009385E+02  0.22080779082E+02  0.38495330779E+02  0.00000000000E+00 0.  1.
         13    1    3    3    0    0 -0.29845571982E+02 -0.10177009385E+02 -0.41810755751E+02  0.52368587754E+02  0.00000000000E+00 0. -1.
<mgrwt>
<rscale>  0 0.88695996E+02</rscale>
<asrwt>0</asrwt>
<pdfrwt beam="2">  1        1 0.85072227E-02 0.88695996E+02</pdfrwt>
<pdfrwt beam="1">  1       -1 0.54718417E-02 0.88695996E+02</pdfrwt>
<totfact> 0.10276448E+05</totfact>
</mgrwt>
</event>
<event>
 5    1  0.6112843E+000  0.8947045E+02  0.7546771E-02  0.1304139E+00
         -2   -1    0    0    0  501 -0.00000000000E+00  0.00000000000E+00  0.16900237016E+02  0.16900237016E+02  0.00000000000E+00 0. -1.
          2   -1    0    0  501    0  0.00000000000E+00 -0.00000000000E+00 -0.11841492053E+03  0.11841492053E+03  0.00000000000E+00 0.  1.
         23    2    1    2    0    0  0.00000000000E+00  0.00000000000E+00 -0.10151468352E+03  0.13531515755E+03  0.89470447038E+02 0.  0.
        -13    1    3    3    0    0  0.21808981772E+02  0.20854741687E+02 -0.10070523385E+03  0.10512894968E+03  0.00000000000E+00 0. -1.
         13    1    3    3    0    0 -0.21808981772E+02 -0.20854741687E+02 -0.80944966985E+00  0.30186207869E+02  0.00000000000E+00 0.  1.
<mgrwt>
<rscale>  0 0.89470447E+02</rscale>
<asrwt>0</asrwt>
<pdfrwt beam="2">  1        2 0.18217680E-01 0.89470447E+02</pdfrwt>
<pdfrwt beam="1">  1       -2 0.26000365E-02 0.89470447E+02</pdfrwt>
<totfact> 0.13615695E+05</totfact>
</mgrwt>
</event>
<event>
 5    1  0.6112843E+000  0.8848135E+02  0.7546771E-02  0.1306572E+00
         -3   -1    0    0    0  501 -0.00000000000E+00  0.00000000000E+00  0.36749645400E+02  0.36749645400E+02  0.00000000000E+00 0.  1.
          3   -1    0    0  501    0  0.00000000000E+00 -0.00000000000E+00 -0.53258674430E+02  0.53258674430E+02  0.00000000000E+00 0. -1.
         23    2    1    2    0    0  0.00000000000E+00  0.00000000000E+00 -0.16509029029E+02  0.90008319830E+02  0.88481351703E+02 0.  0.
        -13    1    3    3    0    0 -0.36358048431E+01  0.44076143038E+02 -0.94196797952E+01  0.45217870686E+02  0.00000000000E+00 0. -1.
         13    1    3    3    0    0  0.36358048431E+01 -0.44076143038E+02 -0.70893492339E+01  0.44790449144E+02  0.00000000000E+00 0.  1.
<mgrwt>
<rscale>  0 0.88481352E+02</rscale>
<asrwt>0</asrwt>
<pdfrwt beam="2">  1        3 0.81936422E-02 0.88481352E+02</pdfrwt>
<pdfrwt beam="1">  1       -3 0.56537916E-02 0.88481352E+02</pdfrwt>
<totfact> 0.38437371E+04</totfact>
</mgrwt>
</event>
<event>
 5    1  0.6112843E+000  0.9127908E+02  0.7546771E-02  0.1299783E+00
          2   -1    0    0  501    0  0.00000000000E+00  0.00000000000E+00  0.78670650668E+02  0.78670650668E+02  0.00000000000E+00 0.  1.
         -2   -1    0    0    0  501 -0.00000000000E+00 -0.00000000000E+00 -0.26477063204E+02  0.26477063204E+02  0.00000000000E+00 0. -1.
         23    2    1    2    0    0  0.00000000000E+00  0.00000000000E+00  0.52193587464E+02  0.10514771387E+03  0.91279083914E+02 0.  0.
        -13    1    3    3    0    0 -0.43977844496E+01  0.36673552355E+02  0.56978101858E+02  0.67902827936E+02  0.00000000000E+00 0.  1.
         13    1    3    3    0    0  0.43977844496E+01 -0.36673552355E+02 -0.47845143943E+01  0.37244885936E+02  0.00000000000E+00 0. -1.
<mgrwt>
<rscale>  0 0.91279084E+02</rscale>
<asrwt>0</asrwt>
<pdfrwt beam="1">  1        2 0.12103177E-01 0.91279084E+02</pdfrwt>
<pdfrwt beam="2">  1       -2 0.40733944E-02 0.91279084E+02</pdfrwt>
<totfact> 0.11395156E+05</totfact>
</mgrwt>
</event>
<event>
 5    1  0.6112843E+000  0.9571643E+02  0.7546771E-02  0.1289571E+00
         -3   -1    0    0    0  501 -0.00000000000E+00  0.00000000000E+00  0.45529814450E+02  0.45529814450E+02  0.00000000000E+00 0.  1.
          3   -1    0    0  501    0  0.00000000000E+00 -0.00000000000E+00 -0.50305690603E+02  0.50305690603E+02  0.00000000000E+00 0. -1.
         23    2    1    2    0    0  0.00000000000E+00  0.00000000000E+00 -0.47758761530E+01  0.95835505053E+02  0.95716430333E+02 0.  0.
        -13    1    3    3    0    0  0.39601880477E+02  0.73032923709E+01 -0.28280537502E+02  0.49208086918E+02  0.00000000000E+00 0. -1.
         13    1    3    3    0    0 -0.39601880477E+02 -0.73032923709E+01  0.23504661349E+02  0.46627418134E+02  0.00000000000E+00 0.  1.
<mgrwt>
<rscale>  0 0.95716430E+02</rscale>
<asrwt>0</asrwt>
<pdfrwt beam="2">  1        3 0.77393370E-02 0.95716430E+02</pdfrwt>
<pdfrwt beam="1">  1       -3 0.70045868E-02 0.95716430E+02</pdfrwt>
<totfact> 0.30630055E+04</totfact>
</mgrwt>
</event>
<event>
 5    1  0.6112843E+000  0.9187108E+02  0.7546771E-02  0.1298383E+00
         -1   -1    0    0    0  501 -0.00000000000E+00  0.00000000000E+00  0.95688216581E+01  0.95688216581E+01  0.00000000000E+00 0. -1.
          1   -1    0    0  501    0  0.00000000000E+00 -0.00000000000E+00 -0.22051551519E+03  0.22051551519E+03  0.00000000000E+00 0.  1.
         23    2    1    2    0    0  0.00000000000E+00  0.00000000000E+00 -0.21094669353E+03  0.23008433685E+03  0.91871075703E+02 0.  0.
        -13    1    3    3    0    0 -0.18968742264E+02 -0.41245490429E+02 -0.87929849772E+02  0.98957880660E+02  0.00000000000E+00 0. -1.
         13    1    3    3    0    0  0.18968742264E+02  0.41245490429E+02 -0.12301684376E+03  0.13112645619E+03  0.00000000000E+00 0.  1.
<mgrwt>
<rscale>  0 0.91871076E+02</rscale>
<asrwt>0</asrwt>
<pdfrwt beam="2">  1        1 0.33925464E-01 0.91871076E+02</pdfrwt>
<pdfrwt beam="1">  1       -1 0.14721264E-02 0.91871076E+02</pdfrwt>
<totfact> 0.11824962E+05</totfact>
</mgrwt>
</event>
<event>
 5    1  0.6112843E+000  0.8922101E+02  0.7546771E-02  0.1304749E+00
         -2   -1    0    0    0  501 -0.00000000000E+00  0.00000000000E+00  0.15558185941E+02  0.15558185941E+02  0.00000000000E+00 0. -1.
          2   -1    0    0  501    0  0.00000000000E+00 -0.00000000000E+00 -0.12791319585E+03  0.12791319585E+03  0.00000000000E+00 0.  1.
         23    2    1    2    0    0  0.00000000000E+00  0.00000000000E+00 -0.11235500991E+03  0.14347138179E+03  0.89221012889E+02 0.  0.
        -13    1    3    3    0    0  0.13748811258E+01  0.43531023227E+02 -0.40648670464E+02  0.59574782348E+02  0.00000000000E+00 0. -1.
         13    1    3    3    0    0 -0.13748811258E+01 -0.43531023227E+02 -0.71706339441E+02  0.83896599439E+02  0.00000000000E+00 0.  1.
<mgrwt>
<rscale>  0 0.89221013E+02</rscale>
<asrwt>0</asrwt>
<pdfrwt beam="2">  1        2 0.19678953E-01 0.89221013E+02</pdfrwt>
<pdfrwt beam="1">  1       -2 0.23935671E-02 0.89221013E+02</pdfrwt>
<totfact> 0.14063713E+05</totfact>
</mgrwt>
</event>
<event>
 5    1  0.6112843E+000  0.9110367E+02  0.7546771E-02  0.1300201E+00
         -2   -1    0    0    0  501 -0.00000000000E+00  0.00000000000E+00  0.93765869386E+01  0.93765869386E+01  0.00000000000E+00 0.  1.
          2   -1    0    0  501    0  0.00000000000E+00 -0.00000000000E+00 -0.22129265796E+03  0.22129265796E+03  0.00000000000E+00 0. -1.
         23    2    1    2    0    0  0.00000000000E+00  0.00000000000E+00 -0.21191607102E+03  0.23066924489E+03  0.91103673827E+02 0.  0.
        -13    1    3    3    0    0 -0.16384750316E+02 -0.29708930219E+02 -0.18291780613E+03  0.18603764237E+03  0.00000000000E+00 0.  1.
         13    1    3    3    0    0  0.16384750316E+02  0.29708930219E+02 -0.28998264883E+02  0.44631602524E+02  0.00000000000E+00 0. -1.
<mgrwt>
<rscale>  0 0.91103674E+02</rscale>
<asrwt>0</asrwt>
<pdfrwt beam="2">  1        2 0.34045024E-01 0.91103674E+02</pdfrwt>
<pdfrwt beam="1">  1       -2 0.14425519E-02 0.91103674E+02</pdfrwt>
<totfact> 0.16083091E+05</totfact>
</mgrwt>
</event>
<event>
 5    1  0.6112843E+000  0.8990741E+02  0.7546771E-02  0.1303076E+00
          2   -1    0    0  501    0  0.00000000000E+00  0.00000000000E+00  0.20040724266E+03  0.20040724266E+03  0.00000000000E+00 0. -1.
         -2   -1    0    0    0  501 -0.00000000000E+00 -0.00000000000E+00 -0.10083645237E+02  0.10083645237E+02  0.00000000000E+00 0.  1.
         23    2    1    2    0    0  0.00000000000E+00  0.00000000000E+00  0.19032359742E+03  0.21049088789E+03  0.89907408769E+02 0.  0.
        -13    1    3    3    0    0  0.14178796000E+02 -0.36462119337E+02  0.14700283774E+03  0.15211955399E+03  0.00000000000E+00 0. -1.
         13    1    3    3    0    0 -0.14178796000E+02  0.36462119337E+02  0.43320759683E+02  0.58371333907E+02  0.00000000000E+00 0.  1.
<mgrwt>
<rscale>  0 0.89907409E+02</rscale>
<asrwt>0</asrwt>
<pdfrwt beam="1">  1        2 0.30831881E-01 0.89907409E+02</pdfrwt>
<pdfrwt beam="2">  1       -2 0.15513302E-02 0.89907409E+02</pdfrwt>
<totfact> 0.16073928E+05</totfact>
</mgrwt>
</event>
<event>
 5    1  0.6112843E+000  0.9218910E+02  0.7546771E-02  0.1297635E+00
         -4   -1    0    0    0  501 -0.00000000000E+00  0.00000000000E+00  0.22801447638E+02  0.22801447638E+02  0.00000000000E+00 0.  1.
          4   -1    0    0  501    0  0.00000000000E+00 -0.00000000000E+00 -0.93183012014E+02  0.93183012014E+02  0.00000000000E+00 0. -1.
         23    2    1    2    0    0  0.00000000000E+00  0.00000000000E+00 -0.70381564376E+02  0.11598445965E+03  0.92189100640E+02 0.  0.
        -13    1    3    3    0    0 -0.38823749307E+02  0.15723443855E+02 -0.10984009544E+02  0.43303102228E+02  0.00000000000E+00 0.  1.
         13    1    3    3    0    0  0.38823749307E+02 -0.15723443855E+02 -0.59397554831E+02  0.72681357423E+02  0.00000000000E+00 0. -1.
<mgrwt>
<rscale>  0 0.92189101E+02</rscale>
<asrwt>0</asrwt>
<pdfrwt beam="2">  1        4 0.14335848E-01 0.92189101E+02</pdfrwt>
<pdfrwt beam="1">  1       -4 0.35079151E-02 0.92189101E+02</pdfrwt>
<totfact> 0.24750570E+04</totfact>
</mgrwt>
</event>
<event>
 5    1  0.6112843E+000  0.9126184E+02  0.7546771E-02  0.1299824E+00
          2   -1    0    0  501    0  0.00000000000E+00  0.00000000000E+00  0.11003627193E+02  0.11003627193E+02  0.00000000000E+00 0. -1.
         -2   -1    0    0    0  501 -0.00000000000E+00 -0.00000000000E+00 -0.18922675925E+03  0.18922675925E+03  0.00000000000E+00 0.  1.
         23    2    1    2    0    0  0.00000000000E+00  0.00000000000E+00 -0.17822313205E+03  0.20023038644E+03  0.91261836793E+02 0.  0.
        -13    1    3    3    0    0 -0.15241414338E+02  0.24958565223E+02 -0.16596339666E+03  0.16852026501E+03  0.00000000000E+00 0.  1.
         13    1    3    3    0    0  0.15241414338E+02 -0.24958565223E+02 -0.12259735394E+02  0.31710121428E+02  0.00000000000E+00 0. -1.
<mgrwt>
<rscale>  0 0.91261837E+02</rscale>
<asrwt>0</asrwt>
<pdfrwt beam="1">  1        2 0.16928660E-02 0.91261837E+02</pdfrwt>
<pdfrwt beam="2">  1       -2 0.29111805E-01 0.91261837E+02</pdfrwt>
<totfact> 0.63653922E+04</totfact>
</mgrwt>
</event>
<event>
 5    1  0.6112843E+000  0.8892112E+02  0.7546771E-02  0.1305486E+00
         -2   -1    0    0    0  501 -0.00000000000E+00  0.00000000000E+00  0.94312868420E+02  0.94312868420E+02  0.00000000000E+00 0.  1.
          2   -1    0    0  501    0  0.00000000000E+00 -0.00000000000E+00 -0.20959402396E+02  0.20959402396E+02  0.00000000000E+00 0. -1.
         23    2    1    2    0    0  0.00000000000E+00  0.00000000000E+00  0.73353466024E+02  0.11527227082E+03  0.88921119208E+02 0.  0.
        -13    1    3    3    0    0 -0.23410673152E+02 -0.23735541540E+02 -0.14565975681E+01  0.33370004886E+02  0.00000000000E+00 0. -1.
         13    1    3    3    0    0  0.23410673152E+02  0.23735541540E+02  0.74810063592E+02  0.81902265929E+02  0.00000000000E+00 0.  1.
<mgrwt>
<rscale>  0 0.88921119E+02</rscale>
<asrwt>0</asrwt>
<pdfrwt beam="2">  1        2 0.32245235E-02 0.88921119E+02</pdfrwt>
<pdfrwt beam="1">  1       -2 0.14509672E-01 0.88921119E+02</pdfrwt>
<totfact> 0.86399659E+04</totfact>
</mgrwt>
</event>
<event>
 5    1  0.6112843E+000  0.9846133E+02  0.7546771E-02  0.1283565E+00
         -1   -1    0    0    0  501 -0.00000000000E+00  0.00000000000E+00  0.30987360019E+02  0.30987360019E+02  0.00000000000E+00 0.  1.
          1   -1    0    0  501    0  0.00000000000E+00 -0.00000000000E+00 -0.78214421572E+02  0.78214421572E+02  0.00000000000E+00 0. -1.
         23    2    1    2    0    0  0.00000000000E+00  0.00000000000E+00 -0.47227061554E+02  0.10920178159E+03  0.98461331291E+02 0.  0.
        -13    1    3    3    0    0 -0.24128311551E+02  0.42679364453E+02 -0.28567901357E+02  0.56743533168E+02  0.00000000000E+00 0.  1.
         13    1    3    3    0    0  0.24128311551E+02 -0.42679364453E+02 -0.18659160196E+02  0.52458248423E+02  0.00000000000E+00 0. -1.
<mgrwt>
<rscale>  0 0.98461331E+02</rscale>
<asrwt>0</asrwt>
<pdfrwt beam="2">  1        1 0.12032988E-01 0.98461331E+02</pdfrwt>
<pdfrwt beam="1">  1       -1 0.47672861E-02 0.98461331E+02</pdfrwt>
<totfact> 0.81172348E+04</totfact>
</mgrwt>
</event>
<event>
 5    1  0.6112843E+000  0.9933308E+02  0.7546771E-02  0.1281705E+00
          4   -1    0    0  501    0  0.00000000000E+00  0.00000000000E+00  0.31127956352E+02  0.31127956352E+02  0.00000000000E+00 0. -1.
         -4   -1    0    0    0  501 -0.00000000000E+00 -0.00000000000E+00 -0.79245978374E+02  0.79245978374E+02  0.00000000000E+00 0.  1.
         23    2    1    2    0    0  0.00000000000E+00  0.00000000000E+00 -0.48118022022E+02  0.11037393473E+03  0.99333083229E+02 0.  0.
        -13    1    3    3    0    0  0.31118137465E+02 -0.62102162815E+01  0.18395928568E+02  0.36678542139E+02  0.00000000000E+00 0. -1.
         13    1    3    3    0    0 -0.31118137465E+02  0.62102162815E+01 -0.66513950590E+02  0.73695392588E+02  0.00000000000E+00 0.  1.
<mgrwt>
<rscale>  0 0.99333083E+02</rscale>
<asrwt>0</asrwt>
<pdfrwt beam="1">  1        4 0.47889163E-02 0.99333083E+02</pdfrwt>
<pdfrwt beam="2">  1       -4 0.12191689E-01 0.99333083E+02</pdfrwt>
<totfact> 0.20451123E+04</totfact>
</mgrwt>
</event>
<event>
 5    1  0.6112843E+000  0.9236298E+02  0.7546771E-02  0.1297228E+00
         -1   -1    0    0    0  501 -0.00000000000E+00  0.00000000000E+00  0.13385190918E+03  0.13385190918E+03  0.00000000000E+00 0.  1.
          1   -1    0    0  501    0  0.00000000000E+00 -0.00000000000E+00 -0.15933505750E+02  0.15933505750E+02  0.00000000000E+00 0. -1.
         23    2    1    2    0    0  0.00000000000E+00  0.00000000000E+00  0.11791840343E+03  0.14978541493E+03  0.92362983159E+02 0.  0.
        -13    1    3    3    0    0  0.37174599479E+02  0.16253278231E+02  0.94732765612E+02  0.10305540636E+03  0.00000000000E+00 0.  1.
         13    1    3    3    0    0 -0.37174599479E+02 -0.16253278231E+02  0.23185637814E+02  0.46730008565E+02  0.00000000000E+00 0. -1.
<mgrwt>
<rscale>  0 0.92362983E+02</rscale>
<asrwt>0</asrwt>
<pdfrwt beam="2">  1        1 0.24513087E-02 0.92362983E+02</pdfrwt>
<pdfrwt beam="1">  1       -1 0.20592601E-01 0.92362983E+02</pdfrwt>
<totfact> 0.74208562E+04</totfact>
</mgrwt>
</event>
<event>
 5    1  0.6112843E+000  0.9168312E+02  0.7546771E-02  0.1298826E+00
         -2   -1    0    0    0  501 -0.00000000000E+00  0.00000000000E+00  0.15480993779E+03  0.15480993779E+03  0.00000000000E+00 0. -1.
          2   -1    0    0  501    0  0.00000000000E+00 -0.00000000000E+00 -0.13574378564E+02  0.13574378564E+02  0.00000000000E+00 0.  1.
         23    2    1    2    0    0  0.00000000000E+00  0.00000000000E+00  0.14123555923E+03  0.16838431636E+03  0.91683121696E+02 0.  0.
        -13    1    3    3    0    0 -0.12704089170E+02  0.28703611988E+02  0.13197631473E+03  0.13565780063E+03  0.00000000000E+00 0. -1.
         13    1    3    3    0    0  0.12704089170E+02 -0.28703611988E+02  0.92592445022E+01  0.32726515726E+02  0.00000000000E+00 0.  1.
<mgrwt>
<rscale>  0 0.91683122E+02</rscale>
<asrwt>0</asrwt>
<pdfrwt beam="2">  1        2 0.20883660E-02 0.91683122E+02</pdfrwt>
<pdfrwt beam="1">  1       -2 0.23816912E-01 0.91683122E+02</pdfrwt>
<totfact> 0.68088189E+04</totfact>
</mgrwt>
</event>
<event>
 5    1  0.6112843E+000  0.7965382E+02  0.7546771E-02  0.1330037E+00
         -4   -1    0    0    0  501 -0.00000000000E+00  0.00000000000E+00  0.18195880694E+03  0.18195880694E+03  0.00000000000E+00 0. -1.
          4   -1    0    0  501    0  0.00000000000E+00 -0.00000000000E+00 -0.87172622754E+01  0.87172622754E+01  0.00000000000E+00 0.  1.
         23    2    1    2    0    0  0.00000000000E+00  0.00000000000E+00  0.17324154467E+03  0.19067606922E+03  0.79653817070E+02 0.  0.
        -13    1    3    3    0    0 -0.18195314981E+02  0.22094205504E+02  0.20326540937E+02  0.35105436482E+02  0.00000000000E+00 0.  1.
         13    1    3    3    0    0  0.18195314981E+02 -0.22094205504E+02  0.15291500373E+03  0.15557063274E+03  0.00000000000E+00 0. -1.
<mgrwt>
<rscale>  0 0.79653817E+02</rscale>
<asrwt>0</asrwt>
<pdfrwt beam="2">  1        4 0.13411174E-02 0.79653817E+02</pdfrwt>
<pdfrwt beam="1">  1       -4 0.27993660E-01 0.79653817E+02</pdfrwt>
<totfact> 0.31166120E+04</totfact>
</mgrwt>
</event>
<event>
 5    1  0.6112843E+000  0.9006243E+02  0.7546771E-02  0.1302701E+00
          2   -1    0    0  501    0  0.00000000000E+00  0.00000000000E+00  0.12228161200E+03  0.12228161200E+03  0.00000000000E+00 0. -1.
         -2   -1    0    0    0  501 -0.00000000000E+00 -0.00000000000E+00 -0.16583116237E+02  0.16583116237E+02  0.00000000000E+00 0.  1.
         23    2    1    2    0    0  0.00000000000E+00  0.00000000000E+00  0.10569849577E+03  0.13886472824E+03  0.90062426915E+02 0.  0.
        -13    1    3    3    0    0  0.43285140023E+02 -0.29940465338E+00  0.33707841150E+02  0.54862660753E+02  0.00000000000E+00 0. -1.
         13    1    3    3    0    0 -0.43285140023E+02  0.29940465338E+00  0.71990654618E+02  0.84002067488E+02  0.00000000000E+00 0.  1.
<mgrwt>
<rscale>  0 0.90062427E+02</rscale>
<asrwt>0</asrwt>
<pdfrwt beam="1">  1        2 0.18812555E-01 0.90062427E+02</pdfrwt>
<pdfrwt beam="2">  1       -2 0.25512487E-02 0.90062427E+02</pdfrwt>
<totfact> 0.13510982E+05</totfact>
</mgrwt>
</event>
<event>
 5    1  0.6112843E+000  0.9093260E+02  0.7546771E-02  0.1300609E+00
          1   -1    0    0  501    0  0.00000000000E+00  0.00000000000E+00  0.47575042278E+02  0.47575042278E+02  0.00000000000E+00 0. -1.
         -1   -1    0    0    0  501 -0.00000000000E+00 -0.00000000000E+00 -0.43451024603E+02  0.43451024603E+02  0.00000000000E+00 0.  1.
         23    2    1    2    0    0  0.00000000000E+00  0.00000000000E+00  0.41240176750E+01  0.91026066882E+02  0.90932597731E+02 0.  0.
        -13    1    3    3    0    0 -0.13764870349E+02 -0.13884930962E+02 -0.39027977696E+02  0.43651414714E+02  0.00000000000E+00 0.  1.
         13    1    3    3    0    0  0.13764870349E+02  0.13884930962E+02  0.43151995371E+02  0.47374652168E+02  0.00000000000E+00 0. -1.
<mgrwt>
<rscale>  0 0.90932598E+02</rscale>
<asrwt>0</asrwt>
<pdfrwt beam="1">  1        1 0.73192372E-02 0.90932598E+02</pdfrwt>
<pdfrwt beam="2">  1       -1 0.66847730E-02 0.90932598E+02</pdfrwt>
<totfact> 0.93768774E+04</totfact>
</mgrwt>
</event>
<event>
 5    1  0.6112843E+000  0.9030978E+02  0.7546771E-02  0.1302103E+00
         -1   -1    0    0    0  501 -0.00000000000E+00  0.00000000000E+00  0.17993512738E+03  0.17993512738E+03  0.00000000000E+00 0.  1.
          1   -1    0    0  501    0  0.00000000000E+00 -0.00000000000E+00 -0.11331661574E+02  0.11331661574E+02  0.00000000000E+00 0. -1.
         23    2    1    2    0    0  0.00000000000E+00  0.00000000000E+00  0.16860346580E+03  0.19126678895E+03  0.90309777293E+02 0.  0.
        -13    1    3    3    0    0 -0.26220286810E+02  0.25563526910E+02  0.28348894542E+02  0.46310443425E+02  0.00000000000E+00 0. -1.
         13    1    3    3    0    0  0.26220286810E+02 -0.25563526910E+02  0.14025457126E+03  0.14495634553E+03  0.00000000000E+00 0.  1.
<mgrwt>
<rscale>  0 0.90309777E+02</rscale>
<asrwt>0</asrwt>
<pdfrwt beam="2">  1        1 0.17433327E-02 0.90309777E+02</pdfrwt>
<pdfrwt beam="1">  1       -1 0.27682325E-01 0.90309777E+02</pdfrwt>
<totfact> 0.73273972E+04</totfact>
</mgrwt>
</event>
<event>
 5    1  0.6112843E+000  0.9041926E+02  0.7546771E-02  0.1301840E+00
         -2   -1    0    0    0  501 -0.00000000000E+00  0.00000000000E+00  0.52663014905E+02  0.52663014905E+02  0.00000000000E+00 0.  1.
          2   -1    0    0  501    0  0.00000000000E+00 -0.00000000000E+00 -0.38811118948E+02  0.38811118948E+02  0.00000000000E+00 0. -1.
         23    2    1    2    0    0  0.00000000000E+00  0.00000000000E+00  0.13851895957E+02  0.91474133853E+02  0.90419257587E+02 0.  0.
        -13    1    3    3    0    0  0.10417303626E+02 -0.40589340650E+02 -0.10239494122E+02  0.43137710059E+02  0.00000000000E+00 0. -1.
         13    1    3    3    0    0 -0.10417303626E+02  0.40589340650E+02  0.24091390078E+02  0.48336423794E+02  0.00000000000E+00 0.  1.
<mgrwt>
<rscale>  0 0.90419258E+02</rscale>
<asrwt>0</asrwt>
<pdfrwt beam="2">  1        2 0.59709413E-02 0.90419258E+02</pdfrwt>
<pdfrwt beam="1">  1       -2 0.81020023E-02 0.90419258E+02</pdfrwt>
<totfact> 0.96963211E+04</totfact>
</mgrwt>
</event>
<event>
 5    1  0.6112843E+000  0.8970000E+02  0.7546771E-02  0.1303580E+00
          2   -1    0    0  501    0  0.00000000000E+00  0.00000000000E+00  0.44791985826E+02  0.44791985826E+02  0.00000000000E+00 0.  1.
         -2   -1    0    0    0  501 -0.00000000000E+00 -0.00000000000E+00 -0.44908084724E+02  0.44908084724E+02  0.00000000000E+00 0. -1.
         23    2    1    2    0    0  0.00000000000E+00  0.00000000000E+00 -0.11609889759E+00  0.89700070551E+02  0.89699995417E+02 0.  0.
        -13    1    3    3    0    0  0.11671932648E+02  0.40906317445E+02 -0.14269376414E+02  0.44868429011E+02  0.00000000000E+00 0. -1.
         13    1    3    3    0    0 -0.11671932648E+02 -0.40906317445E+02  0.14153277516E+02  0.44831641540E+02  0.00000000000E+00 0.  1.
<mgrwt>
<rscale>  0 0.89699995E+02</rscale>
<asrwt>0</asrwt>
<pdfrwt beam="1">  1        2 0.68910748E-02 0.89699995E+02</pdfrwt>
<pdfrwt beam="2">  1       -2 0.69089361E-02 0.89699995E+02</pdfrwt>
<totfact> 0.10293116E+05</totfact>
</mgrwt>
</event>
<event>
 5    1  0.6112843E+000  0.9102973E+02  0.7546771E-02  0.1300377E+00
          4   -1    0    0  501    0  0.00000000000E+00  0.00000000000E+00  0.80730628073E+02  0.80730628073E+02  0.00000000000E+00 0.  1.
         -4   -1    0    0    0  501 -0.00000000000E+00 -0.00000000000E+00 -0.25660683037E+02  0.25660683037E+02  0.00000000000E+00 0. -1.
         23    2    1    2    0    0  0.00000000000E+00  0.00000000000E+00  0.55069945036E+02  0.10639131111E+03  0.91029732689E+02 0.  0.
        -13    1    3    3    0    0  0.37661300642E+02  0.24398120127E+02  0.36432957684E+02  0.57801403420E+02  0.00000000000E+00 0. -1.
         13    1    3    3    0    0 -0.37661300642E+02 -0.24398120127E+02  0.18636987352E+02  0.48589907690E+02  0.00000000000E+00 0.  1.
<mgrwt>
<rscale>  0 0.91029733E+02</rscale>
<asrwt>0</asrwt>
<pdfrwt beam="1">  1        4 0.12420096E-01 0.91029733E+02</pdfrwt>
<pdfrwt beam="2">  1       -4 0.39477974E-02 0.91029733E+02</pdfrwt>
<totfact> 0.26182677E+04</totfact>
</mgrwt>
</event>
<event>
 5    1  0.6112843E+000  0.9196960E+02  0.7546771E-02  0.1298151E+00
         -2   -1    0    0    0  501 -0.00000000000E+00  0.00000000000E+00  0.21159590000E+02  0.21159590000E+02  0.00000000000E+00 0.  1.
          2   -1    0    0  501    0  0.00000000000E+00 -0.00000000000E+00 -0.99935864247E+02  0.99935864247E+02  0.00000000000E+00 0. -1.
         23    2    1    2    0    0  0.00000000000E+00  0.00000000000E+00 -0.78776274247E+02  0.12109545425E+03  0.91969601800E+02 0.  0.
        -13    1    3    3    0    0  0.54787966007E+01  0.15834155764E+02  0.16997322157E+02  0.23867271764E+02  0.00000000000E+00 0.  1.
         13    1    3    3    0    0 -0.54787966007E+01 -0.15834155764E+02 -0.95773596403E+02  0.97228182483E+02  0.00000000000E+00 0. -1.
<mgrwt>
<rscale>  0 0.91969602E+02</rscale>
<asrwt>0</asrwt>
<pdfrwt beam="2">  1        2 0.15374748E-01 0.91969602E+02</pdfrwt>
<pdfrwt beam="1">  1       -2 0.32553216E-02 0.91969602E+02</pdfrwt>
<totfact> 0.11975906E+05</totfact>
</mgrwt>
</event>
<event>
 5    1  0.6112843E+000  0.9206142E+02  0.7546771E-02  0.1297935E+00
         -2   -1    0    0    0  501 -0.00000000000E+00  0.00000000000E+00  0.77104054285E+01  0.77104054285E+01  0.00000000000E+00 0.  1.
          2   -1    0    0  501    0  0.00000000000E+00 -0.00000000000E+00 -0.27480086454E+03  0.27480086454E+03  0.00000000000E+00 0. -1.
         23    2    1    2    0    0  0.00000000000E+00  0.00000000000E+00 -0.26709045911E+03  0.28251126997E+03  0.92061415972E+02 0.  0.
        -13    1    3    3    0    0  0.42853456745E+01 -0.37593936929E+02 -0.21398787903E+03  0.21730734146E+03  0.00000000000E+00 0. -1.
         13    1    3    3    0    0 -0.42853456745E+01  0.37593936929E+02 -0.53102580079E+02  0.65203928505E+02  0.00000000000E+00 0.  1.
<mgrwt>
<rscale>  0 0.92061416E+02</rscale>
<asrwt>0</asrwt>
<pdfrwt beam="2">  1        2 0.42277060E-01 0.92061416E+02</pdfrwt>
<pdfrwt beam="1">  1       -2 0.11862161E-02 0.92061416E+02</pdfrwt>
<totfact> 0.16944155E+05</totfact>
</mgrwt>
</event>
<event>
 5    1  0.6112843E+000  0.9102397E+02  0.7546771E-02  0.1300391E+00
          1   -1    0    0  501    0  0.00000000000E+00  0.00000000000E+00  0.21038033445E+02  0.21038033445E+02  0.00000000000E+00 0. -1.
         -1   -1    0    0    0  501 -0.00000000000E+00 -0.00000000000E+00 -0.98456957920E+02  0.98456957920E+02  0.00000000000E+00 0.  1.
         23    2    1    2    0    0  0.00000000000E+00  0.00000000000E+00 -0.77418924475E+02  0.11949499137E+03  0.91023969890E+02 0.  0.
        -13    1    3    3    0    0 -0.19818024758E+01 -0.38446478592E+02 -0.68414233102E+01  0.39100694752E+02  0.00000000000E+00 0. -1.
         13    1    3    3    0    0  0.19818024758E+01  0.38446478592E+02 -0.70577501165E+02  0.80394296613E+02  0.00000000000E+00 0.  1.
<mgrwt>
<rscale>  0 0.91023970E+02</rscale>
<asrwt>0</asrwt>
<pdfrwt beam="1">  1        1 0.32366206E-02 0.91023970E+02</pdfrwt>
<pdfrwt beam="2">  1       -1 0.15147224E-01 0.91023970E+02</pdfrwt>
<totfact> 0.81958989E+04</totfact>
</mgrwt>
</event>
<event>
 5    1  0.6112843E+000  0.9218697E+02  0.7546771E-02  0.1297640E+00
          1   -1    0    0  501    0  0.00000000000E+00  0.00000000000E+00  0.20271533162E+02  0.20271533162E+02  0.00000000000E+00 0. -1.
         -1   -1    0    0    0  501 -0.00000000000E+00 -0.00000000000E+00 -0.10480752801E+03  0.10480752801E+03  0.00000000000E+00 0.  1.
         23    2    1    2    0    0  0.00000000000E+00  0.00000000000E+00 -0.84535994850E+02  0.12507906117E+03  0.92186968271E+02 0.  0.
        -13    1    3    3    0    0 -0.24795833338E+02  0.41144783542E+01  0.10155106254E+02  0.27108826351E+02  0.00000000000E+00 0. -1.
         13    1    3    3    0    0  0.24795833338E+02 -0.41144783542E+01 -0.94691101104E+02  0.97970234824E+02  0.00000000000E+00 0.  1.
<mgrwt>
<rscale>  0 0.92186968E+02</rscale>
<asrwt>0</asrwt>
<pdfrwt beam="1">  1        1 0.31186974E-02 0.92186968E+02</pdfrwt>
<pdfrwt beam="2">  1       -1 0.16124235E-01 0.92186968E+02</pdfrwt>
<totfact> 0.78393737E+04</totfact>
</mgrwt>
</event>
<event>
 5    1  0.6112843E+000  0.9064804E+02  0.7546771E-02  0.1301290E+00
         -1   -1    0    0    0  501 -0.00000000000E+00  0.00000000000E+00  0.14935279056E+03  0.14935279056E+03  0.00000000000E+00 0.  1.
          1   -1    0    0  501    0  0.00000000000E+00 -0.00000000000E+00 -0.13754459937E+02  0.13754459937E+02  0.00000000000E+00 0. -1.
         23    2    1    2    0    0  0.00000000000E+00  0.00000000000E+00  0.13559833062E+03  0.16310725050E+03  0.90648044087E+02 0.  0.
        -13    1    3    3    0    0 -0.15739589329E+02  0.41968716886E+02  0.55707461742E+02  0.71501252877E+02  0.00000000000E+00 0. -1.
         13    1    3    3    0    0  0.15739589329E+02 -0.41968716886E+02  0.79890868881E+02  0.91605997619E+02  0.00000000000E+00 0.  1.
<mgrwt>
<rscale>  0 0.90648044E+02</rscale>
<asrwt>0</asrwt>
<pdfrwt beam="2">  1        1 0.21160709E-02 0.90648044E+02</pdfrwt>
<pdfrwt beam="1">  1       -1 0.22977351E-01 0.90648044E+02</pdfrwt>
<totfact> 0.76002205E+04</totfact>
</mgrwt>
</event>
<event>
 5    1  0.6112843E+000  0.9123831E+02  0.7546771E-02  0.1299880E+00
          1   -1    0    0  501    0  0.00000000000E+00  0.00000000000E+00  0.31229867397E+02  0.31229867397E+02  0.00000000000E+00 0. -1.
         -1   -1    0    0    0  501 -0.00000000000E+00 -0.00000000000E+00 -0.66638368498E+02  0.66638368498E+02  0.00000000000E+00 0.  1.
         23    2    1    2    0    0  0.00000000000E+00  0.00000000000E+00 -0.35408501101E+02  0.97868235895E+02  0.91238312386E+02 0.  0.
        -13    1    3    3    0    0  0.92733190408E+01  0.41780040556E+02 -0.34649018506E+02  0.55064695753E+02  0.00000000000E+00 0.  1.
         13    1    3    3    0    0 -0.92733190408E+01 -0.41780040556E+02 -0.75948259511E+00  0.42803540143E+02  0.00000000000E+00 0. -1.
<mgrwt>
<rscale>  0 0.91238312E+02</rscale>
<asrwt>0</asrwt>
<pdfrwt beam="1">  1        1 0.48045950E-02 0.91238312E+02</pdfrwt>
<pdfrwt beam="2">  1       -1 0.10252057E-01 0.91238312E+02</pdfrwt>
<totfact> 0.87076548E+04</totfact>
</mgrwt>
</event>
<event>
 5    1  0.6112843E+000  0.9249599E+02  0.7546771E-02  0.1296917E+00
         -2   -1    0    0    0  501 -0.00000000000E+00  0.00000000000E+00  0.10617018311E+02  0.10617018311E+02  0.00000000000E+00 0.  1.
          2   -1    0    0  501    0  0.00000000000E+00 -0.00000000000E+00 -0.20145741776E+03  0.20145741776E+03  0.00000000000E+00 0. -1.
         23    2    1    2    0    0  0.00000000000E+00  0.00000000000E+00 -0.19084039945E+03  0.21207443608E+03  0.92495991121E+02 0.  0.
        -13    1    3    3    0    0  0.38177439059E-02  0.40287592394E+02 -0.14749176073E+03  0.15289509344E+03  0.00000000000E+00 0. -1.
         13    1    3    3    0    0 -0.38177439059E-02 -0.40287592394E+02 -0.43348638726E+02  0.59179342637E+02  0.00000000000E+00 0.  1.
<mgrwt>
<rscale>  0 0.92495991E+02</rscale>
<asrwt>0</asrwt>
<pdfrwt beam="2">  1        2 0.30993450E-01 0.92495991E+02</pdfrwt>
<pdfrwt beam="1">  1       -2 0.16333874E-02 0.92495991E+02</pdfrwt>
<totfact> 0.14919486E+05</totfact>
</mgrwt>
</event>
<event>
 5    1  0.6112843E+000  0.9025454E+02  0.7546771E-02  0.1302236E+00
          1   -1    0    0  501    0  0.00000000000E+00  0.00000000000E+00  0.15274979940E+03  0.15274979940E+03  0.00000000000E+00 0. -1.
         -1   -1    0    0    0  501 -0.00000000000E+00 -0.00000000000E+00 -0.13332067457E+02  0.13332067457E+02  0.00000000000E+00 0.  1.
         23    2    1    2    0    0  0.00000000000E+00  0.00000000000E+00  0.13941773194E+03  0.16608186686E+03  0.90254542925E+02 0.  0.
        -13    1    3    3    0    0  0.28206627580E+02 -0.83800135586E+01  0.13266867076E+03  0.13589265863E+03  0.00000000000E+00 0. -1.
         13    1    3    3    0    0 -0.28206627580E+02  0.83800135586E+01  0.67490611781E+01  0.30189208229E+02  0.00000000000E+00 0.  1.
<mgrwt>
<rscale>  0 0.90254543E+02</rscale>
<asrwt>0</asrwt>
<pdfrwt beam="1">  1        1 0.23499968E-01 0.90254543E+02</pdfrwt>
<pdfrwt beam="2">  1       -1 0.20510874E-02 0.90254543E+02</pdfrwt>
<totfact> 0.11563213E+05</totfact>
</mgrwt>
</event>
<event>
 5    1  0.6112843E+000  0.9094708E+02  0.7546771E-02  0.1300574E+00
         -4   -1    0    0    0  501 -0.00000000000E+00  0.00000000000E+00  0.98336384280E+02  0.98336384280E+02  0.00000000000E+00 0.  1.
          4   -1    0    0  501    0  0.00000000000E+00 -0.00000000000E+00 -0.21028255814E+02  0.21028255814E+02  0.00000000000E+00 0. -1.
         23    2    1    2    0    0  0.00000000000E+00  0.00000000000E+00  0.77308128465E+02  0.11936464009E+03  0.90947075698E+02 0.  0.
        -13    1    3    3    0    0  0.25433869998E+02  0.29087598550E+02  0.70122323890E+02  0.80063165314E+02  0.00000000000E+00 0.  1.
         13    1    3    3    0    0 -0.25433869998E+02 -0.29087598550E+02  0.71858045759E+01  0.39301474780E+02  0.00000000000E+00 0. -1.
<mgrwt>
<rscale>  0 0.90947076E+02</rscale>
<asrwt>0</asrwt>
<pdfrwt beam="2">  1        4 0.32351163E-02 0.90947076E+02</pdfrwt>
<pdfrwt beam="1">  1       -4 0.15128674E-01 0.90947076E+02</pdfrwt>
<totfact> 0.25481971E+04</totfact>
</mgrwt>
</event>
<event>
 5    1  0.6112843E+000  0.9303467E+02  0.7546771E-02  0.1295665E+00
         -1   -1    0    0    0  501 -0.00000000000E+00  0.00000000000E+00  0.20462897485E+03  0.20462897485E+03  0.00000000000E+00 0.  1.
          1   -1    0    0  501    0  0.00000000000E+00 -0.00000000000E+00 -0.10574564525E+02  0.10574564525E+02  0.00000000000E+00 0. -1.
         23    2    1    2    0    0  0.00000000000E+00  0.00000000000E+00  0.19405441033E+03  0.21520353938E+03  0.93034666621E+02 0.  0.
        -13    1    3    3    0    0 -0.34244743967E+02 -0.30476158957E+02  0.78760088682E+02  0.91129854182E+02  0.00000000000E+00 0.  1.
         13    1    3    3    0    0  0.34244743967E+02  0.30476158957E+02  0.11529432165E+03  0.12407368520E+03  0.00000000000E+00 0. -1.
<mgrwt>
<rscale>  0 0.93034667E+02</rscale>
<asrwt>0</asrwt>
<pdfrwt beam="2">  1        1 0.16268562E-02 0.93034667E+02</pdfrwt>
<pdfrwt beam="1">  1       -1 0.31481378E-01 0.93034667E+02</pdfrwt>
<totfact> 0.65431164E+04</totfact>
</mgrwt>
</event>
<event>
 5    1  0.6112843E+000  0.8973359E+02  0.7546771E-02  0.1303498E+00
         -4   -1    0    0    0  501 -0.00000000000E+00  0.00000000000E+00  0.75307763696E+02  0.75307763696E+02  0.00000000000E+00 0.  1.
          4   -1    0    0  501    0  0.00000000000E+00 -0.00000000000E+00 -0.26730700609E+02  0.26730700609E+02  0.00000000000E+00 0. -1.
         23    2    1    2    0    0  0.00000000000E+00  0.00000000000E+00  0.48577063087E+02  0.10203846430E+03  0.89733589806E+02 0.  0.
        -13    1    3    3    0    0  0.17070167339E+00 -0.32393988031E+02 -0.11010594808E+02  0.34214511507E+02  0.00000000000E+00 0. -1.
         13    1    3    3    0    0 -0.17070167339E+00  0.32393988031E+02  0.59587657895E+02  0.67823952797E+02  0.00000000000E+00 0.  1.
<mgrwt>
<rscale>  0 0.89733590E+02</rscale>
<asrwt>0</asrwt>
<pdfrwt beam="2">  1        4 0.41124155E-02 0.89733590E+02</pdfrwt>
<pdfrwt beam="1">  1       -4 0.11585810E-01 0.89733590E+02</pdfrwt>
<totfact> 0.27492657E+04</totfact>
</mgrwt>
</event>
<event>
 5    1  0.6112843E+000  0.9541159E+02  0.7546771E-02  0.1290252E+00
          2   -1    0    0  501    0  0.00000000000E+00  0.00000000000E+00  0.40376101192E+02  0.40376101192E+02  0.00000000000E+00 0. -1.
         -2   -1    0    0    0  501 -0.00000000000E+00 -0.00000000000E+00 -0.56366082567E+02  0.56366082567E+02  0.00000000000E+00 0.  1.
         23    2    1    2    0    0  0.00000000000E+00  0.00000000000E+00 -0.15989981375E+02  0.96742183760E+02  0.95411585325E+02 0.  0.
        -13    1    3    3    0    0  0.21091978583E+02  0.28751997797E+02 -0.40127537361E+02  0.53682103094E+02  0.00000000000E+00 0.  1.
         13    1    3    3    0    0 -0.21091978583E+02 -0.28751997797E+02  0.24137555987E+02  0.43060080666E+02  0.00000000000E+00 0. -1.
<mgrwt>
<rscale>  0 0.95411585E+02</rscale>
<asrwt>0</asrwt>
<pdfrwt beam="1">  1        2 0.62117079E-02 0.95411585E+02</pdfrwt>
<pdfrwt beam="2">  1       -2 0.86717049E-02 0.95411585E+02</pdfrwt>
<totfact> 0.83780523E+04</totfact>
</mgrwt>
</event>
<event>
 5    1  0.6112843E+000  0.9113121E+02  0.7546771E-02  0.1300135E+00
          3   -1    0    0  501    0  0.00000000000E+00  0.00000000000E+00  0.41049534864E+02  0.41049534864E+02  0.00000000000E+00 0. -1.
         -3   -1    0    0    0  501 -0.00000000000E+00 -0.00000000000E+00 -0.50578514951E+02  0.50578514951E+02  0.00000000000E+00 0.  1.
         23    2    1    2    0    0  0.00000000000E+00  0.00000000000E+00 -0.95289800874E+01  0.91628049815E+02  0.91131213376E+02 0.  0.
        -13    1    3    3    0    0 -0.39389218212E+02  0.22741639862E+02 -0.75238680259E+01  0.46100990066E+02  0.00000000000E+00 0.  1.
         13    1    3    3    0    0  0.39389218212E+02 -0.22741639862E+02 -0.20051120616E+01  0.45527059749E+02  0.00000000000E+00 0. -1.
<mgrwt>
<rscale>  0 0.91131213E+02</rscale>
<asrwt>0</asrwt>
<pdfrwt beam="1">  1        3 0.63153131E-02 0.91131213E+02</pdfrwt>
<pdfrwt beam="2">  1       -3 0.77813100E-02 0.91131213E+02</pdfrwt>
<totfact> 0.35352737E+04</totfact>
</mgrwt>
</event>
<event>
 5    1  0.6112843E+000  0.9247533E+02  0.7546771E-02  0.1296966E+00
          2   -1    0    0  501    0  0.00000000000E+00  0.00000000000E+00  0.11976834915E+02  0.11976834915E+02  0.00000000000E+00 0. -1.
         -2   -1    0    0    0  501 -0.00000000000E+00 -0.00000000000E+00 -0.17850473967E+03  0.17850473967E+03  0.00000000000E+00 0.  1.
         23    2    1    2    0    0  0.00000000000E+00  0.00000000000E+00 -0.16652790476E+03  0.19048157459E+03  0.92475332897E+02 0.  0.
        -13    1    3    3    0    0 -0.25920840136E+02 -0.23221966644E+02 -0.14597059474E+03  0.15006186797E+03  0.00000000000E+00 0.  1.
         13    1    3    3    0    0  0.25920840136E+02  0.23221966644E+02 -0.20557310013E+02  0.40419706619E+02  0.00000000000E+00 0. -1.
<mgrwt>
<rscale>  0 0.92475333E+02</rscale>
<asrwt>0</asrwt>
<pdfrwt beam="1">  1        2 0.18425901E-02 0.92475333E+02</pdfrwt>
<pdfrwt beam="2">  1       -2 0.27462267E-01 0.92475333E+02</pdfrwt>
<totfact> 0.63040873E+04</totfact>
</mgrwt>
</event>
<event>
 5    1  0.6112843E+000  0.1046622E+03  0.7546771E-02  0.1270787E+00
          1   -1    0    0  501    0  0.00000000000E+00  0.00000000000E+00  0.31613395930E+03  0.31613395930E+03  0.00000000000E+00 0. -1.
         -1   -1    0    0    0  501 -0.00000000000E+00 -0.00000000000E+00 -0.86626143739E+01  0.86626143739E+01  0.00000000000E+00 0.  1.
         23    2    1    2    0    0  0.00000000000E+00  0.00000000000E+00  0.30747134493E+03  0.32479657368E+03  0.10466224878E+03 0.  0.
        -13    1    3    3    0    0 -0.52254373279E+02 -0.27306702698E+01  0.15607961280E+03  0.16461719721E+03  0.00000000000E+00 0. -1.
         13    1    3    3    0    0  0.52254373279E+02  0.27306702698E+01  0.15139173213E+03  0.16017937647E+03  0.00000000000E+00 0.  1.
<mgrwt>
<rscale>  0 0.10466225E+03</rscale>
<asrwt>0</asrwt>
<pdfrwt beam="1">  1        1 0.48635985E-01 0.10466225E+03</pdfrwt>
<pdfrwt beam="2">  1       -1 0.13327101E-02 0.10466225E+03</pdfrwt>
<totfact> 0.89377870E+04</totfact>
</mgrwt>
</event>
<event>
 5    1  0.6112843E+000  0.9197726E+02  0.7546771E-02  0.1298133E+00
         -2   -1    0    0    0  501 -0.00000000000E+00  0.00000000000E+00  0.44280749251E+01  0.44280749251E+01  0.00000000000E+00 0.  1.
          2   -1    0    0  501    0  0.00000000000E+00 -0.00000000000E+00 -0.47762387550E+03  0.47762387550E+03  0.00000000000E+00 0. -1.
         23    2    1    2    0    0  0.00000000000E+00  0.00000000000E+00 -0.47319580057E+03  0.48205195042E+03  0.91977264728E+02 0.  0.
        -13    1    3    3    0    0 -0.19956486753E+02  0.41336754457E+02 -0.25138982280E+03  0.25554614385E+03  0.00000000000E+00 0. -1.
         13    1    3    3    0    0  0.19956486753E+02 -0.41336754457E+02 -0.22180597777E+03  0.22650580657E+03  0.00000000000E+00 0.  1.
<mgrwt>
<rscale>  0 0.91977265E+02</rscale>
<asrwt>0</asrwt>
<pdfrwt beam="2">  1        2 0.73480595E-01 0.91977265E+02</pdfrwt>
<pdfrwt beam="1">  1       -2 0.68124231E-03 0.91977265E+02</pdfrwt>
<totfact> 0.20741198E+05</totfact>
</mgrwt>
</event>
<event>
 5    1  0.6112843E+000  0.9035653E+02  0.7546771E-02  0.1301991E+00
          4   -1    0    0  501    0  0.00000000000E+00  0.00000000000E+00  0.36402845996E+02  0.36402845996E+02  0.00000000000E+00 0. -1.
         -4   -1    0    0    0  501 -0.00000000000E+00 -0.00000000000E+00 -0.56069125209E+02  0.56069125209E+02  0.00000000000E+00 0.  1.
         23    2    1    2    0    0  0.00000000000E+00  0.00000000000E+00 -0.19666279213E+02  0.92471971205E+02  0.90356532251E+02 0.  0.
        -13    1    3    3    0    0 -0.12830532738E+02  0.27702518997E+02  0.24248537274E+02  0.38987737675E+02  0.00000000000E+00 0. -1.
         13    1    3    3    0    0  0.12830532738E+02 -0.27702518997E+02 -0.43914816487E+02  0.53484233529E+02  0.00000000000E+00 0.  1.
<mgrwt>
<rscale>  0 0.90356532E+02</rscale>
<asrwt>0</asrwt>
<pdfrwt beam="1">  1        4 0.56004378E-02 0.90356532E+02</pdfrwt>
<pdfrwt beam="2">  1       -4 0.86260193E-02 0.90356532E+02</pdfrwt>
<totfact> 0.27600602E+04</totfact>
</mgrwt>
</event>
<event>
 5    1  0.6112843E+000  0.8964986E+02  0.7546771E-02  0.1303702E+00
         -2   -1    0    0    0  501 -0.00000000000E+00  0.00000000000E+00  0.52305006912E+02  0.52305006912E+02  0.00000000000E+00 0. -1.
          2   -1    0    0  501    0  0.00000000000E+00 -0.00000000000E+00 -0.38414569232E+02  0.38414569232E+02  0.00000000000E+00 0.  1.
         23    2    1    2    0    0  0.00000000000E+00  0.00000000000E+00  0.13890437680E+02  0.90719576143E+02  0.89649859100E+02 0.  0.
        -13    1    3    3    0    0  0.13908642717E+02  0.23753670380E+02  0.42745129435E+02  0.50841255779E+02  0.00000000000E+00 0. -1.
         13    1    3    3    0    0 -0.13908642717E+02 -0.23753670380E+02 -0.28854691755E+02  0.39878320364E+02  0.00000000000E+00 0.  1.
<mgrwt>
<rscale>  0 0.89649859E+02</rscale>
<asrwt>0</asrwt>
<pdfrwt beam="2">  1        2 0.59099337E-02 0.89649859E+02</pdfrwt>
<pdfrwt beam="1">  1       -2 0.80469241E-02 0.89649859E+02</pdfrwt>
<totfact> 0.99129540E+04</totfact>
</mgrwt>
</event>
<event>
 5    1  0.6112843E+000  0.9005457E+02  0.7546771E-02  0.1302720E+00
         -3   -1    0    0    0  501 -0.00000000000E+00  0.00000000000E+00  0.34763890403E+02  0.34763890403E+02  0.00000000000E+00 0.  1.
          3   -1    0    0  501    0  0.00000000000E+00 -0.00000000000E+00 -0.58320756933E+02  0.58320756933E+02  0.00000000000E+00 0. -1.
         23    2    1    2    0    0  0.00000000000E+00  0.00000000000E+00 -0.23556866530E+02  0.93084647335E+02  0.90054570172E+02 0.  0.
        -13    1    3    3    0    0  0.28118017495E+02  0.32065317894E+02  0.31522723179E+01  0.42763820459E+02  0.00000000000E+00 0.  1.
         13    1    3    3    0    0 -0.28118017495E+02 -0.32065317894E+02 -0.26709138848E+02  0.50320826876E+02  0.00000000000E+00 0. -1.
<mgrwt>
<rscale>  0 0.90054570E+02</rscale>
<asrwt>0</asrwt>
<pdfrwt beam="2">  1        3 0.89724241E-02 0.90054570E+02</pdfrwt>
<pdfrwt beam="1">  1       -3 0.53482908E-02 0.90054570E+02</pdfrwt>
<totfact> 0.36397439E+04</totfact>
</mgrwt>
</event>
<event>
 5    1  0.6112843E+000  0.6015316E+02  0.7546771E-02  0.1397190E+00
          1   -1    0    0  501    0  0.00000000000E+00  0.00000000000E+00  0.46943984848E+02  0.46943984848E+02  0.00000000000E+00 0. -1.
         -1   -1    0    0    0  501 -0.00000000000E+00 -0.00000000000E+00 -0.19269789749E+02  0.19269789749E+02  0.00000000000E+00 0.  1.
         23    2    1    2    0    0  0.00000000000E+00  0.00000000000E+00  0.27674195099E+02  0.66213774597E+02  0.60153161779E+02 0.  0.
        -13    1    3    3    0    0 -0.94326100373E+01  0.24671497747E+02  0.29672025082E+02  0.39725130656E+02  0.00000000000E+00 0. -1.
         13    1    3    3    0    0  0.94326100373E+01 -0.24671497747E+02 -0.19978299829E+01  0.26488643941E+02  0.00000000000E+00 0.  1.
<mgrwt>
<rscale>  0 0.60153162E+02</rscale>
<asrwt>0</asrwt>
<pdfrwt beam="1">  1        1 0.72221515E-02 0.60153162E+02</pdfrwt>
<pdfrwt beam="2">  1       -1 0.29645831E-02 0.60153162E+02</pdfrwt>
<totfact> 0.28695235E+05</totfact>
</mgrwt>
</event>
<event>
 5    1  0.6112843E+000  0.9067157E+02  0.7546771E-02  0.1301233E+00
          2   -1    0    0  501    0  0.00000000000E+00  0.00000000000E+00  0.14513244871E+03  0.14513244871E+03  0.00000000000E+00 0.  1.
         -2   -1    0    0    0  501 -0.00000000000E+00 -0.00000000000E+00 -0.14161777189E+02  0.14161777189E+02  0.00000000000E+00 0. -1.
         23    2    1    2    0    0  0.00000000000E+00  0.00000000000E+00  0.13097067152E+03  0.15929422590E+03  0.90671570001E+02 0.  0.
        -13    1    3    3    0    0  0.37675626600E+02  0.25167053095E+02  0.68263122766E+02  0.81930991272E+02  0.00000000000E+00 0. -1.
         13    1    3    3    0    0 -0.37675626600E+02 -0.25167053095E+02  0.62707548759E+02  0.77363234630E+02  0.00000000000E+00 0.  1.
<mgrwt>
<rscale>  0 0.90671570E+02</rscale>
<asrwt>0</asrwt>
<pdfrwt beam="1">  1        2 0.22328068E-01 0.90671570E+02</pdfrwt>
<pdfrwt beam="2">  1       -2 0.21787350E-02 0.90671570E+02</pdfrwt>
<totfact> 0.14035739E+05</totfact>
</mgrwt>
</event>
<event>
 5    1  0.6112843E+000  0.8927432E+02  0.7546771E-02  0.1304619E+00
          3   -1    0    0  501    0  0.00000000000E+00  0.00000000000E+00  0.19335254955E+03  0.19335254955E+03  0.00000000000E+00 0. -1.
         -3   -1    0    0    0  501 -0.00000000000E+00 -0.00000000000E+00 -0.10304887027E+02  0.10304887027E+02  0.00000000000E+00 0.  1.
         23    2    1    2    0    0  0.00000000000E+00  0.00000000000E+00  0.18304766252E+03  0.20365743658E+03  0.89274322838E+02 0.  0.
        -13    1    3    3    0    0  0.29649417393E+02  0.29364746434E+02  0.12767288834E+03  0.13431955443E+03  0.00000000000E+00 0.  1.
         13    1    3    3    0    0 -0.29649417393E+02 -0.29364746434E+02  0.55374774179E+02  0.69337882145E+02  0.00000000000E+00 0. -1.
<mgrwt>
<rscale>  0 0.89274323E+02</rscale>
<asrwt>0</asrwt>
<pdfrwt beam="1">  1        3 0.29746543E-01 0.89274323E+02</pdfrwt>
<pdfrwt beam="2">  1       -3 0.15853674E-02 0.89274323E+02</pdfrwt>
<totfact> 0.29963099E+04</totfact>
</mgrwt>
</event>
<event>
 5    1  0.6112843E+000  0.9762891E+02  0.7546771E-02  0.1285363E+00
          1   -1    0    0  501    0  0.00000000000E+00  0.00000000000E+00  0.96406906663E+02  0.96406906663E+02  0.00000000000E+00 0. -1.
         -1   -1    0    0    0  501 -0.00000000000E+00 -0.00000000000E+00 -0.24716600098E+02  0.24716600098E+02  0.00000000000E+00 0.  1.
         23    2    1    2    0    0  0.00000000000E+00  0.00000000000E+00  0.71690306565E+02  0.12112350676E+03  0.97628908806E+02 0.  0.
        -13    1    3    3    0    0  0.70797107128E+01  0.25819335749E+02 -0.14795500296E+02  0.30588678155E+02  0.00000000000E+00 0.  1.
         13    1    3    3    0    0 -0.70797107128E+01 -0.25819335749E+02  0.86485806860E+02  0.90534828605E+02  0.00000000000E+00 0. -1.
<mgrwt>
<rscale>  0 0.97628909E+02</rscale>
<asrwt>0</asrwt>
<pdfrwt beam="1">  1        1 0.14831832E-01 0.97628909E+02</pdfrwt>
<pdfrwt beam="2">  1       -1 0.38025539E-02 0.97628909E+02</pdfrwt>
<totfact> 0.86064810E+04</totfact>
</mgrwt>
</event>
<event>
 5    1  0.6112843E+000  0.9195993E+02  0.7546771E-02  0.1298174E+00
         -1   -1    0    0    0  501 -0.00000000000E+00  0.00000000000E+00  0.58578394841E+02  0.58578394841E+02  0.00000000000E+00 0.  1.
          1   -1    0    0  501    0  0.00000000000E+00 -0.00000000000E+00 -0.36091075732E+02  0.36091075732E+02  0.00000000000E+00 0. -1.
         23    2    1    2    0    0  0.00000000000E+00  0.00000000000E+00  0.22487319109E+02  0.94669470574E+02  0.91959932242E+02 0.  0.
        -13    1    3    3    0    0 -0.33374425116E+02  0.24477891447E+02 -0.93748910999E+01  0.42437106460E+02  0.00000000000E+00 0. -1.
         13    1    3    3    0    0  0.33374425116E+02 -0.24477891447E+02  0.31862210209E+02  0.52232364114E+02  0.00000000000E+00 0.  1.
<mgrwt>
<rscale>  0 0.91959932E+02</rscale>
<asrwt>0</asrwt>
<pdfrwt beam="2">  1        1 0.55524732E-02 0.91959932E+02</pdfrwt>
<pdfrwt beam="1">  1       -1 0.90120607E-02 0.91959932E+02</pdfrwt>
<totfact> 0.87102024E+04</totfact>
</mgrwt>
</event>
<event>
 5    1  0.6112843E+000  0.8999715E+02  0.7546771E-02  0.1302859E+00
          2   -1    0    0  501    0  0.00000000000E+00  0.00000000000E+00  0.46219866430E+02  0.46219866430E+02  0.00000000000E+00 0. -1.
         -2   -1    0    0    0  501 -0.00000000000E+00 -0.00000000000E+00 -0.43809558179E+02  0.43809558179E+02  0.00000000000E+00 0.  1.
         23    2    1    2    0    0  0.00000000000E+00  0.00000000000E+00  0.24103082511E+01  0.90029424608E+02  0.89997153896E+02 0.  0.
        -13    1    3    3    0    0  0.25883729056E+02  0.21190424582E+02 -0.28903319178E+02  0.44208634714E+02  0.00000000000E+00 0.  1.
         13    1    3    3    0    0 -0.25883729056E+02 -0.21190424582E+02  0.31313627429E+02  0.45820789894E+02  0.00000000000E+00 0. -1.
<mgrwt>
<rscale>  0 0.89997154E+02</rscale>
<asrwt>0</asrwt>
<pdfrwt beam="1">  1        2 0.71107487E-02 0.89997154E+02</pdfrwt>
<pdfrwt beam="2">  1       -2 0.67399320E-02 0.89997154E+02</pdfrwt>
<totfact> 0.10278717E+05</totfact>
</mgrwt>
</event>
<event>
 5    1  0.6112843E+000  0.8611911E+02  0.7546771E-02  0.1312532E+00
         -2   -1    0    0    0  501 -0.00000000000E+00  0.00000000000E+00  0.10397344511E+03  0.10397344511E+03  0.00000000000E+00 0.  1.
          2   -1    0    0  501    0  0.00000000000E+00 -0.00000000000E+00 -0.17832679557E+02  0.17832679557E+02  0.00000000000E+00 0. -1.
         23    2    1    2    0    0  0.00000000000E+00  0.00000000000E+00  0.86140765554E+02  0.12180612467E+03  0.86119106568E+02 0.  0.
        -13    1    3    3    0    0 -0.26311776265E+02 -0.29784763117E+02  0.66511907325E+02  0.77480807302E+02  0.00000000000E+00 0.  1.
         13    1    3    3    0    0  0.26311776265E+02  0.29784763117E+02  0.19628858229E+02  0.44325317365E+02  0.00000000000E+00 0. -1.
<mgrwt>
<rscale>  0 0.86119107E+02</rscale>
<asrwt>0</asrwt>
<pdfrwt beam="2">  1        2 0.27434892E-02 0.86119107E+02</pdfrwt>
<pdfrwt beam="1">  1       -2 0.15995914E-01 0.86119107E+02</pdfrwt>
<totfact> 0.90930701E+04</totfact>
</mgrwt>
</event>
<event>
 5    1  0.6112843E+000  0.9123091E+02  0.7546771E-02  0.1299898E+00
         -3   -1    0    0    0  501 -0.00000000000E+00  0.00000000000E+00  0.92776959137E+01  0.92776959137E+01  0.00000000000E+00 0.  1.
          3   -1    0    0  501    0  0.00000000000E+00 -0.00000000000E+00 -0.22427657766E+03  0.22427657766E+03  0.00000000000E+00 0. -1.
         23    2    1    2    0    0  0.00000000000E+00  0.00000000000E+00 -0.21499888175E+03  0.23355427358E+03  0.91230913360E+02 0.  0.
        -13    1    3    3    0    0 -0.22236715930E+02  0.38458780048E+02 -0.13400792490E+03  0.14117957797E+03  0.00000000000E+00 0. -1.
         13    1    3    3    0    0  0.22236715930E+02 -0.38458780048E+02 -0.80990956849E+02  0.92374695612E+02  0.00000000000E+00 0.  1.
<mgrwt>
<rscale>  0 0.91230913E+02</rscale>
<asrwt>0</asrwt>
<pdfrwt beam="2">  1        3 0.34504086E-01 0.91230913E+02</pdfrwt>
<pdfrwt beam="1">  1       -3 0.14273379E-02 0.91230913E+02</pdfrwt>
<totfact> 0.26809073E+04</totfact>
</mgrwt>
</event>
<event>
 5    1  0.6112843E+000  0.9152849E+02  0.7546771E-02  0.1299192E+00
         -1   -1    0    0    0  501 -0.00000000000E+00  0.00000000000E+00  0.71131811702E+02  0.71131811702E+02  0.00000000000E+00 0.  1.
          1   -1    0    0  501    0  0.00000000000E+00 -0.00000000000E+00 -0.29443450505E+02  0.29443450505E+02  0.00000000000E+00 0. -1.
         23    2    1    2    0    0  0.00000000000E+00  0.00000000000E+00  0.41688361197E+02  0.10057526221E+03  0.91528486870E+02 0.  0.
        -13    1    3    3    0    0 -0.27664477371E+02 -0.20047050101E+02  0.54303096968E+02  0.64156323665E+02  0.00000000000E+00 0.  1.
         13    1    3    3    0    0  0.27664477371E+02  0.20047050101E+02 -0.12614735770E+02  0.36418938542E+02  0.00000000000E+00 0. -1.
<mgrwt>
<rscale>  0 0.91528487E+02</rscale>
<asrwt>0</asrwt>
<pdfrwt beam="2">  1        1 0.45297616E-02 0.91528487E+02</pdfrwt>
<pdfrwt beam="1">  1       -1 0.10943356E-01 0.91528487E+02</pdfrwt>
<totfact> 0.85470256E+04</totfact>
</mgrwt>
</event>
<event>
 5    1  0.6112843E+000  0.9207253E+02  0.7546771E-02  0.1297909E+00
         -1   -1    0    0    0  501 -0.00000000000E+00  0.00000000000E+00  0.17727310286E+03  0.17727310286E+03  0.00000000000E+00 0.  1.
          1   -1    0    0  501    0  0.00000000000E+00 -0.00000000000E+00 -0.11955212450E+02  0.11955212450E+02  0.00000000000E+00 0. -1.
         23    2    1    2    0    0  0.00000000000E+00  0.00000000000E+00  0.16531789041E+03  0.18922831531E+03  0.92072528071E+02 0.  0.
        -13    1    3    3    0    0 -0.27730633611E+02  0.36377370810E+02  0.93345333705E+02  0.10395024037E+03  0.00000000000E+00 0.  1.
         13    1    3    3    0    0  0.27730633611E+02 -0.36377370810E+02  0.71972556704E+02  0.85278074944E+02  0.00000000000E+00 0. -1.
<mgrwt>
<rscale>  0 0.92072528E+02</rscale>
<asrwt>0</asrwt>
<pdfrwt beam="2">  1        1 0.18392636E-02 0.92072528E+02</pdfrwt>
<pdfrwt beam="1">  1       -1 0.27272783E-01 0.92072528E+02</pdfrwt>
<totfact> 0.69953930E+04</totfact>
</mgrwt>
</event>
<event>
 5    1  0.6112843E+000  0.9292133E+02  0.7546771E-02  0.1295928E+00
         -2   -1    0    0    0  501 -0.00000000000E+00  0.00000000000E+00  0.17885349101E+02  0.17885349101E+02  0.00000000000E+00 0. -1.
          2   -1    0    0  501    0  0.00000000000E+00 -0.00000000000E+00 -0.12069058738E+03  0.12069058738E+03  0.00000000000E+00 0.  1.
         23    2    1    2    0    0  0.00000000000E+00  0.00000000000E+00 -0.10280523828E+03  0.13857593648E+03  0.92921327767E+02 0.  0.
        -13    1    3    3    0    0 -0.16015377875E+02  0.22077337406E+02  0.46896984829E+01  0.27674797692E+02  0.00000000000E+00 0. -1.
         13    1    3    3    0    0  0.16015377875E+02 -0.22077337406E+02 -0.10749493676E+03  0.11090113879E+03  0.00000000000E+00 0.  1.
<mgrwt>
<rscale>  0 0.92921328E+02</rscale>
<asrwt>0</asrwt>
<pdfrwt beam="2">  1        2 0.18567784E-01 0.92921328E+02</pdfrwt>
<pdfrwt beam="1">  1       -2 0.27515920E-02 0.92921328E+02</pdfrwt>
<totfact> 0.12352097E+05</totfact>
</mgrwt>
</event>
<event>
 5    1  0.6112843E+000  0.9118296E+02  0.7546771E-02  0.1300012E+00
         -2   -1    0    0    0  501 -0.00000000000E+00  0.00000000000E+00  0.93578131413E+01  0.93578131413E+01  0.00000000000E+00 0.  1.
          2   -1    0    0  501    0  0.00000000000E+00 -0.00000000000E+00 -0.22212275863E+03  0.22212275863E+03  0.00000000000E+00 0. -1.
         23    2    1    2    0    0  0.00000000000E+00  0.00000000000E+00 -0.21276494549E+03  0.23148057177E+03  0.91182964850E+02 0.  0.
        -13    1    3    3    0    0  0.31340479527E+02  0.29256388447E+02 -0.67019548830E+02  0.79559926140E+02  0.00000000000E+00 0.  1.
         13    1    3    3    0    0 -0.31340479527E+02 -0.29256388447E+02 -0.14574539666E+03  0.15192064563E+03  0.00000000000E+00 0. -1.
<mgrwt>
<rscale>  0 0.91182965E+02</rscale>
<asrwt>0</asrwt>
<pdfrwt beam="2">  1        2 0.34172734E-01 0.91182965E+02</pdfrwt>
<pdfrwt beam="1">  1       -2 0.14396635E-02 0.91182965E+02</pdfrwt>
<totfact> 0.16067564E+05</totfact>
</mgrwt>
</event>
<event>
 5    1  0.6112843E+000  0.9028595E+02  0.7546771E-02  0.1302161E+00
         -2   -1    0    0    0  501 -0.00000000000E+00  0.00000000000E+00  0.97218408367E+02  0.97218408367E+02  0.00000000000E+00 0.  1.
          2   -1    0    0  501    0  0.00000000000E+00 -0.00000000000E+00 -0.20961956300E+02  0.20961956300E+02  0.00000000000E+00 0. -1.
         23    2    1    2    0    0  0.00000000000E+00  0.00000000000E+00  0.76256452067E+02  0.11818036467E+03  0.90285946364E+02 0.  0.
        -13    1    3    3    0    0 -0.97768883212E+00  0.26041476242E+02  0.86378383167E+02  0.90223829662E+02  0.00000000000E+00 0.  1.
         13    1    3    3    0    0  0.97768883212E+00 -0.26041476242E+02 -0.10121931100E+02  0.27956535005E+02  0.00000000000E+00 0. -1.
<mgrwt>
<rscale>  0 0.90285946E+02</rscale>
<asrwt>0</asrwt>
<pdfrwt beam="2">  1        2 0.32249164E-02 0.90285946E+02</pdfrwt>
<pdfrwt beam="1">  1       -2 0.14956678E-01 0.90285946E+02</pdfrwt>
<totfact> 0.82463444E+04</totfact>
</mgrwt>
</event>
<event>
 5    1  0.6112843E+000  0.8876723E+02  0.7546771E-02  0.1305865E+00
         -2   -1    0    0    0  501 -0.00000000000E+00  0.00000000000E+00  0.15262596882E+02  0.15262596882E+02  0.00000000000E+00 0.  1.
          2   -1    0    0  501    0  0.00000000000E+00 -0.00000000000E+00 -0.12906751066E+03  0.12906751066E+03  0.00000000000E+00 0. -1.
         23    2    1    2    0    0  0.00000000000E+00  0.00000000000E+00 -0.11380491377E+03  0.14433010754E+03  0.88767232370E+02 0.  0.
        -13    1    3    3    0    0 -0.23793092705E+02  0.22433390017E+02 -0.10569518144E+03  0.11063832803E+03  0.00000000000E+00 0. -1.
         13    1    3    3    0    0  0.23793092705E+02 -0.22433390017E+02 -0.81097323299E+01  0.33691779510E+02  0.00000000000E+00 0.  1.
<mgrwt>
<rscale>  0 0.88767232E+02</rscale>
<asrwt>0</asrwt>
<pdfrwt beam="2">  1        2 0.19856540E-01 0.88767232E+02</pdfrwt>
<pdfrwt beam="1">  1       -2 0.23480918E-02 0.88767232E+02</pdfrwt>
<totfact> 0.14301559E+05</totfact>
</mgrwt>
</event>
<event>
 5    1  0.6112843E+000  0.9182651E+02  0.7546771E-02  0.1298488E+00
         -4   -1    0    0    0  501 -0.00000000000E+00  0.00000000000E+00  0.40857353978E+02  0.40857353978E+02  0.00000000000E+00 0.  1.
          4   -1    0    0  501    0  0.00000000000E+00 -0.00000000000E+00 -0.51594802057E+02  0.51594802057E+02  0.00000000000E+00 0. -1.
         23    2    1    2    0    0  0.00000000000E+00  0.00000000000E+00 -0.10737448080E+02  0.92452156035E+02  0.91826512316E+02 0.  0.
        -13    1    3    3    0    0  0.71749791524E+01 -0.18938143195E+02 -0.46854973699E+02  0.51044315588E+02  0.00000000000E+00 0. -1.
         13    1    3    3    0    0 -0.71749791524E+01  0.18938143195E+02  0.36117525620E+02  0.41407840446E+02  0.00000000000E+00 0.  1.
<mgrwt>
<rscale>  0 0.91826512E+02</rscale>
<asrwt>0</asrwt>
<pdfrwt beam="2">  1        4 0.79376618E-02 0.91826512E+02</pdfrwt>
<pdfrwt beam="1">  1       -4 0.62857468E-02 0.91826512E+02</pdfrwt>
<totfact> 0.26419200E+04</totfact>
</mgrwt>
</event>
<event>
 5    1  0.6112843E+000  0.9162498E+02  0.7546771E-02  0.1298964E+00
          2   -1    0    0  501    0  0.00000000000E+00  0.00000000000E+00  0.38841921017E+03  0.38841921017E+03  0.00000000000E+00 0. -1.
         -2   -1    0    0    0  501 -0.00000000000E+00 -0.00000000000E+00 -0.54033999786E+01  0.54033999786E+01  0.00000000000E+00 0.  1.
         23    2    1    2    0    0  0.00000000000E+00  0.00000000000E+00  0.38301581019E+03  0.39382261015E+03  0.91624982443E+02 0.  0.
        -13    1    3    3    0    0 -0.40313997344E+02 -0.18654358122E+02  0.23967478616E+03  0.24375644931E+03  0.00000000000E+00 0.  1.
         13    1    3    3    0    0  0.40313997344E+02  0.18654358122E+02  0.14334102403E+03  0.15006616084E+03  0.00000000000E+00 0. -1.
<mgrwt>
<rscale>  0 0.91624982E+02</rscale>
<asrwt>0</asrwt>
<pdfrwt beam="1">  1        2 0.59756779E-01 0.91624982E+02</pdfrwt>
<pdfrwt beam="2">  1       -2 0.83129261E-03 0.91624982E+02</pdfrwt>
<totfact> 0.19497294E+05</totfact>
</mgrwt>
</event>
<event>
 5    1  0.6112843E+000  0.9445829E+02  0.7546771E-02  0.1292401E+00
         -1   -1    0    0    0  501 -0.00000000000E+00  0.00000000000E+00  0.11763587660E+03  0.11763587660E+03  0.00000000000E+00 0.  1.
          1   -1    0    0  501    0  0.00000000000E+00 -0.00000000000E+00 -0.18961834067E+02  0.18961834067E+02  0.00000000000E+00 0. -1.
         23    2    1    2    0    0  0.00000000000E+00  0.00000000000E+00  0.98674042534E+02  0.13659771067E+03  0.94458286506E+02 0.  0.
        -13    1    3    3    0    0  0.42283792335E+02  0.60860858482E+01  0.78462273565E+02  0.89338054088E+02  0.00000000000E+00 0.  1.
         13    1    3    3    0    0 -0.42283792335E+02 -0.60860858482E+01  0.20211768969E+02  0.47259656580E+02  0.00000000000E+00 0. -1.
<mgrwt>
<rscale>  0 0.94458287E+02</rscale>
<asrwt>0</asrwt>
<pdfrwt beam="2">  1        1 0.29172053E-02 0.94458287E+02</pdfrwt>
<pdfrwt beam="1">  1       -1 0.18097827E-01 0.94458287E+02</pdfrwt>
<totfact> 0.71953895E+04</totfact>
</mgrwt>
</event>
<event>
 5    1  0.6112843E+000  0.9077324E+02  0.7546771E-02  0.1300990E+00
          1   -1    0    0  501    0  0.00000000000E+00  0.00000000000E+00  0.20444314016E+03  0.20444314016E+03  0.00000000000E+00 0. -1.
         -1   -1    0    0    0  501 -0.00000000000E+00 -0.00000000000E+00 -0.10075884159E+02  0.10075884159E+02  0.00000000000E+00 0.  1.
         23    2    1    2    0    0  0.00000000000E+00  0.00000000000E+00  0.19436725600E+03  0.21451902432E+03  0.90773242696E+02 0.  0.
        -13    1    3    3    0    0 -0.27139398714E+02  0.22068248446E+02  0.28837707306E+02  0.45333959840E+02  0.00000000000E+00 0.  1.
         13    1    3    3    0    0  0.27139398714E+02 -0.22068248446E+02  0.16552954869E+03  0.16918506448E+03  0.00000000000E+00 0. -1.
<mgrwt>
<rscale>  0 0.90773243E+02</rscale>
<asrwt>0</asrwt>
<pdfrwt beam="1">  1        1 0.31452788E-01 0.90773243E+02</pdfrwt>
<pdfrwt beam="2">  1       -1 0.15501362E-02 0.90773243E+02</pdfrwt>
<totfact> 0.12033417E+05</totfact>
</mgrwt>
</event>
<event>
 5    1  0.6112843E+000  0.9147179E+02  0.7546771E-02  0.1299326E+00
          1   -1    0    0  501    0  0.00000000000E+00  0.00000000000E+00  0.17221367945E+03  0.17221367945E+03  0.00000000000E+00 0. -1.
         -1   -1    0    0    0  501 -0.00000000000E+00 -0.00000000000E+00 -0.12146376460E+02  0.12146376460E+02  0.00000000000E+00 0.  1.
         23    2    1    2    0    0  0.00000000000E+00  0.00000000000E+00  0.16006730299E+03  0.18436005592E+03  0.91471791986E+02 0.  0.
        -13    1    3    3    0    0 -0.41407797074E+02 -0.15118688592E+02  0.10460206059E+03  0.11351110731E+03  0.00000000000E+00 0.  1.
         13    1    3    3    0    0  0.41407797074E+02  0.15118688592E+02  0.55465242400E+02  0.70848948600E+02  0.00000000000E+00 0. -1.
<mgrwt>
<rscale>  0 0.91471792E+02</rscale>
<asrwt>0</asrwt>
<pdfrwt beam="1">  1        1 0.26494411E-01 0.91471792E+02</pdfrwt>
<pdfrwt beam="2">  1       -1 0.18686734E-02 0.91471792E+02</pdfrwt>
<totfact> 0.11405968E+05</totfact>
</mgrwt>
</event>
<event>
 5    1  0.6112843E+000  0.9126953E+02  0.7546771E-02  0.1299806E+00
         -4   -1    0    0    0  501 -0.00000000000E+00  0.00000000000E+00  0.61198468788E+02  0.61198468788E+02  0.00000000000E+00 0.  1.
          4   -1    0    0  501    0  0.00000000000E+00 -0.00000000000E+00 -0.34029145016E+02  0.34029145016E+02  0.00000000000E+00 0. -1.
         23    2    1    2    0    0  0.00000000000E+00  0.00000000000E+00  0.27169323772E+02  0.95227613805E+02  0.91269525455E+02 0.  0.
        -13    1    3    3    0    0 -0.10402063229E+02 -0.96263127922E+01  0.58843979689E+02  0.60526711153E+02  0.00000000000E+00 0.  1.
         13    1    3    3    0    0  0.10402063229E+02  0.96263127922E+01 -0.31674655917E+02  0.34700902652E+02  0.00000000000E+00 0. -1.
<mgrwt>
<rscale>  0 0.91269525E+02</rscale>
<asrwt>0</asrwt>
<pdfrwt beam="2">  1        4 0.52352531E-02 0.91269525E+02</pdfrwt>
<pdfrwt beam="1">  1       -4 0.94151490E-02 0.91269525E+02</pdfrwt>
<totfact> 0.26683546E+04</totfact>
</mgrwt>
</event>
<event>
 5    1  0.6112843E+000  0.9002190E+02  0.7546771E-02  0.1302799E+00
         -1   -1    0    0    0  501 -0.00000000000E+00  0.00000000000E+00  0.16763045077E+02  0.16763045077E+02  0.00000000000E+00 0.  1.
          1   -1    0    0  501    0  0.00000000000E+00 -0.00000000000E+00 -0.12086024878E+03  0.12086024878E+03  0.00000000000E+00 0. -1.
         23    2    1    2    0    0  0.00000000000E+00  0.00000000000E+00 -0.10409720371E+03  0.13762329386E+03  0.90021903965E+02 0.  0.
        -13    1    3    3    0    0 -0.35674795606E+02  0.27421790870E+02 -0.50278822174E+02  0.67472999157E+02  0.00000000000E+00 0.  1.
         13    1    3    3    0    0  0.35674795606E+02 -0.27421790870E+02 -0.53818381532E+02  0.70150294703E+02  0.00000000000E+00 0. -1.
<mgrwt>
<rscale>  0 0.90021904E+02</rscale>
<asrwt>0</asrwt>
<pdfrwt beam="2">  1        1 0.18593885E-01 0.90021904E+02</pdfrwt>
<pdfrwt beam="1">  1       -1 0.25789300E-02 0.90021904E+02</pdfrwt>
<totfact> 0.11166108E+05</totfact>
</mgrwt>
</event>
<event>
 5    1  0.6112843E+000  0.8732221E+02  0.7546771E-02  0.1309469E+00
         -2   -1    0    0    0  501 -0.00000000000E+00  0.00000000000E+00  0.52898926029E+02  0.52898926029E+02  0.00000000000E+00 0.  1.
          2   -1    0    0  501    0  0.00000000000E+00 -0.00000000000E+00 -0.36036499121E+02  0.36036499121E+02  0.00000000000E+00 0. -1.
         23    2    1    2    0    0  0.00000000000E+00  0.00000000000E+00  0.16862426908E+02  0.88935425150E+02  0.87322210264E+02 0.  0.
        -13    1    3    3    0    0  0.20221859983E+02  0.31808399411E+01 -0.30846135045E+02  0.37020607925E+02  0.00000000000E+00 0. -1.
         13    1    3    3    0    0 -0.20221859983E+02 -0.31808399411E+01  0.47708561953E+02  0.51914817225E+02  0.00000000000E+00 0.  1.
<mgrwt>
<rscale>  0 0.87322210E+02</rscale>
<asrwt>0</asrwt>
<pdfrwt beam="2">  1        2 0.55440768E-02 0.87322210E+02</pdfrwt>
<pdfrwt beam="1">  1       -2 0.81382963E-02 0.87322210E+02</pdfrwt>
<totfact> 0.10524855E+05</totfact>
</mgrwt>
</event>
<event>
 5    1  0.6112843E+000  0.9200232E+02  0.7546771E-02  0.1298074E+00
          2   -1    0    0  501    0  0.00000000000E+00  0.00000000000E+00  0.98691754534E+02  0.98691754534E+02  0.00000000000E+00 0. -1.
         -2   -1    0    0    0  501 -0.00000000000E+00 -0.00000000000E+00 -0.21441576850E+02  0.21441576850E+02  0.00000000000E+00 0.  1.
         23    2    1    2    0    0  0.00000000000E+00  0.00000000000E+00  0.77250177684E+02  0.12013333138E+03  0.92002322564E+02 0.  0.
        -13    1    3    3    0    0  0.32159544695E+02 -0.30935705946E+02  0.24034810977E+02  0.50684577103E+02  0.00000000000E+00 0.  1.
         13    1    3    3    0    0 -0.32159544695E+02  0.30935705946E+02  0.53215366707E+02  0.69448754281E+02  0.00000000000E+00 0. -1.
<mgrwt>
<rscale>  0 0.92002323E+02</rscale>
<asrwt>0</asrwt>
<pdfrwt beam="1">  1        2 0.15183347E-01 0.92002323E+02</pdfrwt>
<pdfrwt beam="2">  1       -2 0.32987042E-02 0.92002323E+02</pdfrwt>
<totfact> 0.11918546E+05</totfact>
</mgrwt>
</event>
<event>
 5    1  0.6112843E+000  0.9421562E+02  0.7546771E-02  0.1292953E+00
          4   -1    0    0  501    0  0.00000000000E+00  0.00000000000E+00  0.74422658899E+02  0.74422658899E+02  0.00000000000E+00 0. -1.
         -4   -1    0    0    0  501 -0.00000000000E+00 -0.00000000000E+00 -0.29818143804E+02  0.29818143804E+02  0.00000000000E+00 0.  1.
         23    2    1    2    0    0  0.00000000000E+00  0.00000000000E+00  0.44604515096E+02  0.10424080270E+03  0.94215615379E+02 0.  0.
        -13    1    3    3    0    0  0.37032807634E+02  0.25318375360E+02  0.63955060588E+01  0.45313921369E+02  0.00000000000E+00 0.  1.
         13    1    3    3    0    0 -0.37032807634E+02 -0.25318375360E+02  0.38209009037E+02  0.58926881333E+02  0.00000000000E+00 0. -1.
<mgrwt>
<rscale>  0 0.94215615E+02</rscale>
<asrwt>0</asrwt>
<pdfrwt beam="1">  1        4 0.11449640E-01 0.94215615E+02</pdfrwt>
<pdfrwt beam="2">  1       -4 0.45874068E-02 0.94215615E+02</pdfrwt>
<totfact> 0.23963500E+04</totfact>
</mgrwt>
</event>
<event>
 5    1  0.6112843E+000  0.8981401E+02  0.7546771E-02  0.1303303E+00
          2   -1    0    0  501    0  0.00000000000E+00  0.00000000000E+00  0.32439615782E+03  0.32439615782E+03  0.00000000000E+00 0.  1.
         -2   -1    0    0    0  501 -0.00000000000E+00 -0.00000000000E+00 -0.62165938580E+01  0.62165938580E+01  0.00000000000E+00 0. -1.
         23    2    1    2    0    0  0.00000000000E+00  0.00000000000E+00  0.31817956396E+03  0.33061275168E+03  0.89814011429E+02 0.  0.
        -13    1    3    3    0    0 -0.23772269191E+02  0.33451804536E+02  0.22621228847E+03  0.22990463994E+03  0.00000000000E+00 0.  1.
         13    1    3    3    0    0  0.23772269191E+02 -0.33451804536E+02  0.91967275489E+02  0.10070811174E+03  0.00000000000E+00 0. -1.
<mgrwt>
<rscale>  0 0.89814011E+02</rscale>
<asrwt>0</asrwt>
<pdfrwt beam="1">  1        2 0.49907088E-01 0.89814011E+02</pdfrwt>
<pdfrwt beam="2">  1       -2 0.95639931E-03 0.89814011E+02</pdfrwt>
<totfact> 0.19251379E+05</totfact>
</mgrwt>
</event>
<event>
 5    1  0.6112843E+000  0.9484985E+02  0.7546771E-02  0.1291515E+00
          4   -1    0    0  501    0  0.00000000000E+00  0.00000000000E+00  0.30070005986E+02  0.30070005986E+02  0.00000000000E+00 0. -1.
         -4   -1    0    0    0  501 -0.00000000000E+00 -0.00000000000E+00 -0.74796250595E+02  0.74796250595E+02  0.00000000000E+00 0.  1.
         23    2    1    2    0    0  0.00000000000E+00  0.00000000000E+00 -0.44726244610E+02  0.10486625658E+03  0.94849854045E+02 0.  0.
        -13    1    3    3    0    0  0.24572052829E+02 -0.39949942466E+02 -0.30129146834E+02  0.55745395974E+02  0.00000000000E+00 0. -1.
         13    1    3    3    0    0 -0.24572052829E+02  0.39949942466E+02 -0.14597097776E+02  0.49120860607E+02  0.00000000000E+00 0.  1.
<mgrwt>
<rscale>  0 0.94849854E+02</rscale>
<asrwt>0</asrwt>
<pdfrwt beam="1">  1        4 0.46261548E-02 0.94849854E+02</pdfrwt>
<pdfrwt beam="2">  1       -4 0.11507115E-01 0.94849854E+02</pdfrwt>
<totfact> 0.23495370E+04</totfact>
</mgrwt>
</event>
<event>
 5    1  0.6112843E+000  0.8807279E+02  0.7546771E-02  0.1307587E+00
          3   -1    0    0  501    0  0.00000000000E+00  0.00000000000E+00  0.49324058517E+02  0.49324058517E+02  0.00000000000E+00 0. -1.
         -3   -1    0    0    0  501 -0.00000000000E+00 -0.00000000000E+00 -0.39315586269E+02  0.39315586269E+02  0.00000000000E+00 0.  1.
         23    2    1    2    0    0  0.00000000000E+00  0.00000000000E+00  0.10008472249E+02  0.88639644786E+02  0.88072794386E+02 0.  0.
        -13    1    3    3    0    0  0.65229062701E+01  0.22518750265E+02 -0.32512510778E+02  0.40083734566E+02  0.00000000000E+00 0.  1.
         13    1    3    3    0    0 -0.65229062701E+01 -0.22518750265E+02  0.42520983027E+02  0.48555910220E+02  0.00000000000E+00 0. -1.
<mgrwt>
<rscale>  0 0.88072794E+02</rscale>
<asrwt>0</asrwt>
<pdfrwt beam="1">  1        3 0.75883167E-02 0.88072794E+02</pdfrwt>
<pdfrwt beam="2">  1       -3 0.60485517E-02 0.88072794E+02</pdfrwt>
<totfact> 0.39040249E+04</totfact>
</mgrwt>
</event>
<event>
 5    1  0.6112843E+000  0.8962548E+02  0.7546771E-02  0.1303761E+00
         -1   -1    0    0    0  501 -0.00000000000E+00  0.00000000000E+00  0.10894890830E+02  0.10894890830E+02  0.00000000000E+00 0.  1.
          1   -1    0    0  501    0  0.00000000000E+00 -0.00000000000E+00 -0.18432326639E+03  0.18432326639E+03  0.00000000000E+00 0. -1.
         23    2    1    2    0    0  0.00000000000E+00  0.00000000000E+00 -0.17342837557E+03  0.19521815722E+03  0.89625484428E+02 0.  0.
        -13    1    3    3    0    0 -0.31498880719E+02 -0.13416450342E+02 -0.14969266468E+03  0.15355804924E+03  0.00000000000E+00 0. -1.
         13    1    3    3    0    0  0.31498880719E+02  0.13416450342E+02 -0.23735710886E+02  0.41660107988E+02  0.00000000000E+00 0.  1.
<mgrwt>
<rscale>  0 0.89625484E+02</rscale>
<asrwt>0</asrwt>
<pdfrwt beam="2">  1        1 0.28357423E-01 0.89625484E+02</pdfrwt>
<pdfrwt beam="1">  1       -1 0.16761372E-02 0.89625484E+02</pdfrwt>
<totfact> 0.12204424E+05</totfact>
</mgrwt>
</event>
<event>
 5    1  0.6112843E+000  0.9061065E+02  0.7546771E-02  0.1301380E+00
          2   -1    0    0  501    0  0.00000000000E+00  0.00000000000E+00  0.19646452707E+02  0.19646452707E+02  0.00000000000E+00 0. -1.
         -2   -1    0    0    0  501 -0.00000000000E+00 -0.00000000000E+00 -0.10447548600E+03  0.10447548600E+03  0.00000000000E+00 0.  1.
         23    2    1    2    0    0  0.00000000000E+00  0.00000000000E+00 -0.84829033295E+02  0.12412193871E+03  0.90610654889E+02 0.  0.
        -13    1    3    3    0    0 -0.28247972128E+02 -0.48449333709E+01 -0.90479080998E+02  0.94909880450E+02  0.00000000000E+00 0.  1.
         13    1    3    3    0    0  0.28247972128E+02  0.48449333709E+01  0.56500477032E+01  0.29212058260E+02  0.00000000000E+00 0. -1.
<mgrwt>
<rscale>  0 0.90610655E+02</rscale>
<asrwt>0</asrwt>
<pdfrwt beam="1">  1        2 0.30225312E-02 0.90610655E+02</pdfrwt>
<pdfrwt beam="2">  1       -2 0.16073152E-01 0.90610655E+02</pdfrwt>
<totfact> 0.79993839E+04</totfact>
</mgrwt>
</event>
<event>
 5    1  0.6112843E+000  0.9135160E+02  0.7546771E-02  0.1299611E+00
         -2   -1    0    0    0  501 -0.00000000000E+00  0.00000000000E+00  0.35123039365E+02  0.35123039365E+02  0.00000000000E+00 0.  1.
          2   -1    0    0  501    0  0.00000000000E+00 -0.00000000000E+00 -0.59399149381E+02  0.59399149381E+02  0.00000000000E+00 0. -1.
         23    2    1    2    0    0  0.00000000000E+00  0.00000000000E+00 -0.24276110016E+02  0.94522188746E+02  0.91351599044E+02 0.  0.
        -13    1    3    3    0    0  0.12129824534E+02  0.43978220940E+02 -0.14466055401E+02  0.47858994130E+02  0.00000000000E+00 0.  1.
         13    1    3    3    0    0 -0.12129824534E+02 -0.43978220940E+02 -0.98100546157E+01  0.46663194616E+02  0.00000000000E+00 0. -1.
<mgrwt>
<rscale>  0 0.91351599E+02</rscale>
<asrwt>0</asrwt>
<pdfrwt beam="2">  1        2 0.91383306E-02 0.91351599E+02</pdfrwt>
<pdfrwt beam="1">  1       -2 0.54035446E-02 0.91351599E+02</pdfrwt>
<totfact> 0.10521273E+05</totfact>
</mgrwt>
</event>
<event>
 5    1  0.6112843E+000  0.8928462E+02  0.7546771E-02  0.1304593E+00
          1   -1    0    0  501    0  0.00000000000E+00  0.00000000000E+00  0.10569859782E+02  0.10569859782E+02  0.00000000000E+00 0. -1.
         -1   -1    0    0    0  501 -0.00000000000E+00 -0.00000000000E+00 -0.18854895642E+03  0.18854895642E+03  0.00000000000E+00 0.  1.
         23    2    1    2    0    0  0.00000000000E+00  0.00000000000E+00 -0.17797909664E+03  0.19911881621E+03  0.89284624242E+02 0.  0.
        -13    1    3    3    0    0 -0.25247483590E+02 -0.26353497628E+02 -0.14632646151E+03  0.15080907003E+03  0.00000000000E+00 0.  1.
         13    1    3    3    0    0  0.25247483590E+02  0.26353497628E+02 -0.31652635128E+02  0.48309746174E+02  0.00000000000E+00 0. -1.
<mgrwt>
<rscale>  0 0.89284624E+02</rscale>
<asrwt>0</asrwt>
<pdfrwt beam="1">  1        1 0.16261323E-02 0.89284624E+02</pdfrwt>
<pdfrwt beam="2">  1       -1 0.29007531E-01 0.89284624E+02</pdfrwt>
<totfact> 0.74536049E+04</totfact>
</mgrwt>
</event>
<event>
 5    1  0.6112843E+000  0.9077613E+02  0.7546771E-02  0.1300983E+00
         -1   -1    0    0    0  501 -0.00000000000E+00  0.00000000000E+00  0.92374305736E+01  0.92374305736E+01  0.00000000000E+00 0.  1.
          1   -1    0    0  501    0  0.00000000000E+00 -0.00000000000E+00 -0.22301401691E+03  0.22301401691E+03  0.00000000000E+00 0. -1.
         23    2    1    2    0    0  0.00000000000E+00  0.00000000000E+00 -0.21377658634E+03  0.23225144749E+03  0.90776131184E+02 0.  0.
        -13    1    3    3    0    0  0.22092707338E+02  0.39489361417E+02 -0.11596256557E+03  0.12447816675E+03  0.00000000000E+00 0. -1.
         13    1    3    3    0    0 -0.22092707338E+02 -0.39489361417E+02 -0.97814020764E+02  0.10777328074E+03  0.00000000000E+00 0.  1.
<mgrwt>
<rscale>  0 0.90776131E+02</rscale>
<asrwt>0</asrwt>
<pdfrwt beam="2">  1        1 0.34309846E-01 0.90776131E+02</pdfrwt>
<pdfrwt beam="1">  1       -1 0.14211433E-02 0.90776131E+02</pdfrwt>
<totfact> 0.12237784E+05</totfact>
</mgrwt>
</event>
<event>
 5    1  0.6112843E+000  0.9124807E+02  0.7546771E-02  0.1299857E+00
         -3   -1    0    0    0  501 -0.00000000000E+00  0.00000000000E+00  0.23017035465E+02  0.23017035465E+02  0.00000000000E+00 0.  1.
          3   -1    0    0  501    0  0.00000000000E+00 -0.00000000000E+00 -0.90435305864E+02  0.90435305864E+02  0.00000000000E+00 0. -1.
         23    2    1    2    0    0  0.00000000000E+00  0.00000000000E+00 -0.67418270399E+02  0.11345234133E+03  0.91248071593E+02 0.  0.
        -13    1    3    3    0    0 -0.11310990081E+02 -0.33147929264E+02  0.26429538882E+01  0.35124192750E+02  0.00000000000E+00 0.  1.
         13    1    3    3    0    0  0.11310990081E+02  0.33147929264E+02 -0.70061224287E+02  0.78328148579E+02  0.00000000000E+00 0. -1.
<mgrwt>
<rscale>  0 0.91248072E+02</rscale>
<asrwt>0</asrwt>
<pdfrwt beam="2">  1        3 0.13913124E-01 0.91248072E+02</pdfrwt>
<pdfrwt beam="1">  1       -3 0.35410824E-02 0.91248072E+02</pdfrwt>
<totfact> 0.33628678E+04</totfact>
</mgrwt>
</event>
<event>
 5    1  0.6112843E+000  0.9090214E+02  0.7546771E-02  0.1300682E+00
          2   -1    0    0  501    0  0.00000000000E+00  0.00000000000E+00  0.25284188045E+03  0.25284188045E+03  0.00000000000E+00 0. -1.
         -2   -1    0    0    0  501 -0.00000000000E+00 -0.00000000000E+00 -0.81703233539E+01  0.81703233539E+01  0.00000000000E+00 0.  1.
         23    2    1    2    0    0  0.00000000000E+00  0.00000000000E+00  0.24467155709E+03  0.26101220380E+03  0.90902143444E+02 0.  0.
        -13    1    3    3    0    0 -0.40762777037E+02  0.16957120536E+02  0.15334799235E+03  0.15957679871E+03  0.00000000000E+00 0. -1.
         13    1    3    3    0    0  0.40762777037E+02 -0.16957120536E+02  0.91323564740E+02  0.10143540509E+03  0.00000000000E+00 0.  1.
<mgrwt>
<rscale>  0 0.90902143E+02</rscale>
<asrwt>0</asrwt>
<pdfrwt beam="1">  1        2 0.38898745E-01 0.90902143E+02</pdfrwt>
<pdfrwt beam="2">  1       -2 0.12569730E-02 0.90902143E+02</pdfrwt>
<totfact> 0.16993138E+05</totfact>
</mgrwt>
</event>
<event>
 5    1  0.6112843E+000  0.9135393E+02  0.7546771E-02  0.1299606E+00
          1   -1    0    0  501    0  0.00000000000E+00  0.00000000000E+00  0.75567477298E+02  0.75567477298E+02  0.00000000000E+00 0. -1.
         -1   -1    0    0    0  501 -0.00000000000E+00 -0.00000000000E+00 -0.27609565579E+02  0.27609565579E+02  0.00000000000E+00 0.  1.
         23    2    1    2    0    0  0.00000000000E+00  0.00000000000E+00  0.47957911719E+02  0.10317704288E+03  0.91353931937E+02 0.  0.
        -13    1    3    3    0    0  0.10737775698E+02  0.43615687083E+02  0.33344112138E+02  0.55941557012E+02  0.00000000000E+00 0. -1.
         13    1    3    3    0    0 -0.10737775698E+02 -0.43615687083E+02  0.14613799581E+02  0.47235485865E+02  0.00000000000E+00 0.  1.
<mgrwt>
<rscale>  0 0.91353932E+02</rscale>
<asrwt>0</asrwt>
<pdfrwt beam="1">  1        1 0.11625766E-01 0.91353932E+02</pdfrwt>
<pdfrwt beam="2">  1       -1 0.42476255E-02 0.91353932E+02</pdfrwt>
<totfact> 0.99314741E+04</totfact>
</mgrwt>
</event>
<event>
 5    1  0.6112843E+000  0.8944274E+02  0.7546771E-02  0.1304207E+00
          4   -1    0    0  501    0  0.00000000000E+00  0.00000000000E+00  0.19866013972E+03  0.19866013972E+03  0.00000000000E+00 0. -1.
         -4   -1    0    0    0  501 -0.00000000000E+00 -0.00000000000E+00 -0.10067449976E+02  0.10067449976E+02  0.00000000000E+00 0.  1.
         23    2    1    2    0    0  0.00000000000E+00  0.00000000000E+00  0.18859268974E+03  0.20872758969E+03  0.89442741881E+02 0.  0.
        -13    1    3    3    0    0  0.15839382452E+01  0.33302362702E+02  0.16385480804E+03  0.16721230320E+03  0.00000000000E+00 0. -1.
         13    1    3    3    0    0 -0.15839382452E+01 -0.33302362702E+02  0.24737881699E+02  0.41515286496E+02  0.00000000000E+00 0.  1.
<mgrwt>
<rscale>  0 0.89442742E+02</rscale>
<asrwt>0</asrwt>
<pdfrwt beam="1">  1        4 0.30563095E-01 0.89442742E+02</pdfrwt>
<pdfrwt beam="2">  1       -4 0.15488386E-02 0.89442742E+02</pdfrwt>
<totfact> 0.22132056E+04</totfact>
</mgrwt>
</event>
<event>
 5    1  0.6112843E+000  0.1018457E+03  0.7546771E-02  0.1276462E+00
         -2   -1    0    0    0  501 -0.00000000000E+00  0.00000000000E+00  0.17383072869E+02  0.17383072869E+02  0.00000000000E+00 0.  1.
          2   -1    0    0  501    0  0.00000000000E+00 -0.00000000000E+00 -0.14917607503E+03  0.14917607503E+03  0.00000000000E+00 0. -1.
         23    2    1    2    0    0  0.00000000000E+00  0.00000000000E+00 -0.13179300216E+03  0.16655914790E+03  0.10184573791E+03 0.  0.
        -13    1    3    3    0    0  0.34311340472E+01 -0.48022983961E+02 -0.38768523120E+02  0.61814060328E+02  0.00000000000E+00 0.  1.
         13    1    3    3    0    0 -0.34311340472E+01  0.48022983961E+02 -0.93024479038E+02  0.10474508757E+03  0.00000000000E+00 0. -1.
<mgrwt>
<rscale>  0 0.10184574E+03</rscale>
<asrwt>0</asrwt>
<pdfrwt beam="2">  1        2 0.22950166E-01 0.10184574E+03</pdfrwt>
<pdfrwt beam="1">  1       -2 0.26743188E-02 0.10184574E+03</pdfrwt>
<totfact> 0.10309523E+05</totfact>
</mgrwt>
</event>
<event>
 5    1  0.6112843E+000  0.8655723E+02  0.7546771E-02  0.1311410E+00
          1   -1    0    0  501    0  0.00000000000E+00  0.00000000000E+00  0.10844764037E+02  0.10844764037E+02  0.00000000000E+00 0. -1.
         -1   -1    0    0    0  501 -0.00000000000E+00 -0.00000000000E+00 -0.17271361369E+03  0.17271361369E+03  0.00000000000E+00 0.  1.
         23    2    1    2    0    0  0.00000000000E+00  0.00000000000E+00 -0.16186884965E+03  0.18355837772E+03  0.86557226996E+02 0.  0.
        -13    1    3    3    0    0 -0.38676195393E+02  0.10563013949E+02 -0.46372687411E+02  0.61301317208E+02  0.00000000000E+00 0. -1.
         13    1    3    3    0    0  0.38676195393E+02 -0.10563013949E+02 -0.11549616224E+03  0.12225706051E+03  0.00000000000E+00 0.  1.
<mgrwt>
<rscale>  0 0.86557227E+02</rscale>
<asrwt>0</asrwt>
<pdfrwt beam="1">  1        1 0.16684252E-02 0.86557227E+02</pdfrwt>
<pdfrwt beam="2">  1       -1 0.26571326E-01 0.86557227E+02</pdfrwt>
<totfact> 0.82681064E+04</totfact>
</mgrwt>
</event>
<event>
 5    1  0.6112843E+000  0.9120085E+02  0.7546771E-02  0.1299969E+00
         -1   -1    0    0    0  501 -0.00000000000E+00  0.00000000000E+00  0.43103349356E+02  0.43103349356E+02  0.00000000000E+00 0.  1.
          1   -1    0    0  501    0  0.00000000000E+00 -0.00000000000E+00 -0.48242165411E+02  0.48242165411E+02  0.00000000000E+00 0. -1.
         23    2    1    2    0    0  0.00000000000E+00  0.00000000000E+00 -0.51388160550E+01  0.91345514767E+02  0.91200853273E+02 0.  0.
        -13    1    3    3    0    0  0.26662892789E+02  0.13216734647E+02 -0.37175725163E+02  0.47619601720E+02  0.00000000000E+00 0. -1.
         13    1    3    3    0    0 -0.26662892789E+02 -0.13216734647E+02  0.32036909108E+02  0.43725913047E+02  0.00000000000E+00 0.  1.
<mgrwt>
<rscale>  0 0.91200853E+02</rscale>
<asrwt>0</asrwt>
<pdfrwt beam="2">  1        1 0.74218716E-02 0.91200853E+02</pdfrwt>
<pdfrwt beam="1">  1       -1 0.66312845E-02 0.91200853E+02</pdfrwt>
<totfact> 0.93192769E+04</totfact>
</mgrwt>
</event>
<event>
 5    1  0.6112843E+000  0.8914555E+02  0.7546771E-02  0.1304934E+00
         -1   -1    0    0    0  501 -0.00000000000E+00  0.00000000000E+00  0.23636989104E+03  0.23636989104E+03  0.00000000000E+00 0.  1.
          1   -1    0    0  501    0  0.00000000000E+00 -0.00000000000E+00 -0.84051842202E+01  0.84051842202E+01  0.00000000000E+00 0. -1.
         23    2    1    2    0    0  0.00000000000E+00  0.00000000000E+00  0.22796470682E+03  0.24477507527E+03  0.89145554647E+02 0.  0.
        -13    1    3    3    0    0 -0.36492350397E+02 -0.22013023826E+02  0.14983229513E+03  0.15577542013E+03  0.00000000000E+00 0.  1.
         13    1    3    3    0    0  0.36492350397E+02  0.22013023826E+02  0.78132411699E+02  0.88999655130E+02  0.00000000000E+00 0. -1.
<mgrwt>
<rscale>  0 0.89145555E+02</rscale>
<asrwt>0</asrwt>
<pdfrwt beam="2">  1        1 0.12931054E-02 0.89145555E+02</pdfrwt>
<pdfrwt beam="1">  1       -1 0.36364594E-01 0.89145555E+02</pdfrwt>
<totfact> 0.69970354E+04</totfact>
</mgrwt>
</event>
<event>
 5    1  0.6112843E+000  0.9240355E+02  0.7546771E-02  0.1297133E+00
          1   -1    0    0  501    0  0.00000000000E+00  0.00000000000E+00  0.30217148639E+03  0.30217148639E+03  0.00000000000E+00 0. -1.
         -1   -1    0    0    0  501 -0.00000000000E+00 -0.00000000000E+00 -0.70642142978E+01  0.70642142978E+01  0.00000000000E+00 0.  1.
         23    2    1    2    0    0  0.00000000000E+00  0.00000000000E+00  0.29510727209E+03  0.30923570069E+03  0.92403552628E+02 0.  0.
        -13    1    3    3    0    0 -0.32586975893E+02  0.24450817815E+02  0.74628126233E+02  0.85024177237E+02  0.00000000000E+00 0.  1.
         13    1    3    3    0    0  0.32586975893E+02 -0.24450817815E+02  0.22047914586E+03  0.22421152345E+03  0.00000000000E+00 0. -1.
<mgrwt>
<rscale>  0 0.92403553E+02</rscale>
<asrwt>0</asrwt>
<pdfrwt beam="1">  1        1 0.46487911E-01 0.92403553E+02</pdfrwt>
<pdfrwt beam="2">  1       -1 0.10868024E-02 0.92403553E+02</pdfrwt>
<totfact> 0.12380431E+05</totfact>
</mgrwt>
</event>
<event>
 5    1  0.6112843E+000  0.8577865E+02  0.7546771E-02  0.1313409E+00
          1   -1    0    0  501    0  0.00000000000E+00  0.00000000000E+00  0.35218571571E+02  0.35218571571E+02  0.00000000000E+00 0. -1.
         -1   -1    0    0    0  501 -0.00000000000E+00 -0.00000000000E+00 -0.52230796043E+02  0.52230796043E+02  0.00000000000E+00 0.  1.
         23    2    1    2    0    0  0.00000000000E+00  0.00000000000E+00 -0.17012224472E+02  0.87449367613E+02  0.85778646028E+02 0.  0.
        -13    1    3    3    0    0 -0.41415255621E+02 -0.22219362639E+00 -0.19868652944E+02  0.45935129672E+02  0.00000000000E+00 0.  1.
         13    1    3    3    0    0  0.41415255621E+02  0.22219362639E+00  0.28564284725E+01  0.41514237941E+02  0.00000000000E+00 0. -1.
<mgrwt>
<rscale>  0 0.85778646E+02</rscale>
<asrwt>0</asrwt>
<pdfrwt beam="1">  1        1 0.54182418E-02 0.85778646E+02</pdfrwt>
<pdfrwt beam="2">  1       -1 0.80355071E-02 0.85778646E+02</pdfrwt>
<totfact> 0.10564738E+05</totfact>
</mgrwt>
</event>
<event>
 5    1  0.6112843E+000  0.9347532E+02  0.7546771E-02  0.1294647E+00
          1   -1    0    0  501    0  0.00000000000E+00  0.00000000000E+00  0.17678880688E+02  0.17678880688E+02  0.00000000000E+00 0.  1.
         -1   -1    0    0    0  501 -0.00000000000E+00 -0.00000000000E+00 -0.12356035823E+03  0.12356035823E+03  0.00000000000E+00 0. -1.
         23    2    1    2    0    0  0.00000000000E+00  0.00000000000E+00 -0.10588147755E+03  0.14123923892E+03  0.93475319329E+02 0.  0.
        -13    1    3    3    0    0 -0.44642546373E+02 -0.51164046374E+01 -0.33515737388E+02  0.56057463337E+02  0.00000000000E+00 0.  1.
         13    1    3    3    0    0  0.44642546373E+02  0.51164046374E+01 -0.72365740158E+02  0.85181775584E+02  0.00000000000E+00 0. -1.
<mgrwt>
<rscale>  0 0.93475319E+02</rscale>
<asrwt>0</asrwt>
<pdfrwt beam="1">  1        1 0.27198279E-02 0.93475319E+02</pdfrwt>
<pdfrwt beam="2">  1       -1 0.19009285E-01 0.93475319E+02</pdfrwt>
<totfact> 0.73183211E+04</totfact>
</mgrwt>
</event>
<event>
 5    1  0.6112843E+000  0.1269015E+03  0.7546771E-02  0.1232127E+00
          1   -1    0    0  501    0  0.00000000000E+00  0.00000000000E+00  0.12712996589E+02  0.12712996589E+02  0.00000000000E+00 0. -1.
         -1   -1    0    0    0  501 -0.00000000000E+00 -0.00000000000E+00 -0.31668362644E+03  0.31668362644E+03  0.00000000000E+00 0.  1.
         23    2    1    2    0    0  0.00000000000E+00  0.00000000000E+00 -0.30397062985E+03  0.32939662302E+03  0.12690150295E+03 0.  0.
        -13    1    3    3    0    0 -0.14591189899E+02  0.61346648352E+02 -0.17028146335E+03  0.18158218758E+03  0.00000000000E+00 0.  1.
         13    1    3    3    0    0  0.14591189899E+02 -0.61346648352E+02 -0.13368916650E+03  0.14781443544E+03  0.00000000000E+00 0. -1.
<mgrwt>
<rscale>  0 0.12690150E+03</rscale>
<asrwt>0</asrwt>
<pdfrwt beam="1">  1        1 0.19558457E-02 0.12690150E+03</pdfrwt>
<pdfrwt beam="2">  1       -1 0.48720556E-01 0.12690150E+03</pdfrwt>
<totfact> 0.24731417E+04</totfact>
</mgrwt>
</event>
<event>
 5    1  0.6112843E+000  0.8855983E+02  0.7546771E-02  0.1306377E+00
          3   -1    0    0  501    0  0.00000000000E+00  0.00000000000E+00  0.16698127602E+02  0.16698127602E+02  0.00000000000E+00 0. -1.
         -3   -1    0    0    0  501 -0.00000000000E+00 -0.00000000000E+00 -0.11742101497E+03  0.11742101497E+03  0.00000000000E+00 0.  1.
         23    2    1    2    0    0  0.00000000000E+00  0.00000000000E+00 -0.10072288736E+03  0.13411914257E+03  0.88559834939E+02 0.  0.
        -13    1    3    3    0    0  0.11342076607E+02  0.42787613805E+02 -0.48642367146E+02  0.65768552352E+02  0.00000000000E+00 0.  1.
         13    1    3    3    0    0 -0.11342076607E+02 -0.42787613805E+02 -0.52080520218E+02  0.68350590217E+02  0.00000000000E+00 0. -1.
<mgrwt>
<rscale>  0 0.88559835E+02</rscale>
<asrwt>0</asrwt>
<pdfrwt beam="1">  1        3 0.25689426E-02 0.88559835E+02</pdfrwt>
<pdfrwt beam="2">  1       -3 0.18064772E-01 0.88559835E+02</pdfrwt>
<totfact> 0.34954827E+04</totfact>
</mgrwt>
</event>
<event>
 5    1  0.6112843E+000  0.9191137E+02  0.7546771E-02  0.1298288E+00
         -1   -1    0    0    0  501 -0.00000000000E+00  0.00000000000E+00  0.57294953333E+02  0.57294953333E+02  0.00000000000E+00 0.  1.
          1   -1    0    0  501    0  0.00000000000E+00 -0.00000000000E+00 -0.36860576372E+02  0.36860576372E+02  0.00000000000E+00 0. -1.
         23    2    1    2    0    0  0.00000000000E+00  0.00000000000E+00  0.20434376961E+02  0.94155529705E+02  0.91911370419E+02 0.  0.
        -13    1    3    3    0    0  0.25661722307E+02  0.32630033526E+02  0.30413579062E+02  0.51460945104E+02  0.00000000000E+00 0.  1.
         13    1    3    3    0    0 -0.25661722307E+02 -0.32630033526E+02 -0.99792021006E+01  0.42694584601E+02  0.00000000000E+00 0. -1.
<mgrwt>
<rscale>  0 0.91911370E+02</rscale>
<asrwt>0</asrwt>
<pdfrwt beam="2">  1        1 0.56708579E-02 0.91911370E+02</pdfrwt>
<pdfrwt beam="1">  1       -1 0.88146083E-02 0.91911370E+02</pdfrwt>
<totfact> 0.87519598E+04</totfact>
</mgrwt>
</event>
<event>
 5    1  0.6112843E+000  0.9123451E+02  0.7546771E-02  0.1299889E+00
         -2   -1    0    0    0  501 -0.00000000000E+00  0.00000000000E+00  0.28211370767E+02  0.28211370767E+02  0.00000000000E+00 0.  1.
          2   -1    0    0  501    0  0.00000000000E+00 -0.00000000000E+00 -0.73762234295E+02  0.73762234295E+02  0.00000000000E+00 0. -1.
         23    2    1    2    0    0  0.00000000000E+00  0.00000000000E+00 -0.45550863528E+02  0.10197360506E+03  0.91234505321E+02 0.  0.
        -13    1    3    3    0    0 -0.31354580156E+02  0.56327047592E+01  0.13719028674E+02  0.34684993981E+02  0.00000000000E+00 0.  1.
         13    1    3    3    0    0  0.31354580156E+02 -0.56327047592E+01 -0.59269892202E+02  0.67288611082E+02  0.00000000000E+00 0. -1.
<mgrwt>
<rscale>  0 0.91234505E+02</rscale>
<asrwt>0</asrwt>
<pdfrwt beam="2">  1        2 0.11348036E-01 0.91234505E+02</pdfrwt>
<pdfrwt beam="1">  1       -2 0.43402109E-02 0.91234505E+02</pdfrwt>
<totfact> 0.11204750E+05</totfact>
</mgrwt>
</event>
<event>
 5    1  0.6112843E+000  0.9283662E+02  0.7546771E-02  0.1296124E+00
         -3   -1    0    0    0  501 -0.00000000000E+00  0.00000000000E+00  0.69542708095E+02  0.69542708095E+02  0.00000000000E+00 0.  1.
          3   -1    0    0  501    0  0.00000000000E+00 -0.00000000000E+00 -0.30983255144E+02  0.30983255144E+02  0.00000000000E+00 0. -1.
         23    2    1    2    0    0  0.00000000000E+00  0.00000000000E+00  0.38559452951E+02  0.10052596324E+03  0.92836619248E+02 0.  0.
        -13    1    3    3    0    0  0.28609919122E+02 -0.92988451596E+01  0.57558275282E+02  0.64945754648E+02  0.00000000000E+00 0.  1.
         13    1    3    3    0    0 -0.28609919122E+02  0.92988451596E+01 -0.18998822331E+02  0.35580208591E+02  0.00000000000E+00 0. -1.
<mgrwt>
<rscale>  0 0.92836619E+02</rscale>
<asrwt>0</asrwt>
<pdfrwt beam="2">  1        3 0.47666547E-02 0.92836619E+02</pdfrwt>
<pdfrwt beam="1">  1       -3 0.10698878E-01 0.92836619E+02</pdfrwt>
<totfact> 0.32969492E+04</totfact>
</mgrwt>
</event>
<event>
 5    1  0.6112843E+000  0.1175986E+03  0.7546771E-02  0.1247112E+00
         -2   -1    0    0    0  501 -0.00000000000E+00  0.00000000000E+00  0.90039609553E+02  0.90039609553E+02  0.00000000000E+00 0.  1.
          2   -1    0    0  501    0  0.00000000000E+00 -0.00000000000E+00 -0.38398163168E+02  0.38398163168E+02  0.00000000000E+00 0. -1.
         23    2    1    2    0    0  0.00000000000E+00  0.00000000000E+00  0.51641446384E+02  0.12843777272E+03  0.11759856494E+03 0.  0.
        -13    1    3    3    0    0  0.22010366864E+02 -0.41751703637E+02  0.64119894661E+02  0.79617974713E+02  0.00000000000E+00 0.  1.
         13    1    3    3    0    0 -0.22010366864E+02  0.41751703637E+02 -0.12478448276E+02  0.48819798007E+02  0.00000000000E+00 0. -1.
<mgrwt>
<rscale>  0 0.11759856E+03</rscale>
<asrwt>0</asrwt>
<pdfrwt beam="2">  1        2 0.59074097E-02 0.11759856E+03</pdfrwt>
<pdfrwt beam="1">  1       -2 0.13852248E-01 0.11759856E+03</pdfrwt>
<totfact> 0.44004602E+04</totfact>
</mgrwt>
</event>
<event>
 5    1  0.6112843E+000  0.9114975E+02  0.7546771E-02  0.1300091E+00
         -2   -1    0    0    0  501 -0.00000000000E+00  0.00000000000E+00  0.49127639684E+02  0.49127639684E+02  0.00000000000E+00 0. -1.
          2   -1    0    0  501    0  0.00000000000E+00 -0.00000000000E+00 -0.42279033131E+02  0.42279033131E+02  0.00000000000E+00 0.  1.
         23    2    1    2    0    0  0.00000000000E+00  0.00000000000E+00  0.68486065524E+01  0.91406672815E+02  0.91149747248E+02 0.  0.
        -13    1    3    3    0    0 -0.30818935793E+02  0.83982809413E+01 -0.29174727891E+02  0.43260867695E+02  0.00000000000E+00 0.  1.
         13    1    3    3    0    0  0.30818935793E+02 -0.83982809413E+01  0.36023334443E+02  0.48145805120E+02  0.00000000000E+00 0. -1.
<mgrwt>
<rscale>  0 0.91149747E+02</rscale>
<asrwt>0</asrwt>
<pdfrwt beam="2">  1        2 0.65044666E-02 0.91149747E+02</pdfrwt>
<pdfrwt beam="1">  1       -2 0.75580984E-02 0.91149747E+02</pdfrwt>
<totfact> 0.96849314E+04</totfact>
</mgrwt>
</event>
<event>
 5    1  0.6112843E+000  0.9338115E+02  0.7546771E-02  0.1294864E+00
         -1   -1    0    0    0  501 -0.00000000000E+00  0.00000000000E+00  0.78046442161E+02  0.78046442161E+02  0.00000000000E+00 0.  1.
          1   -1    0    0  501    0  0.00000000000E+00 -0.00000000000E+00 -0.27932212090E+02  0.27932212090E+02  0.00000000000E+00 0. -1.
         23    2    1    2    0    0  0.00000000000E+00  0.00000000000E+00  0.50114230070E+02  0.10597865425E+03  0.93381149604E+02 0.  0.
        -13    1    3    3    0    0 -0.13313340043E+02 -0.33848939113E+00 -0.25730957471E+02  0.28973121519E+02  0.00000000000E+00 0. -1.
         13    1    3    3    0    0  0.13313340043E+02  0.33848939113E+00  0.75845187541E+02  0.77005532732E+02  0.00000000000E+00 0.  1.
<mgrwt>
<rscale>  0 0.93381150E+02</rscale>
<asrwt>0</asrwt>
<pdfrwt beam="2">  1        1 0.42972634E-02 0.93381150E+02</pdfrwt>
<pdfrwt beam="1">  1       -1 0.12007145E-01 0.93381150E+02</pdfrwt>
<totfact> 0.79958897E+04</totfact>
</mgrwt>
</event>
<event>
 5    1  0.6112843E+000  0.9002727E+02  0.7546771E-02  0.1302786E+00
         -1   -1    0    0    0  501 -0.00000000000E+00  0.00000000000E+00  0.11771629343E+02  0.11771629343E+02  0.00000000000E+00 0. -1.
          1   -1    0    0  501    0  0.00000000000E+00 -0.00000000000E+00 -0.17212804298E+03  0.17212804298E+03  0.00000000000E+00 0.  1.
         23    2    1    2    0    0  0.00000000000E+00  0.00000000000E+00 -0.16035641364E+03  0.18389967232E+03  0.90027274122E+02 0.  0.
        -13    1    3    3    0    0  0.40296561725E+02 -0.18704091196E+02 -0.94989142011E+02  0.10486464139E+03  0.00000000000E+00 0. -1.
         13    1    3    3    0    0 -0.40296561725E+02  0.18704091196E+02 -0.65367271625E+02  0.79035030929E+02  0.00000000000E+00 0.  1.
<mgrwt>
<rscale>  0 0.90027274E+02</rscale>
<asrwt>0</asrwt>
<pdfrwt beam="2">  1        1 0.26481236E-01 0.90027274E+02</pdfrwt>
<pdfrwt beam="1">  1       -1 0.18110200E-02 0.90027274E+02</pdfrwt>
<totfact> 0.11903327E+05</totfact>
</mgrwt>
</event>
<event>
 4    1  0.6112843E+000  0.2543179E+03  0.7546771E-02  0.1110606E+00
         -3   -1    0    0    0  501 -0.00000000000E+00  0.00000000000E+00  0.11108210703E+03  0.11108210703E+03  0.00000000000E+00 0.  1.
          3   -1    0    0  501    0  0.00000000000E+00 -0.00000000000E+00 -0.14556254899E+03  0.14556254899E+03  0.00000000000E+00 0. -1.
        -13    1    1    2    0    0 -0.83887663748E+02 -0.75973911205E+02  0.41257529078E+02  0.12046310231E+03  0.00000000000E+00 0.  1.
         13    1    1    2    0    0  0.83887663748E+02  0.75973911205E+02 -0.75737971037E+02  0.13618155371E+03  0.00000000000E+00 0. -1.
<mgrwt>
<rscale>  0 0.25431787E+03</rscale>
<asrwt>0</asrwt>
<pdfrwt beam="2">  1        3 0.22394238E-01 0.25431787E+03</pdfrwt>
<pdfrwt beam="1">  1       -3 0.17089555E-01 0.25431787E+03</pdfrwt>
<totfact> 0.13689205E+03</totfact>
</mgrwt>
</event>
<event>
 5    1  0.6112843E+000  0.9233400E+02  0.7546771E-02  0.1297296E+00
         -1   -1    0    0    0  501 -0.00000000000E+00  0.00000000000E+00  0.13274715438E+02  0.13274715438E+02  0.00000000000E+00 0.  1.
          1   -1    0    0  501    0  0.00000000000E+00 -0.00000000000E+00 -0.16056026140E+03  0.16056026140E+03  0.00000000000E+00 0. -1.
         23    2    1    2    0    0  0.00000000000E+00  0.00000000000E+00 -0.14728554596E+03  0.17383497684E+03  0.92333997655E+02 0.  0.
        -13    1    3    3    0    0 -0.30140177562E+02  0.15095540071E+02 -0.14253793134E+02  0.36598855886E+02  0.00000000000E+00 0.  1.
         13    1    3    3    0    0  0.30140177562E+02 -0.15095540071E+02 -0.13303175283E+03  0.13723612095E+03  0.00000000000E+00 0. -1.
<mgrwt>
<rscale>  0 0.92333998E+02</rscale>
<asrwt>0</asrwt>
<pdfrwt beam="2">  1        1 0.24701580E-01 0.92333998E+02</pdfrwt>
<pdfrwt beam="1">  1       -1 0.20422638E-02 0.92333998E+02</pdfrwt>
<totfact> 0.10975543E+05</totfact>
</mgrwt>
</event>
<event>
 5    1  0.6112843E+000  0.9086536E+02  0.7546771E-02  0.1300770E+00
         -1   -1    0    0    0  501 -0.00000000000E+00  0.00000000000E+00  0.34490577954E+02  0.34490577954E+02  0.00000000000E+00 0.  1.
          1   -1    0    0  501    0  0.00000000000E+00 -0.00000000000E+00 -0.59846153780E+02  0.59846153780E+02  0.00000000000E+00 0. -1.
         23    2    1    2    0    0  0.00000000000E+00  0.00000000000E+00 -0.25355575826E+02  0.94336731734E+02  0.90865360445E+02 0.  0.
        -13    1    3    3    0    0  0.35130243019E+02 -0.23588802258E+02  0.44938232125E+01  0.42553025904E+02  0.00000000000E+00 0.  1.
         13    1    3    3    0    0 -0.35130243019E+02  0.23588802258E+02 -0.29849399038E+02  0.51783705830E+02  0.00000000000E+00 0. -1.
<mgrwt>
<rscale>  0 0.90865360E+02</rscale>
<asrwt>0</asrwt>
<pdfrwt beam="2">  1        1 0.92071006E-02 0.90865360E+02</pdfrwt>
<pdfrwt beam="1">  1       -1 0.53062428E-02 0.90865360E+02</pdfrwt>
<totfact> 0.97252382E+04</totfact>
</mgrwt>
</event>
<event>
 5    1  0.6112843E+000  0.9274617E+02  0.7546771E-02  0.1296334E+00
         -2   -1    0    0    0  501 -0.00000000000E+00  0.00000000000E+00  0.42058118862E+02  0.42058118862E+02  0.00000000000E+00 0.  1.
          2   -1    0    0  501    0  0.00000000000E+00 -0.00000000000E+00 -0.51130743189E+02  0.51130743189E+02  0.00000000000E+00 0. -1.
         23    2    1    2    0    0  0.00000000000E+00  0.00000000000E+00 -0.90726243269E+01  0.93188862051E+02  0.92746167027E+02 0.  0.
        -13    1    3    3    0    0 -0.38136375827E+01  0.45383072863E+02  0.42401237192E+01  0.45739980140E+02  0.00000000000E+00 0.  1.
         13    1    3    3    0    0  0.38136375827E+01 -0.45383072863E+02 -0.13312748046E+02  0.47448881911E+02  0.00000000000E+00 0. -1.
<mgrwt>
<rscale>  0 0.92746167E+02</rscale>
<asrwt>0</asrwt>
<pdfrwt beam="2">  1        2 0.78662682E-02 0.92746167E+02</pdfrwt>
<pdfrwt beam="1">  1       -2 0.64704798E-02 0.92746167E+02</pdfrwt>
<totfact> 0.96834715E+04</totfact>
</mgrwt>
</event>
<event>
 5    1  0.6112843E+000  0.9059878E+02  0.7546771E-02  0.1301408E+00
          1   -1    0    0  501    0  0.00000000000E+00  0.00000000000E+00  0.59945023924E+02  0.59945023924E+02  0.00000000000E+00 0. -1.
         -1   -1    0    0    0  501 -0.00000000000E+00 -0.00000000000E+00 -0.34231941161E+02  0.34231941161E+02  0.00000000000E+00 0.  1.
         23    2    1    2    0    0  0.00000000000E+00  0.00000000000E+00  0.25713082763E+02  0.94176965086E+02  0.90598775530E+02 0.  0.
        -13    1    3    3    0    0 -0.43536733458E+02  0.11810402107E+02  0.85577839271E+01  0.45914795261E+02  0.00000000000E+00 0.  1.
         13    1    3    3    0    0  0.43536733458E+02 -0.11810402107E+02  0.17155298836E+02  0.48262169825E+02  0.00000000000E+00 0. -1.
<mgrwt>
<rscale>  0 0.90598776E+02</rscale>
<asrwt>0</asrwt>
<pdfrwt beam="1">  1        1 0.92223114E-02 0.90598776E+02</pdfrwt>
<pdfrwt beam="2">  1       -1 0.52664525E-02 0.90598776E+02</pdfrwt>
<totfact> 0.98071265E+04</totfact>
</mgrwt>
</event>
<event>
 5    1  0.6112843E+000  0.9222141E+02  0.7546771E-02  0.1297560E+00
         -2   -1    0    0    0  501 -0.00000000000E+00  0.00000000000E+00  0.76825151504E+02  0.76825151504E+02  0.00000000000E+00 0.  1.
          2   -1    0    0  501    0  0.00000000000E+00 -0.00000000000E+00 -0.27675792539E+02  0.27675792539E+02  0.00000000000E+00 0. -1.
         23    2    1    2    0    0  0.00000000000E+00  0.00000000000E+00  0.49149358965E+02  0.10450094404E+03  0.92221406513E+02 0.  0.
        -13    1    3    3    0    0 -0.45833383052E+02  0.40831072293E+01  0.21208207047E+02  0.50667137405E+02  0.00000000000E+00 0. -1.
         13    1    3    3    0    0  0.45833383052E+02 -0.40831072293E+01  0.27941151918E+02  0.53833806638E+02  0.00000000000E+00 0.  1.
<mgrwt>
<rscale>  0 0.92221407E+02</rscale>
<asrwt>0</asrwt>
<pdfrwt beam="2">  1        2 0.42578143E-02 0.92221407E+02</pdfrwt>
<pdfrwt beam="1">  1       -2 0.11819254E-01 0.92221407E+02</pdfrwt>
<totfact> 0.83660130E+04</totfact>
</mgrwt>
</event>
<event>
 5    1  0.6112843E+000  0.8881945E+02  0.7546771E-02  0.1305736E+00
          3   -1    0    0  501    0  0.00000000000E+00  0.00000000000E+00  0.22936294841E+02  0.22936294841E+02  0.00000000000E+00 0. -1.
         -3   -1    0    0    0  501 -0.00000000000E+00 -0.00000000000E+00 -0.85987018714E+02  0.85987018714E+02  0.00000000000E+00 0.  1.
         23    2    1    2    0    0  0.00000000000E+00  0.00000000000E+00 -0.63050723872E+02  0.10892331355E+03  0.88819448630E+02 0.  0.
        -13    1    3    3    0    0 -0.84330503885E+01 -0.28950423405E+02  0.84576375516E+01  0.31317327267E+02  0.00000000000E+00 0. -1.
         13    1    3    3    0    0  0.84330503885E+01  0.28950423405E+02 -0.71508361424E+02  0.77605986288E+02  0.00000000000E+00 0.  1.
<mgrwt>
<rscale>  0 0.88819449E+02</rscale>
<asrwt>0</asrwt>
<pdfrwt beam="1">  1        3 0.35286608E-02 0.88819449E+02</pdfrwt>
<pdfrwt beam="2">  1       -3 0.13228772E-01 0.88819449E+02</pdfrwt>
<totfact> 0.36526932E+04</totfact>
</mgrwt>
</event>
<event>
 5    1  0.6112843E+000  0.1120412E+03  0.7546771E-02  0.1256836E+00
          3   -1    0    0  501    0  0.00000000000E+00  0.00000000000E+00  0.73247824500E+02  0.73247824500E+02  0.00000000000E+00 0. -1.
         -3   -1    0    0    0  501 -0.00000000000E+00 -0.00000000000E+00 -0.42845071523E+02  0.42845071523E+02  0.00000000000E+00 0.  1.
         23    2    1    2    0    0  0.00000000000E+00  0.00000000000E+00  0.30402752976E+02  0.11609289602E+03  0.11204121170E+03 0.  0.
        -13    1    3    3    0    0 -0.45788623503E+02  0.35986043252E+01 -0.18032801624E+02  0.49342982579E+02  0.00000000000E+00 0.  1.
         13    1    3    3    0    0  0.45788623503E+02 -0.35986043252E+01  0.48435554600E+02  0.66749913444E+02  0.00000000000E+00 0. -1.
<mgrwt>
<rscale>  0 0.11204121E+03</rscale>
<asrwt>0</asrwt>
<pdfrwt beam="1">  1        3 0.11268896E-01 0.11204121E+03</pdfrwt>
<pdfrwt beam="2">  1       -3 0.65915494E-02 0.11204121E+03</pdfrwt>
<totfact> 0.19007076E+04</totfact>
</mgrwt>
</event>
<event>
 5    1  0.6112843E+000  0.9123262E+02  0.7546771E-02  0.1299894E+00
         -1   -1    0    0    0  501 -0.00000000000E+00  0.00000000000E+00  0.42703679272E+02  0.42703679272E+02  0.00000000000E+00 0.  1.
          1   -1    0    0  501    0  0.00000000000E+00 -0.00000000000E+00 -0.48727603812E+02  0.48727603812E+02  0.00000000000E+00 0. -1.
         23    2    1    2    0    0  0.00000000000E+00  0.00000000000E+00 -0.60239245399E+01  0.91431283083E+02  0.91232624973E+02 0.  0.
        -13    1    3    3    0    0  0.20206838055E+02  0.40861212914E+02 -0.13073941985E+01  0.45603336551E+02  0.00000000000E+00 0.  1.
         13    1    3    3    0    0 -0.20206838055E+02 -0.40861212914E+02 -0.47165303414E+01  0.45827946533E+02  0.00000000000E+00 0. -1.
<mgrwt>
<rscale>  0 0.91232625E+02</rscale>
<asrwt>0</asrwt>
<pdfrwt beam="2">  1        1 0.74965544E-02 0.91232625E+02</pdfrwt>
<pdfrwt beam="1">  1       -1 0.65697968E-02 0.91232625E+02</pdfrwt>
<totfact> 0.93241935E+04</totfact>
</mgrwt>
</event>
<event>
 5    1  0.6112843E+000  0.9260479E+02  0.7546771E-02  0.1296664E+00
          1   -1    0    0  501    0  0.00000000000E+00  0.00000000000E+00  0.14627404935E+03  0.14627404935E+03  0.00000000000E+00 0. -1.
         -1   -1    0    0    0  501 -0.00000000000E+00 -0.00000000000E+00 -0.14656815995E+02  0.14656815995E+02  0.00000000000E+00 0.  1.
         23    2    1    2    0    0  0.00000000000E+00  0.00000000000E+00  0.13161723335E+03  0.16093086535E+03  0.92604790939E+02 0.  0.
        -13    1    3    3    0    0  0.13374541042E+02  0.29313453780E+02  0.12359630587E+03  0.12772706739E+03  0.00000000000E+00 0. -1.
         13    1    3    3    0    0 -0.13374541042E+02 -0.29313453780E+02  0.80209274847E+01  0.33203797950E+02  0.00000000000E+00 0.  1.
<mgrwt>
<rscale>  0 0.92604791E+02</rscale>
<asrwt>0</asrwt>
<pdfrwt beam="1">  1        1 0.22503699E-01 0.92604791E+02</pdfrwt>
<pdfrwt beam="2">  1       -1 0.22548949E-02 0.92604791E+02</pdfrwt>
<totfact> 0.10702370E+05</totfact>
</mgrwt>
</event>
<event>
 5    1  0.6112843E+000  0.8809199E+02  0.7546771E-02  0.1307539E+00
          2   -1    0    0  501    0  0.00000000000E+00  0.00000000000E+00  0.15822560709E+02  0.15822560709E+02  0.00000000000E+00 0. -1.
         -2   -1    0    0    0  501 -0.00000000000E+00 -0.00000000000E+00 -0.12261287866E+03  0.12261287866E+03  0.00000000000E+00 0.  1.
         23    2    1    2    0    0  0.00000000000E+00  0.00000000000E+00 -0.10679031795E+03  0.13843543936E+03  0.88091990923E+02 0.  0.
        -13    1    3    3    0    0  0.16755381229E+02  0.27487664023E+02 -0.61528117429E+01  0.32774556685E+02  0.00000000000E+00 0. -1.
         13    1    3    3    0    0 -0.16755381229E+02 -0.27487664023E+02 -0.10063750620E+03  0.10566088268E+03  0.00000000000E+00 0.  1.
<mgrwt>
<rscale>  0 0.88091991E+02</rscale>
<asrwt>0</asrwt>
<pdfrwt beam="1">  1        2 0.24342401E-02 0.88091991E+02</pdfrwt>
<pdfrwt beam="2">  1       -2 0.18863520E-01 0.88091991E+02</pdfrwt>
<totfact> 0.81647249E+04</totfact>
</mgrwt>
</event>
<event>
 5    1  0.6112843E+000  0.8869226E+02  0.7546771E-02  0.1306050E+00
          1   -1    0    0  501    0  0.00000000000E+00  0.00000000000E+00  0.82941983730E+01  0.82941983730E+01  0.00000000000E+00 0. -1.
         -1   -1    0    0    0  501 -0.00000000000E+00 -0.00000000000E+00 -0.23710300727E+03  0.23710300727E+03  0.00000000000E+00 0.  1.
         23    2    1    2    0    0  0.00000000000E+00  0.00000000000E+00 -0.22880880890E+03  0.24539720564E+03  0.88692262958E+02 0.  0.
        -13    1    3    3    0    0 -0.54223129585E+01 -0.34648654618E+02 -0.18949993166E+03  0.19271781143E+03  0.00000000000E+00 0.  1.
         13    1    3    3    0    0  0.54223129585E+01  0.34648654618E+02 -0.39308877237E+02  0.52679394209E+02  0.00000000000E+00 0. -1.
<mgrwt>
<rscale>  0 0.88692263E+02</rscale>
<asrwt>0</asrwt>
<pdfrwt beam="1">  1        1 0.12760304E-02 0.88692263E+02</pdfrwt>
<pdfrwt beam="2">  1       -1 0.36477390E-01 0.88692263E+02</pdfrwt>
<totfact> 0.70834213E+04</totfact>
</mgrwt>
</event>
<event>
 5    1  0.6112843E+000  0.8995522E+02  0.7546771E-02  0.1302960E+00
         -4   -1    0    0    0  501 -0.00000000000E+00  0.00000000000E+00  0.25275768597E+02  0.25275768597E+02  0.00000000000E+00 0.  1.
          4   -1    0    0  501    0  0.00000000000E+00 -0.00000000000E+00 -0.80036560494E+02  0.80036560494E+02  0.00000000000E+00 0. -1.
         23    2    1    2    0    0  0.00000000000E+00  0.00000000000E+00 -0.54760791897E+02  0.10531232909E+03  0.89955224026E+02 0.  0.
        -13    1    3    3    0    0  0.18578227703E+02  0.34215110565E+02 -0.10155123230E+01  0.38946830434E+02  0.00000000000E+00 0.  1.
         13    1    3    3    0    0 -0.18578227703E+02 -0.34215110565E+02 -0.53745279574E+02  0.66365498658E+02  0.00000000000E+00 0. -1.
<mgrwt>
<rscale>  0 0.89955224E+02</rscale>
<asrwt>0</asrwt>
<pdfrwt beam="2">  1        4 0.12313317E-01 0.89955224E+02</pdfrwt>
<pdfrwt beam="1">  1       -4 0.38885798E-02 0.89955224E+02</pdfrwt>
<totfact> 0.27102876E+04</totfact>
</mgrwt>
</event>
<event>
 5    1  0.6112843E+000  0.9087556E+02  0.7546771E-02  0.1300745E+00
          2   -1    0    0  501    0  0.00000000000E+00  0.00000000000E+00  0.11385184676E+03  0.11385184676E+03  0.00000000000E+00 0. -1.
         -2   -1    0    0    0  501 -0.00000000000E+00 -0.00000000000E+00 -0.18134019883E+02  0.18134019883E+02  0.00000000000E+00 0.  1.
         23    2    1    2    0    0  0.00000000000E+00  0.00000000000E+00  0.95717826878E+02  0.13198586664E+03  0.90875555632E+02 0.  0.
        -13    1    3    3    0    0  0.75562260114E+01 -0.29150143403E+02 -0.15596839531E+01  0.30153938814E+02  0.00000000000E+00 0.  1.
         13    1    3    3    0    0 -0.75562260114E+01  0.29150143403E+02  0.97277510831E+02  0.10183192783E+03  0.00000000000E+00 0. -1.
<mgrwt>
<rscale>  0 0.90875556E+02</rscale>
<asrwt>0</asrwt>
<pdfrwt beam="1">  1        2 0.17515668E-01 0.90875556E+02</pdfrwt>
<pdfrwt beam="2">  1       -2 0.27898493E-02 0.90875556E+02</pdfrwt>
<totfact> 0.12887376E+05</totfact>
</mgrwt>
</event>
<event>
 5    1  0.6112843E+000  0.9356254E+02  0.7546771E-02  0.1294447E+00
          2   -1    0    0  501    0  0.00000000000E+00  0.00000000000E+00  0.15739592665E+03  0.15739592665E+03  0.00000000000E+00 0. -1.
         -2   -1    0    0    0  501 -0.00000000000E+00 -0.00000000000E+00 -0.13904343650E+02  0.13904343650E+02  0.00000000000E+00 0.  1.
         23    2    1    2    0    0  0.00000000000E+00  0.00000000000E+00  0.14349158300E+03  0.17130027030E+03  0.93562536375E+02 0.  0.
        -13    1    3    3    0    0 -0.17449186799E+02 -0.42045657516E+02  0.91479720267E+02  0.10218048080E+03  0.00000000000E+00 0. -1.
         13    1    3    3    0    0  0.17449186799E+02  0.42045657516E+02  0.52011862733E+02  0.69119789502E+02  0.00000000000E+00 0.  1.
<mgrwt>
<rscale>  0 0.93562536E+02</rscale>
<asrwt>0</asrwt>
<pdfrwt beam="1">  1        2 0.24214757E-01 0.93562536E+02</pdfrwt>
<pdfrwt beam="2">  1       -2 0.21391299E-02 0.93562536E+02</pdfrwt>
<totfact> 0.13249836E+05</totfact>
</mgrwt>
</event>
<event>
 4    1  0.6112843E+000  0.1718612E+03  0.7546771E-02  0.1175921E+00
          2   -1    0    0  501    0  0.00000000000E+00  0.00000000000E+00  0.11011995094E+03  0.11011995094E+03  0.00000000000E+00 0. -1.
         -2   -1    0    0    0  501 -0.00000000000E+00 -0.00000000000E+00 -0.67054738881E+02  0.67054738881E+02  0.00000000000E+00 0.  1.
        -13    1    1    2    0    0 -0.25049586908E+02  0.35993510081E+02 -0.54651086539E+02  0.70069649865E+02  0.00000000000E+00 0.  1.
         13    1    1    2    0    0  0.25049586908E+02 -0.35993510081E+02  0.97716298601E+02  0.10710503996E+03  0.00000000000E+00 0. -1.
<mgrwt>
<rscale>  0 0.17186116E+03</rscale>
<asrwt>0</asrwt>
<pdfrwt beam="1">  1        2 0.16941531E-01 0.17186116E+03</pdfrwt>
<pdfrwt beam="2">  1       -2 0.10316114E-01 0.17186116E+03</pdfrwt>
<totfact> 0.20183372E+04</totfact>
</mgrwt>
</event>
<event>
 5    1  0.6112843E+000  0.9133521E+02  0.7546771E-02  0.1299650E+00
         -1   -1    0    0    0  501 -0.00000000000E+00  0.00000000000E+00  0.53372510850E+01  0.53372510850E+01  0.00000000000E+00 0.  1.
          1   -1    0    0  501    0  0.00000000000E+00 -0.00000000000E+00 -0.39074988413E+03  0.39074988413E+03  0.00000000000E+00 0. -1.
         23    2    1    2    0    0  0.00000000000E+00  0.00000000000E+00 -0.38541263305E+03  0.39608713522E+03  0.91335212116E+02 0.  0.
        -13    1    3    3    0    0 -0.28147668708E+02 -0.34266073648E+02 -0.24002832070E+03  0.24409024928E+03  0.00000000000E+00 0. -1.
         13    1    3    3    0    0  0.28147668708E+02  0.34266073648E+02 -0.14538431235E+03  0.15199688593E+03  0.00000000000E+00 0.  1.
<mgrwt>
<rscale>  0 0.91335212E+02</rscale>
<asrwt>0</asrwt>
<pdfrwt beam="2">  1        1 0.60115360E-01 0.91335212E+02</pdfrwt>
<pdfrwt beam="1">  1       -1 0.82111564E-03 0.91335212E+02</pdfrwt>
<totfact> 0.13375202E+05</totfact>
</mgrwt>
</event>
<event>
 5    1  0.6112843E+000  0.9346192E+02  0.7546771E-02  0.1294678E+00
          2   -1    0    0  501    0  0.00000000000E+00  0.00000000000E+00  0.18945771936E+02  0.18945771936E+02  0.00000000000E+00 0. -1.
         -2   -1    0    0    0  501 -0.00000000000E+00 -0.00000000000E+00 -0.11526490787E+03  0.11526490787E+03  0.00000000000E+00 0.  1.
         23    2    1    2    0    0  0.00000000000E+00  0.00000000000E+00 -0.96319135936E+02  0.13421067981E+03  0.93461920733E+02 0.  0.
        -13    1    3    3    0    0  0.95796687123E+01 -0.42613479623E+02 -0.72020570719E+02  0.84229693725E+02  0.00000000000E+00 0.  1.
         13    1    3    3    0    0 -0.95796687123E+01  0.42613479623E+02 -0.24298565217E+02  0.49980986083E+02  0.00000000000E+00 0. -1.
<mgrwt>
<rscale>  0 0.93461921E+02</rscale>
<asrwt>0</asrwt>
<pdfrwt beam="1">  1        2 0.29147342E-02 0.93461921E+02</pdfrwt>
<pdfrwt beam="2">  1       -2 0.17733063E-01 0.93461921E+02</pdfrwt>
<totfact> 0.71798523E+04</totfact>
</mgrwt>
</event>
<event>
 5    1  0.6112843E+000  0.9388407E+02  0.7546771E-02  0.1293709E+00
          1   -1    0    0  501    0  0.00000000000E+00  0.00000000000E+00  0.28877068509E+03  0.28877068509E+03  0.00000000000E+00 0. -1.
         -1   -1    0    0    0  501 -0.00000000000E+00 -0.00000000000E+00 -0.76308106904E+01  0.76308106904E+01  0.00000000000E+00 0.  1.
         23    2    1    2    0    0  0.00000000000E+00  0.00000000000E+00  0.28113987440E+03  0.29640149578E+03  0.93884065334E+02 0.  0.
        -13    1    3    3    0    0 -0.23840966569E+02 -0.31808021691E+02  0.61742708774E+02  0.73432309085E+02  0.00000000000E+00 0.  1.
         13    1    3    3    0    0  0.23840966569E+02  0.31808021691E+02  0.21939716563E+03  0.22296918670E+03  0.00000000000E+00 0. -1.
<mgrwt>
<rscale>  0 0.93884065E+02</rscale>
<asrwt>0</asrwt>
<pdfrwt beam="1">  1        1 0.44426251E-01 0.93884065E+02</pdfrwt>
<pdfrwt beam="2">  1       -1 0.11739711E-02 0.93884065E+02</pdfrwt>
<totfact> 0.11762516E+05</totfact>
</mgrwt>
</event>
<event>
 5    1  0.6112843E+000  0.9043235E+02  0.7546771E-02  0.1301808E+00
          2   -1    0    0  501    0  0.00000000000E+00  0.00000000000E+00  0.22919796124E+03  0.22919796124E+03  0.00000000000E+00 0. -1.
         -2   -1    0    0    0  501 -0.00000000000E+00 -0.00000000000E+00 -0.89202467224E+01  0.89202467224E+01  0.00000000000E+00 0.  1.
         23    2    1    2    0    0  0.00000000000E+00  0.00000000000E+00  0.22027771452E+03  0.23811820797E+03  0.90432347367E+02 0.  0.
        -13    1    3    3    0    0 -0.60144356221E+01  0.31545020544E+02  0.19395450282E+03  0.19659504297E+03  0.00000000000E+00 0. -1.
         13    1    3    3    0    0  0.60144356221E+01 -0.31545020544E+02  0.26323211705E+02  0.41523164998E+02  0.00000000000E+00 0.  1.
<mgrwt>
<rscale>  0 0.90432347E+02</rscale>
<asrwt>0</asrwt>
<pdfrwt beam="1">  1        2 0.35261220E-01 0.90432347E+02</pdfrwt>
<pdfrwt beam="2">  1       -2 0.13723458E-02 0.90432347E+02</pdfrwt>
<totfact> 0.16617826E+05</totfact>
</mgrwt>
</event>
<event>
 5    1  0.6112843E+000  0.8881654E+02  0.7546771E-02  0.1305743E+00
          1   -1    0    0  501    0  0.00000000000E+00  0.00000000000E+00  0.65873959311E+02  0.65873959311E+02  0.00000000000E+00 0. -1.
         -1   -1    0    0    0  501 -0.00000000000E+00 -0.00000000000E+00 -0.29937393073E+02  0.29937393073E+02  0.00000000000E+00 0.  1.
         23    2    1    2    0    0  0.00000000000E+00  0.00000000000E+00  0.35936566238E+02  0.95811352384E+02  0.88816543800E+02 0.  0.
        -13    1    3    3    0    0 -0.26783555059E+02 -0.10056987580E+02 -0.18671202517E+02  0.34163073987E+02  0.00000000000E+00 0.  1.
         13    1    3    3    0    0  0.26783555059E+02  0.10056987580E+02  0.54607768756E+02  0.61648278397E+02  0.00000000000E+00 0. -1.
<mgrwt>
<rscale>  0 0.88816544E+02</rscale>
<asrwt>0</asrwt>
<pdfrwt beam="1">  1        1 0.10134455E-01 0.88816544E+02</pdfrwt>
<pdfrwt beam="2">  1       -1 0.46057528E-02 0.88816544E+02</pdfrwt>
<totfact> 0.10507876E+05</totfact>
</mgrwt>
</event>
<event>
 5    1  0.6112843E+000  0.9117128E+02  0.7546771E-02  0.1300040E+00
         -3   -1    0    0    0  501 -0.00000000000E+00  0.00000000000E+00  0.77044336362E+02  0.77044336362E+02  0.00000000000E+00 0.  1.
          3   -1    0    0  501    0  0.00000000000E+00 -0.00000000000E+00 -0.26972141080E+02  0.26972141080E+02  0.00000000000E+00 0. -1.
         23    2    1    2    0    0  0.00000000000E+00  0.00000000000E+00  0.50072195282E+02  0.10401647744E+03  0.91171282974E+02 0.  0.
        -13    1    3    3    0    0  0.66686345845E+01 -0.26827105556E+02 -0.16318422845E+02  0.32100704102E+02  0.00000000000E+00 0. -1.
         13    1    3    3    0    0 -0.66686345845E+01  0.26827105556E+02  0.66390618127E+02  0.71915773340E+02  0.00000000000E+00 0.  1.
<mgrwt>
<rscale>  0 0.91171283E+02</rscale>
<asrwt>0</asrwt>
<pdfrwt beam="2">  1        3 0.41495602E-02 0.91171283E+02</pdfrwt>
<pdfrwt beam="1">  1       -3 0.11852975E-01 0.91171283E+02</pdfrwt>
<totfact> 0.34383160E+04</totfact>
</mgrwt>
</event>
<event>
 5    1  0.6112843E+000  0.8998679E+02  0.7546771E-02  0.1302884E+00
          4   -1    0    0  501    0  0.00000000000E+00  0.00000000000E+00  0.22976525886E+02  0.22976525886E+02  0.00000000000E+00 0.  1.
         -4   -1    0    0    0  501 -0.00000000000E+00 -0.00000000000E+00 -0.88107562817E+02  0.88107562817E+02  0.00000000000E+00 0. -1.
         23    2    1    2    0    0  0.00000000000E+00  0.00000000000E+00 -0.65131036931E+02  0.11108408870E+03  0.89986792315E+02 0.  0.
        -13    1    3    3    0    0  0.20038599687E+02 -0.60774368895E+01  0.16594768061E+02  0.26718290431E+02  0.00000000000E+00 0.  1.
         13    1    3    3    0    0 -0.20038599687E+02  0.60774368895E+01 -0.81725804992E+02  0.84365798272E+02  0.00000000000E+00 0. -1.
<mgrwt>
<rscale>  0 0.89986792E+02</rscale>
<asrwt>0</asrwt>
<pdfrwt beam="1">  1        4 0.35348502E-02 0.89986792E+02</pdfrwt>
<pdfrwt beam="2">  1       -4 0.13555010E-01 0.89986792E+02</pdfrwt>
<totfact> 0.26719137E+04</totfact>
</mgrwt>
</event>
<event>
 5    1  0.6112843E+000  0.9228253E+02  0.7546771E-02  0.1297417E+00
         -3   -1    0    0    0  501 -0.00000000000E+00  0.00000000000E+00  0.22054682333E+02  0.22054682333E+02  0.00000000000E+00 0.  1.
          3   -1    0    0  501    0  0.00000000000E+00 -0.00000000000E+00 -0.96533520255E+02  0.96533520255E+02  0.00000000000E+00 0. -1.
         23    2    1    2    0    0  0.00000000000E+00  0.00000000000E+00 -0.74478837922E+02  0.11858820259E+03  0.92282525404E+02 0.  0.
        -13    1    3    3    0    0  0.43245144608E+02  0.60237115830E+01 -0.56411681510E+02  0.71335162747E+02  0.00000000000E+00 0. -1.
         13    1    3    3    0    0 -0.43245144608E+02 -0.60237115830E+01 -0.18067156413E+02  0.47253039841E+02  0.00000000000E+00 0.  1.
<mgrwt>
<rscale>  0 0.92282525E+02</rscale>
<asrwt>0</asrwt>
<pdfrwt beam="2">  1        3 0.14851311E-01 0.92282525E+02</pdfrwt>
<pdfrwt beam="1">  1       -3 0.33930281E-02 0.92282525E+02</pdfrwt>
<totfact> 0.32266665E+04</totfact>
</mgrwt>
</event>
<event>
 5    1  0.6112843E+000  0.9536460E+02  0.7546771E-02  0.1290357E+00
          1   -1    0    0  501    0  0.00000000000E+00  0.00000000000E+00  0.20116800346E+03  0.20116800346E+03  0.00000000000E+00 0. -1.
         -1   -1    0    0    0  501 -0.00000000000E+00 -0.00000000000E+00 -0.11302004451E+02  0.11302004451E+02  0.00000000000E+00 0.  1.
         23    2    1    2    0    0  0.00000000000E+00  0.00000000000E+00  0.18986599901E+03  0.21247000791E+03  0.95364598683E+02 0.  0.
        -13    1    3    3    0    0 -0.35797105685E+02  0.26902461999E+02  0.58430459209E+02  0.73615852915E+02  0.00000000000E+00 0.  1.
         13    1    3    3    0    0  0.35797105685E+02 -0.26902461999E+02  0.13143553980E+03  0.13885415500E+03  0.00000000000E+00 0. -1.
<mgrwt>
<rscale>  0 0.95364599E+02</rscale>
<asrwt>0</asrwt>
<pdfrwt beam="1">  1        1 0.30948921E-01 0.95364599E+02</pdfrwt>
<pdfrwt beam="2">  1       -1 0.17387701E-02 0.95364599E+02</pdfrwt>
<totfact> 0.10505132E+05</totfact>
</mgrwt>
</event>
<event>
 5    1  0.6112843E+000  0.7460938E+02  0.7546771E-02  0.1345085E+00
          1   -1    0    0  501    0  0.00000000000E+00  0.00000000000E+00  0.17966694687E+03  0.17966694687E+03  0.00000000000E+00 0. -1.
         -1   -1    0    0    0  501 -0.00000000000E+00 -0.00000000000E+00 -0.77456635473E+01  0.77456635473E+01  0.00000000000E+00 0.  1.
         23    2    1    2    0    0  0.00000000000E+00  0.00000000000E+00  0.17192128332E+03  0.18741261042E+03  0.74609375310E+02 0.  0.
        -13    1    3    3    0    0  0.23761069081E+02  0.28184319590E+02  0.71597513293E+02  0.80530417758E+02  0.00000000000E+00 0.  1.
         13    1    3    3    0    0 -0.23761069081E+02 -0.28184319590E+02  0.10032377003E+03  0.10688219266E+03  0.00000000000E+00 0. -1.
<mgrwt>
<rscale>  0 0.74609375E+02</rscale>
<asrwt>0</asrwt>
<pdfrwt beam="1">  1        1 0.27641066E-01 0.74609375E+02</pdfrwt>
<pdfrwt beam="2">  1       -1 0.11916407E-02 0.74609375E+02</pdfrwt>
<totfact> 0.19758222E+05</totfact>
</mgrwt>
</event>
<event>
 5    1  0.6112843E+000  0.9096778E+02  0.7546771E-02  0.1300525E+00
          4   -1    0    0  501    0  0.00000000000E+00  0.00000000000E+00  0.16645353687E+02  0.16645353687E+02  0.00000000000E+00 0.  1.
         -4   -1    0    0    0  501 -0.00000000000E+00 -0.00000000000E+00 -0.12428599106E+03  0.12428599106E+03  0.00000000000E+00 0. -1.
         23    2    1    2    0    0  0.00000000000E+00  0.00000000000E+00 -0.10764063738E+03  0.14093134475E+03  0.90967780661E+02 0.  0.
        -13    1    3    3    0    0  0.22585031343E+02 -0.23790498237E+02 -0.50077328973E+01  0.33183562737E+02  0.00000000000E+00 0.  1.
         13    1    3    3    0    0 -0.22585031343E+02  0.23790498237E+02 -0.10263290448E+03  0.10774778201E+03  0.00000000000E+00 0. -1.
<mgrwt>
<rscale>  0 0.90967781E+02</rscale>
<asrwt>0</asrwt>
<pdfrwt beam="1">  1        4 0.25608236E-02 0.90967781E+02</pdfrwt>
<pdfrwt beam="2">  1       -4 0.19120922E-01 0.90967781E+02</pdfrwt>
<totfact> 0.24286496E+04</totfact>
</mgrwt>
</event>
<event>
 5    1  0.6112843E+000  0.9200853E+02  0.7546771E-02  0.1298059E+00
          3   -1    0    0  501    0  0.00000000000E+00  0.00000000000E+00  0.16355387909E+02  0.16355387909E+02  0.00000000000E+00 0.  1.
         -3   -1    0    0    0  501 -0.00000000000E+00 -0.00000000000E+00 -0.12940031499E+03  0.12940031499E+03  0.00000000000E+00 0. -1.
         23    2    1    2    0    0  0.00000000000E+00  0.00000000000E+00 -0.11304492708E+03  0.14575570290E+03  0.92008528894E+02 0.  0.
        -13    1    3    3    0    0  0.15005054105E+02 -0.33908324835E+02 -0.13386137805E+02  0.39422263091E+02  0.00000000000E+00 0.  1.
         13    1    3    3    0    0 -0.15005054105E+02  0.33908324835E+02 -0.99658789278E+02  0.10633343981E+03  0.00000000000E+00 0. -1.
<mgrwt>
<rscale>  0 0.92008529E+02</rscale>
<asrwt>0</asrwt>
<pdfrwt beam="1">  1        3 0.25162135E-02 0.92008529E+02</pdfrwt>
<pdfrwt beam="2">  1       -3 0.19907741E-01 0.92008529E+02</pdfrwt>
<totfact> 0.30801201E+04</totfact>
</mgrwt>
</event>
<event>
 5    1  0.6112843E+000  0.1102587E+03  0.7546771E-02  0.1260092E+00
         -1   -1    0    0    0  501 -0.00000000000E+00  0.00000000000E+00  0.10796479946E+03  0.10796479946E+03  0.00000000000E+00 0.  1.
          1   -1    0    0  501    0  0.00000000000E+00 -0.00000000000E+00 -0.28150350537E+02  0.28150350537E+02  0.00000000000E+00 0. -1.
         23    2    1    2    0    0  0.00000000000E+00  0.00000000000E+00  0.79814448925E+02  0.13611515000E+03  0.11025873118E+03 0.  0.
        -13    1    3    3    0    0 -0.17351630767E+01  0.36802609945E+02  0.90534105652E+02  0.97743885619E+02  0.00000000000E+00 0.  1.
         13    1    3    3    0    0  0.17351630767E+01 -0.36802609945E+02 -0.10719656727E+02  0.38371264379E+02  0.00000000000E+00 0. -1.
<mgrwt>
<rscale>  0 0.11025873E+03</rscale>
<asrwt>0</asrwt>
<pdfrwt beam="2">  1        1 0.43308232E-02 0.11025873E+03</pdfrwt>
<pdfrwt beam="1">  1       -1 0.16609969E-01 0.11025873E+03</pdfrwt>
<totfact> 0.49047713E+04</totfact>
</mgrwt>
</event>
<event>
 5    1  0.6112843E+000  0.9206609E+02  0.7546771E-02  0.1297924E+00
         -1   -1    0    0    0  501 -0.00000000000E+00  0.00000000000E+00  0.46635419085E+02  0.46635419085E+02  0.00000000000E+00 0.  1.
          1   -1    0    0  501    0  0.00000000000E+00 -0.00000000000E+00 -0.45438448176E+02  0.45438448176E+02  0.00000000000E+00 0. -1.
         23    2    1    2    0    0  0.00000000000E+00  0.00000000000E+00  0.11969709092E+01  0.92073867261E+02  0.92066086552E+02 0.  0.
        -13    1    3    3    0    0 -0.12168572535E+02 -0.18397814029E+01 -0.43762699196E+02  0.45460233106E+02  0.00000000000E+00 0. -1.
         13    1    3    3    0    0  0.12168572535E+02  0.18397814029E+01  0.44959670105E+02  0.46613634155E+02  0.00000000000E+00 0.  1.
<mgrwt>
<rscale>  0 0.92066087E+02</rscale>
<asrwt>0</asrwt>
<pdfrwt beam="2">  1        1 0.69905305E-02 0.92066087E+02</pdfrwt>
<pdfrwt beam="1">  1       -1 0.71746799E-02 0.92066087E+02</pdfrwt>
<totfact> 0.89937722E+04</totfact>
</mgrwt>
</event>
<event>
 5    1  0.6112843E+000  0.8897880E+02  0.7546771E-02  0.1305344E+00
          3   -1    0    0  501    0  0.00000000000E+00  0.00000000000E+00  0.27081121882E+02  0.27081121882E+02  0.00000000000E+00 0. -1.
         -3   -1    0    0    0  501 -0.00000000000E+00 -0.00000000000E+00 -0.73088067509E+02  0.73088067509E+02  0.00000000000E+00 0.  1.
         23    2    1    2    0    0  0.00000000000E+00  0.00000000000E+00 -0.46006945628E+02  0.10016918939E+03  0.88978803415E+02 0.  0.
        -13    1    3    3    0    0 -0.17624387001E+02  0.40188981272E+02 -0.14766626733E+02  0.46301474037E+02  0.00000000000E+00 0.  1.
         13    1    3    3    0    0  0.17624387001E+02 -0.40188981272E+02 -0.31240318894E+02  0.53867715354E+02  0.00000000000E+00 0. -1.
<mgrwt>
<rscale>  0 0.88978803E+02</rscale>
<asrwt>0</asrwt>
<pdfrwt beam="1">  1        3 0.41663264E-02 0.88978803E+02</pdfrwt>
<pdfrwt beam="2">  1       -3 0.11244318E-01 0.88978803E+02</pdfrwt>
<totfact> 0.37033106E+04</totfact>
</mgrwt>
</event>
<event>
 5    1  0.6112843E+000  0.9430533E+02  0.7546771E-02  0.1292748E+00
          2   -1    0    0  501    0  0.00000000000E+00  0.00000000000E+00  0.11646114716E+03  0.11646114716E+03  0.00000000000E+00 0.  1.
         -2   -1    0    0    0  501 -0.00000000000E+00 -0.00000000000E+00 -0.19091119441E+02  0.19091119441E+02  0.00000000000E+00 0. -1.
         23    2    1    2    0    0  0.00000000000E+00  0.00000000000E+00  0.97370027722E+02  0.13555226660E+03  0.94305326907E+02 0.  0.
        -13    1    3    3    0    0  0.14596289226E+02  0.40318157276E+02  0.76879887202E+02  0.88029100424E+02  0.00000000000E+00 0.  1.
         13    1    3    3    0    0 -0.14596289226E+02 -0.40318157276E+02  0.20490140519E+02  0.47523166180E+02  0.00000000000E+00 0. -1.
<mgrwt>
<rscale>  0 0.94305327E+02</rscale>
<asrwt>0</asrwt>
<pdfrwt beam="1">  1        2 0.17917099E-01 0.94305327E+02</pdfrwt>
<pdfrwt beam="2">  1       -2 0.29370954E-02 0.94305327E+02</pdfrwt>
<totfact> 0.11725069E+05</totfact>
</mgrwt>
</event>
<event>
 5    1  0.6112843E+000  0.9097588E+02  0.7546771E-02  0.1300506E+00
          2   -1    0    0  501    0  0.00000000000E+00  0.00000000000E+00  0.82330495948E+02  0.82330495948E+02  0.00000000000E+00 0.  1.
         -2   -1    0    0    0  501 -0.00000000000E+00 -0.00000000000E+00 -0.25132275633E+02  0.25132275633E+02  0.00000000000E+00 0. -1.
         23    2    1    2    0    0  0.00000000000E+00  0.00000000000E+00  0.57198220316E+02  0.10746277158E+03  0.90975880697E+02 0.  0.
        -13    1    3    3    0    0  0.38102217516E+02  0.82430943933E+00  0.57932801567E+02  0.69344559723E+02  0.00000000000E+00 0.  1.
         13    1    3    3    0    0 -0.38102217516E+02 -0.82430943933E+00 -0.73458125148E+00  0.38118211859E+02  0.00000000000E+00 0. -1.
<mgrwt>
<rscale>  0 0.90975881E+02</rscale>
<asrwt>0</asrwt>
<pdfrwt beam="1">  1        2 0.12666230E-01 0.90975881E+02</pdfrwt>
<pdfrwt beam="2">  1       -2 0.38665040E-02 0.90975881E+02</pdfrwt>
<totfact> 0.11651818E+05</totfact>
</mgrwt>
</event>
<event>
 5    1  0.6112843E+000  0.9058876E+02  0.7546771E-02  0.1301432E+00
          4   -1    0    0  501    0  0.00000000000E+00  0.00000000000E+00  0.63328536742E+02  0.63328536742E+02  0.00000000000E+00 0. -1.
         -4   -1    0    0    0  501 -0.00000000000E+00 -0.00000000000E+00 -0.32395832132E+02  0.32395832132E+02  0.00000000000E+00 0.  1.
         23    2    1    2    0    0  0.00000000000E+00  0.00000000000E+00  0.30932704609E+02  0.95724368874E+02  0.90588755273E+02 0.  0.
        -13    1    3    3    0    0  0.33352310882E+02 -0.34328882628E+01  0.47646370105E+02  0.58260947016E+02  0.00000000000E+00 0. -1.
         13    1    3    3    0    0 -0.33352310882E+02  0.34328882628E+01 -0.16713665496E+02  0.37463421858E+02  0.00000000000E+00 0.  1.
<mgrwt>
<rscale>  0 0.90588755E+02</rscale>
<asrwt>0</asrwt>
<pdfrwt beam="1">  1        4 0.97428518E-02 0.90588755E+02</pdfrwt>
<pdfrwt beam="2">  1       -4 0.49839742E-02 0.90588755E+02</pdfrwt>
<totfact> 0.27198202E+04</totfact>
</mgrwt>
</event>
<event>
 5    1  0.6112843E+000  0.1092364E+03  0.7546771E-02  0.1261990E+00
          1   -1    0    0  501    0  0.00000000000E+00  0.00000000000E+00  0.16399117841E+02  0.16399117841E+02  0.00000000000E+00 0. -1.
         -1   -1    0    0    0  501 -0.00000000000E+00 -0.00000000000E+00 -0.18190914119E+03  0.18190914119E+03  0.00000000000E+00 0.  1.
         23    2    1    2    0    0  0.00000000000E+00  0.00000000000E+00 -0.16551002335E+03  0.19830825903E+03  0.10923643060E+03 0.  0.
        -13    1    3    3    0    0  0.50701498511E+02 -0.13401798249E+02 -0.55050060564E+02  0.76031304840E+02  0.00000000000E+00 0. -1.
         13    1    3    3    0    0 -0.50701498511E+02  0.13401798249E+02 -0.11045996279E+03  0.12227695419E+03  0.00000000000E+00 0.  1.
<mgrwt>
<rscale>  0 0.10923643E+03</rscale>
<asrwt>0</asrwt>
<pdfrwt beam="1">  1        1 0.25229411E-02 0.10923643E+03</pdfrwt>
<pdfrwt beam="2">  1       -1 0.27986023E-01 0.10923643E+03</pdfrwt>
<totfact> 0.44428165E+04</totfact>
</mgrwt>
</event>
<event>
 5    1  0.6112843E+000  0.9093959E+02  0.7546771E-02  0.1300592E+00
         -2   -1    0    0    0  501 -0.00000000000E+00  0.00000000000E+00  0.34897187794E+02  0.34897187794E+02  0.00000000000E+00 0.  1.
          2   -1    0    0  501    0  0.00000000000E+00 -0.00000000000E+00 -0.59245529345E+02  0.59245529345E+02  0.00000000000E+00 0. -1.
         23    2    1    2    0    0  0.00000000000E+00  0.00000000000E+00 -0.24348341550E+02  0.94142717139E+02  0.90939592335E+02 0.  0.
        -13    1    3    3    0    0 -0.92649781825E+01  0.28921376894E+02  0.22858844969E+02  0.38010691331E+02  0.00000000000E+00 0.  1.
         13    1    3    3    0    0  0.92649781825E+01 -0.28921376894E+02 -0.47207186520E+02  0.56132025808E+02  0.00000000000E+00 0. -1.
<mgrwt>
<rscale>  0 0.90939592E+02</rscale>
<asrwt>0</asrwt>
<pdfrwt beam="2">  1        2 0.91146966E-02 0.90939592E+02</pdfrwt>
<pdfrwt beam="1">  1       -2 0.53687982E-02 0.90939592E+02</pdfrwt>
<totfact> 0.10649049E+05</totfact>
</mgrwt>
</event>
<event>
 5    1  0.6112843E+000  0.9130037E+02  0.7546771E-02  0.1299733E+00
         -1   -1    0    0    0  501 -0.00000000000E+00  0.00000000000E+00  0.10281369738E+03  0.10281369738E+03  0.00000000000E+00 0.  1.
          1   -1    0    0  501    0  0.00000000000E+00 -0.00000000000E+00 -0.20269081296E+02  0.20269081296E+02  0.00000000000E+00 0. -1.
         23    2    1    2    0    0  0.00000000000E+00  0.00000000000E+00  0.82544616085E+02  0.12308277868E+03  0.91300365620E+02 0.  0.
        -13    1    3    3    0    0 -0.32436993405E+02 -0.26743852647E+02  0.65257537250E+02  0.77626917777E+02  0.00000000000E+00 0.  1.
         13    1    3    3    0    0  0.32436993405E+02  0.26743852647E+02  0.17287078835E+02  0.45455860900E+02  0.00000000000E+00 0. -1.
<mgrwt>
<rscale>  0 0.91300366E+02</rscale>
<asrwt>0</asrwt>
<pdfrwt beam="2">  1        1 0.31183203E-02 0.91300366E+02</pdfrwt>
<pdfrwt beam="1">  1       -1 0.15817492E-01 0.91300366E+02</pdfrwt>
<totfact> 0.80666754E+04</totfact>
</mgrwt>
</event>
<event>
 5    1  0.6112843E+000  0.9500429E+02  0.7546771E-02  0.1291166E+00
          2   -1    0    0  501    0  0.00000000000E+00  0.00000000000E+00  0.56363449990E+02  0.56363449990E+02  0.00000000000E+00 0. -1.
         -2   -1    0    0    0  501 -0.00000000000E+00 -0.00000000000E+00 -0.40033991625E+02  0.40033991625E+02  0.00000000000E+00 0.  1.
         23    2    1    2    0    0  0.00000000000E+00  0.00000000000E+00  0.16329458365E+02  0.96397441615E+02  0.95004292216E+02 0.  0.
        -13    1    3    3    0    0  0.46975448155E+01 -0.14170249654E+02  0.53921364856E+02  0.55949767564E+02  0.00000000000E+00 0. -1.
         13    1    3    3    0    0 -0.46975448155E+01  0.14170249654E+02 -0.37591906491E+02  0.40447674051E+02  0.00000000000E+00 0.  1.
<mgrwt>
<rscale>  0 0.95004292E+02</rscale>
<asrwt>0</asrwt>
<pdfrwt beam="1">  1        2 0.86713000E-02 0.95004292E+02</pdfrwt>
<pdfrwt beam="2">  1       -2 0.61590757E-02 0.95004292E+02</pdfrwt>
<totfact> 0.92801079E+04</totfact>
</mgrwt>
</event>
<event>
 5    1  0.6112843E+000  0.9202616E+02  0.7546771E-02  0.1298018E+00
          4   -1    0    0  501    0  0.00000000000E+00  0.00000000000E+00  0.30858891203E+02  0.30858891203E+02  0.00000000000E+00 0. -1.
         -4   -1    0    0    0  501 -0.00000000000E+00 -0.00000000000E+00 -0.68609188695E+02  0.68609188695E+02  0.00000000000E+00 0.  1.
         23    2    1    2    0    0  0.00000000000E+00  0.00000000000E+00 -0.37750297492E+02  0.99468079898E+02  0.92026159095E+02 0.  0.
        -13    1    3    3    0    0  0.62325853879E+01  0.27518788279E+02  0.20410698128E+02  0.34824207486E+02  0.00000000000E+00 0. -1.
         13    1    3    3    0    0 -0.62325853879E+01 -0.27518788279E+02 -0.58160995620E+02  0.64643872412E+02  0.00000000000E+00 0.  1.
<mgrwt>
<rscale>  0 0.92026159E+02</rscale>
<asrwt>0</asrwt>
<pdfrwt beam="1">  1        4 0.47475217E-02 0.92026159E+02</pdfrwt>
<pdfrwt beam="2">  1       -4 0.10555260E-01 0.92026159E+02</pdfrwt>
<totfact> 0.25831961E+04</totfact>
</mgrwt>
</event>
<event>
 5    1  0.6112843E+000  0.8909348E+02  0.7546771E-02  0.1305062E+00
          1   -1    0    0  501    0  0.00000000000E+00  0.00000000000E+00  0.22683607780E+02  0.22683607780E+02  0.00000000000E+00 0. -1.
         -1   -1    0    0    0  501 -0.00000000000E+00 -0.00000000000E+00 -0.87482201703E+02  0.87482201703E+02  0.00000000000E+00 0.  1.
         23    2    1    2    0    0  0.00000000000E+00  0.00000000000E+00 -0.64798593923E+02  0.11016580948E+03  0.89093477901E+02 0.  0.
        -13    1    3    3    0    0 -0.27985786698E+02  0.21086855446E+01 -0.75175738764E+02  0.80243644674E+02  0.00000000000E+00 0.  1.
         13    1    3    3    0    0  0.27985786698E+02 -0.21086855446E+01  0.10377144840E+02  0.29922164809E+02  0.00000000000E+00 0. -1.
<mgrwt>
<rscale>  0 0.89093478E+02</rscale>
<asrwt>0</asrwt>
<pdfrwt beam="1">  1        1 0.34897858E-02 0.89093478E+02</pdfrwt>
<pdfrwt beam="2">  1       -1 0.13458800E-01 0.89093478E+02</pdfrwt>
<totfact> 0.88446287E+04</totfact>
</mgrwt>
</event>
<event>
 5    1  0.6112843E+000  0.9033470E+02  0.7546771E-02  0.1302043E+00
         -2   -1    0    0    0  501 -0.00000000000E+00  0.00000000000E+00  0.44088026542E+02  0.44088026542E+02  0.00000000000E+00 0.  1.
          2   -1    0    0  501    0  0.00000000000E+00 -0.00000000000E+00 -0.46273098960E+02  0.46273098960E+02  0.00000000000E+00 0. -1.
         23    2    1    2    0    0  0.00000000000E+00  0.00000000000E+00 -0.21850724179E+01  0.90361125502E+02  0.90334702416E+02 0.  0.
        -13    1    3    3    0    0 -0.18953841001E+02 -0.30889763504E+02 -0.28057127820E+02  0.45832608474E+02  0.00000000000E+00 0. -1.
         13    1    3    3    0    0  0.18953841001E+02  0.30889763504E+02  0.25872055402E+02  0.44528517028E+02  0.00000000000E+00 0.  1.
<mgrwt>
<rscale>  0 0.90334702E+02</rscale>
<asrwt>0</asrwt>
<pdfrwt beam="2">  1        2 0.71189383E-02 0.90334702E+02</pdfrwt>
<pdfrwt beam="1">  1       -2 0.67827733E-02 0.90334702E+02</pdfrwt>
<totfact> 0.10172353E+05</totfact>
</mgrwt>
</event>
<event>
 5    1  0.6112843E+000  0.9132493E+02  0.7546771E-02  0.1299675E+00
          1   -1    0    0  501    0  0.00000000000E+00  0.00000000000E+00  0.14929001047E+03  0.14929001047E+03  0.00000000000E+00 0. -1.
         -1   -1    0    0    0  501 -0.00000000000E+00 -0.00000000000E+00 -0.13966512443E+02  0.13966512443E+02  0.00000000000E+00 0.  1.
         23    2    1    2    0    0  0.00000000000E+00  0.00000000000E+00  0.13532349803E+03  0.16325652292E+03  0.91324931732E+02 0.  0.
        -13    1    3    3    0    0  0.90408727917E+01 -0.27203620850E+02  0.41239597006E+01  0.28961723218E+02  0.00000000000E+00 0.  1.
         13    1    3    3    0    0 -0.90408727917E+01  0.27203620850E+02  0.13119953833E+03  0.13429479970E+03  0.00000000000E+00 0. -1.
<mgrwt>
<rscale>  0 0.91324932E+02</rscale>
<asrwt>0</asrwt>
<pdfrwt beam="1">  1        1 0.22967693E-01 0.91324932E+02</pdfrwt>
<pdfrwt beam="2">  1       -1 0.21486943E-02 0.91324932E+02</pdfrwt>
<totfact> 0.11154501E+05</totfact>
</mgrwt>
</event>
<event>
 5    1  0.6112843E+000  0.9051734E+02  0.7546771E-02  0.1301604E+00
          2   -1    0    0  501    0  0.00000000000E+00  0.00000000000E+00  0.21616739416E+03  0.21616739416E+03  0.00000000000E+00 0. -1.
         -2   -1    0    0    0  501 -0.00000000000E+00 -0.00000000000E+00 -0.94757446791E+01  0.94757446791E+01  0.00000000000E+00 0.  1.
         23    2    1    2    0    0  0.00000000000E+00  0.00000000000E+00  0.20669164948E+03  0.22564313884E+03  0.90517336129E+02 0.  0.
        -13    1    3    3    0    0  0.44097410830E+02  0.75382515681E+01  0.12042483242E+03  0.12846613228E+03  0.00000000000E+00 0.  1.
         13    1    3    3    0    0 -0.44097410830E+02 -0.75382515681E+01  0.86266817054E+02  0.97177006556E+02  0.00000000000E+00 0. -1.
<mgrwt>
<rscale>  0 0.90517336E+02</rscale>
<asrwt>0</asrwt>
<pdfrwt beam="1">  1        2 0.33256518E-01 0.90517336E+02</pdfrwt>
<pdfrwt beam="2">  1       -2 0.14578070E-02 0.90517336E+02</pdfrwt>
<totfact> 0.16224572E+05</totfact>
</mgrwt>
</event>
<event>
 5    1  0.6112843E+000  0.9138762E+02  0.7546771E-02  0.1299526E+00
          3   -1    0    0  501    0  0.00000000000E+00  0.00000000000E+00  0.62553944862E+02  0.62553944862E+02  0.00000000000E+00 0. -1.
         -3   -1    0    0    0  501 -0.00000000000E+00 -0.00000000000E+00 -0.33377982060E+02  0.33377982060E+02  0.00000000000E+00 0.  1.
         23    2    1    2    0    0  0.00000000000E+00  0.00000000000E+00  0.29175962802E+02  0.95931926922E+02  0.91387623875E+02 0.  0.
        -13    1    3    3    0    0  0.20279333141E+02 -0.30369812285E+02  0.43419103040E+02  0.56734428345E+02  0.00000000000E+00 0. -1.
         13    1    3    3    0    0 -0.20279333141E+02  0.30369812285E+02 -0.14243140237E+02  0.39197498577E+02  0.00000000000E+00 0.  1.
<mgrwt>
<rscale>  0 0.91387624E+02</rscale>
<asrwt>0</asrwt>
<pdfrwt beam="1">  1        3 0.96236838E-02 0.91387624E+02</pdfrwt>
<pdfrwt beam="2">  1       -3 0.51350742E-02 0.91387624E+02</pdfrwt>
<totfact> 0.34756029E+04</totfact>
</mgrwt>
</event>
<event>
 5    1  0.6112843E+000  0.9053217E+02  0.7546771E-02  0.1301568E+00
         -1   -1    0    0    0  501 -0.00000000000E+00  0.00000000000E+00  0.81871966283E+01  0.81871966283E+01  0.00000000000E+00 0.  1.
          1   -1    0    0  501    0  0.00000000000E+00 -0.00000000000E+00 -0.25027106488E+03  0.25027106488E+03  0.00000000000E+00 0. -1.
         23    2    1    2    0    0  0.00000000000E+00  0.00000000000E+00 -0.24208386825E+03  0.25845826151E+03  0.90532169278E+02 0.  0.
        -13    1    3    3    0    0  0.65004064685E+01 -0.43055515677E+02 -0.85730698343E+02  0.96155006905E+02  0.00000000000E+00 0.  1.
         13    1    3    3    0    0 -0.65004064685E+01  0.43055515677E+02 -0.15635316991E+03  0.16230325461E+03  0.00000000000E+00 0. -1.
<mgrwt>
<rscale>  0 0.90532169E+02</rscale>
<asrwt>0</asrwt>
<pdfrwt beam="2">  1        1 0.38503238E-01 0.90532169E+02</pdfrwt>
<pdfrwt beam="1">  1       -1 0.12595688E-02 0.90532169E+02</pdfrwt>
<totfact> 0.12606134E+05</totfact>
</mgrwt>
</event>
<event>
 4    1  0.6112843E+000  0.1319694E+03  0.7546771E-02  0.1224562E+00
          1   -1    0    0  501    0  0.00000000000E+00  0.00000000000E+00  0.71975783379E+02  0.71975783379E+02  0.00000000000E+00 0. -1.
         -1   -1    0    0    0  501 -0.00000000000E+00 -0.00000000000E+00 -0.60492255682E+02  0.60492255682E+02  0.00000000000E+00 0.  1.
        -13    1    1    2    0    0 -0.31056775989E+02 -0.13190444494E+02  0.62661123451E+02  0.71168304412E+02  0.00000000000E+00 0. -1.
         13    1    1    2    0    0  0.31056775989E+02  0.13190444494E+02 -0.51177595754E+02  0.61299734648E+02  0.00000000000E+00 0.  1.
<mgrwt>
<rscale>  0 0.13196935E+03</rscale>
<asrwt>0</asrwt>
<pdfrwt beam="1">  1        1 0.11073197E-01 0.13196935E+03</pdfrwt>
<pdfrwt beam="2">  1       -1 0.93065009E-02 0.13196935E+03</pdfrwt>
<totfact> 0.34731824E+04</totfact>
</mgrwt>
</event>
<event>
 5    1  0.6112843E+000  0.8925837E+02  0.7546771E-02  0.1304658E+00
         -1   -1    0    0    0  501 -0.00000000000E+00  0.00000000000E+00  0.72763744760E+01  0.72763744760E+01  0.00000000000E+00 0.  1.
          1   -1    0    0  501    0  0.00000000000E+00 -0.00000000000E+00 -0.27373032124E+03  0.27373032124E+03  0.00000000000E+00 0. -1.
         23    2    1    2    0    0  0.00000000000E+00  0.00000000000E+00 -0.26645394677E+03  0.28100669572E+03  0.89258373788E+02 0.  0.
        -13    1    3    3    0    0 -0.43080980242E+02  0.43590089566E+01 -0.99203771273E+02  0.10824213622E+03  0.00000000000E+00 0.  1.
         13    1    3    3    0    0  0.43080980242E+02 -0.43590089566E+01 -0.16725017549E+03  0.17276455950E+03  0.00000000000E+00 0. -1.
<mgrwt>
<rscale>  0 0.89258374E+02</rscale>
<asrwt>0</asrwt>
<pdfrwt beam="2">  1        1 0.42112353E-01 0.89258374E+02</pdfrwt>
<pdfrwt beam="1">  1       -1 0.11194423E-02 0.89258374E+02</pdfrwt>
<totfact> 0.13321386E+05</totfact>
</mgrwt>
</event>
<event>
 5    1  0.6112843E+000  0.9274104E+02  0.7546771E-02  0.1296346E+00
          1   -1    0    0  501    0  0.00000000000E+00  0.00000000000E+00  0.15129135411E+02  0.15129135411E+02  0.00000000000E+00 0. -1.
         -1   -1    0    0    0  501 -0.00000000000E+00 -0.00000000000E+00 -0.14212477694E+03  0.14212477694E+03  0.00000000000E+00 0.  1.
         23    2    1    2    0    0  0.00000000000E+00  0.00000000000E+00 -0.12699564152E+03  0.15725391235E+03  0.92741037206E+02 0.  0.
        -13    1    3    3    0    0  0.10973940840E+02  0.45006236545E+02 -0.66987796050E+02  0.81445402111E+02  0.00000000000E+00 0.  1.
         13    1    3    3    0    0 -0.10973940840E+02 -0.45006236545E+02 -0.60007845475E+02  0.75808510235E+02  0.00000000000E+00 0. -1.
<mgrwt>
<rscale>  0 0.92741037E+02</rscale>
<asrwt>0</asrwt>
<pdfrwt beam="1">  1        1 0.23275594E-02 0.92741037E+02</pdfrwt>
<pdfrwt beam="2">  1       -1 0.21865349E-01 0.92741037E+02</pdfrwt>
<totfact> 0.72450891E+04</totfact>
</mgrwt>
</event>
<event>
 5    1  0.6112843E+000  0.9028009E+02  0.7546771E-02  0.1302175E+00
          2   -1    0    0  501    0  0.00000000000E+00  0.00000000000E+00  0.95177057990E+02  0.95177057990E+02  0.00000000000E+00 0. -1.
         -2   -1    0    0    0  501 -0.00000000000E+00 -0.00000000000E+00 -0.21408766834E+02  0.21408766834E+02  0.00000000000E+00 0.  1.
         23    2    1    2    0    0  0.00000000000E+00  0.00000000000E+00  0.73768291156E+02  0.11658582482E+03  0.90280085123E+02 0.  0.
        -13    1    3    3    0    0 -0.20924708001E+02  0.14573776481E+02 -0.11216654374E+02  0.27857704521E+02  0.00000000000E+00 0.  1.
         13    1    3    3    0    0  0.20924708001E+02 -0.14573776481E+02  0.84984945529E+02  0.88728120303E+02  0.00000000000E+00 0. -1.
<mgrwt>
<rscale>  0 0.90280085E+02</rscale>
<asrwt>0</asrwt>
<pdfrwt beam="1">  1        2 0.14642624E-01 0.90280085E+02</pdfrwt>
<pdfrwt beam="2">  1       -2 0.32936565E-02 0.90280085E+02</pdfrwt>
<totfact> 0.12419173E+05</totfact>
</mgrwt>
</event>
<event>
 5    1  0.6112843E+000  0.9137415E+02  0.7546771E-02  0.1299558E+00
         -1   -1    0    0    0  501 -0.00000000000E+00  0.00000000000E+00  0.16426358315E+02  0.16426358315E+02  0.00000000000E+00 0.  1.
          1   -1    0    0  501    0  0.00000000000E+00 -0.00000000000E+00 -0.12707069075E+03  0.12707069075E+03  0.00000000000E+00 0. -1.
         23    2    1    2    0    0  0.00000000000E+00  0.00000000000E+00 -0.11064433244E+03  0.14349704907E+03  0.91374147276E+02 0.  0.
        -13    1    3    3    0    0 -0.27975847534E+02  0.16519067502E+02 -0.10576661829E+03  0.11064404720E+03  0.00000000000E+00 0. -1.
         13    1    3    3    0    0  0.27975847534E+02 -0.16519067502E+02 -0.48777141481E+01  0.32853001867E+02  0.00000000000E+00 0.  1.
<mgrwt>
<rscale>  0 0.91374147E+02</rscale>
<asrwt>0</asrwt>
<pdfrwt beam="2">  1        1 0.19549337E-01 0.91374147E+02</pdfrwt>
<pdfrwt beam="1">  1       -1 0.25271321E-02 0.91374147E+02</pdfrwt>
<totfact> 0.10819046E+05</totfact>
</mgrwt>
</event>
<event>
 5    1  0.6112843E+000  0.8912636E+02  0.7546771E-02  0.1304981E+00
         -1   -1    0    0    0  501 -0.00000000000E+00  0.00000000000E+00  0.48603569085E+02  0.48603569085E+02  0.00000000000E+00 0.  1.
          1   -1    0    0  501    0  0.00000000000E+00 -0.00000000000E+00 -0.40858668301E+02  0.40858668301E+02  0.00000000000E+00 0. -1.
         23    2    1    2    0    0  0.00000000000E+00  0.00000000000E+00  0.77449007835E+01  0.89462237386E+02  0.89126362149E+02 0.  0.
        -13    1    3    3    0    0 -0.71714352367E+01 -0.28957879760E+02  0.37101416130E+02  0.47607807789E+02  0.00000000000E+00 0.  1.
         13    1    3    3    0    0  0.71714352367E+01  0.28957879760E+02 -0.29356515347E+02  0.41854429597E+02  0.00000000000E+00 0. -1.
<mgrwt>
<rscale>  0 0.89126362E+02</rscale>
<asrwt>0</asrwt>
<pdfrwt beam="2">  1        1 0.62859490E-02 0.89126362E+02</pdfrwt>
<pdfrwt beam="1">  1       -1 0.74774721E-02 0.89126362E+02</pdfrwt>
<totfact> 0.96968486E+04</totfact>
</mgrwt>
</event>
<event>
 5    1  0.6112843E+000  0.9229665E+02  0.7546771E-02  0.1297383E+00
          2   -1    0    0  501    0  0.00000000000E+00  0.00000000000E+00  0.28573273826E+02  0.28573273826E+02  0.00000000000E+00 0. -1.
         -2   -1    0    0    0  501 -0.00000000000E+00 -0.00000000000E+00 -0.74533563168E+02  0.74533563168E+02  0.00000000000E+00 0.  1.
         23    2    1    2    0    0  0.00000000000E+00  0.00000000000E+00 -0.45960289342E+02  0.10310683699E+03  0.92296650201E+02 0.  0.
        -13    1    3    3    0    0  0.44670834339E+02  0.24995424251E+01 -0.35615841394E+02  0.57185831384E+02  0.00000000000E+00 0.  1.
         13    1    3    3    0    0 -0.44670834339E+02 -0.24995424251E+01 -0.10344447948E+02  0.45921005609E+02  0.00000000000E+00 0. -1.
<mgrwt>
<rscale>  0 0.92296650E+02</rscale>
<asrwt>0</asrwt>
<pdfrwt beam="1">  1        2 0.43958883E-02 0.92296650E+02</pdfrwt>
<pdfrwt beam="2">  1       -2 0.11466702E-01 0.92296650E+02</pdfrwt>
<totfact> 0.84188913E+04</totfact>
</mgrwt>
</event>
<event>
 5    1  0.6112843E+000  0.9022853E+02  0.7546771E-02  0.1302299E+00
         -3   -1    0    0    0  501 -0.00000000000E+00  0.00000000000E+00  0.35725840951E+02  0.35725840951E+02  0.00000000000E+00 0.  1.
          3   -1    0    0  501    0  0.00000000000E+00 -0.00000000000E+00 -0.56969883014E+02  0.56969883014E+02  0.00000000000E+00 0. -1.
         23    2    1    2    0    0  0.00000000000E+00  0.00000000000E+00 -0.21244042063E+02  0.92695723965E+02  0.90228531620E+02 0.  0.
        -13    1    3    3    0    0  0.12758480870E+02  0.33097964473E+02 -0.39259732381E+02  0.52911063805E+02  0.00000000000E+00 0. -1.
         13    1    3    3    0    0 -0.12758480870E+02 -0.33097964473E+02  0.18015690319E+02  0.39784660160E+02  0.00000000000E+00 0.  1.
<mgrwt>
<rscale>  0 0.90228532E+02</rscale>
<asrwt>0</asrwt>
<pdfrwt beam="2">  1        3 0.87645974E-02 0.90228532E+02</pdfrwt>
<pdfrwt beam="1">  1       -3 0.54962832E-02 0.90228532E+02</pdfrwt>
<totfact> 0.36237883E+04</totfact>
</mgrwt>
</event>
<event>
 5    1  0.6112843E+000  0.9015367E+02  0.7546771E-02  0.1302480E+00
         -2   -1    0    0    0  501 -0.00000000000E+00  0.00000000000E+00  0.11122227328E+02  0.11122227328E+02  0.00000000000E+00 0.  1.
          2   -1    0    0  501    0  0.00000000000E+00 -0.00000000000E+00 -0.18269010386E+03  0.18269010386E+03  0.00000000000E+00 0. -1.
         23    2    1    2    0    0  0.00000000000E+00  0.00000000000E+00 -0.17156787653E+03  0.19381233119E+03  0.90153665832E+02 0.  0.
        -13    1    3    3    0    0 -0.46084289683E+01 -0.40260765354E+02 -0.43342184933E+02  0.59335586617E+02  0.00000000000E+00 0.  1.
         13    1    3    3    0    0  0.46084289683E+01  0.40260765354E+02 -0.12822569160E+03  0.13447674457E+03  0.00000000000E+00 0. -1.
<mgrwt>
<rscale>  0 0.90153666E+02</rscale>
<asrwt>0</asrwt>
<pdfrwt beam="2">  1        2 0.28106167E-01 0.90153666E+02</pdfrwt>
<pdfrwt beam="1">  1       -2 0.17111121E-02 0.90153666E+02</pdfrwt>
<totfact> 0.15435860E+05</totfact>
</mgrwt>
</event>
<event>
 5    1  0.6112843E+000  0.9927018E+02  0.7546771E-02  0.1281838E+00
         -1   -1    0    0    0  501 -0.00000000000E+00  0.00000000000E+00  0.53099977106E+01  0.53099977106E+01  0.00000000000E+00 0.  1.
          1   -1    0    0  501    0  0.00000000000E+00 -0.00000000000E+00 -0.46396290018E+03  0.46396290018E+03  0.00000000000E+00 0. -1.
         23    2    1    2    0    0  0.00000000000E+00  0.00000000000E+00 -0.45865290247E+03  0.46927289789E+03  0.99270175536E+02 0.  0.
        -13    1    3    3    0    0  0.44385853838E+02  0.19871622925E+02 -0.18237277755E+03  0.18874537189E+03  0.00000000000E+00 0.  1.
         13    1    3    3    0    0 -0.44385853838E+02 -0.19871622925E+02 -0.27628012492E+03  0.28052752600E+03  0.00000000000E+00 0. -1.
<mgrwt>
<rscale>  0 0.99270176E+02</rscale>
<asrwt>0</asrwt>
<pdfrwt beam="2">  1        1 0.71378902E-01 0.99270176E+02</pdfrwt>
<pdfrwt beam="1">  1       -1 0.81692279E-03 0.99270176E+02</pdfrwt>
<totfact> 0.10998328E+05</totfact>
</mgrwt>
</event>
<event>
 5    1  0.6112843E+000  0.9320711E+02  0.7546771E-02  0.1295266E+00
         -1   -1    0    0    0  501 -0.00000000000E+00  0.00000000000E+00  0.68756303011E+02  0.68756303011E+02  0.00000000000E+00 0.  1.
          1   -1    0    0  501    0  0.00000000000E+00 -0.00000000000E+00 -0.31588248733E+02  0.31588248733E+02  0.00000000000E+00 0. -1.
         23    2    1    2    0    0  0.00000000000E+00  0.00000000000E+00  0.37168054278E+02  0.10034455174E+03  0.93207107057E+02 0.  0.
        -13    1    3    3    0    0 -0.38576898470E+02  0.20338941998E+02  0.36275339887E+02  0.56725214333E+02  0.00000000000E+00 0.  1.
         13    1    3    3    0    0  0.38576898470E+02 -0.20338941998E+02  0.89271439093E+00  0.43619337411E+02  0.00000000000E+00 0. -1.
<mgrwt>
<rscale>  0 0.93207107E+02</rscale>
<asrwt>0</asrwt>
<pdfrwt beam="2">  1        1 0.48597306E-02 0.93207107E+02</pdfrwt>
<pdfrwt beam="1">  1       -1 0.10577893E-01 0.93207107E+02</pdfrwt>
<totfact> 0.82048967E+04</totfact>
</mgrwt>
</event>
<event>
 5    1  0.6112843E+000  0.8936225E+02  0.7546771E-02  0.1304403E+00
          4   -1    0    0  501    0  0.00000000000E+00  0.00000000000E+00  0.65515295353E+02  0.65515295353E+02  0.00000000000E+00 0. -1.
         -4   -1    0    0    0  501 -0.00000000000E+00 -0.00000000000E+00 -0.30472319396E+02  0.30472319396E+02  0.00000000000E+00 0.  1.
         23    2    1    2    0    0  0.00000000000E+00  0.00000000000E+00  0.35042975958E+02  0.95987614749E+02  0.89362251657E+02 0.  0.
        -13    1    3    3    0    0 -0.55074392848E+01 -0.16497994354E+02  0.61729740937E+02  0.64133272342E+02  0.00000000000E+00 0. -1.
         13    1    3    3    0    0  0.55074392848E+01  0.16497994354E+02 -0.26686764979E+02  0.31854342407E+02  0.00000000000E+00 0.  1.
<mgrwt>
<rscale>  0 0.89362252E+02</rscale>
<asrwt>0</asrwt>
<pdfrwt beam="1">  1        4 0.10079276E-01 0.89362252E+02</pdfrwt>
<pdfrwt beam="2">  1       -4 0.46880491E-02 0.89362252E+02</pdfrwt>
<totfact> 0.28200890E+04</totfact>
</mgrwt>
</event>
<event>
 5    1  0.6112843E+000  0.9107744E+02  0.7546771E-02  0.1300263E+00
         -1   -1    0    0    0  501 -0.00000000000E+00  0.00000000000E+00  0.44174039785E+02  0.44174039785E+02  0.00000000000E+00 0.  1.
          1   -1    0    0  501    0  0.00000000000E+00 -0.00000000000E+00 -0.46945557148E+02  0.46945557148E+02  0.00000000000E+00 0. -1.
         23    2    1    2    0    0  0.00000000000E+00  0.00000000000E+00 -0.27715173639E+01  0.91119596933E+02  0.91077437583E+02 0.  0.
        -13    1    3    3    0    0  0.36550183281E+02 -0.13740296122E+02 -0.24828704517E+02  0.46272845205E+02  0.00000000000E+00 0.  1.
         13    1    3    3    0    0 -0.36550183281E+02  0.13740296122E+02  0.22057187153E+02  0.44846751728E+02  0.00000000000E+00 0. -1.
<mgrwt>
<rscale>  0 0.91077438E+02</rscale>
<asrwt>0</asrwt>
<pdfrwt beam="2">  1        1 0.72223934E-02 0.91077438E+02</pdfrwt>
<pdfrwt beam="1">  1       -1 0.67960061E-02 0.91077438E+02</pdfrwt>
<totfact> 0.93165533E+04</totfact>
</mgrwt>
</event>
<event>
 5    1  0.6112843E+000  0.9320359E+02  0.7546771E-02  0.1295274E+00
          1   -1    0    0  501    0  0.00000000000E+00  0.00000000000E+00  0.15874729742E+03  0.15874729742E+03  0.00000000000E+00 0. -1.
         -1   -1    0    0    0  501 -0.00000000000E+00 -0.00000000000E+00 -0.13680404847E+02  0.13680404847E+02  0.00000000000E+00 0.  1.
         23    2    1    2    0    0  0.00000000000E+00  0.00000000000E+00  0.14506689257E+03  0.17242770227E+03  0.93203589996E+02 0.  0.
        -13    1    3    3    0    0 -0.41266409808E+02  0.17687926974E+02  0.95636226491E+02  0.10565068460E+03  0.00000000000E+00 0.  1.
         13    1    3    3    0    0  0.41266409808E+02 -0.17687926974E+02  0.49430666083E+02  0.66777017667E+02  0.00000000000E+00 0. -1.
<mgrwt>
<rscale>  0 0.93203590E+02</rscale>
<asrwt>0</asrwt>
<pdfrwt beam="1">  1        1 0.24422660E-01 0.93203590E+02</pdfrwt>
<pdfrwt beam="2">  1       -1 0.21046778E-02 0.93203590E+02</pdfrwt>
<totfact> 0.10678354E+05</totfact>
</mgrwt>
</event>
<event>
 5    1  0.6112843E+000  0.9089296E+02  0.7546771E-02  0.1300704E+00
          2   -1    0    0  501    0  0.00000000000E+00  0.00000000000E+00  0.11393948142E+03  0.11393948142E+03  0.00000000000E+00 0. -1.
         -2   -1    0    0    0  501 -0.00000000000E+00 -0.00000000000E+00 -0.18127014749E+02  0.18127014749E+02  0.00000000000E+00 0.  1.
         23    2    1    2    0    0  0.00000000000E+00  0.00000000000E+00  0.95812466672E+02  0.13206649617E+03  0.90892962550E+02 0.  0.
        -13    1    3    3    0    0 -0.95639986303E+01 -0.38528990235E+02  0.15761674555E+02  0.42712803035E+02  0.00000000000E+00 0.  1.
         13    1    3    3    0    0  0.95639986303E+01  0.38528990235E+02  0.80050792118E+02  0.89353693136E+02  0.00000000000E+00 0. -1.
<mgrwt>
<rscale>  0 0.90892963E+02</rscale>
<asrwt>0</asrwt>
<pdfrwt beam="1">  1        2 0.17529150E-01 0.90892963E+02</pdfrwt>
<pdfrwt beam="2">  1       -2 0.27887716E-02 0.90892963E+02</pdfrwt>
<totfact> 0.12883752E+05</totfact>
</mgrwt>
</event>
<event>
 5    1  0.6112843E+000  0.9032708E+02  0.7546771E-02  0.1302062E+00
          1   -1    0    0  501    0  0.00000000000E+00  0.00000000000E+00  0.17016100207E+03  0.17016100207E+03  0.00000000000E+00 0. -1.
         -1   -1    0    0    0  501 -0.00000000000E+00 -0.00000000000E+00 -0.11987150016E+02  0.11987150016E+02  0.00000000000E+00 0.  1.
         23    2    1    2    0    0  0.00000000000E+00  0.00000000000E+00  0.15817385205E+03  0.18214815209E+03  0.90327082508E+02 0.  0.
        -13    1    3    3    0    0  0.39240625541E+02 -0.14414356406E+02  0.44619719523E+02  0.61143435737E+02  0.00000000000E+00 0.  1.
         13    1    3    3    0    0 -0.39240625541E+02  0.14414356406E+02  0.11355413253E+03  0.12100471635E+03  0.00000000000E+00 0. -1.
<mgrwt>
<rscale>  0 0.90327083E+02</rscale>
<asrwt>0</asrwt>
<pdfrwt beam="1">  1        1 0.26178614E-01 0.90327083E+02</pdfrwt>
<pdfrwt beam="2">  1       -1 0.18441770E-02 0.90327083E+02</pdfrwt>
<totfact> 0.11772114E+05</totfact>
</mgrwt>
</event>
<event>
 5    1  0.6112843E+000  0.8987224E+02  0.7546771E-02  0.1303161E+00
          1   -1    0    0  501    0  0.00000000000E+00  0.00000000000E+00  0.41577912625E+02  0.41577912625E+02  0.00000000000E+00 0. -1.
         -1   -1    0    0    0  501 -0.00000000000E+00 -0.00000000000E+00 -0.48565570078E+02  0.48565570078E+02  0.00000000000E+00 0.  1.
         23    2    1    2    0    0  0.00000000000E+00  0.00000000000E+00 -0.69876574532E+01  0.90143482702E+02  0.89872243307E+02 0.  0.
        -13    1    3    3    0    0 -0.19862176716E+02 -0.39103427567E+02 -0.13304499935E+02  0.45832235707E+02  0.00000000000E+00 0.  1.
         13    1    3    3    0    0  0.19862176716E+02  0.39103427567E+02  0.63168424821E+01  0.44311246995E+02  0.00000000000E+00 0. -1.
<mgrwt>
<rscale>  0 0.89872243E+02</rscale>
<asrwt>0</asrwt>
<pdfrwt beam="1">  1        1 0.63966020E-02 0.89872243E+02</pdfrwt>
<pdfrwt beam="2">  1       -1 0.74716261E-02 0.89872243E+02</pdfrwt>
<totfact> 0.94971231E+04</totfact>
</mgrwt>
</event>
<event>
 5    1  0.6112843E+000  0.7857264E+02  0.7546771E-02  0.1333152E+00
          2   -1    0    0  501    0  0.00000000000E+00  0.00000000000E+00  0.25226940515E+02  0.25226940515E+02  0.00000000000E+00 0. -1.
         -2   -1    0    0    0  501 -0.00000000000E+00 -0.00000000000E+00 -0.61181222882E+02  0.61181222882E+02  0.00000000000E+00 0.  1.
         23    2    1    2    0    0  0.00000000000E+00  0.00000000000E+00 -0.35954282367E+02  0.86408163397E+02  0.78572643338E+02 0.  0.
        -13    1    3    3    0    0  0.22467236881E+02  0.67086725855E+01 -0.52642540396E+02  0.57628292359E+02  0.00000000000E+00 0.  1.
         13    1    3    3    0    0 -0.22467236881E+02 -0.67086725855E+01  0.16688258029E+02  0.28779871038E+02  0.00000000000E+00 0. -1.
<mgrwt>
<rscale>  0 0.78572643E+02</rscale>
<asrwt>0</asrwt>
<pdfrwt beam="1">  1        2 0.38810678E-02 0.78572643E+02</pdfrwt>
<pdfrwt beam="2">  1       -2 0.94124958E-02 0.78572643E+02</pdfrwt>
<totfact> 0.13105762E+05</totfact>
</mgrwt>
</event>
<event>
 5    1  0.6112843E+000  0.9134886E+02  0.7546771E-02  0.1299618E+00
         -2   -1    0    0    0  501 -0.00000000000E+00  0.00000000000E+00  0.13804766986E+02  0.13804766986E+02  0.00000000000E+00 0.  1.
          2   -1    0    0  501    0  0.00000000000E+00 -0.00000000000E+00 -0.15111833010E+03  0.15111833010E+03  0.00000000000E+00 0. -1.
         23    2    1    2    0    0  0.00000000000E+00  0.00000000000E+00 -0.13731356312E+03  0.16492309709E+03  0.91348855153E+02 0.  0.
        -13    1    3    3    0    0  0.27318134636E+02  0.18030846490E+00 -0.13474208648E+03  0.13748360943E+03  0.00000000000E+00 0. -1.
         13    1    3    3    0    0 -0.27318134636E+02 -0.18030846490E+00 -0.25714766342E+01  0.27439487663E+02  0.00000000000E+00 0.  1.
<mgrwt>
<rscale>  0 0.91348855E+02</rscale>
<asrwt>0</asrwt>
<pdfrwt beam="2">  1        2 0.23248976E-01 0.91348855E+02</pdfrwt>
<pdfrwt beam="1">  1       -2 0.21238101E-02 0.91348855E+02</pdfrwt>
<totfact> 0.13944791E+05</totfact>
</mgrwt>
</event>
<event>
 5    1  0.6112843E+000  0.9373157E+02  0.7546771E-02  0.1294059E+00
          1   -1    0    0  501    0  0.00000000000E+00  0.00000000000E+00  0.78406159170E+02  0.78406159170E+02  0.00000000000E+00 0. -1.
         -1   -1    0    0    0  501 -0.00000000000E+00 -0.00000000000E+00 -0.28013126539E+02  0.28013126539E+02  0.00000000000E+00 0.  1.
         23    2    1    2    0    0  0.00000000000E+00  0.00000000000E+00  0.50393032631E+02  0.10641928571E+03  0.93731566899E+02 0.  0.
        -13    1    3    3    0    0  0.32299522350E+02  0.25197905737E+02 -0.64907927312E+00  0.40970903108E+02  0.00000000000E+00 0.  1.
         13    1    3    3    0    0 -0.32299522350E+02 -0.25197905737E+02  0.51042111904E+02  0.65448382602E+02  0.00000000000E+00 0. -1.
<mgrwt>
<rscale>  0 0.93731567E+02</rscale>
<asrwt>0</asrwt>
<pdfrwt beam="1">  1        1 0.12062486E-01 0.93731567E+02</pdfrwt>
<pdfrwt beam="2">  1       -1 0.43097118E-02 0.93731567E+02</pdfrwt>
<totfact> 0.93064709E+04</totfact>
</mgrwt>
</event>
<event>
 5    1  0.6112843E+000  0.9453805E+02  0.7546771E-02  0.1292220E+00
          3   -1    0    0  501    0  0.00000000000E+00  0.00000000000E+00  0.37344811961E+02  0.37344811961E+02  0.00000000000E+00 0. -1.
         -3   -1    0    0    0  501 -0.00000000000E+00 -0.00000000000E+00 -0.59830552828E+02  0.59830552828E+02  0.00000000000E+00 0.  1.
         23    2    1    2    0    0  0.00000000000E+00  0.00000000000E+00 -0.22485740867E+02  0.97175364789E+02  0.94538050433E+02 0.  0.
        -13    1    3    3    0    0 -0.46230693519E+02 -0.43614859277E+01 -0.20324568185E+02  0.50689127578E+02  0.00000000000E+00 0. -1.
         13    1    3    3    0    0  0.46230693519E+02  0.43614859277E+01 -0.21611726826E+01  0.46486237211E+02  0.00000000000E+00 0.  1.
<mgrwt>
<rscale>  0 0.94538050E+02</rscale>
<asrwt>0</asrwt>
<pdfrwt beam="1">  1        3 0.57453558E-02 0.94538050E+02</pdfrwt>
<pdfrwt beam="2">  1       -3 0.92047003E-02 0.94538050E+02</pdfrwt>
<totfact> 0.31597900E+04</totfact>
</mgrwt>
</event>
<event>
 5    1  0.6112843E+000  0.9115792E+02  0.7546771E-02  0.1300072E+00
         -3   -1    0    0    0  501 -0.00000000000E+00  0.00000000000E+00  0.25299952494E+02  0.25299952494E+02  0.00000000000E+00 0. -1.
          3   -1    0    0  501    0  0.00000000000E+00 -0.00000000000E+00 -0.82112463366E+02  0.82112463366E+02  0.00000000000E+00 0.  1.
         23    2    1    2    0    0  0.00000000000E+00  0.00000000000E+00 -0.56812510871E+02  0.10741241586E+03  0.91157916219E+02 0.  0.
        -13    1    3    3    0    0  0.13507990335E+02 -0.16046518862E+02 -0.76087627175E+02  0.78925810604E+02  0.00000000000E+00 0.  1.
         13    1    3    3    0    0 -0.13507990335E+02  0.16046518862E+02  0.19275116303E+02  0.28486605256E+02  0.00000000000E+00 0. -1.
<mgrwt>
<rscale>  0 0.91157916E+02</rscale>
<asrwt>0</asrwt>
<pdfrwt beam="2">  1        3 0.12632687E-01 0.91157916E+02</pdfrwt>
<pdfrwt beam="1">  1       -3 0.38923003E-02 0.91157916E+02</pdfrwt>
<totfact> 0.34149322E+04</totfact>
</mgrwt>
</event>
<event>
 5    1  0.6112843E+000  0.9122162E+02  0.7546771E-02  0.1299920E+00
          1   -1    0    0  501    0  0.00000000000E+00  0.00000000000E+00  0.53410530899E+02  0.53410530899E+02  0.00000000000E+00 0. -1.
         -1   -1    0    0    0  501 -0.00000000000E+00 -0.00000000000E+00 -0.38950107009E+02  0.38950107009E+02  0.00000000000E+00 0.  1.
         23    2    1    2    0    0  0.00000000000E+00  0.00000000000E+00  0.14460423890E+02  0.92360637908E+02  0.91221617918E+02 0.  0.
        -13    1    3    3    0    0 -0.13555835996E+02  0.42270801572E+02  0.17837886366E+02  0.47841107273E+02  0.00000000000E+00 0.  1.
         13    1    3    3    0    0  0.13555835996E+02 -0.42270801572E+02 -0.33774624758E+01  0.44519530634E+02  0.00000000000E+00 0. -1.
<mgrwt>
<rscale>  0 0.91221618E+02</rscale>
<asrwt>0</asrwt>
<pdfrwt beam="1">  1        1 0.82170047E-02 0.91221618E+02</pdfrwt>
<pdfrwt beam="2">  1       -1 0.59923242E-02 0.91221618E+02</pdfrwt>
<totfact> 0.94567505E+04</totfact>
</mgrwt>
</event>
<event>
 5    1  0.6112843E+000  0.9126909E+02  0.7546771E-02  0.1299807E+00
          1   -1    0    0  501    0  0.00000000000E+00  0.00000000000E+00  0.77231572568E+01  0.77231572568E+01  0.00000000000E+00 0. -1.
         -1   -1    0    0    0  501 -0.00000000000E+00 -0.00000000000E+00 -0.26964509746E+03  0.26964509746E+03  0.00000000000E+00 0.  1.
         23    2    1    2    0    0  0.00000000000E+00  0.00000000000E+00 -0.26192194020E+03  0.27736825472E+03  0.91269085483E+02 0.  0.
        -13    1    3    3    0    0  0.21150316612E+02  0.40384747267E+02 -0.13722443144E+03  0.14459878384E+03  0.00000000000E+00 0. -1.
         13    1    3    3    0    0 -0.21150316612E+02 -0.40384747267E+02 -0.12469750876E+03  0.13276947088E+03  0.00000000000E+00 0.  1.
<mgrwt>
<rscale>  0 0.91269085E+02</rscale>
<asrwt>0</asrwt>
<pdfrwt beam="1">  1        1 0.11881780E-02 0.91269085E+02</pdfrwt>
<pdfrwt beam="2">  1       -1 0.41483863E-01 0.91269085E+02</pdfrwt>
<totfact> 0.62906415E+04</totfact>
</mgrwt>
</event>
<event>
 5    1  0.6112843E+000  0.9168020E+02  0.7546771E-02  0.1298833E+00
         -2   -1    0    0    0  501 -0.00000000000E+00  0.00000000000E+00  0.10810726465E+03  0.10810726465E+03  0.00000000000E+00 0.  1.
          2   -1    0    0  501    0  0.00000000000E+00 -0.00000000000E+00 -0.19437314585E+02  0.19437314585E+02  0.00000000000E+00 0. -1.
         23    2    1    2    0    0  0.00000000000E+00  0.00000000000E+00  0.88669950066E+02  0.12754457924E+03  0.91680203140E+02 0.  0.
        -13    1    3    3    0    0 -0.13875540365E+02  0.26906739678E+02 -0.35513045370E+01  0.30481388164E+02  0.00000000000E+00 0. -1.
         13    1    3    3    0    0  0.13875540365E+02 -0.26906739678E+02  0.92221254603E+02  0.97063191072E+02  0.00000000000E+00 0.  1.
<mgrwt>
<rscale>  0 0.91680203E+02</rscale>
<asrwt>0</asrwt>
<pdfrwt beam="2">  1        2 0.29903561E-02 0.91680203E+02</pdfrwt>
<pdfrwt beam="1">  1       -2 0.16631887E-01 0.91680203E+02</pdfrwt>
<totfact> 0.76876708E+04</totfact>
</mgrwt>
</event>
<event>
 5    1  0.6112843E+000  0.9144565E+02  0.7546771E-02  0.1299388E+00
         -1   -1    0    0    0  501 -0.00000000000E+00  0.00000000000E+00  0.94254286813E+02  0.94254286813E+02  0.00000000000E+00 0.  1.
          1   -1    0    0  501    0  0.00000000000E+00 -0.00000000000E+00 -0.22180174791E+02  0.22180174791E+02  0.00000000000E+00 0. -1.
         23    2    1    2    0    0  0.00000000000E+00  0.00000000000E+00  0.72074112021E+02  0.11643446160E+03  0.91445646290E+02 0.  0.
        -13    1    3    3    0    0 -0.43926324859E+02  0.90342298006E+00  0.52154707537E+02  0.68194220480E+02  0.00000000000E+00 0.  1.
         13    1    3    3    0    0  0.43926324859E+02 -0.90342298006E+00  0.19919404485E+02  0.48240241124E+02  0.00000000000E+00 0. -1.
<mgrwt>
<rscale>  0 0.91445646E+02</rscale>
<asrwt>0</asrwt>
<pdfrwt beam="2">  1        1 0.34123346E-02 0.91445646E+02</pdfrwt>
<pdfrwt beam="1">  1       -1 0.14500659E-01 0.91445646E+02</pdfrwt>
<totfact> 0.81637624E+04</totfact>
</mgrwt>
</event>
<event>
 5    1  0.6112843E+000  0.9185714E+02  0.7546771E-02  0.1298416E+00
          1   -1    0    0  501    0  0.00000000000E+00  0.00000000000E+00  0.62626504287E+02  0.62626504287E+02  0.00000000000E+00 0. -1.
         -1   -1    0    0    0  501 -0.00000000000E+00 -0.00000000000E+00 -0.33682760640E+02  0.33682760640E+02  0.00000000000E+00 0.  1.
         23    2    1    2    0    0  0.00000000000E+00  0.00000000000E+00  0.28943743648E+02  0.96309264927E+02  0.91857140247E+02 0.  0.
        -13    1    3    3    0    0  0.14651719232E+02 -0.13632432302E+01  0.60088086177E+02  0.61863635594E+02  0.00000000000E+00 0. -1.
         13    1    3    3    0    0 -0.14651719232E+02  0.13632432302E+01 -0.31144342529E+02  0.34445629333E+02  0.00000000000E+00 0.  1.
<mgrwt>
<rscale>  0 0.91857140E+02</rscale>
<asrwt>0</asrwt>
<pdfrwt beam="1">  1        1 0.96348468E-02 0.91857140E+02</pdfrwt>
<pdfrwt beam="2">  1       -1 0.51819632E-02 0.91857140E+02</pdfrwt>
<totfact> 0.95020192E+04</totfact>
</mgrwt>
</event>
<event>
 5    1  0.6112843E+000  0.8919292E+02  0.7546771E-02  0.1304818E+00
         -3   -1    0    0    0  501 -0.00000000000E+00  0.00000000000E+00  0.24805692270E+02  0.24805692270E+02  0.00000000000E+00 0.  1.
          3   -1    0    0  501    0  0.00000000000E+00 -0.00000000000E+00 -0.80176924918E+02  0.80176924918E+02  0.00000000000E+00 0. -1.
         23    2    1    2    0    0  0.00000000000E+00  0.00000000000E+00 -0.55371232648E+02  0.10498261719E+03  0.89192917358E+02 0.  0.
        -13    1    3    3    0    0 -0.29147942120E+02 -0.67482840514E+01  0.11240097083E+02  0.31960626556E+02  0.00000000000E+00 0.  1.
         13    1    3    3    0    0  0.29147942120E+02  0.67482840514E+01 -0.66611329730E+02  0.73021990632E+02  0.00000000000E+00 0. -1.
<mgrwt>
<rscale>  0 0.89192917E+02</rscale>
<asrwt>0</asrwt>
<pdfrwt beam="2">  1        3 0.12334912E-01 0.89192917E+02</pdfrwt>
<pdfrwt beam="1">  1       -3 0.38162603E-02 0.89192917E+02</pdfrwt>
<totfact> 0.36414901E+04</totfact>
</mgrwt>
</event>
<event>
 5    1  0.6112843E+000  0.7638130E+02  0.7546771E-02  0.1339646E+00
          1   -1    0    0  501    0  0.00000000000E+00  0.00000000000E+00  0.49821285277E+02  0.49821285277E+02  0.00000000000E+00 0. -1.
         -1   -1    0    0    0  501 -0.00000000000E+00 -0.00000000000E+00 -0.29275150832E+02  0.29275150832E+02  0.00000000000E+00 0.  1.
         23    2    1    2    0    0  0.00000000000E+00  0.00000000000E+00  0.20546134445E+02  0.79096436109E+02  0.76381297217E+02 0.  0.
        -13    1    3    3    0    0  0.27528354297E+02 -0.44729550355E+01  0.37290888270E+02  0.46566382348E+02  0.00000000000E+00 0. -1.
         13    1    3    3    0    0 -0.27528354297E+02  0.44729550355E+01 -0.16744753825E+02  0.32530053761E+02  0.00000000000E+00 0.  1.
<mgrwt>
<rscale>  0 0.76381297E+02</rscale>
<asrwt>0</asrwt>
<pdfrwt beam="1">  1        1 0.76648131E-02 0.76381297E+02</pdfrwt>
<pdfrwt beam="2">  1       -1 0.45038694E-02 0.76381297E+02</pdfrwt>
<totfact> 0.15266397E+05</totfact>
</mgrwt>
</event>
<event>
 5    1  0.6112843E+000  0.9322467E+02  0.7546771E-02  0.1295225E+00
         -1   -1    0    0    0  501 -0.00000000000E+00  0.00000000000E+00  0.16929697297E+02  0.16929697297E+02  0.00000000000E+00 0.  1.
          1   -1    0    0  501    0  0.00000000000E+00 -0.00000000000E+00 -0.12833717785E+03  0.12833717785E+03  0.00000000000E+00 0. -1.
         23    2    1    2    0    0  0.00000000000E+00  0.00000000000E+00 -0.11140748056E+03  0.14526687515E+03  0.93224665683E+02 0.  0.
        -13    1    3    3    0    0  0.23806510513E+02 -0.66052529087E+01  0.58879585059E+01  0.25397782663E+02  0.00000000000E+00 0.  1.
         13    1    3    3    0    0 -0.23806510513E+02  0.66052529087E+01 -0.11729543906E+03  0.11986909249E+03  0.00000000000E+00 0. -1.
<mgrwt>
<rscale>  0 0.93224666E+02</rscale>
<asrwt>0</asrwt>
<pdfrwt beam="2">  1        1 0.19744180E-01 0.93224666E+02</pdfrwt>
<pdfrwt beam="1">  1       -1 0.26045689E-02 0.93224666E+02</pdfrwt>
<totfact> 0.10264106E+05</totfact>
</mgrwt>
</event>
<event>
 5    1  0.6112843E+000  0.8649950E+02  0.7546771E-02  0.1311557E+00
         -2   -1    0    0    0  501 -0.00000000000E+00  0.00000000000E+00  0.11642894110E+02  0.11642894110E+02  0.00000000000E+00 0.  1.
          2   -1    0    0  501    0  0.00000000000E+00 -0.00000000000E+00 -0.16065945075E+03  0.16065945075E+03  0.00000000000E+00 0. -1.
         23    2    1    2    0    0  0.00000000000E+00  0.00000000000E+00 -0.14901655664E+03  0.17230234486E+03  0.86499502262E+02 0.  0.
        -13    1    3    3    0    0  0.21854159227E+02 -0.30317119253E+02 -0.31149281853E+02  0.48651924476E+02  0.00000000000E+00 0.  1.
         13    1    3    3    0    0 -0.21854159227E+02  0.30317119253E+02 -0.11786727479E+03  0.12365042038E+03  0.00000000000E+00 0. -1.
<mgrwt>
<rscale>  0 0.86499502E+02</rscale>
<asrwt>0</asrwt>
<pdfrwt beam="2">  1        2 0.24716837E-01 0.86499502E+02</pdfrwt>
<pdfrwt beam="1">  1       -2 0.17912146E-02 0.86499502E+02</pdfrwt>
<totfact> 0.16498834E+05</totfact>
</mgrwt>
</event>
<event>
 5    1  0.6112843E+000  0.9054776E+02  0.7546771E-02  0.1301531E+00
          1   -1    0    0  501    0  0.00000000000E+00  0.00000000000E+00  0.30548970963E+02  0.30548970963E+02  0.00000000000E+00 0. -1.
         -1   -1    0    0    0  501 -0.00000000000E+00 -0.00000000000E+00 -0.67096340689E+02  0.67096340689E+02  0.00000000000E+00 0.  1.
         23    2    1    2    0    0  0.00000000000E+00  0.00000000000E+00 -0.36547369726E+02  0.97645311652E+02  0.90547758966E+02 0.  0.
        -13    1    3    3    0    0  0.38129544994E+02  0.10596236176E+02 -0.41987893527E+02  0.57698575593E+02  0.00000000000E+00 0.  1.
         13    1    3    3    0    0 -0.38129544994E+02 -0.10596236176E+02  0.54405238017E+01  0.39946736059E+02  0.00000000000E+00 0. -1.
<mgrwt>
<rscale>  0 0.90547759E+02</rscale>
<asrwt>0</asrwt>
<pdfrwt beam="1">  1        1 0.46998417E-02 0.90547759E+02</pdfrwt>
<pdfrwt beam="2">  1       -1 0.10322514E-01 0.90547759E+02</pdfrwt>
<totfact> 0.88679113E+04</totfact>
</mgrwt>
</event>
<event>
 5    1  0.6112843E+000  0.9600185E+02  0.7546771E-02  0.1288935E+00
          3   -1    0    0  501    0  0.00000000000E+00  0.00000000000E+00  0.29201197539E+03  0.29201197539E+03  0.00000000000E+00 0. -1.
         -3   -1    0    0    0  501 -0.00000000000E+00 -0.00000000000E+00 -0.78903918205E+01  0.78903918205E+01  0.00000000000E+00 0.  1.
         23    2    1    2    0    0  0.00000000000E+00  0.00000000000E+00  0.28412158357E+03  0.29990236721E+03  0.96001852110E+02 0.  0.
        -13    1    3    3    0    0 -0.90242816658E+01 -0.46668253963E+02  0.12116893769E+03  0.13015865338E+03  0.00000000000E+00 0.  1.
         13    1    3    3    0    0  0.90242816658E+01  0.46668253963E+02  0.16295264588E+03  0.16974371384E+03  0.00000000000E+00 0. -1.
<mgrwt>
<rscale>  0 0.96001852E+02</rscale>
<asrwt>0</asrwt>
<pdfrwt beam="1">  1        3 0.44924911E-01 0.96001852E+02</pdfrwt>
<pdfrwt beam="2">  1       -3 0.12139067E-02 0.96001852E+02</pdfrwt>
<totfact> 0.20916475E+04</totfact>
</mgrwt>
</event>
<event>
 5    1  0.6112843E+000  0.9089526E+02  0.7546771E-02  0.1300698E+00
         -1   -1    0    0    0  501 -0.00000000000E+00  0.00000000000E+00  0.92481548736E+01  0.92481548736E+01  0.00000000000E+00 0.  1.
          1   -1    0    0  501    0  0.00000000000E+00 -0.00000000000E+00 -0.22334043603E+03  0.22334043603E+03  0.00000000000E+00 0. -1.
         23    2    1    2    0    0  0.00000000000E+00  0.00000000000E+00 -0.21409228116E+03  0.23258859091E+03  0.90895257125E+02 0.  0.
        -13    1    3    3    0    0  0.37570932721E+02 -0.17296375033E+02 -0.58850608909E+02  0.71931451700E+02  0.00000000000E+00 0.  1.
         13    1    3    3    0    0 -0.37570932721E+02  0.17296375033E+02 -0.15524167225E+03  0.16065713921E+03  0.00000000000E+00 0. -1.
<mgrwt>
<rscale>  0 0.90895257E+02</rscale>
<asrwt>0</asrwt>
<pdfrwt beam="2">  1        1 0.34360065E-01 0.90895257E+02</pdfrwt>
<pdfrwt beam="1">  1       -1 0.14227931E-02 0.90895257E+02</pdfrwt>
<totfact> 0.12198431E+05</totfact>
</mgrwt>
</event>
<event>
 5    1  0.6112843E+000  0.9114081E+02  0.7546771E-02  0.1300112E+00
         -2   -1    0    0    0  501 -0.00000000000E+00  0.00000000000E+00  0.11986694812E+02  0.11986694812E+02  0.00000000000E+00 0. -1.
          2   -1    0    0  501    0  0.00000000000E+00 -0.00000000000E+00 -0.17324724842E+03  0.17324724842E+03  0.00000000000E+00 0.  1.
         23    2    1    2    0    0  0.00000000000E+00  0.00000000000E+00 -0.16126055361E+03  0.18523394323E+03  0.91140811799E+02 0.  0.
        -13    1    3    3    0    0 -0.44850122994E+02 -0.99416789376E+00 -0.64353360573E+02  0.78446650147E+02  0.00000000000E+00 0. -1.
         13    1    3    3    0    0  0.44850122994E+02  0.99416789376E+00 -0.96907193034E+02  0.10678729308E+03  0.00000000000E+00 0.  1.
<mgrwt>
<rscale>  0 0.91140812E+02</rscale>
<asrwt>0</asrwt>
<pdfrwt beam="2">  1        2 0.26653422E-01 0.91140812E+02</pdfrwt>
<pdfrwt beam="1">  1       -2 0.18441070E-02 0.91140812E+02</pdfrwt>
<totfact> 0.14710653E+05</totfact>
</mgrwt>
</event>
<event>
 5    1  0.6112843E+000  0.8997652E+02  0.7546771E-02  0.1302909E+00
          3   -1    0    0  501    0  0.00000000000E+00  0.00000000000E+00  0.48484967914E+02  0.48484967914E+02  0.00000000000E+00 0. -1.
         -3   -1    0    0    0  501 -0.00000000000E+00 -0.00000000000E+00 -0.41743733066E+02  0.41743733066E+02  0.00000000000E+00 0.  1.
         23    2    1    2    0    0  0.00000000000E+00  0.00000000000E+00  0.67412348486E+01  0.90228700980E+02  0.89976520455E+02 0.  0.
        -13    1    3    3    0    0  0.10184046336E+02 -0.21122748998E+02  0.41871690236E+02  0.47990871718E+02  0.00000000000E+00 0. -1.
         13    1    3    3    0    0 -0.10184046336E+02  0.21122748998E+02 -0.35130455388E+02  0.42237829262E+02  0.00000000000E+00 0.  1.
<mgrwt>
<rscale>  0 0.89976520E+02</rscale>
<asrwt>0</asrwt>
<pdfrwt beam="1">  1        3 0.74592259E-02 0.89976520E+02</pdfrwt>
<pdfrwt beam="2">  1       -3 0.64221128E-02 0.89976520E+02</pdfrwt>
<totfact> 0.36711191E+04</totfact>
</mgrwt>
</event>
<event>
 5    1  0.6112843E+000  0.9238684E+02  0.7546771E-02  0.1297172E+00
         -2   -1    0    0    0  501 -0.00000000000E+00  0.00000000000E+00  0.10735942298E+02  0.10735942298E+02  0.00000000000E+00 0.  1.
          2   -1    0    0  501    0  0.00000000000E+00 -0.00000000000E+00 -0.19875591691E+03  0.19875591691E+03  0.00000000000E+00 0. -1.
         23    2    1    2    0    0  0.00000000000E+00  0.00000000000E+00 -0.18801997462E+03  0.20949185921E+03  0.92386840088E+02 0.  0.
        -13    1    3    3    0    0  0.46011922289E+01  0.37150950074E+02 -0.32640659815E+02  0.49666656164E+02  0.00000000000E+00 0.  1.
         13    1    3    3    0    0 -0.46011922289E+01 -0.37150950074E+02 -0.15537931480E+03  0.15982520305E+03  0.00000000000E+00 0. -1.
<mgrwt>
<rscale>  0 0.92386840E+02</rscale>
<asrwt>0</asrwt>
<pdfrwt beam="2">  1        2 0.30577831E-01 0.92386840E+02</pdfrwt>
<pdfrwt beam="1">  1       -2 0.16516836E-02 0.92386840E+02</pdfrwt>
<totfact> 0.14894016E+05</totfact>
</mgrwt>
</event>
<event>
 5    1  0.6112843E+000  0.9136881E+02  0.7546771E-02  0.1299570E+00
          2   -1    0    0  501    0  0.00000000000E+00  0.00000000000E+00  0.62429833265E+02  0.62429833265E+02  0.00000000000E+00 0. -1.
         -2   -1    0    0    0  501 -0.00000000000E+00 -0.00000000000E+00 -0.33430571900E+02  0.33430571900E+02  0.00000000000E+00 0.  1.
         23    2    1    2    0    0  0.00000000000E+00  0.00000000000E+00  0.28999261365E+02  0.95860405165E+02  0.91368813710E+02 0.  0.
        -13    1    3    3    0    0 -0.10064372308E+02 -0.34652087240E+02 -0.14895665619E+02  0.39037668915E+02  0.00000000000E+00 0.  1.
         13    1    3    3    0    0  0.10064372308E+02  0.34652087240E+02  0.43894926984E+02  0.56822736251E+02  0.00000000000E+00 0. -1.
<mgrwt>
<rscale>  0 0.91368814E+02</rscale>
<asrwt>0</asrwt>
<pdfrwt beam="1">  1        2 0.96045897E-02 0.91368814E+02</pdfrwt>
<pdfrwt beam="2">  1       -2 0.51431649E-02 0.91368814E+02</pdfrwt>
<totfact> 0.10657589E+05</totfact>
</mgrwt>
</event>
<event>
 5    1  0.6112843E+000  0.9143767E+02  0.7546771E-02  0.1299407E+00
         -2   -1    0    0    0  501 -0.00000000000E+00  0.00000000000E+00  0.24055361190E+02  0.24055361190E+02  0.00000000000E+00 0.  1.
          2   -1    0    0  501    0  0.00000000000E+00 -0.00000000000E+00 -0.86891734111E+02  0.86891734111E+02  0.00000000000E+00 0. -1.
         23    2    1    2    0    0  0.00000000000E+00  0.00000000000E+00 -0.62836372921E+02  0.11094709530E+03  0.91437673821E+02 0.  0.
        -13    1    3    3    0    0  0.27050193412E+02 -0.13987582565E+02  0.99581452226E+01  0.32039508204E+02  0.00000000000E+00 0.  1.
         13    1    3    3    0    0 -0.27050193412E+02  0.13987582565E+02 -0.72794518144E+02  0.78907587097E+02  0.00000000000E+00 0. -1.
<mgrwt>
<rscale>  0 0.91437674E+02</rscale>
<asrwt>0</asrwt>
<pdfrwt beam="2">  1        2 0.13367959E-01 0.91437674E+02</pdfrwt>
<pdfrwt beam="1">  1       -2 0.37008247E-02 0.91437674E+02</pdfrwt>
<totfact> 0.11670743E+05</totfact>
</mgrwt>
</event>
<event>
 5    1  0.6112843E+000  0.9263640E+02  0.7546771E-02  0.1296590E+00
         -1   -1    0    0    0  501 -0.00000000000E+00  0.00000000000E+00  0.26347570083E+02  0.26347570083E+02  0.00000000000E+00 0.  1.
          1   -1    0    0  501    0  0.00000000000E+00 -0.00000000000E+00 -0.81425943068E+02  0.81425943068E+02  0.00000000000E+00 0. -1.
         23    2    1    2    0    0  0.00000000000E+00  0.00000000000E+00 -0.55078372985E+02  0.10777351315E+03  0.92636401951E+02 0.  0.
        -13    1    3    3    0    0  0.34704595343E+02  0.85793094872E+01  0.67242264510E+01  0.36376210778E+02  0.00000000000E+00 0.  1.
         13    1    3    3    0    0 -0.34704595343E+02 -0.85793094872E+01 -0.61802599436E+02  0.71397302374E+02  0.00000000000E+00 0. -1.
<mgrwt>
<rscale>  0 0.92636402E+02</rscale>
<asrwt>0</asrwt>
<pdfrwt beam="2">  1        1 0.12527068E-01 0.92636402E+02</pdfrwt>
<pdfrwt beam="1">  1       -1 0.40534724E-02 0.92636402E+02</pdfrwt>
<totfact> 0.96710699E+04</totfact>
</mgrwt>
</event>
<event>
 5    1  0.6112843E+000  0.9189404E+02  0.7546771E-02  0.1298329E+00
          1   -1    0    0  501    0  0.00000000000E+00  0.00000000000E+00  0.28762825529E+02  0.28762825529E+02  0.00000000000E+00 0. -1.
         -1   -1    0    0    0  501 -0.00000000000E+00 -0.00000000000E+00 -0.73397817391E+02  0.73397817391E+02  0.00000000000E+00 0.  1.
         23    2    1    2    0    0  0.00000000000E+00  0.00000000000E+00 -0.44634991862E+02  0.10216064292E+03  0.91894039324E+02 0.  0.
        -13    1    3    3    0    0  0.41480202093E+02 -0.76296645626E+01 -0.20515087208E+01  0.42225911892E+02  0.00000000000E+00 0.  1.
         13    1    3    3    0    0 -0.41480202093E+02  0.76296645626E+01 -0.42583483141E+02  0.59934731028E+02  0.00000000000E+00 0. -1.
<mgrwt>
<rscale>  0 0.91894039E+02</rscale>
<asrwt>0</asrwt>
<pdfrwt beam="1">  1        1 0.44250501E-02 0.91894039E+02</pdfrwt>
<pdfrwt beam="2">  1       -1 0.11291972E-01 0.91894039E+02</pdfrwt>
<totfact> 0.84170846E+04</totfact>
</mgrwt>
</event>
<event>
 5    1  0.6112843E+000  0.9126178E+02  0.7546771E-02  0.1299825E+00
          2   -1    0    0  501    0  0.00000000000E+00  0.00000000000E+00  0.11044174151E+03  0.11044174151E+03  0.00000000000E+00 0.  1.
         -2   -1    0    0    0  501 -0.00000000000E+00 -0.00000000000E+00 -0.18853180091E+02  0.18853180091E+02  0.00000000000E+00 0. -1.
         23    2    1    2    0    0  0.00000000000E+00  0.00000000000E+00  0.91588561418E+02  0.12929492160E+03  0.91261778247E+02 0.  0.
        -13    1    3    3    0    0  0.20538322875E+02  0.75811022757E+00  0.10351315908E+03  0.10553374598E+03  0.00000000000E+00 0.  1.
         13    1    3    3    0    0 -0.20538322875E+02 -0.75811022757E+00 -0.11924597660E+02  0.23761175623E+02  0.00000000000E+00 0. -1.
<mgrwt>
<rscale>  0 0.91261778E+02</rscale>
<asrwt>0</asrwt>
<pdfrwt beam="1">  1        2 0.16991037E-01 0.91261778E+02</pdfrwt>
<pdfrwt beam="2">  1       -2 0.29004893E-02 0.91261778E+02</pdfrwt>
<totfact> 0.12617356E+05</totfact>
</mgrwt>
</event>
<event>
 5    1  0.6112843E+000  0.9110343E+02  0.7546771E-02  0.1300201E+00
         -1   -1    0    0    0  501 -0.00000000000E+00  0.00000000000E+00  0.13087728916E+03  0.13087728916E+03  0.00000000000E+00 0.  1.
          1   -1    0    0  501    0  0.00000000000E+00 -0.00000000000E+00 -0.15854230965E+02  0.15854230965E+02  0.00000000000E+00 0. -1.
         23    2    1    2    0    0  0.00000000000E+00  0.00000000000E+00  0.11502305819E+03  0.14673152012E+03  0.91103430680E+02 0.  0.
        -13    1    3    3    0    0  0.68074804678E+01  0.42445057276E+02  0.81779542413E+02  0.92389492015E+02  0.00000000000E+00 0.  1.
         13    1    3    3    0    0 -0.68074804678E+01 -0.42445057276E+02  0.33243515778E+02  0.54342028107E+02  0.00000000000E+00 0. -1.
<mgrwt>
<rscale>  0 0.91103431E+02</rscale>
<asrwt>0</asrwt>
<pdfrwt beam="2">  1        1 0.24391125E-02 0.91103431E+02</pdfrwt>
<pdfrwt beam="1">  1       -1 0.20134967E-01 0.91103431E+02</pdfrwt>
<totfact> 0.77274437E+04</totfact>
</mgrwt>
</event>
<event>
 5    1  0.6112843E+000  0.8892788E+02  0.7546771E-02  0.1305469E+00
         -1   -1    0    0    0  501 -0.00000000000E+00  0.00000000000E+00  0.13496281205E+02  0.13496281205E+02  0.00000000000E+00 0.  1.
          1   -1    0    0  501    0  0.00000000000E+00 -0.00000000000E+00 -0.14648791616E+03  0.14648791616E+03  0.00000000000E+00 0. -1.
         23    2    1    2    0    0  0.00000000000E+00  0.00000000000E+00 -0.13299163496E+03  0.15998419737E+03  0.88927883359E+02 0.  0.
        -13    1    3    3    0    0 -0.36120421819E+02 -0.25653448519E+02 -0.59702754511E+02  0.74345162516E+02  0.00000000000E+00 0. -1.
         13    1    3    3    0    0  0.36120421819E+02  0.25653448519E+02 -0.73288880444E+02  0.85639034850E+02  0.00000000000E+00 0.  1.
<mgrwt>
<rscale>  0 0.88927883E+02</rscale>
<asrwt>0</asrwt>
<pdfrwt beam="2">  1        1 0.22536604E-01 0.88927883E+02</pdfrwt>
<pdfrwt beam="1">  1       -1 0.20763508E-02 0.88927883E+02</pdfrwt>
<totfact> 0.11941485E+05</totfact>
</mgrwt>
</event>
<event>
 5    1  0.6112843E+000  0.9215366E+02  0.7546771E-02  0.1297719E+00
         -1   -1    0    0    0  501 -0.00000000000E+00  0.00000000000E+00  0.26999870897E+02  0.26999870897E+02  0.00000000000E+00 0.  1.
          1   -1    0    0  501    0  0.00000000000E+00 -0.00000000000E+00 -0.78632748001E+02  0.78632748001E+02  0.00000000000E+00 0. -1.
         23    2    1    2    0    0  0.00000000000E+00  0.00000000000E+00 -0.51632877104E+02  0.10563261890E+03  0.92153655257E+02 0.  0.
        -13    1    3    3    0    0 -0.14255102294E+02  0.39525701952E+01  0.24203908224E+02  0.28366528267E+02  0.00000000000E+00 0.  1.
         13    1    3    3    0    0  0.14255102294E+02 -0.39525701952E+01 -0.75836785328E+02  0.77266090632E+02  0.00000000000E+00 0. -1.
<mgrwt>
<rscale>  0 0.92153655E+02</rscale>
<asrwt>0</asrwt>
<pdfrwt beam="2">  1        1 0.12097346E-01 0.92153655E+02</pdfrwt>
<pdfrwt beam="1">  1       -1 0.41538263E-02 0.92153655E+02</pdfrwt>
<totfact> 0.97568241E+04</totfact>
</mgrwt>
</event>
<event>
 5    1  0.6112843E+000  0.6980039E+02  0.7546771E-02  0.1360773E+00
          2   -1    0    0  501    0  0.00000000000E+00  0.00000000000E+00  0.52804715899E+02  0.52804715899E+02  0.00000000000E+00 0. -1.
         -2   -1    0    0    0  501 -0.00000000000E+00 -0.00000000000E+00 -0.23066568383E+02  0.23066568383E+02  0.00000000000E+00 0.  1.
         23    2    1    2    0    0  0.00000000000E+00  0.00000000000E+00  0.29738147516E+02  0.75871284282E+02  0.69800389403E+02 0.  0.
        -13    1    3    3    0    0  0.76890879197E+01 -0.69107918289E+01  0.51102087976E+02  0.52137361961E+02  0.00000000000E+00 0. -1.
         13    1    3    3    0    0 -0.76890879197E+01  0.69107918289E+01 -0.21363940460E+02  0.23733922321E+02  0.00000000000E+00 0.  1.
<mgrwt>
<rscale>  0 0.69800389E+02</rscale>
<asrwt>0</asrwt>
<pdfrwt beam="1">  1        2 0.81238024E-02 0.69800389E+02</pdfrwt>
<pdfrwt beam="2">  1       -2 0.35487029E-02 0.69800389E+02</pdfrwt>
<totfact> 0.21505252E+05</totfact>
</mgrwt>
</event>
<event>
 5    1  0.6112843E+000  0.9175577E+02  0.7546771E-02  0.1298655E+00
          2   -1    0    0  501    0  0.00000000000E+00  0.00000000000E+00  0.26923967152E+02  0.26923967152E+02  0.00000000000E+00 0. -1.
         -2   -1    0    0    0  501 -0.00000000000E+00 -0.00000000000E+00 -0.78174973566E+02  0.78174973566E+02  0.00000000000E+00 0.  1.
         23    2    1    2    0    0  0.00000000000E+00  0.00000000000E+00 -0.51251006414E+02  0.10509894072E+03  0.91755771925E+02 0.  0.
        -13    1    3    3    0    0 -0.63973832701E+01 -0.11742451681E+02 -0.75893266592E+02  0.77062309842E+02  0.00000000000E+00 0.  1.
         13    1    3    3    0    0  0.63973832701E+01  0.11742451681E+02  0.24642260178E+02  0.28036630876E+02  0.00000000000E+00 0. -1.
<mgrwt>
<rscale>  0 0.91755772E+02</rscale>
<asrwt>0</asrwt>
<pdfrwt beam="1">  1        2 0.41421489E-02 0.91755772E+02</pdfrwt>
<pdfrwt beam="2">  1       -2 0.12026919E-01 0.91755772E+02</pdfrwt>
<totfact> 0.84300504E+04</totfact>
</mgrwt>
</event>
<event>
 5    1  0.6112843E+000  0.9210372E+02  0.7546771E-02  0.1297836E+00
         -2   -1    0    0    0  501 -0.00000000000E+00  0.00000000000E+00  0.89947908829E+01  0.89947908829E+01  0.00000000000E+00 0.  1.
          2   -1    0    0  501    0  0.00000000000E+00 -0.00000000000E+00 -0.23577801331E+03  0.23577801331E+03  0.00000000000E+00 0. -1.
         23    2    1    2    0    0  0.00000000000E+00  0.00000000000E+00 -0.22678322242E+03  0.24477280419E+03  0.92103722498E+02 0.  0.
        -13    1    3    3    0    0  0.20945613191E+02 -0.27118991586E+02 -0.19515761782E+03  0.19814301453E+03  0.00000000000E+00 0. -1.
         13    1    3    3    0    0 -0.20945613191E+02  0.27118991586E+02 -0.31625604608E+02  0.46629789657E+02  0.00000000000E+00 0.  1.
<mgrwt>
<rscale>  0 0.92103722E+02</rscale>
<asrwt>0</asrwt>
<pdfrwt beam="2">  1        2 0.36273544E-01 0.92103722E+02</pdfrwt>
<pdfrwt beam="1">  1       -2 0.13838139E-02 0.92103722E+02</pdfrwt>
<totfact> 0.15986708E+05</totfact>
</mgrwt>
</event>
<event>
 5    1  0.6112843E+000  0.9077848E+02  0.7546771E-02  0.1300977E+00
         -1   -1    0    0    0  501 -0.00000000000E+00  0.00000000000E+00  0.12138426603E+03  0.12138426603E+03  0.00000000000E+00 0.  1.
          1   -1    0    0  501    0  0.00000000000E+00 -0.00000000000E+00 -0.16972406032E+02  0.16972406032E+02  0.00000000000E+00 0. -1.
         23    2    1    2    0    0  0.00000000000E+00  0.00000000000E+00  0.10441186000E+03  0.13835667206E+03  0.90778478705E+02 0.  0.
        -13    1    3    3    0    0 -0.42514425136E+02 -0.41946935975E+01  0.75575671689E+02  0.86814480072E+02  0.00000000000E+00 0.  1.
         13    1    3    3    0    0  0.42514425136E+02  0.41946935975E+01  0.28836188312E+02  0.51542191993E+02  0.00000000000E+00 0. -1.
<mgrwt>
<rscale>  0 0.90778479E+02</rscale>
<asrwt>0</asrwt>
<pdfrwt beam="2">  1        1 0.26111395E-02 0.90778479E+02</pdfrwt>
<pdfrwt beam="1">  1       -1 0.18674502E-01 0.90778479E+02</pdfrwt>
<totfact> 0.79237893E+04</totfact>
</mgrwt>
</event>
<event>
 5    1  0.6112843E+000  0.9116710E+02  0.7546771E-02  0.1300050E+00
          3   -1    0    0  501    0  0.00000000000E+00  0.00000000000E+00  0.43322216377E+02  0.43322216377E+02  0.00000000000E+00 0. -1.
         -3   -1    0    0    0  501 -0.00000000000E+00 -0.00000000000E+00 -0.47962915847E+02  0.47962915847E+02  0.00000000000E+00 0.  1.
         23    2    1    2    0    0  0.00000000000E+00  0.00000000000E+00 -0.46406994709E+01  0.91285132224E+02  0.91167095345E+02 0.  0.
        -13    1    3    3    0    0 -0.35405513434E+02  0.27134068761E+02  0.70753888533E+01  0.45164911120E+02  0.00000000000E+00 0.  1.
         13    1    3    3    0    0  0.35405513434E+02 -0.27134068761E+02 -0.11716088324E+02  0.46120221104E+02  0.00000000000E+00 0. -1.
<mgrwt>
<rscale>  0 0.91167095E+02</rscale>
<asrwt>0</asrwt>
<pdfrwt beam="1">  1        3 0.66649564E-02 0.91167095E+02</pdfrwt>
<pdfrwt beam="2">  1       -3 0.73789101E-02 0.91167095E+02</pdfrwt>
<totfact> 0.35340722E+04</totfact>
</mgrwt>
</event>
<event>
 5    1  0.6112843E+000  0.7894227E+02  0.7546771E-02  0.1332080E+00
          4   -1    0    0  501    0  0.00000000000E+00  0.00000000000E+00  0.13971908346E+02  0.13971908346E+02  0.00000000000E+00 0. -1.
         -4   -1    0    0    0  501 -0.00000000000E+00 -0.00000000000E+00 -0.11150735254E+03  0.11150735254E+03  0.00000000000E+00 0.  1.
         23    2    1    2    0    0  0.00000000000E+00  0.00000000000E+00 -0.97535444196E+02  0.12547926089E+03  0.78942270289E+02 0.  0.
        -13    1    3    3    0    0 -0.23226653469E+02 -0.19614769816E+02 -0.87527372675E+01  0.31635850486E+02  0.00000000000E+00 0. -1.
         13    1    3    3    0    0  0.23226653469E+02  0.19614769816E+02 -0.88782706929E+02  0.93843410402E+02  0.00000000000E+00 0.  1.
<mgrwt>
<rscale>  0 0.78942270E+02</rscale>
<asrwt>0</asrwt>
<pdfrwt beam="1">  1        4 0.21495244E-02 0.78942270E+02</pdfrwt>
<pdfrwt beam="2">  1       -4 0.17154977E-01 0.78942270E+02</pdfrwt>
<totfact> 0.36675783E+04</totfact>
</mgrwt>
</event>
<event>
 4    1  0.6112843E+000  0.2801329E+03  0.7546771E-02  0.1095616E+00
         -1   -1    0    0    0  501 -0.00000000000E+00  0.00000000000E+00  0.48835651738E+03  0.48835651738E+03  0.00000000000E+00 0.  1.
          1   -1    0    0  501    0  0.00000000000E+00 -0.00000000000E+00 -0.40172728450E+02  0.40172728450E+02  0.00000000000E+00 0. -1.
        -13    1    1    2    0    0  0.73365289873E+02  0.11170974873E+03  0.30317808233E+03  0.33132836179E+03  0.00000000000E+00 0. -1.
         13    1    1    2    0    0 -0.73365289873E+02 -0.11170974873E+03  0.14500570661E+03  0.19720088405E+03  0.00000000000E+00 0.  1.
<mgrwt>
<rscale>  0 0.28013292E+03</rscale>
<asrwt>0</asrwt>
<pdfrwt beam="2">  1        1 0.61804201E-02 0.28013292E+03</pdfrwt>
<pdfrwt beam="1">  1       -1 0.75131768E-01 0.28013292E+03</pdfrwt>
<totfact> 0.23002262E+03</totfact>
</mgrwt>
</event>
<event>
 5    1  0.6112843E+000  0.8831981E+02  0.7546771E-02  0.1306972E+00
          2   -1    0    0  501    0  0.00000000000E+00  0.00000000000E+00  0.14560320214E+03  0.14560320214E+03  0.00000000000E+00 0. -1.
         -2   -1    0    0    0  501 -0.00000000000E+00 -0.00000000000E+00 -0.13393228966E+02  0.13393228966E+02  0.00000000000E+00 0.  1.
         23    2    1    2    0    0  0.00000000000E+00  0.00000000000E+00  0.13220997317E+03  0.15899643111E+03  0.88319805806E+02 0.  0.
        -13    1    3    3    0    0  0.23132095394E+02 -0.37137145294E+02  0.76881710855E+02  0.88459362771E+02  0.00000000000E+00 0. -1.
         13    1    3    3    0    0 -0.23132095394E+02  0.37137145294E+02  0.55328262319E+02  0.70537068334E+02  0.00000000000E+00 0.  1.
<mgrwt>
<rscale>  0 0.88319806E+02</rscale>
<asrwt>0</asrwt>
<pdfrwt beam="1">  1        2 0.22400491E-01 0.88319806E+02</pdfrwt>
<pdfrwt beam="2">  1       -2 0.20604969E-02 0.88319806E+02</pdfrwt>
<totfact> 0.15087403E+05</totfact>
</mgrwt>
</event>
<event>
 5    1  0.6112843E+000  0.9010814E+02  0.7546771E-02  0.1302590E+00
         -1   -1    0    0    0  501 -0.00000000000E+00  0.00000000000E+00  0.73292154533E+02  0.73292154533E+02  0.00000000000E+00 0.  1.
          1   -1    0    0  501    0  0.00000000000E+00 -0.00000000000E+00 -0.27695588870E+02  0.27695588870E+02  0.00000000000E+00 0. -1.
         23    2    1    2    0    0  0.00000000000E+00  0.00000000000E+00  0.45596565663E+02  0.10098774340E+03  0.90108143457E+02 0.  0.
        -13    1    3    3    0    0 -0.35608929582E+02  0.12817642113E+02  0.50195296183E+02  0.62863785873E+02  0.00000000000E+00 0.  1.
         13    1    3    3    0    0  0.35608929582E+02 -0.12817642113E+02 -0.45987305201E+01  0.38123957530E+02  0.00000000000E+00 0. -1.
<mgrwt>
<rscale>  0 0.90108143E+02</rscale>
<asrwt>0</asrwt>
<pdfrwt beam="2">  1        1 0.42608599E-02 0.90108143E+02</pdfrwt>
<pdfrwt beam="1">  1       -1 0.11275716E-01 0.90108143E+02</pdfrwt>
<totfact> 0.88516498E+04</totfact>
</mgrwt>
</event>
<event>
 5    1  0.6112843E+000  0.9423221E+02  0.7546771E-02  0.1292915E+00
          2   -1    0    0  501    0  0.00000000000E+00  0.00000000000E+00  0.14821403244E+02  0.14821403244E+02  0.00000000000E+00 0. -1.
         -2   -1    0    0    0  501 -0.00000000000E+00 -0.00000000000E+00 -0.14977849689E+03  0.14977849689E+03  0.00000000000E+00 0.  1.
         23    2    1    2    0    0  0.00000000000E+00  0.00000000000E+00 -0.13495709364E+03  0.16459990013E+03  0.94232213169E+02 0.  0.
        -13    1    3    3    0    0 -0.35003307392E+02 -0.82233872544E+01 -0.12066326701E+03  0.12590663061E+03  0.00000000000E+00 0.  1.
         13    1    3    3    0    0  0.35003307392E+02  0.82233872544E+01 -0.14293826632E+02  0.38693269519E+02  0.00000000000E+00 0. -1.
<mgrwt>
<rscale>  0 0.94232213E+02</rscale>
<asrwt>0</asrwt>
<pdfrwt beam="1">  1        2 0.22802157E-02 0.94232213E+02</pdfrwt>
<pdfrwt beam="2">  1       -2 0.23042848E-01 0.94232213E+02</pdfrwt>
<totfact> 0.64293288E+04</totfact>
</mgrwt>
</event>
<event>
 5    1  0.6112843E+000  0.8870535E+02  0.7546771E-02  0.1306017E+00
         -1   -1    0    0    0  501 -0.00000000000E+00  0.00000000000E+00  0.17449247387E+02  0.17449247387E+02  0.00000000000E+00 0.  1.
          1   -1    0    0  501    0  0.00000000000E+00 -0.00000000000E+00 -0.11273608761E+03  0.11273608761E+03  0.00000000000E+00 0. -1.
         23    2    1    2    0    0  0.00000000000E+00  0.00000000000E+00 -0.95286840220E+02  0.13018533499E+03  0.88705352308E+02 0.  0.
        -13    1    3    3    0    0 -0.33180544975E+02 -0.27794265006E+02 -0.33437832368E+02  0.54695140237E+02  0.00000000000E+00 0.  1.
         13    1    3    3    0    0  0.33180544975E+02  0.27794265006E+02 -0.61849007852E+02  0.75490194756E+02  0.00000000000E+00 0. -1.
<mgrwt>
<rscale>  0 0.88705352E+02</rscale>
<asrwt>0</asrwt>
<pdfrwt beam="2">  1        1 0.17344014E-01 0.88705352E+02</pdfrwt>
<pdfrwt beam="1">  1       -1 0.26844996E-02 0.88705352E+02</pdfrwt>
<totfact> 0.11482525E+05</totfact>
</mgrwt>
</event>
<event>
 5    1  0.6112843E+000  0.9052230E+02  0.7546771E-02  0.1301592E+00
         -2   -1    0    0    0  501 -0.00000000000E+00  0.00000000000E+00  0.42966329441E+02  0.42966329441E+02  0.00000000000E+00 0.  1.
          2   -1    0    0  501    0  0.00000000000E+00 -0.00000000000E+00 -0.47678538786E+02  0.47678538786E+02  0.00000000000E+00 0. -1.
         23    2    1    2    0    0  0.00000000000E+00  0.00000000000E+00 -0.47122093449E+01  0.90644868226E+02  0.90522302328E+02 0.  0.
        -13    1    3    3    0    0  0.35923776724E+02  0.10290196890E+02 -0.27928221533E+02  0.46651810727E+02  0.00000000000E+00 0.  1.
         13    1    3    3    0    0 -0.35923776724E+02 -0.10290196890E+02  0.23216012188E+02  0.43993057499E+02  0.00000000000E+00 0. -1.
<mgrwt>
<rscale>  0 0.90522302E+02</rscale>
<asrwt>0</asrwt>
<pdfrwt beam="2">  1        2 0.73351598E-02 0.90522302E+02</pdfrwt>
<pdfrwt beam="1">  1       -2 0.66102045E-02 0.90522302E+02</pdfrwt>
<totfact> 0.10190769E+05</totfact>
</mgrwt>
</event>
<event>
 5    1  0.6112843E+000  0.9263215E+02  0.7546771E-02  0.1296600E+00
         -2   -1    0    0    0  501 -0.00000000000E+00  0.00000000000E+00  0.27935918493E+02  0.27935918493E+02  0.00000000000E+00 0.  1.
          2   -1    0    0  501    0  0.00000000000E+00 -0.00000000000E+00 -0.76789266670E+02  0.76789266670E+02  0.00000000000E+00 0. -1.
         23    2    1    2    0    0  0.00000000000E+00  0.00000000000E+00 -0.48853348178E+02  0.10472518516E+03  0.92632147655E+02 0.  0.
        -13    1    3    3    0    0 -0.25419194306E+02  0.21860704062E+01  0.19275507937E+02  0.31975921397E+02  0.00000000000E+00 0.  1.
         13    1    3    3    0    0  0.25419194306E+02 -0.21860704062E+01 -0.68128856115E+02  0.72749263766E+02  0.00000000000E+00 0. -1.
<mgrwt>
<rscale>  0 0.92632148E+02</rscale>
<asrwt>0</asrwt>
<pdfrwt beam="2">  1        2 0.11813733E-01 0.92632148E+02</pdfrwt>
<pdfrwt beam="1">  1       -2 0.42978337E-02 0.92632148E+02</pdfrwt>
<totfact> 0.10861674E+05</totfact>
</mgrwt>
</event>
<event>
 5    1  0.6112843E+000  0.9164640E+02  0.7546771E-02  0.1298913E+00
          1   -1    0    0  501    0  0.00000000000E+00  0.00000000000E+00  0.25651472869E+03  0.25651472869E+03  0.00000000000E+00 0. -1.
         -1   -1    0    0    0  501 -0.00000000000E+00 -0.00000000000E+00 -0.81857500241E+01  0.81857500241E+01  0.00000000000E+00 0.  1.
         23    2    1    2    0    0  0.00000000000E+00  0.00000000000E+00  0.24832897867E+03  0.26470047872E+03  0.91646395381E+02 0.  0.
        -13    1    3    3    0    0  0.37952558510E+02 -0.18194722126E+02  0.17649904739E+03  0.18144794939E+03  0.00000000000E+00 0. -1.
         13    1    3    3    0    0 -0.37952558510E+02  0.18194722126E+02  0.71829931281E+02  0.83252529322E+02  0.00000000000E+00 0.  1.
<mgrwt>
<rscale>  0 0.91646395E+02</rscale>
<asrwt>0</asrwt>
<pdfrwt beam="1">  1        1 0.39463798E-01 0.91646395E+02</pdfrwt>
<pdfrwt beam="2">  1       -1 0.12593464E-02 0.91646395E+02</pdfrwt>
<totfact> 0.12259567E+05</totfact>
</mgrwt>
</event>
<event>
 5    1  0.6112843E+000  0.9142172E+02  0.7546771E-02  0.1299445E+00
         -1   -1    0    0    0  501 -0.00000000000E+00  0.00000000000E+00  0.35942561974E+02  0.35942561974E+02  0.00000000000E+00 0.  1.
          1   -1    0    0  501    0  0.00000000000E+00 -0.00000000000E+00 -0.58133935875E+02  0.58133935875E+02  0.00000000000E+00 0. -1.
         23    2    1    2    0    0  0.00000000000E+00  0.00000000000E+00 -0.22191373901E+02  0.94076497850E+02  0.91421717179E+02 0.  0.
        -13    1    3    3    0    0  0.10491798002E+02 -0.15133756167E+02  0.31956698310E+02  0.36882773323E+02  0.00000000000E+00 0.  1.
         13    1    3    3    0    0 -0.10491798002E+02  0.15133756167E+02 -0.54148072211E+02  0.57193724527E+02  0.00000000000E+00 0. -1.
<mgrwt>
<rscale>  0 0.91421717E+02</rscale>
<asrwt>0</asrwt>
<pdfrwt beam="2">  1        1 0.89436823E-02 0.91421717E+02</pdfrwt>
<pdfrwt beam="1">  1       -1 0.55296250E-02 0.91421717E+02</pdfrwt>
<totfact> 0.95199543E+04</totfact>
</mgrwt>
</event>
<event>
 5    1  0.6112843E+000  0.8607452E+02  0.7546771E-02  0.1312646E+00
         -2   -1    0    0    0  501 -0.00000000000E+00  0.00000000000E+00  0.39104457406E+02  0.39104457406E+02  0.00000000000E+00 0. -1.
          2   -1    0    0  501    0  0.00000000000E+00 -0.00000000000E+00 -0.47365595042E+02  0.47365595042E+02  0.00000000000E+00 0.  1.
         23    2    1    2    0    0  0.00000000000E+00  0.00000000000E+00 -0.82611376354E+01  0.86470052448E+02  0.86074523381E+02 0.  0.
        -13    1    3    3    0    0 -0.38135082709E+02 -0.13783279719E+02 -0.18617046102E+02  0.44619028885E+02  0.00000000000E+00 0.  1.
         13    1    3    3    0    0  0.38135082709E+02  0.13783279719E+02  0.10355908467E+02  0.41851023563E+02  0.00000000000E+00 0. -1.
<mgrwt>
<rscale>  0 0.86074523E+02</rscale>
<asrwt>0</asrwt>
<pdfrwt beam="2">  1        2 0.72870146E-02 0.86074523E+02</pdfrwt>
<pdfrwt beam="1">  1       -2 0.60160704E-02 0.86074523E+02</pdfrwt>
<totfact> 0.11739332E+05</totfact>
</mgrwt>
</event>
<event>
 5    1  0.6112843E+000  0.9233812E+02  0.7546771E-02  0.1297286E+00
          2   -1    0    0  501    0  0.00000000000E+00  0.00000000000E+00  0.54755254897E+02  0.54755254897E+02  0.00000000000E+00 0. -1.
         -2   -1    0    0    0  501 -0.00000000000E+00 -0.00000000000E+00 -0.38929272109E+02  0.38929272109E+02  0.00000000000E+00 0.  1.
         23    2    1    2    0    0  0.00000000000E+00  0.00000000000E+00  0.15825982789E+02  0.93684527006E+02  0.92338122512E+02 0.  0.
        -13    1    3    3    0    0 -0.11688192825E+02  0.82737853655E+01 -0.36619068311E+02  0.39319531276E+02  0.00000000000E+00 0.  1.
         13    1    3    3    0    0  0.11688192825E+02 -0.82737853655E+01  0.52445051100E+02  0.54364995730E+02  0.00000000000E+00 0. -1.
<mgrwt>
<rscale>  0 0.92338123E+02</rscale>
<asrwt>0</asrwt>
<pdfrwt beam="1">  1        2 0.84238853E-02 0.92338123E+02</pdfrwt>
<pdfrwt beam="2">  1       -2 0.59891188E-02 0.92338123E+02</pdfrwt>
<totfact> 0.99861616E+04</totfact>
</mgrwt>
</event>
<event>
 5    1  0.6112843E+000  0.9258531E+02  0.7546771E-02  0.1296709E+00
         -2   -1    0    0    0  501 -0.00000000000E+00  0.00000000000E+00  0.45275443456E+02  0.45275443456E+02  0.00000000000E+00 0.  1.
          2   -1    0    0  501    0  0.00000000000E+00 -0.00000000000E+00 -0.47332723998E+02  0.47332723998E+02  0.00000000000E+00 0. -1.
         23    2    1    2    0    0  0.00000000000E+00  0.00000000000E+00 -0.20572805429E+01  0.92608167454E+02  0.92585313500E+02 0.  0.
        -13    1    3    3    0    0 -0.41195925160E+02 -0.20609139349E+02 -0.56307752890E+01  0.46406319665E+02  0.00000000000E+00 0.  1.
         13    1    3    3    0    0  0.41195925160E+02  0.20609139349E+02  0.35734947461E+01  0.46201847789E+02  0.00000000000E+00 0. -1.
<mgrwt>
<rscale>  0 0.92585314E+02</rscale>
<asrwt>0</asrwt>
<pdfrwt beam="2">  1        2 0.72819575E-02 0.92585314E+02</pdfrwt>
<pdfrwt beam="1">  1       -2 0.69654529E-02 0.92585314E+02</pdfrwt>
<totfact> 0.95353892E+04</totfact>
</mgrwt>
</event>
<event>
 5    1  0.6112843E+000  0.9031298E+02  0.7546771E-02  0.1302096E+00
         -2   -1    0    0    0  501 -0.00000000000E+00  0.00000000000E+00  0.43267033358E+01  0.43267033358E+01  0.00000000000E+00 0.  1.
          2   -1    0    0  501    0  0.00000000000E+00 -0.00000000000E+00 -0.47128458724E+03  0.47128458724E+03  0.00000000000E+00 0. -1.
         23    2    1    2    0    0  0.00000000000E+00  0.00000000000E+00 -0.46695788391E+03  0.47561129058E+03  0.90312980146E+02 0.  0.
        -13    1    3    3    0    0 -0.31326608949E+02 -0.32512477313E+02 -0.23785654882E+03  0.24210360474E+03  0.00000000000E+00 0.  1.
         13    1    3    3    0    0  0.31326608949E+02  0.32512477313E+02 -0.22910133509E+03  0.23350768584E+03  0.00000000000E+00 0. -1.
<mgrwt>
<rscale>  0 0.90312980E+02</rscale>
<asrwt>0</asrwt>
<pdfrwt beam="2">  1        2 0.72505305E-01 0.90312980E+02</pdfrwt>
<pdfrwt beam="1">  1       -2 0.66564681E-03 0.90312980E+02</pdfrwt>
<totfact> 0.21671904E+05</totfact>
</mgrwt>
</event>
<event>
 5    1  0.6112843E+000  0.8799682E+02  0.7546771E-02  0.1307776E+00
          2   -1    0    0  501    0  0.00000000000E+00  0.00000000000E+00  0.31148151689E+03  0.31148151689E+03  0.00000000000E+00 0. -1.
         -2   -1    0    0    0  501 -0.00000000000E+00 -0.00000000000E+00 -0.62150084545E+01  0.62150084545E+01  0.00000000000E+00 0.  1.
         23    2    1    2    0    0  0.00000000000E+00  0.00000000000E+00  0.30526650843E+03  0.31769652534E+03  0.87996824053E+02 0.  0.
        -13    1    3    3    0    0  0.32972816691E+02 -0.26365620747E+02  0.19736444884E+03  0.20182932954E+03  0.00000000000E+00 0.  1.
         13    1    3    3    0    0 -0.32972816691E+02  0.26365620747E+02  0.10790205959E+03  0.11586719580E+03  0.00000000000E+00 0. -1.
<mgrwt>
<rscale>  0 0.87996824E+02</rscale>
<asrwt>0</asrwt>
<pdfrwt beam="1">  1        2 0.47920221E-01 0.87996824E+02</pdfrwt>
<pdfrwt beam="2">  1       -2 0.95615539E-03 0.87996824E+02</pdfrwt>
<totfact> 0.20022754E+05</totfact>
</mgrwt>
</event>
<event>
 5    1  0.6112843E+000  0.9037065E+02  0.7546771E-02  0.1301957E+00
         -2   -1    0    0    0  501 -0.00000000000E+00  0.00000000000E+00  0.96126127780E+02  0.96126127780E+02  0.00000000000E+00 0.  1.
          2   -1    0    0  501    0  0.00000000000E+00 -0.00000000000E+00 -0.21239942432E+02  0.21239942432E+02  0.00000000000E+00 0. -1.
         23    2    1    2    0    0  0.00000000000E+00  0.00000000000E+00  0.74886185349E+02  0.11736607021E+03  0.90370646124E+02 0.  0.
        -13    1    3    3    0    0  0.23784324583E+02  0.31985471383E+02  0.98029804516E+01  0.41047081519E+02  0.00000000000E+00 0. -1.
         13    1    3    3    0    0 -0.23784324583E+02 -0.31985471383E+02  0.65083204897E+02  0.76318988693E+02  0.00000000000E+00 0.  1.
<mgrwt>
<rscale>  0 0.90370646E+02</rscale>
<asrwt>0</asrwt>
<pdfrwt beam="2">  1        2 0.32676835E-02 0.90370646E+02</pdfrwt>
<pdfrwt beam="1">  1       -2 0.14788635E-01 0.90370646E+02</pdfrwt>
<totfact> 0.82544854E+04</totfact>
</mgrwt>
</event>
<event>
 5    1  0.6112843E+000  0.9033709E+02  0.7546771E-02  0.1302037E+00
          2   -1    0    0  501    0  0.00000000000E+00  0.00000000000E+00  0.14179619245E+03  0.14179619245E+03  0.00000000000E+00 0. -1.
         -2   -1    0    0    0  501 -0.00000000000E+00 -0.00000000000E+00 -0.14388238843E+02  0.14388238843E+02  0.00000000000E+00 0.  1.
         23    2    1    2    0    0  0.00000000000E+00  0.00000000000E+00  0.12740795360E+03  0.15618443129E+03  0.90337090589E+02 0.  0.
        -13    1    3    3    0    0  0.37081410051E+02 -0.14586891459E+02  0.26931091079E+02  0.48094615504E+02  0.00000000000E+00 0.  1.
         13    1    3    3    0    0 -0.37081410051E+02  0.14586891459E+02  0.10047686252E+03  0.10808981579E+03  0.00000000000E+00 0. -1.
<mgrwt>
<rscale>  0 0.90337091E+02</rscale>
<asrwt>0</asrwt>
<pdfrwt beam="1">  1        2 0.21814798E-01 0.90337091E+02</pdfrwt>
<pdfrwt beam="2">  1       -2 0.22135753E-02 0.90337091E+02</pdfrwt>
<totfact> 0.14066862E+05</totfact>
</mgrwt>
</event>
<event>
 5    1  0.6112843E+000  0.8913345E+02  0.7546771E-02  0.1304964E+00
          3   -1    0    0  501    0  0.00000000000E+00  0.00000000000E+00  0.10972463639E+03  0.10972463639E+03  0.00000000000E+00 0. -1.
         -3   -1    0    0    0  501 -0.00000000000E+00 -0.00000000000E+00 -0.18101615387E+02  0.18101615387E+02  0.00000000000E+00 0.  1.
         23    2    1    2    0    0  0.00000000000E+00  0.00000000000E+00  0.91623021006E+02  0.12782625178E+03  0.89133454247E+02 0.  0.
        -13    1    3    3    0    0 -0.10390826658E+02 -0.30734081976E+02  0.19918444373E+01  0.32504161546E+02  0.00000000000E+00 0.  1.
         13    1    3    3    0    0  0.10390826658E+02  0.30734081976E+02  0.89631176568E+02  0.95322090234E+02  0.00000000000E+00 0. -1.
<mgrwt>
<rscale>  0 0.89133454E+02</rscale>
<asrwt>0</asrwt>
<pdfrwt beam="1">  1        3 0.16880713E-01 0.89133454E+02</pdfrwt>
<pdfrwt beam="2">  1       -3 0.27848640E-02 0.89133454E+02</pdfrwt>
<totfact> 0.34788938E+04</totfact>
</mgrwt>
</event>
<event>
 5    1  0.6112843E+000  0.9109346E+02  0.7546771E-02  0.1300225E+00
          2   -1    0    0  501    0  0.00000000000E+00  0.00000000000E+00  0.86994508415E+02  0.86994508415E+02  0.00000000000E+00 0. -1.
         -2   -1    0    0    0  501 -0.00000000000E+00 -0.00000000000E+00 -0.23846384835E+02  0.23846384835E+02  0.00000000000E+00 0.  1.
         23    2    1    2    0    0  0.00000000000E+00  0.00000000000E+00  0.63148123580E+02  0.11084089325E+03  0.91093458079E+02 0.  0.
        -13    1    3    3    0    0  0.29051324165E+02  0.68247488377E+01 -0.10293640046E+02  0.31567636241E+02  0.00000000000E+00 0.  1.
         13    1    3    3    0    0 -0.29051324165E+02 -0.68247488377E+01  0.73441763626E+02  0.79273257010E+02  0.00000000000E+00 0. -1.
<mgrwt>
<rscale>  0 0.91093458E+02</rscale>
<asrwt>0</asrwt>
<pdfrwt beam="1">  1        2 0.13383770E-01 0.91093458E+02</pdfrwt>
<pdfrwt beam="2">  1       -2 0.36686746E-02 0.91093458E+02</pdfrwt>
<totfact> 0.11797485E+05</totfact>
</mgrwt>
</event>
<event>
 5    1  0.6112843E+000  0.9053237E+02  0.7546771E-02  0.1301568E+00
          2   -1    0    0  501    0  0.00000000000E+00  0.00000000000E+00  0.12430516987E+03  0.12430516987E+03  0.00000000000E+00 0. -1.
         -2   -1    0    0    0  501 -0.00000000000E+00 -0.00000000000E+00 -0.16483847637E+02  0.16483847637E+02  0.00000000000E+00 0.  1.
         23    2    1    2    0    0  0.00000000000E+00  0.00000000000E+00  0.10782132223E+03  0.14078901751E+03  0.90532369473E+02 0.  0.
        -13    1    3    3    0    0  0.39269962183E+02 -0.51415702912E+01  0.19823225894E+02  0.44289117848E+02  0.00000000000E+00 0.  1.
         13    1    3    3    0    0 -0.39269962183E+02  0.51415702912E+01  0.87998096337E+02  0.96499899657E+02  0.00000000000E+00 0. -1.
<mgrwt>
<rscale>  0 0.90532369E+02</rscale>
<asrwt>0</asrwt>
<pdfrwt beam="1">  1        2 0.19123872E-01 0.90532369E+02</pdfrwt>
<pdfrwt beam="2">  1       -2 0.25359766E-02 0.90532369E+02</pdfrwt>
<totfact> 0.13391402E+05</totfact>
</mgrwt>
</event>
<event>
 5    1  0.6112843E+000  0.5982355E+02  0.7546771E-02  0.1398574E+00
          3   -1    0    0  501    0  0.00000000000E+00  0.00000000000E+00  0.10532711564E+03  0.10532711564E+03  0.00000000000E+00 0. -1.
         -3   -1    0    0    0  501 -0.00000000000E+00 -0.00000000000E+00 -0.84946238862E+01  0.84946238862E+01  0.00000000000E+00 0.  1.
         23    2    1    2    0    0  0.00000000000E+00  0.00000000000E+00  0.96832491757E+02  0.11382173953E+03  0.59823548287E+02 0.  0.
        -13    1    3    3    0    0 -0.83771674737E+01 -0.27773341197E+02  0.62290906953E+02  0.68714572728E+02  0.00000000000E+00 0. -1.
         13    1    3    3    0    0  0.83771674737E+01  0.27773341197E+02  0.34541584804E+02  0.45107166802E+02  0.00000000000E+00 0.  1.
<mgrwt>
<rscale>  0 0.59823548E+02</rscale>
<asrwt>0</asrwt>
<pdfrwt beam="1">  1        3 0.16204171E-01 0.59823548E+02</pdfrwt>
<pdfrwt beam="2">  1       -3 0.13068653E-02 0.59823548E+02</pdfrwt>
<totfact> 0.10260530E+05</totfact>
</mgrwt>
</event>
<event>
 5    1  0.6112843E+000  0.8975408E+02  0.7546771E-02  0.1303448E+00
         -3   -1    0    0    0  501 -0.00000000000E+00  0.00000000000E+00  0.29880177631E+02  0.29880177631E+02  0.00000000000E+00 0.  1.
          3   -1    0    0  501    0  0.00000000000E+00 -0.00000000000E+00 -0.67400828099E+02  0.67400828099E+02  0.00000000000E+00 0. -1.
         23    2    1    2    0    0  0.00000000000E+00  0.00000000000E+00 -0.37520650467E+02  0.97281005730E+02  0.89754079931E+02 0.  0.
        -13    1    3    3    0    0 -0.44468126142E+02  0.45512356630E+01 -0.23071415110E+02  0.50303262159E+02  0.00000000000E+00 0.  1.
         13    1    3    3    0    0  0.44468126142E+02 -0.45512356630E+01 -0.14449235357E+02  0.46977743571E+02  0.00000000000E+00 0. -1.
<mgrwt>
<rscale>  0 0.89754080E+02</rscale>
<asrwt>0</asrwt>
<pdfrwt beam="2">  1        3 0.10369358E-01 0.89754080E+02</pdfrwt>
<pdfrwt beam="1">  1       -3 0.45969504E-02 0.89754080E+02</pdfrwt>
<totfact> 0.36395939E+04</totfact>
</mgrwt>
</event>
<event>
 5    1  0.6112843E+000  0.9200725E+02  0.7546771E-02  0.1298062E+00
         -2   -1    0    0    0  501 -0.00000000000E+00  0.00000000000E+00  0.85575085968E+01  0.85575085968E+01  0.00000000000E+00 0.  1.
          2   -1    0    0  501    0  0.00000000000E+00 -0.00000000000E+00 -0.24730717894E+03  0.24730717894E+03  0.00000000000E+00 0. -1.
         23    2    1    2    0    0  0.00000000000E+00  0.00000000000E+00 -0.23874967035E+03  0.25586468754E+03  0.92007245581E+02 0.  0.
        -13    1    3    3    0    0 -0.15276384390E+02 -0.35392589548E+02 -0.49556046517E+02  0.62783796168E+02  0.00000000000E+00 0.  1.
         13    1    3    3    0    0  0.15276384390E+02  0.35392589548E+02 -0.18919362383E+03  0.19308089137E+03  0.00000000000E+00 0. -1.
<mgrwt>
<rscale>  0 0.92007246E+02</rscale>
<asrwt>0</asrwt>
<pdfrwt beam="2">  1        2 0.38047254E-01 0.92007246E+02</pdfrwt>
<pdfrwt beam="1">  1       -2 0.13165399E-02 0.92007246E+02</pdfrwt>
<totfact> 0.16317289E+05</totfact>
</mgrwt>
</event>
<event>
 5    1  0.6112843E+000  0.9084768E+02  0.7546771E-02  0.1300812E+00
         -1   -1    0    0    0  501 -0.00000000000E+00  0.00000000000E+00  0.33453729171E+02  0.33453729171E+02  0.00000000000E+00 0.  1.
          1   -1    0    0  501    0  0.00000000000E+00 -0.00000000000E+00 -0.61676992096E+02  0.61676992096E+02  0.00000000000E+00 0. -1.
         23    2    1    2    0    0  0.00000000000E+00  0.00000000000E+00 -0.28223262925E+02  0.95130721267E+02  0.90847683288E+02 0.  0.
        -13    1    3    3    0    0  0.18701914102E+02  0.37085786098E+02 -0.33369093169E+02  0.53278640190E+02  0.00000000000E+00 0. -1.
         13    1    3    3    0    0 -0.18701914102E+02 -0.37085786098E+02  0.51458302441E+01  0.41852081077E+02  0.00000000000E+00 0.  1.
<mgrwt>
<rscale>  0 0.90847683E+02</rscale>
<asrwt>0</asrwt>
<pdfrwt beam="2">  1        1 0.94887679E-02 0.90847683E+02</pdfrwt>
<pdfrwt beam="1">  1       -1 0.51467276E-02 0.90847683E+02</pdfrwt>
<totfact> 0.97749002E+04</totfact>
</mgrwt>
</event>
<event>
 5    1  0.6112843E+000  0.9175928E+02  0.7546771E-02  0.1298646E+00
         -2   -1    0    0    0  501 -0.00000000000E+00  0.00000000000E+00  0.49318756293E+01  0.49318756293E+01  0.00000000000E+00 0. -1.
          2   -1    0    0  501    0  0.00000000000E+00 -0.00000000000E+00 -0.42680339382E+03  0.42680339382E+03  0.00000000000E+00 0.  1.
         23    2    1    2    0    0  0.00000000000E+00  0.00000000000E+00 -0.42187151819E+03  0.43173526945E+03  0.91759277601E+02 0.  0.
        -13    1    3    3    0    0 -0.34012628419E+01 -0.45748326602E+02 -0.20773325540E+03  0.21273829785E+03  0.00000000000E+00 0. -1.
         13    1    3    3    0    0  0.34012628419E+01  0.45748326602E+02 -0.21413826279E+03  0.21899697159E+03  0.00000000000E+00 0.  1.
<mgrwt>
<rscale>  0 0.91759278E+02</rscale>
<asrwt>0</asrwt>
<pdfrwt beam="2">  1        2 0.65662077E-01 0.91759278E+02</pdfrwt>
<pdfrwt beam="1">  1       -2 0.75874991E-03 0.91759278E+02</pdfrwt>
<totfact> 0.20083628E+05</totfact>
</mgrwt>
</event>
<event>
 5    1  0.6112843E+000  0.9168994E+02  0.7546771E-02  0.1298810E+00
         -2   -1    0    0    0  501 -0.00000000000E+00  0.00000000000E+00  0.13286660915E+03  0.13286660915E+03  0.00000000000E+00 0.  1.
          2   -1    0    0  501    0  0.00000000000E+00 -0.00000000000E+00 -0.15818582481E+02  0.15818582481E+02  0.00000000000E+00 0. -1.
         23    2    1    2    0    0  0.00000000000E+00  0.00000000000E+00  0.11704802667E+03  0.14868519163E+03  0.91689943088E+02 0.  0.
        -13    1    3    3    0    0 -0.30688772210E+02  0.28955392432E+02  0.29445813358E+02  0.51451641518E+02  0.00000000000E+00 0. -1.
         13    1    3    3    0    0  0.30688772210E+02 -0.28955392432E+02  0.87602213313E+02  0.97233550114E+02  0.00000000000E+00 0.  1.
<mgrwt>
<rscale>  0 0.91689943E+02</rscale>
<asrwt>0</asrwt>
<pdfrwt beam="2">  1        2 0.24336282E-02 0.91689943E+02</pdfrwt>
<pdfrwt beam="1">  1       -2 0.20441016E-01 0.91689943E+02</pdfrwt>
<totfact> 0.71881604E+04</totfact>
</mgrwt>
</event>
<event>
 5    1  0.6112843E+000  0.9374015E+02  0.7546771E-02  0.1294039E+00
          4   -1    0    0  501    0  0.00000000000E+00  0.00000000000E+00  0.25493465710E+02  0.25493465710E+02  0.00000000000E+00 0. -1.
         -4   -1    0    0    0  501 -0.00000000000E+00 -0.00000000000E+00 -0.86171257959E+02  0.86171257959E+02  0.00000000000E+00 0.  1.
         23    2    1    2    0    0  0.00000000000E+00  0.00000000000E+00 -0.60677792249E+02  0.11166472367E+03  0.93740151695E+02 0.  0.
        -13    1    3    3    0    0 -0.10395330189E+02  0.18694592002E+02  0.19339980631E+02  0.28837224392E+02  0.00000000000E+00 0. -1.
         13    1    3    3    0    0  0.10395330189E+02 -0.18694592002E+02 -0.80017772879E+02  0.82827499277E+02  0.00000000000E+00 0.  1.
<mgrwt>
<rscale>  0 0.93740152E+02</rscale>
<asrwt>0</asrwt>
<pdfrwt beam="1">  1        4 0.39220716E-02 0.93740152E+02</pdfrwt>
<pdfrwt beam="2">  1       -4 0.13257117E-01 0.93740152E+02</pdfrwt>
<totfact> 0.23886999E+04</totfact>
</mgrwt>
</event>
<event>
 5    1  0.6112843E+000  0.8651773E+02  0.7546771E-02  0.1311511E+00
          2   -1    0    0  501    0  0.00000000000E+00  0.00000000000E+00  0.64170928968E+02  0.64170928968E+02  0.00000000000E+00 0. -1.
         -2   -1    0    0    0  501 -0.00000000000E+00 -0.00000000000E+00 -0.29161636488E+02  0.29161636488E+02  0.00000000000E+00 0.  1.
         23    2    1    2    0    0  0.00000000000E+00  0.00000000000E+00  0.35009292481E+02  0.93332565456E+02  0.86517727747E+02 0.  0.
        -13    1    3    3    0    0 -0.30564464871E+02  0.29658505015E+02  0.93233531851E+01  0.43597458036E+02  0.00000000000E+00 0.  1.
         13    1    3    3    0    0  0.30564464871E+02 -0.29658505015E+02  0.25685939296E+02  0.49735107420E+02  0.00000000000E+00 0. -1.
<mgrwt>
<rscale>  0 0.86517728E+02</rscale>
<asrwt>0</asrwt>
<pdfrwt beam="1">  1        2 0.98724506E-02 0.86517728E+02</pdfrwt>
<pdfrwt beam="2">  1       -2 0.44864056E-02 0.86517728E+02</pdfrwt>
<totfact> 0.12506844E+05</totfact>
</mgrwt>
</event>
<event>
 5    1  0.6112843E+000  0.9111733E+02  0.7546771E-02  0.1300168E+00
          2   -1    0    0  501    0  0.00000000000E+00  0.00000000000E+00  0.28217350723E+03  0.28217350723E+03  0.00000000000E+00 0.  1.
         -2   -1    0    0    0  501 -0.00000000000E+00 -0.00000000000E+00 -0.73557288898E+01  0.73557288898E+01  0.00000000000E+00 0. -1.
         23    2    1    2    0    0  0.00000000000E+00  0.00000000000E+00  0.27481777834E+03  0.28952923612E+03  0.91117326982E+02 0.  0.
        -13    1    3    3    0    0 -0.13081391150E+02  0.35000197913E+02  0.22023587511E+03  0.22338302830E+03  0.00000000000E+00 0.  1.
         13    1    3    3    0    0  0.13081391150E+02 -0.35000197913E+02  0.54581903234E+02  0.66146207821E+02  0.00000000000E+00 0. -1.
<mgrwt>
<rscale>  0 0.91117327E+02</rscale>
<asrwt>0</asrwt>
<pdfrwt beam="1">  1        2 0.43411300E-01 0.91117327E+02</pdfrwt>
<pdfrwt beam="2">  1       -2 0.11316508E-02 0.91117327E+02</pdfrwt>
<totfact> 0.17590980E+05</totfact>
</mgrwt>
</event>
<event>
 5    1  0.6112843E+000  0.9134455E+02  0.7546771E-02  0.1299628E+00
         -1   -1    0    0    0  501 -0.00000000000E+00  0.00000000000E+00  0.15732523704E+03  0.15732523704E+03  0.00000000000E+00 0.  1.
          1   -1    0    0  501    0  0.00000000000E+00 -0.00000000000E+00 -0.13258883131E+02  0.13258883131E+02  0.00000000000E+00 0. -1.
         23    2    1    2    0    0  0.00000000000E+00  0.00000000000E+00  0.14406635391E+03  0.17058412017E+03  0.91344554987E+02 0.  0.
        -13    1    3    3    0    0 -0.37137628336E+02 -0.20810532486E+02  0.41139209700E+02  0.59200644216E+02  0.00000000000E+00 0. -1.
         13    1    3    3    0    0  0.37137628336E+02  0.20810532486E+02  0.10292714421E+03  0.11138347595E+03  0.00000000000E+00 0.  1.
<mgrwt>
<rscale>  0 0.91344555E+02</rscale>
<asrwt>0</asrwt>
<pdfrwt beam="2">  1        1 0.20398283E-02 0.91344555E+02</pdfrwt>
<pdfrwt beam="1">  1       -1 0.24203881E-01 0.91344555E+02</pdfrwt>
<totfact> 0.73592923E+04</totfact>
</mgrwt>
</event>
<event>
 5    1  0.6112843E+000  0.1260252E+03  0.7546771E-02  0.1233476E+00
          1   -1    0    0  501    0  0.00000000000E+00  0.00000000000E+00  0.47071057446E+02  0.47071057446E+02  0.00000000000E+00 0. -1.
         -1   -1    0    0    0  501 -0.00000000000E+00 -0.00000000000E+00 -0.84353085015E+02  0.84353085015E+02  0.00000000000E+00 0.  1.
         23    2    1    2    0    0  0.00000000000E+00  0.00000000000E+00 -0.37282027570E+02  0.13142414246E+03  0.12602521828E+03 0.  0.
        -13    1    3    3    0    0  0.57551456819E+02  0.20573863010E+02 -0.34632036156E+02  0.70248359052E+02  0.00000000000E+00 0.  1.
         13    1    3    3    0    0 -0.57551456819E+02 -0.20573863010E+02 -0.26499914131E+01  0.61175783409E+02  0.00000000000E+00 0. -1.
<mgrwt>
<rscale>  0 0.12602522E+03</rscale>
<asrwt>0</asrwt>
<pdfrwt beam="1">  1        1 0.72417011E-02 0.12602522E+03</pdfrwt>
<pdfrwt beam="2">  1       -1 0.12977398E-01 0.12602522E+03</pdfrwt>
<totfact> 0.36518560E+04</totfact>
</mgrwt>
</event>
<event>
 5    1  0.6112843E+000  0.9362532E+02  0.7546771E-02  0.1294303E+00
          1   -1    0    0  501    0  0.00000000000E+00  0.00000000000E+00  0.88506169917E+02  0.88506169917E+02  0.00000000000E+00 0. -1.
         -1   -1    0    0    0  501 -0.00000000000E+00 -0.00000000000E+00 -0.24760142006E+02  0.24760142006E+02  0.00000000000E+00 0.  1.
         23    2    1    2    0    0  0.00000000000E+00  0.00000000000E+00  0.63746027911E+02  0.11326631192E+03  0.93625324258E+02 0.  0.
        -13    1    3    3    0    0 -0.39255477911E+02  0.19383533181E+02  0.11821563643E+02  0.45348244415E+02  0.00000000000E+00 0.  1.
         13    1    3    3    0    0  0.39255477911E+02 -0.19383533181E+02  0.51924464268E+02  0.67918067508E+02  0.00000000000E+00 0. -1.
<mgrwt>
<rscale>  0 0.93625324E+02</rscale>
<asrwt>0</asrwt>
<pdfrwt beam="1">  1        1 0.13616334E-01 0.93625324E+02</pdfrwt>
<pdfrwt beam="2">  1       -1 0.38092527E-02 0.93625324E+02</pdfrwt>
<totfact> 0.95203823E+04</totfact>
</mgrwt>
</event>
<event>
 5    1  0.6112843E+000  0.9065571E+02  0.7546771E-02  0.1301272E+00
         -1   -1    0    0    0  501 -0.00000000000E+00  0.00000000000E+00  0.23462427709E+02  0.23462427709E+02  0.00000000000E+00 0.  1.
          1   -1    0    0  501    0  0.00000000000E+00 -0.00000000000E+00 -0.87570420349E+02  0.87570420349E+02  0.00000000000E+00 0. -1.
         23    2    1    2    0    0  0.00000000000E+00  0.00000000000E+00 -0.64107992640E+02  0.11103284806E+03  0.90655714810E+02 0.  0.
        -13    1    3    3    0    0  0.25669341355E+02  0.26649655890E+02  0.13021236226E-01  0.37001613670E+02  0.00000000000E+00 0.  1.
         13    1    3    3    0    0 -0.25669341355E+02 -0.26649655890E+02 -0.64121013876E+02  0.74031234389E+02  0.00000000000E+00 0. -1.
<mgrwt>
<rscale>  0 0.90655715E+02</rscale>
<asrwt>0</asrwt>
<pdfrwt beam="2">  1        1 0.13472372E-01 0.90655715E+02</pdfrwt>
<pdfrwt beam="1">  1       -1 0.36096043E-02 0.90655715E+02</pdfrwt>
<totfact> 0.10382188E+05</totfact>
</mgrwt>
</event>
<event>
 5    1  0.6112843E+000  0.9041525E+02  0.7546771E-02  0.1301849E+00
         -2   -1    0    0    0  501 -0.00000000000E+00  0.00000000000E+00  0.53328245913E+01  0.53328245913E+01  0.00000000000E+00 0. -1.
          2   -1    0    0  501    0  0.00000000000E+00 -0.00000000000E+00 -0.38323584454E+03  0.38323584454E+03  0.00000000000E+00 0.  1.
         23    2    1    2    0    0  0.00000000000E+00  0.00000000000E+00 -0.37790301994E+03  0.38856866913E+03  0.90415253934E+02 0.  0.
        -13    1    3    3    0    0 -0.44104112641E+02 -0.18806394351E+01 -0.23084374580E+03  0.23502668897E+03  0.00000000000E+00 0.  1.
         13    1    3    3    0    0  0.44104112641E+02  0.18806394351E+01 -0.14705927415E+03  0.15354198015E+03  0.00000000000E+00 0. -1.
<mgrwt>
<rscale>  0 0.90415254E+02</rscale>
<asrwt>0</asrwt>
<pdfrwt beam="2">  1        2 0.58959352E-01 0.90415254E+02</pdfrwt>
<pdfrwt beam="1">  1       -2 0.82043467E-03 0.90415254E+02</pdfrwt>
<totfact> 0.20100105E+05</totfact>
</mgrwt>
</event>
<event>
 5    1  0.6112843E+000  0.9131869E+02  0.7546771E-02  0.1299689E+00
          2   -1    0    0  501    0  0.00000000000E+00  0.00000000000E+00  0.15259779168E+03  0.15259779168E+03  0.00000000000E+00 0. -1.
         -2   -1    0    0    0  501 -0.00000000000E+00 -0.00000000000E+00 -0.13661901302E+02  0.13661901302E+02  0.00000000000E+00 0.  1.
         23    2    1    2    0    0  0.00000000000E+00  0.00000000000E+00  0.13893589038E+03  0.16625969298E+03  0.91318694009E+02 0.  0.
        -13    1    3    3    0    0 -0.19190826261E+02 -0.41410152044E+02  0.67102872255E+02  0.81153459383E+02  0.00000000000E+00 0. -1.
         13    1    3    3    0    0  0.19190826261E+02  0.41410152044E+02  0.71833018123E+02  0.85106233600E+02  0.00000000000E+00 0.  1.
<mgrwt>
<rscale>  0 0.91318694E+02</rscale>
<asrwt>0</asrwt>
<pdfrwt beam="1">  1        2 0.23476582E-01 0.91318694E+02</pdfrwt>
<pdfrwt beam="2">  1       -2 0.21018311E-02 0.91318694E+02</pdfrwt>
<totfact> 0.14003788E+05</totfact>
</mgrwt>
</event>
<event>
 5    1  0.6112843E+000  0.9184852E+02  0.7546771E-02  0.1298436E+00
         -2   -1    0    0    0  501 -0.00000000000E+00  0.00000000000E+00  0.10401027316E+02  0.10401027316E+02  0.00000000000E+00 0.  1.
          2   -1    0    0  501    0  0.00000000000E+00 -0.00000000000E+00 -0.20277203277E+03  0.20277203277E+03  0.00000000000E+00 0. -1.
         23    2    1    2    0    0  0.00000000000E+00  0.00000000000E+00 -0.19237100546E+03  0.21317306009E+03  0.91848515543E+02 0.  0.
        -13    1    3    3    0    0 -0.18376033812E+02  0.34783944615E+02 -0.41192134777E+02  0.56959576799E+02  0.00000000000E+00 0.  1.
         13    1    3    3    0    0  0.18376033812E+02 -0.34783944615E+02 -0.15117887068E+03  0.15621348329E+03  0.00000000000E+00 0. -1.
<mgrwt>
<rscale>  0 0.91848516E+02</rscale>
<asrwt>0</asrwt>
<pdfrwt beam="2">  1        2 0.31195694E-01 0.91848516E+02</pdfrwt>
<pdfrwt beam="1">  1       -2 0.16001582E-02 0.91848516E+02</pdfrwt>
<totfact> 0.15240787E+05</totfact>
</mgrwt>
</event>
<event>
 5    1  0.6112843E+000  0.9032549E+02  0.7546771E-02  0.1302065E+00
         -3   -1    0    0    0  501 -0.00000000000E+00  0.00000000000E+00  0.81936720234E+02  0.81936720234E+02  0.00000000000E+00 0.  1.
          3   -1    0    0  501    0  0.00000000000E+00 -0.00000000000E+00 -0.24893276197E+02  0.24893276197E+02  0.00000000000E+00 0. -1.
         23    2    1    2    0    0  0.00000000000E+00  0.00000000000E+00  0.57043444037E+02  0.10682999643E+03  0.90325487155E+02 0.  0.
        -13    1    3    3    0    0  0.33921207409E+02  0.28492979197E+02  0.18131570694E+02  0.47867024468E+02  0.00000000000E+00 0. -1.
         13    1    3    3    0    0 -0.33921207409E+02 -0.28492979197E+02  0.38911873343E+02  0.58962971963E+02  0.00000000000E+00 0.  1.
<mgrwt>
<rscale>  0 0.90325487E+02</rscale>
<asrwt>0</asrwt>
<pdfrwt beam="2">  1        3 0.38297348E-02 0.90325487E+02</pdfrwt>
<pdfrwt beam="1">  1       -3 0.12605649E-01 0.90325487E+02</pdfrwt>
<totfact> 0.35055068E+04</totfact>
</mgrwt>
</event>
<event>
 4    1  0.6112843E+000  0.3766667E+02  0.7546771E-02  0.1526120E+00
          2   -1    0    0  501    0  0.00000000000E+00  0.00000000000E+00  0.56730220864E+01  0.56730220864E+01  0.00000000000E+00 0. -1.
         -2   -1    0    0    0  501 -0.00000000000E+00 -0.00000000000E+00 -0.62523034356E+02  0.62523034356E+02  0.00000000000E+00 0.  1.
        -13    1    1    2    0    0  0.13453241481E+02  0.13121779798E+02 -0.30659905255E+02  0.35961098449E+02  0.00000000000E+00 0.  1.
         13    1    1    2    0    0 -0.13453241481E+02 -0.13121779798E+02 -0.26190107015E+02  0.32234957994E+02  0.00000000000E+00 0. -1.
<mgrwt>
<rscale>  0 0.37666673E+02</rscale>
<asrwt>0</asrwt>
<pdfrwt beam="1">  1        2 0.87277265E-03 0.37666673E+02</pdfrwt>
<pdfrwt beam="2">  1       -2 0.96189281E-02 0.37666673E+02</pdfrwt>
<totfact> 0.77085802E+05</totfact>
</mgrwt>
</event>
<event>
 5    1  0.6112843E+000  0.9366277E+02  0.7546771E-02  0.1294217E+00
          1   -1    0    0  501    0  0.00000000000E+00  0.00000000000E+00  0.38909609050E+03  0.38909609050E+03  0.00000000000E+00 0. -1.
         -1   -1    0    0    0  501 -0.00000000000E+00 -0.00000000000E+00 -0.56365984973E+01  0.56365984973E+01  0.00000000000E+00 0.  1.
         23    2    1    2    0    0  0.00000000000E+00  0.00000000000E+00  0.38345949201E+03  0.39473268900E+03  0.93662766114E+02 0.  0.
        -13    1    3    3    0    0 -0.42742959570E+02 -0.19026297740E+02  0.18307446458E+03  0.18895824983E+03  0.00000000000E+00 0. -1.
         13    1    3    3    0    0  0.42742959570E+02  0.19026297740E+02  0.20038502743E+03  0.20577443917E+03  0.00000000000E+00 0.  1.
<mgrwt>
<rscale>  0 0.93662766E+02</rscale>
<asrwt>0</asrwt>
<pdfrwt beam="1">  1        1 0.59860916E-01 0.93662766E+02</pdfrwt>
<pdfrwt beam="2">  1       -1 0.86716930E-03 0.93662766E+02</pdfrwt>
<totfact> 0.12499969E+05</totfact>
</mgrwt>
</event>
<event>
 5    1  0.6112843E+000  0.8971764E+02  0.7546771E-02  0.1303537E+00
          4   -1    0    0  501    0  0.00000000000E+00  0.00000000000E+00  0.56636036215E+02  0.56636036215E+02  0.00000000000E+00 0. -1.
         -4   -1    0    0    0  501 -0.00000000000E+00 -0.00000000000E+00 -0.35530623977E+02  0.35530623977E+02  0.00000000000E+00 0.  1.
         23    2    1    2    0    0  0.00000000000E+00  0.00000000000E+00  0.21105412238E+02  0.92166660192E+02  0.89717639431E+02 0.  0.
        -13    1    3    3    0    0 -0.17533058942E+02 -0.10922945194E+02 -0.30353774918E+02  0.36716080120E+02  0.00000000000E+00 0.  1.
         13    1    3    3    0    0  0.17533058942E+02  0.10922945194E+02  0.51459187156E+02  0.55450580072E+02  0.00000000000E+00 0. -1.
<mgrwt>
<rscale>  0 0.89717639E+02</rscale>
<asrwt>0</asrwt>
<pdfrwt beam="1">  1        4 0.87132363E-02 0.89717639E+02</pdfrwt>
<pdfrwt beam="2">  1       -4 0.54662499E-02 0.89717639E+02</pdfrwt>
<totfact> 0.28155723E+04</totfact>
</mgrwt>
</event>
<event>
 5    1  0.6112843E+000  0.9522910E+02  0.7546771E-02  0.1290661E+00
          1   -1    0    0  501    0  0.00000000000E+00  0.00000000000E+00  0.99753852621E+02  0.99753852621E+02  0.00000000000E+00 0. -1.
         -1   -1    0    0    0  501 -0.00000000000E+00 -0.00000000000E+00 -0.22727394225E+02  0.22727394225E+02  0.00000000000E+00 0.  1.
         23    2    1    2    0    0  0.00000000000E+00  0.00000000000E+00  0.77026458396E+02  0.12248124685E+03  0.95229095007E+02 0.  0.
        -13    1    3    3    0    0 -0.38565573943E+02  0.25964308064E+02  0.25290231238E+02  0.52924895681E+02  0.00000000000E+00 0. -1.
         13    1    3    3    0    0  0.38565573943E+02 -0.25964308064E+02  0.51736227158E+02  0.69556351164E+02  0.00000000000E+00 0.  1.
<mgrwt>
<rscale>  0 0.95229095E+02</rscale>
<asrwt>0</asrwt>
<pdfrwt beam="1">  1        1 0.15346746E-01 0.95229095E+02</pdfrwt>
<pdfrwt beam="2">  1       -1 0.34965222E-02 0.95229095E+02</pdfrwt>
<totfact> 0.92696567E+04</totfact>
</mgrwt>
</event>
<event>
 5    1  0.6112843E+000  0.9227076E+02  0.7546771E-02  0.1297444E+00
          2   -1    0    0  501    0  0.00000000000E+00  0.00000000000E+00  0.66496823208E+02  0.66496823208E+02  0.00000000000E+00 0. -1.
         -2   -1    0    0    0  501 -0.00000000000E+00 -0.00000000000E+00 -0.32008648650E+02  0.32008648650E+02  0.00000000000E+00 0.  1.
         23    2    1    2    0    0  0.00000000000E+00  0.00000000000E+00  0.34488174558E+02  0.98505471858E+02  0.92270763526E+02 0.  0.
        -13    1    3    3    0    0  0.40472754329E+02  0.13250948440E+02 -0.16986420587E+01  0.42620615462E+02  0.00000000000E+00 0. -1.
         13    1    3    3    0    0 -0.40472754329E+02 -0.13250948440E+02  0.36186816617E+02  0.55884856396E+02  0.00000000000E+00 0.  1.
<mgrwt>
<rscale>  0 0.92270764E+02</rscale>
<asrwt>0</asrwt>
<pdfrwt beam="1">  1        2 0.10230280E-01 0.92270764E+02</pdfrwt>
<pdfrwt beam="2">  1       -2 0.49244075E-02 0.92270764E+02</pdfrwt>
<totfact> 0.10547086E+05</totfact>
</mgrwt>
</event>
<event>
 5    1  0.6112843E+000  0.9110553E+02  0.7546771E-02  0.1300196E+00
          3   -1    0    0  501    0  0.00000000000E+00  0.00000000000E+00  0.66053663464E+02  0.66053663464E+02  0.00000000000E+00 0. -1.
         -3   -1    0    0    0  501 -0.00000000000E+00 -0.00000000000E+00 -0.31414678816E+02  0.31414678816E+02  0.00000000000E+00 0.  1.
         23    2    1    2    0    0  0.00000000000E+00  0.00000000000E+00  0.34638984648E+02  0.97468342280E+02  0.91105534900E+02 0.  0.
        -13    1    3    3    0    0  0.34675631155E+02  0.29539904211E+02  0.17081984184E+02  0.48649763828E+02  0.00000000000E+00 0.  1.
         13    1    3    3    0    0 -0.34675631155E+02 -0.29539904211E+02  0.17557000463E+02  0.48818578452E+02  0.00000000000E+00 0. -1.
<mgrwt>
<rscale>  0 0.91105535E+02</rscale>
<asrwt>0</asrwt>
<pdfrwt beam="1">  1        3 0.10162102E-01 0.91105535E+02</pdfrwt>
<pdfrwt beam="2">  1       -3 0.48330275E-02 0.91105535E+02</pdfrwt>
<totfact> 0.34934266E+04</totfact>
</mgrwt>
</event>
<event>
 5    1  0.6112843E+000  0.9146494E+02  0.7546771E-02  0.1299342E+00
         -4   -1    0    0    0  501 -0.00000000000E+00  0.00000000000E+00  0.60369658751E+02  0.60369658751E+02  0.00000000000E+00 0.  1.
          4   -1    0    0  501    0  0.00000000000E+00 -0.00000000000E+00 -0.34644204610E+02  0.34644204610E+02  0.00000000000E+00 0. -1.
         23    2    1    2    0    0  0.00000000000E+00  0.00000000000E+00  0.25725454141E+02  0.95013863361E+02  0.91464939950E+02 0.  0.
        -13    1    3    3    0    0 -0.64779716708E+01  0.21957144920E+02  0.53988991498E+02  0.58642062830E+02  0.00000000000E+00 0. -1.
         13    1    3    3    0    0  0.64779716708E+01 -0.21957144920E+02 -0.28263537356E+02  0.36371800531E+02  0.00000000000E+00 0.  1.
<mgrwt>
<rscale>  0 0.91464940E+02</rscale>
<asrwt>0</asrwt>
<pdfrwt beam="2">  1        4 0.53298777E-02 0.91464940E+02</pdfrwt>
<pdfrwt beam="1">  1       -4 0.92876398E-02 0.91464940E+02</pdfrwt>
<totfact> 0.26542344E+04</totfact>
</mgrwt>
</event>
<event>
 5    1  0.6112843E+000  0.9122477E+02  0.7546771E-02  0.1299913E+00
         -2   -1    0    0    0  501 -0.00000000000E+00  0.00000000000E+00  0.72241604046E+01  0.72241604046E+01  0.00000000000E+00 0.  1.
          2   -1    0    0  501    0  0.00000000000E+00 -0.00000000000E+00 -0.28799050266E+03  0.28799050266E+03  0.00000000000E+00 0. -1.
         23    2    1    2    0    0  0.00000000000E+00  0.00000000000E+00 -0.28076634225E+03  0.29521466306E+03  0.91224768264E+02 0.  0.
        -13    1    3    3    0    0  0.17756931822E+01 -0.38590356429E+02 -0.61903267867E+02  0.72968371698E+02  0.00000000000E+00 0.  1.
         13    1    3    3    0    0 -0.17756931822E+01  0.38590356429E+02 -0.21886307439E+03  0.22224629136E+03  0.00000000000E+00 0. -1.
<mgrwt>
<rscale>  0 0.91224768E+02</rscale>
<asrwt>0</asrwt>
<pdfrwt beam="2">  1        2 0.44306224E-01 0.91224768E+02</pdfrwt>
<pdfrwt beam="1">  1       -2 0.11114095E-02 0.91224768E+02</pdfrwt>
<totfact> 0.17669675E+05</totfact>
</mgrwt>
</event>
<event>
 5    1  0.6112843E+000  0.9101834E+02  0.7546771E-02  0.1300404E+00
          1   -1    0    0  501    0  0.00000000000E+00  0.00000000000E+00  0.22895953927E+02  0.22895953927E+02  0.00000000000E+00 0. -1.
         -1   -1    0    0    0  501 -0.00000000000E+00 -0.00000000000E+00 -0.90456352324E+02  0.90456352324E+02  0.00000000000E+00 0.  1.
         23    2    1    2    0    0  0.00000000000E+00  0.00000000000E+00 -0.67560398397E+02  0.11335230625E+03  0.91018338266E+02 0.  0.
        -13    1    3    3    0    0 -0.30481069296E+02 -0.24780636011E+02 -0.51660406960E+01  0.39621502786E+02  0.00000000000E+00 0.  1.
         13    1    3    3    0    0  0.30481069296E+02  0.24780636011E+02 -0.62394357701E+02  0.73730803464E+02  0.00000000000E+00 0. -1.
<mgrwt>
<rscale>  0 0.91018338E+02</rscale>
<asrwt>0</asrwt>
<pdfrwt beam="1">  1        1 0.35224544E-02 0.91018338E+02</pdfrwt>
<pdfrwt beam="2">  1       -1 0.13916362E-01 0.91018338E+02</pdfrwt>
<totfact> 0.83239157E+04</totfact>
</mgrwt>
</event>
<event>
 5    1  0.6112843E+000  0.9219982E+02  0.7546771E-02  0.1297610E+00
         -1   -1    0    0    0  501 -0.00000000000E+00  0.00000000000E+00  0.59224927761E+01  0.59224927761E+01  0.00000000000E+00 0.  1.
          1   -1    0    0  501    0  0.00000000000E+00 -0.00000000000E+00 -0.35883564875E+03  0.35883564875E+03  0.00000000000E+00 0. -1.
         23    2    1    2    0    0  0.00000000000E+00  0.00000000000E+00 -0.35291315597E+03  0.36475814153E+03  0.92199816432E+02 0.  0.
        -13    1    3    3    0    0 -0.32460751211E+02 -0.27165018284E+02 -0.24871090177E+03  0.25228704138E+03  0.00000000000E+00 0. -1.
         13    1    3    3    0    0  0.32460751211E+02  0.27165018284E+02 -0.10420225420E+03  0.11247110015E+03  0.00000000000E+00 0.  1.
<mgrwt>
<rscale>  0 0.92199816E+02</rscale>
<asrwt>0</asrwt>
<pdfrwt beam="2">  1        1 0.55205470E-01 0.92199816E+02</pdfrwt>
<pdfrwt beam="1">  1       -1 0.91115297E-03 0.92199816E+02</pdfrwt>
<totfact> 0.12854238E+05</totfact>
</mgrwt>
</event>
<event>
 5    1  0.6112843E+000  0.9438704E+02  0.7546771E-02  0.1292563E+00
         -2   -1    0    0    0  501 -0.00000000000E+00  0.00000000000E+00  0.29075072206E+02  0.29075072206E+02  0.00000000000E+00 0.  1.
          2   -1    0    0  501    0  0.00000000000E+00 -0.00000000000E+00 -0.76602671680E+02  0.76602671680E+02  0.00000000000E+00 0. -1.
         23    2    1    2    0    0  0.00000000000E+00  0.00000000000E+00 -0.47527599473E+02  0.10567774389E+03  0.94387037464E+02 0.  0.
        -13    1    3    3    0    0  0.20791038517E+02  0.34501697264E+02  0.37659984297E+01  0.40457596826E+02  0.00000000000E+00 0.  1.
         13    1    3    3    0    0 -0.20791038517E+02 -0.34501697264E+02 -0.51293597903E+02  0.65220147060E+02  0.00000000000E+00 0. -1.
<mgrwt>
<rscale>  0 0.94387037E+02</rscale>
<asrwt>0</asrwt>
<pdfrwt beam="2">  1        2 0.11785026E-01 0.94387037E+02</pdfrwt>
<pdfrwt beam="1">  1       -2 0.44730881E-02 0.94387037E+02</pdfrwt>
<totfact> 0.10298647E+05</totfact>
</mgrwt>
</event>
<event>
 5    1  0.6112843E+000  0.9348347E+02  0.7546771E-02  0.1294629E+00
         -1   -1    0    0    0  501 -0.00000000000E+00  0.00000000000E+00  0.18263972238E+02  0.18263972238E+02  0.00000000000E+00 0.  1.
          1   -1    0    0  501    0  0.00000000000E+00 -0.00000000000E+00 -0.11962291398E+03  0.11962291398E+03  0.00000000000E+00 0. -1.
         23    2    1    2    0    0  0.00000000000E+00  0.00000000000E+00 -0.10135894174E+03  0.13788688622E+03  0.93483465487E+02 0.  0.
        -13    1    3    3    0    0 -0.36773193270E+02 -0.28601092108E+02 -0.45063010743E+02  0.64814852852E+02  0.00000000000E+00 0. -1.
         13    1    3    3    0    0  0.36773193270E+02  0.28601092108E+02 -0.56295930998E+02  0.73072033364E+02  0.00000000000E+00 0.  1.
<mgrwt>
<rscale>  0 0.93483465E+02</rscale>
<asrwt>0</asrwt>
<pdfrwt beam="2">  1        1 0.18403525E-01 0.93483465E+02</pdfrwt>
<pdfrwt beam="1">  1       -1 0.28098419E-02 0.93483465E+02</pdfrwt>
<totfact> 0.10060839E+05</totfact>
</mgrwt>
</event>
<event>
 5    1  0.6112843E+000  0.9489467E+02  0.7546771E-02  0.1291413E+00
         -1   -1    0    0    0  501 -0.00000000000E+00  0.00000000000E+00  0.21569233583E+02  0.21569233583E+02  0.00000000000E+00 0.  1.
          1   -1    0    0  501    0  0.00000000000E+00 -0.00000000000E+00 -0.10437318079E+03  0.10437318079E+03  0.00000000000E+00 0. -1.
         23    2    1    2    0    0  0.00000000000E+00  0.00000000000E+00 -0.82803947204E+02  0.12594241437E+03  0.94894668262E+02 0.  0.
        -13    1    3    3    0    0  0.30965921076E+02 -0.35745920851E+02 -0.46471456485E+02  0.66304263765E+02  0.00000000000E+00 0. -1.
         13    1    3    3    0    0 -0.30965921076E+02  0.35745920851E+02 -0.36332490718E+02  0.59638150604E+02  0.00000000000E+00 0.  1.
<mgrwt>
<rscale>  0 0.94894668E+02</rscale>
<asrwt>0</asrwt>
<pdfrwt beam="2">  1        1 0.16057412E-01 0.94894668E+02</pdfrwt>
<pdfrwt beam="1">  1       -1 0.33183436E-02 0.94894668E+02</pdfrwt>
<totfact> 0.94319570E+04</totfact>
</mgrwt>
</event>
<event>
 5    1  0.6112843E+000  0.8991833E+02  0.7546771E-02  0.1303050E+00
          1   -1    0    0  501    0  0.00000000000E+00  0.00000000000E+00  0.15941613472E+02  0.15941613472E+02  0.00000000000E+00 0. -1.
         -1   -1    0    0    0  501 -0.00000000000E+00 -0.00000000000E+00 -0.12679561358E+03  0.12679561358E+03  0.00000000000E+00 0.  1.
         23    2    1    2    0    0  0.00000000000E+00  0.00000000000E+00 -0.11085400011E+03  0.14273722706E+03  0.89918333207E+02 0.  0.
        -13    1    3    3    0    0 -0.14584748199E+02  0.37275033977E+02 -0.87927583800E+02  0.96609539027E+02  0.00000000000E+00 0.  1.
         13    1    3    3    0    0  0.14584748199E+02 -0.37275033977E+02 -0.22926416312E+02  0.46127688029E+02  0.00000000000E+00 0. -1.
<mgrwt>
<rscale>  0 0.89918333E+02</rscale>
<asrwt>0</asrwt>
<pdfrwt beam="1">  1        1 0.24525559E-02 0.89918333E+02</pdfrwt>
<pdfrwt beam="2">  1       -1 0.19507018E-01 0.89918333E+02</pdfrwt>
<totfact> 0.80476556E+04</totfact>
</mgrwt>
</event>
<event>
 5    1  0.6112843E+000  0.8518745E+02  0.7546771E-02  0.1314943E+00
          1   -1    0    0  501    0  0.00000000000E+00  0.00000000000E+00  0.27611882299E+02  0.27611882299E+02  0.00000000000E+00 0. -1.
         -1   -1    0    0    0  501 -0.00000000000E+00 -0.00000000000E+00 -0.65704524184E+02  0.65704524184E+02  0.00000000000E+00 0.  1.
         23    2    1    2    0    0  0.00000000000E+00  0.00000000000E+00 -0.38092641885E+02  0.93316406483E+02  0.85187454200E+02 0.  0.
        -13    1    3    3    0    0  0.13420682237E+02  0.10686280093E+02 -0.61752617964E+02  0.64091318596E+02  0.00000000000E+00 0.  1.
         13    1    3    3    0    0 -0.13420682237E+02 -0.10686280093E+02  0.23659976079E+02  0.29225087887E+02  0.00000000000E+00 0. -1.
<mgrwt>
<rscale>  0 0.85187454E+02</rscale>
<asrwt>0</asrwt>
<pdfrwt beam="1">  1        1 0.42479820E-02 0.85187454E+02</pdfrwt>
<pdfrwt beam="2">  1       -1 0.10108388E-01 0.85187454E+02</pdfrwt>
<totfact> 0.10389447E+05</totfact>
</mgrwt>
</event>
<event>
 5    1  0.6112843E+000  0.9869201E+02  0.7546771E-02  0.1283071E+00
         -1   -1    0    0    0  501 -0.00000000000E+00  0.00000000000E+00  0.68274315959E+01  0.68274315959E+01  0.00000000000E+00 0.  1.
          1   -1    0    0  501    0  0.00000000000E+00 -0.00000000000E+00 -0.35665362399E+03  0.35665362399E+03  0.00000000000E+00 0. -1.
         23    2    1    2    0    0  0.00000000000E+00  0.00000000000E+00 -0.34982619240E+03  0.36348105559E+03  0.98692010239E+02 0.  0.
        -13    1    3    3    0    0  0.22554127110E+02 -0.43207457781E+02 -0.14651465023E+03  0.15440892393E+03  0.00000000000E+00 0.  1.
         13    1    3    3    0    0 -0.22554127110E+02  0.43207457781E+02 -0.20331154217E+03  0.20907213166E+03  0.00000000000E+00 0. -1.
<mgrwt>
<rscale>  0 0.98692010E+02</rscale>
<asrwt>0</asrwt>
<pdfrwt beam="2">  1        1 0.54869799E-01 0.98692010E+02</pdfrwt>
<pdfrwt beam="1">  1       -1 0.10503739E-02 0.98692010E+02</pdfrwt>
<totfact> 0.10705759E+05</totfact>
</mgrwt>
</event>
<event>
 5    1  0.6112843E+000  0.9795043E+02  0.7546771E-02  0.1284666E+00
          2   -1    0    0  501    0  0.00000000000E+00  0.00000000000E+00  0.25290687965E+03  0.25290687965E+03  0.00000000000E+00 0. -1.
         -2   -1    0    0    0  501 -0.00000000000E+00 -0.00000000000E+00 -0.94840107415E+01  0.94840107415E+01  0.00000000000E+00 0.  1.
         23    2    1    2    0    0  0.00000000000E+00  0.00000000000E+00  0.24342286891E+03  0.26239089039E+03  0.97950427527E+02 0.  0.
        -13    1    3    3    0    0 -0.11656904946E+02 -0.43720655147E+02  0.17191273853E+03  0.17776773832E+03  0.00000000000E+00 0. -1.
         13    1    3    3    0    0  0.11656904946E+02  0.43720655147E+02  0.71510130381E+02  0.84623152072E+02  0.00000000000E+00 0.  1.
<mgrwt>
<rscale>  0 0.97950428E+02</rscale>
<asrwt>0</asrwt>
<pdfrwt beam="1">  1        2 0.38908746E-01 0.97950428E+02</pdfrwt>
<pdfrwt beam="2">  1       -2 0.14590788E-02 0.97950428E+02</pdfrwt>
<totfact> 0.13902405E+05</totfact>
</mgrwt>
</event>
<event>
 5    1  0.6112843E+000  0.8576730E+02  0.7546771E-02  0.1313438E+00
          1   -1    0    0  501    0  0.00000000000E+00  0.00000000000E+00  0.27907240891E+03  0.27907240891E+03  0.00000000000E+00 0. -1.
         -1   -1    0    0    0  501 -0.00000000000E+00 -0.00000000000E+00 -0.65897142893E+01  0.65897142893E+01  0.00000000000E+00 0.  1.
         23    2    1    2    0    0  0.00000000000E+00  0.00000000000E+00  0.27248269462E+03  0.28566212320E+03  0.85767300080E+02 0.  0.
        -13    1    3    3    0    0 -0.12463649199E+02  0.40964978057E+02  0.14407758978E+03  0.15030576787E+03  0.00000000000E+00 0. -1.
         13    1    3    3    0    0  0.12463649199E+02 -0.40964978057E+02  0.12840510484E+03  0.13535635533E+03  0.00000000000E+00 0.  1.
<mgrwt>
<rscale>  0 0.85767300E+02</rscale>
<asrwt>0</asrwt>
<pdfrwt beam="1">  1        1 0.42934208E-01 0.85767300E+02</pdfrwt>
<pdfrwt beam="2">  1       -1 0.10138024E-02 0.85767300E+02</pdfrwt>
<totfact> 0.14865093E+05</totfact>
</mgrwt>
</event>
<event>
 5    1  0.6112843E+000  0.9092237E+02  0.7546771E-02  0.1300633E+00
          1   -1    0    0  501    0  0.00000000000E+00  0.00000000000E+00  0.42872284339E+02  0.42872284339E+02  0.00000000000E+00 0. -1.
         -1   -1    0    0    0  501 -0.00000000000E+00 -0.00000000000E+00 -0.48206425074E+02  0.48206425074E+02  0.00000000000E+00 0.  1.
         23    2    1    2    0    0  0.00000000000E+00  0.00000000000E+00 -0.53341407351E+01  0.91078709413E+02  0.90922374864E+02 0.  0.
        -13    1    3    3    0    0 -0.39369518292E+02 -0.15021326144E+02  0.14424516311E+02  0.44538364142E+02  0.00000000000E+00 0. -1.
         13    1    3    3    0    0  0.39369518292E+02  0.15021326144E+02 -0.19758657046E+02  0.46540345271E+02  0.00000000000E+00 0.  1.
<mgrwt>
<rscale>  0 0.90922375E+02</rscale>
<asrwt>0</asrwt>
<pdfrwt beam="1">  1        1 0.65957361E-02 0.90922375E+02</pdfrwt>
<pdfrwt beam="2">  1       -1 0.74163730E-02 0.90922375E+02</pdfrwt>
<totfact> 0.92344286E+04</totfact>
</mgrwt>
</event>
<event>
 5    1  0.6112843E+000  0.9046235E+02  0.7546771E-02  0.1301736E+00
         -2   -1    0    0    0  501 -0.00000000000E+00  0.00000000000E+00  0.12720868878E+02  0.12720868878E+02  0.00000000000E+00 0.  1.
          2   -1    0    0  501    0  0.00000000000E+00 -0.00000000000E+00 -0.16082698995E+03  0.16082698995E+03  0.00000000000E+00 0. -1.
         23    2    1    2    0    0  0.00000000000E+00  0.00000000000E+00 -0.14810612108E+03  0.17354785883E+03  0.90462346892E+02 0.  0.
        -13    1    3    3    0    0 -0.42179922544E+02  0.21803858558E+01 -0.43002592089E+02  0.60275391949E+02  0.00000000000E+00 0. -1.
         13    1    3    3    0    0  0.42179922544E+02 -0.21803858558E+01 -0.10510352899E+03  0.11327246688E+03  0.00000000000E+00 0.  1.
<mgrwt>
<rscale>  0 0.90462347E+02</rscale>
<asrwt>0</asrwt>
<pdfrwt beam="2">  1        2 0.24742612E-01 0.90462347E+02</pdfrwt>
<pdfrwt beam="1">  1       -2 0.19570569E-02 0.90462347E+02</pdfrwt>
<totfact> 0.14627146E+05</totfact>
</mgrwt>
</event>
<event>
 5    1  0.6112843E+000  0.9524039E+02  0.7546771E-02  0.1290636E+00
          1   -1    0    0  501    0  0.00000000000E+00  0.00000000000E+00  0.15802062768E+03  0.15802062768E+03  0.00000000000E+00 0. -1.
         -1   -1    0    0    0  501 -0.00000000000E+00 -0.00000000000E+00 -0.14350548992E+02  0.14350548992E+02  0.00000000000E+00 0.  1.
         23    2    1    2    0    0  0.00000000000E+00  0.00000000000E+00  0.14367007869E+03  0.17237117667E+03  0.95240385537E+02 0.  0.
        -13    1    3    3    0    0 -0.10081202781E+02 -0.23236581094E+02 -0.11474910861E+01  0.25355198406E+02  0.00000000000E+00 0.  1.
         13    1    3    3    0    0  0.10081202781E+02  0.23236581094E+02  0.14481756977E+03  0.14701597826E+03  0.00000000000E+00 0. -1.
<mgrwt>
<rscale>  0 0.95240386E+02</rscale>
<asrwt>0</asrwt>
<pdfrwt beam="1">  1        1 0.24310865E-01 0.95240386E+02</pdfrwt>
<pdfrwt beam="2">  1       -1 0.22077769E-02 0.95240386E+02</pdfrwt>
<totfact> 0.10062781E+05</totfact>
</mgrwt>
</event>
<event>
 5    1  0.6112843E+000  0.9048047E+02  0.7546771E-02  0.1301692E+00
          1   -1    0    0  501    0  0.00000000000E+00  0.00000000000E+00  0.44396597658E+02  0.44396597658E+02  0.00000000000E+00 0. -1.
         -1   -1    0    0    0  501 -0.00000000000E+00 -0.00000000000E+00 -0.46099904986E+02  0.46099904986E+02  0.00000000000E+00 0.  1.
         23    2    1    2    0    0  0.00000000000E+00  0.00000000000E+00 -0.17033073277E+01  0.90496502643E+02  0.90480471566E+02 0.  0.
        -13    1    3    3    0    0 -0.16179892304E+02  0.16495638539E+02  0.38049760669E+02  0.44516056572E+02  0.00000000000E+00 0. -1.
         13    1    3    3    0    0  0.16179892304E+02 -0.16495638539E+02 -0.39753067996E+02  0.45980446071E+02  0.00000000000E+00 0.  1.
<mgrwt>
<rscale>  0 0.90480472E+02</rscale>
<asrwt>0</asrwt>
<pdfrwt beam="1">  1        1 0.68302458E-02 0.90480472E+02</pdfrwt>
<pdfrwt beam="2">  1       -1 0.70922931E-02 0.90480472E+02</pdfrwt>
<totfact> 0.94108053E+04</totfact>
</mgrwt>
</event>
<event>
 5    1  0.6112843E+000  0.9267351E+02  0.7546771E-02  0.1296504E+00
         -2   -1    0    0    0  501 -0.00000000000E+00  0.00000000000E+00  0.24927918562E+02  0.24927918562E+02  0.00000000000E+00 0.  1.
          2   -1    0    0  501    0  0.00000000000E+00 -0.00000000000E+00 -0.86132144089E+02  0.86132144089E+02  0.00000000000E+00 0. -1.
         23    2    1    2    0    0  0.00000000000E+00  0.00000000000E+00 -0.61204225527E+02  0.11106006265E+03  0.92673514521E+02 0.  0.
        -13    1    3    3    0    0  0.28830638715E+02 -0.11885067241E+02  0.10470625803E+02  0.32895205680E+02  0.00000000000E+00 0.  1.
         13    1    3    3    0    0 -0.28830638715E+02  0.11885067241E+02 -0.71674851330E+02  0.78164856971E+02  0.00000000000E+00 0. -1.
<mgrwt>
<rscale>  0 0.92673515E+02</rscale>
<asrwt>0</asrwt>
<pdfrwt beam="2">  1        2 0.13251099E-01 0.92673515E+02</pdfrwt>
<pdfrwt beam="1">  1       -2 0.38350644E-02 0.92673515E+02</pdfrwt>
<totfact> 0.11214817E+05</totfact>
</mgrwt>
</event>
<event>
 5    1  0.6112843E+000  0.8984417E+02  0.7546771E-02  0.1303230E+00
         -1   -1    0    0    0  501 -0.00000000000E+00  0.00000000000E+00  0.89366575041E+01  0.89366575041E+01  0.00000000000E+00 0.  1.
          1   -1    0    0  501    0  0.00000000000E+00 -0.00000000000E+00 -0.22581078450E+03  0.22581078450E+03  0.00000000000E+00 0. -1.
         23    2    1    2    0    0  0.00000000000E+00  0.00000000000E+00 -0.21687412700E+03  0.23474744200E+03  0.89844168242E+02 0.  0.
        -13    1    3    3    0    0 -0.17488361037E+02 -0.40480026721E+02 -0.86033932217E+02  0.96676330236E+02  0.00000000000E+00 0.  1.
         13    1    3    3    0    0  0.17488361037E+02  0.40480026721E+02 -0.13084019478E+03  0.13807111177E+03  0.00000000000E+00 0. -1.
<mgrwt>
<rscale>  0 0.89844168E+02</rscale>
<asrwt>0</asrwt>
<pdfrwt beam="2">  1        1 0.34740121E-01 0.89844168E+02</pdfrwt>
<pdfrwt beam="1">  1       -1 0.13748704E-02 0.89844168E+02</pdfrwt>
<totfact> 0.12610463E+05</totfact>
</mgrwt>
</event>
<event>
 5    1  0.6112843E+000  0.9197194E+02  0.7546771E-02  0.1298145E+00
         -1   -1    0    0    0  501 -0.00000000000E+00  0.00000000000E+00  0.16412769885E+02  0.16412769885E+02  0.00000000000E+00 0.  1.
          1   -1    0    0  501    0  0.00000000000E+00 -0.00000000000E+00 -0.12884535939E+03  0.12884535939E+03  0.00000000000E+00 0. -1.
         23    2    1    2    0    0  0.00000000000E+00  0.00000000000E+00 -0.11243258950E+03  0.14525812927E+03  0.91971935597E+02 0.  0.
        -13    1    3    3    0    0 -0.36702862431E+01  0.26315844302E+02 -0.11549471533E+03  0.11851170377E+03  0.00000000000E+00 0. -1.
         13    1    3    3    0    0  0.36702862431E+01 -0.26315844302E+02  0.30621258250E+01  0.26746425500E+02  0.00000000000E+00 0.  1.
<mgrwt>
<rscale>  0 0.91971936E+02</rscale>
<asrwt>0</asrwt>
<pdfrwt beam="2">  1        1 0.19822363E-01 0.91971936E+02</pdfrwt>
<pdfrwt beam="1">  1       -1 0.25250416E-02 0.91971936E+02</pdfrwt>
<totfact> 0.10655602E+05</totfact>
</mgrwt>
</event>
<event>
 5    1  0.6112843E+000  0.8985859E+02  0.7546771E-02  0.1303194E+00
         -3   -1    0    0    0  501 -0.00000000000E+00  0.00000000000E+00  0.12505477291E+02  0.12505477291E+02  0.00000000000E+00 0.  1.
          3   -1    0    0  501    0  0.00000000000E+00 -0.00000000000E+00 -0.16142060720E+03  0.16142060720E+03  0.00000000000E+00 0. -1.
         23    2    1    2    0    0  0.00000000000E+00  0.00000000000E+00 -0.14891512991E+03  0.17392608449E+03  0.89858594194E+02 0.  0.
        -13    1    3    3    0    0  0.21369326352E+02  0.21426375237E+02 -0.13873728408E+03  0.14199919597E+03  0.00000000000E+00 0. -1.
         13    1    3    3    0    0 -0.21369326352E+02 -0.21426375237E+02 -0.10177845832E+02  0.31926888516E+02  0.00000000000E+00 0.  1.
<mgrwt>
<rscale>  0 0.89858594E+02</rscale>
<asrwt>0</asrwt>
<pdfrwt beam="2">  1        3 0.24833937E-01 0.89858594E+02</pdfrwt>
<pdfrwt beam="1">  1       -3 0.19239198E-02 0.89858594E+02</pdfrwt>
<totfact> 0.31102148E+04</totfact>
</mgrwt>
</event>
<event>
 5    1  0.6112843E+000  0.9192066E+02  0.7546771E-02  0.1298266E+00
          1   -1    0    0  501    0  0.00000000000E+00  0.00000000000E+00  0.13159375850E+03  0.13159375850E+03  0.00000000000E+00 0. -1.
         -1   -1    0    0    0  501 -0.00000000000E+00 -0.00000000000E+00 -0.16052068664E+02  0.16052068664E+02  0.00000000000E+00 0.  1.
         23    2    1    2    0    0  0.00000000000E+00  0.00000000000E+00  0.11554168983E+03  0.14764582716E+03  0.91920662468E+02 0.  0.
        -13    1    3    3    0    0 -0.20309225541E+02  0.55251027197E+01  0.12339793032E+03  0.12518003279E+03  0.00000000000E+00 0. -1.
         13    1    3    3    0    0  0.20309225541E+02 -0.55251027197E+01 -0.78562404863E+01  0.22465794371E+02  0.00000000000E+00 0.  1.
<mgrwt>
<rscale>  0 0.91920662E+02</rscale>
<asrwt>0</asrwt>
<pdfrwt beam="1">  1        1 0.20245193E-01 0.91920662E+02</pdfrwt>
<pdfrwt beam="2">  1       -1 0.24695491E-02 0.91920662E+02</pdfrwt>
<totfact> 0.10712007E+05</totfact>
</mgrwt>
</event>
<event>
 5    1  0.6112843E+000  0.9187757E+02  0.7546771E-02  0.1298368E+00
          2   -1    0    0  501    0  0.00000000000E+00  0.00000000000E+00  0.12318961702E+03  0.12318961702E+03  0.00000000000E+00 0.  1.
         -2   -1    0    0    0  501 -0.00000000000E+00 -0.00000000000E+00 -0.17131087287E+02  0.17131087287E+02  0.00000000000E+00 0. -1.
         23    2    1    2    0    0  0.00000000000E+00  0.00000000000E+00  0.10605852973E+03  0.14032070431E+03  0.91877572498E+02 0.  0.
        -13    1    3    3    0    0  0.38950110744E+02  0.59631231098E+01  0.89096544796E+02  0.97421066812E+02  0.00000000000E+00 0.  1.
         13    1    3    3    0    0 -0.38950110744E+02 -0.59631231098E+01  0.16961984936E+02  0.42899637494E+02  0.00000000000E+00 0. -1.
<mgrwt>
<rscale>  0 0.91877572E+02</rscale>
<asrwt>0</asrwt>
<pdfrwt beam="1">  1        2 0.18952248E-01 0.91877572E+02</pdfrwt>
<pdfrwt beam="2">  1       -2 0.26355520E-02 0.91877572E+02</pdfrwt>
<totfact> 0.12825071E+05</totfact>
</mgrwt>
</event>
<event>
 5    1  0.6112843E+000  0.9385832E+02  0.7546771E-02  0.1293768E+00
          2   -1    0    0  501    0  0.00000000000E+00  0.00000000000E+00  0.35217414306E+03  0.35217414306E+03  0.00000000000E+00 0. -1.
         -2   -1    0    0    0  501 -0.00000000000E+00 -0.00000000000E+00 -0.62535714248E+01  0.62535714248E+01  0.00000000000E+00 0.  1.
         23    2    1    2    0    0  0.00000000000E+00  0.00000000000E+00  0.34592057163E+03  0.35842771448E+03  0.93858322115E+02 0.  0.
        -13    1    3    3    0    0  0.24267358985E+02  0.37823109396E+02  0.22459964457E+03  0.22905128827E+03  0.00000000000E+00 0. -1.
         13    1    3    3    0    0 -0.24267358985E+02 -0.37823109396E+02  0.12132092706E+03  0.12937642621E+03  0.00000000000E+00 0.  1.
<mgrwt>
<rscale>  0 0.93858322E+02</rscale>
<asrwt>0</asrwt>
<pdfrwt beam="1">  1        2 0.54180622E-01 0.93858322E+02</pdfrwt>
<pdfrwt beam="2">  1       -2 0.96208819E-03 0.93858322E+02</pdfrwt>
<totfact> 0.17645257E+05</totfact>
</mgrwt>
</event>
<event>
 5    1  0.6112843E+000  0.9072274E+02  0.7546771E-02  0.1301111E+00
         -1   -1    0    0    0  501 -0.00000000000E+00  0.00000000000E+00  0.89394246503E+02  0.89394246503E+02  0.00000000000E+00 0.  1.
          1   -1    0    0  501    0  0.00000000000E+00 -0.00000000000E+00 -0.23017743512E+02  0.23017743512E+02  0.00000000000E+00 0. -1.
         23    2    1    2    0    0  0.00000000000E+00  0.00000000000E+00  0.66376502991E+02  0.11241199002E+03  0.90722738880E+02 0.  0.
        -13    1    3    3    0    0 -0.93895155889E-01  0.36562691921E+02 -0.78336897764E-01  0.36562896405E+02  0.00000000000E+00 0. -1.
         13    1    3    3    0    0  0.93895155889E-01 -0.36562691921E+02  0.66454839889E+02  0.75849093611E+02  0.00000000000E+00 0.  1.
<mgrwt>
<rscale>  0 0.90722739E+02</rscale>
<asrwt>0</asrwt>
<pdfrwt beam="2">  1        1 0.35411914E-02 0.90722739E+02</pdfrwt>
<pdfrwt beam="1">  1       -1 0.13752961E-01 0.90722739E+02</pdfrwt>
<totfact> 0.84112388E+04</totfact>
</mgrwt>
</event>
<event>
 5    1  0.6112843E+000  0.9039727E+02  0.7546771E-02  0.1301892E+00
          1   -1    0    0  501    0  0.00000000000E+00  0.00000000000E+00  0.19330813948E+02  0.19330813948E+02  0.00000000000E+00 0. -1.
         -1   -1    0    0    0  501 -0.00000000000E+00 -0.00000000000E+00 -0.10568186685E+03  0.10568186685E+03  0.00000000000E+00 0.  1.
         23    2    1    2    0    0  0.00000000000E+00  0.00000000000E+00 -0.86351052906E+02  0.12501268080E+03  0.90397267787E+02 0.  0.
        -13    1    3    3    0    0 -0.14904833326E+02 -0.38931175203E+02 -0.67332270913E+02  0.79192330219E+02  0.00000000000E+00 0. -1.
         13    1    3    3    0    0  0.14904833326E+02  0.38931175203E+02 -0.19018781993E+02  0.45820350584E+02  0.00000000000E+00 0.  1.
<mgrwt>
<rscale>  0 0.90397268E+02</rscale>
<asrwt>0</asrwt>
<pdfrwt beam="1">  1        1 0.29739714E-02 0.90397268E+02</pdfrwt>
<pdfrwt beam="2">  1       -1 0.16258749E-01 0.90397268E+02</pdfrwt>
<totfact> 0.82328806E+04</totfact>
</mgrwt>
</event>
<event>
 5    1  0.6112843E+000  0.8908941E+02  0.7546771E-02  0.1305072E+00
         -3   -1    0    0    0  501 -0.00000000000E+00  0.00000000000E+00  0.30397065204E+02  0.30397065204E+02  0.00000000000E+00 0.  1.
          3   -1    0    0  501    0  0.00000000000E+00 -0.00000000000E+00 -0.65277052619E+02  0.65277052619E+02  0.00000000000E+00 0. -1.
         23    2    1    2    0    0  0.00000000000E+00  0.00000000000E+00 -0.34879987415E+02  0.95674117823E+02  0.89089411824E+02 0.  0.
        -13    1    3    3    0    0 -0.76129719961E+01 -0.43755307465E+02 -0.21120635516E+02  0.49178913353E+02  0.00000000000E+00 0. -1.
         13    1    3    3    0    0  0.76129719961E+01  0.43755307465E+02 -0.13759351899E+02  0.46495204470E+02  0.00000000000E+00 0.  1.
<mgrwt>
<rscale>  0 0.89089412E+02</rscale>
<asrwt>0</asrwt>
<pdfrwt beam="2">  1        3 0.10042623E-01 0.89089412E+02</pdfrwt>
<pdfrwt beam="1">  1       -3 0.46764717E-02 0.89089412E+02</pdfrwt>
<totfact> 0.37266364E+04</totfact>
</mgrwt>
</event>
<event>
 5    1  0.6112843E+000  0.9009454E+02  0.7546771E-02  0.1302623E+00
          3   -1    0    0  501    0  0.00000000000E+00  0.00000000000E+00  0.30993414019E+03  0.30993414019E+03  0.00000000000E+00 0. -1.
         -3   -1    0    0    0  501 -0.00000000000E+00 -0.00000000000E+00 -0.65473793241E+01  0.65473793241E+01  0.00000000000E+00 0.  1.
         23    2    1    2    0    0  0.00000000000E+00  0.00000000000E+00  0.30338676087E+03  0.31648151951E+03  0.90094536600E+02 0.  0.
        -13    1    3    3    0    0  0.21646071471E+02  0.38872286595E+02  0.12694159734E+03  0.13451310795E+03  0.00000000000E+00 0. -1.
         13    1    3    3    0    0 -0.21646071471E+02 -0.38872286595E+02  0.17644516353E+03  0.18196841157E+03  0.00000000000E+00 0.  1.
<mgrwt>
<rscale>  0 0.90094537E+02</rscale>
<asrwt>0</asrwt>
<pdfrwt beam="1">  1        3 0.47682164E-01 0.90094537E+02</pdfrwt>
<pdfrwt beam="2">  1       -3 0.10072894E-02 0.90094537E+02</pdfrwt>
<totfact> 0.24167804E+04</totfact>
</mgrwt>
</event>
<event>
 5    1  0.6112843E+000  0.9143075E+02  0.7546771E-02  0.1299423E+00
         -1   -1    0    0    0  501 -0.00000000000E+00  0.00000000000E+00  0.10369920219E+02  0.10369920219E+02  0.00000000000E+00 0.  1.
          1   -1    0    0  501    0  0.00000000000E+00 -0.00000000000E+00 -0.20153439542E+03  0.20153439542E+03  0.00000000000E+00 0. -1.
         23    2    1    2    0    0  0.00000000000E+00  0.00000000000E+00 -0.19116447520E+03  0.21190431564E+03  0.91430751979E+02 0.  0.
        -13    1    3    3    0    0 -0.42300184569E+02 -0.16345110009E+02 -0.82182429190E+02  0.93863837037E+02  0.00000000000E+00 0.  1.
         13    1    3    3    0    0  0.42300184569E+02  0.16345110009E+02 -0.10898204601E+03  0.11804047860E+03  0.00000000000E+00 0. -1.
<mgrwt>
<rscale>  0 0.91430752E+02</rscale>
<asrwt>0</asrwt>
<pdfrwt beam="2">  1        1 0.31005296E-01 0.91430752E+02</pdfrwt>
<pdfrwt beam="1">  1       -1 0.15953721E-02 0.91430752E+02</pdfrwt>
<totfact> 0.11769990E+05</totfact>
</mgrwt>
</event>
<event>
 5    1  0.6112843E+000  0.7692919E+02  0.7546771E-02  0.1337999E+00
          1   -1    0    0  501    0  0.00000000000E+00  0.00000000000E+00  0.30662428682E+02  0.30662428682E+02  0.00000000000E+00 0. -1.
         -1   -1    0    0    0  501 -0.00000000000E+00 -0.00000000000E+00 -0.48252046088E+02  0.48252046088E+02  0.00000000000E+00 0.  1.
         23    2    1    2    0    0  0.00000000000E+00  0.00000000000E+00 -0.17589617406E+02  0.78914474770E+02  0.76929186189E+02 0.  0.
        -13    1    3    3    0    0  0.10762869309E+02 -0.36639798016E+02 -0.40704406504E+01  0.38404200832E+02  0.00000000000E+00 0. -1.
         13    1    3    3    0    0 -0.10762869309E+02  0.36639798016E+02 -0.13519176756E+02  0.40510273939E+02  0.00000000000E+00 0.  1.
<mgrwt>
<rscale>  0 0.76929186E+02</rscale>
<asrwt>0</asrwt>
<pdfrwt beam="1">  1        1 0.47172967E-02 0.76929186E+02</pdfrwt>
<pdfrwt beam="2">  1       -1 0.74233917E-02 0.76929186E+02</pdfrwt>
<totfact> 0.14048884E+05</totfact>
</mgrwt>
</event>
<event>
 5    1  0.6112843E+000  0.9128318E+02  0.7546771E-02  0.1299774E+00
          3   -1    0    0  501    0  0.00000000000E+00  0.00000000000E+00  0.25232435459E+02  0.25232435459E+02  0.00000000000E+00 0. -1.
         -3   -1    0    0    0  501 -0.00000000000E+00 -0.00000000000E+00 -0.82558602551E+02  0.82558602551E+02  0.00000000000E+00 0.  1.
         23    2    1    2    0    0  0.00000000000E+00  0.00000000000E+00 -0.57326167092E+02  0.10779103801E+03  0.91283177212E+02 0.  0.
        -13    1    3    3    0    0 -0.28105438522E+02 -0.35904813482E+02 -0.26276933199E+02  0.52626500207E+02  0.00000000000E+00 0. -1.
         13    1    3    3    0    0  0.28105438522E+02  0.35904813482E+02 -0.31049233893E+02  0.55164537803E+02  0.00000000000E+00 0.  1.
<mgrwt>
<rscale>  0 0.91283177E+02</rscale>
<asrwt>0</asrwt>
<pdfrwt beam="1">  1        3 0.38819131E-02 0.91283177E+02</pdfrwt>
<pdfrwt beam="2">  1       -3 0.12701324E-01 0.91283177E+02</pdfrwt>
<totfact> 0.33996349E+04</totfact>
</mgrwt>
</event>
<event>
 5    1  0.6112843E+000  0.9100413E+02  0.7546771E-02  0.1300438E+00
          4   -1    0    0  501    0  0.00000000000E+00  0.00000000000E+00  0.51019523992E+02  0.51019523992E+02  0.00000000000E+00 0. -1.
         -4   -1    0    0    0  501 -0.00000000000E+00 -0.00000000000E+00 -0.40581283689E+02  0.40581283689E+02  0.00000000000E+00 0.  1.
         23    2    1    2    0    0  0.00000000000E+00  0.00000000000E+00  0.10438240303E+02  0.91600807681E+02  0.91004126869E+02 0.  0.
        -13    1    3    3    0    0  0.11271457415E+01  0.45465563568E+02  0.66602367568E+01  0.45964624242E+02  0.00000000000E+00 0. -1.
         13    1    3    3    0    0 -0.11271457415E+01 -0.45465563568E+02  0.37780035457E+01  0.45636183439E+02  0.00000000000E+00 0.  1.
<mgrwt>
<rscale>  0 0.91004127E+02</rscale>
<asrwt>0</asrwt>
<pdfrwt beam="1">  1        4 0.78491576E-02 0.91004127E+02</pdfrwt>
<pdfrwt beam="2">  1       -4 0.62432744E-02 0.91004127E+02</pdfrwt>
<totfact> 0.27128662E+04</totfact>
</mgrwt>
</event>
<event>
 5    1  0.6112843E+000  0.9043244E+02  0.7546771E-02  0.1301808E+00
         -2   -1    0    0    0  501 -0.00000000000E+00  0.00000000000E+00  0.12247768226E+03  0.12247768226E+03  0.00000000000E+00 0.  1.
          2   -1    0    0  501    0  0.00000000000E+00 -0.00000000000E+00 -0.16692891938E+02  0.16692891938E+02  0.00000000000E+00 0. -1.
         23    2    1    2    0    0  0.00000000000E+00  0.00000000000E+00  0.10578479032E+03  0.13917057419E+03  0.90432443618E+02 0.  0.
        -13    1    3    3    0    0 -0.14102553649E+02 -0.37728231801E+02  0.21270714228E+02  0.45549366384E+02  0.00000000000E+00 0. -1.
         13    1    3    3    0    0  0.14102553649E+02  0.37728231801E+02  0.84514076090E+02  0.93621207809E+02  0.00000000000E+00 0.  1.
<mgrwt>
<rscale>  0 0.90432444E+02</rscale>
<asrwt>0</asrwt>
<pdfrwt beam="2">  1        2 0.25681373E-02 0.90432444E+02</pdfrwt>
<pdfrwt beam="1">  1       -2 0.18842720E-01 0.90432444E+02</pdfrwt>
<totfact> 0.76474820E+04</totfact>
</mgrwt>
</event>
<event>
 5    1  0.6112843E+000  0.9600965E+02  0.7546771E-02  0.1288918E+00
         -1   -1    0    0    0  501 -0.00000000000E+00  0.00000000000E+00  0.50894838942E+02  0.50894838942E+02  0.00000000000E+00 0.  1.
          1   -1    0    0  501    0  0.00000000000E+00 -0.00000000000E+00 -0.45278921195E+02  0.45278921195E+02  0.00000000000E+00 0. -1.
         23    2    1    2    0    0  0.00000000000E+00  0.00000000000E+00  0.56159177475E+01  0.96173760137E+02  0.96009653716E+02 0.  0.
        -13    1    3    3    0    0  0.19627318888E+01 -0.43049354852E+02 -0.18379178054E+02  0.46849690027E+02  0.00000000000E+00 0. -1.
         13    1    3    3    0    0 -0.19627318888E+01  0.43049354852E+02  0.23995095802E+02  0.49324070110E+02  0.00000000000E+00 0.  1.
<mgrwt>
<rscale>  0 0.96009654E+02</rscale>
<asrwt>0</asrwt>
<pdfrwt beam="2">  1        1 0.69659879E-02 0.96009654E+02</pdfrwt>
<pdfrwt beam="1">  1       -1 0.78299752E-02 0.96009654E+02</pdfrwt>
<totfact> 0.79847813E+04</totfact>
</mgrwt>
</event>
<event>
 5    1  0.6112843E+000  0.9758134E+02  0.7546771E-02  0.1285466E+00
         -1   -1    0    0    0  501 -0.00000000000E+00  0.00000000000E+00  0.20346628201E+02  0.20346628201E+02  0.00000000000E+00 0.  1.
          1   -1    0    0  501    0  0.00000000000E+00 -0.00000000000E+00 -0.11699872187E+03  0.11699872187E+03  0.00000000000E+00 0. -1.
         23    2    1    2    0    0  0.00000000000E+00  0.00000000000E+00 -0.96652093671E+02  0.13734535007E+03  0.97581340303E+02 0.  0.
        -13    1    3    3    0    0  0.43523082763E+02  0.55903330947E+01 -0.78349588200E+02  0.89800715634E+02  0.00000000000E+00 0.  1.
         13    1    3    3    0    0 -0.43523082763E+02 -0.55903330947E+01 -0.18302505471E+02  0.47544634438E+02  0.00000000000E+00 0. -1.
<mgrwt>
<rscale>  0 0.97581340E+02</rscale>
<asrwt>0</asrwt>
<pdfrwt beam="2">  1        1 0.17999803E-01 0.97581340E+02</pdfrwt>
<pdfrwt beam="1">  1       -1 0.31302505E-02 0.97581340E+02</pdfrwt>
<totfact> 0.89135150E+04</totfact>
</mgrwt>
</event>
<event>
 5    1  0.6112843E+000  0.9282082E+02  0.7546771E-02  0.1296161E+00
          1   -1    0    0  501    0  0.00000000000E+00  0.00000000000E+00  0.88382018961E+02  0.88382018961E+02  0.00000000000E+00 0. -1.
         -1   -1    0    0    0  501 -0.00000000000E+00 -0.00000000000E+00 -0.24370637173E+02  0.24370637173E+02  0.00000000000E+00 0.  1.
         23    2    1    2    0    0  0.00000000000E+00  0.00000000000E+00  0.64011381788E+02  0.11275265613E+03  0.92820819146E+02 0.  0.
        -13    1    3    3    0    0 -0.31021433151E+02  0.12211785078E+02 -0.72147960692E+01  0.34110266664E+02  0.00000000000E+00 0.  1.
         13    1    3    3    0    0  0.31021433151E+02 -0.12211785078E+02  0.71226177857E+02  0.78642389471E+02  0.00000000000E+00 0. -1.
<mgrwt>
<rscale>  0 0.92820819E+02</rscale>
<asrwt>0</asrwt>
<pdfrwt beam="1">  1        1 0.13597234E-01 0.92820819E+02</pdfrwt>
<pdfrwt beam="2">  1       -1 0.37493288E-02 0.92820819E+02</pdfrwt>
<totfact> 0.97464928E+04</totfact>
</mgrwt>
</event>
<event>
 5    1  0.6112843E+000  0.9208419E+02  0.7546771E-02  0.1297882E+00
         -1   -1    0    0    0  501 -0.00000000000E+00  0.00000000000E+00  0.56926158270E+02  0.56926158270E+02  0.00000000000E+00 0.  1.
          1   -1    0    0  501    0  0.00000000000E+00 -0.00000000000E+00 -0.37239024786E+02  0.37239024786E+02  0.00000000000E+00 0. -1.
         23    2    1    2    0    0  0.00000000000E+00  0.00000000000E+00  0.19687133483E+02  0.94165183056E+02  0.92084192320E+02 0.  0.
        -13    1    3    3    0    0 -0.37020824618E+02 -0.22546068188E+02 -0.60316980017E+01  0.43763546782E+02  0.00000000000E+00 0. -1.
         13    1    3    3    0    0  0.37020824618E+02  0.22546068188E+02  0.25718831485E+02  0.50401636274E+02  0.00000000000E+00 0.  1.
<mgrwt>
<rscale>  0 0.92084192E+02</rscale>
<asrwt>0</asrwt>
<pdfrwt beam="2">  1        1 0.57290807E-02 0.92084192E+02</pdfrwt>
<pdfrwt beam="1">  1       -1 0.87578705E-02 0.92084192E+02</pdfrwt>
<totfact> 0.87191355E+04</totfact>
</mgrwt>
</event>
<event>
 5    1  0.6112843E+000  0.8984533E+02  0.7546771E-02  0.1303227E+00
         -1   -1    0    0    0  501 -0.00000000000E+00  0.00000000000E+00  0.56083613904E+02  0.56083613904E+02  0.00000000000E+00 0.  1.
          1   -1    0    0  501    0  0.00000000000E+00 -0.00000000000E+00 -0.35982804867E+02  0.35982804867E+02  0.00000000000E+00 0. -1.
         23    2    1    2    0    0  0.00000000000E+00  0.00000000000E+00  0.20100809037E+02  0.92066418771E+02  0.89845327877E+02 0.  0.
        -13    1    3    3    0    0 -0.22002496474E+00 -0.38519828460E+02 -0.13634185995E+02  0.40862166160E+02  0.00000000000E+00 0. -1.
         13    1    3    3    0    0  0.22002496474E+00  0.38519828460E+02  0.33734995033E+02  0.51204252611E+02  0.00000000000E+00 0.  1.
<mgrwt>
<rscale>  0 0.89845328E+02</rscale>
<asrwt>0</asrwt>
<pdfrwt beam="2">  1        1 0.55358161E-02 0.89845328E+02</pdfrwt>
<pdfrwt beam="1">  1       -1 0.86282483E-02 0.89845328E+02</pdfrwt>
<totfact> 0.93004605E+04</totfact>
</mgrwt>
</event>
<event>
 5    1  0.6112843E+000  0.9155977E+02  0.7546771E-02  0.1299118E+00
          2   -1    0    0  501    0  0.00000000000E+00  0.00000000000E+00  0.83565746781E+02  0.83565746781E+02  0.00000000000E+00 0. -1.
         -2   -1    0    0    0  501 -0.00000000000E+00 -0.00000000000E+00 -0.25079628778E+02  0.25079628778E+02  0.00000000000E+00 0.  1.
         23    2    1    2    0    0  0.00000000000E+00  0.00000000000E+00  0.58486118003E+02  0.10864537556E+03  0.91559770813E+02 0.  0.
        -13    1    3    3    0    0  0.10236570519E+02  0.89738146062E+01 -0.22622364794E+02  0.26402426279E+02  0.00000000000E+00 0.  1.
         13    1    3    3    0    0 -0.10236570519E+02 -0.89738146062E+01  0.81108482797E+02  0.82242949279E+02  0.00000000000E+00 0. -1.
<mgrwt>
<rscale>  0 0.91559771E+02</rscale>
<asrwt>0</asrwt>
<pdfrwt beam="1">  1        2 0.12856269E-01 0.91559771E+02</pdfrwt>
<pdfrwt beam="2">  1       -2 0.38584045E-02 0.91559771E+02</pdfrwt>
<totfact> 0.11495973E+05</totfact>
</mgrwt>
</event>
<event>
 5    1  0.6112843E+000  0.9126691E+02  0.7546771E-02  0.1299812E+00
          4   -1    0    0  501    0  0.00000000000E+00  0.00000000000E+00  0.10921593296E+02  0.10921593296E+02  0.00000000000E+00 0.  1.
         -4   -1    0    0    0  501 -0.00000000000E+00 -0.00000000000E+00 -0.19066928307E+03  0.19066928307E+03  0.00000000000E+00 0. -1.
         23    2    1    2    0    0  0.00000000000E+00  0.00000000000E+00 -0.17974768977E+03  0.20159087636E+03  0.91266913255E+02 0.  0.
        -13    1    3    3    0    0 -0.35438855991E+01 -0.28680475877E+02 -0.11865671933E+02  0.31239766198E+02  0.00000000000E+00 0.  1.
         13    1    3    3    0    0  0.35438855991E+01  0.28680475877E+02 -0.16788201784E+03  0.17035111017E+03  0.00000000000E+00 0. -1.
<mgrwt>
<rscale>  0 0.91266913E+02</rscale>
<asrwt>0</asrwt>
<pdfrwt beam="1">  1        4 0.16802454E-02 0.91266913E+02</pdfrwt>
<pdfrwt beam="2">  1       -4 0.29333732E-01 0.91266913E+02</pdfrwt>
<totfact> 0.21263539E+04</totfact>
</mgrwt>
</event>
<event>
 5    1  0.6112843E+000  0.9237987E+02  0.7546771E-02  0.1297189E+00
          3   -1    0    0  501    0  0.00000000000E+00  0.00000000000E+00  0.57822632501E+02  0.57822632501E+02  0.00000000000E+00 0.  1.
         -3   -1    0    0    0  501 -0.00000000000E+00 -0.00000000000E+00 -0.36897488998E+02  0.36897488998E+02  0.00000000000E+00 0. -1.
         23    2    1    2    0    0  0.00000000000E+00  0.00000000000E+00  0.20925143503E+02  0.94720121499E+02  0.92379866780E+02 0.  0.
        -13    1    3    3    0    0  0.44610617529E+02  0.11101268981E+02  0.15066827888E+02  0.48377212321E+02  0.00000000000E+00 0.  1.
         13    1    3    3    0    0 -0.44610617529E+02 -0.11101268981E+02  0.58583156154E+01  0.46342909179E+02  0.00000000000E+00 0. -1.
<mgrwt>
<rscale>  0 0.92379867E+02</rscale>
<asrwt>0</asrwt>
<pdfrwt beam="1">  1        3 0.88957896E-02 0.92379867E+02</pdfrwt>
<pdfrwt beam="2">  1       -3 0.56765368E-02 0.92379867E+02</pdfrwt>
<totfact> 0.33835526E+04</totfact>
</mgrwt>
</event>
<event>
 5    1  0.6112843E+000  0.9339865E+02  0.7546771E-02  0.1294824E+00
         -2   -1    0    0    0  501 -0.00000000000E+00  0.00000000000E+00  0.17145278763E+02  0.17145278763E+02  0.00000000000E+00 0.  1.
          2   -1    0    0  501    0  0.00000000000E+00 -0.00000000000E+00 -0.12719694623E+03  0.12719694623E+03  0.00000000000E+00 0. -1.
         23    2    1    2    0    0  0.00000000000E+00  0.00000000000E+00 -0.11005166746E+03  0.14434222499E+03  0.93398653115E+02 0.  0.
        -13    1    3    3    0    0 -0.31217829384E+02  0.32364061767E+02 -0.35548249383E+02  0.57320706553E+02  0.00000000000E+00 0.  1.
         13    1    3    3    0    0  0.31217829384E+02 -0.32364061767E+02 -0.74503418082E+02  0.87021518439E+02  0.00000000000E+00 0. -1.
<mgrwt>
<rscale>  0 0.93398653E+02</rscale>
<asrwt>0</asrwt>
<pdfrwt beam="2">  1        2 0.19568761E-01 0.93398653E+02</pdfrwt>
<pdfrwt beam="1">  1       -2 0.26377353E-02 0.93398653E+02</pdfrwt>
<totfact> 0.12389959E+05</totfact>
</mgrwt>
</event>
<event>
 5    1  0.6112843E+000  0.1007272E+03  0.7546771E-02  0.1278774E+00
          1   -1    0    0  501    0  0.00000000000E+00  0.00000000000E+00  0.43174089553E+03  0.43174089553E+03  0.00000000000E+00 0.  1.
         -1   -1    0    0    0  501 -0.00000000000E+00 -0.00000000000E+00 -0.58750344838E+01  0.58750344838E+01  0.00000000000E+00 0. -1.
         23    2    1    2    0    0  0.00000000000E+00  0.00000000000E+00  0.42586586105E+03  0.43761593001E+03  0.10072720882E+03 0.  0.
        -13    1    3    3    0    0  0.34557833735E+02  0.32710708683E+02  0.28461935155E+03  0.28856959232E+03  0.00000000000E+00 0.  1.
         13    1    3    3    0    0 -0.34557833735E+02 -0.32710708683E+02  0.14124650949E+03  0.14904633769E+03  0.00000000000E+00 0. -1.
<mgrwt>
<rscale>  0 0.10072721E+03</rscale>
<asrwt>0</asrwt>
<pdfrwt beam="1">  1        1 0.66421651E-01 0.10072721E+03</pdfrwt>
<pdfrwt beam="2">  1       -1 0.90385180E-03 0.10072721E+03</pdfrwt>
<totfact> 0.10466887E+05</totfact>
</mgrwt>
</event>
<event>
 5    1  0.6112843E+000  0.8568419E+02  0.7546771E-02  0.1313653E+00
         -4   -1    0    0    0  501 -0.00000000000E+00  0.00000000000E+00  0.79157591395E+01  0.79157591395E+01  0.00000000000E+00 0.  1.
          4   -1    0    0  501    0  0.00000000000E+00 -0.00000000000E+00 -0.23187230242E+03  0.23187230242E+03  0.00000000000E+00 0. -1.
         23    2    1    2    0    0  0.00000000000E+00  0.00000000000E+00 -0.22395654328E+03  0.23978806156E+03  0.85684194507E+02 0.  0.
        -13    1    3    3    0    0 -0.30945601004E+02 -0.25695329256E+02 -0.70700001986E+02  0.81341074789E+02  0.00000000000E+00 0.  1.
         13    1    3    3    0    0  0.30945601004E+02  0.25695329256E+02 -0.15325654129E+03  0.15844698677E+03  0.00000000000E+00 0. -1.
<mgrwt>
<rscale>  0 0.85684195E+02</rscale>
<asrwt>0</asrwt>
<pdfrwt beam="2">  1        4 0.35672660E-01 0.85684195E+02</pdfrwt>
<pdfrwt beam="1">  1       -4 0.12178092E-02 0.85684195E+02</pdfrwt>
<totfact> 0.23385042E+04</totfact>
</mgrwt>
</event>
<event>
 5    1  0.6112843E+000  0.9173627E+02  0.7546771E-02  0.1298701E+00
          3   -1    0    0  501    0  0.00000000000E+00  0.00000000000E+00  0.45665365595E+02  0.45665365595E+02  0.00000000000E+00 0. -1.
         -3   -1    0    0    0  501 -0.00000000000E+00 -0.00000000000E+00 -0.46071808062E+02  0.46071808062E+02  0.00000000000E+00 0.  1.
         23    2    1    2    0    0  0.00000000000E+00  0.00000000000E+00 -0.40644246659E+00  0.91737173657E+02  0.91736273278E+02 0.  0.
        -13    1    3    3    0    0 -0.10575129907E+02 -0.43186072869E+02  0.11067013443E+02  0.45818653941E+02  0.00000000000E+00 0.  1.
         13    1    3    3    0    0  0.10575129907E+02  0.43186072869E+02 -0.11473455910E+02  0.45918519716E+02  0.00000000000E+00 0. -1.
<mgrwt>
<rscale>  0 0.91736273E+02</rscale>
<asrwt>0</asrwt>
<pdfrwt beam="1">  1        3 0.70254408E-02 0.91736273E+02</pdfrwt>
<pdfrwt beam="2">  1       -3 0.70879705E-02 0.91736273E+02</pdfrwt>
<totfact> 0.34710904E+04</totfact>
</mgrwt>
</event>
<event>
 5    1  0.6112843E+000  0.9167677E+02  0.7546771E-02  0.1298841E+00
          3   -1    0    0  501    0  0.00000000000E+00  0.00000000000E+00  0.26040419352E+02  0.26040419352E+02  0.00000000000E+00 0. -1.
         -3   -1    0    0    0  501 -0.00000000000E+00 -0.00000000000E+00 -0.80688319111E+02  0.80688319111E+02  0.00000000000E+00 0.  1.
         23    2    1    2    0    0  0.00000000000E+00  0.00000000000E+00 -0.54647899759E+02  0.10672873846E+03  0.91676772771E+02 0.  0.
        -13    1    3    3    0    0 -0.34644916553E+02 -0.47876328358E+00  0.76143739039E+01  0.35475035549E+02  0.00000000000E+00 0. -1.
         13    1    3    3    0    0  0.34644916553E+02  0.47876328358E+00 -0.62262273663E+02  0.71253702914E+02  0.00000000000E+00 0.  1.
<mgrwt>
<rscale>  0 0.91676773E+02</rscale>
<asrwt>0</asrwt>
<pdfrwt beam="1">  1        3 0.40062185E-02 0.91676773E+02</pdfrwt>
<pdfrwt beam="2">  1       -3 0.12413587E-01 0.91676773E+02</pdfrwt>
<totfact> 0.33675297E+04</totfact>
</mgrwt>
</event>
<event>
 5    1  0.6112843E+000  0.9135174E+02  0.7546771E-02  0.1299611E+00
         -1   -1    0    0    0  501 -0.00000000000E+00  0.00000000000E+00  0.74371157091E+02  0.74371157091E+02  0.00000000000E+00 0.  1.
          1   -1    0    0  501    0  0.00000000000E+00 -0.00000000000E+00 -0.28052343790E+02  0.28052343790E+02  0.00000000000E+00 0. -1.
         23    2    1    2    0    0  0.00000000000E+00  0.00000000000E+00  0.46318813301E+02  0.10242350088E+03  0.91351743646E+02 0.  0.
        -13    1    3    3    0    0  0.89818016568E+01  0.36112313000E+02  0.52855597575E+02  0.64641210587E+02  0.00000000000E+00 0.  1.
         13    1    3    3    0    0 -0.89818016568E+01 -0.36112313000E+02 -0.65367842737E+01  0.37782290294E+02  0.00000000000E+00 0. -1.
<mgrwt>
<rscale>  0 0.91351744E+02</rscale>
<asrwt>0</asrwt>
<pdfrwt beam="2">  1        1 0.43157452E-02 0.91351744E+02</pdfrwt>
<pdfrwt beam="1">  1       -1 0.11441716E-01 0.91351744E+02</pdfrwt>
<totfact> 0.85268908E+04</totfact>
</mgrwt>
</event>
<event>
 5    1  0.6112843E+000  0.9185804E+02  0.7546771E-02  0.1298414E+00
          1   -1    0    0  501    0  0.00000000000E+00  0.00000000000E+00  0.29545392598E+03  0.29545392598E+03  0.00000000000E+00 0. -1.
         -1   -1    0    0    0  501 -0.00000000000E+00 -0.00000000000E+00 -0.71397768320E+01  0.71397768320E+01  0.00000000000E+00 0.  1.
         23    2    1    2    0    0  0.00000000000E+00  0.00000000000E+00  0.28831414915E+03  0.30259370282E+03  0.91858044736E+02 0.  0.
        -13    1    3    3    0    0  0.35135338718E+02  0.28123636598E+02  0.11395780837E+03  0.12252270423E+03  0.00000000000E+00 0.  1.
         13    1    3    3    0    0 -0.35135338718E+02 -0.28123636598E+02  0.17435634078E+03  0.18007099859E+03  0.00000000000E+00 0. -1.
<mgrwt>
<rscale>  0 0.91858045E+02</rscale>
<asrwt>0</asrwt>
<pdfrwt beam="1">  1        1 0.45454441E-01 0.91858045E+02</pdfrwt>
<pdfrwt beam="2">  1       -1 0.10984274E-02 0.91858045E+02</pdfrwt>
<totfact> 0.12523690E+05</totfact>
</mgrwt>
</event>
<event>
 5    1  0.6112843E+000  0.6085786E+02  0.7546771E-02  0.1394267E+00
         -1   -1    0    0    0  501 -0.00000000000E+00  0.00000000000E+00  0.46387954093E+01  0.46387954093E+01  0.00000000000E+00 0.  1.
          1   -1    0    0  501    0  0.00000000000E+00 -0.00000000000E+00 -0.19960347537E+03  0.19960347537E+03  0.00000000000E+00 0. -1.
         23    2    1    2    0    0  0.00000000000E+00  0.00000000000E+00 -0.19496467997E+03  0.20424227078E+03  0.60857856855E+02 0.  0.
        -13    1    3    3    0    0 -0.29264533420E+02 -0.76683423411E+01 -0.10846197028E+03  0.11260202213E+03  0.00000000000E+00 0.  1.
         13    1    3    3    0    0  0.29264533420E+02  0.76683423411E+01 -0.86502709685E+02  0.91640248655E+02  0.00000000000E+00 0. -1.
<mgrwt>
<rscale>  0 0.60857857E+02</rscale>
<asrwt>0</asrwt>
<pdfrwt beam="2">  1        1 0.30708237E-01 0.60857857E+02</pdfrwt>
<pdfrwt beam="1">  1       -1 0.71366060E-03 0.60857857E+02</pdfrwt>
<totfact> 0.34154971E+05</totfact>
</mgrwt>
</event>
<event>
 5    1  0.6112843E+000  0.9277565E+02  0.7546771E-02  0.1296266E+00
         -2   -1    0    0    0  501 -0.00000000000E+00  0.00000000000E+00  0.45851689844E+02  0.45851689844E+02  0.00000000000E+00 0.  1.
          2   -1    0    0  501    0  0.00000000000E+00 -0.00000000000E+00 -0.46930227994E+02  0.46930227994E+02  0.00000000000E+00 0. -1.
         23    2    1    2    0    0  0.00000000000E+00  0.00000000000E+00 -0.10785381503E+01  0.92781917839E+02  0.92775648924E+02 0.  0.
        -13    1    3    3    0    0 -0.33006554927E+02  0.18500236045E+02 -0.27376485404E+02  0.46702926621E+02  0.00000000000E+00 0.  1.
         13    1    3    3    0    0  0.33006554927E+02 -0.18500236045E+02  0.26297947254E+02  0.46078991218E+02  0.00000000000E+00 0. -1.
<mgrwt>
<rscale>  0 0.92775649E+02</rscale>
<asrwt>0</asrwt>
<pdfrwt beam="2">  1        2 0.72200351E-02 0.92775649E+02</pdfrwt>
<pdfrwt beam="1">  1       -2 0.70541061E-02 0.92775649E+02</pdfrwt>
<totfact> 0.94579582E+04</totfact>
</mgrwt>
</event>
<event>
 5    1  0.6112843E+000  0.8991479E+02  0.7546771E-02  0.1303058E+00
         -2   -1    0    0    0  501 -0.00000000000E+00  0.00000000000E+00  0.62324280381E+01  0.62324280381E+01  0.00000000000E+00 0.  1.
          2   -1    0    0  501    0  0.00000000000E+00 -0.00000000000E+00 -0.32429855279E+03  0.32429855279E+03  0.00000000000E+00 0. -1.
         23    2    1    2    0    0  0.00000000000E+00  0.00000000000E+00 -0.31806612476E+03  0.33053098083E+03  0.89914790622E+02 0.  0.
        -13    1    3    3    0    0 -0.35938101637E+02  0.26162086969E+02 -0.18373802509E+03  0.18903878916E+03  0.00000000000E+00 0.  1.
         13    1    3    3    0    0  0.35938101637E+02 -0.26162086969E+02 -0.13432809967E+03  0.14149219167E+03  0.00000000000E+00 0. -1.
<mgrwt>
<rscale>  0 0.89914791E+02</rscale>
<asrwt>0</asrwt>
<pdfrwt beam="2">  1        2 0.49892099E-01 0.89914791E+02</pdfrwt>
<pdfrwt beam="1">  1       -2 0.95883481E-03 0.89914791E+02</pdfrwt>
<totfact> 0.19191939E+05</totfact>
</mgrwt>
</event>
<event>
 5    1  0.6112843E+000  0.8902239E+02  0.7546771E-02  0.1305237E+00
          3   -1    0    0  501    0  0.00000000000E+00  0.00000000000E+00  0.71786913144E+02  0.71786913144E+02  0.00000000000E+00 0. -1.
         -3   -1    0    0    0  501 -0.00000000000E+00 -0.00000000000E+00 -0.27598989563E+02  0.27598989563E+02  0.00000000000E+00 0.  1.
         23    2    1    2    0    0  0.00000000000E+00  0.00000000000E+00  0.44187923581E+02  0.99385902708E+02  0.89022385200E+02 0.  0.
        -13    1    3    3    0    0 -0.34583890821E+02  0.11828658607E+02 -0.62656886547E+01  0.37083979331E+02  0.00000000000E+00 0.  1.
         13    1    3    3    0    0  0.34583890821E+02 -0.11828658607E+02  0.50453612236E+02  0.62301923376E+02  0.00000000000E+00 0. -1.
<mgrwt>
<rscale>  0 0.89022385E+02</rscale>
<asrwt>0</asrwt>
<pdfrwt beam="1">  1        3 0.11044140E-01 0.89022385E+02</pdfrwt>
<pdfrwt beam="2">  1       -3 0.42459984E-02 0.89022385E+02</pdfrwt>
<totfact> 0.37044711E+04</totfact>
</mgrwt>
</event>
<event>
 5    1  0.6112843E+000  0.1013607E+03  0.7546771E-02  0.1277460E+00
          1   -1    0    0  501    0  0.00000000000E+00  0.00000000000E+00  0.86505210867E+02  0.86505210867E+02  0.00000000000E+00 0. -1.
         -1   -1    0    0    0  501 -0.00000000000E+00 -0.00000000000E+00 -0.29691852864E+02  0.29691852864E+02  0.00000000000E+00 0.  1.
         23    2    1    2    0    0  0.00000000000E+00  0.00000000000E+00  0.56813358002E+02  0.11619706373E+03  0.10136074177E+03 0.  0.
        -13    1    3    3    0    0 -0.15909063253E+02 -0.30779100573E+02 -0.13994325686E+02  0.37366997164E+02  0.00000000000E+00 0.  1.
         13    1    3    3    0    0  0.15909063253E+02  0.30779100573E+02  0.70807683688E+02  0.78830066567E+02  0.00000000000E+00 0. -1.
<mgrwt>
<rscale>  0 0.10136074E+03</rscale>
<asrwt>0</asrwt>
<pdfrwt beam="1">  1        1 0.13308494E-01 0.10136074E+03</pdfrwt>
<pdfrwt beam="2">  1       -1 0.45679774E-02 0.10136074E+03</pdfrwt>
<totfact> 0.76159070E+04</totfact>
</mgrwt>
</event>
<event>
 5    1  0.6112843E+000  0.9119433E+02  0.7546771E-02  0.1299985E+00
          3   -1    0    0  501    0  0.00000000000E+00  0.00000000000E+00  0.22387564756E+02  0.22387564756E+02  0.00000000000E+00 0. -1.
         -3   -1    0    0    0  501 -0.00000000000E+00 -0.00000000000E+00 -0.92868580214E+02  0.92868580214E+02  0.00000000000E+00 0.  1.
         23    2    1    2    0    0  0.00000000000E+00  0.00000000000E+00 -0.70481015458E+02  0.11525614497E+03  0.91194327749E+02 0.  0.
        -13    1    3    3    0    0 -0.34235854255E+02  0.21060871415E+02 -0.62448497547E+02  0.74266202725E+02  0.00000000000E+00 0.  1.
         13    1    3    3    0    0  0.34235854255E+02 -0.21060871415E+02 -0.80325179103E+01  0.40989942245E+02  0.00000000000E+00 0. -1.
<mgrwt>
<rscale>  0 0.91194328E+02</rscale>
<asrwt>0</asrwt>
<pdfrwt beam="1">  1        3 0.34442407E-02 0.91194328E+02</pdfrwt>
<pdfrwt beam="2">  1       -3 0.14287474E-01 0.91194328E+02</pdfrwt>
<totfact> 0.33558135E+04</totfact>
</mgrwt>
</event>
<event>
 5    1  0.6112843E+000  0.7805719E+02  0.7546771E-02  0.1334657E+00
         -1   -1    0    0    0  501 -0.00000000000E+00  0.00000000000E+00  0.11368551517E+02  0.11368551517E+02  0.00000000000E+00 0.  1.
          1   -1    0    0  501    0  0.00000000000E+00 -0.00000000000E+00 -0.13398640389E+03  0.13398640389E+03  0.00000000000E+00 0. -1.
         23    2    1    2    0    0  0.00000000000E+00  0.00000000000E+00 -0.12261785237E+03  0.14535495541E+03  0.78057192755E+02 0.  0.
        -13    1    3    3    0    0  0.36358975865E+02 -0.10460874312E+02 -0.79153266572E+02  0.87730522775E+02  0.00000000000E+00 0.  1.
         13    1    3    3    0    0 -0.36358975865E+02  0.10460874312E+02 -0.43464585803E+02  0.57624432633E+02  0.00000000000E+00 0. -1.
<mgrwt>
<rscale>  0 0.78057193E+02</rscale>
<asrwt>0</asrwt>
<pdfrwt beam="2">  1        1 0.20613292E-01 0.78057193E+02</pdfrwt>
<pdfrwt beam="1">  1       -1 0.17490080E-02 0.78057193E+02</pdfrwt>
<totfact> 0.16655633E+05</totfact>
</mgrwt>
</event>
<event>
 5    1  0.6112843E+000  0.9025214E+02  0.7546771E-02  0.1302242E+00
          2   -1    0    0  501    0  0.00000000000E+00  0.00000000000E+00  0.16647767350E+02  0.16647767350E+02  0.00000000000E+00 0. -1.
         -2   -1    0    0    0  501 -0.00000000000E+00 -0.00000000000E+00 -0.12232044970E+03  0.12232044970E+03  0.00000000000E+00 0.  1.
         23    2    1    2    0    0  0.00000000000E+00  0.00000000000E+00 -0.10567268235E+03  0.13896821705E+03  0.90252144323E+02 0.  0.
        -13    1    3    3    0    0 -0.19382436392E+02  0.99624718968E+01  0.80079157825E+01  0.23217588203E+02  0.00000000000E+00 0. -1.
         13    1    3    3    0    0  0.19382436392E+02 -0.99624718968E+01 -0.11368059813E+03  0.11575062884E+03  0.00000000000E+00 0.  1.
<mgrwt>
<rscale>  0 0.90252144E+02</rscale>
<asrwt>0</asrwt>
<pdfrwt beam="1">  1        2 0.25611949E-02 0.90252144E+02</pdfrwt>
<pdfrwt beam="2">  1       -2 0.18818531E-01 0.90252144E+02</pdfrwt>
<totfact> 0.76890965E+04</totfact>
</mgrwt>
</event>
<event>
 5    1  0.6112843E+000  0.9165313E+02  0.7546771E-02  0.1298897E+00
          1   -1    0    0  501    0  0.00000000000E+00  0.00000000000E+00  0.15833894143E+02  0.15833894143E+02  0.00000000000E+00 0. -1.
         -1   -1    0    0    0  501 -0.00000000000E+00 -0.00000000000E+00 -0.13263156938E+03  0.13263156938E+03  0.00000000000E+00 0.  1.
         23    2    1    2    0    0  0.00000000000E+00  0.00000000000E+00 -0.11679767523E+03  0.14846546352E+03  0.91653133706E+02 0.  0.
        -13    1    3    3    0    0  0.25883241410E+02  0.49767578488E+01 -0.11912453635E+03  0.12200559604E+03  0.00000000000E+00 0.  1.
         13    1    3    3    0    0 -0.25883241410E+02 -0.49767578488E+01  0.23268611124E+01  0.26459867483E+02  0.00000000000E+00 0. -1.
<mgrwt>
<rscale>  0 0.91653134E+02</rscale>
<asrwt>0</asrwt>
<pdfrwt beam="1">  1        1 0.24359838E-02 0.91653134E+02</pdfrwt>
<pdfrwt beam="2">  1       -1 0.20404856E-01 0.91653134E+02</pdfrwt>
<totfact> 0.75859848E+04</totfact>
</mgrwt>
</event>
<event>
 5    1  0.6112843E+000  0.9201373E+02  0.7546771E-02  0.1298047E+00
          2   -1    0    0  501    0  0.00000000000E+00  0.00000000000E+00  0.24722293849E+02  0.24722293849E+02  0.00000000000E+00 0. -1.
         -2   -1    0    0    0  501 -0.00000000000E+00 -0.00000000000E+00 -0.85616316117E+02  0.85616316117E+02  0.00000000000E+00 0.  1.
         23    2    1    2    0    0  0.00000000000E+00  0.00000000000E+00 -0.60894022267E+02  0.11033860997E+03  0.92013732134E+02 0.  0.
        -13    1    3    3    0    0 -0.28895574840E+02  0.35276270384E+02 -0.37766980614E+02  0.59209072972E+02  0.00000000000E+00 0.  1.
         13    1    3    3    0    0  0.28895574840E+02 -0.35276270384E+02 -0.23127041653E+02  0.51129536993E+02  0.00000000000E+00 0. -1.
<mgrwt>
<rscale>  0 0.92013732E+02</rscale>
<asrwt>0</asrwt>
<pdfrwt beam="1">  1        2 0.38034298E-02 0.92013732E+02</pdfrwt>
<pdfrwt beam="2">  1       -2 0.13171741E-01 0.92013732E+02</pdfrwt>
<totfact> 0.81620391E+04</totfact>
</mgrwt>
</event>
<event>
 5    1  0.6112843E+000  0.9159802E+02  0.7546771E-02  0.1299027E+00
          4   -1    0    0  501    0  0.00000000000E+00  0.00000000000E+00  0.11455751616E+02  0.11455751616E+02  0.00000000000E+00 0. -1.
         -4   -1    0    0    0  501 -0.00000000000E+00 -0.00000000000E+00 -0.18310009695E+03  0.18310009695E+03  0.00000000000E+00 0.  1.
         23    2    1    2    0    0  0.00000000000E+00  0.00000000000E+00 -0.17164434533E+03  0.19455584856E+03  0.91598018134E+02 0.  0.
        -13    1    3    3    0    0 -0.26604060043E+02  0.33824105681E+02 -0.11911598504E+03  0.12665095352E+03  0.00000000000E+00 0.  1.
         13    1    3    3    0    0  0.26604060043E+02 -0.33824105681E+02 -0.52528360295E+02  0.67904895046E+02  0.00000000000E+00 0. -1.
<mgrwt>
<rscale>  0 0.91598018E+02</rscale>
<asrwt>0</asrwt>
<pdfrwt beam="1">  1        4 0.17624233E-02 0.91598018E+02</pdfrwt>
<pdfrwt beam="2">  1       -4 0.28169247E-01 0.91598018E+02</pdfrwt>
<totfact> 0.21350031E+04</totfact>
</mgrwt>
</event>
<event>
 5    1  0.6112843E+000  0.9038055E+02  0.7546771E-02  0.1301933E+00
          2   -1    0    0  501    0  0.00000000000E+00  0.00000000000E+00  0.46999712641E+02  0.46999712641E+02  0.00000000000E+00 0. -1.
         -2   -1    0    0    0  501 -0.00000000000E+00 -0.00000000000E+00 -0.43450495635E+02  0.43450495635E+02  0.00000000000E+00 0.  1.
         23    2    1    2    0    0  0.00000000000E+00  0.00000000000E+00  0.35492170061E+01  0.90450208277E+02  0.90380546778E+02 0.  0.
        -13    1    3    3    0    0 -0.99368364580E+01  0.29748851425E+02 -0.30783925518E+02  0.43947524961E+02  0.00000000000E+00 0.  1.
         13    1    3    3    0    0  0.99368364580E+01 -0.29748851425E+02  0.34333142524E+02  0.46502683315E+02  0.00000000000E+00 0. -1.
<mgrwt>
<rscale>  0 0.90380547E+02</rscale>
<asrwt>0</asrwt>
<pdfrwt beam="1">  1        2 0.72307250E-02 0.90380547E+02</pdfrwt>
<pdfrwt beam="2">  1       -2 0.66846917E-02 0.90380547E+02</pdfrwt>
<totfact> 0.10198565E+05</totfact>
</mgrwt>
</event>
<event>
 5    1  0.6112843E+000  0.9159317E+02  0.7546771E-02  0.1299039E+00
         -2   -1    0    0    0  501 -0.00000000000E+00  0.00000000000E+00  0.28172160766E+02  0.28172160766E+02  0.00000000000E+00 0.  1.
          2   -1    0    0  501    0  0.00000000000E+00 -0.00000000000E+00 -0.74446796926E+02  0.74446796926E+02  0.00000000000E+00 0. -1.
         23    2    1    2    0    0  0.00000000000E+00  0.00000000000E+00 -0.46274636160E+02  0.10261895769E+03  0.91593168556E+02 0.  0.
        -13    1    3    3    0    0  0.14072715269E+02  0.18837940821E+02  0.20892502476E+02  0.31454824577E+02  0.00000000000E+00 0.  1.
         13    1    3    3    0    0 -0.14072715269E+02 -0.18837940821E+02 -0.67167138637E+02  0.71164133115E+02  0.00000000000E+00 0. -1.
<mgrwt>
<rscale>  0 0.91593169E+02</rscale>
<asrwt>0</asrwt>
<pdfrwt beam="2">  1        2 0.11453353E-01 0.91593169E+02</pdfrwt>
<pdfrwt beam="1">  1       -2 0.43341787E-02 0.91593169E+02</pdfrwt>
<totfact> 0.11111427E+05</totfact>
</mgrwt>
</event>
<event>
 5    1  0.6112843E+000  0.9157594E+02  0.7546771E-02  0.1299080E+00
          1   -1    0    0  501    0  0.00000000000E+00  0.00000000000E+00  0.17668897463E+02  0.17668897463E+02  0.00000000000E+00 0. -1.
         -1   -1    0    0    0  501 -0.00000000000E+00 -0.00000000000E+00 -0.11865699285E+03  0.11865699285E+03  0.00000000000E+00 0.  1.
         23    2    1    2    0    0  0.00000000000E+00  0.00000000000E+00 -0.10098809539E+03  0.13632589031E+03  0.91575940942E+02 0.  0.
        -13    1    3    3    0    0 -0.31093792084E+02  0.33537034476E+02 -0.47171404875E+02  0.65701583127E+02  0.00000000000E+00 0.  1.
         13    1    3    3    0    0  0.31093792084E+02 -0.33537034476E+02 -0.53816690511E+02  0.70624307184E+02  0.00000000000E+00 0. -1.
<mgrwt>
<rscale>  0 0.91575941E+02</rscale>
<asrwt>0</asrwt>
<pdfrwt beam="1">  1        1 0.27182920E-02 0.91575941E+02</pdfrwt>
<pdfrwt beam="2">  1       -1 0.18254922E-01 0.91575941E+02</pdfrwt>
<totfact> 0.77826585E+04</totfact>
</mgrwt>
</event>
<event>
 5    1  0.6112843E+000  0.8950022E+02  0.7546771E-02  0.1304067E+00
          4   -1    0    0  501    0  0.00000000000E+00  0.00000000000E+00  0.24707275994E+02  0.24707275994E+02  0.00000000000E+00 0.  1.
         -4   -1    0    0    0  501 -0.00000000000E+00 -0.00000000000E+00 -0.81051936361E+02  0.81051936361E+02  0.00000000000E+00 0. -1.
         23    2    1    2    0    0  0.00000000000E+00  0.00000000000E+00 -0.56344660367E+02  0.10575921235E+03  0.89500224837E+02 0.  0.
        -13    1    3    3    0    0  0.32497457865E+02 -0.12053599184E+02 -0.61619868210E+02  0.70699237472E+02  0.00000000000E+00 0. -1.
         13    1    3    3    0    0 -0.32497457865E+02  0.12053599184E+02  0.52752078427E+01  0.35059974882E+02  0.00000000000E+00 0.  1.
<mgrwt>
<rscale>  0 0.89500225E+02</rscale>
<asrwt>0</asrwt>
<pdfrwt beam="1">  1        4 0.38011193E-02 0.89500225E+02</pdfrwt>
<pdfrwt beam="2">  1       -4 0.12469529E-01 0.89500225E+02</pdfrwt>
<totfact> 0.27447506E+04</totfact>
</mgrwt>
</event>
<event>
 5    1  0.6112843E+000  0.8922358E+02  0.7546771E-02  0.1304743E+00
         -4   -1    0    0    0  501 -0.00000000000E+00  0.00000000000E+00  0.79962129944E+02  0.79962129944E+02  0.00000000000E+00 0. -1.
          4   -1    0    0  501    0  0.00000000000E+00 -0.00000000000E+00 -0.24889429203E+02  0.24889429203E+02  0.00000000000E+00 0.  1.
         23    2    1    2    0    0  0.00000000000E+00  0.00000000000E+00  0.55072700741E+02  0.10485155915E+03  0.89223579219E+02 0.  0.
        -13    1    3    3    0    0  0.70821534603E+01 -0.41334087030E+02  0.45418341909E+02  0.61818196593E+02  0.00000000000E+00 0.  1.
         13    1    3    3    0    0 -0.70821534603E+01  0.41334087030E+02  0.96543588319E+01  0.43033362554E+02  0.00000000000E+00 0. -1.
<mgrwt>
<rscale>  0 0.89223579E+02</rscale>
<asrwt>0</asrwt>
<pdfrwt beam="2">  1        4 0.38291430E-02 0.89223579E+02</pdfrwt>
<pdfrwt beam="1">  1       -4 0.12301866E-01 0.89223579E+02</pdfrwt>
<totfact> 0.27735827E+04</totfact>
</mgrwt>
</event>
<event>
 5    1  0.6112843E+000  0.9141087E+02  0.7546771E-02  0.1299471E+00
          1   -1    0    0  501    0  0.00000000000E+00  0.00000000000E+00  0.11329740609E+03  0.11329740609E+03  0.00000000000E+00 0. -1.
         -1   -1    0    0    0  501 -0.00000000000E+00 -0.00000000000E+00 -0.18438082900E+02  0.18438082900E+02  0.00000000000E+00 0.  1.
         23    2    1    2    0    0  0.00000000000E+00  0.00000000000E+00  0.94859323186E+02  0.13173548899E+03  0.91410873877E+02 0.  0.
        -13    1    3    3    0    0 -0.37585403678E+02 -0.67958668269E+00  0.84895384855E+02  0.92845844158E+02  0.00000000000E+00 0. -1.
         13    1    3    3    0    0  0.37585403678E+02  0.67958668269E+00  0.99639383305E+01  0.38889644827E+02  0.00000000000E+00 0.  1.
<mgrwt>
<rscale>  0 0.91410874E+02</rscale>
<asrwt>0</asrwt>
<pdfrwt beam="1">  1        1 0.17430370E-01 0.91410874E+02</pdfrwt>
<pdfrwt beam="2">  1       -1 0.28366282E-02 0.91410874E+02</pdfrwt>
<totfact> 0.10593494E+05</totfact>
</mgrwt>
</event>
<event>
 5    1  0.6112843E+000  0.9172531E+02  0.7546771E-02  0.1298727E+00
          2   -1    0    0  501    0  0.00000000000E+00  0.00000000000E+00  0.24425232338E+03  0.24425232338E+03  0.00000000000E+00 0. -1.
         -2   -1    0    0    0  501 -0.00000000000E+00 -0.00000000000E+00 -0.86115175389E+01  0.86115175389E+01  0.00000000000E+00 0.  1.
         23    2    1    2    0    0  0.00000000000E+00  0.00000000000E+00  0.23564080584E+03  0.25286384092E+03  0.91725310939E+02 0.  0.
        -13    1    3    3    0    0 -0.21556387324E+02  0.40469736855E+02  0.11519680561E+03  0.12398702133E+03  0.00000000000E+00 0.  1.
         13    1    3    3    0    0  0.21556387324E+02 -0.40469736855E+02  0.12044400023E+03  0.12887681959E+03  0.00000000000E+00 0. -1.
<mgrwt>
<rscale>  0 0.91725311E+02</rscale>
<asrwt>0</asrwt>
<pdfrwt beam="1">  1        2 0.37577275E-01 0.91725311E+02</pdfrwt>
<pdfrwt beam="2">  1       -2 0.13248490E-02 0.91725311E+02</pdfrwt>
<totfact> 0.16376699E+05</totfact>
</mgrwt>
</event>
<event>
 5    1  0.6112843E+000  0.8809212E+02  0.7546771E-02  0.1307539E+00
          1   -1    0    0  501    0  0.00000000000E+00  0.00000000000E+00  0.19704934419E+03  0.19704934419E+03  0.00000000000E+00 0. -1.
         -1   -1    0    0    0  501 -0.00000000000E+00 -0.00000000000E+00 -0.98455301947E+01  0.98455301947E+01  0.00000000000E+00 0.  1.
         23    2    1    2    0    0  0.00000000000E+00  0.00000000000E+00  0.18720381400E+03  0.20689487438E+03  0.88092116970E+02 0.  0.
        -13    1    3    3    0    0 -0.87090949742E+01  0.43118254021E+02  0.88338114946E+02  0.98684622497E+02  0.00000000000E+00 0.  1.
         13    1    3    3    0    0  0.87090949742E+01 -0.43118254021E+02  0.98865699049E+02  0.10821025189E+03  0.00000000000E+00 0. -1.
<mgrwt>
<rscale>  0 0.88092117E+02</rscale>
<asrwt>0</asrwt>
<pdfrwt beam="1">  1        1 0.30315281E-01 0.88092117E+02</pdfrwt>
<pdfrwt beam="2">  1       -1 0.15146971E-02 0.88092117E+02</pdfrwt>
<totfact> 0.12945483E+05</totfact>
</mgrwt>
</event>
<event>
 5    1  0.6112843E+000  0.9340425E+02  0.7546771E-02  0.1294811E+00
         -2   -1    0    0    0  501 -0.00000000000E+00  0.00000000000E+00  0.13105742872E+03  0.13105742872E+03  0.00000000000E+00 0.  1.
          2   -1    0    0  501    0  0.00000000000E+00 -0.00000000000E+00 -0.16642236241E+02  0.16642236241E+02  0.00000000000E+00 0. -1.
         23    2    1    2    0    0  0.00000000000E+00  0.00000000000E+00  0.11441519247E+03  0.14769966496E+03  0.93404254504E+02 0.  0.
        -13    1    3    3    0    0  0.12003898055E+02 -0.44860009741E+02  0.65046521047E+02  0.79922236848E+02  0.00000000000E+00 0.  1.
         13    1    3    3    0    0 -0.12003898055E+02  0.44860009741E+02  0.49368671427E+02  0.67777428108E+02  0.00000000000E+00 0. -1.
<mgrwt>
<rscale>  0 0.93404255E+02</rscale>
<asrwt>0</asrwt>
<pdfrwt beam="2">  1        2 0.25603441E-02 0.93404255E+02</pdfrwt>
<pdfrwt beam="1">  1       -2 0.20162681E-01 0.93404255E+02</pdfrwt>
<totfact> 0.68922800E+04</totfact>
</mgrwt>
</event>
<event>
 5    1  0.6112843E+000  0.9166484E+02  0.7546771E-02  0.1298869E+00
         -1   -1    0    0    0  501 -0.00000000000E+00  0.00000000000E+00  0.97212821950E+02  0.97212821950E+02  0.00000000000E+00 0.  1.
          1   -1    0    0  501    0  0.00000000000E+00 -0.00000000000E+00 -0.21608373236E+02  0.21608373236E+02  0.00000000000E+00 0. -1.
         23    2    1    2    0    0  0.00000000000E+00  0.00000000000E+00  0.75604448714E+02  0.11882119519E+03  0.91664844735E+02 0.  0.
        -13    1    3    3    0    0  0.28918618876E+02  0.28555825004E+01  0.83744799070E+02  0.88643286494E+02  0.00000000000E+00 0.  1.
         13    1    3    3    0    0 -0.28918618876E+02 -0.28555825004E+01 -0.81403503569E+01  0.30177908692E+02  0.00000000000E+00 0. -1.
<mgrwt>
<rscale>  0 0.91664845E+02</rscale>
<asrwt>0</asrwt>
<pdfrwt beam="2">  1        1 0.33243652E-02 0.91664845E+02</pdfrwt>
<pdfrwt beam="1">  1       -1 0.14955818E-01 0.91664845E+02</pdfrwt>
<totfact> 0.80679440E+04</totfact>
</mgrwt>
</event>
<event>
 5    1  0.6112843E+000  0.9100893E+02  0.7546771E-02  0.1300427E+00
          3   -1    0    0  501    0  0.00000000000E+00  0.00000000000E+00  0.96438648436E+01  0.96438648436E+01  0.00000000000E+00 0. -1.
         -3   -1    0    0    0  501 -0.00000000000E+00 -0.00000000000E+00 -0.21471230234E+03  0.21471230234E+03  0.00000000000E+00 0.  1.
         23    2    1    2    0    0  0.00000000000E+00  0.00000000000E+00 -0.20506843750E+03  0.22435616719E+03  0.91008931959E+02 0.  0.
        -13    1    3    3    0    0  0.35174496566E+02  0.44290020821E+01 -0.32208926668E+02  0.47898603583E+02  0.00000000000E+00 0. -1.
         13    1    3    3    0    0 -0.35174496566E+02 -0.44290020821E+01 -0.17285951083E+03  0.17645756360E+03  0.00000000000E+00 0.  1.
<mgrwt>
<rscale>  0 0.91008932E+02</rscale>
<asrwt>0</asrwt>
<pdfrwt beam="1">  1        3 0.14836717E-02 0.91008932E+02</pdfrwt>
<pdfrwt beam="2">  1       -3 0.33032658E-01 0.91008932E+02</pdfrwt>
<totfact> 0.27419798E+04</totfact>
</mgrwt>
</event>
<event>
 5    1  0.6112843E+000  0.9141170E+02  0.7546771E-02  0.1299469E+00
         -2   -1    0    0    0  501 -0.00000000000E+00  0.00000000000E+00  0.28720161027E+02  0.28720161027E+02  0.00000000000E+00 0.  1.
          2   -1    0    0  501    0  0.00000000000E+00 -0.00000000000E+00 -0.72737215489E+02  0.72737215489E+02  0.00000000000E+00 0. -1.
         23    2    1    2    0    0  0.00000000000E+00  0.00000000000E+00 -0.44017054461E+02  0.10145737652E+03  0.91411696003E+02 0.  0.
        -13    1    3    3    0    0 -0.83669378579E+01 -0.22300150127E+02  0.21287649656E+02  0.31944739358E+02  0.00000000000E+00 0.  1.
         13    1    3    3    0    0  0.83669378579E+01  0.22300150127E+02 -0.65304704117E+02  0.69512637158E+02  0.00000000000E+00 0. -1.
<mgrwt>
<rscale>  0 0.91411696E+02</rscale>
<asrwt>0</asrwt>
<pdfrwt beam="2">  1        2 0.11190341E-01 0.91411696E+02</pdfrwt>
<pdfrwt beam="1">  1       -2 0.44184864E-02 0.91411696E+02</pdfrwt>
<totfact> 0.11100539E+05</totfact>
</mgrwt>
</event>
<event>
 5    1  0.6112843E+000  0.9204835E+02  0.7546771E-02  0.1297966E+00
          3   -1    0    0  501    0  0.00000000000E+00  0.00000000000E+00  0.29919868343E+03  0.29919868343E+03  0.00000000000E+00 0. -1.
         -3   -1    0    0    0  501 -0.00000000000E+00 -0.00000000000E+00 -0.70796596104E+01  0.70796596104E+01  0.00000000000E+00 0.  1.
         23    2    1    2    0    0  0.00000000000E+00  0.00000000000E+00  0.29211902382E+03  0.30627834304E+03  0.92048353262E+02 0.  0.
        -13    1    3    3    0    0  0.43830622832E+02 -0.42127225274E+01  0.19062063920E+03  0.19564022750E+03  0.00000000000E+00 0.  1.
         13    1    3    3    0    0 -0.43830622832E+02  0.42127225274E+01  0.10149838462E+03  0.11063811553E+03  0.00000000000E+00 0. -1.
<mgrwt>
<rscale>  0 0.92048353E+02</rscale>
<asrwt>0</asrwt>
<pdfrwt beam="1">  1        3 0.46030557E-01 0.92048353E+02</pdfrwt>
<pdfrwt beam="2">  1       -3 0.10891786E-02 0.92048353E+02</pdfrwt>
<totfact> 0.23189626E+04</totfact>
</mgrwt>
</event>
<event>
 5    1  0.6112843E+000  0.9198217E+02  0.7546771E-02  0.1298121E+00
          1   -1    0    0  501    0  0.00000000000E+00  0.00000000000E+00  0.92092984835E+02  0.92092984835E+02  0.00000000000E+00 0. -1.
         -1   -1    0    0    0  501 -0.00000000000E+00 -0.00000000000E+00 -0.22967870523E+02  0.22967870523E+02  0.00000000000E+00 0.  1.
         23    2    1    2    0    0  0.00000000000E+00  0.00000000000E+00  0.69125114312E+02  0.11506085536E+03  0.91982166788E+02 0.  0.
        -13    1    3    3    0    0  0.28903840661E+02  0.31871938993E+02  0.14240574330E+02  0.45321589308E+02  0.00000000000E+00 0.  1.
         13    1    3    3    0    0 -0.28903840661E+02 -0.31871938993E+02  0.54884539982E+02  0.69739266050E+02  0.00000000000E+00 0. -1.
<mgrwt>
<rscale>  0 0.91982167E+02</rscale>
<asrwt>0</asrwt>
<pdfrwt beam="1">  1        1 0.14168151E-01 0.91982167E+02</pdfrwt>
<pdfrwt beam="2">  1       -1 0.35335186E-02 0.91982167E+02</pdfrwt>
<totfact> 0.10059443E+05</totfact>
</mgrwt>
</event>
<event>
 5    1  0.6112843E+000  0.9112684E+02  0.7546771E-02  0.1300146E+00
          2   -1    0    0  501    0  0.00000000000E+00  0.00000000000E+00  0.22903248171E+02  0.22903248171E+02  0.00000000000E+00 0.  1.
         -2   -1    0    0    0  501 -0.00000000000E+00 -0.00000000000E+00 -0.90643267052E+02  0.90643267052E+02  0.00000000000E+00 0. -1.
         23    2    1    2    0    0  0.00000000000E+00  0.00000000000E+00 -0.67740018880E+02  0.11354651522E+03  0.91126839961E+02 0.  0.
        -13    1    3    3    0    0 -0.35226435051E+02 -0.21636580733E+02 -0.10000152552E+02  0.42532886138E+02  0.00000000000E+00 0.  1.
         13    1    3    3    0    0  0.35226435051E+02  0.21636580733E+02 -0.57739866328E+02  0.71013629085E+02  0.00000000000E+00 0. -1.
<mgrwt>
<rscale>  0 0.91126840E+02</rscale>
<asrwt>0</asrwt>
<pdfrwt beam="1">  1        2 0.35235766E-02 0.91126840E+02</pdfrwt>
<pdfrwt beam="2">  1       -2 0.13945118E-01 0.91126840E+02</pdfrwt>
<totfact> 0.82247857E+04</totfact>
</mgrwt>
</event>
<event>
 5    1  0.6112843E+000  0.9203440E+02  0.7546771E-02  0.1297999E+00
         -1   -1    0    0    0  501 -0.00000000000E+00  0.00000000000E+00  0.60308525384E+01  0.60308525384E+01  0.00000000000E+00 0.  1.
          1   -1    0    0  501    0  0.00000000000E+00 -0.00000000000E+00 -0.35112491311E+03  0.35112491311E+03  0.00000000000E+00 0. -1.
         23    2    1    2    0    0  0.00000000000E+00  0.00000000000E+00 -0.34509406057E+03  0.35715576565E+03  0.92034397342E+02 0.  0.
        -13    1    3    3    0    0 -0.19548028291E+02 -0.41648342937E+02 -0.17617228485E+03  0.18208070691E+03  0.00000000000E+00 0.  1.
         13    1    3    3    0    0  0.19548028291E+02  0.41648342937E+02 -0.16892177572E+03  0.17507505874E+03  0.00000000000E+00 0. -1.
<mgrwt>
<rscale>  0 0.92034397E+02</rscale>
<asrwt>0</asrwt>
<pdfrwt beam="2">  1        1 0.54019232E-01 0.92034397E+02</pdfrwt>
<pdfrwt beam="1">  1       -1 0.92782322E-03 0.92034397E+02</pdfrwt>
<totfact> 0.12866166E+05</totfact>
</mgrwt>
</event>
<event>
 5    1  0.6112843E+000  0.9248013E+02  0.7546771E-02  0.1296954E+00
          2   -1    0    0  501    0  0.00000000000E+00  0.00000000000E+00  0.32237607670E+02  0.32237607670E+02  0.00000000000E+00 0. -1.
         -2   -1    0    0    0  501 -0.00000000000E+00 -0.00000000000E+00 -0.66324516280E+02  0.66324516280E+02  0.00000000000E+00 0.  1.
         23    2    1    2    0    0  0.00000000000E+00  0.00000000000E+00 -0.34086908610E+02  0.98562123951E+02  0.92480132672E+02 0.  0.
        -13    1    3    3    0    0 -0.29051262356E+02 -0.14296830471E+02 -0.52226119904E+02  0.61448700606E+02  0.00000000000E+00 0.  1.
         13    1    3    3    0    0  0.29051262356E+02  0.14296830471E+02  0.18139211294E+02  0.37113423344E+02  0.00000000000E+00 0. -1.
<mgrwt>
<rscale>  0 0.92480133E+02</rscale>
<asrwt>0</asrwt>
<pdfrwt beam="1">  1        2 0.49596320E-02 0.92480133E+02</pdfrwt>
<pdfrwt beam="2">  1       -2 0.10203772E-01 0.92480133E+02</pdfrwt>
<totfact> 0.86465536E+04</totfact>
</mgrwt>
</event>
<event>
 5    1  0.6112843E+000  0.1095124E+03  0.7546771E-02  0.1261475E+00
         -2   -1    0    0    0  501 -0.00000000000E+00  0.00000000000E+00  0.25326894555E+02  0.25326894555E+02  0.00000000000E+00 0.  1.
          2   -1    0    0  501    0  0.00000000000E+00 -0.00000000000E+00 -0.11838174959E+03  0.11838174959E+03  0.00000000000E+00 0. -1.
         23    2    1    2    0    0  0.00000000000E+00  0.00000000000E+00 -0.93054855038E+02  0.14370864415E+03  0.10951241188E+03 0.  0.
        -13    1    3    3    0    0  0.18078083532E+02 -0.13864842830E+02  0.18811883660E+02  0.29545523142E+02  0.00000000000E+00 0.  1.
         13    1    3    3    0    0 -0.18078083532E+02  0.13864842830E+02 -0.11186673870E+03  0.11416312101E+03  0.00000000000E+00 0. -1.
<mgrwt>
<rscale>  0 0.10951241E+03</rscale>
<asrwt>0</asrwt>
<pdfrwt beam="2">  1        2 0.18212577E-01 0.10951241E+03</pdfrwt>
<pdfrwt beam="1">  1       -2 0.38964453E-02 0.10951241E+03</pdfrwt>
<totfact> 0.77794287E+04</totfact>
</mgrwt>
</event>
<event>
 5    1  0.6112843E+000  0.9093230E+02  0.7546771E-02  0.1300610E+00
         -1   -1    0    0    0  501 -0.00000000000E+00  0.00000000000E+00  0.28527839554E+03  0.28527839554E+03  0.00000000000E+00 0.  1.
          1   -1    0    0  501    0  0.00000000000E+00 -0.00000000000E+00 -0.72461528047E+01  0.72461528047E+01  0.00000000000E+00 0. -1.
         23    2    1    2    0    0  0.00000000000E+00  0.00000000000E+00  0.27803224274E+03  0.29252454835E+03  0.90932301103E+02 0.  0.
        -13    1    3    3    0    0 -0.38032613530E+02  0.72790012979E+01  0.21566510020E+03  0.21911389503E+03  0.00000000000E+00 0.  1.
         13    1    3    3    0    0  0.38032613530E+02 -0.72790012979E+01  0.62367142536E+02  0.73410653313E+02  0.00000000000E+00 0. -1.
<mgrwt>
<rscale>  0 0.90932301E+02</rscale>
<asrwt>0</asrwt>
<pdfrwt beam="2">  1        1 0.11147930E-02 0.90932301E+02</pdfrwt>
<pdfrwt beam="1">  1       -1 0.43888975E-01 0.90932301E+02</pdfrwt>
<totfact> 0.62208902E+04</totfact>
</mgrwt>
</event>
<event>
 5    1  0.6112843E+000  0.9276132E+02  0.7546771E-02  0.1296299E+00
          2   -1    0    0  501    0  0.00000000000E+00  0.00000000000E+00  0.90416431994E+02  0.90416431994E+02  0.00000000000E+00 0. -1.
         -2   -1    0    0    0  501 -0.00000000000E+00 -0.00000000000E+00 -0.23791755527E+02  0.23791755527E+02  0.00000000000E+00 0.  1.
         23    2    1    2    0    0  0.00000000000E+00  0.00000000000E+00  0.66624676466E+02  0.11420818752E+03  0.92761320509E+02 0.  0.
        -13    1    3    3    0    0  0.36633055589E+02 -0.60388758926E+01  0.67537106131E+02  0.77069510758E+02  0.00000000000E+00 0. -1.
         13    1    3    3    0    0 -0.36633055589E+02  0.60388758926E+01 -0.91242966517E+00  0.37138676763E+02  0.00000000000E+00 0.  1.
<mgrwt>
<rscale>  0 0.92761321E+02</rscale>
<asrwt>0</asrwt>
<pdfrwt beam="1">  1        2 0.13910220E-01 0.92761321E+02</pdfrwt>
<pdfrwt beam="2">  1       -2 0.36602701E-02 0.92761321E+02</pdfrwt>
<totfact> 0.11347316E+05</totfact>
</mgrwt>
</event>
<event>
 5    1  0.6112843E+000  0.8923755E+02  0.7546771E-02  0.1304709E+00
         -1   -1    0    0    0  501 -0.00000000000E+00  0.00000000000E+00  0.27781900987E+02  0.27781900987E+02  0.00000000000E+00 0.  1.
          1   -1    0    0  501    0  0.00000000000E+00 -0.00000000000E+00 -0.71659429054E+02  0.71659429054E+02  0.00000000000E+00 0. -1.
         23    2    1    2    0    0  0.00000000000E+00  0.00000000000E+00 -0.43877528068E+02  0.99441330041E+02  0.89237551798E+02 0.  0.
        -13    1    3    3    0    0 -0.10231088153E+02 -0.31388171877E+02  0.11509058793E+02  0.34962135702E+02  0.00000000000E+00 0.  1.
         13    1    3    3    0    0  0.10231088153E+02  0.31388171877E+02 -0.55386586860E+02  0.64479194339E+02  0.00000000000E+00 0. -1.
<mgrwt>
<rscale>  0 0.89237552E+02</rscale>
<asrwt>0</asrwt>
<pdfrwt beam="2">  1        1 0.11024527E-01 0.89237552E+02</pdfrwt>
<pdfrwt beam="1">  1       -1 0.42741387E-02 0.89237552E+02</pdfrwt>
<totfact> 0.10505417E+05</totfact>
</mgrwt>
</event>
<event>
 5    1  0.6112843E+000  0.8934515E+02  0.7546771E-02  0.1304445E+00
         -1   -1    0    0    0  501 -0.00000000000E+00  0.00000000000E+00  0.10236742328E+03  0.10236742328E+03  0.00000000000E+00 0.  1.
          1   -1    0    0  501    0  0.00000000000E+00 -0.00000000000E+00 -0.19494864898E+02  0.19494864898E+02  0.00000000000E+00 0. -1.
         23    2    1    2    0    0  0.00000000000E+00  0.00000000000E+00  0.82872558380E+02  0.12186228818E+03  0.89345152901E+02 0.  0.
        -13    1    3    3    0    0 -0.30079607134E+02  0.81834389941E+01  0.85080272839E+02  0.90611281115E+02  0.00000000000E+00 0.  1.
         13    1    3    3    0    0  0.30079607134E+02 -0.81834389941E+01 -0.22077144586E+01  0.31251007060E+02  0.00000000000E+00 0. -1.
<mgrwt>
<rscale>  0 0.89345153E+02</rscale>
<asrwt>0</asrwt>
<pdfrwt beam="2">  1        1 0.29992100E-02 0.89345153E+02</pdfrwt>
<pdfrwt beam="1">  1       -1 0.15748834E-01 0.89345153E+02</pdfrwt>
<totfact> 0.85358874E+04</totfact>
</mgrwt>
</event>
<event>
 5    1  0.6112843E+000  0.9036206E+02  0.7546771E-02  0.1301977E+00
          1   -1    0    0  501    0  0.00000000000E+00  0.00000000000E+00  0.90050574681E+01  0.90050574681E+01  0.00000000000E+00 0. -1.
         -1   -1    0    0    0  501 -0.00000000000E+00 -0.00000000000E+00 -0.22668653202E+03  0.22668653202E+03  0.00000000000E+00 0.  1.
         23    2    1    2    0    0  0.00000000000E+00  0.00000000000E+00 -0.21768147455E+03  0.23569158949E+03  0.90362055046E+02 0.  0.
        -13    1    3    3    0    0  0.18032867488E+02 -0.34522353078E+02 -0.16856734177E+03  0.17300845611E+03  0.00000000000E+00 0.  1.
         13    1    3    3    0    0 -0.18032867488E+02  0.34522353078E+02 -0.49114132777E+02  0.62683133380E+02  0.00000000000E+00 0. -1.
<mgrwt>
<rscale>  0 0.90362055E+02</rscale>
<asrwt>0</asrwt>
<pdfrwt beam="1">  1        1 0.13853935E-02 0.90362055E+02</pdfrwt>
<pdfrwt beam="2">  1       -1 0.34874850E-01 0.90362055E+02</pdfrwt>
<totfact> 0.68449944E+04</totfact>
</mgrwt>
</event>
<event>
 5    1  0.6112843E+000  0.9060472E+02  0.7546771E-02  0.1301394E+00
         -1   -1    0    0    0  501 -0.00000000000E+00  0.00000000000E+00  0.19095420703E+02  0.19095420703E+02  0.00000000000E+00 0.  1.
          1   -1    0    0  501    0  0.00000000000E+00 -0.00000000000E+00 -0.10747622157E+03  0.10747622157E+03  0.00000000000E+00 0. -1.
         23    2    1    2    0    0  0.00000000000E+00  0.00000000000E+00 -0.88380800868E+02  0.12657164227E+03  0.90604716577E+02 0.  0.
        -13    1    3    3    0    0  0.17686751895E+02 -0.20385677833E+02  0.66389178150E+01  0.27793385599E+02  0.00000000000E+00 0.  1.
         13    1    3    3    0    0 -0.17686751895E+02  0.20385677833E+02 -0.95019718683E+02  0.98778256676E+02  0.00000000000E+00 0. -1.
<mgrwt>
<rscale>  0 0.90604717E+02</rscale>
<asrwt>0</asrwt>
<pdfrwt beam="2">  1        1 0.16534803E-01 0.90604717E+02</pdfrwt>
<pdfrwt beam="1">  1       -1 0.29377570E-02 0.90604717E+02</pdfrwt>
<totfact> 0.10754703E+05</totfact>
</mgrwt>
</event>
<event>
 5    1  0.6112843E+000  0.9254056E+02  0.7546771E-02  0.1296813E+00
          3   -1    0    0  501    0  0.00000000000E+00  0.00000000000E+00  0.10528387369E+02  0.10528387369E+02  0.00000000000E+00 0. -1.
         -3   -1    0    0    0  501 -0.00000000000E+00 -0.00000000000E+00 -0.20334914788E+03  0.20334914788E+03  0.00000000000E+00 0.  1.
         23    2    1    2    0    0  0.00000000000E+00  0.00000000000E+00 -0.19282076051E+03  0.21387753525E+03  0.92540555434E+02 0.  0.
        -13    1    3    3    0    0  0.40229671003E+02 -0.94771820395E+01 -0.14448591275E+03  0.15028114450E+03  0.00000000000E+00 0.  1.
         13    1    3    3    0    0 -0.40229671003E+02  0.94771820395E+01 -0.48334847759E+02  0.63596390749E+02  0.00000000000E+00 0. -1.
<mgrwt>
<rscale>  0 0.92540555E+02</rscale>
<asrwt>0</asrwt>
<pdfrwt beam="1">  1        3 0.16197520E-02 0.92540555E+02</pdfrwt>
<pdfrwt beam="2">  1       -3 0.31284483E-01 0.92540555E+02</pdfrwt>
<totfact> 0.26701766E+04</totfact>
</mgrwt>
</event>
<event>
 5    1  0.6112843E+000  0.9166031E+02  0.7546771E-02  0.1298880E+00
         -2   -1    0    0    0  501 -0.00000000000E+00  0.00000000000E+00  0.27218156632E+02  0.27218156632E+02  0.00000000000E+00 0.  1.
          2   -1    0    0  501    0  0.00000000000E+00 -0.00000000000E+00 -0.77169189570E+02  0.77169189570E+02  0.00000000000E+00 0. -1.
         23    2    1    2    0    0  0.00000000000E+00  0.00000000000E+00 -0.49951032938E+02  0.10438734620E+03  0.91660309597E+02 0.  0.
        -13    1    3    3    0    0 -0.66287766161E+01  0.17539025142E+02  0.22650274080E+02  0.29403962288E+02  0.00000000000E+00 0.  1.
         13    1    3    3    0    0  0.66287766161E+01 -0.17539025142E+02 -0.72601307018E+02  0.74983383913E+02  0.00000000000E+00 0. -1.
<mgrwt>
<rscale>  0 0.91660310E+02</rscale>
<asrwt>0</asrwt>
<pdfrwt beam="2">  1        2 0.11872183E-01 0.91660310E+02</pdfrwt>
<pdfrwt beam="1">  1       -2 0.41874087E-02 0.91660310E+02</pdfrwt>
<totfact> 0.11201986E+05</totfact>
</mgrwt>
</event>
<event>
 5    1  0.6112843E+000  0.9135091E+02  0.7546771E-02  0.1299613E+00
          1   -1    0    0  501    0  0.00000000000E+00  0.00000000000E+00  0.18772360643E+02  0.18772360643E+02  0.00000000000E+00 0. -1.
         -1   -1    0    0    0  501 -0.00000000000E+00 -0.00000000000E+00 -0.11113397285E+03  0.11113397285E+03  0.00000000000E+00 0.  1.
         23    2    1    2    0    0  0.00000000000E+00  0.00000000000E+00 -0.92361612208E+02  0.12990633349E+03  0.91350906246E+02 0.  0.
        -13    1    3    3    0    0 -0.29336613685E+02 -0.18127566683E+01 -0.95898461503E+02  0.10030173432E+03  0.00000000000E+00 0.  1.
         13    1    3    3    0    0  0.29336613685E+02  0.18127566683E+01  0.35368492943E+01  0.29604599173E+02  0.00000000000E+00 0. -1.
<mgrwt>
<rscale>  0 0.91350906E+02</rscale>
<asrwt>0</asrwt>
<pdfrwt beam="1">  1        1 0.28880555E-02 0.91350906E+02</pdfrwt>
<pdfrwt beam="2">  1       -1 0.17097534E-01 0.91350906E+02</pdfrwt>
<totfact> 0.79355154E+04</totfact>
</mgrwt>
</event>
<event>
 5    1  0.6112843E+000  0.9260554E+02  0.7546771E-02  0.1296662E+00
          1   -1    0    0  501    0  0.00000000000E+00  0.00000000000E+00  0.34164794305E+03  0.34164794305E+03  0.00000000000E+00 0. -1.
         -1   -1    0    0    0  501 -0.00000000000E+00 -0.00000000000E+00 -0.62753087242E+01  0.62753087242E+01  0.00000000000E+00 0.  1.
         23    2    1    2    0    0  0.00000000000E+00  0.00000000000E+00  0.33537263432E+03  0.34792325177E+03  0.92605535852E+02 0.  0.
        -13    1    3    3    0    0 -0.19320966833E+02  0.41904882304E+02  0.15331720172E+03  0.16011084680E+03  0.00000000000E+00 0.  1.
         13    1    3    3    0    0  0.19320966833E+02 -0.41904882304E+02  0.18205543261E+03  0.18781240497E+03  0.00000000000E+00 0. -1.
<mgrwt>
<rscale>  0 0.92605536E+02</rscale>
<asrwt>0</asrwt>
<pdfrwt beam="1">  1        1 0.52561208E-01 0.92605536E+02</pdfrwt>
<pdfrwt beam="2">  1       -1 0.96543238E-03 0.92605536E+02</pdfrwt>
<totfact> 0.12593640E+05</totfact>
</mgrwt>
</event>
<event>
 5    1  0.6112843E+000  0.1111990E+03  0.7546771E-02  0.1258365E+00
          1   -1    0    0  501    0  0.00000000000E+00  0.00000000000E+00  0.36152639497E+03  0.36152639497E+03  0.00000000000E+00 0. -1.
         -1   -1    0    0    0  501 -0.00000000000E+00 -0.00000000000E+00 -0.85507023871E+01  0.85507023871E+01  0.00000000000E+00 0.  1.
         23    2    1    2    0    0  0.00000000000E+00  0.00000000000E+00  0.35297569258E+03  0.37007709736E+03  0.11119900374E+03 0.  0.
        -13    1    3    3    0    0 -0.24217369429E+02  0.49056462546E+02  0.14349349508E+03  0.15356887911E+03  0.00000000000E+00 0. -1.
         13    1    3    3    0    0  0.24217369429E+02 -0.49056462546E+02  0.20948219750E+03  0.21650821825E+03  0.00000000000E+00 0.  1.
<mgrwt>
<rscale>  0 0.11119900E+03</rscale>
<asrwt>0</asrwt>
<pdfrwt beam="1">  1        1 0.55619434E-01 0.11119900E+03</pdfrwt>
<pdfrwt beam="2">  1       -1 0.13154930E-02 0.11119900E+03</pdfrwt>
<totfact> 0.77796447E+04</totfact>
</mgrwt>
</event>
<event>
 5    1  0.6112843E+000  0.9117497E+02  0.7546771E-02  0.1300031E+00
         -1   -1    0    0    0  501 -0.00000000000E+00  0.00000000000E+00  0.59752631623E+01  0.59752631623E+01  0.00000000000E+00 0.  1.
          1   -1    0    0  501    0  0.00000000000E+00 -0.00000000000E+00 -0.34780373513E+03  0.34780373513E+03  0.00000000000E+00 0. -1.
         23    2    1    2    0    0  0.00000000000E+00  0.00000000000E+00 -0.34182847197E+03  0.35377899829E+03  0.91174971264E+02 0.  0.
        -13    1    3    3    0    0  0.36472434563E+02 -0.26734126953E+02 -0.19329433752E+03  0.19851360896E+03  0.00000000000E+00 0. -1.
         13    1    3    3    0    0 -0.36472434563E+02  0.26734126953E+02 -0.14853413445E+03  0.15526538933E+03  0.00000000000E+00 0.  1.
<mgrwt>
<rscale>  0 0.91174971E+02</rscale>
<asrwt>0</asrwt>
<pdfrwt beam="2">  1        1 0.53508267E-01 0.91174971E+02</pdfrwt>
<pdfrwt beam="1">  1       -1 0.91927126E-03 0.91174971E+02</pdfrwt>
<totfact> 0.13169132E+05</totfact>
</mgrwt>
</event>
<event>
 5    1  0.6112843E+000  0.8759970E+02  0.7546771E-02  0.1308771E+00
         -1   -1    0    0    0  501 -0.00000000000E+00  0.00000000000E+00  0.13702981567E+03  0.13702981567E+03  0.00000000000E+00 0.  1.
          1   -1    0    0  501    0  0.00000000000E+00 -0.00000000000E+00 -0.14000068522E+02  0.14000068522E+02  0.00000000000E+00 0. -1.
         23    2    1    2    0    0  0.00000000000E+00  0.00000000000E+00  0.12302974715E+03  0.15102988420E+03  0.87599698834E+02 0.  0.
        -13    1    3    3    0    0 -0.39447410157E+02  0.14450734475E+02  0.82875865591E+02  0.92915719835E+02  0.00000000000E+00 0.  1.
         13    1    3    3    0    0  0.39447410157E+02 -0.14450734475E+02  0.40153881560E+02  0.58114164360E+02  0.00000000000E+00 0. -1.
<mgrwt>
<rscale>  0 0.87599699E+02</rscale>
<asrwt>0</asrwt>
<pdfrwt beam="2">  1        1 0.21538568E-02 0.87599699E+02</pdfrwt>
<pdfrwt beam="1">  1       -1 0.21081509E-01 0.87599699E+02</pdfrwt>
<totfact> 0.84672668E+04</totfact>
</mgrwt>
</event>
<event>
 5    1  0.6112843E+000  0.9037891E+02  0.7546771E-02  0.1301937E+00
         -3   -1    0    0    0  501 -0.00000000000E+00  0.00000000000E+00  0.72136814413E+02  0.72136814413E+02  0.00000000000E+00 0.  1.
          3   -1    0    0  501    0  0.00000000000E+00 -0.00000000000E+00 -0.28308522324E+02  0.28308522324E+02  0.00000000000E+00 0. -1.
         23    2    1    2    0    0  0.00000000000E+00  0.00000000000E+00  0.43828292088E+02  0.10044533674E+03  0.90378905087E+02 0.  0.
        -13    1    3    3    0    0 -0.16735331656E+02  0.38777993719E+02  0.39775327926E+02  0.58016211822E+02  0.00000000000E+00 0.  1.
         13    1    3    3    0    0  0.16735331656E+02 -0.38777993719E+02  0.40529641621E+01  0.42429124915E+02  0.00000000000E+00 0. -1.
<mgrwt>
<rscale>  0 0.90378905E+02</rscale>
<asrwt>0</asrwt>
<pdfrwt beam="2">  1        3 0.43551573E-02 0.90378905E+02</pdfrwt>
<pdfrwt beam="1">  1       -3 0.11097971E-01 0.90378905E+02</pdfrwt>
<totfact> 0.35476833E+04</totfact>
</mgrwt>
</event>
<event>
 5    1  0.6112843E+000  0.8977856E+02  0.7546771E-02  0.1303389E+00
          2   -1    0    0  501    0  0.00000000000E+00  0.00000000000E+00  0.10369749896E+03  0.10369749896E+03  0.00000000000E+00 0. -1.
         -2   -1    0    0    0  501 -0.00000000000E+00 -0.00000000000E+00 -0.19431977107E+02  0.19431977107E+02  0.00000000000E+00 0.  1.
         23    2    1    2    0    0  0.00000000000E+00  0.00000000000E+00  0.84265521855E+02  0.12312947607E+03  0.89778559265E+02 0.  0.
        -13    1    3    3    0    0 -0.21987323660E+02 -0.18707515059E+02 -0.50117214338E+01  0.29300697485E+02  0.00000000000E+00 0.  1.
         13    1    3    3    0    0  0.21987323660E+02  0.18707515059E+02  0.89277243289E+02  0.93828778585E+02  0.00000000000E+00 0. -1.
<mgrwt>
<rscale>  0 0.89778559E+02</rscale>
<asrwt>0</asrwt>
<pdfrwt beam="1">  1        2 0.15953461E-01 0.89778559E+02</pdfrwt>
<pdfrwt beam="2">  1       -2 0.29895350E-02 0.89778559E+02</pdfrwt>
<totfact> 0.12942068E+05</totfact>
</mgrwt>
</event>
<event>
 5    1  0.6112843E+000  0.9295335E+02  0.7546771E-02  0.1295853E+00
          1   -1    0    0  501    0  0.00000000000E+00  0.00000000000E+00  0.31606174990E+02  0.31606174990E+02  0.00000000000E+00 0. -1.
         -1   -1    0    0    0  501 -0.00000000000E+00 -0.00000000000E+00 -0.68343642257E+02  0.68343642257E+02  0.00000000000E+00 0.  1.
         23    2    1    2    0    0  0.00000000000E+00  0.00000000000E+00 -0.36737467267E+02  0.99949817247E+02  0.92953345644E+02 0.  0.
        -13    1    3    3    0    0  0.25240659802E+02  0.16014715177E+02  0.19898128489E+02  0.35909574305E+02  0.00000000000E+00 0. -1.
         13    1    3    3    0    0 -0.25240659802E+02 -0.16014715177E+02 -0.56635595756E+02  0.64040242942E+02  0.00000000000E+00 0.  1.
<mgrwt>
<rscale>  0 0.92953346E+02</rscale>
<asrwt>0</asrwt>
<pdfrwt beam="1">  1        1 0.48624885E-02 0.92953346E+02</pdfrwt>
<pdfrwt beam="2">  1       -1 0.10514406E-01 0.92953346E+02</pdfrwt>
<totfact> 0.82702390E+04</totfact>
</mgrwt>
</event>
<event>
 5    1  0.6112843E+000  0.8999192E+02  0.7546771E-02  0.1302871E+00
         -1   -1    0    0    0  501 -0.00000000000E+00  0.00000000000E+00  0.12347417098E+03  0.12347417098E+03  0.00000000000E+00 0.  1.
          1   -1    0    0  501    0  0.00000000000E+00 -0.00000000000E+00 -0.16397247172E+02  0.16397247172E+02  0.00000000000E+00 0. -1.
         23    2    1    2    0    0  0.00000000000E+00  0.00000000000E+00  0.10707692381E+03  0.13987141815E+03  0.89991921879E+02 0.  0.
        -13    1    3    3    0    0  0.39322513655E+02  0.15742952256E+02  0.77137522231E+02  0.88001692948E+02  0.00000000000E+00 0.  1.
         13    1    3    3    0    0 -0.39322513655E+02 -0.15742952256E+02  0.29939401576E+02  0.51869725203E+02  0.00000000000E+00 0. -1.
<mgrwt>
<rscale>  0 0.89991922E+02</rscale>
<asrwt>0</asrwt>
<pdfrwt beam="2">  1        1 0.25226535E-02 0.89991922E+02</pdfrwt>
<pdfrwt beam="1">  1       -1 0.18996026E-01 0.89991922E+02</pdfrwt>
<totfact> 0.80753590E+04</totfact>
</mgrwt>
</event>
<event>
 5    1  0.6112843E+000  0.9321079E+02  0.7546771E-02  0.1295257E+00
          1   -1    0    0  501    0  0.00000000000E+00  0.00000000000E+00  0.99307107470E+02  0.99307107470E+02  0.00000000000E+00 0. -1.
         -1   -1    0    0    0  501 -0.00000000000E+00 -0.00000000000E+00 -0.21872177882E+02  0.21872177882E+02  0.00000000000E+00 0.  1.
         23    2    1    2    0    0  0.00000000000E+00  0.00000000000E+00  0.77434929588E+02  0.12117928535E+03  0.93210787349E+02 0.  0.
        -13    1    3    3    0    0  0.22182113029E+02 -0.40062123393E+02  0.49979499757E+02  0.67786209992E+02  0.00000000000E+00 0. -1.
         13    1    3    3    0    0 -0.22182113029E+02  0.40062123393E+02  0.27455429831E+02  0.53393075360E+02  0.00000000000E+00 0.  1.
<mgrwt>
<rscale>  0 0.93210787E+02</rscale>
<asrwt>0</asrwt>
<pdfrwt beam="1">  1        1 0.15278016E-01 0.93210787E+02</pdfrwt>
<pdfrwt beam="2">  1       -1 0.33649505E-02 0.93210787E+02</pdfrwt>
<totfact> 0.98226283E+04</totfact>
</mgrwt>
</event>
<event>
 5    1  0.6112843E+000  0.8952022E+02  0.7546771E-02  0.1304018E+00
         -3   -1    0    0    0  501 -0.00000000000E+00  0.00000000000E+00  0.62257102365E+01  0.62257102365E+01  0.00000000000E+00 0.  1.
          3   -1    0    0  501    0  0.00000000000E+00 -0.00000000000E+00 -0.32180543851E+03  0.32180543851E+03  0.00000000000E+00 0. -1.
         23    2    1    2    0    0  0.00000000000E+00  0.00000000000E+00 -0.31557972827E+03  0.32803114874E+03  0.89520219228E+02 0.  0.
        -13    1    3    3    0    0  0.93477516984E+01  0.38321153841E+02 -0.80267429968E+02  0.89435740100E+02  0.00000000000E+00 0.  1.
         13    1    3    3    0    0 -0.93477516984E+01 -0.38321153841E+02 -0.23531229830E+03  0.23859540864E+03  0.00000000000E+00 0. -1.
<mgrwt>
<rscale>  0 0.89520219E+02</rscale>
<asrwt>0</asrwt>
<pdfrwt beam="2">  1        3 0.49508539E-01 0.89520219E+02</pdfrwt>
<pdfrwt beam="1">  1       -3 0.95780137E-03 0.89520219E+02</pdfrwt>
<totfact> 0.24141397E+04</totfact>
</mgrwt>
</event>
<event>
 5    1  0.6112843E+000  0.9023105E+02  0.7546771E-02  0.1302293E+00
         -2   -1    0    0    0  501 -0.00000000000E+00  0.00000000000E+00  0.24921826934E+02  0.24921826934E+02  0.00000000000E+00 0. -1.
          2   -1    0    0  501    0  0.00000000000E+00 -0.00000000000E+00 -0.81671813543E+02  0.81671813543E+02  0.00000000000E+00 0.  1.
         23    2    1    2    0    0  0.00000000000E+00  0.00000000000E+00 -0.56749986609E+02  0.10659364048E+03  0.90231054577E+02 0.  0.
        -13    1    3    3    0    0  0.28674631473E+02 -0.18791395750E+02 -0.63019914315E+02  0.71741624212E+02  0.00000000000E+00 0.  1.
         13    1    3    3    0    0 -0.28674631473E+02  0.18791395750E+02  0.62699277061E+01  0.34852016265E+02  0.00000000000E+00 0. -1.
<mgrwt>
<rscale>  0 0.90231055E+02</rscale>
<asrwt>0</asrwt>
<pdfrwt beam="2">  1        2 0.12564894E-01 0.90231055E+02</pdfrwt>
<pdfrwt beam="1">  1       -2 0.38341272E-02 0.90231055E+02</pdfrwt>
<totfact> 0.11892795E+05</totfact>
</mgrwt>
</event>
<event>
 5    1  0.6112843E+000  0.9824941E+02  0.7546771E-02  0.1284021E+00
          3   -1    0    0  501    0  0.00000000000E+00  0.00000000000E+00  0.14959097424E+03  0.14959097424E+03  0.00000000000E+00 0. -1.
         -3   -1    0    0    0  501 -0.00000000000E+00 -0.00000000000E+00 -0.16132232815E+02  0.16132232815E+02  0.00000000000E+00 0.  1.
         23    2    1    2    0    0  0.00000000000E+00  0.00000000000E+00  0.13345874143E+03  0.16572320706E+03  0.98249405564E+02 0.  0.
        -13    1    3    3    0    0 -0.47981866135E+02 -0.93205433223E+01  0.58448009637E+02  0.76192531367E+02  0.00000000000E+00 0.  1.
         13    1    3    3    0    0  0.47981866135E+02  0.93205433223E+01  0.75010731790E+02  0.89530675689E+02  0.00000000000E+00 0. -1.
<mgrwt>
<rscale>  0 0.98249406E+02</rscale>
<asrwt>0</asrwt>
<pdfrwt beam="1">  1        3 0.23013995E-01 0.98249406E+02</pdfrwt>
<pdfrwt beam="2">  1       -3 0.24818821E-02 0.98249406E+02</pdfrwt>
<totfact> 0.24787090E+04</totfact>
</mgrwt>
</event>
<event>
 5    1  0.6112843E+000  0.9154295E+02  0.7546771E-02  0.1299158E+00
          2   -1    0    0  501    0  0.00000000000E+00  0.00000000000E+00  0.22446960852E+02  0.22446960852E+02  0.00000000000E+00 0. -1.
         -2   -1    0    0    0  501 -0.00000000000E+00 -0.00000000000E+00 -0.93332356443E+02  0.93332356443E+02  0.00000000000E+00 0.  1.
         23    2    1    2    0    0  0.00000000000E+00  0.00000000000E+00 -0.70885395591E+02  0.11577931729E+03  0.91542946234E+02 0.  0.
        -13    1    3    3    0    0 -0.29970314741E+02  0.68567517017E+01 -0.78328734979E+02  0.84146452884E+02  0.00000000000E+00 0.  1.
         13    1    3    3    0    0  0.29970314741E+02 -0.68567517017E+01  0.74433393886E+01  0.31632864410E+02  0.00000000000E+00 0. -1.
<mgrwt>
<rscale>  0 0.91542946E+02</rscale>
<asrwt>0</asrwt>
<pdfrwt beam="1">  1        2 0.34533786E-02 0.91542946E+02</pdfrwt>
<pdfrwt beam="2">  1       -2 0.14358824E-01 0.91542946E+02</pdfrwt>
<totfact> 0.80638567E+04</totfact>
</mgrwt>
</event>
<event>
 5    1  0.6112843E+000  0.9552373E+02  0.7546771E-02  0.1290001E+00
         -4   -1    0    0    0  501 -0.00000000000E+00  0.00000000000E+00  0.11258967791E+03  0.11258967791E+03  0.00000000000E+00 0.  1.
          4   -1    0    0  501    0  0.00000000000E+00 -0.00000000000E+00 -0.20261143376E+02  0.20261143376E+02  0.00000000000E+00 0. -1.
         23    2    1    2    0    0  0.00000000000E+00  0.00000000000E+00  0.92328534534E+02  0.13285082129E+03  0.95523727037E+02 0.  0.
        -13    1    3    3    0    0 -0.79946893259E+01  0.23027376281E+02  0.10328755081E+03  0.10612489467E+03  0.00000000000E+00 0.  1.
         13    1    3    3    0    0  0.79946893259E+01 -0.23027376281E+02 -0.10959016277E+02  0.26725926617E+02  0.00000000000E+00 0. -1.
<mgrwt>
<rscale>  0 0.95523727E+02</rscale>
<asrwt>0</asrwt>
<pdfrwt beam="2">  1        4 0.31170990E-02 0.95523727E+02</pdfrwt>
<pdfrwt beam="1">  1       -4 0.17321489E-01 0.95523727E+02</pdfrwt>
<totfact> 0.21651139E+04</totfact>
</mgrwt>
</event>
<event>
 5    1  0.6112843E+000  0.8762642E+02  0.7546771E-02  0.1308704E+00
          1   -1    0    0  501    0  0.00000000000E+00  0.00000000000E+00  0.53995880248E+01  0.53995880248E+01  0.00000000000E+00 0. -1.
         -1   -1    0    0    0  501 -0.00000000000E+00 -0.00000000000E+00 -0.35550814386E+03  0.35550814386E+03  0.00000000000E+00 0.  1.
         23    2    1    2    0    0  0.00000000000E+00  0.00000000000E+00 -0.35010855583E+03  0.36090773188E+03  0.87626423328E+02 0.  0.
        -13    1    3    3    0    0 -0.28145051988E+01  0.43259751720E+02 -0.14891752159E+03  0.15509918051E+03  0.00000000000E+00 0. -1.
         13    1    3    3    0    0  0.28145051988E+01 -0.43259751720E+02 -0.20119103424E+03  0.20580855137E+03  0.00000000000E+00 0.  1.
<mgrwt>
<rscale>  0 0.87626423E+02</rscale>
<asrwt>0</asrwt>
<pdfrwt beam="1">  1        1 0.83070575E-03 0.87626423E+02</pdfrwt>
<pdfrwt beam="2">  1       -1 0.54693567E-01 0.87626423E+02</pdfrwt>
<totfact> 0.62555289E+04</totfact>
</mgrwt>
</event>
<event>
 5    1  0.6112843E+000  0.7955493E+02  0.7546771E-02  0.1330319E+00
         -3   -1    0    0    0  501 -0.00000000000E+00  0.00000000000E+00  0.11206759076E+02  0.11206759076E+02  0.00000000000E+00 0.  1.
          3   -1    0    0  501    0  0.00000000000E+00 -0.00000000000E+00 -0.14118683173E+03  0.14118683173E+03  0.00000000000E+00 0. -1.
         23    2    1    2    0    0  0.00000000000E+00  0.00000000000E+00 -0.12998007265E+03  0.15239359080E+03  0.79554932164E+02 0.  0.
        -13    1    3    3    0    0  0.22260532766E+02  0.29661240182E+02 -0.92545483260E+02  0.99699483249E+02  0.00000000000E+00 0. -1.
         13    1    3    3    0    0 -0.22260532766E+02 -0.29661240182E+02 -0.37434589393E+02  0.52694107556E+02  0.00000000000E+00 0.  1.
<mgrwt>
<rscale>  0 0.79554932E+02</rscale>
<asrwt>0</asrwt>
<pdfrwt beam="2">  1        3 0.21721051E-01 0.79554932E+02</pdfrwt>
<pdfrwt beam="1">  1       -3 0.17241167E-02 0.79554932E+02</pdfrwt>
<totfact> 0.44925016E+04</totfact>
</mgrwt>
</event>
<event>
 5    1  0.6112843E+000  0.9342501E+02  0.7546771E-02  0.1294763E+00
         -2   -1    0    0    0  501 -0.00000000000E+00  0.00000000000E+00  0.27064900398E+03  0.27064900398E+03  0.00000000000E+00 0.  1.
          2   -1    0    0  501    0  0.00000000000E+00 -0.00000000000E+00 -0.80623174237E+01  0.80623174237E+01  0.00000000000E+00 0. -1.
         23    2    1    2    0    0  0.00000000000E+00  0.00000000000E+00  0.26258668656E+03  0.27871132141E+03  0.93425011223E+02 0.  0.
        -13    1    3    3    0    0  0.38675890284E+01 -0.46243853806E+02  0.11533751264E+03  0.12432294270E+03  0.00000000000E+00 0. -1.
         13    1    3    3    0    0 -0.38675890284E+01  0.46243853806E+02  0.14724917392E+03  0.15438837871E+03  0.00000000000E+00 0.  1.
<mgrwt>
<rscale>  0 0.93425011E+02</rscale>
<asrwt>0</asrwt>
<pdfrwt beam="2">  1        2 0.12403567E-02 0.93425011E+02</pdfrwt>
<pdfrwt beam="1">  1       -2 0.41638301E-01 0.93425011E+02</pdfrwt>
<totfact> 0.50660923E+04</totfact>
</mgrwt>
</event>
<event>
 5    1  0.6112843E+000  0.8875264E+02  0.7546771E-02  0.1305901E+00
          2   -1    0    0  501    0  0.00000000000E+00  0.00000000000E+00  0.75164736354E+01  0.75164736354E+01  0.00000000000E+00 0. -1.
         -2   -1    0    0    0  501 -0.00000000000E+00 -0.00000000000E+00 -0.26199224205E+03  0.26199224205E+03  0.00000000000E+00 0.  1.
         23    2    1    2    0    0  0.00000000000E+00  0.00000000000E+00 -0.25447576841E+03  0.26950871568E+03  0.88752640073E+02 0.  0.
        -13    1    3    3    0    0 -0.37352301455E+02  0.23823947511E+02 -0.13496959424E+03  0.14205480023E+03  0.00000000000E+00 0.  1.
         13    1    3    3    0    0  0.37352301455E+02 -0.23823947511E+02 -0.11950617417E+03  0.12745391545E+03  0.00000000000E+00 0. -1.
<mgrwt>
<rscale>  0 0.88752640E+02</rscale>
<asrwt>0</asrwt>
<pdfrwt beam="1">  1        2 0.11563809E-02 0.88752640E+02</pdfrwt>
<pdfrwt beam="2">  1       -2 0.40306487E-01 0.88752640E+02</pdfrwt>
<totfact> 0.58785801E+04</totfact>
</mgrwt>
</event>
<event>
 5    1  0.6112843E+000  0.9203509E+02  0.7546771E-02  0.1297997E+00
         -2   -1    0    0    0  501 -0.00000000000E+00  0.00000000000E+00  0.16707753796E+02  0.16707753796E+02  0.00000000000E+00 0.  1.
          2   -1    0    0  501    0  0.00000000000E+00 -0.00000000000E+00 -0.12674440444E+03  0.12674440444E+03  0.00000000000E+00 0. -1.
         23    2    1    2    0    0  0.00000000000E+00  0.00000000000E+00 -0.11003665064E+03  0.14345215823E+03  0.92035086883E+02 0.  0.
        -13    1    3    3    0    0  0.47403521461E+00 -0.23330445112E+02 -0.11683833297E+03  0.11914583681E+03  0.00000000000E+00 0. -1.
         13    1    3    3    0    0 -0.47403521461E+00  0.23330445112E+02  0.68016823292E+01  0.24306321421E+02  0.00000000000E+00 0.  1.
<mgrwt>
<rscale>  0 0.92035087E+02</rscale>
<asrwt>0</asrwt>
<pdfrwt beam="2">  1        2 0.19499139E-01 0.92035087E+02</pdfrwt>
<pdfrwt beam="1">  1       -2 0.25704237E-02 0.92035087E+02</pdfrwt>
<totfact> 0.12883834E+05</totfact>
</mgrwt>
</event>
<event>
 5    1  0.6112843E+000  0.8893591E+02  0.7546771E-02  0.1305449E+00
         -2   -1    0    0    0  501 -0.00000000000E+00  0.00000000000E+00  0.64263145271E+02  0.64263145271E+02  0.00000000000E+00 0.  1.
          2   -1    0    0  501    0  0.00000000000E+00 -0.00000000000E+00 -0.30770346398E+02  0.30770346398E+02  0.00000000000E+00 0. -1.
         23    2    1    2    0    0  0.00000000000E+00  0.00000000000E+00  0.33492798873E+02  0.95033491669E+02  0.88935914920E+02 0.  0.
        -13    1    3    3    0    0  0.21978654662E+02  0.20995605086E+01  0.57992454382E+02  0.62053156087E+02  0.00000000000E+00 0.  1.
         13    1    3    3    0    0 -0.21978654662E+02 -0.20995605086E+01 -0.24499655510E+02  0.32980335583E+02  0.00000000000E+00 0. -1.
<mgrwt>
<rscale>  0 0.88935915E+02</rscale>
<asrwt>0</asrwt>
<pdfrwt beam="2">  1        2 0.47338995E-02 0.88935915E+02</pdfrwt>
<pdfrwt beam="1">  1       -2 0.98866377E-02 0.88935915E+02</pdfrwt>
<totfact> 0.95848781E+04</totfact>
</mgrwt>
</event>
<event>
 5    1  0.6112843E+000  0.8470644E+02  0.7546771E-02  0.1316202E+00
          3   -1    0    0  501    0  0.00000000000E+00  0.00000000000E+00  0.14001691036E+02  0.14001691036E+02  0.00000000000E+00 0. -1.
         -3   -1    0    0    0  501 -0.00000000000E+00 -0.00000000000E+00 -0.12811275814E+03  0.12811275814E+03  0.00000000000E+00 0.  1.
         23    2    1    2    0    0  0.00000000000E+00  0.00000000000E+00 -0.11411106710E+03  0.14211444917E+03  0.84706440302E+02 0.  0.
        -13    1    3    3    0    0  0.69919256014E+01  0.24342372238E+02 -0.11400836952E+03  0.11678761249E+03  0.00000000000E+00 0.  1.
         13    1    3    3    0    0 -0.69919256014E+01 -0.24342372238E+02 -0.10269758280E+00  0.25326836687E+02  0.00000000000E+00 0. -1.
<mgrwt>
<rscale>  0 0.84706440E+02</rscale>
<asrwt>0</asrwt>
<pdfrwt beam="1">  1        3 0.21541062E-02 0.84706440E+02</pdfrwt>
<pdfrwt beam="2">  1       -3 0.19709656E-01 0.84706440E+02</pdfrwt>
<totfact> 0.38773872E+04</totfact>
</mgrwt>
</event>
<event>
 5    1  0.6112843E+000  0.9003136E+02  0.7546771E-02  0.1302776E+00
         -1   -1    0    0    0  501 -0.00000000000E+00  0.00000000000E+00  0.20753373579E+02  0.20753373579E+02  0.00000000000E+00 0.  1.
          1   -1    0    0  501    0  0.00000000000E+00 -0.00000000000E+00 -0.97642511624E+02  0.97642511624E+02  0.00000000000E+00 0. -1.
         23    2    1    2    0    0  0.00000000000E+00  0.00000000000E+00 -0.76889138046E+02  0.11839588520E+03  0.90031361667E+02 0.  0.
        -13    1    3    3    0    0 -0.38867306501E+02 -0.40267513161E+01 -0.90529665471E+01  0.40110328397E+02  0.00000000000E+00 0.  1.
         13    1    3    3    0    0  0.38867306501E+02  0.40267513161E+01 -0.67836171499E+02  0.78285556806E+02  0.00000000000E+00 0. -1.
<mgrwt>
<rscale>  0 0.90031362E+02</rscale>
<asrwt>0</asrwt>
<pdfrwt beam="2">  1        1 0.15021925E-01 0.90031362E+02</pdfrwt>
<pdfrwt beam="1">  1       -1 0.31928267E-02 0.90031362E+02</pdfrwt>
<totfact> 0.10768451E+05</totfact>
</mgrwt>
</event>
<event>
 5    1  0.6112843E+000  0.9369272E+02  0.7546771E-02  0.1294148E+00
          2   -1    0    0  501    0  0.00000000000E+00  0.00000000000E+00  0.17362486827E+02  0.17362486827E+02  0.00000000000E+00 0. -1.
         -2   -1    0    0    0  501 -0.00000000000E+00 -0.00000000000E+00 -0.12639787221E+03  0.12639787221E+03  0.00000000000E+00 0.  1.
         23    2    1    2    0    0  0.00000000000E+00  0.00000000000E+00 -0.10903538538E+03  0.14376035904E+03  0.93692718847E+02 0.  0.
        -13    1    3    3    0    0 -0.34475108979E+02 -0.25714250309E+02 -0.83010356028E+02  0.93490507625E+02  0.00000000000E+00 0.  1.
         13    1    3    3    0    0  0.34475108979E+02  0.25714250309E+02 -0.26025029356E+02  0.50269851413E+02  0.00000000000E+00 0. -1.
<mgrwt>
<rscale>  0 0.93692719E+02</rscale>
<asrwt>0</asrwt>
<pdfrwt beam="1">  1        2 0.26711519E-02 0.93692719E+02</pdfrwt>
<pdfrwt beam="2">  1       -2 0.19445826E-01 0.93692719E+02</pdfrwt>
<totfact> 0.69232282E+04</totfact>
</mgrwt>
</event>
<event>
 5    1  0.6112843E+000  0.8885706E+02  0.7546771E-02  0.1305643E+00
         -3   -1    0    0    0  501 -0.00000000000E+00  0.00000000000E+00  0.17415244185E+02  0.17415244185E+02  0.00000000000E+00 0.  1.
          3   -1    0    0  501    0  0.00000000000E+00 -0.00000000000E+00 -0.11334291084E+03  0.11334291084E+03  0.00000000000E+00 0. -1.
         23    2    1    2    0    0  0.00000000000E+00  0.00000000000E+00 -0.95927666652E+02  0.13075815502E+03  0.88857064298E+02 0.  0.
        -13    1    3    3    0    0 -0.21486483460E+02 -0.19124801819E+02 -0.97790024320E+02  0.10193289887E+03  0.00000000000E+00 0. -1.
         13    1    3    3    0    0  0.21486483460E+02  0.19124801819E+02  0.18623576673E+01  0.28825256151E+02  0.00000000000E+00 0.  1.
<mgrwt>
<rscale>  0 0.88857064E+02</rscale>
<asrwt>0</asrwt>
<pdfrwt beam="2">  1        3 0.17437371E-01 0.88857064E+02</pdfrwt>
<pdfrwt beam="1">  1       -3 0.26792684E-02 0.88857064E+02</pdfrwt>
<totfact> 0.34873963E+04</totfact>
</mgrwt>
</event>
<event>
 5    1  0.6112843E+000  0.9123542E+02  0.7546771E-02  0.1299887E+00
          3   -1    0    0  501    0  0.00000000000E+00  0.00000000000E+00  0.87070854798E+02  0.87070854798E+02  0.00000000000E+00 0. -1.
         -3   -1    0    0    0  501 -0.00000000000E+00 -0.00000000000E+00 -0.23899795863E+02  0.23899795863E+02  0.00000000000E+00 0.  1.
         23    2    1    2    0    0  0.00000000000E+00  0.00000000000E+00  0.63171058934E+02  0.11097065066E+03  0.91235424158E+02 0.  0.
        -13    1    3    3    0    0 -0.21676769290E+02 -0.21407708735E+02  0.72882885624E+02  0.78994223440E+02  0.00000000000E+00 0. -1.
         13    1    3    3    0    0  0.21676769290E+02  0.21407708735E+02 -0.97118266890E+01  0.31976427221E+02  0.00000000000E+00 0.  1.
<mgrwt>
<rscale>  0 0.91235424E+02</rscale>
<asrwt>0</asrwt>
<pdfrwt beam="1">  1        3 0.13395516E-01 0.91235424E+02</pdfrwt>
<pdfrwt beam="2">  1       -3 0.36768917E-02 0.91235424E+02</pdfrwt>
<totfact> 0.33816435E+04</totfact>
</mgrwt>
</event>
<event>
 5    1  0.6112843E+000  0.9041430E+02  0.7546771E-02  0.1301851E+00
         -3   -1    0    0    0  501 -0.00000000000E+00  0.00000000000E+00  0.95583590647E+02  0.95583590647E+02  0.00000000000E+00 0.  1.
          3   -1    0    0  501    0  0.00000000000E+00 -0.00000000000E+00 -0.21381145114E+02  0.21381145114E+02  0.00000000000E+00 0. -1.
         23    2    1    2    0    0  0.00000000000E+00  0.00000000000E+00  0.74202445533E+02  0.11696473576E+03  0.90414304667E+02 0.  0.
        -13    1    3    3    0    0 -0.23166750296E+02  0.11215424436E+02 -0.10976787322E+02  0.27981671224E+02  0.00000000000E+00 0. -1.
         13    1    3    3    0    0  0.23166750296E+02 -0.11215424436E+02  0.85179232855E+02  0.88983064537E+02  0.00000000000E+00 0.  1.
<mgrwt>
<rscale>  0 0.90414305E+02</rscale>
<asrwt>0</asrwt>
<pdfrwt beam="2">  1        3 0.32894070E-02 0.90414305E+02</pdfrwt>
<pdfrwt beam="1">  1       -3 0.14705168E-01 0.90414305E+02</pdfrwt>
<totfact> 0.34227781E+04</totfact>
</mgrwt>
</event>
<event>
 5    1  0.6112843E+000  0.9056710E+02  0.7546771E-02  0.1301484E+00
          1   -1    0    0  501    0  0.00000000000E+00  0.00000000000E+00  0.25829656594E+02  0.25829656594E+02  0.00000000000E+00 0. -1.
         -1   -1    0    0    0  501 -0.00000000000E+00 -0.00000000000E+00 -0.79389357318E+02  0.79389357318E+02  0.00000000000E+00 0.  1.
         23    2    1    2    0    0  0.00000000000E+00  0.00000000000E+00 -0.53559700724E+02  0.10521901391E+03  0.90567098589E+02 0.  0.
        -13    1    3    3    0    0  0.14179088148E+02 -0.35557318446E+01 -0.76572784616E+02  0.77955635546E+02  0.00000000000E+00 0.  1.
         13    1    3    3    0    0 -0.14179088148E+02  0.35557318446E+01  0.23013083892E+02  0.27263378365E+02  0.00000000000E+00 0. -1.
<mgrwt>
<rscale>  0 0.90567099E+02</rscale>
<asrwt>0</asrwt>
<pdfrwt beam="1">  1        1 0.39737934E-02 0.90567099E+02</pdfrwt>
<pdfrwt beam="2">  1       -1 0.12213747E-01 0.90567099E+02</pdfrwt>
<totfact> 0.86227339E+04</totfact>
</mgrwt>
</event>
<event>
 5    1  0.6112843E+000  0.8496985E+02  0.7546771E-02  0.1315511E+00
         -3   -1    0    0    0  501 -0.00000000000E+00  0.00000000000E+00  0.24666688862E+03  0.24666688862E+03  0.00000000000E+00 0.  1.
          3   -1    0    0  501    0  0.00000000000E+00 -0.00000000000E+00 -0.73174355089E+01  0.73174355089E+01  0.00000000000E+00 0. -1.
         23    2    1    2    0    0  0.00000000000E+00  0.00000000000E+00  0.23934945311E+03  0.25398432413E+03  0.84969854646E+02 0.  0.
        -13    1    3    3    0    0  0.40118745452E+02 -0.12617599463E+02  0.13767192929E+03  0.14395234512E+03  0.00000000000E+00 0.  1.
         13    1    3    3    0    0 -0.40118745452E+02  0.12617599463E+02  0.10167752382E+03  0.11003197900E+03  0.00000000000E+00 0. -1.
<mgrwt>
<rscale>  0 0.84969855E+02</rscale>
<asrwt>0</asrwt>
<pdfrwt beam="2">  1        3 0.11257595E-02 0.84969855E+02</pdfrwt>
<pdfrwt beam="1">  1       -3 0.37948746E-01 0.84969855E+02</pdfrwt>
<totfact> 0.31304605E+04</totfact>
</mgrwt>
</event>
<event>
 5    1  0.6112843E+000  0.9180661E+02  0.7546771E-02  0.1298535E+00
          2   -1    0    0  501    0  0.00000000000E+00  0.00000000000E+00  0.84524921381E+02  0.84524921381E+02  0.00000000000E+00 0. -1.
         -2   -1    0    0    0  501 -0.00000000000E+00 -0.00000000000E+00 -0.24928902172E+02  0.24928902172E+02  0.00000000000E+00 0.  1.
         23    2    1    2    0    0  0.00000000000E+00  0.00000000000E+00  0.59596019210E+02  0.10945382355E+03  0.91806611879E+02 0.  0.
        -13    1    3    3    0    0  0.90939133292E+01  0.26735575661E+02  0.72942978717E+02  0.78218721606E+02  0.00000000000E+00 0. -1.
         13    1    3    3    0    0 -0.90939133292E+01 -0.26735575661E+02 -0.13346959507E+02  0.31235101947E+02  0.00000000000E+00 0.  1.
<mgrwt>
<rscale>  0 0.91806612E+02</rscale>
<asrwt>0</asrwt>
<pdfrwt beam="1">  1        2 0.13003834E-01 0.91806612E+02</pdfrwt>
<pdfrwt beam="2">  1       -2 0.38352158E-02 0.91806612E+02</pdfrwt>
<totfact> 0.11448234E+05</totfact>
</mgrwt>
</event>
<event>
 5    1  0.6112843E+000  0.8846323E+02  0.7546771E-02  0.1306616E+00
         -1   -1    0    0    0  501 -0.00000000000E+00  0.00000000000E+00  0.29185196766E+03  0.29185196766E+03  0.00000000000E+00 0.  1.
          1   -1    0    0  501    0  0.00000000000E+00 -0.00000000000E+00 -0.67035205740E+01  0.67035205740E+01  0.00000000000E+00 0. -1.
         23    2    1    2    0    0  0.00000000000E+00  0.00000000000E+00  0.28514844708E+03  0.29855548823E+03  0.88463227835E+02 0.  0.
        -13    1    3    3    0    0  0.34522794512E+02  0.24081449500E+02  0.96708192369E+02  0.10547138959E+03  0.00000000000E+00 0. -1.
         13    1    3    3    0    0 -0.34522794512E+02 -0.24081449500E+02  0.18844025471E+03  0.19308409864E+03  0.00000000000E+00 0.  1.
<mgrwt>
<rscale>  0 0.88463228E+02</rscale>
<asrwt>0</asrwt>
<pdfrwt beam="2">  1        1 0.10313111E-02 0.88463228E+02</pdfrwt>
<pdfrwt beam="1">  1       -1 0.44900293E-01 0.88463228E+02</pdfrwt>
<totfact> 0.66264988E+04</totfact>
</mgrwt>
</event>
<event>
 5    1  0.6112843E+000  0.9134582E+02  0.7546771E-02  0.1299625E+00
          3   -1    0    0  501    0  0.00000000000E+00  0.00000000000E+00  0.34638157094E+02  0.34638157094E+02  0.00000000000E+00 0. -1.
         -3   -1    0    0    0  501 -0.00000000000E+00 -0.00000000000E+00 -0.60223025129E+02  0.60223025129E+02  0.00000000000E+00 0.  1.
         23    2    1    2    0    0  0.00000000000E+00  0.00000000000E+00 -0.25584868035E+02  0.94861182223E+02  0.91345817750E+02 0.  0.
        -13    1    3    3    0    0 -0.24296104062E+02 -0.85360789875E+01  0.26379887930E+02  0.36865482558E+02  0.00000000000E+00 0. -1.
         13    1    3    3    0    0  0.24296104062E+02  0.85360789875E+01 -0.51964755965E+02  0.57995699664E+02  0.00000000000E+00 0.  1.
<mgrwt>
<rscale>  0 0.91345818E+02</rscale>
<asrwt>0</asrwt>
<pdfrwt beam="1">  1        3 0.53289473E-02 0.91345818E+02</pdfrwt>
<pdfrwt beam="2">  1       -3 0.92650807E-02 0.91345818E+02</pdfrwt>
<totfact> 0.34881249E+04</totfact>
</mgrwt>
</event>
<event>
 5    1  0.6112843E+000  0.8972185E+02  0.7546771E-02  0.1303527E+00
          1   -1    0    0  501    0  0.00000000000E+00  0.00000000000E+00  0.20234817785E+03  0.20234817785E+03  0.00000000000E+00 0. -1.
         -1   -1    0    0    0  501 -0.00000000000E+00 -0.00000000000E+00 -0.99457404383E+01  0.99457404383E+01  0.00000000000E+00 0.  1.
         23    2    1    2    0    0  0.00000000000E+00  0.00000000000E+00  0.19240243742E+03  0.21229391829E+03  0.89721846952E+02 0.  0.
        -13    1    3    3    0    0 -0.35934190173E+02 -0.51436184399E+00  0.15973409333E+03  0.16372694086E+03  0.00000000000E+00 0. -1.
         13    1    3    3    0    0  0.35934190173E+02  0.51436184399E+00  0.32668344083E+02  0.48566977430E+02  0.00000000000E+00 0.  1.
<mgrwt>
<rscale>  0 0.89721847E+02</rscale>
<asrwt>0</asrwt>
<pdfrwt beam="1">  1        1 0.31130486E-01 0.89721847E+02</pdfrwt>
<pdfrwt beam="2">  1       -1 0.15301141E-02 0.89721847E+02</pdfrwt>
<totfact> 0.12389725E+05</totfact>
</mgrwt>
</event>
<event>
 5    1  0.6112843E+000  0.9115363E+02  0.7546771E-02  0.1300082E+00
          3   -1    0    0  501    0  0.00000000000E+00  0.00000000000E+00  0.40534348872E+01  0.40534348872E+01  0.00000000000E+00 0. -1.
         -3   -1    0    0    0  501 -0.00000000000E+00 -0.00000000000E+00 -0.51246563574E+03  0.51246563574E+03  0.00000000000E+00 0.  1.
         23    2    1    2    0    0  0.00000000000E+00  0.00000000000E+00 -0.50841220085E+03  0.51651907063E+03  0.91153630458E+02 0.  0.
        -13    1    3    3    0    0 -0.24557574567E+02  0.38371967206E+02 -0.24668067650E+03  0.25085222442E+03  0.00000000000E+00 0. -1.
         13    1    3    3    0    0  0.24557574567E+02 -0.38371967206E+02 -0.26173152435E+03  0.26566684621E+03  0.00000000000E+00 0.  1.
<mgrwt>
<rscale>  0 0.91153630E+02</rscale>
<asrwt>0</asrwt>
<pdfrwt beam="1">  1        3 0.62360530E-03 0.91153630E+02</pdfrwt>
<pdfrwt beam="2">  1       -3 0.78840876E-01 0.91153630E+02</pdfrwt>
<totfact> 0.17509338E+04</totfact>
</mgrwt>
</event>
<event>
 5    1  0.6112843E+000  0.9318619E+02  0.7546771E-02  0.1295314E+00
         -3   -1    0    0    0  501 -0.00000000000E+00  0.00000000000E+00  0.23354060353E+02  0.23354060353E+02  0.00000000000E+00 0.  1.
          3   -1    0    0  501    0  0.00000000000E+00 -0.00000000000E+00 -0.92956699351E+02  0.92956699351E+02  0.00000000000E+00 0. -1.
         23    2    1    2    0    0  0.00000000000E+00  0.00000000000E+00 -0.69602638998E+02  0.11631075970E+03  0.93186187107E+02 0.  0.
        -13    1    3    3    0    0 -0.46014411688E+00  0.23579566418E+02 -0.84956458746E+02  0.88169198520E+02  0.00000000000E+00 0. -1.
         13    1    3    3    0    0  0.46014411688E+00 -0.23579566418E+02  0.15353819748E+02  0.28141561184E+02  0.00000000000E+00 0.  1.
<mgrwt>
<rscale>  0 0.93186187E+02</rscale>
<asrwt>0</asrwt>
<pdfrwt beam="2">  1        3 0.14301031E-01 0.93186187E+02</pdfrwt>
<pdfrwt beam="1">  1       -3 0.35929322E-02 0.93186187E+02</pdfrwt>
<totfact> 0.31568899E+04</totfact>
</mgrwt>
</event>
<event>
 5    1  0.6112843E+000  0.8934158E+02  0.7546771E-02  0.1304454E+00
          4   -1    0    0  501    0  0.00000000000E+00  0.00000000000E+00  0.69791283539E+02  0.69791283539E+02  0.00000000000E+00 0. -1.
         -4   -1    0    0    0  501 -0.00000000000E+00 -0.00000000000E+00 -0.28592101740E+02  0.28592101740E+02  0.00000000000E+00 0.  1.
         23    2    1    2    0    0  0.00000000000E+00  0.00000000000E+00  0.41199181799E+02  0.98383385279E+02  0.89341580006E+02 0.  0.
        -13    1    3    3    0    0  0.30014163424E+02  0.19701287070E+02 -0.86702769869E+01  0.36934596536E+02  0.00000000000E+00 0.  1.
         13    1    3    3    0    0 -0.30014163424E+02 -0.19701287070E+02  0.49869458786E+02  0.61448788742E+02  0.00000000000E+00 0. -1.
<mgrwt>
<rscale>  0 0.89341580E+02</rscale>
<asrwt>0</asrwt>
<pdfrwt beam="1">  1        4 0.10737121E-01 0.89341580E+02</pdfrwt>
<pdfrwt beam="2">  1       -4 0.43987849E-02 0.89341580E+02</pdfrwt>
<totfact> 0.28059087E+04</totfact>
</mgrwt>
</event>
<event>
 5    1  0.6112843E+000  0.9102820E+02  0.7546771E-02  0.1300381E+00
          3   -1    0    0  501    0  0.00000000000E+00  0.00000000000E+00  0.19534546729E+02  0.19534546729E+02  0.00000000000E+00 0. -1.
         -3   -1    0    0    0  501 -0.00000000000E+00 -0.00000000000E+00 -0.10604461430E+03  0.10604461430E+03  0.00000000000E+00 0.  1.
         23    2    1    2    0    0  0.00000000000E+00  0.00000000000E+00 -0.86510067570E+02  0.12557916103E+03  0.91028203836E+02 0.  0.
        -13    1    3    3    0    0  0.19238219227E+02 -0.37964170155E+02 -0.21003993014E+02  0.47461089506E+02  0.00000000000E+00 0. -1.
         13    1    3    3    0    0 -0.19238219227E+02  0.37964170155E+02 -0.65506074556E+02  0.78118071522E+02  0.00000000000E+00 0.  1.
<mgrwt>
<rscale>  0 0.91028204E+02</rscale>
<asrwt>0</asrwt>
<pdfrwt beam="1">  1        3 0.30053149E-02 0.91028204E+02</pdfrwt>
<pdfrwt beam="2">  1       -3 0.16314556E-01 0.91028204E+02</pdfrwt>
<totfact> 0.33016822E+04</totfact>
</mgrwt>
</event>
<event>
 5    1  0.6112843E+000  0.8985356E+02  0.7546771E-02  0.1303207E+00
          1   -1    0    0  501    0  0.00000000000E+00  0.00000000000E+00  0.28150466305E+03  0.28150466305E+03  0.00000000000E+00 0. -1.
         -1   -1    0    0    0  501 -0.00000000000E+00 -0.00000000000E+00 -0.71700962260E+01  0.71700962260E+01  0.00000000000E+00 0.  1.
         23    2    1    2    0    0  0.00000000000E+00  0.00000000000E+00  0.27433456682E+03  0.28867475928E+03  0.89853559131E+02 0.  0.
        -13    1    3    3    0    0 -0.12367779480E+02 -0.39800799382E+02  0.19105588665E+03  0.19554901540E+03  0.00000000000E+00 0.  1.
         13    1    3    3    0    0  0.12367779480E+02  0.39800799382E+02  0.83278680174E+02  0.93125743875E+02  0.00000000000E+00 0. -1.
<mgrwt>
<rscale>  0 0.89853559E+02</rscale>
<asrwt>0</asrwt>
<pdfrwt beam="1">  1        1 0.43308401E-01 0.89853559E+02</pdfrwt>
<pdfrwt beam="2">  1       -1 0.11030919E-02 0.89853559E+02</pdfrwt>
<totfact> 0.13158989E+05</totfact>
</mgrwt>
</event>
<event>
 5    1  0.6112843E+000  0.9189362E+02  0.7546771E-02  0.1298330E+00
          1   -1    0    0  501    0  0.00000000000E+00  0.00000000000E+00  0.33499144829E+03  0.33499144829E+03  0.00000000000E+00 0. -1.
         -1   -1    0    0    0  501 -0.00000000000E+00 -0.00000000000E+00 -0.63019791813E+01  0.63019791813E+01  0.00000000000E+00 0.  1.
         23    2    1    2    0    0  0.00000000000E+00  0.00000000000E+00  0.32868946911E+03  0.34129342747E+03  0.91893615296E+02 0.  0.
        -13    1    3    3    0    0  0.28237918640E+02  0.34283220678E+02  0.20803601050E+03  0.21272447187E+03  0.00000000000E+00 0. -1.
         13    1    3    3    0    0 -0.28237918640E+02 -0.34283220678E+02  0.12065345861E+03  0.12856895560E+03  0.00000000000E+00 0.  1.
<mgrwt>
<rscale>  0 0.91893615E+02</rscale>
<asrwt>0</asrwt>
<pdfrwt beam="1">  1        1 0.51537132E-01 0.91893615E+02</pdfrwt>
<pdfrwt beam="2">  1       -1 0.96953552E-03 0.91893615E+02</pdfrwt>
<totfact> 0.12809310E+05</totfact>
</mgrwt>
</event>
<event>
 5    1  0.6112843E+000  0.9110515E+02  0.7546771E-02  0.1300197E+00
          2   -1    0    0  501    0  0.00000000000E+00  0.00000000000E+00  0.15084396004E+02  0.15084396004E+02  0.00000000000E+00 0. -1.
         -2   -1    0    0    0  501 -0.00000000000E+00 -0.00000000000E+00 -0.13756181884E+03  0.13756181884E+03  0.00000000000E+00 0.  1.
         23    2    1    2    0    0  0.00000000000E+00  0.00000000000E+00 -0.12247742283E+03  0.15264621484E+03  0.91105146954E+02 0.  0.
        -13    1    3    3    0    0 -0.10965465335E+02  0.30696785180E+02 -0.11455271103E+03  0.11910020006E+03  0.00000000000E+00 0.  1.
         13    1    3    3    0    0  0.10965465335E+02 -0.30696785180E+02 -0.79247118013E+01  0.33546014778E+02  0.00000000000E+00 0. -1.
<mgrwt>
<rscale>  0 0.91105147E+02</rscale>
<asrwt>0</asrwt>
<pdfrwt beam="1">  1        2 0.23206764E-02 0.91105147E+02</pdfrwt>
<pdfrwt beam="2">  1       -2 0.21163356E-01 0.91105147E+02</pdfrwt>
<totfact> 0.72183440E+04</totfact>
</mgrwt>
</event>
<event>
 5    1  0.6112843E+000  0.8721743E+02  0.7546771E-02  0.1309734E+00
         -1   -1    0    0    0  501 -0.00000000000E+00  0.00000000000E+00  0.13945281130E+03  0.13945281130E+03  0.00000000000E+00 0.  1.
          1   -1    0    0  501    0  0.00000000000E+00 -0.00000000000E+00 -0.13637013178E+02  0.13637013178E+02  0.00000000000E+00 0. -1.
         23    2    1    2    0    0  0.00000000000E+00  0.00000000000E+00  0.12581579812E+03  0.15308982447E+03  0.87217425445E+02 0.  0.
        -13    1    3    3    0    0 -0.41624075147E+02 -0.12758081566E+02  0.67344089272E+02  0.80190764038E+02  0.00000000000E+00 0. -1.
         13    1    3    3    0    0  0.41624075147E+02  0.12758081566E+02  0.58471708847E+02  0.72899060437E+02  0.00000000000E+00 0.  1.
<mgrwt>
<rscale>  0 0.87217425E+02</rscale>
<asrwt>0</asrwt>
<pdfrwt beam="2">  1        1 0.20980021E-02 0.87217425E+02</pdfrwt>
<pdfrwt beam="1">  1       -1 0.21454278E-01 0.87217425E+02</pdfrwt>
<totfact> 0.85304735E+04</totfact>
</mgrwt>
</event>
<event>
 5    1  0.6112843E+000  0.9159349E+02  0.7546771E-02  0.1299038E+00
         -2   -1    0    0    0  501 -0.00000000000E+00  0.00000000000E+00  0.54935733520E+01  0.54935733520E+01  0.00000000000E+00 0.  1.
          2   -1    0    0  501    0  0.00000000000E+00 -0.00000000000E+00 -0.38178096047E+03  0.38178096047E+03  0.00000000000E+00 0. -1.
         23    2    1    2    0    0  0.00000000000E+00  0.00000000000E+00 -0.37628738712E+03  0.38727453382E+03  0.91593486902E+02 0.  0.
        -13    1    3    3    0    0  0.44946764210E+02 -0.87789271895E+01 -0.18918399258E+03  0.19464805220E+03  0.00000000000E+00 0. -1.
         13    1    3    3    0    0 -0.44946764210E+02  0.87789271895E+01 -0.18710339453E+03  0.19262648162E+03  0.00000000000E+00 0.  1.
<mgrwt>
<rscale>  0 0.91593487E+02</rscale>
<asrwt>0</asrwt>
<pdfrwt beam="2">  1        2 0.58735540E-01 0.91593487E+02</pdfrwt>
<pdfrwt beam="1">  1       -2 0.84516502E-03 0.91593487E+02</pdfrwt>
<totfact> 0.19393951E+05</totfact>
</mgrwt>
</event>
<event>
 5    1  0.6112843E+000  0.8353649E+02  0.7546771E-02  0.1319305E+00
         -2   -1    0    0    0  501 -0.00000000000E+00  0.00000000000E+00  0.13596510615E+03  0.13596510615E+03  0.00000000000E+00 0.  1.
          2   -1    0    0  501    0  0.00000000000E+00 -0.00000000000E+00 -0.12831133593E+02  0.12831133593E+02  0.00000000000E+00 0. -1.
         23    2    1    2    0    0  0.00000000000E+00  0.00000000000E+00  0.12313397256E+03  0.14879623974E+03  0.83536493604E+02 0.  0.
        -13    1    3    3    0    0 -0.34292999366E+01 -0.40050488298E+02  0.81780783279E+02  0.91125727568E+02  0.00000000000E+00 0.  1.
         13    1    3    3    0    0  0.34292999366E+01  0.40050488298E+02  0.41353189276E+02  0.57670512173E+02  0.00000000000E+00 0. -1.
<mgrwt>
<rscale>  0 0.83536494E+02</rscale>
<asrwt>0</asrwt>
<pdfrwt beam="2">  1        2 0.19740207E-02 0.83536494E+02</pdfrwt>
<pdfrwt beam="1">  1       -2 0.20917708E-01 0.83536494E+02</pdfrwt>
<totfact> 0.90178646E+04</totfact>
</mgrwt>
</event>
<event>
 5    1  0.6112843E+000  0.8973525E+02  0.7546771E-02  0.1303494E+00
          1   -1    0    0  501    0  0.00000000000E+00  0.00000000000E+00  0.25706459935E+03  0.25706459935E+03  0.00000000000E+00 0. -1.
         -1   -1    0    0    0  501 -0.00000000000E+00 -0.00000000000E+00 -0.78311208121E+01  0.78311208121E+01  0.00000000000E+00 0.  1.
         23    2    1    2    0    0  0.00000000000E+00  0.00000000000E+00  0.24923347854E+03  0.26489572016E+03  0.89735253586E+02 0.  0.
        -13    1    3    3    0    0  0.29972440930E+02 -0.21080667333E+02  0.48186256885E+02  0.60536411382E+02  0.00000000000E+00 0.  1.
         13    1    3    3    0    0 -0.29972440930E+02  0.21080667333E+02  0.20104722165E+03  0.20435930878E+03  0.00000000000E+00 0. -1.
<mgrwt>
<rscale>  0 0.89735254E+02</rscale>
<asrwt>0</asrwt>
<pdfrwt beam="1">  1        1 0.39548393E-01 0.89735254E+02</pdfrwt>
<pdfrwt beam="2">  1       -1 0.12047880E-02 0.89735254E+02</pdfrwt>
<totfact> 0.12974111E+05</totfact>
</mgrwt>
</event>
<event>
 5    1  0.6112843E+000  0.9090015E+02  0.7546771E-02  0.1300686E+00
         -1   -1    0    0    0  501 -0.00000000000E+00  0.00000000000E+00  0.19799354104E+02  0.19799354104E+02  0.00000000000E+00 0.  1.
          1   -1    0    0  501    0  0.00000000000E+00 -0.00000000000E+00 -0.10433215197E+03  0.10433215197E+03  0.00000000000E+00 0. -1.
         23    2    1    2    0    0  0.00000000000E+00  0.00000000000E+00 -0.84532797870E+02  0.12413150608E+03  0.90900147883E+02 0.  0.
        -13    1    3    3    0    0 -0.26127180614E+02  0.37720026388E+01  0.82573568113E+01  0.27659383801E+02  0.00000000000E+00 0.  1.
         13    1    3    3    0    0  0.26127180614E+02 -0.37720026388E+01 -0.92790154681E+02  0.96472122277E+02  0.00000000000E+00 0. -1.
<mgrwt>
<rscale>  0 0.90900148E+02</rscale>
<asrwt>0</asrwt>
<pdfrwt beam="2">  1        1 0.16051100E-01 0.90900148E+02</pdfrwt>
<pdfrwt beam="1">  1       -1 0.30460545E-02 0.90900148E+02</pdfrwt>
<totfact> 0.10606867E+05</totfact>
</mgrwt>
</event>
<event>
 5    1  0.6112843E+000  0.9535518E+02  0.7546771E-02  0.1290378E+00
          1   -1    0    0  501    0  0.00000000000E+00  0.00000000000E+00  0.19529522367E+02  0.19529522367E+02  0.00000000000E+00 0. -1.
         -1   -1    0    0    0  501 -0.00000000000E+00 -0.00000000000E+00 -0.11639571624E+03  0.11639571624E+03  0.00000000000E+00 0.  1.
         23    2    1    2    0    0  0.00000000000E+00  0.00000000000E+00 -0.96866193868E+02  0.13592523860E+03  0.95355183261E+02 0.  0.
        -13    1    3    3    0    0 -0.23761130945E+02 -0.35725852138E+02 -0.18797704365E+02  0.46843158990E+02  0.00000000000E+00 0. -1.
         13    1    3    3    0    0  0.23761130945E+02  0.35725852138E+02 -0.78068489503E+02  0.89082079613E+02  0.00000000000E+00 0.  1.
<mgrwt>
<rscale>  0 0.95355183E+02</rscale>
<asrwt>0</asrwt>
<pdfrwt beam="1">  1        1 0.30045419E-02 0.95355183E+02</pdfrwt>
<pdfrwt beam="2">  1       -1 0.17907033E-01 0.95355183E+02</pdfrwt>
<totfact> 0.70365971E+04</totfact>
</mgrwt>
</event>
<event>
 5    1  0.6112843E+000  0.9314406E+02  0.7546771E-02  0.1295412E+00
          3   -1    0    0  501    0  0.00000000000E+00  0.00000000000E+00  0.14471266522E+02  0.14471266522E+02  0.00000000000E+00 0. -1.
         -3   -1    0    0    0  501 -0.00000000000E+00 -0.00000000000E+00 -0.14988005197E+03  0.14988005197E+03  0.00000000000E+00 0.  1.
         23    2    1    2    0    0  0.00000000000E+00  0.00000000000E+00 -0.13540878545E+03  0.16435131849E+03  0.93144064296E+02 0.  0.
        -13    1    3    3    0    0 -0.59265818185E+01  0.44911716768E+02 -0.48637540290E+02  0.66466510368E+02  0.00000000000E+00 0. -1.
         13    1    3    3    0    0  0.59265818185E+01 -0.44911716768E+02 -0.86771245156E+02  0.97884808122E+02  0.00000000000E+00 0.  1.
<mgrwt>
<rscale>  0 0.93144064E+02</rscale>
<asrwt>0</asrwt>
<pdfrwt beam="1">  1        3 0.22263488E-02 0.93144064E+02</pdfrwt>
<pdfrwt beam="2">  1       -3 0.23058469E-01 0.93144064E+02</pdfrwt>
<totfact> 0.28738856E+04</totfact>
</mgrwt>
</event>
<event>
 5    1  0.6112843E+000  0.9316103E+02  0.7546771E-02  0.1295372E+00
         -1   -1    0    0    0  501 -0.00000000000E+00  0.00000000000E+00  0.33594732244E+02  0.33594732244E+02  0.00000000000E+00 0.  1.
          1   -1    0    0  501    0  0.00000000000E+00 -0.00000000000E+00 -0.64585856197E+02  0.64585856197E+02  0.00000000000E+00 0. -1.
         23    2    1    2    0    0  0.00000000000E+00  0.00000000000E+00 -0.30991123953E+02  0.98180588442E+02  0.93161033608E+02 0.  0.
        -13    1    3    3    0    0 -0.22580887485E+02  0.24811006818E+02  0.18560628884E+02  0.38340311469E+02  0.00000000000E+00 0.  1.
         13    1    3    3    0    0  0.22580887485E+02 -0.24811006818E+02 -0.49551752837E+02  0.59840276973E+02  0.00000000000E+00 0. -1.
<mgrwt>
<rscale>  0 0.93161034E+02</rscale>
<asrwt>0</asrwt>
<pdfrwt beam="2">  1        1 0.99362855E-02 0.93161034E+02</pdfrwt>
<pdfrwt beam="1">  1       -1 0.51684204E-02 0.93161034E+02</pdfrwt>
<totfact> 0.91808063E+04</totfact>
</mgrwt>
</event>
<event>
 5    1  0.6112843E+000  0.9107800E+02  0.7546771E-02  0.1300262E+00
          1   -1    0    0  501    0  0.00000000000E+00  0.00000000000E+00  0.46613581575E+02  0.46613581575E+02  0.00000000000E+00 0. -1.
         -1   -1    0    0    0  501 -0.00000000000E+00 -0.00000000000E+00 -0.44489195389E+02  0.44489195389E+02  0.00000000000E+00 0.  1.
         23    2    1    2    0    0  0.00000000000E+00  0.00000000000E+00  0.21243861857E+01  0.91102776964E+02  0.91078004775E+02 0.  0.
        -13    1    3    3    0    0 -0.27230417865E+02  0.28645956164E+02  0.23689448243E+02  0.46079023641E+02  0.00000000000E+00 0. -1.
         13    1    3    3    0    0  0.27230417865E+02 -0.28645956164E+02 -0.21565062057E+02  0.45023753322E+02  0.00000000000E+00 0.  1.
<mgrwt>
<rscale>  0 0.91078005E+02</rscale>
<asrwt>0</asrwt>
<pdfrwt beam="1">  1        1 0.71713202E-02 0.91078005E+02</pdfrwt>
<pdfrwt beam="2">  1       -1 0.68444916E-02 0.91078005E+02</pdfrwt>
<totfact> 0.93064734E+04</totfact>
</mgrwt>
</event>
<event>
 5    1  0.6112843E+000  0.9145057E+02  0.7546771E-02  0.1299376E+00
         -1   -1    0    0    0  501 -0.00000000000E+00  0.00000000000E+00  0.29929031490E+02  0.29929031490E+02  0.00000000000E+00 0.  1.
          1   -1    0    0  501    0  0.00000000000E+00 -0.00000000000E+00 -0.69858650742E+02  0.69858650742E+02  0.00000000000E+00 0. -1.
         23    2    1    2    0    0  0.00000000000E+00  0.00000000000E+00 -0.39929619252E+02  0.99787682231E+02  0.91450571521E+02 0.  0.
        -13    1    3    3    0    0  0.11473731390E+02 -0.33178333180E+02 -0.51933407650E+02  0.62685940487E+02  0.00000000000E+00 0. -1.
         13    1    3    3    0    0 -0.11473731390E+02  0.33178333180E+02  0.12003788397E+02  0.37101741745E+02  0.00000000000E+00 0.  1.
<mgrwt>
<rscale>  0 0.91450572E+02</rscale>
<asrwt>0</asrwt>
<pdfrwt beam="2">  1        1 0.10747485E-01 0.91450572E+02</pdfrwt>
<pdfrwt beam="1">  1       -1 0.46044664E-02 0.91450572E+02</pdfrwt>
<totfact> 0.97823056E+04</totfact>
</mgrwt>
</event>
<event>
 5    1  0.6112843E+000  0.8011529E+02  0.7546771E-02  0.1328725E+00
         -1   -1    0    0    0  501 -0.00000000000E+00  0.00000000000E+00  0.52770137913E+01  0.52770137913E+01  0.00000000000E+00 0.  1.
          1   -1    0    0  501    0  0.00000000000E+00 -0.00000000000E+00 -0.30407632143E+03  0.30407632143E+03  0.00000000000E+00 0. -1.
         23    2    1    2    0    0  0.00000000000E+00  0.00000000000E+00 -0.29879930763E+03  0.30935333522E+03  0.80115290470E+02 0.  0.
        -13    1    3    3    0    0  0.16329905859E+02  0.34836580287E+02 -0.10633877650E+03  0.11308487317E+03  0.00000000000E+00 0.  1.
         13    1    3    3    0    0 -0.16329905859E+02 -0.34836580287E+02 -0.19246053113E+03  0.19626846205E+03  0.00000000000E+00 0. -1.
<mgrwt>
<rscale>  0 0.80115290E+02</rscale>
<asrwt>0</asrwt>
<pdfrwt beam="2">  1        1 0.46780984E-01 0.80115290E+02</pdfrwt>
<pdfrwt beam="1">  1       -1 0.81184808E-03 0.80115290E+02</pdfrwt>
<totfact> 0.18085268E+05</totfact>
</mgrwt>
</event>
<event>
 5    1  0.6112843E+000  0.6731328E+02  0.7546771E-02  0.1369475E+00
          2   -1    0    0  501    0  0.00000000000E+00  0.00000000000E+00  0.78812872332E+02  0.78812872332E+02  0.00000000000E+00 0. -1.
         -2   -1    0    0    0  501 -0.00000000000E+00 -0.00000000000E+00 -0.14372899685E+02  0.14372899685E+02  0.00000000000E+00 0.  1.
         23    2    1    2    0    0  0.00000000000E+00  0.00000000000E+00  0.64439972646E+02  0.93185772017E+02  0.67313282729E+02 0.  0.
        -13    1    3    3    0    0 -0.80575217346E+01 -0.30061318107E+02  0.14482728305E+02  0.34327189253E+02  0.00000000000E+00 0.  1.
         13    1    3    3    0    0  0.80575217346E+01  0.30061318107E+02  0.49957244341E+02  0.58858582764E+02  0.00000000000E+00 0. -1.
<mgrwt>
<rscale>  0 0.67313283E+02</rscale>
<asrwt>0</asrwt>
<pdfrwt beam="1">  1        2 0.12125057E-01 0.67313283E+02</pdfrwt>
<pdfrwt beam="2">  1       -2 0.22112154E-02 0.67313283E+02</pdfrwt>
<totfact> 0.26070036E+05</totfact>
</mgrwt>
</event>
<event>
 5    1  0.6112843E+000  0.8959553E+02  0.7546771E-02  0.1303834E+00
          3   -1    0    0  501    0  0.00000000000E+00  0.00000000000E+00  0.13215620939E+03  0.13215620939E+03  0.00000000000E+00 0. -1.
         -3   -1    0    0    0  501 -0.00000000000E+00 -0.00000000000E+00 -0.15185361642E+02  0.15185361642E+02  0.00000000000E+00 0.  1.
         23    2    1    2    0    0  0.00000000000E+00  0.00000000000E+00  0.11697084775E+03  0.14734157104E+03  0.89595531873E+02 0.  0.
        -13    1    3    3    0    0  0.11026644206E+02 -0.29426260785E+02  0.11099036899E+03  0.11535316951E+03  0.00000000000E+00 0. -1.
         13    1    3    3    0    0 -0.11026644206E+02  0.29426260785E+02  0.59804787601E+01  0.31988401530E+02  0.00000000000E+00 0.  1.
<mgrwt>
<rscale>  0 0.89595532E+02</rscale>
<asrwt>0</asrwt>
<pdfrwt beam="1">  1        3 0.20331724E-01 0.89595532E+02</pdfrwt>
<pdfrwt beam="2">  1       -3 0.23362096E-02 0.89595532E+02</pdfrwt>
<totfact> 0.32993907E+04</totfact>
</mgrwt>
</event>
<event>
 5    1  0.6112843E+000  0.9049697E+02  0.7546771E-02  0.1301653E+00
          2   -1    0    0  501    0  0.00000000000E+00  0.00000000000E+00  0.42468830190E+02  0.42468830190E+02  0.00000000000E+00 0. -1.
         -2   -1    0    0    0  501 -0.00000000000E+00 -0.00000000000E+00 -0.48210074823E+02  0.48210074823E+02  0.00000000000E+00 0.  1.
         23    2    1    2    0    0  0.00000000000E+00  0.00000000000E+00 -0.57412446334E+01  0.90678905012E+02  0.90496971907E+02 0.  0.
        -13    1    3    3    0    0 -0.90539836640E+01 -0.70022983123E+01  0.40994305312E+02  0.42562188265E+02  0.00000000000E+00 0. -1.
         13    1    3    3    0    0  0.90539836640E+01  0.70022983123E+01 -0.46735549946E+02  0.48116716748E+02  0.00000000000E+00 0.  1.
<mgrwt>
<rscale>  0 0.90496972E+02</rscale>
<asrwt>0</asrwt>
<pdfrwt beam="1">  1        2 0.65336662E-02 0.90496972E+02</pdfrwt>
<pdfrwt beam="2">  1       -2 0.74169345E-02 0.90496972E+02</pdfrwt>
<totfact> 0.98989487E+04</totfact>
</mgrwt>
</event>
<event>
 5    1  0.6112843E+000  0.9051499E+02  0.7546771E-02  0.1301609E+00
          2   -1    0    0  501    0  0.00000000000E+00  0.00000000000E+00  0.31681191758E+03  0.31681191758E+03  0.00000000000E+00 0. -1.
         -2   -1    0    0    0  501 -0.00000000000E+00 -0.00000000000E+00 -0.64651628782E+01  0.64651628782E+01  0.00000000000E+00 0.  1.
         23    2    1    2    0    0  0.00000000000E+00  0.00000000000E+00  0.31034675470E+03  0.32327708046E+03  0.90514985476E+02 0.  0.
        -13    1    3    3    0    0  0.39565858486E+01 -0.39090407118E+02  0.74950863080E+02  0.84624738562E+02  0.00000000000E+00 0.  1.
         13    1    3    3    0    0 -0.39565858486E+01  0.39090407118E+02  0.23539589162E+03  0.23865234190E+03  0.00000000000E+00 0. -1.
<mgrwt>
<rscale>  0 0.90514985E+02</rscale>
<asrwt>0</asrwt>
<pdfrwt beam="1">  1        2 0.48740283E-01 0.90514985E+02</pdfrwt>
<pdfrwt beam="2">  1       -2 0.99464069E-03 0.90514985E+02</pdfrwt>
<totfact> 0.18693059E+05</totfact>
</mgrwt>
</event>
<event>
 5    1  0.6112843E+000  0.9122210E+02  0.7546771E-02  0.1299919E+00
         -3   -1    0    0    0  501 -0.00000000000E+00  0.00000000000E+00  0.51986550453E+03  0.51986550453E+03  0.00000000000E+00 0.  1.
          3   -1    0    0  501    0  0.00000000000E+00 -0.00000000000E+00 -0.40017425336E+01  0.40017425336E+01  0.00000000000E+00 0. -1.
         23    2    1    2    0    0  0.00000000000E+00  0.00000000000E+00  0.51586376199E+03  0.52386724706E+03  0.91222100420E+02 0.  0.
        -13    1    3    3    0    0 -0.13032195158E+02  0.43653367871E+02  0.27066123123E+03  0.27446849861E+03  0.00000000000E+00 0.  1.
         13    1    3    3    0    0  0.13032195158E+02 -0.43653367871E+02  0.24520253076E+03  0.24939874845E+03  0.00000000000E+00 0. -1.
<mgrwt>
<rscale>  0 0.91222100E+02</rscale>
<asrwt>0</asrwt>
<pdfrwt beam="2">  1        3 0.61565311E-03 0.91222100E+02</pdfrwt>
<pdfrwt beam="1">  1       -3 0.79979255E-01 0.91222100E+02</pdfrwt>
<totfact> 0.17303665E+04</totfact>
</mgrwt>
</event>
<event>
 5    1  0.6112843E+000  0.9193633E+02  0.7546771E-02  0.1298229E+00
          2   -1    0    0  501    0  0.00000000000E+00  0.00000000000E+00  0.21348997446E+03  0.21348997446E+03  0.00000000000E+00 0. -1.
         -2   -1    0    0    0  501 -0.00000000000E+00 -0.00000000000E+00 -0.98977578068E+01  0.98977578068E+01  0.00000000000E+00 0.  1.
         23    2    1    2    0    0  0.00000000000E+00  0.00000000000E+00  0.20359221665E+03  0.22338773227E+03  0.91936327127E+02 0.  0.
        -13    1    3    3    0    0  0.36074640756E+02 -0.22692237291E+02  0.59938829685E+02  0.73545772435E+02  0.00000000000E+00 0.  1.
         13    1    3    3    0    0 -0.36074640756E+02  0.22692237291E+02  0.14365338697E+03  0.14984195983E+03  0.00000000000E+00 0. -1.
<mgrwt>
<rscale>  0 0.91936327E+02</rscale>
<asrwt>0</asrwt>
<pdfrwt beam="1">  1        2 0.32844608E-01 0.91936327E+02</pdfrwt>
<pdfrwt beam="2">  1       -2 0.15227321E-02 0.91936327E+02</pdfrwt>
<totfact> 0.15489439E+05</totfact>
</mgrwt>
</event>
<event>
 5    1  0.6112843E+000  0.8955926E+02  0.7546771E-02  0.1303923E+00
          1   -1    0    0  501    0  0.00000000000E+00  0.00000000000E+00  0.55018064262E+02  0.55018064262E+02  0.00000000000E+00 0. -1.
         -1   -1    0    0    0  501 -0.00000000000E+00 -0.00000000000E+00 -0.36446486341E+02  0.36446486341E+02  0.00000000000E+00 0.  1.
         23    2    1    2    0    0  0.00000000000E+00  0.00000000000E+00  0.18571577921E+02  0.91464550603E+02  0.89559256979E+02 0.  0.
        -13    1    3    3    0    0  0.27805370766E+01 -0.11341333535E+02 -0.34864186123E+02  0.36767767226E+02  0.00000000000E+00 0.  1.
         13    1    3    3    0    0 -0.27805370766E+01  0.11341333535E+02  0.53435764045E+02  0.54696783377E+02  0.00000000000E+00 0. -1.
<mgrwt>
<rscale>  0 0.89559257E+02</rscale>
<asrwt>0</asrwt>
<pdfrwt beam="1">  1        1 0.84643176E-02 0.89559257E+02</pdfrwt>
<pdfrwt beam="2">  1       -1 0.56071517E-02 0.89559257E+02</pdfrwt>
<totfact> 0.99968363E+04</totfact>
</mgrwt>
</event>
<event>
 5    1  0.6112843E+000  0.9193200E+02  0.7546771E-02  0.1298239E+00
          1   -1    0    0  501    0  0.00000000000E+00  0.00000000000E+00  0.21780984299E+03  0.21780984299E+03  0.00000000000E+00 0.  1.
         -1   -1    0    0    0  501 -0.00000000000E+00 -0.00000000000E+00 -0.97005410622E+01  0.97005410622E+01  0.00000000000E+00 0. -1.
         23    2    1    2    0    0  0.00000000000E+00  0.00000000000E+00  0.20810930193E+03  0.22751038405E+03  0.91932003692E+02 0.  0.
        -13    1    3    3    0    0  0.11797560127E+02 -0.38793021669E+02  0.15763737214E+03  0.16276861506E+03  0.00000000000E+00 0.  1.
         13    1    3    3    0    0 -0.11797560127E+02  0.38793021669E+02  0.50471929795E+02  0.64741768993E+02  0.00000000000E+00 0. -1.
<mgrwt>
<rscale>  0 0.91932004E+02</rscale>
<asrwt>0</asrwt>
<pdfrwt beam="1">  1        1 0.33509203E-01 0.91932004E+02</pdfrwt>
<pdfrwt beam="2">  1       -1 0.14923911E-02 0.91932004E+02</pdfrwt>
<totfact> 0.11775497E+05</totfact>
</mgrwt>
</event>
<event>
 5    1  0.6112843E+000  0.9224759E+02  0.7546771E-02  0.1297498E+00
          3   -1    0    0  501    0  0.00000000000E+00  0.00000000000E+00  0.13718237235E+03  0.13718237235E+03  0.00000000000E+00 0. -1.
         -3   -1    0    0    0  501 -0.00000000000E+00 -0.00000000000E+00 -0.15507855962E+02  0.15507855962E+02  0.00000000000E+00 0.  1.
         23    2    1    2    0    0  0.00000000000E+00  0.00000000000E+00  0.12167451639E+03  0.15269022832E+03  0.92247590125E+02 0.  0.
        -13    1    3    3    0    0  0.47598603226E+01 -0.35390431332E+02  0.10915912315E+03  0.11485143912E+03  0.00000000000E+00 0. -1.
         13    1    3    3    0    0 -0.47598603226E+01  0.35390431332E+02  0.12515393243E+02  0.37838789201E+02  0.00000000000E+00 0.  1.
<mgrwt>
<rscale>  0 0.92247590E+02</rscale>
<asrwt>0</asrwt>
<pdfrwt beam="1">  1        3 0.21104980E-01 0.92247590E+02</pdfrwt>
<pdfrwt beam="2">  1       -3 0.23858241E-02 0.92247590E+02</pdfrwt>
<totfact> 0.30172055E+04</totfact>
</mgrwt>
</event>
<event>
 5    1  0.6112843E+000  0.9245119E+02  0.7546771E-02  0.1297022E+00
          2   -1    0    0  501    0  0.00000000000E+00  0.00000000000E+00  0.54277724126E+02  0.54277724126E+02  0.00000000000E+00 0. -1.
         -2   -1    0    0    0  501 -0.00000000000E+00 -0.00000000000E+00 -0.39367999459E+02  0.39367999459E+02  0.00000000000E+00 0.  1.
         23    2    1    2    0    0  0.00000000000E+00  0.00000000000E+00  0.14909724667E+02  0.93645723585E+02  0.92451185261E+02 0.  0.
        -13    1    3    3    0    0 -0.31292030195E+02  0.32872759345E+02  0.16342972248E+02  0.48237974694E+02  0.00000000000E+00 0. -1.
         13    1    3    3    0    0  0.31292030195E+02 -0.32872759345E+02 -0.14332475811E+01  0.45407748891E+02  0.00000000000E+00 0.  1.
<mgrwt>
<rscale>  0 0.92451185E+02</rscale>
<asrwt>0</asrwt>
<pdfrwt beam="1">  1        2 0.83504191E-02 0.92451185E+02</pdfrwt>
<pdfrwt beam="2">  1       -2 0.60566153E-02 0.92451185E+02</pdfrwt>
<totfact> 0.99282613E+04</totfact>
</mgrwt>
</event>
<event>
 5    1  0.6112843E+000  0.8897337E+02  0.7546771E-02  0.1305357E+00
         -1   -1    0    0    0  501 -0.00000000000E+00  0.00000000000E+00  0.10230626018E+03  0.10230626018E+03  0.00000000000E+00 0. -1.
          1   -1    0    0  501    0  0.00000000000E+00 -0.00000000000E+00 -0.19344516759E+02  0.19344516759E+02  0.00000000000E+00 0.  1.
         23    2    1    2    0    0  0.00000000000E+00  0.00000000000E+00  0.82961743421E+02  0.12165077694E+03  0.88973370502E+02 0.  0.
        -13    1    3    3    0    0  0.44229607600E+02  0.47748526218E+01  0.41360438236E+02  0.60743256886E+02  0.00000000000E+00 0.  1.
         13    1    3    3    0    0 -0.44229607600E+02 -0.47748526218E+01  0.41601305184E+02  0.60907520053E+02  0.00000000000E+00 0. -1.
<mgrwt>
<rscale>  0 0.88973371E+02</rscale>
<asrwt>0</asrwt>
<pdfrwt beam="2">  1        1 0.29760796E-02 0.88973371E+02</pdfrwt>
<pdfrwt beam="1">  1       -1 0.15739424E-01 0.88973371E+02</pdfrwt>
<totfact> 0.86288961E+04</totfact>
</mgrwt>
</event>
<event>
 5    1  0.6112843E+000  0.9099042E+02  0.7546771E-02  0.1300471E+00
          1   -1    0    0  501    0  0.00000000000E+00  0.00000000000E+00  0.66266714050E+02  0.66266714050E+02  0.00000000000E+00 0. -1.
         -1   -1    0    0    0  501 -0.00000000000E+00 -0.00000000000E+00 -0.31234596568E+02  0.31234596568E+02  0.00000000000E+00 0.  1.
         23    2    1    2    0    0  0.00000000000E+00  0.00000000000E+00  0.35032117482E+02  0.97501310617E+02  0.90990418819E+02 0.  0.
        -13    1    3    3    0    0  0.34820751621E+01  0.32992682122E+02 -0.15843112619E+02  0.36764740425E+02  0.00000000000E+00 0.  1.
         13    1    3    3    0    0 -0.34820751621E+01 -0.32992682122E+02  0.50875230100E+02  0.60736570193E+02  0.00000000000E+00 0. -1.
<mgrwt>
<rscale>  0 0.90990419E+02</rscale>
<asrwt>0</asrwt>
<pdfrwt beam="1">  1        1 0.10194879E-01 0.90990419E+02</pdfrwt>
<pdfrwt beam="2">  1       -1 0.48053226E-02 0.90990419E+02</pdfrwt>
<totfact> 0.98394391E+04</totfact>
</mgrwt>
</event>
<event>
 5    1  0.6112843E+000  0.9199179E+02  0.7546771E-02  0.1298099E+00
          4   -1    0    0  501    0  0.00000000000E+00  0.00000000000E+00  0.12627169773E+03  0.12627169773E+03  0.00000000000E+00 0. -1.
         -4   -1    0    0    0  501 -0.00000000000E+00 -0.00000000000E+00 -0.16754523624E+02  0.16754523624E+02  0.00000000000E+00 0.  1.
         23    2    1    2    0    0  0.00000000000E+00  0.00000000000E+00  0.10951717410E+03  0.14302622135E+03  0.91991785342E+02 0.  0.
        -13    1    3    3    0    0  0.30529460285E+02  0.26448315434E+02  0.88965712331E+02  0.97705983978E+02  0.00000000000E+00 0. -1.
         13    1    3    3    0    0 -0.30529460285E+02 -0.26448315434E+02  0.20551461774E+02  0.45320237374E+02  0.00000000000E+00 0.  1.
<mgrwt>
<rscale>  0 0.91991785E+02</rscale>
<asrwt>0</asrwt>
<pdfrwt beam="1">  1        4 0.19426414E-01 0.91991785E+02</pdfrwt>
<pdfrwt beam="2">  1       -4 0.25776191E-02 0.91991785E+02</pdfrwt>
<totfact> 0.23457740E+04</totfact>
</mgrwt>
</event>
<event>
 5    1  0.6112843E+000  0.9032433E+02  0.7546771E-02  0.1302068E+00
         -1   -1    0    0    0  501 -0.00000000000E+00  0.00000000000E+00  0.64341479139E+02  0.64341479139E+02  0.00000000000E+00 0.  1.
          1   -1    0    0  501    0  0.00000000000E+00 -0.00000000000E+00 -0.31699942793E+02  0.31699942793E+02  0.00000000000E+00 0. -1.
         23    2    1    2    0    0  0.00000000000E+00  0.00000000000E+00  0.32641536346E+02  0.96041421932E+02  0.90324331338E+02 0.  0.
        -13    1    3    3    0    0 -0.36455209036E+02 -0.25922733681E+02  0.22931251060E+02  0.50267411536E+02  0.00000000000E+00 0.  1.
         13    1    3    3    0    0  0.36455209036E+02  0.25922733681E+02  0.97102852868E+01  0.45774010396E+02  0.00000000000E+00 0. -1.
<mgrwt>
<rscale>  0 0.90324331E+02</rscale>
<asrwt>0</asrwt>
<pdfrwt beam="2">  1        1 0.48769143E-02 0.90324331E+02</pdfrwt>
<pdfrwt beam="1">  1       -1 0.98986891E-02 0.90324331E+02</pdfrwt>
<totfact> 0.89831674E+04</totfact>
</mgrwt>
</event>
<event>
 5    1  0.6112843E+000  0.8432704E+02  0.7546771E-02  0.1317202E+00
         -1   -1    0    0    0  501 -0.00000000000E+00  0.00000000000E+00  0.50293977901E+02  0.50293977901E+02  0.00000000000E+00 0.  1.
          1   -1    0    0  501    0  0.00000000000E+00 -0.00000000000E+00 -0.35347419024E+02  0.35347419024E+02  0.00000000000E+00 0. -1.
         23    2    1    2    0    0  0.00000000000E+00  0.00000000000E+00  0.14946558877E+02  0.85641396925E+02  0.84327037450E+02 0.  0.
        -13    1    3    3    0    0 -0.28821537385E+02 -0.25254042564E+02  0.25334746587E+02  0.45937969782E+02  0.00000000000E+00 0.  1.
         13    1    3    3    0    0  0.28821537385E+02  0.25254042564E+02 -0.10388187710E+02  0.39703427144E+02  0.00000000000E+00 0. -1.
<mgrwt>
<rscale>  0 0.84327037E+02</rscale>
<asrwt>0</asrwt>
<pdfrwt beam="2">  1        1 0.54380645E-02 0.84327037E+02</pdfrwt>
<pdfrwt beam="1">  1       -1 0.77375351E-02 0.84327037E+02</pdfrwt>
<totfact> 0.11089067E+05</totfact>
</mgrwt>
</event>
<event>
 5    1  0.6112843E+000  0.9288813E+02  0.7546771E-02  0.1296005E+00
          1   -1    0    0  501    0  0.00000000000E+00  0.00000000000E+00  0.45498916577E+02  0.45498916577E+02  0.00000000000E+00 0.  1.
         -1   -1    0    0    0  501 -0.00000000000E+00 -0.00000000000E+00 -0.47408848353E+02  0.47408848353E+02  0.00000000000E+00 0. -1.
         23    2    1    2    0    0  0.00000000000E+00  0.00000000000E+00 -0.19099317760E+01  0.92907764930E+02  0.92888131346E+02 0.  0.
        -13    1    3    3    0    0 -0.22813174429E+02 -0.19490891050E+01 -0.41371567448E+02  0.47284738225E+02  0.00000000000E+00 0. -1.
         13    1    3    3    0    0  0.22813174429E+02  0.19490891050E+01  0.39461635672E+02  0.45623026705E+02  0.00000000000E+00 0.  1.
<mgrwt>
<rscale>  0 0.92888131E+02</rscale>
<asrwt>0</asrwt>
<pdfrwt beam="1">  1        1 0.69998333E-02 0.92888131E+02</pdfrwt>
<pdfrwt beam="2">  1       -1 0.72936690E-02 0.92888131E+02</pdfrwt>
<totfact> 0.87731786E+04</totfact>
</mgrwt>
</event>
<event>
 5    1  0.6112843E+000  0.9020330E+02  0.7546771E-02  0.1302360E+00
         -1   -1    0    0    0  501 -0.00000000000E+00  0.00000000000E+00  0.81099691415E+01  0.81099691415E+01  0.00000000000E+00 0.  1.
          1   -1    0    0  501    0  0.00000000000E+00 -0.00000000000E+00 -0.25082202624E+03  0.25082202624E+03  0.00000000000E+00 0. -1.
         23    2    1    2    0    0  0.00000000000E+00  0.00000000000E+00 -0.24271205710E+03  0.25893199538E+03  0.90203301333E+02 0.  0.
        -13    1    3    3    0    0  0.39520817883E+02 -0.78249839713E+01 -0.17955320047E+03  0.18401760029E+03  0.00000000000E+00 0. -1.
         13    1    3    3    0    0 -0.39520817883E+02  0.78249839713E+01 -0.63158856635E+02  0.74914395090E+02  0.00000000000E+00 0.  1.
<mgrwt>
<rscale>  0 0.90203301E+02</rscale>
<asrwt>0</asrwt>
<pdfrwt beam="2">  1        1 0.38588000E-01 0.90203301E+02</pdfrwt>
<pdfrwt beam="1">  1       -1 0.12476877E-02 0.90203301E+02</pdfrwt>
<totfact> 0.12734524E+05</totfact>
</mgrwt>
</event>
<event>
 5    1  0.6112843E+000  0.9531088E+02  0.7546771E-02  0.1290477E+00
          1   -1    0    0  501    0  0.00000000000E+00  0.00000000000E+00  0.28681436365E+02  0.28681436365E+02  0.00000000000E+00 0. -1.
         -1   -1    0    0    0  501 -0.00000000000E+00 -0.00000000000E+00 -0.79181566995E+02  0.79181566995E+02  0.00000000000E+00 0.  1.
         23    2    1    2    0    0  0.00000000000E+00  0.00000000000E+00 -0.50500130630E+02  0.10786300336E+03  0.95310882381E+02 0.  0.
        -13    1    3    3    0    0 -0.40768831013E+02  0.21366534776E+02 -0.39221577837E+02  0.60472791886E+02  0.00000000000E+00 0.  1.
         13    1    3    3    0    0  0.40768831013E+02 -0.21366534776E+02 -0.11278552793E+02  0.47390211474E+02  0.00000000000E+00 0. -1.
<mgrwt>
<rscale>  0 0.95310882E+02</rscale>
<asrwt>0</asrwt>
<pdfrwt beam="1">  1        1 0.44125287E-02 0.95310882E+02</pdfrwt>
<pdfrwt beam="2">  1       -1 0.12181779E-01 0.95310882E+02</pdfrwt>
<totfact> 0.75689392E+04</totfact>
</mgrwt>
</event>
<event>
 5    1  0.6112843E+000  0.9132081E+02  0.7546771E-02  0.1299684E+00
         -2   -1    0    0    0  501 -0.00000000000E+00  0.00000000000E+00  0.23180244942E+02  0.23180244942E+02  0.00000000000E+00 0. -1.
          2   -1    0    0  501    0  0.00000000000E+00 -0.00000000000E+00 -0.89941781975E+02  0.89941781975E+02  0.00000000000E+00 0.  1.
         23    2    1    2    0    0  0.00000000000E+00  0.00000000000E+00 -0.66761537033E+02  0.11312202692E+03  0.91320808948E+02 0.  0.
        -13    1    3    3    0    0 -0.31480622970E+02 -0.16869896416E+02 -0.68619368891E+02  0.77357874937E+02  0.00000000000E+00 0.  1.
         13    1    3    3    0    0  0.31480622970E+02  0.16869896416E+02  0.18578318588E+01  0.35764151980E+02  0.00000000000E+00 0. -1.
<mgrwt>
<rscale>  0 0.91320809E+02</rscale>
<asrwt>0</asrwt>
<pdfrwt beam="2">  1        2 0.13837197E-01 0.91320809E+02</pdfrwt>
<pdfrwt beam="1">  1       -2 0.35661916E-02 0.91320809E+02</pdfrwt>
<totfact> 0.11831778E+05</totfact>
</mgrwt>
</event>
<event>
 5    1  0.6112843E+000  0.9630648E+02  0.7546771E-02  0.1288260E+00
          2   -1    0    0  501    0  0.00000000000E+00  0.00000000000E+00  0.17642156134E+02  0.17642156134E+02  0.00000000000E+00 0. -1.
         -2   -1    0    0    0  501 -0.00000000000E+00 -0.00000000000E+00 -0.13143146859E+03  0.13143146859E+03  0.00000000000E+00 0.  1.
         23    2    1    2    0    0  0.00000000000E+00  0.00000000000E+00 -0.11378931246E+03  0.14907362473E+03  0.96306479321E+02 0.  0.
        -13    1    3    3    0    0  0.21850124511E+02 -0.24453206119E+02 -0.11147566090E+03  0.11619901120E+03  0.00000000000E+00 0.  1.
         13    1    3    3    0    0 -0.21850124511E+02  0.24453206119E+02 -0.23136515522E+01  0.32874613521E+02  0.00000000000E+00 0. -1.
<mgrwt>
<rscale>  0 0.96306479E+02</rscale>
<asrwt>0</asrwt>
<pdfrwt beam="1">  1        2 0.27141778E-02 0.96306479E+02</pdfrwt>
<pdfrwt beam="2">  1       -2 0.20220227E-01 0.96306479E+02</pdfrwt>
<totfact> 0.63744671E+04</totfact>
</mgrwt>
</event>
<event>
 5    1  0.6112843E+000  0.8487871E+02  0.7546771E-02  0.1315750E+00
          2   -1    0    0  501    0  0.00000000000E+00  0.00000000000E+00  0.78705383671E+02  0.78705383671E+02  0.00000000000E+00 0. -1.
         -2   -1    0    0    0  501 -0.00000000000E+00 -0.00000000000E+00 -0.22884061814E+02  0.22884061814E+02  0.00000000000E+00 0.  1.
         23    2    1    2    0    0  0.00000000000E+00  0.00000000000E+00  0.55821321857E+02  0.10158944548E+03  0.84878710287E+02 0.  0.
        -13    1    3    3    0    0 -0.33579782333E+01 -0.24707191692E+02 -0.13192596560E+02  0.28209323691E+02  0.00000000000E+00 0.  1.
         13    1    3    3    0    0  0.33579782333E+01  0.24707191692E+02  0.69013918417E+02  0.73380121793E+02  0.00000000000E+00 0. -1.
<mgrwt>
<rscale>  0 0.84878710E+02</rscale>
<asrwt>0</asrwt>
<pdfrwt beam="1">  1        2 0.12108520E-01 0.84878710E+02</pdfrwt>
<pdfrwt beam="2">  1       -2 0.35206249E-02 0.84878710E+02</pdfrwt>
<totfact> 0.13932745E+05</totfact>
</mgrwt>
</event>
<event>
 5    1  0.6112843E+000  0.9125749E+02  0.7546771E-02  0.1299835E+00
         -2   -1    0    0    0  501 -0.00000000000E+00  0.00000000000E+00  0.74454049971E+01  0.74454049971E+01  0.00000000000E+00 0.  1.
          2   -1    0    0  501    0  0.00000000000E+00 -0.00000000000E+00 -0.27963318243E+03  0.27963318243E+03  0.00000000000E+00 0. -1.
         23    2    1    2    0    0  0.00000000000E+00  0.00000000000E+00 -0.27218777743E+03  0.28707858743E+03  0.91257488325E+02 0.  0.
        -13    1    3    3    0    0 -0.42227153100E+02  0.48320605401E+01 -0.83879055004E+02  0.94032851368E+02  0.00000000000E+00 0.  1.
         13    1    3    3    0    0  0.42227153100E+02 -0.48320605401E+01 -0.18830872243E+03  0.19304573606E+03  0.00000000000E+00 0. -1.
<mgrwt>
<rscale>  0 0.91257488E+02</rscale>
<asrwt>0</asrwt>
<pdfrwt beam="2">  1        2 0.43020492E-01 0.91257488E+02</pdfrwt>
<pdfrwt beam="1">  1       -2 0.11454469E-02 0.91257488E+02</pdfrwt>
<totfact> 0.17459817E+05</totfact>
</mgrwt>
</event>
<event>
 5    1  0.6112843E+000  0.9174515E+02  0.7546771E-02  0.1298680E+00
          1   -1    0    0  501    0  0.00000000000E+00  0.00000000000E+00  0.10465537912E+03  0.10465537912E+03  0.00000000000E+00 0. -1.
         -1   -1    0    0    0  501 -0.00000000000E+00 -0.00000000000E+00 -0.20106881654E+02  0.20106881654E+02  0.00000000000E+00 0.  1.
         23    2    1    2    0    0  0.00000000000E+00  0.00000000000E+00  0.84548497466E+02  0.12476226077E+03  0.91745154039E+02 0.  0.
        -13    1    3    3    0    0  0.11602139291E+01 -0.21619106756E+02 -0.12722059129E+02  0.25111405014E+02  0.00000000000E+00 0.  1.
         13    1    3    3    0    0 -0.11602139291E+01  0.21619106756E+02  0.97270556595E+02  0.99650855760E+02  0.00000000000E+00 0. -1.
<mgrwt>
<rscale>  0 0.91745154E+02</rscale>
<asrwt>0</asrwt>
<pdfrwt beam="1">  1        1 0.16100827E-01 0.91745154E+02</pdfrwt>
<pdfrwt beam="2">  1       -1 0.30933665E-02 0.91745154E+02</pdfrwt>
<totfact> 0.10348146E+05</totfact>
</mgrwt>
</event>
<event>
 5    1  0.6112843E+000  0.9218955E+02  0.7546771E-02  0.1297634E+00
         -1   -1    0    0    0  501 -0.00000000000E+00  0.00000000000E+00  0.28772529712E+02  0.28772529712E+02  0.00000000000E+00 0.  1.
          1   -1    0    0  501    0  0.00000000000E+00 -0.00000000000E+00 -0.73845719390E+02  0.73845719390E+02  0.00000000000E+00 0. -1.
         23    2    1    2    0    0  0.00000000000E+00  0.00000000000E+00 -0.45073189677E+02  0.10261824910E+03  0.92189547244E+02 0.  0.
        -13    1    3    3    0    0  0.46136316371E+01 -0.32980942130E+02  0.12938670102E+02  0.35727263045E+02  0.00000000000E+00 0.  1.
         13    1    3    3    0    0 -0.46136316371E+01  0.32980942130E+02 -0.58011859780E+02  0.66890986058E+02  0.00000000000E+00 0. -1.
<mgrwt>
<rscale>  0 0.92189547E+02</rscale>
<asrwt>0</asrwt>
<pdfrwt beam="2">  1        1 0.11360880E-01 0.92189547E+02</pdfrwt>
<pdfrwt beam="1">  1       -1 0.44265431E-02 0.92189547E+02</pdfrwt>
<totfact> 0.96503765E+04</totfact>
</mgrwt>
</event>
<event>
 5    1  0.6112843E+000  0.9073202E+02  0.7546771E-02  0.1301089E+00
          2   -1    0    0  501    0  0.00000000000E+00  0.00000000000E+00  0.39471335260E+01  0.39471335260E+01  0.00000000000E+00 0. -1.
         -2   -1    0    0    0  501 -0.00000000000E+00 -0.00000000000E+00 -0.52140996168E+03  0.52140996168E+03  0.00000000000E+00 0.  1.
         23    2    1    2    0    0  0.00000000000E+00  0.00000000000E+00 -0.51746282816E+03  0.52535709521E+03  0.90732017294E+02 0.  0.
        -13    1    3    3    0    0 -0.45325688213E+02  0.10119112384E+01 -0.24933634409E+03  0.25342465243E+03  0.00000000000E+00 0. -1.
         13    1    3    3    0    0  0.45325688213E+02 -0.10119112384E+01 -0.26812648407E+03  0.27193244278E+03  0.00000000000E+00 0.  1.
<mgrwt>
<rscale>  0 0.90732017E+02</rscale>
<asrwt>0</asrwt>
<pdfrwt beam="1">  1        2 0.60725159E-03 0.90732017E+02</pdfrwt>
<pdfrwt beam="2">  1       -2 0.80216880E-01 0.90732017E+02</pdfrwt>
<totfact> 0.35572900E+04</totfact>
</mgrwt>
</event>
<event>
 5    1  0.6112843E+000  0.8529176E+02  0.7546771E-02  0.1314671E+00
          2   -1    0    0  501    0  0.00000000000E+00  0.00000000000E+00  0.16313805367E+03  0.16313805367E+03  0.00000000000E+00 0. -1.
         -2   -1    0    0    0  501 -0.00000000000E+00 -0.00000000000E+00 -0.11148050659E+02  0.11148050659E+02  0.00000000000E+00 0.  1.
         23    2    1    2    0    0  0.00000000000E+00  0.00000000000E+00  0.15199000301E+03  0.17428610433E+03  0.85291764824E+02 0.  0.
        -13    1    3    3    0    0  0.41507797403E+02 -0.57992159842E+01  0.59886607538E+02  0.73095375461E+02  0.00000000000E+00 0.  1.
         13    1    3    3    0    0 -0.41507797403E+02  0.57992159842E+01  0.92103395469E+02  0.10119072886E+03  0.00000000000E+00 0. -1.
<mgrwt>
<rscale>  0 0.85291765E+02</rscale>
<asrwt>0</asrwt>
<pdfrwt beam="1">  1        2 0.25098160E-01 0.85291765E+02</pdfrwt>
<pdfrwt beam="2">  1       -2 0.17150848E-02 0.85291765E+02</pdfrwt>
<totfact> 0.17223710E+05</totfact>
</mgrwt>
</event>
<event>
 5    1  0.6112843E+000  0.9743849E+02  0.7546771E-02  0.1285777E+00
          1   -1    0    0  501    0  0.00000000000E+00  0.00000000000E+00  0.61042062534E+02  0.61042062534E+02  0.00000000000E+00 0. -1.
         -1   -1    0    0    0  501 -0.00000000000E+00 -0.00000000000E+00 -0.38884089237E+02  0.38884089237E+02  0.00000000000E+00 0.  1.
         23    2    1    2    0    0  0.00000000000E+00  0.00000000000E+00  0.22157973297E+02  0.99926151771E+02  0.97438493560E+02 0.  0.
        -13    1    3    3    0    0 -0.86955355344E+01  0.22509270431E+02 -0.32325137444E+02  0.40338494076E+02  0.00000000000E+00 0.  1.
         13    1    3    3    0    0  0.86955355344E+01 -0.22509270431E+02  0.54483110741E+02  0.59587657695E+02  0.00000000000E+00 0. -1.
<mgrwt>
<rscale>  0 0.97438494E+02</rscale>
<asrwt>0</asrwt>
<pdfrwt beam="1">  1        1 0.93910865E-02 0.97438494E+02</pdfrwt>
<pdfrwt beam="2">  1       -1 0.59821676E-02 0.97438494E+02</pdfrwt>
<totfact> 0.80289271E+04</totfact>
</mgrwt>
</event>
<event>
 5    1  0.6112843E+000  0.9193220E+02  0.7546771E-02  0.1298239E+00
          2   -1    0    0  501    0  0.00000000000E+00  0.00000000000E+00  0.27549284522E+02  0.27549284522E+02  0.00000000000E+00 0. -1.
         -2   -1    0    0    0  501 -0.00000000000E+00 -0.00000000000E+00 -0.76694644117E+02  0.76694644117E+02  0.00000000000E+00 0.  1.
         23    2    1    2    0    0  0.00000000000E+00  0.00000000000E+00 -0.49145359595E+02  0.10424392864E+03  0.91932204848E+02 0.  0.
        -13    1    3    3    0    0 -0.16304449868E+02 -0.97533068274E+01  0.22888692417E+02  0.29746500973E+02  0.00000000000E+00 0. -1.
         13    1    3    3    0    0  0.16304449868E+02  0.97533068274E+01 -0.72034052012E+02  0.74497427666E+02  0.00000000000E+00 0.  1.
<mgrwt>
<rscale>  0 0.91932205E+02</rscale>
<asrwt>0</asrwt>
<pdfrwt beam="1">  1        2 0.42383515E-02 0.91932205E+02</pdfrwt>
<pdfrwt beam="2">  1       -2 0.11799176E-01 0.91932205E+02</pdfrwt>
<totfact> 0.84346320E+04</totfact>
</mgrwt>
</event>
<event>
 5    1  0.6112843E+000  0.8945298E+02  0.7546771E-02  0.1304182E+00
         -3   -1    0    0    0  501 -0.00000000000E+00  0.00000000000E+00  0.17417682772E+03  0.17417682772E+03  0.00000000000E+00 0.  1.
          3   -1    0    0  501    0  0.00000000000E+00 -0.00000000000E+00 -0.11485217819E+02  0.11485217819E+02  0.00000000000E+00 0. -1.
         23    2    1    2    0    0  0.00000000000E+00  0.00000000000E+00  0.16269160990E+03  0.18566204554E+03  0.89452977713E+02 0.  0.
        -13    1    3    3    0    0  0.70380200304E+01  0.40865335082E+02  0.11613484428E+03  0.12331590081E+03  0.00000000000E+00 0.  1.
         13    1    3    3    0    0 -0.70380200304E+01 -0.40865335082E+02  0.46556765625E+02  0.62346144731E+02  0.00000000000E+00 0. -1.
<mgrwt>
<rscale>  0 0.89452978E+02</rscale>
<asrwt>0</asrwt>
<pdfrwt beam="2">  1        3 0.17669567E-02 0.89452978E+02</pdfrwt>
<pdfrwt beam="1">  1       -3 0.26796433E-01 0.89452978E+02</pdfrwt>
<totfact> 0.30800280E+04</totfact>
</mgrwt>
</event>
<event>
 5    1  0.6112843E+000  0.9045069E+02  0.7546771E-02  0.1301764E+00
         -2   -1    0    0    0  501 -0.00000000000E+00  0.00000000000E+00  0.26880127402E+02  0.26880127402E+02  0.00000000000E+00 0.  1.
          2   -1    0    0  501    0  0.00000000000E+00 -0.00000000000E+00 -0.76090850644E+02  0.76090850644E+02  0.00000000000E+00 0. -1.
         23    2    1    2    0    0  0.00000000000E+00  0.00000000000E+00 -0.49210723242E+02  0.10297097805E+03  0.90450688431E+02 0.  0.
        -13    1    3    3    0    0 -0.39372012927E+01 -0.43786083440E+02 -0.36685995135E+02  0.57258928527E+02  0.00000000000E+00 0.  1.
         13    1    3    3    0    0  0.39372012927E+01  0.43786083440E+02 -0.12524728107E+02  0.45712049518E+02  0.00000000000E+00 0. -1.
<mgrwt>
<rscale>  0 0.90450688E+02</rscale>
<asrwt>0</asrwt>
<pdfrwt beam="2">  1        2 0.11706284E-01 0.90450688E+02</pdfrwt>
<pdfrwt beam="1">  1       -2 0.41354043E-02 0.90450688E+02</pdfrwt>
<totfact> 0.11577931E+05</totfact>
</mgrwt>
</event>
<event>
 5    1  0.6112843E+000  0.9215369E+02  0.7546771E-02  0.1297718E+00
          2   -1    0    0  501    0  0.00000000000E+00  0.00000000000E+00  0.14495998416E+03  0.14495998416E+03  0.00000000000E+00 0. -1.
         -2   -1    0    0    0  501 -0.00000000000E+00 -0.00000000000E+00 -0.14645941606E+02  0.14645941606E+02  0.00000000000E+00 0.  1.
         23    2    1    2    0    0  0.00000000000E+00  0.00000000000E+00  0.13031404255E+03  0.15960592576E+03  0.92153686052E+02 0.  0.
        -13    1    3    3    0    0 -0.27148533167E+02  0.24261449096E+02  0.16249188515E+02  0.39871003157E+02  0.00000000000E+00 0.  1.
         13    1    3    3    0    0  0.27148533167E+02 -0.24261449096E+02  0.11406485404E+03  0.11973492261E+03  0.00000000000E+00 0. -1.
<mgrwt>
<rscale>  0 0.92153686E+02</rscale>
<asrwt>0</asrwt>
<pdfrwt beam="1">  1        2 0.22301535E-01 0.92153686E+02</pdfrwt>
<pdfrwt beam="2">  1       -2 0.22532219E-02 0.92153686E+02</pdfrwt>
<totfact> 0.13425006E+05</totfact>
</mgrwt>
</event>
<event>
 5    1  0.6112843E+000  0.9147538E+02  0.7546771E-02  0.1299318E+00
         -2   -1    0    0    0  501 -0.00000000000E+00  0.00000000000E+00  0.49225057966E+02  0.49225057966E+02  0.00000000000E+00 0.  1.
          2   -1    0    0  501    0  0.00000000000E+00 -0.00000000000E+00 -0.42497384852E+02  0.42497384852E+02  0.00000000000E+00 0. -1.
         23    2    1    2    0    0  0.00000000000E+00  0.00000000000E+00  0.67276731138E+01  0.91722442817E+02  0.91475378823E+02 0.  0.
        -13    1    3    3    0    0 -0.18998496741E+02  0.17068770866E+02  0.41409040755E+02  0.48651767425E+02  0.00000000000E+00 0.  1.
         13    1    3    3    0    0  0.18998496741E+02 -0.17068770866E+02 -0.34681367641E+02  0.43070675393E+02  0.00000000000E+00 0. -1.
<mgrwt>
<rscale>  0 0.91475379E+02</rscale>
<asrwt>0</asrwt>
<pdfrwt beam="2">  1        2 0.65380592E-02 0.91475379E+02</pdfrwt>
<pdfrwt beam="1">  1       -2 0.75730858E-02 0.91475379E+02</pdfrwt>
<totfact> 0.95985000E+04</totfact>
</mgrwt>
</event>
<event>
 5    1  0.6112843E+000  0.9065832E+02  0.7546771E-02  0.1301265E+00
         -1   -1    0    0    0  501 -0.00000000000E+00  0.00000000000E+00  0.23373616840E+02  0.23373616840E+02  0.00000000000E+00 0.  1.
          1   -1    0    0  501    0  0.00000000000E+00 -0.00000000000E+00 -0.87908214785E+02  0.87908214785E+02  0.00000000000E+00 0. -1.
         23    2    1    2    0    0  0.00000000000E+00  0.00000000000E+00 -0.64534597945E+02  0.11128183163E+03  0.90658324042E+02 0.  0.
        -13    1    3    3    0    0 -0.11049402490E+00  0.14640135737E+02 -0.84926125240E+02  0.86178840394E+02  0.00000000000E+00 0. -1.
         13    1    3    3    0    0  0.11049402490E+00 -0.14640135737E+02  0.20391527296E+02  0.25102991231E+02  0.00000000000E+00 0.  1.
<mgrwt>
<rscale>  0 0.90658324E+02</rscale>
<asrwt>0</asrwt>
<pdfrwt beam="2">  1        1 0.13524341E-01 0.90658324E+02</pdfrwt>
<pdfrwt beam="1">  1       -1 0.35959411E-02 0.90658324E+02</pdfrwt>
<totfact> 0.10387799E+05</totfact>
</mgrwt>
</event>
<event>
 5    1  0.6112843E+000  0.9140823E+02  0.7546771E-02  0.1299477E+00
          1   -1    0    0  501    0  0.00000000000E+00  0.00000000000E+00  0.40425300001E+03  0.40425300001E+03  0.00000000000E+00 0. -1.
         -1   -1    0    0    0  501 -0.00000000000E+00 -0.00000000000E+00 -0.51672252220E+01  0.51672252220E+01  0.00000000000E+00 0.  1.
         23    2    1    2    0    0  0.00000000000E+00  0.00000000000E+00  0.39908577479E+03  0.40942022523E+03  0.91408233715E+02 0.  0.
        -13    1    3    3    0    0 -0.14321160975E+02 -0.42643638782E+02  0.23573464681E+03  0.23998833156E+03  0.00000000000E+00 0. -1.
         13    1    3    3    0    0  0.14321160975E+02  0.42643638782E+02  0.16335112798E+03  0.16943189367E+03  0.00000000000E+00 0.  1.
<mgrwt>
<rscale>  0 0.91408234E+02</rscale>
<asrwt>0</asrwt>
<pdfrwt beam="1">  1        1 0.62192744E-01 0.91408234E+02</pdfrwt>
<pdfrwt beam="2">  1       -1 0.79495804E-03 0.91408234E+02</pdfrwt>
<totfact> 0.13421734E+05</totfact>
</mgrwt>
</event>
<event>
 5    1  0.6112843E+000  0.8961139E+02  0.7546771E-02  0.1303796E+00
          2   -1    0    0  501    0  0.00000000000E+00  0.00000000000E+00  0.28181837900E+02  0.28181837900E+02  0.00000000000E+00 0. -1.
         -2   -1    0    0    0  501 -0.00000000000E+00 -0.00000000000E+00 -0.71235602669E+02  0.71235602669E+02  0.00000000000E+00 0.  1.
         23    2    1    2    0    0  0.00000000000E+00  0.00000000000E+00 -0.43053764770E+02  0.99417440569E+02  0.89611387828E+02 0.  0.
        -13    1    3    3    0    0  0.27110036097E+02  0.12284569961E+02  0.15629628542E+02  0.33617703739E+02  0.00000000000E+00 0. -1.
         13    1    3    3    0    0 -0.27110036097E+02 -0.12284569961E+02 -0.58683393312E+02  0.65799736830E+02  0.00000000000E+00 0.  1.
<mgrwt>
<rscale>  0 0.89611388E+02</rscale>
<asrwt>0</asrwt>
<pdfrwt beam="1">  1        2 0.43356674E-02 0.89611388E+02</pdfrwt>
<pdfrwt beam="2">  1       -2 0.10959323E-01 0.89611388E+02</pdfrwt>
<totfact> 0.91593944E+04</totfact>
</mgrwt>
</event>
<event>
 5    1  0.6112843E+000  0.9070727E+02  0.7546771E-02  0.1301148E+00
          1   -1    0    0  501    0  0.00000000000E+00  0.00000000000E+00  0.21938188727E+03  0.21938188727E+03  0.00000000000E+00 0. -1.
         -1   -1    0    0    0  501 -0.00000000000E+00 -0.00000000000E+00 -0.93761254730E+01  0.93761254730E+01  0.00000000000E+00 0.  1.
         23    2    1    2    0    0  0.00000000000E+00  0.00000000000E+00  0.21000576180E+03  0.22875801274E+03  0.90707267659E+02 0.  0.
        -13    1    3    3    0    0 -0.40887053954E+02 -0.10686155104E+02  0.63486021613E+02  0.76265457661E+02  0.00000000000E+00 0.  1.
         13    1    3    3    0    0  0.40887053954E+02  0.10686155104E+02  0.14651974018E+03  0.15249255508E+03  0.00000000000E+00 0. -1.
<mgrwt>
<rscale>  0 0.90707268E+02</rscale>
<asrwt>0</asrwt>
<pdfrwt beam="1">  1        1 0.33751056E-01 0.90707268E+02</pdfrwt>
<pdfrwt beam="2">  1       -1 0.14424810E-02 0.90707268E+02</pdfrwt>
<totfact> 0.12223438E+05</totfact>
</mgrwt>
</event>
<event>
 5    1  0.6112843E+000  0.9223673E+02  0.7546771E-02  0.1297524E+00
          1   -1    0    0  501    0  0.00000000000E+00  0.00000000000E+00  0.76038847709E+02  0.76038847709E+02  0.00000000000E+00 0. -1.
         -1   -1    0    0    0  501 -0.00000000000E+00 -0.00000000000E+00 -0.27971276319E+02  0.27971276319E+02  0.00000000000E+00 0.  1.
         23    2    1    2    0    0  0.00000000000E+00  0.00000000000E+00  0.48067571390E+02  0.10401012403E+03  0.92236730649E+02 0.  0.
        -13    1    3    3    0    0  0.12057461508E+02 -0.14486955932E+02 -0.23429805851E+02  0.30070086006E+02  0.00000000000E+00 0.  1.
         13    1    3    3    0    0 -0.12057461508E+02  0.14486955932E+02  0.71497377241E+02  0.73940038021E+02  0.00000000000E+00 0. -1.
<mgrwt>
<rscale>  0 0.92236731E+02</rscale>
<asrwt>0</asrwt>
<pdfrwt beam="1">  1        1 0.11698284E-01 0.92236731E+02</pdfrwt>
<pdfrwt beam="2">  1       -1 0.43032733E-02 0.92236731E+02</pdfrwt>
<totfact> 0.96812046E+04</totfact>
</mgrwt>
</event>
<event>
 5    1  0.6112843E+000  0.6994832E+02  0.7546771E-02  0.1360269E+00
          2   -1    0    0  501    0  0.00000000000E+00  0.00000000000E+00  0.55903611699E+02  0.55903611699E+02  0.00000000000E+00 0.  1.
         -2   -1    0    0    0  501 -0.00000000000E+00 -0.00000000000E+00 -0.21880370975E+02  0.21880370975E+02  0.00000000000E+00 0. -1.
         23    2    1    2    0    0  0.00000000000E+00  0.00000000000E+00  0.34023240724E+02  0.77783982675E+02  0.69948317001E+02 0.  0.
        -13    1    3    3    0    0 -0.15595724145E+02 -0.20974331658E+02  0.42853666719E+02  0.50195477399E+02  0.00000000000E+00 0.  1.
         13    1    3    3    0    0  0.15595724145E+02  0.20974331658E+02 -0.88304259943E+01  0.27588505275E+02  0.00000000000E+00 0. -1.
<mgrwt>
<rscale>  0 0.69948317E+02</rscale>
<asrwt>0</asrwt>
<pdfrwt beam="1">  1        2 0.86005556E-02 0.69948317E+02</pdfrwt>
<pdfrwt beam="2">  1       -2 0.33662109E-02 0.69948317E+02</pdfrwt>
<totfact> 0.21660531E+05</totfact>
</mgrwt>
</event>
<event>
 5    1  0.6112843E+000  0.8628041E+02  0.7546771E-02  0.1312118E+00
          4   -1    0    0  501    0  0.00000000000E+00  0.00000000000E+00  0.60457539993E+02  0.60457539993E+02  0.00000000000E+00 0.  1.
         -4   -1    0    0    0  501 -0.00000000000E+00 -0.00000000000E+00 -0.30783211210E+02  0.30783211210E+02  0.00000000000E+00 0. -1.
         23    2    1    2    0    0  0.00000000000E+00  0.00000000000E+00  0.29674328784E+02  0.91240751203E+02  0.86280408502E+02 0.  0.
        -13    1    3    3    0    0  0.10331585971E+02 -0.40093204931E+02  0.27652910811E+02  0.49788454753E+02  0.00000000000E+00 0.  1.
         13    1    3    3    0    0 -0.10331585971E+02  0.40093204931E+02  0.20214179729E+01  0.41452296450E+02  0.00000000000E+00 0. -1.
<mgrwt>
<rscale>  0 0.86280409E+02</rscale>
<asrwt>0</asrwt>
<pdfrwt beam="1">  1        4 0.93011600E-02 0.86280409E+02</pdfrwt>
<pdfrwt beam="2">  1       -4 0.47358786E-02 0.86280409E+02</pdfrwt>
<totfact> 0.31352392E+04</totfact>
</mgrwt>
</event>
<event>
 5    1  0.6112843E+000  0.8991742E+02  0.7546771E-02  0.1303052E+00
          2   -1    0    0  501    0  0.00000000000E+00  0.00000000000E+00  0.69820190227E+02  0.69820190227E+02  0.00000000000E+00 0. -1.
         -2   -1    0    0    0  501 -0.00000000000E+00 -0.00000000000E+00 -0.28949871140E+02  0.28949871140E+02  0.00000000000E+00 0.  1.
         23    2    1    2    0    0  0.00000000000E+00  0.00000000000E+00  0.40870319087E+02  0.98770061367E+02  0.89917417891E+02 0.  0.
        -13    1    3    3    0    0 -0.31400589172E+02  0.13545871028E+02 -0.11623826024E+02  0.36119260149E+02  0.00000000000E+00 0.  1.
         13    1    3    3    0    0  0.31400589172E+02 -0.13545871028E+02  0.52494145111E+02  0.62650801218E+02  0.00000000000E+00 0. -1.
<mgrwt>
<rscale>  0 0.89917418E+02</rscale>
<asrwt>0</asrwt>
<pdfrwt beam="1">  1        2 0.10741568E-01 0.89917418E+02</pdfrwt>
<pdfrwt beam="2">  1       -2 0.44538263E-02 0.89917418E+02</pdfrwt>
<totfact> 0.11491903E+05</totfact>
</mgrwt>
</event>
<event>
 5    1  0.6112843E+000  0.9156998E+02  0.7546771E-02  0.1299094E+00
          2   -1    0    0  501    0  0.00000000000E+00  0.00000000000E+00  0.99064938850E+02  0.99064938850E+02  0.00000000000E+00 0. -1.
         -2   -1    0    0    0  501 -0.00000000000E+00 -0.00000000000E+00 -0.21160519027E+02  0.21160519027E+02  0.00000000000E+00 0.  1.
         23    2    1    2    0    0  0.00000000000E+00  0.00000000000E+00  0.77904419822E+02  0.12022545788E+03  0.91569984678E+02 0.  0.
        -13    1    3    3    0    0 -0.26477824919E+02  0.36575991152E+02  0.48898262447E+02  0.66557632256E+02  0.00000000000E+00 0. -1.
         13    1    3    3    0    0  0.26477824919E+02 -0.36575991152E+02  0.29006157376E+02  0.53667825621E+02  0.00000000000E+00 0.  1.
<mgrwt>
<rscale>  0 0.91569985E+02</rscale>
<asrwt>0</asrwt>
<pdfrwt beam="1">  1        2 0.15240760E-01 0.91569985E+02</pdfrwt>
<pdfrwt beam="2">  1       -2 0.32554645E-02 0.91569985E+02</pdfrwt>
<totfact> 0.12088345E+05</totfact>
</mgrwt>
</event>
<event>
 5    1  0.6112843E+000  0.9027667E+02  0.7546771E-02  0.1302183E+00
         -1   -1    0    0    0  501 -0.00000000000E+00  0.00000000000E+00  0.14688771308E+02  0.14688771308E+02  0.00000000000E+00 0.  1.
          1   -1    0    0  501    0  0.00000000000E+00 -0.00000000000E+00 -0.13870929662E+03  0.13870929662E+03  0.00000000000E+00 0. -1.
         23    2    1    2    0    0  0.00000000000E+00  0.00000000000E+00 -0.12402052531E+03  0.15339806793E+03  0.90276666674E+02 0.  0.
        -13    1    3    3    0    0 -0.36029989741E+02 -0.53591168429E+01 -0.10730560710E+03  0.11331978472E+03  0.00000000000E+00 0. -1.
         13    1    3    3    0    0  0.36029989741E+02  0.53591168429E+01 -0.16714918213E+02  0.40078283209E+02  0.00000000000E+00 0.  1.
<mgrwt>
<rscale>  0 0.90276667E+02</rscale>
<asrwt>0</asrwt>
<pdfrwt beam="2">  1        1 0.21339893E-01 0.90276667E+02</pdfrwt>
<pdfrwt beam="1">  1       -1 0.22598109E-02 0.90276667E+02</pdfrwt>
<totfact> 0.11354538E+05</totfact>
</mgrwt>
</event>
<event>
 5    1  0.6112843E+000  0.9197818E+02  0.7546771E-02  0.1298131E+00
          1   -1    0    0  501    0  0.00000000000E+00  0.00000000000E+00  0.26011970317E+03  0.26011970317E+03  0.00000000000E+00 0. -1.
         -1   -1    0    0    0  501 -0.00000000000E+00 -0.00000000000E+00 -0.81308573620E+01  0.81308573620E+01  0.00000000000E+00 0.  1.
         23    2    1    2    0    0  0.00000000000E+00  0.00000000000E+00  0.25198884581E+03  0.26825056053E+03  0.91978175748E+02 0.  0.
        -13    1    3    3    0    0  0.27023597309E+02  0.35626115992E+02  0.15733804561E+03  0.16356880983E+03  0.00000000000E+00 0.  1.
         13    1    3    3    0    0 -0.27023597309E+02 -0.35626115992E+02  0.94650800194E+02  0.10468175070E+03  0.00000000000E+00 0. -1.
<mgrwt>
<rscale>  0 0.91978176E+02</rscale>
<asrwt>0</asrwt>
<pdfrwt beam="1">  1        1 0.40018410E-01 0.91978176E+02</pdfrwt>
<pdfrwt beam="2">  1       -1 0.12509013E-02 0.91978176E+02</pdfrwt>
<totfact> 0.12174975E+05</totfact>
</mgrwt>
</event>
<event>
 5    1  0.6112843E+000  0.9067816E+02  0.7546771E-02  0.1301218E+00
         -2   -1    0    0    0  501 -0.00000000000E+00  0.00000000000E+00  0.61926099846E+01  0.61926099846E+01  0.00000000000E+00 0.  1.
          2   -1    0    0  501    0  0.00000000000E+00 -0.00000000000E+00 -0.33194922624E+03  0.33194922624E+03  0.00000000000E+00 0. -1.
         23    2    1    2    0    0  0.00000000000E+00  0.00000000000E+00 -0.32575661626E+03  0.33814183623E+03  0.90678158181E+02 0.  0.
        -13    1    3    3    0    0 -0.26458546454E+02  0.31333412654E+02 -0.90782043361E+02  0.99615344330E+02  0.00000000000E+00 0.  1.
         13    1    3    3    0    0  0.26458546454E+02 -0.31333412654E+02 -0.23497457290E+03  0.23852649190E+03  0.00000000000E+00 0. -1.
<mgrwt>
<rscale>  0 0.90678158E+02</rscale>
<asrwt>0</asrwt>
<pdfrwt beam="2">  1        2 0.51069124E-01 0.90678158E+02</pdfrwt>
<pdfrwt beam="1">  1       -2 0.95270901E-03 0.90678158E+02</pdfrwt>
<totfact> 0.18927444E+05</totfact>
</mgrwt>
</event>
<event>
 5    1  0.6112843E+000  0.9424705E+02  0.7546771E-02  0.1292881E+00
         -1   -1    0    0    0  501 -0.00000000000E+00  0.00000000000E+00  0.37659379462E+02  0.37659379462E+02  0.00000000000E+00 0.  1.
          1   -1    0    0  501    0  0.00000000000E+00 -0.00000000000E+00 -0.58966092589E+02  0.58966092589E+02  0.00000000000E+00 0. -1.
         23    2    1    2    0    0  0.00000000000E+00  0.00000000000E+00 -0.21306713127E+02  0.96625472052E+02  0.94247046770E+02 0.  0.
        -13    1    3    3    0    0 -0.11670747282E+02 -0.41833413655E+02  0.80943294754E+01  0.44178716706E+02  0.00000000000E+00 0.  1.
         13    1    3    3    0    0  0.11670747282E+02  0.41833413655E+02 -0.29401042602E+02  0.52446755345E+02  0.00000000000E+00 0. -1.
<mgrwt>
<rscale>  0 0.94247047E+02</rscale>
<asrwt>0</asrwt>
<pdfrwt beam="2">  1        1 0.90717065E-02 0.94247047E+02</pdfrwt>
<pdfrwt beam="1">  1       -1 0.57937507E-02 0.94247047E+02</pdfrwt>
<totfact> 0.87648902E+04</totfact>
</mgrwt>
</event>
<event>
 5    1  0.6112843E+000  0.9040400E+02  0.7546771E-02  0.1301876E+00
         -2   -1    0    0    0  501 -0.00000000000E+00  0.00000000000E+00  0.95264083095E+02  0.95264083095E+02  0.00000000000E+00 0.  1.
          2   -1    0    0  501    0  0.00000000000E+00 -0.00000000000E+00 -0.21447967001E+02  0.21447967001E+02  0.00000000000E+00 0. -1.
         23    2    1    2    0    0  0.00000000000E+00  0.00000000000E+00  0.73816116094E+02  0.11671205010E+03  0.90404002357E+02 0.  0.
        -13    1    3    3    0    0  0.11205474663E+02 -0.17029731904E+02  0.88992507910E+02  0.91297540466E+02  0.00000000000E+00 0.  1.
         13    1    3    3    0    0 -0.11205474663E+02  0.17029731904E+02 -0.15176391815E+02  0.25414509629E+02  0.00000000000E+00 0. -1.
<mgrwt>
<rscale>  0 0.90404002E+02</rscale>
<asrwt>0</asrwt>
<pdfrwt beam="2">  1        2 0.32996873E-02 0.90404002E+02</pdfrwt>
<pdfrwt beam="1">  1       -2 0.14656013E-01 0.90404002E+02</pdfrwt>
<totfact> 0.82686731E+04</totfact>
</mgrwt>
</event>
<event>
 5    1  0.6112843E+000  0.9190630E+02  0.7546771E-02  0.1298300E+00
         -2   -1    0    0    0  501 -0.00000000000E+00  0.00000000000E+00  0.32487111161E+03  0.32487111161E+03  0.00000000000E+00 0.  1.
          2   -1    0    0  501    0  0.00000000000E+00 -0.00000000000E+00 -0.65000923360E+01  0.65000923360E+01  0.00000000000E+00 0. -1.
         23    2    1    2    0    0  0.00000000000E+00  0.00000000000E+00  0.31837101927E+03  0.33137120394E+03  0.91906304957E+02 0.  0.
        -13    1    3    3    0    0  0.42416510821E+01  0.43338378891E+02  0.21211266097E+03  0.21653634252E+03  0.00000000000E+00 0.  1.
         13    1    3    3    0    0 -0.42416510821E+01 -0.43338378891E+02  0.10625835830E+03  0.11483486142E+03  0.00000000000E+00 0. -1.
<mgrwt>
<rscale>  0 0.91906305E+02</rscale>
<asrwt>0</asrwt>
<pdfrwt beam="2">  1        2 0.10000145E-02 0.91906305E+02</pdfrwt>
<pdfrwt beam="1">  1       -2 0.49980158E-01 0.91906305E+02</pdfrwt>
<totfact> 0.47718311E+04</totfact>
</mgrwt>
</event>
<event>
 5    1  0.6112843E+000  0.8893824E+02  0.7546771E-02  0.1305443E+00
         -4   -1    0    0    0  501 -0.00000000000E+00  0.00000000000E+00  0.31986887888E+02  0.31986887888E+02  0.00000000000E+00 0.  1.
          4   -1    0    0  501    0  0.00000000000E+00 -0.00000000000E+00 -0.61822295349E+02  0.61822295349E+02  0.00000000000E+00 0. -1.
         23    2    1    2    0    0  0.00000000000E+00  0.00000000000E+00 -0.29835407461E+02  0.93809183238E+02  0.88938244425E+02 0.  0.
        -13    1    3    3    0    0 -0.43625993403E+02  0.86113503713E+01 -0.15283351825E+02  0.47020883644E+02  0.00000000000E+00 0. -1.
         13    1    3    3    0    0  0.43625993403E+02 -0.86113503713E+01 -0.14552055636E+02  0.46788299594E+02  0.00000000000E+00 0.  1.
<mgrwt>
<rscale>  0 0.88938244E+02</rscale>
<asrwt>0</asrwt>
<pdfrwt beam="2">  1        4 0.95111223E-02 0.88938244E+02</pdfrwt>
<pdfrwt beam="1">  1       -4 0.49210597E-02 0.88938244E+02</pdfrwt>
<totfact> 0.28713820E+04</totfact>
</mgrwt>
</event>
<event>
 5    1  0.6112843E+000  0.8956897E+02  0.7546771E-02  0.1303899E+00
         -1   -1    0    0    0  501 -0.00000000000E+00  0.00000000000E+00  0.56645924130E+02  0.56645924130E+02  0.00000000000E+00 0.  1.
          1   -1    0    0  501    0  0.00000000000E+00 -0.00000000000E+00 -0.35406788324E+02  0.35406788324E+02  0.00000000000E+00 0. -1.
         23    2    1    2    0    0  0.00000000000E+00  0.00000000000E+00  0.21239135806E+02  0.92052712453E+02  0.89568973312E+02 0.  0.
        -13    1    3    3    0    0 -0.36894488916E+02  0.24765480377E+02  0.48865376364E+01  0.44703585771E+02  0.00000000000E+00 0.  1.
         13    1    3    3    0    0  0.36894488916E+02 -0.24765480377E+02  0.16352598170E+02  0.47349126682E+02  0.00000000000E+00 0. -1.
<mgrwt>
<rscale>  0 0.89568973E+02</rscale>
<asrwt>0</asrwt>
<pdfrwt beam="2">  1        1 0.54471982E-02 0.89568973E+02</pdfrwt>
<pdfrwt beam="1">  1       -1 0.87147575E-02 0.89568973E+02</pdfrwt>
<totfact> 0.93589112E+04</totfact>
</mgrwt>
</event>
<event>
 5    1  0.6112843E+000  0.8991855E+02  0.7546771E-02  0.1303049E+00
          3   -1    0    0  501    0  0.00000000000E+00  0.00000000000E+00  0.10156097318E+02  0.10156097318E+02  0.00000000000E+00 0. -1.
         -3   -1    0    0    0  501 -0.00000000000E+00 -0.00000000000E+00 -0.19902689327E+03  0.19902689327E+03  0.00000000000E+00 0.  1.
         23    2    1    2    0    0  0.00000000000E+00  0.00000000000E+00 -0.18887079595E+03  0.20918299059E+03  0.89918551965E+02 0.  0.
        -13    1    3    3    0    0  0.27195601129E+02  0.33227192770E+02 -0.12544583370E+03  0.13259073969E+03  0.00000000000E+00 0.  1.
         13    1    3    3    0    0 -0.27195601129E+02 -0.33227192770E+02 -0.63424962255E+02  0.76592250895E+02  0.00000000000E+00 0. -1.
<mgrwt>
<rscale>  0 0.89918552E+02</rscale>
<asrwt>0</asrwt>
<pdfrwt beam="1">  1        3 0.15624765E-02 0.89918552E+02</pdfrwt>
<pdfrwt beam="2">  1       -3 0.30619523E-01 0.89918552E+02</pdfrwt>
<totfact> 0.29096876E+04</totfact>
</mgrwt>
</event>
<event>
 5    1  0.6112843E+000  0.7985004E+02  0.7546771E-02  0.1329478E+00
         -2   -1    0    0    0  501 -0.00000000000E+00  0.00000000000E+00  0.72442697825E+01  0.72442697825E+01  0.00000000000E+00 0.  1.
          2   -1    0    0  501    0  0.00000000000E+00 -0.00000000000E+00 -0.22003695311E+03  0.22003695311E+03  0.00000000000E+00 0. -1.
         23    2    1    2    0    0  0.00000000000E+00  0.00000000000E+00 -0.21279268333E+03  0.22728122289E+03  0.79850035703E+02 0.  0.
        -13    1    3    3    0    0 -0.35090537154E+02 -0.32820251535E+01 -0.53002442607E+02  0.63650423480E+02  0.00000000000E+00 0.  1.
         13    1    3    3    0    0  0.35090537154E+02  0.32820251535E+01 -0.15979024072E+03  0.16363079941E+03  0.00000000000E+00 0. -1.
<mgrwt>
<rscale>  0 0.79850036E+02</rscale>
<asrwt>0</asrwt>
<pdfrwt beam="2">  1        2 0.33851842E-01 0.79850036E+02</pdfrwt>
<pdfrwt beam="1">  1       -2 0.11145029E-02 0.79850036E+02</pdfrwt>
<totfact> 0.22803684E+05</totfact>
</mgrwt>
</event>
<event>
 5    1  0.6112843E+000  0.9013330E+02  0.7546771E-02  0.1302529E+00
         -1   -1    0    0    0  501 -0.00000000000E+00  0.00000000000E+00  0.14373889733E+02  0.14373889733E+02  0.00000000000E+00 0.  1.
          1   -1    0    0  501    0  0.00000000000E+00 -0.00000000000E+00 -0.14129807999E+03  0.14129807999E+03  0.00000000000E+00 0. -1.
         23    2    1    2    0    0  0.00000000000E+00  0.00000000000E+00 -0.12692419025E+03  0.15567196972E+03  0.90133301754E+02 0.  0.
        -13    1    3    3    0    0  0.42130272416E+02  0.29874544542E+01 -0.90612579337E+02  0.99972617612E+02  0.00000000000E+00 0. -1.
         13    1    3    3    0    0 -0.42130272416E+02 -0.29874544542E+01 -0.36311610917E+02  0.55699352110E+02  0.00000000000E+00 0.  1.
<mgrwt>
<rscale>  0 0.90133302E+02</rscale>
<asrwt>0</asrwt>
<pdfrwt beam="2">  1        1 0.21738166E-01 0.90133302E+02</pdfrwt>
<pdfrwt beam="1">  1       -1 0.22113677E-02 0.90133302E+02</pdfrwt>
<totfact> 0.11441396E+05</totfact>
</mgrwt>
</event>
<event>
 5    1  0.6112843E+000  0.9327073E+02  0.7546771E-02  0.1295119E+00
          1   -1    0    0  501    0  0.00000000000E+00  0.00000000000E+00  0.31668896664E+03  0.31668896664E+03  0.00000000000E+00 0. -1.
         -1   -1    0    0    0  501 -0.00000000000E+00 -0.00000000000E+00 -0.68674874126E+01  0.68674874126E+01  0.00000000000E+00 0.  1.
         23    2    1    2    0    0  0.00000000000E+00  0.00000000000E+00  0.30982147923E+03  0.32355645405E+03  0.93270734792E+02 0.  0.
        -13    1    3    3    0    0  0.37210557960E+02  0.23770872234E+02  0.20696630493E+03  0.21162403306E+03  0.00000000000E+00 0. -1.
         13    1    3    3    0    0 -0.37210557960E+02 -0.23770872234E+02  0.10285517430E+03  0.11193242100E+03  0.00000000000E+00 0.  1.
<mgrwt>
<rscale>  0 0.93270735E+02</rscale>
<asrwt>0</asrwt>
<pdfrwt beam="1">  1        1 0.48721368E-01 0.93270735E+02</pdfrwt>
<pdfrwt beam="2">  1       -1 0.10565368E-02 0.93270735E+02</pdfrwt>
<totfact> 0.12183308E+05</totfact>
</mgrwt>
</event>
<event>
 5    1  0.6112843E+000  0.9144631E+02  0.7546771E-02  0.1299387E+00
         -3   -1    0    0    0  501 -0.00000000000E+00  0.00000000000E+00  0.39089103794E+02  0.39089103794E+02  0.00000000000E+00 0.  1.
          3   -1    0    0  501    0  0.00000000000E+00 -0.00000000000E+00 -0.53483108437E+02  0.53483108437E+02  0.00000000000E+00 0. -1.
         23    2    1    2    0    0  0.00000000000E+00  0.00000000000E+00 -0.14394004643E+02  0.92572212231E+02  0.91446307239E+02 0.  0.
        -13    1    3    3    0    0  0.14729466242E+01  0.15967899229E+02 -0.50543158567E+02  0.53025977176E+02  0.00000000000E+00 0. -1.
         13    1    3    3    0    0 -0.14729466242E+01 -0.15967899229E+02  0.36149153924E+02  0.39546235055E+02  0.00000000000E+00 0.  1.
<mgrwt>
<rscale>  0 0.91446307E+02</rscale>
<asrwt>0</asrwt>
<pdfrwt beam="2">  1        3 0.82281705E-02 0.91446307E+02</pdfrwt>
<pdfrwt beam="1">  1       -3 0.60137083E-02 0.91446307E+02</pdfrwt>
<totfact> 0.34949230E+04</totfact>
</mgrwt>
</event>
<event>
 5    1  0.6112843E+000  0.8951217E+02  0.7546771E-02  0.1304037E+00
          1   -1    0    0  501    0  0.00000000000E+00  0.00000000000E+00  0.18275124485E+03  0.18275124485E+03  0.00000000000E+00 0. -1.
         -1   -1    0    0    0  501 -0.00000000000E+00 -0.00000000000E+00 -0.10960838797E+02  0.10960838797E+02  0.00000000000E+00 0.  1.
         23    2    1    2    0    0  0.00000000000E+00  0.00000000000E+00  0.17179040605E+03  0.19371208365E+03  0.89512165314E+02 0.  0.
        -13    1    3    3    0    0  0.41950128735E+02 -0.46771715757E+01  0.53693353426E+02  0.68298356034E+02  0.00000000000E+00 0.  1.
         13    1    3    3    0    0 -0.41950128735E+02  0.46771715757E+01  0.11809705263E+03  0.12541372761E+03  0.00000000000E+00 0. -1.
<mgrwt>
<rscale>  0 0.89512165E+02</rscale>
<asrwt>0</asrwt>
<pdfrwt beam="1">  1        1 0.28115574E-01 0.89512165E+02</pdfrwt>
<pdfrwt beam="2">  1       -1 0.16862830E-02 0.89512165E+02</pdfrwt>
<totfact> 0.12225843E+05</totfact>
</mgrwt>
</event>
<event>
 5    1  0.6112843E+000  0.9571567E+02  0.7546771E-02  0.1289572E+00
         -2   -1    0    0    0  501 -0.00000000000E+00  0.00000000000E+00  0.22898749622E+03  0.22898749622E+03  0.00000000000E+00 0.  1.
          2   -1    0    0  501    0  0.00000000000E+00 -0.00000000000E+00 -0.10002171508E+02  0.10002171508E+02  0.00000000000E+00 0. -1.
         23    2    1    2    0    0  0.00000000000E+00  0.00000000000E+00  0.21898532472E+03  0.23898966773E+03  0.95715666649E+02 0.  0.
        -13    1    3    3    0    0 -0.31123207982E+02 -0.33597716275E+02  0.14417235698E+03  0.15127170631E+03  0.00000000000E+00 0.  1.
         13    1    3    3    0    0  0.31123207982E+02  0.33597716275E+02  0.74812967736E+02  0.87717961418E+02  0.00000000000E+00 0. -1.
<mgrwt>
<rscale>  0 0.95715667E+02</rscale>
<asrwt>0</asrwt>
<pdfrwt beam="2">  1        2 0.15387958E-02 0.95715667E+02</pdfrwt>
<pdfrwt beam="1">  1       -2 0.35228842E-01 0.95715667E+02</pdfrwt>
<totfact> 0.51751378E+04</totfact>
</mgrwt>
</event>
<event>
 5    1  0.6112843E+000  0.9059762E+02  0.7546771E-02  0.1301411E+00
         -2   -1    0    0    0  501 -0.00000000000E+00  0.00000000000E+00  0.15487487310E+03  0.15487487310E+03  0.00000000000E+00 0. -1.
          2   -1    0    0  501    0  0.00000000000E+00 -0.00000000000E+00 -0.13249289275E+02  0.13249289275E+02  0.00000000000E+00 0.  1.
         23    2    1    2    0    0  0.00000000000E+00  0.00000000000E+00  0.14162558383E+03  0.16812416238E+03  0.90597615757E+02 0.  0.
        -13    1    3    3    0    0  0.78889646953E+01  0.40555858202E+02  0.36345818742E+02  0.55027556174E+02  0.00000000000E+00 0.  1.
         13    1    3    3    0    0 -0.78889646953E+01 -0.40555858202E+02  0.10527976508E+03  0.11309660620E+03  0.00000000000E+00 0. -1.
<mgrwt>
<rscale>  0 0.90597616E+02</rscale>
<asrwt>0</asrwt>
<pdfrwt beam="2">  1        2 0.20383523E-02 0.90597616E+02</pdfrwt>
<pdfrwt beam="1">  1       -2 0.23826902E-01 0.90597616E+02</pdfrwt>
<totfact> 0.70164311E+04</totfact>
</mgrwt>
</event>
<event>
 5    1  0.6112843E+000  0.9324881E+02  0.7546771E-02  0.1295170E+00
          1   -1    0    0  501    0  0.00000000000E+00  0.00000000000E+00  0.39461442379E+02  0.39461442379E+02  0.00000000000E+00 0. -1.
         -1   -1    0    0    0  501 -0.00000000000E+00 -0.00000000000E+00 -0.55087569266E+02  0.55087569266E+02  0.00000000000E+00 0.  1.
         23    2    1    2    0    0  0.00000000000E+00  0.00000000000E+00 -0.15626126887E+02  0.94549011645E+02  0.93248805684E+02 0.  0.
        -13    1    3    3    0    0 -0.15599293342E+01  0.36905803020E+02 -0.36659054167E+02  0.52041886289E+02  0.00000000000E+00 0.  1.
         13    1    3    3    0    0  0.15599293342E+01 -0.36905803020E+02  0.21032927281E+02  0.42507125356E+02  0.00000000000E+00 0. -1.
<mgrwt>
<rscale>  0 0.93248806E+02</rscale>
<asrwt>0</asrwt>
<pdfrwt beam="1">  1        1 0.60709912E-02 0.93248806E+02</pdfrwt>
<pdfrwt beam="2">  1       -1 0.84750106E-02 0.93248806E+02</pdfrwt>
<totfact> 0.84893240E+04</totfact>
</mgrwt>
</event>
<event>
 5    1  0.6112843E+000  0.9154744E+02  0.7546771E-02  0.1299147E+00
          1   -1    0    0  501    0  0.00000000000E+00  0.00000000000E+00  0.62926309013E+02  0.62926309013E+02  0.00000000000E+00 0. -1.
         -1   -1    0    0    0  501 -0.00000000000E+00 -0.00000000000E+00 -0.33296622451E+02  0.33296622451E+02  0.00000000000E+00 0.  1.
         23    2    1    2    0    0  0.00000000000E+00  0.00000000000E+00  0.29629686562E+02  0.96222931464E+02  0.91547442420E+02 0.  0.
        -13    1    3    3    0    0 -0.14861051688E+02 -0.18879685208E+02 -0.26135702723E+02  0.35501666548E+02  0.00000000000E+00 0.  1.
         13    1    3    3    0    0  0.14861051688E+02  0.18879685208E+02  0.55765389285E+02  0.60721264916E+02  0.00000000000E+00 0. -1.
<mgrwt>
<rscale>  0 0.91547442E+02</rscale>
<asrwt>0</asrwt>
<pdfrwt beam="1">  1        1 0.96809706E-02 0.91547442E+02</pdfrwt>
<pdfrwt beam="2">  1       -1 0.51225573E-02 0.91547442E+02</pdfrwt>
<totfact> 0.95984530E+04</totfact>
</mgrwt>
</event>
<event>
 5    1  0.6112843E+000  0.9111772E+02  0.7546771E-02  0.1300167E+00
          2   -1    0    0  501    0  0.00000000000E+00  0.00000000000E+00  0.13044657792E+03  0.13044657792E+03  0.00000000000E+00 0. -1.
         -2   -1    0    0    0  501 -0.00000000000E+00 -0.00000000000E+00 -0.15911567626E+02  0.15911567626E+02  0.00000000000E+00 0.  1.
         23    2    1    2    0    0  0.00000000000E+00  0.00000000000E+00  0.11453501029E+03  0.14635814554E+03  0.91117716084E+02 0.  0.
        -13    1    3    3    0    0 -0.22571000572E+02 -0.39369602371E+02  0.63731330944E+02  0.78237447565E+02  0.00000000000E+00 0.  1.
         13    1    3    3    0    0  0.22571000572E+02  0.39369602371E+02  0.50803679346E+02  0.68120697976E+02  0.00000000000E+00 0. -1.
<mgrwt>
<rscale>  0 0.91117716E+02</rscale>
<asrwt>0</asrwt>
<pdfrwt beam="1">  1        2 0.20068704E-01 0.91117716E+02</pdfrwt>
<pdfrwt beam="2">  1       -2 0.24479336E-02 0.91117716E+02</pdfrwt>
<totfact> 0.13366710E+05</totfact>
</mgrwt>
</event>
<event>
 5    1  0.6112843E+000  0.9238064E+02  0.7546771E-02  0.1297187E+00
         -2   -1    0    0    0  501 -0.00000000000E+00  0.00000000000E+00  0.46188584483E+01  0.46188584483E+01  0.00000000000E+00 0.  1.
          2   -1    0    0  501    0  0.00000000000E+00 -0.00000000000E+00 -0.46192051573E+03  0.46192051573E+03  0.00000000000E+00 0. -1.
         23    2    1    2    0    0  0.00000000000E+00  0.00000000000E+00 -0.45730165729E+03  0.46653937418E+03  0.92380635992E+02 0.  0.
        -13    1    3    3    0    0 -0.21499718728E+02 -0.40116265010E+02 -0.18888791813E+03  0.19429410243E+03  0.00000000000E+00 0.  1.
         13    1    3    3    0    0  0.21499718728E+02  0.40116265010E+02 -0.26841373916E+03  0.27224527175E+03  0.00000000000E+00 0. -1.
<mgrwt>
<rscale>  0 0.92380636E+02</rscale>
<asrwt>0</asrwt>
<pdfrwt beam="2">  1        2 0.71064699E-01 0.92380636E+02</pdfrwt>
<pdfrwt beam="1">  1       -2 0.71059356E-03 0.92380636E+02</pdfrwt>
<totfact> 0.20272482E+05</totfact>
</mgrwt>
</event>
<event>
 5    1  0.6112843E+000  0.7625174E+02  0.7546771E-02  0.1340038E+00
          2   -1    0    0  501    0  0.00000000000E+00  0.00000000000E+00  0.88184820212E+02  0.88184820212E+02  0.00000000000E+00 0.  1.
         -2   -1    0    0    0  501 -0.00000000000E+00 -0.00000000000E+00 -0.16483358262E+02  0.16483358262E+02  0.00000000000E+00 0. -1.
         23    2    1    2    0    0  0.00000000000E+00  0.00000000000E+00  0.71701461950E+02  0.10466817847E+03  0.76251740566E+02 0.  0.
        -13    1    3    3    0    0 -0.28586782345E+02 -0.54368743391E+01  0.20369119315E+01  0.29170408595E+02  0.00000000000E+00 0. -1.
         13    1    3    3    0    0  0.28586782345E+02  0.54368743391E+01  0.69664550019E+02  0.75497769879E+02  0.00000000000E+00 0.  1.
<mgrwt>
<rscale>  0 0.76251741E+02</rscale>
<asrwt>0</asrwt>
<pdfrwt beam="1">  1        2 0.13566895E-01 0.76251741E+02</pdfrwt>
<pdfrwt beam="2">  1       -2 0.25359013E-02 0.76251741E+02</pdfrwt>
<totfact> 0.19244703E+05</totfact>
</mgrwt>
</event>
<event>
 5    1  0.6112843E+000  0.9345735E+02  0.7546771E-02  0.1294689E+00
          3   -1    0    0  501    0  0.00000000000E+00  0.00000000000E+00  0.28966315878E+03  0.28966315878E+03  0.00000000000E+00 0. -1.
         -3   -1    0    0    0  501 -0.00000000000E+00 -0.00000000000E+00 -0.75383048426E+01  0.75383048426E+01  0.00000000000E+00 0.  1.
         23    2    1    2    0    0  0.00000000000E+00  0.00000000000E+00  0.28212485394E+03  0.29720146363E+03  0.93457352682E+02 0.  0.
        -13    1    3    3    0    0  0.36042028152E+02 -0.21217240233E+02  0.74784725505E+02  0.85685204355E+02  0.00000000000E+00 0.  1.
         13    1    3    3    0    0 -0.36042028152E+02  0.21217240233E+02  0.20734012844E+03  0.21151625927E+03  0.00000000000E+00 0. -1.
<mgrwt>
<rscale>  0 0.93457353E+02</rscale>
<asrwt>0</asrwt>
<pdfrwt beam="1">  1        3 0.44563554E-01 0.93457353E+02</pdfrwt>
<pdfrwt beam="2">  1       -3 0.11597394E-02 0.93457353E+02</pdfrwt>
<totfact> 0.22586967E+04</totfact>
</mgrwt>
</event>
<event>
 5    1  0.6112843E+000  0.8742878E+02  0.7546771E-02  0.1309200E+00
          1   -1    0    0  501    0  0.00000000000E+00  0.00000000000E+00  0.75779649008E+02  0.75779649008E+02  0.00000000000E+00 0. -1.
         -1   -1    0    0    0  501 -0.00000000000E+00 -0.00000000000E+00 -0.25217165866E+02  0.25217165866E+02  0.00000000000E+00 0.  1.
         23    2    1    2    0    0  0.00000000000E+00  0.00000000000E+00  0.50562483142E+02  0.10099681487E+03  0.87428781949E+02 0.  0.
        -13    1    3    3    0    0 -0.30798721811E+02  0.13846165211E+02 -0.67879192437E+01  0.34443481298E+02  0.00000000000E+00 0.  1.
         13    1    3    3    0    0  0.30798721811E+02 -0.13846165211E+02  0.57350402386E+02  0.66553333576E+02  0.00000000000E+00 0. -1.
<mgrwt>
<rscale>  0 0.87428782E+02</rscale>
<asrwt>0</asrwt>
<pdfrwt beam="1">  1        1 0.11658407E-01 0.87428782E+02</pdfrwt>
<pdfrwt beam="2">  1       -1 0.38795640E-02 0.87428782E+02</pdfrwt>
<totfact> 0.11206378E+05</totfact>
</mgrwt>
</event>
<event>
 5    1  0.6112843E+000  0.9122466E+02  0.7546771E-02  0.1299913E+00
         -2   -1    0    0    0  501 -0.00000000000E+00  0.00000000000E+00  0.38908704257E+02  0.38908704257E+02  0.00000000000E+00 0.  1.
          2   -1    0    0  501    0  0.00000000000E+00 -0.00000000000E+00 -0.53470932755E+02  0.53470932755E+02  0.00000000000E+00 0. -1.
         23    2    1    2    0    0  0.00000000000E+00  0.00000000000E+00 -0.14562228499E+02  0.92379637012E+02  0.91224661335E+02 0.  0.
        -13    1    3    3    0    0  0.26150946862E+02  0.21007610552E+02  0.24018017213E+02  0.41255991973E+02  0.00000000000E+00 0.  1.
         13    1    3    3    0    0 -0.26150946862E+02 -0.21007610552E+02 -0.38580245712E+02  0.51123645039E+02  0.00000000000E+00 0. -1.
<mgrwt>
<rscale>  0 0.91224661E+02</rscale>
<asrwt>0</asrwt>
<pdfrwt beam="2">  1        2 0.82262973E-02 0.91224661E+02</pdfrwt>
<pdfrwt beam="1">  1       -2 0.59859545E-02 0.91224661E+02</pdfrwt>
<totfact> 0.10271945E+05</totfact>
</mgrwt>
</event>
<event>
 5    1  0.6112843E+000  0.9660569E+02  0.7546771E-02  0.1287600E+00
         -4   -1    0    0    0  501 -0.00000000000E+00  0.00000000000E+00  0.33490609549E+02  0.33490609549E+02  0.00000000000E+00 0.  1.
          4   -1    0    0  501    0  0.00000000000E+00 -0.00000000000E+00 -0.69666232627E+02  0.69666232627E+02  0.00000000000E+00 0. -1.
         23    2    1    2    0    0  0.00000000000E+00  0.00000000000E+00 -0.36175623077E+02  0.10315684218E+03  0.96605685043E+02 0.  0.
        -13    1    3    3    0    0 -0.16050157331E+02 -0.45424510285E+02 -0.21813074135E+02  0.52884817181E+02  0.00000000000E+00 0. -1.
         13    1    3    3    0    0  0.16050157331E+02  0.45424510285E+02 -0.14362548942E+02  0.50272024995E+02  0.00000000000E+00 0.  1.
<mgrwt>
<rscale>  0 0.96605685E+02</rscale>
<asrwt>0</asrwt>
<pdfrwt beam="2">  1        4 0.10717882E-01 0.96605685E+02</pdfrwt>
<pdfrwt beam="1">  1       -4 0.51524015E-02 0.96605685E+02</pdfrwt>
<totfact> 0.22435473E+04</totfact>
</mgrwt>
</event>
<event>
 5    1  0.6112843E+000  0.8986236E+02  0.7546771E-02  0.1303185E+00
         -1   -1    0    0    0  501 -0.00000000000E+00  0.00000000000E+00  0.73694533716E+02  0.73694533716E+02  0.00000000000E+00 0.  1.
          1   -1    0    0  501    0  0.00000000000E+00 -0.00000000000E+00 -0.27394309675E+02  0.27394309675E+02  0.00000000000E+00 0. -1.
         23    2    1    2    0    0  0.00000000000E+00  0.00000000000E+00  0.46300224041E+02  0.10108884339E+03  0.89862358704E+02 0.  0.
        -13    1    3    3    0    0 -0.32823241871E+02  0.30620327156E+02  0.20945354134E+02  0.49534609132E+02  0.00000000000E+00 0.  1.
         13    1    3    3    0    0  0.32823241871E+02 -0.30620327156E+02  0.25354869907E+02  0.51554234259E+02  0.00000000000E+00 0. -1.
<mgrwt>
<rscale>  0 0.89862359E+02</rscale>
<asrwt>0</asrwt>
<pdfrwt beam="2">  1        1 0.42145092E-02 0.89862359E+02</pdfrwt>
<pdfrwt beam="1">  1       -1 0.11337621E-01 0.89862359E+02</pdfrwt>
<totfact> 0.89055602E+04</totfact>
</mgrwt>
</event>
<event>
 5    1  0.6112843E+000  0.8856725E+02  0.7546771E-02  0.1306359E+00
          3   -1    0    0  501    0  0.00000000000E+00  0.00000000000E+00  0.17047977868E+02  0.17047977868E+02  0.00000000000E+00 0. -1.
         -3   -1    0    0    0  501 -0.00000000000E+00 -0.00000000000E+00 -0.11503061760E+03  0.11503061760E+03  0.00000000000E+00 0.  1.
         23    2    1    2    0    0  0.00000000000E+00  0.00000000000E+00 -0.97982639731E+02  0.13207859547E+03  0.88567249544E+02 0.  0.
        -13    1    3    3    0    0  0.22648532985E+02 -0.20375588528E+02 -0.10629819544E+01  0.30483611743E+02  0.00000000000E+00 0. -1.
         13    1    3    3    0    0 -0.22648532985E+02  0.20375588528E+02 -0.96919657777E+02  0.10159498372E+03  0.00000000000E+00 0.  1.
<mgrwt>
<rscale>  0 0.88567250E+02</rscale>
<asrwt>0</asrwt>
<pdfrwt beam="1">  1        3 0.26227657E-02 0.88567250E+02</pdfrwt>
<pdfrwt beam="2">  1       -3 0.17697019E-01 0.88567250E+02</pdfrwt>
<totfact> 0.35090949E+04</totfact>
</mgrwt>
</event>
<event>
 5    1  0.6112843E+000  0.9107071E+02  0.7546771E-02  0.1300279E+00
         -2   -1    0    0    0  501 -0.00000000000E+00  0.00000000000E+00  0.47025878580E+01  0.47025878580E+01  0.00000000000E+00 0.  1.
          2   -1    0    0  501    0  0.00000000000E+00 -0.00000000000E+00 -0.44092077775E+03  0.44092077775E+03  0.00000000000E+00 0. -1.
         23    2    1    2    0    0  0.00000000000E+00  0.00000000000E+00 -0.43621818989E+03  0.44562336561E+03  0.91070713093E+02 0.  0.
        -13    1    3    3    0    0 -0.16038287553E+02 -0.41663835411E+02 -0.17424313049E+03  0.17987153853E+03  0.00000000000E+00 0. -1.
         13    1    3    3    0    0  0.16038287553E+02  0.41663835411E+02 -0.26197505940E+03  0.26575182708E+03  0.00000000000E+00 0.  1.
<mgrwt>
<rscale>  0 0.91070713E+02</rscale>
<asrwt>0</asrwt>
<pdfrwt beam="2">  1        2 0.67833966E-01 0.91070713E+02</pdfrwt>
<pdfrwt beam="1">  1       -2 0.72347505E-03 0.91070713E+02</pdfrwt>
<totfact> 0.20722467E+05</totfact>
</mgrwt>
</event>
<event>
 5    1  0.6112843E+000  0.9025561E+02  0.7546771E-02  0.1302234E+00
         -1   -1    0    0    0  501 -0.00000000000E+00  0.00000000000E+00  0.15486349241E+03  0.15486349241E+03  0.00000000000E+00 0.  1.
          1   -1    0    0  501    0  0.00000000000E+00 -0.00000000000E+00 -0.13150412831E+02  0.13150412831E+02  0.00000000000E+00 0. -1.
         23    2    1    2    0    0  0.00000000000E+00  0.00000000000E+00  0.14171307957E+03  0.16801390524E+03  0.90255611629E+02 0.  0.
        -13    1    3    3    0    0 -0.39010727494E+02  0.22195283420E+02  0.79598101291E+02  0.91380113782E+02  0.00000000000E+00 0.  1.
         13    1    3    3    0    0  0.39010727494E+02 -0.22195283420E+02  0.62114978283E+02  0.76633791455E+02  0.00000000000E+00 0. -1.
<mgrwt>
<rscale>  0 0.90255612E+02</rscale>
<asrwt>0</asrwt>
<pdfrwt beam="2">  1        1 0.20231405E-02 0.90255612E+02</pdfrwt>
<pdfrwt beam="1">  1       -1 0.23825151E-01 0.90255612E+02</pdfrwt>
<totfact> 0.76207729E+04</totfact>
</mgrwt>
</event>
<event>
 5    1  0.6112843E+000  0.8989161E+02  0.7546771E-02  0.1303114E+00
         -3   -1    0    0    0  501 -0.00000000000E+00  0.00000000000E+00  0.46164273727E+02  0.46164273727E+02  0.00000000000E+00 0.  1.
          3   -1    0    0  501    0  0.00000000000E+00 -0.00000000000E+00 -0.43759498217E+02  0.43759498217E+02  0.00000000000E+00 0. -1.
         23    2    1    2    0    0  0.00000000000E+00  0.00000000000E+00  0.24047755104E+01  0.89923771944E+02  0.89891611485E+02 0.  0.
        -13    1    3    3    0    0  0.20661670720E+02 -0.10142538388E+02  0.39821247467E+02  0.45994646120E+02  0.00000000000E+00 0.  1.
         13    1    3    3    0    0 -0.20661670720E+02  0.10142538388E+02 -0.37416471957E+02  0.43929125823E+02  0.00000000000E+00 0. -1.
<mgrwt>
<rscale>  0 0.89891611E+02</rscale>
<asrwt>0</asrwt>
<pdfrwt beam="2">  1        3 0.67322304E-02 0.89891611E+02</pdfrwt>
<pdfrwt beam="1">  1       -3 0.71021960E-02 0.89891611E+02</pdfrwt>
<totfact> 0.36830006E+04</totfact>
</mgrwt>
</event>
<event>
 5    1  0.6112843E+000  0.9083498E+02  0.7546771E-02  0.1300842E+00
         -3   -1    0    0    0  501 -0.00000000000E+00  0.00000000000E+00  0.21700859910E+03  0.21700859910E+03  0.00000000000E+00 0.  1.
          3   -1    0    0  501    0  0.00000000000E+00 -0.00000000000E+00 -0.95053763486E+01  0.95053763486E+01  0.00000000000E+00 0. -1.
         23    2    1    2    0    0  0.00000000000E+00  0.00000000000E+00  0.20750322276E+03  0.22651397545E+03  0.90834980165E+02 0.  0.
        -13    1    3    3    0    0 -0.42060356817E+02 -0.12553889813E+02  0.13284072407E+03  0.13990472378E+03  0.00000000000E+00 0.  1.
         13    1    3    3    0    0  0.42060356817E+02  0.12553889813E+02  0.74662498685E+02  0.86609251671E+02  0.00000000000E+00 0. -1.
<mgrwt>
<rscale>  0 0.90834980E+02</rscale>
<asrwt>0</asrwt>
<pdfrwt beam="2">  1        3 0.14623658E-02 0.90834980E+02</pdfrwt>
<pdfrwt beam="1">  1       -3 0.33385935E-01 0.90834980E+02</pdfrwt>
<totfact> 0.27456968E+04</totfact>
</mgrwt>
</event>
<event>
 5    1  0.6112843E+000  0.8377315E+02  0.7546771E-02  0.1318672E+00
         -3   -1    0    0    0  501 -0.00000000000E+00  0.00000000000E+00  0.17769852324E+03  0.17769852324E+03  0.00000000000E+00 0.  1.
          3   -1    0    0  501    0  0.00000000000E+00 -0.00000000000E+00 -0.98733809745E+01  0.98733809745E+01  0.00000000000E+00 0. -1.
         23    2    1    2    0    0  0.00000000000E+00  0.00000000000E+00  0.16782514227E+03  0.18757190422E+03  0.83773151274E+02 0.  0.
        -13    1    3    3    0    0  0.41112366120E+02  0.64518994337E+01  0.73260839369E+02  0.84255588772E+02  0.00000000000E+00 0.  1.
         13    1    3    3    0    0 -0.41112366120E+02 -0.64518994337E+01  0.94564302900E+02  0.10331631545E+03  0.00000000000E+00 0. -1.
<mgrwt>
<rscale>  0 0.83773151E+02</rscale>
<asrwt>0</asrwt>
<pdfrwt beam="2">  1        3 0.15189818E-02 0.83773151E+02</pdfrwt>
<pdfrwt beam="1">  1       -3 0.27338232E-01 0.83773151E+02</pdfrwt>
<totfact> 0.36592391E+04</totfact>
</mgrwt>
</event>
<event>
 5    1  0.6112843E+000  0.9458938E+02  0.7546771E-02  0.1292104E+00
         -1   -1    0    0    0  501 -0.00000000000E+00  0.00000000000E+00  0.28545985252E+02  0.28545985252E+02  0.00000000000E+00 0.  1.
          1   -1    0    0  501    0  0.00000000000E+00 -0.00000000000E+00 -0.78357352019E+02  0.78357352019E+02  0.00000000000E+00 0. -1.
         23    2    1    2    0    0  0.00000000000E+00  0.00000000000E+00 -0.49811366767E+02  0.10690333727E+03  0.94589382388E+02 0.  0.
        -13    1    3    3    0    0  0.31673743966E+02  0.16744802071E+01  0.14743585618E+02  0.34977181957E+02  0.00000000000E+00 0.  1.
         13    1    3    3    0    0 -0.31673743966E+02 -0.16744802071E+01 -0.64554952385E+02  0.71926155314E+02  0.00000000000E+00 0. -1.
<mgrwt>
<rscale>  0 0.94589382E+02</rscale>
<asrwt>0</asrwt>
<pdfrwt beam="2">  1        1 0.12054977E-01 0.94589382E+02</pdfrwt>
<pdfrwt beam="1">  1       -1 0.43916900E-02 0.94589382E+02</pdfrwt>
<totfact> 0.90743445E+04</totfact>
</mgrwt>
</event>
<event>
 5    1  0.6112843E+000  0.9004523E+02  0.7546771E-02  0.1302742E+00
          1   -1    0    0  501    0  0.00000000000E+00  0.00000000000E+00  0.25499159759E+02  0.25499159759E+02  0.00000000000E+00 0. -1.
         -1   -1    0    0    0  501 -0.00000000000E+00 -0.00000000000E+00 -0.79494215475E+02  0.79494215475E+02  0.00000000000E+00 0.  1.
         23    2    1    2    0    0  0.00000000000E+00  0.00000000000E+00 -0.53995055715E+02  0.10499337523E+03  0.90045226422E+02 0.  0.
        -13    1    3    3    0    0  0.21824799495E+02 -0.27768693949E+02  0.55592089110E+01  0.35753699673E+02  0.00000000000E+00 0. -1.
         13    1    3    3    0    0 -0.21824799495E+02  0.27768693949E+02 -0.59554264626E+02  0.69239675561E+02  0.00000000000E+00 0.  1.
<mgrwt>
<rscale>  0 0.90045226E+02</rscale>
<asrwt>0</asrwt>
<pdfrwt beam="1">  1        1 0.39229477E-02 0.90045226E+02</pdfrwt>
<pdfrwt beam="2">  1       -1 0.12229879E-01 0.90045226E+02</pdfrwt>
<totfact> 0.87491069E+04</totfact>
</mgrwt>
</event>
<event>
 5    1  0.6112843E+000  0.9196417E+02  0.7546771E-02  0.1298164E+00
          2   -1    0    0  501    0  0.00000000000E+00  0.00000000000E+00  0.10584237395E+02  0.10584237395E+02  0.00000000000E+00 0. -1.
         -2   -1    0    0    0  501 -0.00000000000E+00 -0.00000000000E+00 -0.19976425031E+03  0.19976425031E+03  0.00000000000E+00 0.  1.
         23    2    1    2    0    0  0.00000000000E+00  0.00000000000E+00 -0.18918001291E+03  0.21034848770E+03  0.91964172336E+02 0.  0.
        -13    1    3    3    0    0 -0.21121688227E+02  0.25320090308E+02 -0.16789460634E+03  0.17110181626E+03  0.00000000000E+00 0.  1.
         13    1    3    3    0    0  0.21121688227E+02 -0.25320090308E+02 -0.21285406565E+02  0.39246671444E+02  0.00000000000E+00 0. -1.
<mgrwt>
<rscale>  0 0.91964172E+02</rscale>
<asrwt>0</asrwt>
<pdfrwt beam="1">  1        2 0.16283442E-02 0.91964172E+02</pdfrwt>
<pdfrwt beam="2">  1       -2 0.30732961E-01 0.91964172E+02</pdfrwt>
<totfact> 0.60995658E+04</totfact>
</mgrwt>
</event>
<event>
 5    1  0.6112843E+000  0.9052336E+02  0.7546771E-02  0.1301589E+00
         -4   -1    0    0    0  501 -0.00000000000E+00  0.00000000000E+00  0.47648699119E+02  0.47648699119E+02  0.00000000000E+00 0.  1.
          4   -1    0    0  501    0  0.00000000000E+00 -0.00000000000E+00 -0.42994241561E+02  0.42994241561E+02  0.00000000000E+00 0. -1.
         23    2    1    2    0    0  0.00000000000E+00  0.00000000000E+00  0.46544575583E+01  0.90642940680E+02  0.90523360078E+02 0.  0.
        -13    1    3    3    0    0  0.29472203256E+01 -0.19841448847E+02  0.42954839082E+02  0.47407672381E+02  0.00000000000E+00 0.  1.
         13    1    3    3    0    0 -0.29472203256E+01  0.19841448847E+02 -0.38300381524E+02  0.43235268299E+02  0.00000000000E+00 0. -1.
<mgrwt>
<rscale>  0 0.90523360E+02</rscale>
<asrwt>0</asrwt>
<pdfrwt beam="2">  1        4 0.66144987E-02 0.90523360E+02</pdfrwt>
<pdfrwt beam="1">  1       -4 0.73305691E-02 0.90523360E+02</pdfrwt>
<totfact> 0.27583279E+04</totfact>
</mgrwt>
</event>
<event>
 5    1  0.6112843E+000  0.9003415E+02  0.7546771E-02  0.1302769E+00
         -1   -1    0    0    0  501 -0.00000000000E+00  0.00000000000E+00  0.87342670312E+02  0.87342670312E+02  0.00000000000E+00 0.  1.
          1   -1    0    0  501    0  0.00000000000E+00 -0.00000000000E+00 -0.23202141843E+02  0.23202141843E+02  0.00000000000E+00 0. -1.
         23    2    1    2    0    0  0.00000000000E+00  0.00000000000E+00  0.64140528469E+02  0.11054481215E+03  0.90034149643E+02 0.  0.
        -13    1    3    3    0    0 -0.18793118808E+02 -0.35629619799E+02  0.56745450913E+02  0.69589491454E+02  0.00000000000E+00 0.  1.
         13    1    3    3    0    0  0.18793118808E+02  0.35629619799E+02  0.73950775561E+01  0.40955320700E+02  0.00000000000E+00 0. -1.
<mgrwt>
<rscale>  0 0.90034150E+02</rscale>
<asrwt>0</asrwt>
<pdfrwt beam="2">  1        1 0.35695603E-02 0.90034150E+02</pdfrwt>
<pdfrwt beam="1">  1       -1 0.13437334E-01 0.90034150E+02</pdfrwt>
<totfact> 0.86121505E+04</totfact>
</mgrwt>
</event>
<event>
 5    1  0.6112843E+000  0.9695359E+02  0.7546771E-02  0.1286836E+00
         -1   -1    0    0    0  501 -0.00000000000E+00  0.00000000000E+00  0.56083320006E+02  0.56083320006E+02  0.00000000000E+00 0.  1.
          1   -1    0    0  501    0  0.00000000000E+00 -0.00000000000E+00 -0.41901934463E+02  0.41901934463E+02  0.00000000000E+00 0. -1.
         23    2    1    2    0    0  0.00000000000E+00  0.00000000000E+00  0.14181385544E+02  0.97985254469E+02  0.96953588883E+02 0.  0.
        -13    1    3    3    0    0  0.25402983086E+02  0.34596164538E+02  0.29864748651E+02  0.52288711615E+02  0.00000000000E+00 0.  1.
         13    1    3    3    0    0 -0.25402983086E+02 -0.34596164538E+02 -0.15683363107E+02  0.45696542854E+02  0.00000000000E+00 0. -1.
<mgrwt>
<rscale>  0 0.96953589E+02</rscale>
<asrwt>0</asrwt>
<pdfrwt beam="2">  1        1 0.64464515E-02 0.96953589E+02</pdfrwt>
<pdfrwt beam="1">  1       -1 0.86282031E-02 0.96953589E+02</pdfrwt>
<totfact> 0.76708925E+04</totfact>
</mgrwt>
</event>
<event>
 5    1  0.6112843E+000  0.8917492E+02  0.7546771E-02  0.1304862E+00
         -2   -1    0    0    0  501 -0.00000000000E+00  0.00000000000E+00  0.68354207857E+02  0.68354207857E+02  0.00000000000E+00 0.  1.
          2   -1    0    0  501    0  0.00000000000E+00 -0.00000000000E+00 -0.29084408479E+02  0.29084408479E+02  0.00000000000E+00 0. -1.
         23    2    1    2    0    0  0.00000000000E+00  0.00000000000E+00  0.39269799379E+02  0.97438616336E+02  0.89174922541E+02 0.  0.
        -13    1    3    3    0    0 -0.25723600068E+02 -0.60328449328E+01  0.58878930497E+02  0.64535472996E+02  0.00000000000E+00 0.  1.
         13    1    3    3    0    0  0.25723600068E+02  0.60328449328E+01 -0.19609131118E+02  0.32903143340E+02  0.00000000000E+00 0. -1.
<mgrwt>
<rscale>  0 0.89174923E+02</rscale>
<asrwt>0</asrwt>
<pdfrwt beam="2">  1        2 0.44745244E-02 0.89174923E+02</pdfrwt>
<pdfrwt beam="1">  1       -2 0.10516032E-01 0.89174923E+02</pdfrwt>
<totfact> 0.93705580E+04</totfact>
</mgrwt>
</event>
<event>
 5    1  0.6112843E+000  0.1050113E+03  0.7546771E-02  0.1270097E+00
         -2   -1    0    0    0  501 -0.00000000000E+00  0.00000000000E+00  0.61163227254E+02  0.61163227254E+02  0.00000000000E+00 0.  1.
          2   -1    0    0  501    0  0.00000000000E+00 -0.00000000000E+00 -0.45073560124E+02  0.45073560124E+02  0.00000000000E+00 0. -1.
         23    2    1    2    0    0  0.00000000000E+00  0.00000000000E+00  0.16089667129E+02  0.10623678738E+03  0.10501132131E+03 0.  0.
        -13    1    3    3    0    0  0.10892449370E+02 -0.45268157370E+02  0.32597226562E+02  0.56836878032E+02  0.00000000000E+00 0.  1.
         13    1    3    3    0    0 -0.10892449370E+02  0.45268157370E+02 -0.16507559433E+02  0.49399909346E+02  0.00000000000E+00 0. -1.
<mgrwt>
<rscale>  0 0.10501132E+03</rscale>
<asrwt>0</asrwt>
<pdfrwt beam="2">  1        2 0.69343939E-02 0.10501132E+03</pdfrwt>
<pdfrwt beam="1">  1       -2 0.94097273E-02 0.10501132E+03</pdfrwt>
<totfact> 0.65154092E+04</totfact>
</mgrwt>
</event>
<event>
 5    1  0.6112843E+000  0.8937313E+02  0.7546771E-02  0.1304377E+00
         -2   -1    0    0    0  501 -0.00000000000E+00  0.00000000000E+00  0.32968042946E+02  0.32968042946E+02  0.00000000000E+00 0. -1.
          2   -1    0    0  501    0  0.00000000000E+00 -0.00000000000E+00 -0.60570442962E+02  0.60570442962E+02  0.00000000000E+00 0.  1.
         23    2    1    2    0    0  0.00000000000E+00  0.00000000000E+00 -0.27602400016E+02  0.93538485908E+02  0.89373127166E+02 0.  0.
        -13    1    3    3    0    0  0.30365417983E+01 -0.16203667776E+02  0.29669008038E+02  0.33941559679E+02  0.00000000000E+00 0. -1.
         13    1    3    3    0    0 -0.30365417983E+01  0.16203667776E+02 -0.57271408054E+02  0.59596926229E+02  0.00000000000E+00 0.  1.
<mgrwt>
<rscale>  0 0.89373127E+02</rscale>
<asrwt>0</asrwt>
<pdfrwt beam="2">  1        2 0.93185295E-02 0.89373127E+02</pdfrwt>
<pdfrwt beam="1">  1       -2 0.50720067E-02 0.89373127E+02</pdfrwt>
<totfact> 0.11248475E+05</totfact>
</mgrwt>
</event>
<event>
 5    1  0.6112843E+000  0.9064216E+02  0.7546771E-02  0.1301304E+00
         -2   -1    0    0    0  501 -0.00000000000E+00  0.00000000000E+00  0.19746426553E+02  0.19746426553E+02  0.00000000000E+00 0. -1.
          2   -1    0    0  501    0  0.00000000000E+00 -0.00000000000E+00 -0.10401882578E+03  0.10401882578E+03  0.00000000000E+00 0.  1.
         23    2    1    2    0    0  0.00000000000E+00  0.00000000000E+00 -0.84272399228E+02  0.12376525234E+03  0.90642155832E+02 0.  0.
        -13    1    3    3    0    0  0.19287581587E+01 -0.44455974032E+02 -0.53877790122E+02  0.69877535758E+02  0.00000000000E+00 0.  1.
         13    1    3    3    0    0 -0.19287581587E+01  0.44455974032E+02 -0.30394609106E+02  0.53887716577E+02  0.00000000000E+00 0. -1.
<mgrwt>
<rscale>  0 0.90642156E+02</rscale>
<asrwt>0</asrwt>
<pdfrwt beam="2">  1        2 0.16002896E-01 0.90642156E+02</pdfrwt>
<pdfrwt beam="1">  1       -2 0.30379118E-02 0.90642156E+02</pdfrwt>
<totfact> 0.12618709E+05</totfact>
</mgrwt>
</event>
<event>
 5    1  0.6112843E+000  0.9200884E+02  0.7546771E-02  0.1298059E+00
         -1   -1    0    0    0  501 -0.00000000000E+00  0.00000000000E+00  0.21765608196E+02  0.21765608196E+02  0.00000000000E+00 0.  1.
          1   -1    0    0  501    0  0.00000000000E+00 -0.00000000000E+00 -0.97236271820E+02  0.97236271820E+02  0.00000000000E+00 0. -1.
         23    2    1    2    0    0  0.00000000000E+00  0.00000000000E+00 -0.75470663624E+02  0.11900188002E+03  0.92008838594E+02 0.  0.
        -13    1    3    3    0    0 -0.28906750083E+02  0.23505339107E+01 -0.83923132596E+02  0.88793115695E+02  0.00000000000E+00 0. -1.
         13    1    3    3    0    0  0.28906750083E+02 -0.23505339107E+01  0.84524689720E+01  0.30208764320E+02  0.00000000000E+00 0.  1.
<mgrwt>
<rscale>  0 0.92008839E+02</rscale>
<asrwt>0</asrwt>
<pdfrwt beam="2">  1        1 0.14959426E-01 0.92008839E+02</pdfrwt>
<pdfrwt beam="1">  1       -1 0.33485551E-02 0.92008839E+02</pdfrwt>
<totfact> 0.10141897E+05</totfact>
</mgrwt>
</event>
<event>
 5    1  0.6112843E+000  0.8556894E+02  0.7546771E-02  0.1313951E+00
          1   -1    0    0  501    0  0.00000000000E+00  0.00000000000E+00  0.21874444494E+03  0.21874444494E+03  0.00000000000E+00 0. -1.
         -1   -1    0    0    0  501 -0.00000000000E+00 -0.00000000000E+00 -0.83682626620E+01  0.83682626620E+01  0.00000000000E+00 0.  1.
         23    2    1    2    0    0  0.00000000000E+00  0.00000000000E+00  0.21037618227E+03  0.22711270760E+03  0.85568942288E+02 0.  0.
        -13    1    3    3    0    0 -0.42035929884E+02 -0.69487080643E+01  0.11553825956E+03  0.12314379143E+03  0.00000000000E+00 0. -1.
         13    1    3    3    0    0  0.42035929884E+02  0.69487080643E+01  0.94837922711E+02  0.10396891617E+03  0.00000000000E+00 0.  1.
<mgrwt>
<rscale>  0 0.85568942E+02</rscale>
<asrwt>0</asrwt>
<pdfrwt beam="1">  1        1 0.33652987E-01 0.85568942E+02</pdfrwt>
<pdfrwt beam="2">  1       -1 0.12874252E-02 0.85568942E+02</pdfrwt>
<totfact> 0.14271280E+05</totfact>
</mgrwt>
</event>
<event>
 5    1  0.6112843E+000  0.9131630E+02  0.7546771E-02  0.1299695E+00
         -2   -1    0    0    0  501 -0.00000000000E+00  0.00000000000E+00  0.57477352547E+02  0.57477352547E+02  0.00000000000E+00 0.  1.
          2   -1    0    0  501    0  0.00000000000E+00 -0.00000000000E+00 -0.36269357331E+02  0.36269357331E+02  0.00000000000E+00 0. -1.
         23    2    1    2    0    0  0.00000000000E+00  0.00000000000E+00  0.21207995216E+02  0.93746709878E+02  0.91316299487E+02 0.  0.
        -13    1    3    3    0    0 -0.17317923999E+02 -0.11558681743E+02  0.52319876016E+02  0.56310594399E+02  0.00000000000E+00 0.  1.
         13    1    3    3    0    0  0.17317923999E+02  0.11558681743E+02 -0.31111880800E+02  0.37436115479E+02  0.00000000000E+00 0. -1.
<mgrwt>
<rscale>  0 0.91316299E+02</rscale>
<asrwt>0</asrwt>
<pdfrwt beam="2">  1        2 0.55799011E-02 0.91316299E+02</pdfrwt>
<pdfrwt beam="1">  1       -2 0.88426696E-02 0.91316299E+02</pdfrwt>
<totfact> 0.92582951E+04</totfact>
</mgrwt>
</event>
<event>
 5    1  0.6112843E+000  0.9401429E+02  0.7546771E-02  0.1293412E+00
         -2   -1    0    0    0  501 -0.00000000000E+00  0.00000000000E+00  0.20175957166E+02  0.20175957166E+02  0.00000000000E+00 0. -1.
          2   -1    0    0  501    0  0.00000000000E+00 -0.00000000000E+00 -0.10952004799E+03  0.10952004799E+03  0.00000000000E+00 0.  1.
         23    2    1    2    0    0  0.00000000000E+00  0.00000000000E+00 -0.89344090819E+02  0.12969600515E+03  0.94014292466E+02 0.  0.
        -13    1    3    3    0    0  0.42237452865E+02 -0.12783237534E+02 -0.22331320336E+02  0.49458077746E+02  0.00000000000E+00 0.  1.
         13    1    3    3    0    0 -0.42237452865E+02  0.12783237534E+02 -0.67012770483E+02  0.80237927405E+02  0.00000000000E+00 0. -1.
<mgrwt>
<rscale>  0 0.94014292E+02</rscale>
<asrwt>0</asrwt>
<pdfrwt beam="2">  1        2 0.16849238E-01 0.94014292E+02</pdfrwt>
<pdfrwt beam="1">  1       -2 0.31039934E-02 0.94014292E+02</pdfrwt>
<totfact> 0.11596232E+05</totfact>
</mgrwt>
</event>
<event>
 5    1  0.6112843E+000  0.9104598E+02  0.7546771E-02  0.1300338E+00
         -2   -1    0    0    0  501 -0.00000000000E+00  0.00000000000E+00  0.93426158719E+01  0.93426158719E+01  0.00000000000E+00 0.  1.
          2   -1    0    0  501    0  0.00000000000E+00 -0.00000000000E+00 -0.22181609930E+03  0.22181609930E+03  0.00000000000E+00 0. -1.
         23    2    1    2    0    0  0.00000000000E+00  0.00000000000E+00 -0.21247348343E+03  0.23115871517E+03  0.91045979812E+02 0.  0.
        -13    1    3    3    0    0 -0.12070531769E+02 -0.43362728726E+02 -0.88957393702E+02  0.99696749566E+02  0.00000000000E+00 0.  1.
         13    1    3    3    0    0  0.12070531769E+02  0.43362728726E+02 -0.12351608973E+03  0.13146196561E+03  0.00000000000E+00 0. -1.
<mgrwt>
<rscale>  0 0.91045980E+02</rscale>
<asrwt>0</asrwt>
<pdfrwt beam="2">  1        2 0.34125548E-01 0.91045980E+02</pdfrwt>
<pdfrwt beam="1">  1       -2 0.14373258E-02 0.91045980E+02</pdfrwt>
<totfact> 0.16124446E+05</totfact>
</mgrwt>
</event>
<event>
 5    1  0.6112843E+000  0.8763449E+02  0.7546771E-02  0.1308683E+00
          1   -1    0    0  501    0  0.00000000000E+00  0.00000000000E+00  0.61305255291E+02  0.61305255291E+02  0.00000000000E+00 0. -1.
         -1   -1    0    0    0  501 -0.00000000000E+00 -0.00000000000E+00 -0.31317883507E+02  0.31317883507E+02  0.00000000000E+00 0.  1.
         23    2    1    2    0    0  0.00000000000E+00  0.00000000000E+00  0.29987371783E+02  0.92623138798E+02  0.87634487357E+02 0.  0.
        -13    1    3    3    0    0 -0.18530107963E+02 -0.13953423341E+02 -0.24296207812E+02  0.33591198819E+02  0.00000000000E+00 0.  1.
         13    1    3    3    0    0  0.18530107963E+02  0.13953423341E+02  0.54283579595E+02  0.59031939979E+02  0.00000000000E+00 0. -1.
<mgrwt>
<rscale>  0 0.87634487E+02</rscale>
<asrwt>0</asrwt>
<pdfrwt beam="1">  1        1 0.94315777E-02 0.87634487E+02</pdfrwt>
<pdfrwt beam="2">  1       -1 0.48181359E-02 0.87634487E+02</pdfrwt>
<totfact> 0.10786473E+05</totfact>
</mgrwt>
</event>
<event>
 5    1  0.6112843E+000  0.9105415E+02  0.7546771E-02  0.1300319E+00
          1   -1    0    0  501    0  0.00000000000E+00  0.00000000000E+00  0.97645551258E+02  0.97645551258E+02  0.00000000000E+00 0. -1.
         -1   -1    0    0    0  501 -0.00000000000E+00 -0.00000000000E+00 -0.21226924350E+02  0.21226924350E+02  0.00000000000E+00 0.  1.
         23    2    1    2    0    0  0.00000000000E+00  0.00000000000E+00  0.76418626908E+02  0.11887247561E+03  0.91054153770E+02 0.  0.
        -13    1    3    3    0    0  0.36964493793E+02  0.26565691095E+02  0.37193874490E+02  0.58783450429E+02  0.00000000000E+00 0.  1.
         13    1    3    3    0    0 -0.36964493793E+02 -0.26565691095E+02  0.39224752417E+02  0.60089025179E+02  0.00000000000E+00 0. -1.
<mgrwt>
<rscale>  0 0.91054154E+02</rscale>
<asrwt>0</asrwt>
<pdfrwt beam="1">  1        1 0.15022392E-01 0.91054154E+02</pdfrwt>
<pdfrwt beam="2">  1       -1 0.32656807E-02 0.91054154E+02</pdfrwt>
<totfact> 0.10442316E+05</totfact>
</mgrwt>
</event>
<event>
 5    1  0.6112843E+000  0.9198326E+02  0.7546771E-02  0.1298119E+00
         -2   -1    0    0    0  501 -0.00000000000E+00  0.00000000000E+00  0.10412366917E+03  0.10412366917E+03  0.00000000000E+00 0.  1.
          2   -1    0    0  501    0  0.00000000000E+00 -0.00000000000E+00 -0.20314594750E+02  0.20314594750E+02  0.00000000000E+00 0. -1.
         23    2    1    2    0    0  0.00000000000E+00  0.00000000000E+00  0.83809074418E+02  0.12443826392E+03  0.91983262456E+02 0.  0.
        -13    1    3    3    0    0 -0.38639423522E+02  0.16339888012E+02  0.67402288435E+02  0.79391847671E+02  0.00000000000E+00 0.  1.
         13    1    3    3    0    0  0.38639423522E+02 -0.16339888012E+02  0.16406785983E+02  0.45046416246E+02  0.00000000000E+00 0. -1.
<mgrwt>
<rscale>  0 0.91983262E+02</rscale>
<asrwt>0</asrwt>
<pdfrwt beam="2">  1        2 0.31253223E-02 0.91983262E+02</pdfrwt>
<pdfrwt beam="1">  1       -2 0.16019026E-01 0.91983262E+02</pdfrwt>
<totfact> 0.77128202E+04</totfact>
</mgrwt>
</event>
<event>
 5    1  0.6112843E+000  0.9238322E+02  0.7546771E-02  0.1297181E+00
          2   -1    0    0  501    0  0.00000000000E+00  0.00000000000E+00  0.18940815379E+03  0.18940815379E+03  0.00000000000E+00 0. -1.
         -2   -1    0    0    0  501 -0.00000000000E+00 -0.00000000000E+00 -0.11264903883E+02  0.11264903883E+02  0.00000000000E+00 0.  1.
         23    2    1    2    0    0  0.00000000000E+00  0.00000000000E+00  0.17814324990E+03  0.20067305767E+03  0.92383215946E+02 0.  0.
        -13    1    3    3    0    0  0.96071386913E+01 -0.45012787929E+02  0.97544928242E+02  0.10785852408E+03  0.00000000000E+00 0. -1.
         13    1    3    3    0    0 -0.96071386913E+01  0.45012787929E+02  0.80598321662E+02  0.92814533591E+02  0.00000000000E+00 0.  1.
<mgrwt>
<rscale>  0 0.92383216E+02</rscale>
<asrwt>0</asrwt>
<pdfrwt beam="1">  1        2 0.29139714E-01 0.92383216E+02</pdfrwt>
<pdfrwt beam="2">  1       -2 0.17330623E-02 0.92383216E+02</pdfrwt>
<totfact> 0.14638934E+05</totfact>
</mgrwt>
</event>
<event>
 5    1  0.6112843E+000  0.8928840E+02  0.7546771E-02  0.1304584E+00
          2   -1    0    0  501    0  0.00000000000E+00  0.00000000000E+00  0.79974058872E+02  0.79974058872E+02  0.00000000000E+00 0. -1.
         -2   -1    0    0    0  501 -0.00000000000E+00 -0.00000000000E+00 -0.24921891230E+02  0.24921891230E+02  0.00000000000E+00 0.  1.
         23    2    1    2    0    0  0.00000000000E+00  0.00000000000E+00  0.55052167642E+02  0.10489595010E+03  0.89288404543E+02 0.  0.
        -13    1    3    3    0    0 -0.22959965289E+02 -0.32507877223E+02  0.51290234352E+02  0.64920029479E+02  0.00000000000E+00 0. -1.
         13    1    3    3    0    0  0.22959965289E+02  0.32507877223E+02  0.37619332902E+01  0.39975920624E+02  0.00000000000E+00 0.  1.
<mgrwt>
<rscale>  0 0.89288405E+02</rscale>
<asrwt>0</asrwt>
<pdfrwt beam="1">  1        2 0.12303701E-01 0.89288405E+02</pdfrwt>
<pdfrwt beam="2">  1       -2 0.38341372E-02 0.89288405E+02</pdfrwt>
<totfact> 0.12170609E+05</totfact>
</mgrwt>
</event>
<event>
 5    1  0.6112843E+000  0.7644712E+02  0.7546771E-02  0.1339447E+00
         -3   -1    0    0    0  501 -0.00000000000E+00  0.00000000000E+00  0.70506919493E+01  0.70506919493E+01  0.00000000000E+00 0.  1.
          3   -1    0    0  501    0  0.00000000000E+00 -0.00000000000E+00 -0.20721944915E+03  0.20721944915E+03  0.00000000000E+00 0. -1.
         23    2    1    2    0    0  0.00000000000E+00  0.00000000000E+00 -0.20016875720E+03  0.21427014110E+03  0.76447119027E+02 0.  0.
        -13    1    3    3    0    0  0.30443205578E+02  0.15062977457E+02 -0.50945741336E+02  0.61230307986E+02  0.00000000000E+00 0.  1.
         13    1    3    3    0    0 -0.30443205578E+02 -0.15062977457E+02 -0.14922301587E+03  0.15303983312E+03  0.00000000000E+00 0. -1.
<mgrwt>
<rscale>  0 0.76447119E+02</rscale>
<asrwt>0</asrwt>
<pdfrwt beam="2">  1        3 0.31879915E-01 0.76447119E+02</pdfrwt>
<pdfrwt beam="1">  1       -3 0.10847218E-02 0.76447119E+02</pdfrwt>
<totfact> 0.44430062E+04</totfact>
</mgrwt>
</event>
<event>
 5    1  0.6112843E+000  0.8936132E+02  0.7546771E-02  0.1304406E+00
          1   -1    0    0  501    0  0.00000000000E+00  0.00000000000E+00  0.29455214327E+03  0.29455214327E+03  0.00000000000E+00 0. -1.
         -1   -1    0    0    0  501 -0.00000000000E+00 -0.00000000000E+00 -0.67776165084E+01  0.67776165084E+01  0.00000000000E+00 0.  1.
         23    2    1    2    0    0  0.00000000000E+00  0.00000000000E+00  0.28777452676E+03  0.30132975978E+03  0.89361322032E+02 0.  0.
        -13    1    3    3    0    0  0.15005436902E+02  0.42060259563E+02  0.14881193694E+03  0.15536801842E+03  0.00000000000E+00 0.  1.
         13    1    3    3    0    0 -0.15005436902E+02 -0.42060259563E+02  0.13896258982E+03  0.14596174136E+03  0.00000000000E+00 0. -1.
<mgrwt>
<rscale>  0 0.89361322E+02</rscale>
<asrwt>0</asrwt>
<pdfrwt beam="1">  1        1 0.45315704E-01 0.89361322E+02</pdfrwt>
<pdfrwt beam="2">  1       -1 0.10427105E-02 0.89361322E+02</pdfrwt>
<totfact> 0.13469330E+05</totfact>
</mgrwt>
</event>
<event>
 5    1  0.6112843E+000  0.8933753E+02  0.7546771E-02  0.1304464E+00
          2   -1    0    0  501    0  0.00000000000E+00  0.00000000000E+00  0.22604813896E+02  0.22604813896E+02  0.00000000000E+00 0. -1.
         -2   -1    0    0    0  501 -0.00000000000E+00 -0.00000000000E+00 -0.88268749368E+02  0.88268749368E+02  0.00000000000E+00 0.  1.
         23    2    1    2    0    0  0.00000000000E+00  0.00000000000E+00 -0.65663935473E+02  0.11087356326E+03  0.89337531917E+02 0.  0.
        -13    1    3    3    0    0 -0.38626675736E+02 -0.10968237004E+02 -0.85446232243E+01  0.41052806084E+02  0.00000000000E+00 0. -1.
         13    1    3    3    0    0  0.38626675736E+02  0.10968237004E+02 -0.57119312249E+02  0.69820757180E+02  0.00000000000E+00 0.  1.
<mgrwt>
<rscale>  0 0.89337532E+02</rscale>
<asrwt>0</asrwt>
<pdfrwt beam="1">  1        2 0.34776636E-02 0.89337532E+02</pdfrwt>
<pdfrwt beam="2">  1       -2 0.13579808E-01 0.89337532E+02</pdfrwt>
<totfact> 0.87035757E+04</totfact>
</mgrwt>
</event>
<event>
 5    1  0.6112843E+000  0.9090412E+02  0.7546771E-02  0.1300677E+00
          2   -1    0    0  501    0  0.00000000000E+00  0.00000000000E+00  0.33903182478E+02  0.33903182478E+02  0.00000000000E+00 0. -1.
         -2   -1    0    0    0  501 -0.00000000000E+00 -0.00000000000E+00 -0.60934984038E+02  0.60934984038E+02  0.00000000000E+00 0.  1.
         23    2    1    2    0    0  0.00000000000E+00  0.00000000000E+00 -0.27031801560E+02  0.94838166516E+02  0.90904122747E+02 0.  0.
        -13    1    3    3    0    0 -0.20629911948E+02 -0.25974468343E+01 -0.55682227551E+02  0.59437786483E+02  0.00000000000E+00 0.  1.
         13    1    3    3    0    0  0.20629911948E+02  0.25974468343E+01  0.28650425990E+02  0.35400380033E+02  0.00000000000E+00 0. -1.
<mgrwt>
<rscale>  0 0.90904123E+02</rscale>
<asrwt>0</asrwt>
<pdfrwt beam="1">  1        2 0.52158743E-02 0.90904123E+02</pdfrwt>
<pdfrwt beam="2">  1       -2 0.93746128E-02 0.90904123E+02</pdfrwt>
<totfact> 0.92180206E+04</totfact>
</mgrwt>
</event>
<event>
 4    1  0.6112843E+000  0.5076951E+02  0.7546771E-02  0.1441235E+00
         -1   -1    0    0    0  501 -0.00000000000E+00  0.00000000000E+00  0.46100676236E+02  0.46100676236E+02  0.00000000000E+00 0.  1.
          1   -1    0    0  501    0  0.00000000000E+00 -0.00000000000E+00 -0.13977794324E+02  0.13977794324E+02  0.00000000000E+00 0. -1.
        -13    1    1    2    0    0 -0.24627959534E+02 -0.21197532468E+01  0.92269990936E+01  0.26384981654E+02  0.00000000000E+00 0. -1.
         13    1    1    2    0    0  0.24627959534E+02  0.21197532468E+01  0.22895882818E+02  0.33693488906E+02  0.00000000000E+00 0.  1.
<mgrwt>
<rscale>  0 0.50769509E+02</rscale>
<asrwt>0</asrwt>
<pdfrwt beam="2">  1        1 0.21504299E-02 0.50769509E+02</pdfrwt>
<pdfrwt beam="1">  1       -1 0.70924117E-02 0.50769509E+02</pdfrwt>
<totfact> 0.39714979E+05</totfact>
</mgrwt>
</event>
<event>
 5    1  0.6112843E+000  0.9139567E+02  0.7546771E-02  0.1299507E+00
          1   -1    0    0  501    0  0.00000000000E+00  0.00000000000E+00  0.19710404429E+02  0.19710404429E+02  0.00000000000E+00 0. -1.
         -1   -1    0    0    0  501 -0.00000000000E+00 -0.00000000000E+00 -0.10594872707E+03  0.10594872707E+03  0.00000000000E+00 0.  1.
         23    2    1    2    0    0  0.00000000000E+00  0.00000000000E+00 -0.86238322641E+02  0.12565913150E+03  0.91395672968E+02 0.  0.
        -13    1    3    3    0    0  0.20411211532E+02 -0.32473222445E+02 -0.77275310114E+02  0.86270512259E+02  0.00000000000E+00 0.  1.
         13    1    3    3    0    0 -0.20411211532E+02  0.32473222445E+02 -0.89630125270E+01  0.39388619241E+02  0.00000000000E+00 0. -1.
<mgrwt>
<rscale>  0 0.91395673E+02</rscale>
<asrwt>0</asrwt>
<pdfrwt beam="1">  1        1 0.30323699E-02 0.91395673E+02</pdfrwt>
<pdfrwt beam="2">  1       -1 0.16299804E-01 0.91395673E+02</pdfrwt>
<totfact> 0.79992080E+04</totfact>
</mgrwt>
</event>
<event>
 5    1  0.6112843E+000  0.9131900E+02  0.7546771E-02  0.1299689E+00
          1   -1    0    0  501    0  0.00000000000E+00  0.00000000000E+00  0.95676966842E+02  0.95676966842E+02  0.00000000000E+00 0. -1.
         -1   -1    0    0    0  501 -0.00000000000E+00 -0.00000000000E+00 -0.21789882890E+02  0.21789882890E+02  0.00000000000E+00 0.  1.
         23    2    1    2    0    0  0.00000000000E+00  0.00000000000E+00  0.73887083952E+02  0.11746684973E+03  0.91318999180E+02 0.  0.
        -13    1    3    3    0    0 -0.37136755004E+02 -0.14958363983E+02  0.87056647314E+01  0.40971695397E+02  0.00000000000E+00 0.  1.
         13    1    3    3    0    0  0.37136755004E+02  0.14958363983E+02  0.65181419220E+02  0.76495154336E+02  0.00000000000E+00 0. -1.
<mgrwt>
<rscale>  0 0.91318999E+02</rscale>
<asrwt>0</asrwt>
<pdfrwt beam="1">  1        1 0.14719533E-01 0.91318999E+02</pdfrwt>
<pdfrwt beam="2">  1       -1 0.33522897E-02 0.91318999E+02</pdfrwt>
<totfact> 0.10325065E+05</totfact>
</mgrwt>
</event>
<event>
 5    1  0.6112843E+000  0.9064585E+02  0.7546771E-02  0.1301295E+00
         -1   -1    0    0    0  501 -0.00000000000E+00  0.00000000000E+00  0.76836315307E+02  0.76836315307E+02  0.00000000000E+00 0.  1.
          1   -1    0    0  501    0  0.00000000000E+00 -0.00000000000E+00 -0.26734330320E+02  0.26734330320E+02  0.00000000000E+00 0. -1.
         23    2    1    2    0    0  0.00000000000E+00  0.00000000000E+00  0.50101984987E+02  0.10357064563E+03  0.90645847869E+02 0.  0.
        -13    1    3    3    0    0 -0.15150609356E+02  0.87838079992E+01  0.72814232547E+02  0.74890644998E+02  0.00000000000E+00 0.  1.
         13    1    3    3    0    0  0.15150609356E+02 -0.87838079992E+01 -0.22712247560E+02  0.28680000629E+02  0.00000000000E+00 0. -1.
<mgrwt>
<rscale>  0 0.90645848E+02</rscale>
<asrwt>0</asrwt>
<pdfrwt beam="2">  1        1 0.41129739E-02 0.90645848E+02</pdfrwt>
<pdfrwt beam="1">  1       -1 0.11820972E-01 0.90645848E+02</pdfrwt>
<totfact> 0.86507484E+04</totfact>
</mgrwt>
</event>
<event>
 5    1  0.6112843E+000  0.9132419E+02  0.7546771E-02  0.1299676E+00
          1   -1    0    0  501    0  0.00000000000E+00  0.00000000000E+00  0.24096228665E+03  0.24096228665E+03  0.00000000000E+00 0. -1.
         -1   -1    0    0    0  501 -0.00000000000E+00 -0.00000000000E+00 -0.86529186342E+01  0.86529186342E+01  0.00000000000E+00 0.  1.
         23    2    1    2    0    0  0.00000000000E+00  0.00000000000E+00  0.23230936802E+03  0.24961520529E+03  0.91324193078E+02 0.  0.
        -13    1    3    3    0    0  0.38535200200E+02  0.53797592893E+01  0.50834072029E+02  0.64015672639E+02  0.00000000000E+00 0.  1.
         13    1    3    3    0    0 -0.38535200200E+02 -0.53797592893E+01  0.18147529599E+03  0.18559953265E+03  0.00000000000E+00 0. -1.
<mgrwt>
<rscale>  0 0.91324193E+02</rscale>
<asrwt>0</asrwt>
<pdfrwt beam="1">  1        1 0.37071116E-01 0.91324193E+02</pdfrwt>
<pdfrwt beam="2">  1       -1 0.13312184E-02 0.91324193E+02</pdfrwt>
<totfact> 0.12225635E+05</totfact>
</mgrwt>
</event>
<event>
 5    1  0.6112843E+000  0.9144423E+02  0.7546771E-02  0.1299391E+00
         -2   -1    0    0    0  501 -0.00000000000E+00  0.00000000000E+00  0.19776636775E+02  0.19776636775E+02  0.00000000000E+00 0.  1.
          2   -1    0    0  501    0  0.00000000000E+00 -0.00000000000E+00 -0.10570613672E+03  0.10570613672E+03  0.00000000000E+00 0. -1.
         23    2    1    2    0    0  0.00000000000E+00  0.00000000000E+00 -0.85929499944E+02  0.12548277349E+03  0.91444231547E+02 0.  0.
        -13    1    3    3    0    0  0.20325882255E+01 -0.28460344856E+02  0.60604483757E+01  0.29169361987E+02  0.00000000000E+00 0.  1.
         13    1    3    3    0    0 -0.20325882255E+01  0.28460344856E+02 -0.91989948320E+02  0.96313411507E+02  0.00000000000E+00 0. -1.
<mgrwt>
<rscale>  0 0.91444232E+02</rscale>
<asrwt>0</asrwt>
<pdfrwt beam="2">  1        2 0.16262482E-01 0.91444232E+02</pdfrwt>
<pdfrwt beam="1">  1       -2 0.30425596E-02 0.91444232E+02</pdfrwt>
<totfact> 0.12378231E+05</totfact>
</mgrwt>
</event>
<event>
 5    1  0.6112843E+000  0.8979402E+02  0.7546771E-02  0.1303351E+00
         -3   -1    0    0    0  501 -0.00000000000E+00  0.00000000000E+00  0.14584377958E+02  0.14584377958E+02  0.00000000000E+00 0.  1.
          3   -1    0    0  501    0  0.00000000000E+00 -0.00000000000E+00 -0.13821238227E+03  0.13821238227E+03  0.00000000000E+00 0. -1.
         23    2    1    2    0    0  0.00000000000E+00  0.00000000000E+00 -0.12362800431E+03  0.15279676022E+03  0.89794022550E+02 0.  0.
        -13    1    3    3    0    0 -0.23194889127E+02 -0.15941887816E+01  0.35429473107E+01  0.23518010017E+02  0.00000000000E+00 0.  1.
         13    1    3    3    0    0  0.23194889127E+02  0.15941887816E+01 -0.12717095162E+03  0.12927875021E+03  0.00000000000E+00 0. -1.
<mgrwt>
<rscale>  0 0.89794023E+02</rscale>
<asrwt>0</asrwt>
<pdfrwt beam="2">  1        3 0.21263444E-01 0.89794023E+02</pdfrwt>
<pdfrwt beam="1">  1       -3 0.22437504E-02 0.89794023E+02</pdfrwt>
<totfact> 0.32449158E+04</totfact>
</mgrwt>
</event>
<event>
 5    1  0.6112843E+000  0.8431408E+02  0.7546771E-02  0.1317236E+00
          2   -1    0    0  501    0  0.00000000000E+00  0.00000000000E+00  0.79032438301E+01  0.79032438301E+01  0.00000000000E+00 0. -1.
         -2   -1    0    0    0  501 -0.00000000000E+00 -0.00000000000E+00 -0.22487171628E+03  0.22487171628E+03  0.00000000000E+00 0.  1.
         23    2    1    2    0    0  0.00000000000E+00  0.00000000000E+00 -0.21696847245E+03  0.23277496011E+03  0.84314079589E+02 0.  0.
        -13    1    3    3    0    0  0.12171737792E+02  0.39307481839E+02 -0.13378544971E+03  0.13997062508E+03  0.00000000000E+00 0.  1.
         13    1    3    3    0    0 -0.12171737792E+02 -0.39307481839E+02 -0.83183022738E+02  0.92804335035E+02  0.00000000000E+00 0. -1.
<mgrwt>
<rscale>  0 0.84314080E+02</rscale>
<asrwt>0</asrwt>
<pdfrwt beam="1">  1        2 0.12158838E-02 0.84314080E+02</pdfrwt>
<pdfrwt beam="2">  1       -2 0.34595644E-01 0.84314080E+02</pdfrwt>
<totfact> 0.72209900E+04</totfact>
</mgrwt>
</event>
<event>
 5    1  0.6112843E+000  0.9217339E+02  0.7546771E-02  0.1297672E+00
         -1   -1    0    0    0  501 -0.00000000000E+00  0.00000000000E+00  0.95868545953E+02  0.95868545953E+02  0.00000000000E+00 0.  1.
          1   -1    0    0  501    0  0.00000000000E+00 -0.00000000000E+00 -0.22155162955E+02  0.22155162955E+02  0.00000000000E+00 0. -1.
         23    2    1    2    0    0  0.00000000000E+00  0.00000000000E+00  0.73713382998E+02  0.11802370891E+03  0.92173385700E+02 0.  0.
        -13    1    3    3    0    0  0.30514380203E+02  0.31705381158E+02  0.54395847145E+02  0.69966183119E+02  0.00000000000E+00 0.  1.
         13    1    3    3    0    0 -0.30514380203E+02 -0.31705381158E+02  0.19317535853E+02  0.48057525789E+02  0.00000000000E+00 0. -1.
<mgrwt>
<rscale>  0 0.92173386E+02</rscale>
<asrwt>0</asrwt>
<pdfrwt beam="2">  1        1 0.34084867E-02 0.92173386E+02</pdfrwt>
<pdfrwt beam="1">  1       -1 0.14749007E-01 0.92173386E+02</pdfrwt>
<totfact> 0.79741163E+04</totfact>
</mgrwt>
</event>
<event>
 5    1  0.6112843E+000  0.9344912E+02  0.7546771E-02  0.1294708E+00
          3   -1    0    0  501    0  0.00000000000E+00  0.00000000000E+00  0.98863228088E+02  0.98863228088E+02  0.00000000000E+00 0. -1.
         -3   -1    0    0    0  501 -0.00000000000E+00 -0.00000000000E+00 -0.22082878321E+02  0.22082878321E+02  0.00000000000E+00 0.  1.
         23    2    1    2    0    0  0.00000000000E+00  0.00000000000E+00  0.76780349767E+02  0.12094610641E+03  0.93449122763E+02 0.  0.
        -13    1    3    3    0    0  0.10849426416E+02 -0.20780384292E+02 -0.13921207824E+02  0.27264160580E+02  0.00000000000E+00 0.  1.
         13    1    3    3    0    0 -0.10849426416E+02  0.20780384292E+02  0.90701557591E+02  0.93681945829E+02  0.00000000000E+00 0. -1.
<mgrwt>
<rscale>  0 0.93449123E+02</rscale>
<asrwt>0</asrwt>
<pdfrwt beam="1">  1        3 0.15209727E-01 0.93449123E+02</pdfrwt>
<pdfrwt beam="2">  1       -3 0.33973660E-02 0.93449123E+02</pdfrwt>
<totfact> 0.31029884E+04</totfact>
</mgrwt>
</event>
<event>
 5    1  0.6112843E+000  0.9148656E+02  0.7546771E-02  0.1299291E+00
         -1   -1    0    0    0  501 -0.00000000000E+00  0.00000000000E+00  0.35873920885E+02  0.35873920885E+02  0.00000000000E+00 0.  1.
          1   -1    0    0  501    0  0.00000000000E+00 -0.00000000000E+00 -0.58327823885E+02  0.58327823885E+02  0.00000000000E+00 0. -1.
         23    2    1    2    0    0  0.00000000000E+00  0.00000000000E+00 -0.22453903000E+02  0.94201744770E+02  0.91486561624E+02 0.  0.
        -13    1    3    3    0    0  0.38060641190E+02 -0.20893127968E+02 -0.26052624690E+02  0.50634715931E+02  0.00000000000E+00 0. -1.
         13    1    3    3    0    0 -0.38060641190E+02  0.20893127968E+02  0.35987216900E+01  0.43567028840E+02  0.00000000000E+00 0.  1.
<mgrwt>
<rscale>  0 0.91486562E+02</rscale>
<asrwt>0</asrwt>
<pdfrwt beam="2">  1        1 0.89735113E-02 0.91486562E+02</pdfrwt>
<pdfrwt beam="1">  1       -1 0.55190648E-02 0.91486562E+02</pdfrwt>
<totfact> 0.95059873E+04</totfact>
</mgrwt>
</event>
<event>
 5    1  0.6112843E+000  0.9218314E+02  0.7546771E-02  0.1297649E+00
          2   -1    0    0  501    0  0.00000000000E+00  0.00000000000E+00  0.15574400160E+03  0.15574400160E+03  0.00000000000E+00 0. -1.
         -2   -1    0    0    0  501 -0.00000000000E+00 -0.00000000000E+00 -0.13640542809E+02  0.13640542809E+02  0.00000000000E+00 0.  1.
         23    2    1    2    0    0  0.00000000000E+00  0.00000000000E+00  0.14210345879E+03  0.16938454441E+03  0.92183137743E+02 0.  0.
        -13    1    3    3    0    0  0.21563482807E+01  0.43440341181E+02  0.43020715087E+02  0.61175934863E+02  0.00000000000E+00 0.  1.
         13    1    3    3    0    0 -0.21563482807E+01 -0.43440341181E+02  0.99082743703E+02  0.10820860954E+03  0.00000000000E+00 0. -1.
<mgrwt>
<rscale>  0 0.92183138E+02</rscale>
<asrwt>0</asrwt>
<pdfrwt beam="1">  1        2 0.23960614E-01 0.92183138E+02</pdfrwt>
<pdfrwt beam="2">  1       -2 0.20985452E-02 0.92183138E+02</pdfrwt>
<totfact> 0.13745779E+05</totfact>
</mgrwt>
</event>
<event>
 5    1  0.6112843E+000  0.9131592E+02  0.7546771E-02  0.1299696E+00
          1   -1    0    0  501    0  0.00000000000E+00  0.00000000000E+00  0.69489875372E+02  0.69489875372E+02  0.00000000000E+00 0. -1.
         -1   -1    0    0    0  501 -0.00000000000E+00 -0.00000000000E+00 -0.29999323624E+02  0.29999323624E+02  0.00000000000E+00 0.  1.
         23    2    1    2    0    0  0.00000000000E+00  0.00000000000E+00  0.39490551748E+02  0.99489198996E+02  0.91315918872E+02 0.  0.
        -13    1    3    3    0    0  0.24205190888E+02  0.38260135497E+02  0.26183509293E+02  0.52300147161E+02  0.00000000000E+00 0.  1.
         13    1    3    3    0    0 -0.24205190888E+02 -0.38260135497E+02  0.13307042454E+02  0.47189051835E+02  0.00000000000E+00 0. -1.
<mgrwt>
<rscale>  0 0.91315919E+02</rscale>
<asrwt>0</asrwt>
<pdfrwt beam="1">  1        1 0.10690750E-01 0.91315919E+02</pdfrwt>
<pdfrwt beam="2">  1       -1 0.46152806E-02 0.91315919E+02</pdfrwt>
<totfact> 0.98141717E+04</totfact>
</mgrwt>
</event>
<event>
 5    1  0.6112843E+000  0.9131825E+02  0.7546771E-02  0.1299690E+00
          3   -1    0    0  501    0  0.00000000000E+00  0.00000000000E+00  0.12733759157E+03  0.12733759157E+03  0.00000000000E+00 0. -1.
         -3   -1    0    0    0  501 -0.00000000000E+00 -0.00000000000E+00 -0.16371879556E+02  0.16371879556E+02  0.00000000000E+00 0.  1.
         23    2    1    2    0    0  0.00000000000E+00  0.00000000000E+00  0.11096571201E+03  0.14370947112E+03  0.91318250358E+02 0.  0.
        -13    1    3    3    0    0 -0.31909463922E+02 -0.32124920164E+02  0.64730571380E+02  0.78995387552E+02  0.00000000000E+00 0. -1.
         13    1    3    3    0    0  0.31909463922E+02  0.32124920164E+02  0.46235140630E+02  0.64714083571E+02  0.00000000000E+00 0.  1.
<mgrwt>
<rscale>  0 0.91318250E+02</rscale>
<asrwt>0</asrwt>
<pdfrwt beam="1">  1        3 0.19590398E-01 0.91318250E+02</pdfrwt>
<pdfrwt beam="2">  1       -3 0.25187508E-02 0.91318250E+02</pdfrwt>
<totfact> 0.31563269E+04</totfact>
</mgrwt>
</event>
<event>
 5    1  0.6112843E+000  0.9516056E+02  0.7546771E-02  0.1290815E+00
         -3   -1    0    0    0  501 -0.00000000000E+00  0.00000000000E+00  0.93108796078E+02  0.93108796078E+02  0.00000000000E+00 0.  1.
          3   -1    0    0  501    0  0.00000000000E+00 -0.00000000000E+00 -0.24314385714E+02  0.24314385714E+02  0.00000000000E+00 0. -1.
         23    2    1    2    0    0  0.00000000000E+00  0.00000000000E+00  0.68794410364E+02  0.11742318179E+03  0.95160562866E+02 0.  0.
        -13    1    3    3    0    0 -0.18208751793E+02 -0.33906448086E+02 -0.12418018792E+00  0.38486637738E+02  0.00000000000E+00 0. -1.
         13    1    3    3    0    0  0.18208751793E+02  0.33906448086E+02  0.68918590552E+02  0.78936544055E+02  0.00000000000E+00 0.  1.
<mgrwt>
<rscale>  0 0.95160563E+02</rscale>
<asrwt>0</asrwt>
<pdfrwt beam="2">  1        3 0.37406748E-02 0.95160563E+02</pdfrwt>
<pdfrwt beam="1">  1       -3 0.14324430E-01 0.95160563E+02</pdfrwt>
<totfact> 0.29745500E+04</totfact>
</mgrwt>
</event>
<event>
 5    1  0.6112843E+000  0.8863718E+02  0.7546771E-02  0.1306186E+00
         -3   -1    0    0    0  501 -0.00000000000E+00  0.00000000000E+00  0.18601758648E+02  0.18601758648E+02  0.00000000000E+00 0.  1.
          3   -1    0    0  501    0  0.00000000000E+00 -0.00000000000E+00 -0.10558881026E+03  0.10558881026E+03  0.00000000000E+00 0. -1.
         23    2    1    2    0    0  0.00000000000E+00  0.00000000000E+00 -0.86987051617E+02  0.12419056891E+03  0.88637183269E+02 0.  0.
        -13    1    3    3    0    0  0.36526588556E+02  0.24702862900E+02 -0.37272455853E+02  0.57737847833E+02  0.00000000000E+00 0. -1.
         13    1    3    3    0    0 -0.36526588556E+02 -0.24702862900E+02 -0.49714595764E+02  0.66452721080E+02  0.00000000000E+00 0.  1.
<mgrwt>
<rscale>  0 0.88637183E+02</rscale>
<asrwt>0</asrwt>
<pdfrwt beam="2">  1        3 0.16244433E-01 0.88637183E+02</pdfrwt>
<pdfrwt beam="1">  1       -3 0.28618090E-02 0.88637183E+02</pdfrwt>
<totfact> 0.35580787E+04</totfact>
</mgrwt>
</event>
<event>
 5    1  0.6112843E+000  0.9009673E+02  0.7546771E-02  0.1302618E+00
          2   -1    0    0  501    0  0.00000000000E+00  0.00000000000E+00  0.24865126130E+03  0.24865126130E+03  0.00000000000E+00 0. -1.
         -2   -1    0    0    0  501 -0.00000000000E+00 -0.00000000000E+00 -0.81614512539E+01  0.81614512539E+01  0.00000000000E+00 0.  1.
         23    2    1    2    0    0  0.00000000000E+00  0.00000000000E+00  0.24048981005E+03  0.25681271256E+03  0.90096729094E+02 0.  0.
        -13    1    3    3    0    0 -0.28766975869E+02 -0.33959355976E+02  0.14011175670E+03  0.14701047964E+03  0.00000000000E+00 0. -1.
         13    1    3    3    0    0  0.28766975869E+02  0.33959355976E+02  0.10037805335E+03  0.10980223292E+03  0.00000000000E+00 0.  1.
<mgrwt>
<rscale>  0 0.90096729E+02</rscale>
<asrwt>0</asrwt>
<pdfrwt beam="1">  1        2 0.38254034E-01 0.90096729E+02</pdfrwt>
<pdfrwt beam="2">  1       -2 0.12556081E-02 0.90096729E+02</pdfrwt>
<totfact> 0.17295139E+05</totfact>
</mgrwt>
</event>
<event>
 5    1  0.6112843E+000  0.8874769E+02  0.7546771E-02  0.1305913E+00
         -1   -1    0    0    0  501 -0.00000000000E+00  0.00000000000E+00  0.10948631046E+03  0.10948631046E+03  0.00000000000E+00 0.  1.
          1   -1    0    0  501    0  0.00000000000E+00 -0.00000000000E+00 -0.17984332547E+02  0.17984332547E+02  0.00000000000E+00 0. -1.
         23    2    1    2    0    0  0.00000000000E+00  0.00000000000E+00  0.91501977911E+02  0.12747064301E+03  0.88747692176E+02 0.  0.
        -13    1    3    3    0    0  0.27380180788E+02 -0.99544778659E+00  0.95886245472E+02  0.99723805017E+02  0.00000000000E+00 0.  1.
         13    1    3    3    0    0 -0.27380180788E+02  0.99544778659E+00 -0.43842675613E+01  0.27746837988E+02  0.00000000000E+00 0. -1.
<mgrwt>
<rscale>  0 0.88747692E+02</rscale>
<asrwt>0</asrwt>
<pdfrwt beam="2">  1        1 0.27668205E-02 0.88747692E+02</pdfrwt>
<pdfrwt beam="1">  1       -1 0.16844047E-01 0.88747692E+02</pdfrwt>
<totfact> 0.85743491E+04</totfact>
</mgrwt>
</event>
<event>
 5    1  0.6112843E+000  0.9188090E+02  0.7546771E-02  0.1298360E+00
          4   -1    0    0  501    0  0.00000000000E+00  0.00000000000E+00  0.33967651300E+02  0.33967651300E+02  0.00000000000E+00 0. -1.
         -4   -1    0    0    0  501 -0.00000000000E+00 -0.00000000000E+00 -0.62133384800E+02  0.62133384800E+02  0.00000000000E+00 0.  1.
         23    2    1    2    0    0  0.00000000000E+00  0.00000000000E+00 -0.28165733499E+02  0.96101036100E+02  0.91880904414E+02 0.  0.
        -13    1    3    3    0    0  0.81844280718E+01 -0.45180545276E+02 -0.15654763024E+02  0.48511216637E+02  0.00000000000E+00 0. -1.
         13    1    3    3    0    0 -0.81844280718E+01  0.45180545276E+02 -0.12510970475E+02  0.47589819463E+02  0.00000000000E+00 0.  1.
<mgrwt>
<rscale>  0 0.91880904E+02</rscale>
<asrwt>0</asrwt>
<pdfrwt beam="1">  1        4 0.52257925E-02 0.91880904E+02</pdfrwt>
<pdfrwt beam="2">  1       -4 0.95589822E-02 0.91880904E+02</pdfrwt>
<totfact> 0.26149409E+04</totfact>
</mgrwt>
</event>
<event>
 5    1  0.6112843E+000  0.9100713E+02  0.7546771E-02  0.1300431E+00
          1   -1    0    0  501    0  0.00000000000E+00  0.00000000000E+00  0.94876739255E+02  0.94876739255E+02  0.00000000000E+00 0. -1.
         -1   -1    0    0    0  501 -0.00000000000E+00 -0.00000000000E+00 -0.21823834902E+02  0.21823834902E+02  0.00000000000E+00 0.  1.
         23    2    1    2    0    0  0.00000000000E+00  0.00000000000E+00  0.73052904353E+02  0.11670057416E+03  0.91007127052E+02 0.  0.
        -13    1    3    3    0    0 -0.35939065156E+02 -0.19962067448E+02  0.11513788764E+02  0.42692714517E+02  0.00000000000E+00 0. -1.
         13    1    3    3    0    0  0.35939065156E+02  0.19962067448E+02  0.61539115589E+02  0.74007859641E+02  0.00000000000E+00 0.  1.
<mgrwt>
<rscale>  0 0.91007127E+02</rscale>
<asrwt>0</asrwt>
<pdfrwt beam="1">  1        1 0.14596421E-01 0.91007127E+02</pdfrwt>
<pdfrwt beam="2">  1       -1 0.33575131E-02 0.91007127E+02</pdfrwt>
<totfact> 0.10407648E+05</totfact>
</mgrwt>
</event>
<event>
 5    1  0.6112843E+000  0.8949349E+02  0.7546771E-02  0.1304083E+00
          3   -1    0    0  501    0  0.00000000000E+00  0.00000000000E+00  0.86347620740E+01  0.86347620740E+01  0.00000000000E+00 0. -1.
         -3   -1    0    0    0  501 -0.00000000000E+00 -0.00000000000E+00 -0.23188494656E+03  0.23188494656E+03  0.00000000000E+00 0.  1.
         23    2    1    2    0    0  0.00000000000E+00  0.00000000000E+00 -0.22325018449E+03  0.24051970864E+03  0.89493493442E+02 0.  0.
        -13    1    3    3    0    0 -0.40727990111E+02 -0.17771432153E+02 -0.97485743478E+02  0.10713572308E+03  0.00000000000E+00 0. -1.
         13    1    3    3    0    0  0.40727990111E+02  0.17771432153E+02 -0.12576444101E+03  0.13338398555E+03  0.00000000000E+00 0.  1.
<mgrwt>
<rscale>  0 0.89493493E+02</rscale>
<asrwt>0</asrwt>
<pdfrwt beam="1">  1        3 0.13284250E-02 0.89493493E+02</pdfrwt>
<pdfrwt beam="2">  1       -3 0.35674606E-01 0.89493493E+02</pdfrwt>
<totfact> 0.27888059E+04</totfact>
</mgrwt>
</event>
<event>
 5    1  0.6112843E+000  0.9582416E+02  0.7546771E-02  0.1289331E+00
          2   -1    0    0  501    0  0.00000000000E+00  0.00000000000E+00  0.43531156794E+02  0.43531156794E+02  0.00000000000E+00 0. -1.
         -2   -1    0    0    0  501 -0.00000000000E+00 -0.00000000000E+00 -0.52733888541E+02  0.52733888541E+02  0.00000000000E+00 0.  1.
         23    2    1    2    0    0  0.00000000000E+00  0.00000000000E+00 -0.92027317471E+01  0.96265045335E+02  0.95824155001E+02 0.  0.
        -13    1    3    3    0    0  0.54120617379E+01 -0.10924957196E+02  0.41946713000E+02  0.43682626220E+02  0.00000000000E+00 0. -1.
         13    1    3    3    0    0 -0.54120617379E+01  0.10924957196E+02 -0.51149444747E+02  0.52582419114E+02  0.00000000000E+00 0.  1.
<mgrwt>
<rscale>  0 0.95824155E+02</rscale>
<asrwt>0</asrwt>
<pdfrwt beam="1">  1        2 0.66971011E-02 0.95824155E+02</pdfrwt>
<pdfrwt beam="2">  1       -2 0.81129059E-02 0.95824155E+02</pdfrwt>
<totfact> 0.84424691E+04</totfact>
</mgrwt>
</event>
<event>
 5    1  0.6112843E+000  0.9212598E+02  0.7546771E-02  0.1297784E+00
         -1   -1    0    0    0  501 -0.00000000000E+00  0.00000000000E+00  0.29117776277E+02  0.29117776277E+02  0.00000000000E+00 0.  1.
          1   -1    0    0  501    0  0.00000000000E+00 -0.00000000000E+00 -0.72869536321E+02  0.72869536321E+02  0.00000000000E+00 0. -1.
         23    2    1    2    0    0  0.00000000000E+00  0.00000000000E+00 -0.43751760044E+02  0.10198731260E+03  0.92125975837E+02 0.  0.
        -13    1    3    3    0    0  0.30210782021E+02 -0.25505999851E+02 -0.48039368484E+02  0.62217588374E+02  0.00000000000E+00 0. -1.
         13    1    3    3    0    0 -0.30210782021E+02  0.25505999851E+02  0.42876084403E+01  0.39769724224E+02  0.00000000000E+00 0.  1.
<mgrwt>
<rscale>  0 0.92125976E+02</rscale>
<asrwt>0</asrwt>
<pdfrwt beam="2">  1        1 0.11210698E-01 0.92125976E+02</pdfrwt>
<pdfrwt beam="1">  1       -1 0.44796580E-02 0.92125976E+02</pdfrwt>
<totfact> 0.96486429E+04</totfact>
</mgrwt>
</event>
<event>
 5    1  0.6112843E+000  0.9317302E+02  0.7546771E-02  0.1295345E+00
          1   -1    0    0  501    0  0.00000000000E+00  0.00000000000E+00  0.60122525404E+02  0.60122525404E+02  0.00000000000E+00 0.  1.
         -1   -1    0    0    0  501 -0.00000000000E+00 -0.00000000000E+00 -0.36097997224E+02  0.36097997224E+02  0.00000000000E+00 0. -1.
         23    2    1    2    0    0  0.00000000000E+00  0.00000000000E+00  0.24024528180E+02  0.96220522628E+02  0.93173016591E+02 0.  0.
        -13    1    3    3    0    0  0.11836769812E+02  0.43659393328E+02  0.23514379126E+02  0.50982131880E+02  0.00000000000E+00 0.  1.
         13    1    3    3    0    0 -0.11836769812E+02 -0.43659393328E+02  0.51014905360E+00  0.45238390748E+02  0.00000000000E+00 0. -1.
<mgrwt>
<rscale>  0 0.93173017E+02</rscale>
<asrwt>0</asrwt>
<pdfrwt beam="1">  1        1 0.92496193E-02 0.93173017E+02</pdfrwt>
<pdfrwt beam="2">  1       -1 0.55535380E-02 0.93173017E+02</pdfrwt>
<totfact> 0.90766888E+04</totfact>
</mgrwt>
</event>
<event>
 5    1  0.6112843E+000  0.9248158E+02  0.7546771E-02  0.1296951E+00
          2   -1    0    0  501    0  0.00000000000E+00  0.00000000000E+00  0.23359491543E+03  0.23359491543E+03  0.00000000000E+00 0.  1.
         -2   -1    0    0    0  501 -0.00000000000E+00 -0.00000000000E+00 -0.91534977979E+01  0.91534977979E+01  0.00000000000E+00 0. -1.
         23    2    1    2    0    0  0.00000000000E+00  0.00000000000E+00  0.22444141763E+03  0.24274841323E+03  0.92481577495E+02 0.  0.
        -13    1    3    3    0    0  0.31368550264E+02 -0.33942176799E+02  0.10836906050E+03  0.11781303232E+03  0.00000000000E+00 0.  1.
         13    1    3    3    0    0 -0.31368550264E+02  0.33942176799E+02  0.11607235713E+03  0.12493538090E+03  0.00000000000E+00 0. -1.
<mgrwt>
<rscale>  0 0.92481577E+02</rscale>
<asrwt>0</asrwt>
<pdfrwt beam="1">  1        2 0.35937675E-01 0.92481577E+02</pdfrwt>
<pdfrwt beam="2">  1       -2 0.14082306E-02 0.92481577E+02</pdfrwt>
<totfact> 0.15757534E+05</totfact>
</mgrwt>
</event>
<event>
 5    1  0.6112843E+000  0.9164985E+02  0.7546771E-02  0.1298905E+00
         -1   -1    0    0    0  501 -0.00000000000E+00  0.00000000000E+00  0.14706245383E+03  0.14706245383E+03  0.00000000000E+00 0.  1.
          1   -1    0    0  501    0  0.00000000000E+00 -0.00000000000E+00 -0.14279128443E+02  0.14279128443E+02  0.00000000000E+00 0. -1.
         23    2    1    2    0    0  0.00000000000E+00  0.00000000000E+00  0.13278332539E+03  0.16134158228E+03  0.91649848171E+02 0.  0.
        -13    1    3    3    0    0  0.26901793538E+02  0.28305471718E+02  0.10860552326E+03  0.11541258990E+03  0.00000000000E+00 0.  1.
         13    1    3    3    0    0 -0.26901793538E+02 -0.28305471718E+02  0.24177802126E+02  0.45928992373E+02  0.00000000000E+00 0. -1.
<mgrwt>
<rscale>  0 0.91649848E+02</rscale>
<asrwt>0</asrwt>
<pdfrwt beam="2">  1        1 0.21967891E-02 0.91649848E+02</pdfrwt>
<pdfrwt beam="1">  1       -1 0.22624992E-01 0.91649848E+02</pdfrwt>
<totfact> 0.74130381E+04</totfact>
</mgrwt>
</event>
<event>
 5    1  0.6112843E+000  0.9845784E+02  0.7546771E-02  0.1283573E+00
         -1   -1    0    0    0  501 -0.00000000000E+00  0.00000000000E+00  0.50863536402E+02  0.50863536402E+02  0.00000000000E+00 0.  1.
          1   -1    0    0  501    0  0.00000000000E+00 -0.00000000000E+00 -0.47646836982E+02  0.47646836982E+02  0.00000000000E+00 0. -1.
         23    2    1    2    0    0  0.00000000000E+00  0.00000000000E+00  0.32166994200E+01  0.98510373384E+02  0.98457841278E+02 0.  0.
        -13    1    3    3    0    0 -0.24812499445E+02 -0.11072955641E+02  0.42681636932E+02  0.50596369500E+02  0.00000000000E+00 0.  1.
         13    1    3    3    0    0  0.24812499445E+02  0.11072955641E+02 -0.39464937512E+02  0.47914003884E+02  0.00000000000E+00 0. -1.
<mgrwt>
<rscale>  0 0.98457841E+02</rscale>
<asrwt>0</asrwt>
<pdfrwt beam="2">  1        1 0.73302826E-02 0.98457841E+02</pdfrwt>
<pdfrwt beam="1">  1       -1 0.78251595E-02 0.98457841E+02</pdfrwt>
<totfact> 0.74949182E+04</totfact>
</mgrwt>
</event>
<event>
 5    1  0.6112843E+000  0.1063475E+03  0.7546771E-02  0.1267487E+00
         -1   -1    0    0    0  501 -0.00000000000E+00  0.00000000000E+00  0.19436031415E+03  0.19436031415E+03  0.00000000000E+00 0.  1.
          1   -1    0    0  501    0  0.00000000000E+00 -0.00000000000E+00 -0.14547465758E+02  0.14547465758E+02  0.00000000000E+00 0. -1.
         23    2    1    2    0    0  0.00000000000E+00  0.00000000000E+00  0.17981284839E+03  0.20890777990E+03  0.10634754374E+03 0.  0.
        -13    1    3    3    0    0 -0.35384934473E+02 -0.14561436264E+02  0.17374998769E+02  0.42024035931E+02  0.00000000000E+00 0. -1.
         13    1    3    3    0    0  0.35384934473E+02  0.14561436264E+02  0.16243784962E+03  0.16688374397E+03  0.00000000000E+00 0.  1.
<mgrwt>
<rscale>  0 0.10634754E+03</rscale>
<asrwt>0</asrwt>
<pdfrwt beam="2">  1        1 0.22380718E-02 0.10634754E+03</pdfrwt>
<pdfrwt beam="1">  1       -1 0.29901585E-01 0.10634754E+03</pdfrwt>
<totfact> 0.46789986E+04</totfact>
</mgrwt>
</event>
<event>
 5    1  0.6112843E+000  0.9493129E+02  0.7546771E-02  0.1291331E+00
         -4   -1    0    0    0  501 -0.00000000000E+00  0.00000000000E+00  0.26151569682E+02  0.26151569682E+02  0.00000000000E+00 0.  1.
          4   -1    0    0  501    0  0.00000000000E+00 -0.00000000000E+00 -0.86151140988E+02  0.86151140988E+02  0.00000000000E+00 0. -1.
         23    2    1    2    0    0  0.00000000000E+00  0.00000000000E+00 -0.59999571307E+02  0.11230271067E+03  0.94931292348E+02 0.  0.
        -13    1    3    3    0    0  0.19155476740E+02 -0.17732511777E+02 -0.76897717812E+02  0.81207347376E+02  0.00000000000E+00 0. -1.
         13    1    3    3    0    0 -0.19155476740E+02  0.17732511777E+02  0.16898146506E+02  0.31095363294E+02  0.00000000000E+00 0.  1.
<mgrwt>
<rscale>  0 0.94931292E+02</rscale>
<asrwt>0</asrwt>
<pdfrwt beam="2">  1        4 0.13254022E-01 0.94931292E+02</pdfrwt>
<pdfrwt beam="1">  1       -4 0.40233185E-02 0.94931292E+02</pdfrwt>
<totfact> 0.23046723E+04</totfact>
</mgrwt>
</event>
<event>
 5    1  0.6112843E+000  0.8943674E+02  0.7546771E-02  0.1304221E+00
         -2   -1    0    0    0  501 -0.00000000000E+00  0.00000000000E+00  0.49022500889E+02  0.49022500889E+02  0.00000000000E+00 0.  1.
          2   -1    0    0  501    0  0.00000000000E+00 -0.00000000000E+00 -0.40792141507E+02  0.40792141507E+02  0.00000000000E+00 0. -1.
         23    2    1    2    0    0  0.00000000000E+00  0.00000000000E+00  0.82303593815E+01  0.89814642396E+02  0.89436743977E+02 0.  0.
        -13    1    3    3    0    0 -0.10310963851E+02 -0.28933860601E+02  0.36752479695E+02  0.47898110908E+02  0.00000000000E+00 0.  1.
         13    1    3    3    0    0  0.10310963851E+02  0.28933860601E+02 -0.28522120313E+02  0.41916531488E+02  0.00000000000E+00 0. -1.
<mgrwt>
<rscale>  0 0.89436744E+02</rscale>
<asrwt>0</asrwt>
<pdfrwt beam="2">  1        2 0.62757141E-02 0.89436744E+02</pdfrwt>
<pdfrwt beam="1">  1       -2 0.75419232E-02 0.89436744E+02</pdfrwt>
<totfact> 0.10135295E+05</totfact>
</mgrwt>
</event>
<event>
 5    1  0.6112843E+000  0.8228858E+02  0.7546771E-02  0.1322679E+00
         -1   -1    0    0    0  501 -0.00000000000E+00  0.00000000000E+00  0.25579883486E+02  0.25579883486E+02  0.00000000000E+00 0.  1.
          1   -1    0    0  501    0  0.00000000000E+00 -0.00000000000E+00 -0.66179052175E+02  0.66179052175E+02  0.00000000000E+00 0. -1.
         23    2    1    2    0    0  0.00000000000E+00  0.00000000000E+00 -0.40599168689E+02  0.91758935661E+02  0.82288576214E+02 0.  0.
        -13    1    3    3    0    0 -0.23637485884E+01 -0.39647319307E+02 -0.83231531713E+01  0.40580440046E+02  0.00000000000E+00 0.  1.
         13    1    3    3    0    0  0.23637485884E+01  0.39647319307E+02 -0.32276015518E+02  0.51178495615E+02  0.00000000000E+00 0. -1.
<mgrwt>
<rscale>  0 0.82288576E+02</rscale>
<asrwt>0</asrwt>
<pdfrwt beam="2">  1        1 0.10181393E-01 0.82288576E+02</pdfrwt>
<pdfrwt beam="1">  1       -1 0.39353667E-02 0.82288576E+02</pdfrwt>
<totfact> 0.12957797E+05</totfact>
</mgrwt>
</event>
<event>
 5    1  0.6112843E+000  0.9027614E+02  0.7546771E-02  0.1302184E+00
          3   -1    0    0  501    0  0.00000000000E+00  0.00000000000E+00  0.38242297264E+02  0.38242297264E+02  0.00000000000E+00 0. -1.
         -3   -1    0    0    0  501 -0.00000000000E+00 -0.00000000000E+00 -0.53277278453E+02  0.53277278453E+02  0.00000000000E+00 0.  1.
         23    2    1    2    0    0  0.00000000000E+00  0.00000000000E+00 -0.15034981189E+02  0.91519575717E+02  0.90276143471E+02 0.  0.
        -13    1    3    3    0    0  0.11374118138E+02  0.42711059193E+02 -0.16800047428E+02  0.47284741031E+02  0.00000000000E+00 0. -1.
         13    1    3    3    0    0 -0.11374118138E+02 -0.42711059193E+02  0.17650662391E+01  0.44234834685E+02  0.00000000000E+00 0.  1.
<mgrwt>
<rscale>  0 0.90276143E+02</rscale>
<asrwt>0</asrwt>
<pdfrwt beam="1">  1        3 0.58834304E-02 0.90276143E+02</pdfrwt>
<pdfrwt beam="2">  1       -3 0.81965043E-02 0.90276143E+02</pdfrwt>
<totfact> 0.36279406E+04</totfact>
</mgrwt>
</event>
<event>
 5    1  0.6112843E+000  0.9489028E+02  0.7546771E-02  0.1291423E+00
         -1   -1    0    0    0  501 -0.00000000000E+00  0.00000000000E+00  0.15174501656E+03  0.15174501656E+03  0.00000000000E+00 0.  1.
          1   -1    0    0  501    0  0.00000000000E+00 -0.00000000000E+00 -0.14834366506E+02  0.14834366506E+02  0.00000000000E+00 0. -1.
         23    2    1    2    0    0  0.00000000000E+00  0.00000000000E+00  0.13691065005E+03  0.16657938307E+03  0.94890277503E+02 0.  0.
        -13    1    3    3    0    0 -0.31817072915E+02  0.31937485423E+02  0.42493457765E+02  0.61951780094E+02  0.00000000000E+00 0.  1.
         13    1    3    3    0    0  0.31817072915E+02 -0.31937485423E+02  0.94417192289E+02  0.10462760297E+03  0.00000000000E+00 0. -1.
<mgrwt>
<rscale>  0 0.94890278E+02</rscale>
<asrwt>0</asrwt>
<pdfrwt beam="2">  1        1 0.22822103E-02 0.94890278E+02</pdfrwt>
<pdfrwt beam="1">  1       -1 0.23345386E-01 0.94890278E+02</pdfrwt>
<totfact> 0.67230625E+04</totfact>
</mgrwt>
</event>
<event>
 5    1  0.6112843E+000  0.9159516E+02  0.7546771E-02  0.1299034E+00
          1   -1    0    0  501    0  0.00000000000E+00  0.00000000000E+00  0.16419735457E+03  0.16419735457E+03  0.00000000000E+00 0. -1.
         -1   -1    0    0    0  501 -0.00000000000E+00 -0.00000000000E+00 -0.12773764686E+02  0.12773764686E+02  0.00000000000E+00 0.  1.
         23    2    1    2    0    0  0.00000000000E+00  0.00000000000E+00  0.15142358989E+03  0.17697111926E+03  0.91595160776E+02 0.  0.
        -13    1    3    3    0    0  0.51213631341E+01  0.25268792613E+02  0.14884324485E+03  0.15105976227E+03  0.00000000000E+00 0. -1.
         13    1    3    3    0    0 -0.51213631341E+01 -0.25268792613E+02  0.25803450393E+01  0.25911356989E+02  0.00000000000E+00 0.  1.
<mgrwt>
<rscale>  0 0.91595161E+02</rscale>
<asrwt>0</asrwt>
<pdfrwt beam="1">  1        1 0.25261130E-01 0.91595161E+02</pdfrwt>
<pdfrwt beam="2">  1       -1 0.19651947E-02 0.91595161E+02</pdfrwt>
<totfact> 0.11263165E+05</totfact>
</mgrwt>
</event>
<event>
 5    1  0.6112843E+000  0.8669595E+02  0.7546771E-02  0.1311056E+00
         -1   -1    0    0    0  501 -0.00000000000E+00  0.00000000000E+00  0.77224247325E+02  0.77224247325E+02  0.00000000000E+00 0.  1.
          1   -1    0    0  501    0  0.00000000000E+00 -0.00000000000E+00 -0.24332344078E+02  0.24332344078E+02  0.00000000000E+00 0. -1.
         23    2    1    2    0    0  0.00000000000E+00  0.00000000000E+00  0.52891903246E+02  0.10155659140E+03  0.86695950473E+02 0.  0.
        -13    1    3    3    0    0  0.26447974117E+02  0.70314473675E+01  0.65825409566E+02  0.71287594513E+02  0.00000000000E+00 0.  1.
         13    1    3    3    0    0 -0.26447974117E+02 -0.70314473675E+01 -0.12933506320E+02  0.30268996889E+02  0.00000000000E+00 0. -1.
<mgrwt>
<rscale>  0 0.86695950E+02</rscale>
<asrwt>0</asrwt>
<pdfrwt beam="2">  1        1 0.37434376E-02 0.86695950E+02</pdfrwt>
<pdfrwt beam="1">  1       -1 0.11880653E-01 0.86695950E+02</pdfrwt>
<totfact> 0.96848347E+04</totfact>
</mgrwt>
</event>
<event>
 5    1  0.6112843E+000  0.9328460E+02  0.7546771E-02  0.1295087E+00
          3   -1    0    0  501    0  0.00000000000E+00  0.00000000000E+00  0.64395532439E+02  0.64395532439E+02  0.00000000000E+00 0. -1.
         -3   -1    0    0    0  501 -0.00000000000E+00 -0.00000000000E+00 -0.33783467429E+02  0.33783467429E+02  0.00000000000E+00 0.  1.
         23    2    1    2    0    0  0.00000000000E+00  0.00000000000E+00  0.30612065010E+02  0.98178999868E+02  0.93284604791E+02 0.  0.
        -13    1    3    3    0    0  0.46175269611E+02 -0.63472671347E+01  0.13464651042E+02  0.48515359954E+02  0.00000000000E+00 0.  1.
         13    1    3    3    0    0 -0.46175269611E+02  0.63472671347E+01  0.17147413968E+02  0.49663639915E+02  0.00000000000E+00 0. -1.
<mgrwt>
<rscale>  0 0.93284605E+02</rscale>
<asrwt>0</asrwt>
<pdfrwt beam="1">  1        3 0.99070050E-02 0.93284605E+02</pdfrwt>
<pdfrwt beam="2">  1       -3 0.51974565E-02 0.93284605E+02</pdfrwt>
<totfact> 0.32701207E+04</totfact>
</mgrwt>
</event>
<event>
 5    1  0.6112843E+000  0.9485733E+02  0.7546771E-02  0.1291498E+00
         -1   -1    0    0    0  501 -0.00000000000E+00  0.00000000000E+00  0.55945082514E+02  0.55945082514E+02  0.00000000000E+00 0.  1.
          1   -1    0    0  501    0  0.00000000000E+00 -0.00000000000E+00 -0.40208682658E+02  0.40208682658E+02  0.00000000000E+00 0. -1.
         23    2    1    2    0    0  0.00000000000E+00  0.00000000000E+00  0.15736399856E+02  0.96153765172E+02  0.94857325897E+02 0.  0.
        -13    1    3    3    0    0 -0.14768501089E+02 -0.34510918799E+02  0.37253466553E+02  0.52886037013E+02  0.00000000000E+00 0.  1.
         13    1    3    3    0    0  0.14768501089E+02  0.34510918799E+02 -0.21517066698E+02  0.43267728159E+02  0.00000000000E+00 0. -1.
<mgrwt>
<rscale>  0 0.94857326E+02</rscale>
<asrwt>0</asrwt>
<pdfrwt beam="2">  1        1 0.61859512E-02 0.94857326E+02</pdfrwt>
<pdfrwt beam="1">  1       -1 0.86069358E-02 0.94857326E+02</pdfrwt>
<totfact> 0.81102300E+04</totfact>
</mgrwt>
</event>
<event>
 5    1  0.6112843E+000  0.8308656E+02  0.7546771E-02  0.1320514E+00
         -1   -1    0    0    0  501 -0.00000000000E+00  0.00000000000E+00  0.16432075651E+03  0.16432075651E+03  0.00000000000E+00 0.  1.
          1   -1    0    0  501    0  0.00000000000E+00 -0.00000000000E+00 -0.10502897835E+02  0.10502897835E+02  0.00000000000E+00 0. -1.
         23    2    1    2    0    0  0.00000000000E+00  0.00000000000E+00  0.15381785868E+03  0.17482365435E+03  0.83086560113E+02 0.  0.
        -13    1    3    3    0    0 -0.14965269373E+01 -0.34371275866E+02  0.27913321546E+02  0.44303247254E+02  0.00000000000E+00 0. -1.
         13    1    3    3    0    0  0.14965269373E+01  0.34371275866E+02  0.12590453713E+03  0.13052040709E+03  0.00000000000E+00 0.  1.
<mgrwt>
<rscale>  0 0.83086560E+02</rscale>
<asrwt>0</asrwt>
<pdfrwt beam="2">  1        1 0.16158306E-02 0.83086560E+02</pdfrwt>
<pdfrwt beam="1">  1       -1 0.25280115E-01 0.83086560E+02</pdfrwt>
<totfact> 0.93072191E+04</totfact>
</mgrwt>
</event>
<event>
 5    1  0.6112843E+000  0.9120230E+02  0.7546771E-02  0.1299966E+00
         -1   -1    0    0    0  501 -0.00000000000E+00  0.00000000000E+00  0.88963554617E+02  0.88963554617E+02  0.00000000000E+00 0.  1.
          1   -1    0    0  501    0  0.00000000000E+00 -0.00000000000E+00 -0.23374344625E+02  0.23374344625E+02  0.00000000000E+00 0. -1.
         23    2    1    2    0    0  0.00000000000E+00  0.00000000000E+00  0.65589209991E+02  0.11233789924E+03  0.91202297881E+02 0.  0.
        -13    1    3    3    0    0  0.15545175861E+02  0.25017963140E+02  0.75674763801E+02  0.81204808039E+02  0.00000000000E+00 0.  1.
         13    1    3    3    0    0 -0.15545175861E+02 -0.25017963140E+02 -0.10085553810E+02  0.31133091203E+02  0.00000000000E+00 0. -1.
<mgrwt>
<rscale>  0 0.91202298E+02</rscale>
<asrwt>0</asrwt>
<pdfrwt beam="2">  1        1 0.35960531E-02 0.91202298E+02</pdfrwt>
<pdfrwt beam="1">  1       -1 0.13686701E-01 0.91202298E+02</pdfrwt>
<totfact> 0.83052635E+04</totfact>
</mgrwt>
</event>
<event>
 5    1  0.6112843E+000  0.8717994E+02  0.7546771E-02  0.1309828E+00
          2   -1    0    0  501    0  0.00000000000E+00  0.00000000000E+00  0.10965210544E+03  0.10965210544E+03  0.00000000000E+00 0.  1.
         -2   -1    0    0    0  501 -0.00000000000E+00 -0.00000000000E+00 -0.17328307723E+02  0.17328307723E+02  0.00000000000E+00 0. -1.
         23    2    1    2    0    0  0.00000000000E+00  0.00000000000E+00  0.92323797717E+02  0.12698041316E+03  0.87179938645E+02 0.  0.
        -13    1    3    3    0    0  0.16229137454E+02  0.38944557025E+02  0.62118875474E+02  0.75092064258E+02  0.00000000000E+00 0.  1.
         13    1    3    3    0    0 -0.16229137454E+02 -0.38944557025E+02  0.30204922243E+02  0.51888348905E+02  0.00000000000E+00 0. -1.
<mgrwt>
<rscale>  0 0.87179939E+02</rscale>
<asrwt>0</asrwt>
<pdfrwt beam="1">  1        2 0.16869554E-01 0.87179939E+02</pdfrwt>
<pdfrwt beam="2">  1       -2 0.26658936E-02 0.87179939E+02</pdfrwt>
<totfact> 0.14265671E+05</totfact>
</mgrwt>
</event>
<event>
 5    1  0.6112843E+000  0.9190002E+02  0.7546771E-02  0.1298315E+00
         -2   -1    0    0    0  501 -0.00000000000E+00  0.00000000000E+00  0.15331081844E+02  0.15331081844E+02  0.00000000000E+00 0.  1.
          2   -1    0    0  501    0  0.00000000000E+00 -0.00000000000E+00 -0.13772045221E+03  0.13772045221E+03  0.00000000000E+00 0. -1.
         23    2    1    2    0    0  0.00000000000E+00  0.00000000000E+00 -0.12238937037E+03  0.15305153406E+03  0.91900022296E+02 0.  0.
        -13    1    3    3    0    0  0.33048571362E+02 -0.28835719781E+02 -0.84011258037E+02  0.94771294606E+02  0.00000000000E+00 0. -1.
         13    1    3    3    0    0 -0.33048571362E+02  0.28835719781E+02 -0.38378112331E+02  0.58280239451E+02  0.00000000000E+00 0.  1.
<mgrwt>
<rscale>  0 0.91900022E+02</rscale>
<asrwt>0</asrwt>
<pdfrwt beam="2">  1        2 0.21187762E-01 0.91900022E+02</pdfrwt>
<pdfrwt beam="1">  1       -2 0.23586280E-02 0.91900022E+02</pdfrwt>
<totfact> 0.13295349E+05</totfact>
</mgrwt>
</event>
<event>
 5    1  0.6112843E+000  0.9249478E+02  0.7546771E-02  0.1296920E+00
         -1   -1    0    0    0  501 -0.00000000000E+00  0.00000000000E+00  0.86335105292E+02  0.86335105292E+02  0.00000000000E+00 0.  1.
          1   -1    0    0  501    0  0.00000000000E+00 -0.00000000000E+00 -0.24773482825E+02  0.24773482825E+02  0.00000000000E+00 0. -1.
         23    2    1    2    0    0  0.00000000000E+00  0.00000000000E+00  0.61561622467E+02  0.11110858812E+03  0.92494783596E+02 0.  0.
        -13    1    3    3    0    0 -0.18738347268E+02  0.38309532526E+02  0.52271803800E+02  0.67461747778E+02  0.00000000000E+00 0. -1.
         13    1    3    3    0    0  0.18738347268E+02 -0.38309532526E+02  0.92898186672E+01  0.43646840339E+02  0.00000000000E+00 0.  1.
<mgrwt>
<rscale>  0 0.92494784E+02</rscale>
<asrwt>0</asrwt>
<pdfrwt beam="2">  1        1 0.38113051E-02 0.92494784E+02</pdfrwt>
<pdfrwt beam="1">  1       -1 0.13282324E-01 0.92494784E+02</pdfrwt>
<totfact> 0.80526943E+04</totfact>
</mgrwt>
</event>
<event>
 5    1  0.6112843E+000  0.9172232E+02  0.7546771E-02  0.1298734E+00
         -4   -1    0    0    0  501 -0.00000000000E+00  0.00000000000E+00  0.59551310254E+01  0.59551310254E+01  0.00000000000E+00 0.  1.
          4   -1    0    0  501    0  0.00000000000E+00 -0.00000000000E+00 -0.35318215855E+03  0.35318215855E+03  0.00000000000E+00 0. -1.
         23    2    1    2    0    0  0.00000000000E+00  0.00000000000E+00 -0.34722702752E+03  0.35913728957E+03  0.91722320729E+02 0.  0.
        -13    1    3    3    0    0 -0.38795196970E+02  0.23016845919E+02 -0.14122994477E+03  0.14825902942E+03  0.00000000000E+00 0.  1.
         13    1    3    3    0    0  0.38795196970E+02 -0.23016845919E+02 -0.20599708275E+03  0.21087826015E+03  0.00000000000E+00 0. -1.
<mgrwt>
<rscale>  0 0.91722321E+02</rscale>
<asrwt>0</asrwt>
<pdfrwt beam="2">  1        4 0.54335711E-01 0.91722321E+02</pdfrwt>
<pdfrwt beam="1">  1       -4 0.91617409E-03 0.91722321E+02</pdfrwt>
<totfact> 0.15902656E+04</totfact>
</mgrwt>
</event>
<event>
 5    1  0.6112843E+000  0.9003236E+02  0.7546771E-02  0.1302773E+00
         -1   -1    0    0    0  501 -0.00000000000E+00  0.00000000000E+00  0.63349768597E+02  0.63349768597E+02  0.00000000000E+00 0.  1.
          1   -1    0    0  501    0  0.00000000000E+00 -0.00000000000E+00 -0.31988381511E+02  0.31988381511E+02  0.00000000000E+00 0. -1.
         23    2    1    2    0    0  0.00000000000E+00  0.00000000000E+00  0.31361387086E+02  0.95338150107E+02  0.90032362326E+02 0.  0.
        -13    1    3    3    0    0 -0.17334437959E+02  0.41385523717E+02  0.11831617160E+02  0.46402925310E+02  0.00000000000E+00 0.  1.
         13    1    3    3    0    0  0.17334437959E+02 -0.41385523717E+02  0.19529769926E+02  0.48935224798E+02  0.00000000000E+00 0. -1.
<mgrwt>
<rscale>  0 0.90032362E+02</rscale>
<asrwt>0</asrwt>
<pdfrwt beam="2">  1        1 0.49212895E-02 0.90032362E+02</pdfrwt>
<pdfrwt beam="1">  1       -1 0.97461183E-02 0.90032362E+02</pdfrwt>
<totfact> 0.90793938E+04</totfact>
</mgrwt>
</event>
<event>
 5    1  0.6112843E+000  0.9174521E+02  0.7546771E-02  0.1298680E+00
          1   -1    0    0  501    0  0.00000000000E+00  0.00000000000E+00  0.14514330708E+03  0.14514330708E+03  0.00000000000E+00 0. -1.
         -1   -1    0    0    0  501 -0.00000000000E+00 -0.00000000000E+00 -0.14498057251E+02  0.14498057251E+02  0.00000000000E+00 0.  1.
         23    2    1    2    0    0  0.00000000000E+00  0.00000000000E+00  0.13064524983E+03  0.15964136434E+03  0.91745211880E+02 0.  0.
        -13    1    3    3    0    0 -0.14479469891E+02 -0.37417723671E+02  0.10401890962E+03  0.11148845076E+03  0.00000000000E+00 0. -1.
         13    1    3    3    0    0  0.14479469891E+02  0.37417723671E+02  0.26626340209E+02  0.48152913577E+02  0.00000000000E+00 0.  1.
<mgrwt>
<rscale>  0 0.91745212E+02</rscale>
<asrwt>0</asrwt>
<pdfrwt beam="1">  1        1 0.22329739E-01 0.91745212E+02</pdfrwt>
<pdfrwt beam="2">  1       -1 0.22304704E-02 0.91745212E+02</pdfrwt>
<totfact> 0.10960197E+05</totfact>
</mgrwt>
</event>
<event>
 5    1  0.6112843E+000  0.8804466E+02  0.7546771E-02  0.1307657E+00
          3   -1    0    0  501    0  0.00000000000E+00  0.00000000000E+00  0.62154428894E+01  0.62154428894E+01  0.00000000000E+00 0. -1.
         -3   -1    0    0    0  501 -0.00000000000E+00 -0.00000000000E+00 -0.31179846709E+03  0.31179846709E+03  0.00000000000E+00 0.  1.
         23    2    1    2    0    0  0.00000000000E+00  0.00000000000E+00 -0.30558302420E+03  0.31801390998E+03  0.88044660603E+02 0.  0.
        -13    1    3    3    0    0 -0.32096113532E+02 -0.26583954462E+02 -0.10157058570E+03  0.10978820983E+03  0.00000000000E+00 0.  1.
         13    1    3    3    0    0  0.32096113532E+02  0.26583954462E+02 -0.20401243850E+03  0.20822570014E+03  0.00000000000E+00 0. -1.
<mgrwt>
<rscale>  0 0.88044661E+02</rscale>
<asrwt>0</asrwt>
<pdfrwt beam="1">  1        3 0.95622206E-03 0.88044661E+02</pdfrwt>
<pdfrwt beam="2">  1       -3 0.47968991E-01 0.88044661E+02</pdfrwt>
<totfact> 0.25628289E+04</totfact>
</mgrwt>
</event>
<event>
 5    1  0.6112843E+000  0.9325938E+02  0.7546771E-02  0.1295145E+00
         -3   -1    0    0    0  501 -0.00000000000E+00  0.00000000000E+00  0.23121056315E+03  0.23121056315E+03  0.00000000000E+00 0.  1.
          3   -1    0    0  501    0  0.00000000000E+00 -0.00000000000E+00 -0.94041037434E+01  0.94041037434E+01  0.00000000000E+00 0. -1.
         23    2    1    2    0    0  0.00000000000E+00  0.00000000000E+00  0.22180645941E+03  0.24061466689E+03  0.93259382851E+02 0.  0.
        -13    1    3    3    0    0  0.63429827338E+01  0.43357220110E+02  0.69763942949E+02  0.82383795138E+02  0.00000000000E+00 0. -1.
         13    1    3    3    0    0 -0.63429827338E+01 -0.43357220110E+02  0.15204251646E+03  0.15823087175E+03  0.00000000000E+00 0.  1.
<mgrwt>
<rscale>  0 0.93259383E+02</rscale>
<asrwt>0</asrwt>
<pdfrwt beam="2">  1        3 0.14467854E-02 0.93259383E+02</pdfrwt>
<pdfrwt beam="1">  1       -3 0.35570852E-01 0.93259383E+02</pdfrwt>
<totfact> 0.24954378E+04</totfact>
</mgrwt>
</event>
<event>
 5    1  0.6112843E+000  0.1034155E+03  0.7546771E-02  0.1273273E+00
          1   -1    0    0  501    0  0.00000000000E+00  0.00000000000E+00  0.89193484322E+02  0.89193484322E+02  0.00000000000E+00 0. -1.
         -1   -1    0    0    0  501 -0.00000000000E+00 -0.00000000000E+00 -0.29976301652E+02  0.29976301652E+02  0.00000000000E+00 0.  1.
         23    2    1    2    0    0  0.00000000000E+00  0.00000000000E+00  0.59217182670E+02  0.11916978597E+03  0.10341548804E+03 0.  0.
        -13    1    3    3    0    0 -0.36530065084E+01  0.50369331452E+02  0.42403029555E+02  0.65942633576E+02  0.00000000000E+00 0.  1.
         13    1    3    3    0    0  0.36530065084E+01 -0.50369331452E+02  0.16814153114E+02  0.53227152398E+02  0.00000000000E+00 0. -1.
<mgrwt>
<rscale>  0 0.10341549E+03</rscale>
<asrwt>0</asrwt>
<pdfrwt beam="1">  1        1 0.13722074E-01 0.10341549E+03</pdfrwt>
<pdfrwt beam="2">  1       -1 0.46117388E-02 0.10341549E+03</pdfrwt>
<totfact> 0.72404819E+04</totfact>
</mgrwt>
</event>
<event>
 5    1  0.6112843E+000  0.7435321E+02  0.7546771E-02  0.1345886E+00
          2   -1    0    0  501    0  0.00000000000E+00  0.00000000000E+00  0.14616752155E+02  0.14616752155E+02  0.00000000000E+00 0. -1.
         -2   -1    0    0    0  501 -0.00000000000E+00 -0.00000000000E+00 -0.94555876588E+02  0.94555876588E+02  0.00000000000E+00 0.  1.
         23    2    1    2    0    0  0.00000000000E+00  0.00000000000E+00 -0.79939124433E+02  0.10917262874E+03  0.74353206062E+02 0.  0.
        -13    1    3    3    0    0 -0.23707113549E+01  0.31577386955E+02 -0.68567391332E+02  0.75526411230E+02  0.00000000000E+00 0.  1.
         13    1    3    3    0    0  0.23707113549E+01 -0.31577386955E+02 -0.11371733101E+02  0.33646217514E+02  0.00000000000E+00 0. -1.
<mgrwt>
<rscale>  0 0.74353206E+02</rscale>
<asrwt>0</asrwt>
<pdfrwt beam="1">  1        2 0.22487311E-02 0.74353206E+02</pdfrwt>
<pdfrwt beam="2">  1       -2 0.14547058E-01 0.74353206E+02</pdfrwt>
<totfact> 0.13463709E+05</totfact>
</mgrwt>
</event>
<event>
 5    1  0.6112843E+000  0.9164412E+02  0.7546771E-02  0.1298918E+00
          2   -1    0    0  501    0  0.00000000000E+00  0.00000000000E+00  0.42369091181E+02  0.42369091181E+02  0.00000000000E+00 0. -1.
         -2   -1    0    0    0  501 -0.00000000000E+00 -0.00000000000E+00 -0.49556438751E+02  0.49556438751E+02  0.00000000000E+00 0.  1.
         23    2    1    2    0    0  0.00000000000E+00  0.00000000000E+00 -0.71873475704E+01  0.91925529932E+02  0.91644121951E+02 0.  0.
        -13    1    3    3    0    0  0.28410915888E+02 -0.33769372396E+02 -0.15964858561E+02  0.46930026236E+02  0.00000000000E+00 0. -1.
         13    1    3    3    0    0 -0.28410915888E+02  0.33769372396E+02  0.87775109910E+01  0.44995503696E+02  0.00000000000E+00 0.  1.
<mgrwt>
<rscale>  0 0.91644122E+02</rscale>
<asrwt>0</asrwt>
<pdfrwt beam="1">  1        2 0.65183217E-02 0.91644122E+02</pdfrwt>
<pdfrwt beam="2">  1       -2 0.76240675E-02 0.91644122E+02</pdfrwt>
<totfact> 0.95400264E+04</totfact>
</mgrwt>
</event>
<event>
 5    1  0.6112843E+000  0.9035603E+02  0.7546771E-02  0.1301992E+00
          4   -1    0    0  501    0  0.00000000000E+00  0.00000000000E+00  0.16872505104E+02  0.16872505104E+02  0.00000000000E+00 0. -1.
         -4   -1    0    0    0  501 -0.00000000000E+00 -0.00000000000E+00 -0.12096916510E+03  0.12096916510E+03  0.00000000000E+00 0.  1.
         23    2    1    2    0    0  0.00000000000E+00  0.00000000000E+00 -0.10409665999E+03  0.13784167020E+03  0.90356025931E+02 0.  0.
        -13    1    3    3    0    0 -0.45014385161E+02 -0.36290172913E+01 -0.50125776621E+02  0.67468941890E+02  0.00000000000E+00 0. -1.
         13    1    3    3    0    0  0.45014385161E+02  0.36290172913E+01 -0.53970883370E+02  0.70372728309E+02  0.00000000000E+00 0.  1.
<mgrwt>
<rscale>  0 0.90356026E+02</rscale>
<asrwt>0</asrwt>
<pdfrwt beam="1">  1        4 0.25957700E-02 0.90356026E+02</pdfrwt>
<pdfrwt beam="2">  1       -4 0.18610641E-01 0.90356026E+02</pdfrwt>
<totfact> 0.24896669E+04</totfact>
</mgrwt>
</event>
<event>
 5    1  0.6112843E+000  0.8909328E+02  0.7546771E-02  0.1305062E+00
          3   -1    0    0  501    0  0.00000000000E+00  0.00000000000E+00  0.95147013575E+01  0.95147013575E+01  0.00000000000E+00 0. -1.
         -3   -1    0    0    0  501 -0.00000000000E+00 -0.00000000000E+00 -0.20856176922E+03  0.20856176922E+03  0.00000000000E+00 0.  1.
         23    2    1    2    0    0  0.00000000000E+00  0.00000000000E+00 -0.19904706786E+03  0.21807647058E+03  0.89093275811E+02 0.  0.
        -13    1    3    3    0    0  0.16326294890E+02 -0.41083738767E+02 -0.86120898044E+02  0.96805116475E+02  0.00000000000E+00 0. -1.
         13    1    3    3    0    0 -0.16326294890E+02  0.41083738767E+02 -0.11292616982E+03  0.12127135410E+03  0.00000000000E+00 0.  1.
<mgrwt>
<rscale>  0 0.89093276E+02</rscale>
<asrwt>0</asrwt>
<pdfrwt beam="1">  1        3 0.14638003E-02 0.89093276E+02</pdfrwt>
<pdfrwt beam="2">  1       -3 0.32086425E-01 0.89093276E+02</pdfrwt>
<totfact> 0.29356525E+04</totfact>
</mgrwt>
</event>
<event>
 5    1  0.6112843E+000  0.9200905E+02  0.7546771E-02  0.1298058E+00
          2   -1    0    0  501    0  0.00000000000E+00  0.00000000000E+00  0.25052747778E+03  0.25052747778E+03  0.00000000000E+00 0. -1.
         -2   -1    0    0    0  501 -0.00000000000E+00 -0.00000000000E+00 -0.84478412283E+01  0.84478412283E+01  0.00000000000E+00 0.  1.
         23    2    1    2    0    0  0.00000000000E+00  0.00000000000E+00  0.24207963655E+03  0.25897531900E+03  0.92009050763E+02 0.  0.
        -13    1    3    3    0    0  0.25148452406E+01  0.39052953590E+02  0.52964381259E+02  0.65853498866E+02  0.00000000000E+00 0.  1.
         13    1    3    3    0    0 -0.25148452406E+01 -0.39052953590E+02  0.18911525529E+03  0.19312182014E+03  0.00000000000E+00 0. -1.
<mgrwt>
<rscale>  0 0.92009051E+02</rscale>
<asrwt>0</asrwt>
<pdfrwt beam="1">  1        2 0.38542683E-01 0.92009051E+02</pdfrwt>
<pdfrwt beam="2">  1       -2 0.12996681E-02 0.92009051E+02</pdfrwt>
<totfact> 0.16394830E+05</totfact>
</mgrwt>
</event>
<event>
 5    1  0.6112843E+000  0.9164007E+02  0.7546771E-02  0.1298928E+00
          2   -1    0    0  501    0  0.00000000000E+00  0.00000000000E+00  0.38070526912E+02  0.38070526912E+02  0.00000000000E+00 0. -1.
         -2   -1    0    0    0  501 -0.00000000000E+00 -0.00000000000E+00 -0.55147002905E+02  0.55147002905E+02  0.00000000000E+00 0.  1.
         23    2    1    2    0    0  0.00000000000E+00  0.00000000000E+00 -0.17076475993E+02  0.93217529817E+02  0.91640066744E+02 0.  0.
        -13    1    3    3    0    0 -0.21689626507E+02  0.39612712557E+02 -0.16408906375E+02  0.48050588993E+02  0.00000000000E+00 0. -1.
         13    1    3    3    0    0  0.21689626507E+02 -0.39612712557E+02 -0.66756961763E+00  0.45166940824E+02  0.00000000000E+00 0.  1.
<mgrwt>
<rscale>  0 0.91640067E+02</rscale>
<asrwt>0</asrwt>
<pdfrwt beam="1">  1        2 0.58570042E-02 0.91640067E+02</pdfrwt>
<pdfrwt beam="2">  1       -2 0.84841543E-02 0.91640067E+02</pdfrwt>
<totfact> 0.92795188E+04</totfact>
</mgrwt>
</event>
<event>
 5    1  0.6112843E+000  0.9407732E+02  0.7546771E-02  0.1293268E+00
         -2   -1    0    0    0  501 -0.00000000000E+00  0.00000000000E+00  0.87749151174E+02  0.87749151174E+02  0.00000000000E+00 0.  1.
          2   -1    0    0  501    0  0.00000000000E+00 -0.00000000000E+00 -0.25215463552E+02  0.25215463552E+02  0.00000000000E+00 0. -1.
         23    2    1    2    0    0  0.00000000000E+00  0.00000000000E+00  0.62533687622E+02  0.11296461473E+03  0.94077319757E+02 0.  0.
        -13    1    3    3    0    0 -0.21526354087E+02 -0.20325712420E+02  0.75158274486E+02  0.80779234518E+02  0.00000000000E+00 0.  1.
         13    1    3    3    0    0  0.21526354087E+02  0.20325712420E+02 -0.12624586864E+02  0.32185380208E+02  0.00000000000E+00 0. -1.
<mgrwt>
<rscale>  0 0.94077320E+02</rscale>
<asrwt>0</asrwt>
<pdfrwt beam="2">  1        2 0.38793021E-02 0.94077320E+02</pdfrwt>
<pdfrwt beam="1">  1       -2 0.13499869E-01 0.94077320E+02</pdfrwt>
<totfact> 0.76727752E+04</totfact>
</mgrwt>
</event>
<event>
 5    1  0.6112843E+000  0.9193014E+02  0.7546771E-02  0.1298244E+00
         -2   -1    0    0    0  501 -0.00000000000E+00  0.00000000000E+00  0.12672732820E+03  0.12672732820E+03  0.00000000000E+00 0.  1.
          2   -1    0    0  501    0  0.00000000000E+00 -0.00000000000E+00 -0.16671916734E+02  0.16671916734E+02  0.00000000000E+00 0. -1.
         23    2    1    2    0    0  0.00000000000E+00  0.00000000000E+00  0.11005541146E+03  0.14339924493E+03  0.91930135725E+02 0.  0.
        -13    1    3    3    0    0 -0.29651386788E+02 -0.14747783985E+02  0.53050736613E+01  0.33538719079E+02  0.00000000000E+00 0. -1.
         13    1    3    3    0    0  0.29651386788E+02  0.14747783985E+02  0.10475033780E+03  0.10986052585E+03  0.00000000000E+00 0.  1.
<mgrwt>
<rscale>  0 0.91930136E+02</rscale>
<asrwt>0</asrwt>
<pdfrwt beam="2">  1        2 0.25649103E-02 0.91930136E+02</pdfrwt>
<pdfrwt beam="1">  1       -2 0.19496511E-01 0.91930136E+02</pdfrwt>
<totfact> 0.72559303E+04</totfact>
</mgrwt>
</event>
<event>
 5    1  0.6112843E+000  0.9125321E+02  0.7546771E-02  0.1299845E+00
         -1   -1    0    0    0  501 -0.00000000000E+00  0.00000000000E+00  0.13173414409E+02  0.13173414409E+02  0.00000000000E+00 0.  1.
          1   -1    0    0  501    0  0.00000000000E+00 -0.00000000000E+00 -0.15802943897E+03  0.15802943897E+03  0.00000000000E+00 0. -1.
         23    2    1    2    0    0  0.00000000000E+00  0.00000000000E+00 -0.14485602456E+03  0.17120285338E+03  0.91253214482E+02 0.  0.
        -13    1    3    3    0    0 -0.72580283392E+01 -0.28573136565E+02 -0.70943982117E+01  0.30322163421E+02  0.00000000000E+00 0.  1.
         13    1    3    3    0    0  0.72580283392E+01  0.28573136565E+02 -0.13776162635E+03  0.14088068996E+03  0.00000000000E+00 0. -1.
<mgrwt>
<rscale>  0 0.91253214E+02</rscale>
<asrwt>0</asrwt>
<pdfrwt beam="2">  1        1 0.24312221E-01 0.91253214E+02</pdfrwt>
<pdfrwt beam="1">  1       -1 0.20266792E-02 0.91253214E+02</pdfrwt>
<totfact> 0.11296345E+05</totfact>
</mgrwt>
</event>
<event>
 5    1  0.6112843E+000  0.9245685E+02  0.7546771E-02  0.1297009E+00
         -1   -1    0    0    0  501 -0.00000000000E+00  0.00000000000E+00  0.11424660665E+03  0.11424660665E+03  0.00000000000E+00 0.  1.
          1   -1    0    0  501    0  0.00000000000E+00 -0.00000000000E+00 -0.18705738787E+02  0.18705738787E+02  0.00000000000E+00 0. -1.
         23    2    1    2    0    0  0.00000000000E+00  0.00000000000E+00  0.95540867862E+02  0.13295234544E+03  0.92456847907E+02 0.  0.
        -13    1    3    3    0    0 -0.11465027717E+02  0.40007019331E+02  0.76711592696E+02  0.87273575098E+02  0.00000000000E+00 0.  1.
         13    1    3    3    0    0  0.11465027717E+02 -0.40007019331E+02  0.18829275166E+02  0.45678770338E+02  0.00000000000E+00 0. -1.
<mgrwt>
<rscale>  0 0.92456848E+02</rscale>
<asrwt>0</asrwt>
<pdfrwt beam="2">  1        1 0.28778060E-02 0.92456848E+02</pdfrwt>
<pdfrwt beam="1">  1       -1 0.17576401E-01 0.92456848E+02</pdfrwt>
<totfact> 0.76504845E+04</totfact>
</mgrwt>
</event>
<event>
 5    1  0.6112843E+000  0.7906215E+02  0.7546771E-02  0.1331734E+00
         -3   -1    0    0    0  501 -0.00000000000E+00  0.00000000000E+00  0.39549690612E+01  0.39549690612E+01  0.00000000000E+00 0.  1.
          3   -1    0    0  501    0  0.00000000000E+00 -0.00000000000E+00 -0.39512465118E+03  0.39512465118E+03  0.00000000000E+00 0. -1.
         23    2    1    2    0    0  0.00000000000E+00  0.00000000000E+00 -0.39116968212E+03  0.39907962024E+03  0.79062146967E+02 0.  0.
        -13    1    3    3    0    0 -0.19824351068E+02 -0.33980783355E+02 -0.21513909871E+03  0.21870649356E+03  0.00000000000E+00 0. -1.
         13    1    3    3    0    0  0.19824351068E+02  0.33980783355E+02 -0.17603058341E+03  0.18037312668E+03  0.00000000000E+00 0.  1.
<mgrwt>
<rscale>  0 0.79062147E+02</rscale>
<asrwt>0</asrwt>
<pdfrwt beam="2">  1        3 0.60788388E-01 0.79062147E+02</pdfrwt>
<pdfrwt beam="1">  1       -3 0.60845698E-03 0.79062147E+02</pdfrwt>
<totfact> 0.30123443E+04</totfact>
</mgrwt>
</event>
<event>
 5    1  0.6112843E+000  0.9329454E+02  0.7546771E-02  0.1295064E+00
         -3   -1    0    0    0  501 -0.00000000000E+00  0.00000000000E+00  0.15543500179E+03  0.15543500179E+03  0.00000000000E+00 0.  1.
          3   -1    0    0  501    0  0.00000000000E+00 -0.00000000000E+00 -0.13999214920E+02  0.13999214920E+02  0.00000000000E+00 0. -1.
         23    2    1    2    0    0  0.00000000000E+00  0.00000000000E+00  0.14143578687E+03  0.16943421671E+03  0.93294544239E+02 0.  0.
        -13    1    3    3    0    0 -0.23916411588E+02  0.28013645613E+02  0.18737183569E+02  0.41326034553E+02  0.00000000000E+00 0. -1.
         13    1    3    3    0    0  0.23916411588E+02 -0.28013645613E+02  0.12269860330E+03  0.12810818216E+03  0.00000000000E+00 0.  1.
<mgrwt>
<rscale>  0 0.93294544E+02</rscale>
<asrwt>0</asrwt>
<pdfrwt beam="2">  1        3 0.21537255E-02 0.93294544E+02</pdfrwt>
<pdfrwt beam="1">  1       -3 0.23913076E-01 0.93294544E+02</pdfrwt>
<totfact> 0.28338581E+04</totfact>
</mgrwt>
</event>
<event>
 5    1  0.6112843E+000  0.8897070E+02  0.7546771E-02  0.1305364E+00
         -2   -1    0    0    0  501 -0.00000000000E+00  0.00000000000E+00  0.11358534872E+02  0.11358534872E+02  0.00000000000E+00 0. -1.
          2   -1    0    0  501    0  0.00000000000E+00 -0.00000000000E+00 -0.17422551440E+03  0.17422551440E+03  0.00000000000E+00 0.  1.
         23    2    1    2    0    0  0.00000000000E+00  0.00000000000E+00 -0.16286697953E+03  0.18558404927E+03  0.88970704862E+02 0.  0.
        -13    1    3    3    0    0  0.36650912864E+02 -0.18951654683E+02 -0.11611794377E+03  0.12323080579E+03  0.00000000000E+00 0. -1.
         13    1    3    3    0    0 -0.36650912864E+02  0.18951654683E+02 -0.46749035755E+02  0.62353243485E+02  0.00000000000E+00 0.  1.
<mgrwt>
<rscale>  0 0.88970705E+02</rscale>
<asrwt>0</asrwt>
<pdfrwt beam="2">  1        2 0.26803922E-01 0.88970705E+02</pdfrwt>
<pdfrwt beam="1">  1       -2 0.17474671E-02 0.88970705E+02</pdfrwt>
<totfact> 0.15729214E+05</totfact>
</mgrwt>
</event>
<event>
 5    1  0.6112843E+000  0.8933213E+02  0.7546771E-02  0.1304477E+00
          1   -1    0    0  501    0  0.00000000000E+00  0.00000000000E+00  0.11011524421E+03  0.11011524421E+03  0.00000000000E+00 0. -1.
         -1   -1    0    0    0  501 -0.00000000000E+00 -0.00000000000E+00 -0.18117904468E+02  0.18117904468E+02  0.00000000000E+00 0.  1.
         23    2    1    2    0    0  0.00000000000E+00  0.00000000000E+00  0.91997339742E+02  0.12823314868E+03  0.89332132518E+02 0.  0.
        -13    1    3    3    0    0 -0.17108885309E+02 -0.23768778041E+02 -0.24126653555E+01  0.29385195595E+02  0.00000000000E+00 0.  1.
         13    1    3    3    0    0  0.17108885309E+02  0.23768778041E+02  0.94410005098E+02  0.98847953083E+02  0.00000000000E+00 0. -1.
<mgrwt>
<rscale>  0 0.89332133E+02</rscale>
<asrwt>0</asrwt>
<pdfrwt beam="1">  1        1 0.16940806E-01 0.89332133E+02</pdfrwt>
<pdfrwt beam="2">  1       -1 0.27873700E-02 0.89332133E+02</pdfrwt>
<totfact> 0.11221097E+05</totfact>
</mgrwt>
</event>
<event>
 5    1  0.6112843E+000  0.9207693E+02  0.7546771E-02  0.1297899E+00
          3   -1    0    0  501    0  0.00000000000E+00  0.00000000000E+00  0.63766109733E+02  0.63766109733E+02  0.00000000000E+00 0. -1.
         -3   -1    0    0    0  501 -0.00000000000E+00 -0.00000000000E+00 -0.33239291466E+02  0.33239291466E+02  0.00000000000E+00 0.  1.
         23    2    1    2    0    0  0.00000000000E+00  0.00000000000E+00  0.30526818268E+02  0.97005401199E+02  0.92076931032E+02 0.  0.
        -13    1    3    3    0    0 -0.34824937742E+02 -0.29103674199E+02  0.23406294006E+02  0.51065200868E+02  0.00000000000E+00 0. -1.
         13    1    3    3    0    0  0.34824937742E+02  0.29103674199E+02  0.71205242620E+01  0.45940200331E+02  0.00000000000E+00 0.  1.
<mgrwt>
<rscale>  0 0.92076931E+02</rscale>
<asrwt>0</asrwt>
<pdfrwt beam="1">  1        3 0.98101707E-02 0.92076931E+02</pdfrwt>
<pdfrwt beam="2">  1       -3 0.51137372E-02 0.92076931E+02</pdfrwt>
<totfact> 0.33971747E+04</totfact>
</mgrwt>
</event>
<event>
 5    1  0.6112843E+000  0.9196205E+02  0.7546771E-02  0.1298169E+00
          2   -1    0    0  501    0  0.00000000000E+00  0.00000000000E+00  0.98135666323E+02  0.98135666323E+02  0.00000000000E+00 0.  1.
         -2   -1    0    0    0  501 -0.00000000000E+00 -0.00000000000E+00 -0.21544200758E+02  0.21544200758E+02  0.00000000000E+00 0. -1.
         23    2    1    2    0    0  0.00000000000E+00  0.00000000000E+00  0.76591465565E+02  0.11967986708E+03  0.91962046450E+02 0.  0.
        -13    1    3    3    0    0  0.17047896368E+02  0.14637194363E+02 -0.13912773434E+02  0.26428081543E+02  0.00000000000E+00 0. -1.
         13    1    3    3    0    0 -0.17047896368E+02 -0.14637194363E+02  0.90504238999E+02  0.93251785539E+02  0.00000000000E+00 0.  1.
<mgrwt>
<rscale>  0 0.91962046E+02</rscale>
<asrwt>0</asrwt>
<pdfrwt beam="1">  1        2 0.15097795E-01 0.91962046E+02</pdfrwt>
<pdfrwt beam="2">  1       -2 0.33144925E-02 0.91962046E+02</pdfrwt>
<totfact> 0.11912474E+05</totfact>
</mgrwt>
</event>
<event>
 5    1  0.6112843E+000  0.9260008E+02  0.7546771E-02  0.1296675E+00
          2   -1    0    0  501    0  0.00000000000E+00  0.00000000000E+00  0.15418272967E+03  0.15418272967E+03  0.00000000000E+00 0. -1.
         -2   -1    0    0    0  501 -0.00000000000E+00 -0.00000000000E+00 -0.13903591924E+02  0.13903591924E+02  0.00000000000E+00 0.  1.
         23    2    1    2    0    0  0.00000000000E+00  0.00000000000E+00  0.14027913774E+03  0.16808632159E+03  0.92600081101E+02 0.  0.
        -13    1    3    3    0    0 -0.40100600495E+02  0.43247561279E+01  0.28869257247E+02  0.49600359773E+02  0.00000000000E+00 0.  1.
         13    1    3    3    0    0  0.40100600495E+02 -0.43247561279E+01  0.11140988050E+03  0.11848596182E+03  0.00000000000E+00 0. -1.
<mgrwt>
<rscale>  0 0.92600081E+02</rscale>
<asrwt>0</asrwt>
<pdfrwt beam="1">  1        2 0.23720419E-01 0.92600081E+02</pdfrwt>
<pdfrwt beam="2">  1       -2 0.21390143E-02 0.92600081E+02</pdfrwt>
<totfact> 0.13531231E+05</totfact>
</mgrwt>
</event>
<event>
 5    1  0.6112843E+000  0.9846086E+02  0.7546771E-02  0.1283566E+00
          2   -1    0    0  501    0  0.00000000000E+00  0.00000000000E+00  0.23886687695E+03  0.23886687695E+03  0.00000000000E+00 0. -1.
         -2   -1    0    0    0  501 -0.00000000000E+00 -0.00000000000E+00 -0.10146384644E+02  0.10146384644E+02  0.00000000000E+00 0.  1.
         23    2    1    2    0    0  0.00000000000E+00  0.00000000000E+00  0.22872049230E+03  0.24901326159E+03  0.98460859477E+02 0.  0.
        -13    1    3    3    0    0  0.15799155503E+02  0.41241002348E+02  0.59345138510E+02  0.73974854200E+02  0.00000000000E+00 0.  1.
         13    1    3    3    0    0 -0.15799155503E+02 -0.41241002348E+02  0.16937535379E+03  0.17503840739E+03  0.00000000000E+00 0. -1.
<mgrwt>
<rscale>  0 0.98460859E+02</rscale>
<asrwt>0</asrwt>
<pdfrwt beam="1">  1        2 0.36748746E-01 0.98460859E+02</pdfrwt>
<pdfrwt beam="2">  1       -2 0.15609824E-02 0.98460859E+02</pdfrwt>
<totfact> 0.13418373E+05</totfact>
</mgrwt>
</event>
<event>
 5    1  0.6112843E+000  0.9076298E+02  0.7546771E-02  0.1301014E+00
          4   -1    0    0  501    0  0.00000000000E+00  0.00000000000E+00  0.15526041007E+02  0.15526041007E+02  0.00000000000E+00 0. -1.
         -4   -1    0    0    0  501 -0.00000000000E+00 -0.00000000000E+00 -0.13264678648E+03  0.13264678648E+03  0.00000000000E+00 0.  1.
         23    2    1    2    0    0  0.00000000000E+00  0.00000000000E+00 -0.11712074548E+03  0.14817282749E+03  0.90762975851E+02 0.  0.
        -13    1    3    3    0    0  0.26469471685E+02  0.84961431836E+01 -0.11711916218E+03  0.12037323428E+03  0.00000000000E+00 0.  1.
         13    1    3    3    0    0 -0.26469471685E+02 -0.84961431836E+01 -0.15832954568E-02  0.27799593213E+02  0.00000000000E+00 0. -1.
<mgrwt>
<rscale>  0 0.90762976E+02</rscale>
<asrwt>0</asrwt>
<pdfrwt beam="1">  1        4 0.23886217E-02 0.90762976E+02</pdfrwt>
<pdfrwt beam="2">  1       -4 0.20407198E-01 0.90762976E+02</pdfrwt>
<totfact> 0.24057658E+04</totfact>
</mgrwt>
</event>
<event>
 5    1  0.6112843E+000  0.9460669E+02  0.7546771E-02  0.1292064E+00
         -1   -1    0    0    0  501 -0.00000000000E+00  0.00000000000E+00  0.26285545810E+02  0.26285545810E+02  0.00000000000E+00 0.  1.
          1   -1    0    0  501    0  0.00000000000E+00 -0.00000000000E+00 -0.85126871236E+02  0.85126871236E+02  0.00000000000E+00 0. -1.
         23    2    1    2    0    0  0.00000000000E+00  0.00000000000E+00 -0.58841325427E+02  0.11141241705E+03  0.94606686307E+02 0.  0.
        -13    1    3    3    0    0  0.48154601369E+01 -0.43549125835E+02 -0.84239620754E+01  0.44617016421E+02  0.00000000000E+00 0.  1.
         13    1    3    3    0    0 -0.48154601369E+01  0.43549125835E+02 -0.50417363351E+02  0.66795400625E+02  0.00000000000E+00 0. -1.
<mgrwt>
<rscale>  0 0.94606686E+02</rscale>
<asrwt>0</asrwt>
<pdfrwt beam="2">  1        1 0.13096442E-01 0.94606686E+02</pdfrwt>
<pdfrwt beam="1">  1       -1 0.40439301E-02 0.94606686E+02</pdfrwt>
<totfact> 0.91923760E+04</totfact>
</mgrwt>
</event>
<event>
 5    1  0.6112843E+000  0.9297500E+02  0.7546771E-02  0.1295803E+00
          1   -1    0    0  501    0  0.00000000000E+00  0.00000000000E+00  0.80809012336E+02  0.80809012336E+02  0.00000000000E+00 0. -1.
         -1   -1    0    0    0  501 -0.00000000000E+00 -0.00000000000E+00 -0.26743150017E+02  0.26743150017E+02  0.00000000000E+00 0.  1.
         23    2    1    2    0    0  0.00000000000E+00  0.00000000000E+00  0.54065862319E+02  0.10755216235E+03  0.92974997492E+02 0.  0.
        -13    1    3    3    0    0 -0.33018548540E+02 -0.18312950114E+02  0.58405058568E+02  0.69546671781E+02  0.00000000000E+00 0. -1.
         13    1    3    3    0    0  0.33018548540E+02  0.18312950114E+02 -0.43391962493E+01  0.38005490572E+02  0.00000000000E+00 0.  1.
<mgrwt>
<rscale>  0 0.92974997E+02</rscale>
<asrwt>0</asrwt>
<pdfrwt beam="1">  1        1 0.12432156E-01 0.92974997E+02</pdfrwt>
<pdfrwt beam="2">  1       -1 0.41143308E-02 0.92974997E+02</pdfrwt>
<totfact> 0.95627953E+04</totfact>
</mgrwt>
</event>
<event>
 5    1  0.6112843E+000  0.9292237E+02  0.7546771E-02  0.1295925E+00
         -1   -1    0    0    0  501 -0.00000000000E+00  0.00000000000E+00  0.31543692840E+03  0.31543692840E+03  0.00000000000E+00 0.  1.
          1   -1    0    0  501    0  0.00000000000E+00 -0.00000000000E+00 -0.68433381580E+01  0.68433381580E+01  0.00000000000E+00 0. -1.
         23    2    1    2    0    0  0.00000000000E+00  0.00000000000E+00  0.30859359024E+03  0.32228026655E+03  0.92922366921E+02 0.  0.
        -13    1    3    3    0    0  0.42025419010E+02 -0.24234363476E+01  0.86100193795E+02  0.95839721714E+02  0.00000000000E+00 0. -1.
         13    1    3    3    0    0 -0.42025419010E+02  0.24234363476E+01  0.22249339644E+03  0.22644054484E+03  0.00000000000E+00 0.  1.
<mgrwt>
<rscale>  0 0.92922367E+02</rscale>
<asrwt>0</asrwt>
<pdfrwt beam="2">  1        1 0.10528215E-02 0.92922367E+02</pdfrwt>
<pdfrwt beam="1">  1       -1 0.48528747E-01 0.92922367E+02</pdfrwt>
<totfact> 0.56499083E+04</totfact>
</mgrwt>
</event>
<event>
 5    1  0.6112843E+000  0.7953839E+02  0.7546771E-02  0.1330367E+00
          1   -1    0    0  501    0  0.00000000000E+00  0.00000000000E+00  0.90383881454E+02  0.90383881454E+02  0.00000000000E+00 0. -1.
         -1   -1    0    0    0  501 -0.00000000000E+00 -0.00000000000E+00 -0.17498570559E+02  0.17498570559E+02  0.00000000000E+00 0.  1.
         23    2    1    2    0    0  0.00000000000E+00  0.00000000000E+00  0.72885310895E+02  0.10788245201E+03  0.79538386381E+02 0.  0.
        -13    1    3    3    0    0  0.11368384304E+02  0.31619762898E+02  0.65296395557E+02  0.73434793117E+02  0.00000000000E+00 0. -1.
         13    1    3    3    0    0 -0.11368384304E+02 -0.31619762898E+02  0.75889153373E+01  0.34447658895E+02  0.00000000000E+00 0.  1.
<mgrwt>
<rscale>  0 0.79538386E+02</rscale>
<asrwt>0</asrwt>
<pdfrwt beam="1">  1        1 0.13905212E-01 0.79538386E+02</pdfrwt>
<pdfrwt beam="2">  1       -1 0.26920878E-02 0.79538386E+02</pdfrwt>
<totfact> 0.14870377E+05</totfact>
</mgrwt>
</event>
<event>
 5    1  0.6112843E+000  0.9575823E+02  0.7546771E-02  0.1289477E+00
         -1   -1    0    0    0  501 -0.00000000000E+00  0.00000000000E+00  0.84314324014E+01  0.84314324014E+01  0.00000000000E+00 0.  1.
          1   -1    0    0  501    0  0.00000000000E+00 -0.00000000000E+00 -0.27188853757E+03  0.27188853757E+03  0.00000000000E+00 0. -1.
         23    2    1    2    0    0  0.00000000000E+00  0.00000000000E+00 -0.26345710517E+03  0.28031996997E+03  0.95758233594E+02 0.  0.
        -13    1    3    3    0    0  0.16508976114E+02 -0.35580070273E+02 -0.21210728594E+03  0.21570347341E+03  0.00000000000E+00 0. -1.
         13    1    3    3    0    0 -0.16508976114E+02  0.35580070273E+02 -0.51349819232E+02  0.64616496563E+02  0.00000000000E+00 0.  1.
<mgrwt>
<rscale>  0 0.95758234E+02</rscale>
<asrwt>0</asrwt>
<pdfrwt beam="2">  1        1 0.41829013E-01 0.95758234E+02</pdfrwt>
<pdfrwt beam="1">  1       -1 0.12971432E-02 0.95758234E+02</pdfrwt>
<totfact> 0.11025346E+05</totfact>
</mgrwt>
</event>
<event>
 5    1  0.6112843E+000  0.9173528E+02  0.7546771E-02  0.1298703E+00
         -4   -1    0    0    0  501 -0.00000000000E+00  0.00000000000E+00  0.26211674417E+02  0.26211674417E+02  0.00000000000E+00 0.  1.
          4   -1    0    0  501    0  0.00000000000E+00 -0.00000000000E+00 -0.80263491325E+02  0.80263491325E+02  0.00000000000E+00 0. -1.
         23    2    1    2    0    0  0.00000000000E+00  0.00000000000E+00 -0.54051816907E+02  0.10647516574E+03  0.91735282247E+02 0.  0.
        -13    1    3    3    0    0  0.93461979334E+01  0.32430112540E+02  0.90257600095E+01  0.34936055286E+02  0.00000000000E+00 0.  1.
         13    1    3    3    0    0 -0.93461979334E+01 -0.32430112540E+02 -0.63077576917E+02  0.71539110456E+02  0.00000000000E+00 0. -1.
<mgrwt>
<rscale>  0 0.91735282E+02</rscale>
<asrwt>0</asrwt>
<pdfrwt beam="2">  1        4 0.12348229E-01 0.91735282E+02</pdfrwt>
<pdfrwt beam="1">  1       -4 0.40325653E-02 0.91735282E+02</pdfrwt>
<totfact> 0.25634929E+04</totfact>
</mgrwt>
</event>
<event>
 5    1  0.6112843E+000  0.9529951E+02  0.7546771E-02  0.1290503E+00
         -3   -1    0    0    0  501 -0.00000000000E+00  0.00000000000E+00  0.11314971262E+02  0.11314971262E+02  0.00000000000E+00 0.  1.
          3   -1    0    0  501    0  0.00000000000E+00 -0.00000000000E+00 -0.20066328841E+03  0.20066328841E+03  0.00000000000E+00 0. -1.
         23    2    1    2    0    0  0.00000000000E+00  0.00000000000E+00 -0.18934831715E+03  0.21197825967E+03  0.95299513989E+02 0.  0.
        -13    1    3    3    0    0 -0.16390321969E+02  0.31931642654E+02 -0.24962318697E+02  0.43719444319E+02  0.00000000000E+00 0.  1.
         13    1    3    3    0    0  0.16390321969E+02 -0.31931642654E+02 -0.16438599845E+03  0.16825881535E+03  0.00000000000E+00 0. -1.
<mgrwt>
<rscale>  0 0.95299514E+02</rscale>
<asrwt>0</asrwt>
<pdfrwt beam="2">  1        3 0.30871273E-01 0.95299514E+02</pdfrwt>
<pdfrwt beam="1">  1       -3 0.17407649E-02 0.95299514E+02</pdfrwt>
<totfact> 0.24744807E+04</totfact>
</mgrwt>
</event>
<event>
 5    1  0.6112843E+000  0.9123412E+02  0.7546771E-02  0.1299890E+00
         -1   -1    0    0    0  501 -0.00000000000E+00  0.00000000000E+00  0.13879213670E+02  0.13879213670E+02  0.00000000000E+00 0.  1.
          1   -1    0    0  501    0  0.00000000000E+00 -0.00000000000E+00 -0.14993040215E+03  0.14993040215E+03  0.00000000000E+00 0. -1.
         23    2    1    2    0    0  0.00000000000E+00  0.00000000000E+00 -0.13605118848E+03  0.16380961582E+03  0.91234118336E+02 0.  0.
        -13    1    3    3    0    0  0.40090711138E+02 -0.66624106590E+01 -0.10522568230E+03  0.11280113940E+03  0.00000000000E+00 0.  1.
         13    1    3    3    0    0 -0.40090711138E+02  0.66624106590E+01 -0.30825506188E+02  0.51008476424E+02  0.00000000000E+00 0. -1.
<mgrwt>
<rscale>  0 0.91234118E+02</rscale>
<asrwt>0</asrwt>
<pdfrwt beam="2">  1        1 0.23066217E-01 0.91234118E+02</pdfrwt>
<pdfrwt beam="1">  1       -1 0.21352636E-02 0.91234118E+02</pdfrwt>
<totfact> 0.11193316E+05</totfact>
</mgrwt>
</event>
<event>
 5    1  0.6112843E+000  0.9135760E+02  0.7546771E-02  0.1299597E+00
          2   -1    0    0  501    0  0.00000000000E+00  0.00000000000E+00  0.33035638399E+03  0.33035638399E+03  0.00000000000E+00 0.  1.
         -2   -1    0    0    0  501 -0.00000000000E+00 -0.00000000000E+00 -0.63160655731E+01  0.63160655731E+01  0.00000000000E+00 0. -1.
         23    2    1    2    0    0  0.00000000000E+00  0.00000000000E+00  0.32404031842E+03  0.33667244956E+03  0.91357595936E+02 0.  0.
        -13    1    3    3    0    0 -0.20628538673E+01  0.45531509576E+02  0.15085520018E+03  0.15759018101E+03  0.00000000000E+00 0.  1.
         13    1    3    3    0    0  0.20628538673E+01 -0.45531509576E+02  0.17318511824E+03  0.17908226855E+03  0.00000000000E+00 0. -1.
<mgrwt>
<rscale>  0 0.91357596E+02</rscale>
<asrwt>0</asrwt>
<pdfrwt beam="1">  1        2 0.50824046E-01 0.91357596E+02</pdfrwt>
<pdfrwt beam="2">  1       -2 0.97170265E-03 0.91357596E+02</pdfrwt>
<totfact> 0.18522034E+05</totfact>
</mgrwt>
</event>
<event>
 5    1  0.6112843E+000  0.9155648E+02  0.7546771E-02  0.1299126E+00
          2   -1    0    0  501    0  0.00000000000E+00  0.00000000000E+00  0.19386361560E+02  0.19386361560E+02  0.00000000000E+00 0. -1.
         -2   -1    0    0    0  501 -0.00000000000E+00 -0.00000000000E+00 -0.10809906064E+03  0.10809906064E+03  0.00000000000E+00 0.  1.
         23    2    1    2    0    0  0.00000000000E+00  0.00000000000E+00 -0.88712699081E+02  0.12748542220E+03  0.91556484728E+02 0.  0.
        -13    1    3    3    0    0 -0.32316558612E+02 -0.15213136172E+02 -0.44870975304E+01  0.35999076613E+02  0.00000000000E+00 0. -1.
         13    1    3    3    0    0  0.32316558612E+02  0.15213136172E+02 -0.84225601551E+02  0.91486345590E+02  0.00000000000E+00 0.  1.
<mgrwt>
<rscale>  0 0.91556485E+02</rscale>
<asrwt>0</asrwt>
<pdfrwt beam="1">  1        2 0.29825172E-02 0.91556485E+02</pdfrwt>
<pdfrwt beam="2">  1       -2 0.16630625E-01 0.91556485E+02</pdfrwt>
<totfact> 0.77138524E+04</totfact>
</mgrwt>
</event>
<event>
 5    1  0.6112843E+000  0.9352661E+02  0.7546771E-02  0.1294529E+00
          1   -1    0    0  501    0  0.00000000000E+00  0.00000000000E+00  0.98280504038E+01  0.98280504038E+01  0.00000000000E+00 0. -1.
         -1   -1    0    0    0  501 -0.00000000000E+00 -0.00000000000E+00 -0.22250665647E+03  0.22250665647E+03  0.00000000000E+00 0.  1.
         23    2    1    2    0    0  0.00000000000E+00  0.00000000000E+00 -0.21267860606E+03  0.23233470687E+03  0.93526608726E+02 0.  0.
        -13    1    3    3    0    0  0.11307174255E+01 -0.38869447323E+02 -0.17086495257E+03  0.17523397066E+03  0.00000000000E+00 0.  1.
         13    1    3    3    0    0 -0.11307174255E+01  0.38869447323E+02 -0.41813653491E+02  0.57100736207E+02  0.00000000000E+00 0. -1.
<mgrwt>
<rscale>  0 0.93526609E+02</rscale>
<asrwt>0</asrwt>
<pdfrwt beam="1">  1        1 0.15120077E-02 0.93526609E+02</pdfrwt>
<pdfrwt beam="2">  1       -1 0.34231795E-01 0.93526609E+02</pdfrwt>
<totfact> 0.62930417E+04</totfact>
</mgrwt>
</event>
<event>
 5    1  0.6112843E+000  0.9159932E+02  0.7546771E-02  0.1299024E+00
          1   -1    0    0  501    0  0.00000000000E+00  0.00000000000E+00  0.52986390816E+02  0.52986390816E+02  0.00000000000E+00 0. -1.
         -1   -1    0    0    0  501 -0.00000000000E+00 -0.00000000000E+00 -0.39587688119E+02  0.39587688119E+02  0.00000000000E+00 0.  1.
         23    2    1    2    0    0  0.00000000000E+00  0.00000000000E+00  0.13398702697E+02  0.92574078935E+02  0.91599316901E+02 0.  0.
        -13    1    3    3    0    0  0.34408871420E+02 -0.26246298747E+02 -0.84525250378E+01  0.44094033722E+02  0.00000000000E+00 0. -1.
         13    1    3    3    0    0 -0.34408871420E+02  0.26246298747E+02  0.21851227735E+02  0.48480045213E+02  0.00000000000E+00 0.  1.
<mgrwt>
<rscale>  0 0.91599317E+02</rscale>
<asrwt>0</asrwt>
<pdfrwt beam="1">  1        1 0.81517525E-02 0.91599317E+02</pdfrwt>
<pdfrwt beam="2">  1       -1 0.60904135E-02 0.91599317E+02</pdfrwt>
<totfact> 0.93371071E+04</totfact>
</mgrwt>
</event>
<event>
 5    1  0.6112843E+000  0.9068486E+02  0.7546771E-02  0.1301202E+00
         -2   -1    0    0    0  501 -0.00000000000E+00  0.00000000000E+00  0.54067553065E+02  0.54067553065E+02  0.00000000000E+00 0.  1.
          2   -1    0    0  501    0  0.00000000000E+00 -0.00000000000E+00 -0.38025322558E+02  0.38025322558E+02  0.00000000000E+00 0. -1.
         23    2    1    2    0    0  0.00000000000E+00  0.00000000000E+00  0.16042230507E+02  0.92092875623E+02  0.90684864123E+02 0.  0.
        -13    1    3    3    0    0 -0.18142959584E+02  0.22318063840E+02 -0.27575558508E+02  0.39845631920E+02  0.00000000000E+00 0. -1.
         13    1    3    3    0    0  0.18142959584E+02 -0.22318063840E+02  0.43617789015E+02  0.52247243704E+02  0.00000000000E+00 0.  1.
<mgrwt>
<rscale>  0 0.90684864E+02</rscale>
<asrwt>0</asrwt>
<pdfrwt beam="2">  1        2 0.58500496E-02 0.90684864E+02</pdfrwt>
<pdfrwt beam="1">  1       -2 0.83180851E-02 0.90684864E+02</pdfrwt>
<totfact> 0.95637127E+04</totfact>
</mgrwt>
</event>
<event>
 5    1  0.6112843E+000  0.9346351E+02  0.7546771E-02  0.1294675E+00
          3   -1    0    0  501    0  0.00000000000E+00  0.00000000000E+00  0.21730572619E+02  0.21730572619E+02  0.00000000000E+00 0. -1.
         -3   -1    0    0    0  501 -0.00000000000E+00 -0.00000000000E+00 -0.10049698164E+03  0.10049698164E+03  0.00000000000E+00 0.  1.
         23    2    1    2    0    0  0.00000000000E+00  0.00000000000E+00 -0.78766409016E+02  0.12222755425E+03  0.93463510686E+02 0.  0.
        -13    1    3    3    0    0  0.23264929036E+02  0.36778592896E+01  0.13400194820E+02  0.27098870700E+02  0.00000000000E+00 0. -1.
         13    1    3    3    0    0 -0.23264929036E+02 -0.36778592896E+01 -0.92166603837E+02  0.95128683554E+02  0.00000000000E+00 0.  1.
<mgrwt>
<rscale>  0 0.93463511E+02</rscale>
<asrwt>0</asrwt>
<pdfrwt beam="1">  1        3 0.33431650E-02 0.93463511E+02</pdfrwt>
<pdfrwt beam="2">  1       -3 0.15461074E-01 0.93463511E+02</pdfrwt>
<totfact> 0.30937225E+04</totfact>
</mgrwt>
</event>
<event>
 5    1  0.6112843E+000  0.8791482E+02  0.7546771E-02  0.1307981E+00
         -2   -1    0    0    0  501 -0.00000000000E+00  0.00000000000E+00  0.74315188804E+01  0.74315188804E+01  0.00000000000E+00 0.  1.
          2   -1    0    0  501    0  0.00000000000E+00 -0.00000000000E+00 -0.26000796409E+03  0.26000796409E+03  0.00000000000E+00 0. -1.
         23    2    1    2    0    0  0.00000000000E+00  0.00000000000E+00 -0.25257644521E+03  0.26743948297E+03  0.87914824556E+02 0.  0.
        -13    1    3    3    0    0  0.43247829407E+02 -0.73381946281E+01 -0.13490863055E+03  0.14186106741E+03  0.00000000000E+00 0. -1.
         13    1    3    3    0    0 -0.43247829407E+02  0.73381946281E+01 -0.11766781466E+03  0.12557841556E+03  0.00000000000E+00 0.  1.
<mgrwt>
<rscale>  0 0.87914825E+02</rscale>
<asrwt>0</asrwt>
<pdfrwt beam="2">  1        2 0.40001227E-01 0.87914825E+02</pdfrwt>
<pdfrwt beam="1">  1       -2 0.11433106E-02 0.87914825E+02</pdfrwt>
<totfact> 0.18771597E+05</totfact>
</mgrwt>
</event>
<event>
 5    1  0.6112843E+000  0.6814669E+02  0.7546771E-02  0.1366511E+00
         -2   -1    0    0    0  501 -0.00000000000E+00  0.00000000000E+00  0.18800007720E+02  0.18800007720E+02  0.00000000000E+00 0. -1.
          2   -1    0    0  501    0  0.00000000000E+00 -0.00000000000E+00 -0.61754916074E+02  0.61754916074E+02  0.00000000000E+00 0.  1.
         23    2    1    2    0    0  0.00000000000E+00  0.00000000000E+00 -0.42954908354E+02  0.80554923794E+02  0.68146691745E+02 0.  0.
        -13    1    3    3    0    0  0.64867773943E+00 -0.27339805222E+02 -0.45503299586E+02  0.53088944288E+02  0.00000000000E+00 0.  1.
         13    1    3    3    0    0 -0.64867773943E+00  0.27339805222E+02  0.25483912325E+01  0.27465979506E+02  0.00000000000E+00 0. -1.
<mgrwt>
<rscale>  0 0.68146692E+02</rscale>
<asrwt>0</asrwt>
<pdfrwt beam="2">  1        2 0.95007564E-02 0.68146692E+02</pdfrwt>
<pdfrwt beam="1">  1       -2 0.28923089E-02 0.68146692E+02</pdfrwt>
<totfact> 0.23776874E+05</totfact>
</mgrwt>
</event>
<event>
 5    1  0.6112843E+000  0.9166724E+02  0.7546771E-02  0.1298864E+00
         -4   -1    0    0    0  501 -0.00000000000E+00  0.00000000000E+00  0.18777201396E+02  0.18777201396E+02  0.00000000000E+00 0. -1.
          4   -1    0    0  501    0  0.00000000000E+00 -0.00000000000E+00 -0.11187614368E+03  0.11187614368E+03  0.00000000000E+00 0.  1.
         23    2    1    2    0    0  0.00000000000E+00  0.00000000000E+00 -0.93098942285E+02  0.13065334508E+03  0.91667243470E+02 0.  0.
        -13    1    3    3    0    0  0.33959455141E+02 -0.22725600885E+02 -0.16958667397E+02  0.44241314729E+02  0.00000000000E+00 0. -1.
         13    1    3    3    0    0 -0.33959455141E+02  0.22725600885E+02 -0.76140274888E+02  0.86412030349E+02  0.00000000000E+00 0.  1.
<mgrwt>
<rscale>  0 0.91667243E+02</rscale>
<asrwt>0</asrwt>
<pdfrwt beam="2">  1        4 0.17211715E-01 0.91667243E+02</pdfrwt>
<pdfrwt beam="1">  1       -4 0.28888002E-02 0.91667243E+02</pdfrwt>
<totfact> 0.24327004E+04</totfact>
</mgrwt>
</event>
<event>
 5    1  0.6112843E+000  0.9761516E+02  0.7546771E-02  0.1285392E+00
         -3   -1    0    0    0  501 -0.00000000000E+00  0.00000000000E+00  0.40352471192E+02  0.40352471192E+02  0.00000000000E+00 0.  1.
          3   -1    0    0  501    0  0.00000000000E+00 -0.00000000000E+00 -0.59034299326E+02  0.59034299326E+02  0.00000000000E+00 0. -1.
         23    2    1    2    0    0  0.00000000000E+00  0.00000000000E+00 -0.18681828134E+02  0.99386770518E+02  0.97615159948E+02 0.  0.
        -13    1    3    3    0    0 -0.42312145907E+02  0.24288516865E+02 -0.79264123466E+01  0.49427499992E+02  0.00000000000E+00 0.  1.
         13    1    3    3    0    0  0.42312145907E+02 -0.24288516865E+02 -0.10755415787E+02  0.49959270526E+02  0.00000000000E+00 0. -1.
<mgrwt>
<rscale>  0 0.97615160E+02</rscale>
<asrwt>0</asrwt>
<pdfrwt beam="2">  1        3 0.90821999E-02 0.97615160E+02</pdfrwt>
<pdfrwt beam="1">  1       -3 0.62080725E-02 0.97615160E+02</pdfrwt>
<totfact> 0.28804645E+04</totfact>
</mgrwt>
</event>
<event>
 5    1  0.6112843E+000  0.9139267E+02  0.7546771E-02  0.1299514E+00
         -1   -1    0    0    0  501 -0.00000000000E+00  0.00000000000E+00  0.92192601172E+02  0.92192601172E+02  0.00000000000E+00 0.  1.
          1   -1    0    0  501    0  0.00000000000E+00 -0.00000000000E+00 -0.22649918357E+02  0.22649918357E+02  0.00000000000E+00 0. -1.
         23    2    1    2    0    0  0.00000000000E+00  0.00000000000E+00  0.69542682815E+02  0.11484251953E+03  0.91392666875E+02 0.  0.
        -13    1    3    3    0    0  0.81254490781E+01 -0.27228581917E+02  0.79741168727E+02  0.84652658469E+02  0.00000000000E+00 0.  1.
         13    1    3    3    0    0 -0.81254490781E+01  0.27228581917E+02 -0.10198485911E+02  0.30189861060E+02  0.00000000000E+00 0. -1.
<mgrwt>
<rscale>  0 0.91392667E+02</rscale>
<asrwt>0</asrwt>
<pdfrwt beam="2">  1        1 0.34846029E-02 0.91392667E+02</pdfrwt>
<pdfrwt beam="1">  1       -1 0.14183477E-01 0.91392667E+02</pdfrwt>
<totfact> 0.82086080E+04</totfact>
</mgrwt>
</event>
<event>
 5    1  0.6112843E+000  0.9400729E+02  0.7546771E-02  0.1293428E+00
         -2   -1    0    0    0  501 -0.00000000000E+00  0.00000000000E+00  0.10124002755E+02  0.10124002755E+02  0.00000000000E+00 0.  1.
          2   -1    0    0  501    0  0.00000000000E+00 -0.00000000000E+00 -0.21822819567E+03  0.21822819567E+03  0.00000000000E+00 0. -1.
         23    2    1    2    0    0  0.00000000000E+00  0.00000000000E+00 -0.20810419292E+03  0.22835219843E+03  0.94007294488E+02 0.  0.
        -13    1    3    3    0    0  0.15221225633E+02  0.31633321772E+02 -0.28126410516E+02  0.44982749189E+02  0.00000000000E+00 0.  1.
         13    1    3    3    0    0 -0.15221225633E+02 -0.31633321772E+02 -0.17997778240E+03  0.18336944924E+03  0.00000000000E+00 0. -1.
<mgrwt>
<rscale>  0 0.94007294E+02</rscale>
<asrwt>0</asrwt>
<pdfrwt beam="2">  1        2 0.33573568E-01 0.94007294E+02</pdfrwt>
<pdfrwt beam="1">  1       -2 0.15575389E-02 0.94007294E+02</pdfrwt>
<totfact> 0.14704672E+05</totfact>
</mgrwt>
</event>
<event>
 5    1  0.6112843E+000  0.9285900E+02  0.7546771E-02  0.1296072E+00
         -3   -1    0    0    0  501 -0.00000000000E+00  0.00000000000E+00  0.49828753921E+02  0.49828753921E+02  0.00000000000E+00 0.  1.
          3   -1    0    0  501    0  0.00000000000E+00 -0.00000000000E+00 -0.43262140933E+02  0.43262140933E+02  0.00000000000E+00 0. -1.
         23    2    1    2    0    0  0.00000000000E+00  0.00000000000E+00  0.65666129880E+01  0.93090894854E+02  0.92859002249E+02 0.  0.
        -13    1    3    3    0    0 -0.44707367837E+02  0.66181561405E+01  0.13947061869E+02  0.47297666585E+02  0.00000000000E+00 0.  1.
         13    1    3    3    0    0  0.44707367837E+02 -0.66181561405E+01 -0.73804488814E+01  0.45793228269E+02  0.00000000000E+00 0. -1.
<mgrwt>
<rscale>  0 0.92859002E+02</rscale>
<asrwt>0</asrwt>
<pdfrwt beam="2">  1        3 0.66557140E-02 0.92859002E+02</pdfrwt>
<pdfrwt beam="1">  1       -3 0.76659621E-02 0.92859002E+02</pdfrwt>
<totfact> 0.33477915E+04</totfact>
</mgrwt>
</event>
<event>
 5    1  0.6112843E+000  0.9077932E+02  0.7546771E-02  0.1300975E+00
         -2   -1    0    0    0  501 -0.00000000000E+00  0.00000000000E+00  0.90566161410E+01  0.90566161410E+01  0.00000000000E+00 0.  1.
          2   -1    0    0  501    0  0.00000000000E+00 -0.00000000000E+00 -0.22748244386E+03  0.22748244386E+03  0.00000000000E+00 0. -1.
         23    2    1    2    0    0  0.00000000000E+00  0.00000000000E+00 -0.21842582772E+03  0.23653906000E+03  0.90779318633E+02 0.  0.
        -13    1    3    3    0    0  0.41358320981E+02 -0.54928429732E+00 -0.15791895521E+03  0.16324585399E+03  0.00000000000E+00 0. -1.
         13    1    3    3    0    0 -0.41358320981E+02  0.54928429732E+00 -0.60506872503E+02  0.73293206014E+02  0.00000000000E+00 0.  1.
<mgrwt>
<rscale>  0 0.90779319E+02</rscale>
<asrwt>0</asrwt>
<pdfrwt beam="2">  1        2 0.34997300E-01 0.90779319E+02</pdfrwt>
<pdfrwt beam="1">  1       -2 0.13933255E-02 0.90779319E+02</pdfrwt>
<totfact> 0.16402870E+05</totfact>
</mgrwt>
</event>
<event>
 5    1  0.6112843E+000  0.9012179E+02  0.7546771E-02  0.1302557E+00
         -4   -1    0    0    0  501 -0.00000000000E+00  0.00000000000E+00  0.18984958604E+02  0.18984958604E+02  0.00000000000E+00 0.  1.
          4   -1    0    0  501    0  0.00000000000E+00 -0.00000000000E+00 -0.10695227067E+03  0.10695227067E+03  0.00000000000E+00 0. -1.
         23    2    1    2    0    0  0.00000000000E+00  0.00000000000E+00 -0.87967312064E+02  0.12593722927E+03  0.90121793838E+02 0.  0.
        -13    1    3    3    0    0  0.27675408203E+02 -0.26542457005E+01 -0.93537829419E+02  0.97582266688E+02  0.00000000000E+00 0. -1.
         13    1    3    3    0    0 -0.27675408203E+02  0.26542457005E+01  0.55705173557E+01  0.28354962583E+02  0.00000000000E+00 0.  1.
<mgrwt>
<rscale>  0 0.90121794E+02</rscale>
<asrwt>0</asrwt>
<pdfrwt beam="2">  1        4 0.16454195E-01 0.90121794E+02</pdfrwt>
<pdfrwt beam="1">  1       -4 0.29207629E-02 0.90121794E+02</pdfrwt>
<totfact> 0.25734625E+04</totfact>
</mgrwt>
</event>
<event>
 5    1  0.6112843E+000  0.9068082E+02  0.7546771E-02  0.1301211E+00
          2   -1    0    0  501    0  0.00000000000E+00  0.00000000000E+00  0.19821167925E+02  0.19821167925E+02  0.00000000000E+00 0. -1.
         -2   -1    0    0    0  501 -0.00000000000E+00 -0.00000000000E+00 -0.10371501794E+03  0.10371501794E+03  0.00000000000E+00 0.  1.
         23    2    1    2    0    0  0.00000000000E+00  0.00000000000E+00 -0.83893850012E+02  0.12353618586E+03  0.90680820174E+02 0.  0.
        -13    1    3    3    0    0 -0.21026953715E+02 -0.17537151545E+02  0.72866867601E+01  0.28333377327E+02  0.00000000000E+00 0. -1.
         13    1    3    3    0    0  0.21026953715E+02  0.17537151545E+02 -0.91180536772E+02  0.95202808534E+02  0.00000000000E+00 0.  1.
<mgrwt>
<rscale>  0 0.90680820E+02</rscale>
<asrwt>0</asrwt>
<pdfrwt beam="1">  1        2 0.30494105E-02 0.90680820E+02</pdfrwt>
<pdfrwt beam="2">  1       -2 0.15956156E-01 0.90680820E+02</pdfrwt>
<totfact> 0.80016405E+04</totfact>
</mgrwt>
</event>
<event>
 5    1  0.6112843E+000  0.8966494E+02  0.7546771E-02  0.1303665E+00
         -3   -1    0    0    0  501 -0.00000000000E+00  0.00000000000E+00  0.22658948944E+03  0.22658948944E+03  0.00000000000E+00 0.  1.
          3   -1    0    0  501    0  0.00000000000E+00 -0.00000000000E+00 -0.88704475081E+01  0.88704475081E+01  0.00000000000E+00 0. -1.
         23    2    1    2    0    0  0.00000000000E+00  0.00000000000E+00  0.21771904193E+03  0.23545993695E+03  0.89664935665E+02 0.  0.
        -13    1    3    3    0    0  0.18140696986E+02 -0.34239450072E+02  0.16807710474E+03  0.17248576163E+03  0.00000000000E+00 0.  1.
         13    1    3    3    0    0 -0.18140696986E+02  0.34239450072E+02  0.49641937188E+02  0.62974175312E+02  0.00000000000E+00 0. -1.
<mgrwt>
<rscale>  0 0.89664936E+02</rscale>
<asrwt>0</asrwt>
<pdfrwt beam="2">  1        3 0.13646844E-02 0.89664936E+02</pdfrwt>
<pdfrwt beam="1">  1       -3 0.34859917E-01 0.89664936E+02</pdfrwt>
<totfact> 0.27989438E+04</totfact>
</mgrwt>
</event>
<event>
 5    1  0.6112843E+000  0.9172051E+02  0.7546771E-02  0.1298738E+00
          1   -1    0    0  501    0  0.00000000000E+00  0.00000000000E+00  0.50213523293E+02  0.50213523293E+02  0.00000000000E+00 0. -1.
         -1   -1    0    0    0  501 -0.00000000000E+00 -0.00000000000E+00 -0.41884396102E+02  0.41884396102E+02  0.00000000000E+00 0.  1.
         23    2    1    2    0    0  0.00000000000E+00  0.00000000000E+00  0.83291271911E+01  0.92097919396E+02  0.91720512413E+02 0.  0.
        -13    1    3    3    0    0  0.34228248224E+02  0.28502293528E+02  0.15127794803E+02  0.47040449492E+02  0.00000000000E+00 0. -1.
         13    1    3    3    0    0 -0.34228248224E+02 -0.28502293528E+02 -0.67986676115E+01  0.45057469904E+02  0.00000000000E+00 0.  1.
<mgrwt>
<rscale>  0 0.91720512E+02</rscale>
<asrwt>0</asrwt>
<pdfrwt beam="1">  1        1 0.77251575E-02 0.91720512E+02</pdfrwt>
<pdfrwt beam="2">  1       -1 0.64437532E-02 0.91720512E+02</pdfrwt>
<totfact> 0.92275633E+04</totfact>
</mgrwt>
</event>
<event>
 5    1  0.6112843E+000  0.7526001E+02  0.7546771E-02  0.1343068E+00
         -2   -1    0    0    0  501 -0.00000000000E+00  0.00000000000E+00  0.15332508310E+02  0.15332508310E+02  0.00000000000E+00 0.  1.
          2   -1    0    0  501    0  0.00000000000E+00 -0.00000000000E+00 -0.92353919994E+02  0.92353919994E+02  0.00000000000E+00 0. -1.
         23    2    1    2    0    0  0.00000000000E+00  0.00000000000E+00 -0.77021411684E+02  0.10768642830E+03  0.75260009188E+02 0.  0.
        -13    1    3    3    0    0 -0.14418988309E+02 -0.29008419744E+01  0.11049391996E+02  0.18395955302E+02  0.00000000000E+00 0.  1.
         13    1    3    3    0    0  0.14418988309E+02  0.29008419744E+01 -0.88070803680E+02  0.89290473001E+02  0.00000000000E+00 0. -1.
<mgrwt>
<rscale>  0 0.75260009E+02</rscale>
<asrwt>0</asrwt>
<pdfrwt beam="2">  1        2 0.14208295E-01 0.75260009E+02</pdfrwt>
<pdfrwt beam="1">  1       -2 0.23588475E-02 0.75260009E+02</pdfrwt>
<totfact> 0.20191014E+05</totfact>
</mgrwt>
</event>
<event>
 5    1  0.6112843E+000  0.9058619E+02  0.7546771E-02  0.1301438E+00
         -2   -1    0    0    0  501 -0.00000000000E+00  0.00000000000E+00  0.73912010529E+01  0.73912010529E+01  0.00000000000E+00 0.  1.
          2   -1    0    0  501    0  0.00000000000E+00 -0.00000000000E+00 -0.27755498231E+03  0.27755498231E+03  0.00000000000E+00 0. -1.
         23    2    1    2    0    0  0.00000000000E+00  0.00000000000E+00 -0.27016378125E+03  0.28494618336E+03  0.90586194919E+02 0.  0.
        -13    1    3    3    0    0 -0.68064114282E+01  0.40860296922E+02 -0.77459044534E+02  0.87839596318E+02  0.00000000000E+00 0.  1.
         13    1    3    3    0    0  0.68064114282E+01 -0.40860296922E+02 -0.19270473672E+03  0.19710658704E+03  0.00000000000E+00 0. -1.
<mgrwt>
<rscale>  0 0.90586195E+02</rscale>
<asrwt>0</asrwt>
<pdfrwt beam="2">  1        2 0.42700759E-01 0.90586195E+02</pdfrwt>
<pdfrwt beam="1">  1       -2 0.11371081E-02 0.90586195E+02</pdfrwt>
<totfact> 0.17758005E+05</totfact>
</mgrwt>
</event>
<event>
 5    1  0.6112843E+000  0.8771494E+02  0.7546771E-02  0.1308482E+00
         -2   -1    0    0    0  501 -0.00000000000E+00  0.00000000000E+00  0.96321374704E+02  0.96321374704E+02  0.00000000000E+00 0.  1.
          2   -1    0    0  501    0  0.00000000000E+00 -0.00000000000E+00 -0.19969375660E+02  0.19969375660E+02  0.00000000000E+00 0. -1.
         23    2    1    2    0    0  0.00000000000E+00  0.00000000000E+00  0.76351999044E+02  0.11629075036E+03  0.87714940929E+02 0.  0.
        -13    1    3    3    0    0 -0.32118731387E+01 -0.33924591849E+02  0.74780113688E+02  0.82178217700E+02  0.00000000000E+00 0.  1.
         13    1    3    3    0    0  0.32118731387E+01  0.33924591849E+02  0.15718853565E+01  0.34112532664E+02  0.00000000000E+00 0. -1.
<mgrwt>
<rscale>  0 0.87714941E+02</rscale>
<asrwt>0</asrwt>
<pdfrwt beam="2">  1        2 0.30722117E-02 0.87714941E+02</pdfrwt>
<pdfrwt beam="1">  1       -2 0.14818673E-01 0.87714941E+02</pdfrwt>
<totfact> 0.88835811E+04</totfact>
</mgrwt>
</event>
<event>
 5    1  0.6112843E+000  0.9197013E+02  0.7546771E-02  0.1298150E+00
          2   -1    0    0  501    0  0.00000000000E+00  0.00000000000E+00  0.22443118411E+02  0.22443118411E+02  0.00000000000E+00 0.  1.
         -2   -1    0    0    0  501 -0.00000000000E+00 -0.00000000000E+00 -0.94221577731E+02  0.94221577731E+02  0.00000000000E+00 0. -1.
         23    2    1    2    0    0  0.00000000000E+00  0.00000000000E+00 -0.71778459320E+02  0.11666469614E+03  0.91970126148E+02 0.  0.
        -13    1    3    3    0    0 -0.10655970865E+02  0.44353427832E+02 -0.28508990980E+02  0.53791624276E+02  0.00000000000E+00 0.  1.
         13    1    3    3    0    0  0.10655970865E+02 -0.44353427832E+02 -0.43269468340E+02  0.62873071866E+02  0.00000000000E+00 0. -1.
<mgrwt>
<rscale>  0 0.91970126E+02</rscale>
<asrwt>0</asrwt>
<pdfrwt beam="1">  1        2 0.34527875E-02 0.91970126E+02</pdfrwt>
<pdfrwt beam="2">  1       -2 0.14495627E-01 0.91970126E+02</pdfrwt>
<totfact> 0.79491654E+04</totfact>
</mgrwt>
</event>
<event>
 5    1  0.6112843E+000  0.9094259E+02  0.7546771E-02  0.1300585E+00
          1   -1    0    0  501    0  0.00000000000E+00  0.00000000000E+00  0.15325878113E+03  0.15325878113E+03  0.00000000000E+00 0. -1.
         -1   -1    0    0    0  501 -0.00000000000E+00 -0.00000000000E+00 -0.13491159491E+02  0.13491159491E+02  0.00000000000E+00 0.  1.
         23    2    1    2    0    0  0.00000000000E+00  0.00000000000E+00  0.13976762164E+03  0.16674994062E+03  0.90942589795E+02 0.  0.
        -13    1    3    3    0    0  0.38556440178E+02  0.22270283982E+01  0.25874989098E+02  0.46487350920E+02  0.00000000000E+00 0.  1.
         13    1    3    3    0    0 -0.38556440178E+02 -0.22270283982E+01  0.11389263254E+03  0.12026258970E+03  0.00000000000E+00 0. -1.
<mgrwt>
<rscale>  0 0.90942590E+02</rscale>
<asrwt>0</asrwt>
<pdfrwt beam="1">  1        1 0.23578273E-01 0.90942590E+02</pdfrwt>
<pdfrwt beam="2">  1       -1 0.20755631E-02 0.90942590E+02</pdfrwt>
<totfact> 0.11336136E+05</totfact>
</mgrwt>
</event>
<event>
 5    1  0.6112843E+000  0.8490096E+02  0.7546771E-02  0.1315692E+00
         -1   -1    0    0    0  501 -0.00000000000E+00  0.00000000000E+00  0.31537023620E+02  0.31537023620E+02  0.00000000000E+00 0.  1.
          1   -1    0    0  501    0  0.00000000000E+00 -0.00000000000E+00 -0.57140560082E+02  0.57140560082E+02  0.00000000000E+00 0. -1.
         23    2    1    2    0    0  0.00000000000E+00  0.00000000000E+00 -0.25603536462E+02  0.88677583703E+02  0.84900958605E+02 0.  0.
        -13    1    3    3    0    0  0.13572419610E+02  0.10239672836E+02 -0.53429080985E+02  0.56068959048E+02  0.00000000000E+00 0. -1.
         13    1    3    3    0    0 -0.13572419610E+02 -0.10239672836E+02  0.27825544523E+02  0.32608624654E+02  0.00000000000E+00 0.  1.
<mgrwt>
<rscale>  0 0.84900959E+02</rscale>
<asrwt>0</asrwt>
<pdfrwt beam="2">  1        1 0.87908554E-02 0.84900959E+02</pdfrwt>
<pdfrwt beam="1">  1       -1 0.48518498E-02 0.84900959E+02</pdfrwt>
<totfact> 0.11649148E+05</totfact>
</mgrwt>
</event>
<event>
 5    1  0.6112843E+000  0.9265688E+02  0.7546771E-02  0.1296542E+00
         -2   -1    0    0    0  501 -0.00000000000E+00  0.00000000000E+00  0.15722299243E+02  0.15722299243E+02  0.00000000000E+00 0.  1.
          2   -1    0    0  501    0  0.00000000000E+00 -0.00000000000E+00 -0.13651466834E+03  0.13651466834E+03  0.00000000000E+00 0. -1.
         23    2    1    2    0    0  0.00000000000E+00  0.00000000000E+00 -0.12079236910E+03  0.15223696759E+03  0.92656882460E+02 0.  0.
        -13    1    3    3    0    0  0.22976716654E+02 -0.24102481398E+02 -0.74750384518E+01  0.34128218787E+02  0.00000000000E+00 0.  1.
         13    1    3    3    0    0 -0.22976716654E+02  0.24102481398E+02 -0.11331733065E+03  0.11810874880E+03  0.00000000000E+00 0. -1.
<mgrwt>
<rscale>  0 0.92656882E+02</rscale>
<asrwt>0</asrwt>
<pdfrwt beam="2">  1        2 0.21002257E-01 0.92656882E+02</pdfrwt>
<pdfrwt beam="1">  1       -2 0.24188153E-02 0.92656882E+02</pdfrwt>
<totfact> 0.12963027E+05</totfact>
</mgrwt>
</event>
<event>
 5    1  0.6112843E+000  0.9234390E+02  0.7546771E-02  0.1297273E+00
          1   -1    0    0  501    0  0.00000000000E+00  0.00000000000E+00  0.31436906635E+03  0.31436906635E+03  0.00000000000E+00 0. -1.
         -1   -1    0    0    0  501 -0.00000000000E+00 -0.00000000000E+00 -0.67813572334E+01  0.67813572334E+01  0.00000000000E+00 0.  1.
         23    2    1    2    0    0  0.00000000000E+00  0.00000000000E+00  0.30758770912E+03  0.32115042358E+03  0.92343899463E+02 0.  0.
        -13    1    3    3    0    0  0.44998345958E+02 -0.46150682262E+01  0.12159888376E+03  0.12973988795E+03  0.00000000000E+00 0.  1.
         13    1    3    3    0    0 -0.44998345958E+02  0.46150682262E+01  0.18598882536E+03  0.19141053564E+03  0.00000000000E+00 0. -1.
<mgrwt>
<rscale>  0 0.92343899E+02</rscale>
<asrwt>0</asrwt>
<pdfrwt beam="1">  1        1 0.48364460E-01 0.92343899E+02</pdfrwt>
<pdfrwt beam="2">  1       -1 0.10432860E-02 0.92343899E+02</pdfrwt>
<totfact> 0.12495133E+05</totfact>
</mgrwt>
</event>
<event>
 5    1  0.6112843E+000  0.9243018E+02  0.7546771E-02  0.1297071E+00
          1   -1    0    0  501    0  0.00000000000E+00  0.00000000000E+00  0.15742614388E+03  0.15742614388E+03  0.00000000000E+00 0. -1.
         -1   -1    0    0    0  501 -0.00000000000E+00 -0.00000000000E+00 -0.13567215734E+02  0.13567215734E+02  0.00000000000E+00 0.  1.
         23    2    1    2    0    0  0.00000000000E+00  0.00000000000E+00  0.14385892815E+03  0.17099335962E+03  0.92430178109E+02 0.  0.
        -13    1    3    3    0    0  0.39919047543E+02  0.22746379814E+02  0.62696947285E+02  0.77729243854E+02  0.00000000000E+00 0.  1.
         13    1    3    3    0    0 -0.39919047543E+02 -0.22746379814E+02  0.81161980864E+02  0.93264115764E+02  0.00000000000E+00 0. -1.
<mgrwt>
<rscale>  0 0.92430178E+02</rscale>
<asrwt>0</asrwt>
<pdfrwt beam="1">  1        1 0.24219405E-01 0.92430178E+02</pdfrwt>
<pdfrwt beam="2">  1       -1 0.20872641E-02 0.92430178E+02</pdfrwt>
<totfact> 0.10904487E+05</totfact>
</mgrwt>
</event>
<event>
 5    1  0.6112843E+000  0.9166105E+02  0.7546771E-02  0.1298878E+00
         -2   -1    0    0    0  501 -0.00000000000E+00  0.00000000000E+00  0.17112477593E+03  0.17112477593E+03  0.00000000000E+00 0.  1.
          2   -1    0    0  501    0  0.00000000000E+00 -0.00000000000E+00 -0.12274300715E+02  0.12274300715E+02  0.00000000000E+00 0. -1.
         23    2    1    2    0    0  0.00000000000E+00  0.00000000000E+00  0.15885047521E+03  0.18339907664E+03  0.91661048643E+02 0.  0.
        -13    1    3    3    0    0  0.45436407556E+02 -0.39675552807E+01  0.70426276568E+02  0.83905119377E+02  0.00000000000E+00 0.  1.
         13    1    3    3    0    0 -0.45436407556E+02  0.39675552807E+01  0.88424198646E+02  0.99493957267E+02  0.00000000000E+00 0. -1.
<mgrwt>
<rscale>  0 0.91661049E+02</rscale>
<asrwt>0</asrwt>
<pdfrwt beam="2">  1        2 0.18883541E-02 0.91661049E+02</pdfrwt>
<pdfrwt beam="1">  1       -2 0.26326887E-01 0.91661049E+02</pdfrwt>
<totfact> 0.65571754E+04</totfact>
</mgrwt>
</event>
<event>
 5    1  0.6112843E+000  0.9084375E+02  0.7546771E-02  0.1300821E+00
         -3   -1    0    0    0  501 -0.00000000000E+00  0.00000000000E+00  0.14428581039E+03  0.14428581039E+03  0.00000000000E+00 0.  1.
          3   -1    0    0  501    0  0.00000000000E+00 -0.00000000000E+00 -0.14299025702E+02  0.14299025702E+02  0.00000000000E+00 0. -1.
         23    2    1    2    0    0  0.00000000000E+00  0.00000000000E+00  0.12998678469E+03  0.15858483609E+03  0.90843745215E+02 0.  0.
        -13    1    3    3    0    0  0.27357981861E+02  0.43966807275E+01  0.21642273625E+01  0.27793413842E+02  0.00000000000E+00 0. -1.
         13    1    3    3    0    0 -0.27357981861E+02 -0.43966807275E+01  0.12782255732E+03  0.13079142225E+03  0.00000000000E+00 0.  1.
<mgrwt>
<rscale>  0 0.90843745E+02</rscale>
<asrwt>0</asrwt>
<pdfrwt beam="2">  1        3 0.21998502E-02 0.90843745E+02</pdfrwt>
<pdfrwt beam="1">  1       -3 0.22197816E-01 0.90843745E+02</pdfrwt>
<totfact> 0.31097101E+04</totfact>
</mgrwt>
</event>
<event>
 5    1  0.6112843E+000  0.9199425E+02  0.7546771E-02  0.1298093E+00
          1   -1    0    0  501    0  0.00000000000E+00  0.00000000000E+00  0.33663945885E+02  0.33663945885E+02  0.00000000000E+00 0. -1.
         -1   -1    0    0    0  501 -0.00000000000E+00 -0.00000000000E+00 -0.62848712154E+02  0.62848712154E+02  0.00000000000E+00 0.  1.
         23    2    1    2    0    0  0.00000000000E+00  0.00000000000E+00 -0.29184766270E+02  0.96512658039E+02  0.91994252970E+02 0.  0.
        -13    1    3    3    0    0 -0.23584574436E+02 -0.17911979814E+02 -0.51515675590E+02  0.59421679577E+02  0.00000000000E+00 0. -1.
         13    1    3    3    0    0  0.23584574436E+02  0.17911979814E+02  0.22330909320E+02  0.37090978462E+02  0.00000000000E+00 0.  1.
<mgrwt>
<rscale>  0 0.91994253E+02</rscale>
<asrwt>0</asrwt>
<pdfrwt beam="1">  1        1 0.51790686E-02 0.91994253E+02</pdfrwt>
<pdfrwt beam="2">  1       -1 0.96690326E-02 0.91994253E+02</pdfrwt>
<totfact> 0.86063670E+04</totfact>
</mgrwt>
</event>
<event>
 5    1  0.6112843E+000  0.9263121E+02  0.7546771E-02  0.1296602E+00
          1   -1    0    0  501    0  0.00000000000E+00  0.00000000000E+00  0.36694542231E+03  0.36694542231E+03  0.00000000000E+00 0. -1.
         -1   -1    0    0    0  501 -0.00000000000E+00 -0.00000000000E+00 -0.58459251292E+01  0.58459251292E+01  0.00000000000E+00 0.  1.
         23    2    1    2    0    0  0.00000000000E+00  0.00000000000E+00  0.36109949718E+03  0.37279134744E+03  0.92631214292E+02 0.  0.
        -13    1    3    3    0    0 -0.26892356943E+02 -0.35080269025E+02  0.23621431240E+03  0.24031443053E+03  0.00000000000E+00 0. -1.
         13    1    3    3    0    0  0.26892356943E+02  0.35080269025E+02  0.12488518478E+03  0.13247691691E+03  0.00000000000E+00 0.  1.
<mgrwt>
<rscale>  0 0.92631214E+02</rscale>
<asrwt>0</asrwt>
<pdfrwt beam="1">  1        1 0.56453124E-01 0.92631214E+02</pdfrwt>
<pdfrwt beam="2">  1       -1 0.89937339E-03 0.92631214E+02</pdfrwt>
<totfact> 0.12745222E+05</totfact>
</mgrwt>
</event>
<event>
 5    1  0.6112843E+000  0.9047137E+02  0.7546771E-02  0.1301714E+00
          2   -1    0    0  501    0  0.00000000000E+00  0.00000000000E+00  0.93101815007E+02  0.93101815007E+02  0.00000000000E+00 0. -1.
         -2   -1    0    0    0  501 -0.00000000000E+00 -0.00000000000E+00 -0.21978810856E+02  0.21978810856E+02  0.00000000000E+00 0.  1.
         23    2    1    2    0    0  0.00000000000E+00  0.00000000000E+00  0.71123004151E+02  0.11508062586E+03  0.90471369668E+02 0.  0.
        -13    1    3    3    0    0 -0.19166502296E+02 -0.21104191657E+02 -0.91135543732E+01  0.29929894571E+02  0.00000000000E+00 0.  1.
         13    1    3    3    0    0  0.19166502296E+02  0.21104191657E+02  0.80236558524E+02  0.85150731291E+02  0.00000000000E+00 0. -1.
<mgrwt>
<rscale>  0 0.90471370E+02</rscale>
<asrwt>0</asrwt>
<pdfrwt beam="1">  1        2 0.14323356E-01 0.90471370E+02</pdfrwt>
<pdfrwt beam="2">  1       -2 0.33813556E-02 0.90471370E+02</pdfrwt>
<totfact> 0.12266046E+05</totfact>
</mgrwt>
</event>
<event>
 5    1  0.6112843E+000  0.9418524E+02  0.7546771E-02  0.1293022E+00
         -1   -1    0    0    0  501 -0.00000000000E+00  0.00000000000E+00  0.22557346575E+02  0.22557346575E+02  0.00000000000E+00 0.  1.
          1   -1    0    0  501    0  0.00000000000E+00 -0.00000000000E+00 -0.98314525160E+02  0.98314525160E+02  0.00000000000E+00 0. -1.
         23    2    1    2    0    0  0.00000000000E+00  0.00000000000E+00 -0.75757178585E+02  0.12087187173E+03  0.94185239127E+02 0.  0.
        -13    1    3    3    0    0 -0.24885746198E+01  0.41982113263E+02 -0.10684334022E+02  0.43391771469E+02  0.00000000000E+00 0.  1.
         13    1    3    3    0    0  0.24885746198E+01 -0.41982113263E+02 -0.65072844563E+02  0.77480100266E+02  0.00000000000E+00 0. -1.
<mgrwt>
<rscale>  0 0.94185239E+02</rscale>
<asrwt>0</asrwt>
<pdfrwt beam="2">  1        1 0.15125311E-01 0.94185239E+02</pdfrwt>
<pdfrwt beam="1">  1       -1 0.34703610E-02 0.94185239E+02</pdfrwt>
<totfact> 0.95306896E+04</totfact>
</mgrwt>
</event>
<event>
 5    1  0.6112843E+000  0.1014971E+03  0.7546771E-02  0.1277179E+00
         -2   -1    0    0    0  501 -0.00000000000E+00  0.00000000000E+00  0.25536823431E+02  0.25536823431E+02  0.00000000000E+00 0.  1.
          2   -1    0    0  501    0  0.00000000000E+00 -0.00000000000E+00 -0.10085113546E+03  0.10085113546E+03  0.00000000000E+00 0. -1.
         23    2    1    2    0    0  0.00000000000E+00  0.00000000000E+00 -0.75314312026E+02  0.12638795889E+03  0.10149714556E+03 0.  0.
        -13    1    3    3    0    0 -0.25899105987E+02  0.36527269730E+02 -0.79167841801E+01  0.45471756032E+02  0.00000000000E+00 0.  1.
         13    1    3    3    0    0  0.25899105987E+02 -0.36527269730E+02 -0.67397527846E+02  0.80916202856E+02  0.00000000000E+00 0. -1.
<mgrwt>
<rscale>  0 0.10149715E+03</rscale>
<asrwt>0</asrwt>
<pdfrwt beam="2">  1        2 0.15515560E-01 0.10149715E+03</pdfrwt>
<pdfrwt beam="1">  1       -2 0.39287420E-02 0.10149715E+03</pdfrwt>
<totfact> 0.91329114E+04</totfact>
</mgrwt>
</event>
<event>
 5    1  0.6112843E+000  0.9022171E+02  0.7546771E-02  0.1302316E+00
          1   -1    0    0  501    0  0.00000000000E+00  0.00000000000E+00  0.82788801093E+02  0.82788801093E+02  0.00000000000E+00 0. -1.
         -1   -1    0    0    0  501 -0.00000000000E+00 -0.00000000000E+00 -0.24580491440E+02  0.24580491440E+02  0.00000000000E+00 0.  1.
         23    2    1    2    0    0  0.00000000000E+00  0.00000000000E+00  0.58208309653E+02  0.10736929253E+03  0.90221713941E+02 0.  0.
        -13    1    3    3    0    0  0.12551044309E+02 -0.20185613902E+02  0.74731787449E+02  0.78420837647E+02  0.00000000000E+00 0. -1.
         13    1    3    3    0    0 -0.12551044309E+02  0.20185613902E+02 -0.16523477796E+02  0.28948454887E+02  0.00000000000E+00 0.  1.
<mgrwt>
<rscale>  0 0.90221714E+02</rscale>
<asrwt>0</asrwt>
<pdfrwt beam="1">  1        1 0.12736738E-01 0.90221714E+02</pdfrwt>
<pdfrwt beam="2">  1       -1 0.37816141E-02 0.90221714E+02</pdfrwt>
<totfact> 0.10425541E+05</totfact>
</mgrwt>
</event>
<event>
 5    1  0.6112843E+000  0.9076734E+02  0.7546771E-02  0.1301004E+00
         -4   -1    0    0    0  501 -0.00000000000E+00  0.00000000000E+00  0.51094043788E+02  0.51094043788E+02  0.00000000000E+00 0. -1.
          4   -1    0    0  501    0  0.00000000000E+00 -0.00000000000E+00 -0.40311501973E+02  0.40311501973E+02  0.00000000000E+00 0.  1.
         23    2    1    2    0    0  0.00000000000E+00  0.00000000000E+00  0.10782541815E+02  0.91405545761E+02  0.90767343180E+02 0.  0.
        -13    1    3    3    0    0  0.31496960587E+02  0.58541932298E+01 -0.26980475381E+02  0.41884079987E+02  0.00000000000E+00 0.  1.
         13    1    3    3    0    0 -0.31496960587E+02 -0.58541932298E+01  0.37763017196E+02  0.49521465774E+02  0.00000000000E+00 0. -1.
<mgrwt>
<rscale>  0 0.90767343E+02</rscale>
<asrwt>0</asrwt>
<pdfrwt beam="2">  1        4 0.62017695E-02 0.90767343E+02</pdfrwt>
<pdfrwt beam="1">  1       -4 0.78606221E-02 0.90767343E+02</pdfrwt>
<totfact> 0.27333454E+04</totfact>
</mgrwt>
</event>
<event>
 5    1  0.6112843E+000  0.9769520E+02  0.7546771E-02  0.1285219E+00
          1   -1    0    0  501    0  0.00000000000E+00  0.00000000000E+00  0.35274037111E+03  0.35274037111E+03  0.00000000000E+00 0. -1.
         -1   -1    0    0    0  501 -0.00000000000E+00 -0.00000000000E+00 -0.67644306649E+01  0.67644306649E+01  0.00000000000E+00 0.  1.
         23    2    1    2    0    0  0.00000000000E+00  0.00000000000E+00  0.34597594045E+03  0.35950480178E+03  0.97695195033E+02 0.  0.
        -13    1    3    3    0    0  0.43198431238E+02  0.21989360708E+02  0.15077082652E+03  0.15837133129E+03  0.00000000000E+00 0.  1.
         13    1    3    3    0    0 -0.43198431238E+02 -0.21989360708E+02  0.19520511393E+03  0.20113347049E+03  0.00000000000E+00 0. -1.
<mgrwt>
<rscale>  0 0.97695195E+02</rscale>
<asrwt>0</asrwt>
<pdfrwt beam="1">  1        1 0.54267735E-01 0.97695195E+02</pdfrwt>
<pdfrwt beam="2">  1       -1 0.10406819E-02 0.97695195E+02</pdfrwt>
<totfact> 0.10979189E+05</totfact>
</mgrwt>
</event>
<event>
 5    1  0.6112843E+000  0.9199160E+02  0.7546771E-02  0.1298099E+00
         -1   -1    0    0    0  501 -0.00000000000E+00  0.00000000000E+00  0.60692532203E+02  0.60692532203E+02  0.00000000000E+00 0.  1.
          1   -1    0    0  501    0  0.00000000000E+00 -0.00000000000E+00 -0.34857890285E+02  0.34857890285E+02  0.00000000000E+00 0. -1.
         23    2    1    2    0    0  0.00000000000E+00  0.00000000000E+00  0.25834641917E+02  0.95550422488E+02  0.91991600240E+02 0.  0.
        -13    1    3    3    0    0  0.43704908255E+01  0.17001757101E+02  0.57076186505E+02  0.59714755300E+02  0.00000000000E+00 0.  1.
         13    1    3    3    0    0 -0.43704908255E+01 -0.17001757101E+02 -0.31241544588E+02  0.35835667188E+02  0.00000000000E+00 0. -1.
<mgrwt>
<rscale>  0 0.91991600E+02</rscale>
<asrwt>0</asrwt>
<pdfrwt beam="2">  1        1 0.53627524E-02 0.91991600E+02</pdfrwt>
<pdfrwt beam="1">  1       -1 0.93373126E-02 0.91991600E+02</pdfrwt>
<totfact> 0.86544681E+04</totfact>
</mgrwt>
</event>
<event>
 5    1  0.6112843E+000  0.9038998E+02  0.7546771E-02  0.1301910E+00
         -2   -1    0    0    0  501 -0.00000000000E+00  0.00000000000E+00  0.19158337833E+03  0.19158337833E+03  0.00000000000E+00 0.  1.
          2   -1    0    0  501    0  0.00000000000E+00 -0.00000000000E+00 -0.10661609916E+02  0.10661609916E+02  0.00000000000E+00 0. -1.
         23    2    1    2    0    0  0.00000000000E+00  0.00000000000E+00  0.18092176841E+03  0.20224498824E+03  0.90389982767E+02 0.  0.
        -13    1    3    3    0    0 -0.34697235148E+02  0.28715176864E+02  0.98870840979E+02  0.10864576708E+03  0.00000000000E+00 0.  1.
         13    1    3    3    0    0  0.34697235148E+02 -0.28715176864E+02  0.82050927431E+02  0.93599221159E+02  0.00000000000E+00 0. -1.
<mgrwt>
<rscale>  0 0.90389983E+02</rscale>
<asrwt>0</asrwt>
<pdfrwt beam="2">  1        2 0.16402478E-02 0.90389983E+02</pdfrwt>
<pdfrwt beam="1">  1       -2 0.29474363E-01 0.90389983E+02</pdfrwt>
<totfact> 0.64892535E+04</totfact>
</mgrwt>
</event>
<event>
 5    1  0.6112843E+000  0.9223514E+02  0.7546771E-02  0.1297528E+00
          2   -1    0    0  501    0  0.00000000000E+00  0.00000000000E+00  0.22235855880E+03  0.22235855880E+03  0.00000000000E+00 0. -1.
         -2   -1    0    0    0  501 -0.00000000000E+00 -0.00000000000E+00 -0.95648682363E+01  0.95648682363E+01  0.00000000000E+00 0.  1.
         23    2    1    2    0    0  0.00000000000E+00  0.00000000000E+00  0.21279369056E+03  0.23192342704E+03  0.92235141159E+02 0.  0.
        -13    1    3    3    0    0 -0.36915679007E+02  0.10495957596E+01  0.36942493849E+02  0.52236164289E+02  0.00000000000E+00 0.  1.
         13    1    3    3    0    0  0.36915679007E+02 -0.10495957596E+01  0.17585119671E+03  0.17968726275E+03  0.00000000000E+00 0. -1.
<mgrwt>
<rscale>  0 0.92235141E+02</rscale>
<asrwt>0</asrwt>
<pdfrwt beam="1">  1        2 0.34209005E-01 0.92235141E+02</pdfrwt>
<pdfrwt beam="2">  1       -2 0.14715183E-02 0.92235141E+02</pdfrwt>
<totfact> 0.15585442E+05</totfact>
</mgrwt>
</event>
<event>
 5    1  0.6112843E+000  0.9331818E+02  0.7546771E-02  0.1295010E+00
         -4   -1    0    0    0  501 -0.00000000000E+00  0.00000000000E+00  0.60327749861E+02  0.60327749861E+02  0.00000000000E+00 0.  1.
          4   -1    0    0  501    0  0.00000000000E+00 -0.00000000000E+00 -0.36087387572E+02  0.36087387572E+02  0.00000000000E+00 0. -1.
         23    2    1    2    0    0  0.00000000000E+00  0.00000000000E+00  0.24240362289E+02  0.96415137432E+02  0.93318184520E+02 0.  0.
        -13    1    3    3    0    0  0.35378776117E+02  0.11891968046E+02  0.41049310593E+02  0.55480830957E+02  0.00000000000E+00 0.  1.
         13    1    3    3    0    0 -0.35378776117E+02 -0.11891968046E+02 -0.16808948304E+02  0.40934306475E+02  0.00000000000E+00 0. -1.
<mgrwt>
<rscale>  0 0.93318185E+02</rscale>
<asrwt>0</asrwt>
<pdfrwt beam="2">  1        4 0.55519058E-02 0.93318185E+02</pdfrwt>
<pdfrwt beam="1">  1       -4 0.92811923E-02 0.93318185E+02</pdfrwt>
<totfact> 0.25049012E+04</totfact>
</mgrwt>
</event>
<event>
 5    1  0.6112843E+000  0.8974117E+02  0.7546771E-02  0.1303480E+00
         -1   -1    0    0    0  501 -0.00000000000E+00  0.00000000000E+00  0.41624737327E+02  0.41624737327E+02  0.00000000000E+00 0.  1.
          1   -1    0    0  501    0  0.00000000000E+00 -0.00000000000E+00 -0.48369543115E+02  0.48369543115E+02  0.00000000000E+00 0. -1.
         23    2    1    2    0    0  0.00000000000E+00  0.00000000000E+00 -0.67448057877E+01  0.89994280442E+02  0.89741172865E+02 0.  0.
        -13    1    3    3    0    0  0.25702277414E+02 -0.24725132571E+02 -0.30678418086E+02  0.47043645492E+02  0.00000000000E+00 0. -1.
         13    1    3    3    0    0 -0.25702277414E+02  0.24725132571E+02  0.23933612298E+02  0.42950634950E+02  0.00000000000E+00 0.  1.
<mgrwt>
<rscale>  0 0.89741173E+02</rscale>
<asrwt>0</asrwt>
<pdfrwt beam="2">  1        1 0.74414682E-02 0.89741173E+02</pdfrwt>
<pdfrwt beam="1">  1       -1 0.64038057E-02 0.89741173E+02</pdfrwt>
<totfact> 0.97528122E+04</totfact>
</mgrwt>
</event>
<event>
 5    1  0.6112843E+000  0.8726116E+02  0.7546771E-02  0.1309623E+00
         -1   -1    0    0    0  501 -0.00000000000E+00  0.00000000000E+00  0.67940416183E+02  0.67940416183E+02  0.00000000000E+00 0.  1.
          1   -1    0    0  501    0  0.00000000000E+00 -0.00000000000E+00 -0.28019072349E+02  0.28019072349E+02  0.00000000000E+00 0. -1.
         23    2    1    2    0    0  0.00000000000E+00  0.00000000000E+00  0.39921343833E+02  0.95959488532E+02  0.87261158288E+02 0.  0.
        -13    1    3    3    0    0 -0.40358867032E+02 -0.11426443187E+02  0.33167187721E+02  0.53473957150E+02  0.00000000000E+00 0.  1.
         13    1    3    3    0    0  0.40358867032E+02  0.11426443187E+02  0.67541561127E+01  0.42485531382E+02  0.00000000000E+00 0. -1.
<mgrwt>
<rscale>  0 0.87261158E+02</rscale>
<asrwt>0</asrwt>
<pdfrwt beam="2">  1        1 0.43106265E-02 0.87261158E+02</pdfrwt>
<pdfrwt beam="1">  1       -1 0.10452372E-01 0.87261158E+02</pdfrwt>
<totfact> 0.97228661E+04</totfact>
</mgrwt>
</event>
<event>
 5    1  0.6112843E+000  0.9413867E+02  0.7546771E-02  0.1293128E+00
         -1   -1    0    0    0  501 -0.00000000000E+00  0.00000000000E+00  0.46226744267E+02  0.46226744267E+02  0.00000000000E+00 0.  1.
          1   -1    0    0  501    0  0.00000000000E+00 -0.00000000000E+00 -0.47927288597E+02  0.47927288597E+02  0.00000000000E+00 0. -1.
         23    2    1    2    0    0  0.00000000000E+00  0.00000000000E+00 -0.17005443305E+01  0.94154032864E+02  0.94138674590E+02 0.  0.
        -13    1    3    3    0    0  0.75671682381E+01 -0.23671762567E+02  0.39130092514E+02  0.46354919031E+02  0.00000000000E+00 0.  1.
         13    1    3    3    0    0 -0.75671682381E+01  0.23671762567E+02 -0.40830636845E+02  0.47799113834E+02  0.00000000000E+00 0. -1.
<mgrwt>
<rscale>  0 0.94138675E+02</rscale>
<asrwt>0</asrwt>
<pdfrwt beam="2">  1        1 0.73734290E-02 0.94138675E+02</pdfrwt>
<pdfrwt beam="1">  1       -1 0.71118068E-02 0.94138675E+02</pdfrwt>
<totfact> 0.85164506E+04</totfact>
</mgrwt>
</event>
<event>
 5    1  0.6112843E+000  0.9249021E+02  0.7546771E-02  0.1296931E+00
          3   -1    0    0  501    0  0.00000000000E+00  0.00000000000E+00  0.87648483908E+01  0.87648483908E+01  0.00000000000E+00 0. -1.
         -3   -1    0    0    0  501 -0.00000000000E+00 -0.00000000000E+00 -0.24399847371E+03  0.24399847371E+03  0.00000000000E+00 0.  1.
         23    2    1    2    0    0  0.00000000000E+00  0.00000000000E+00 -0.23523362532E+03  0.25276332210E+03  0.92490207690E+02 0.  0.
        -13    1    3    3    0    0 -0.21478514804E+01 -0.36526034568E+02 -0.19490644853E+03  0.19831108932E+03  0.00000000000E+00 0.  1.
         13    1    3    3    0    0  0.21478514804E+01  0.36526034568E+02 -0.40327176783E+02  0.54452232779E+02  0.00000000000E+00 0. -1.
<mgrwt>
<rscale>  0 0.92490208E+02</rscale>
<asrwt>0</asrwt>
<pdfrwt beam="1">  1        3 0.13484381E-02 0.92490208E+02</pdfrwt>
<pdfrwt beam="2">  1       -3 0.37538229E-01 0.92490208E+02</pdfrwt>
<totfact> 0.24994649E+04</totfact>
</mgrwt>
</event>
<event>
 5    1  0.6112843E+000  0.9304627E+02  0.7546771E-02  0.1295638E+00
         -1   -1    0    0    0  501 -0.00000000000E+00  0.00000000000E+00  0.50859112866E+01  0.50859112866E+01  0.00000000000E+00 0.  1.
          1   -1    0    0  501    0  0.00000000000E+00 -0.00000000000E+00 -0.42556822759E+03  0.42556822759E+03  0.00000000000E+00 0. -1.
         23    2    1    2    0    0  0.00000000000E+00  0.00000000000E+00 -0.42048231630E+03  0.43065413887E+03  0.93046273475E+02 0.  0.
        -13    1    3    3    0    0 -0.20597463777E+02 -0.41585153616E+02 -0.19501542826E+03  0.20046096322E+03  0.00000000000E+00 0. -1.
         13    1    3    3    0    0  0.20597463777E+02  0.41585153616E+02 -0.22546688804E+03  0.23019317565E+03  0.00000000000E+00 0.  1.
<mgrwt>
<rscale>  0 0.93046273E+02</rscale>
<asrwt>0</asrwt>
<pdfrwt beam="2">  1        1 0.65472053E-01 0.93046273E+02</pdfrwt>
<pdfrwt beam="1">  1       -1 0.78244767E-03 0.93046273E+02</pdfrwt>
<totfact> 0.12907207E+05</totfact>
</mgrwt>
</event>
<event>
 5    1  0.6112843E+000  0.9200601E+02  0.7546771E-02  0.1298065E+00
         -3   -1    0    0    0  501 -0.00000000000E+00  0.00000000000E+00  0.16574819441E+03  0.16574819441E+03  0.00000000000E+00 0.  1.
          3   -1    0    0  501    0  0.00000000000E+00 -0.00000000000E+00 -0.12768022556E+02  0.12768022556E+02  0.00000000000E+00 0. -1.
         23    2    1    2    0    0  0.00000000000E+00  0.00000000000E+00  0.15298017185E+03  0.17851621696E+03  0.92006014690E+02 0.  0.
        -13    1    3    3    0    0 -0.44491907222E+02 -0.90088320093E+01  0.62023991813E+02  0.76861332429E+02  0.00000000000E+00 0.  1.
         13    1    3    3    0    0  0.44491907222E+02  0.90088320093E+01  0.90956180040E+02  0.10165488454E+03  0.00000000000E+00 0. -1.
<mgrwt>
<rscale>  0 0.92006015E+02</rscale>
<asrwt>0</asrwt>
<pdfrwt beam="2">  1        3 0.19643113E-02 0.92006015E+02</pdfrwt>
<pdfrwt beam="1">  1       -3 0.25499721E-01 0.92006015E+02</pdfrwt>
<totfact> 0.28930142E+04</totfact>
</mgrwt>
</event>
<event>
 5    1  0.6112843E+000  0.9187875E+02  0.7546771E-02  0.1298365E+00
          2   -1    0    0  501    0  0.00000000000E+00  0.00000000000E+00  0.24700698488E+02  0.24700698488E+02  0.00000000000E+00 0. -1.
         -2   -1    0    0    0  501 -0.00000000000E+00 -0.00000000000E+00 -0.85439947919E+02  0.85439947919E+02  0.00000000000E+00 0.  1.
         23    2    1    2    0    0  0.00000000000E+00  0.00000000000E+00 -0.60739249431E+02  0.11014064641E+03  0.91878754724E+02 0.  0.
        -13    1    3    3    0    0 -0.22792905409E+02 -0.17435612689E+02 -0.73373390168E+02  0.78785604723E+02  0.00000000000E+00 0. -1.
         13    1    3    3    0    0  0.22792905409E+02  0.17435612689E+02  0.12634140737E+02  0.31355041684E+02  0.00000000000E+00 0.  1.
<mgrwt>
<rscale>  0 0.91878755E+02</rscale>
<asrwt>0</asrwt>
<pdfrwt beam="1">  1        2 0.38001075E-02 0.91878755E+02</pdfrwt>
<pdfrwt beam="2">  1       -2 0.13144607E-01 0.91878755E+02</pdfrwt>
<totfact> 0.81964634E+04</totfact>
</mgrwt>
</event>
<event>
 5    1  0.6112843E+000  0.9179916E+02  0.7546771E-02  0.1298552E+00
         -2   -1    0    0    0  501 -0.00000000000E+00  0.00000000000E+00  0.17646951036E+02  0.17646951036E+02  0.00000000000E+00 0.  1.
          2   -1    0    0  501    0  0.00000000000E+00 -0.00000000000E+00 -0.11938443335E+03  0.11938443335E+03  0.00000000000E+00 0. -1.
         23    2    1    2    0    0  0.00000000000E+00  0.00000000000E+00 -0.10173748232E+03  0.13703138439E+03  0.91799155767E+02 0.  0.
        -13    1    3    3    0    0  0.29373529474E+02  0.18051797703E+02 -0.96098707121E+02  0.10209619554E+03  0.00000000000E+00 0. -1.
         13    1    3    3    0    0 -0.29373529474E+02 -0.18051797703E+02 -0.56387751974E+01  0.34935188848E+02  0.00000000000E+00 0.  1.
<mgrwt>
<rscale>  0 0.91799156E+02</rscale>
<asrwt>0</asrwt>
<pdfrwt beam="2">  1        2 0.18366836E-01 0.91799156E+02</pdfrwt>
<pdfrwt beam="1">  1       -2 0.27149155E-02 0.91799156E+02</pdfrwt>
<totfact> 0.12725811E+05</totfact>
</mgrwt>
</event>
<event>
 5    1  0.6112843E+000  0.9152521E+02  0.7546771E-02  0.1299200E+00
          4   -1    0    0  501    0  0.00000000000E+00  0.00000000000E+00  0.34632274757E+02  0.34632274757E+02  0.00000000000E+00 0. -1.
         -4   -1    0    0    0  501 -0.00000000000E+00 -0.00000000000E+00 -0.60470073351E+02  0.60470073351E+02  0.00000000000E+00 0.  1.
         23    2    1    2    0    0  0.00000000000E+00  0.00000000000E+00 -0.25837798594E+02  0.95102348108E+02  0.91525213900E+02 0.  0.
        -13    1    3    3    0    0  0.39970456810E+02  0.16807435930E+02 -0.28122537879E+02  0.51681761357E+02  0.00000000000E+00 0.  1.
         13    1    3    3    0    0 -0.39970456810E+02 -0.16807435930E+02  0.22847392856E+01  0.43420586751E+02  0.00000000000E+00 0. -1.
<mgrwt>
<rscale>  0 0.91525214E+02</rscale>
<asrwt>0</asrwt>
<pdfrwt beam="1">  1        4 0.53280423E-02 0.91525214E+02</pdfrwt>
<pdfrwt beam="2">  1       -4 0.93030881E-02 0.91525214E+02</pdfrwt>
<totfact> 0.26489284E+04</totfact>
</mgrwt>
</event>
<event>
 5    1  0.6112843E+000  0.9039188E+02  0.7546771E-02  0.1301905E+00
          2   -1    0    0  501    0  0.00000000000E+00  0.00000000000E+00  0.20103962257E+03  0.20103962257E+03  0.00000000000E+00 0. -1.
         -2   -1    0    0    0  501 -0.00000000000E+00 -0.00000000000E+00 -0.10160549823E+02  0.10160549823E+02  0.00000000000E+00 0.  1.
         23    2    1    2    0    0  0.00000000000E+00  0.00000000000E+00  0.19087907275E+03  0.21120017240E+03  0.90391882412E+02 0.  0.
        -13    1    3    3    0    0 -0.32148607339E+02 -0.20255177888E+02  0.38261351947E+02  0.53923429397E+02  0.00000000000E+00 0.  1.
         13    1    3    3    0    0  0.32148607339E+02  0.20255177888E+02  0.15261772080E+03  0.15727674300E+03  0.00000000000E+00 0. -1.
<mgrwt>
<rscale>  0 0.90391882E+02</rscale>
<asrwt>0</asrwt>
<pdfrwt beam="1">  1        2 0.30929170E-01 0.90391882E+02</pdfrwt>
<pdfrwt beam="2">  1       -2 0.15631617E-02 0.90391882E+02</pdfrwt>
<totfact> 0.15861568E+05</totfact>
</mgrwt>
</event>
<event>
 5    1  0.6112843E+000  0.9092010E+02  0.7546771E-02  0.1300639E+00
         -4   -1    0    0    0  501 -0.00000000000E+00  0.00000000000E+00  0.51161519403E+02  0.51161519403E+02  0.00000000000E+00 0.  1.
          4   -1    0    0  501    0  0.00000000000E+00 -0.00000000000E+00 -0.40393953995E+02  0.40393953995E+02  0.00000000000E+00 0. -1.
         23    2    1    2    0    0  0.00000000000E+00  0.00000000000E+00  0.10767565409E+02  0.91555473398E+02  0.90920098132E+02 0.  0.
        -13    1    3    3    0    0  0.73507009698E+01 -0.39782185934E+02  0.26264187698E+02  0.48233418683E+02  0.00000000000E+00 0.  1.
         13    1    3    3    0    0 -0.73507009698E+01  0.39782185934E+02 -0.15496622289E+02  0.43322054716E+02  0.00000000000E+00 0. -1.
<mgrwt>
<rscale>  0 0.90920098E+02</rscale>
<asrwt>0</asrwt>
<pdfrwt beam="2">  1        4 0.62144544E-02 0.90920098E+02</pdfrwt>
<pdfrwt beam="1">  1       -4 0.78710030E-02 0.90920098E+02</pdfrwt>
<totfact> 0.27199567E+04</totfact>
</mgrwt>
</event>
<event>
 5    1  0.6112843E+000  0.9260119E+02  0.7546771E-02  0.1296672E+00
          1   -1    0    0  501    0  0.00000000000E+00  0.00000000000E+00  0.40279379410E+03  0.40279379410E+03  0.00000000000E+00 0. -1.
         -1   -1    0    0    0  501 -0.00000000000E+00 -0.00000000000E+00 -0.53221899386E+01  0.53221899386E+01  0.00000000000E+00 0.  1.
         23    2    1    2    0    0  0.00000000000E+00  0.00000000000E+00  0.39747160416E+03  0.40811598404E+03  0.92601189588E+02 0.  0.
        -13    1    3    3    0    0  0.67826594820E+01  0.43702424261E+02  0.13833265014E+03  0.14523026011E+03  0.00000000000E+00 0. -1.
         13    1    3    3    0    0 -0.67826594820E+01 -0.43702424261E+02  0.25913895402E+03  0.26288572393E+03  0.00000000000E+00 0.  1.
<mgrwt>
<rscale>  0 0.92601190E+02</rscale>
<asrwt>0</asrwt>
<pdfrwt beam="1">  1        1 0.61968252E-01 0.92601190E+02</pdfrwt>
<pdfrwt beam="2">  1       -1 0.81879877E-03 0.92601190E+02</pdfrwt>
<totfact> 0.12959288E+05</totfact>
</mgrwt>
</event>
<event>
 5    1  0.6112843E+000  0.9109114E+02  0.7546771E-02  0.1300231E+00
          2   -1    0    0  501    0  0.00000000000E+00  0.00000000000E+00  0.25419965185E+03  0.25419965185E+03  0.00000000000E+00 0.  1.
         -2   -1    0    0    0  501 -0.00000000000E+00 -0.00000000000E+00 -0.81605102382E+01  0.81605102382E+01  0.00000000000E+00 0. -1.
         23    2    1    2    0    0  0.00000000000E+00  0.00000000000E+00  0.24603914161E+03  0.26236016209E+03  0.91091138131E+02 0.  0.
        -13    1    3    3    0    0 -0.12650141813E+02 -0.39367060028E+02  0.68023143616E+02  0.79604896649E+02  0.00000000000E+00 0. -1.
         13    1    3    3    0    0  0.12650141813E+02  0.39367060028E+02  0.17801599800E+03  0.18275526544E+03  0.00000000000E+00 0.  1.
<mgrwt>
<rscale>  0 0.91091138E+02</rscale>
<asrwt>0</asrwt>
<pdfrwt beam="1">  1        2 0.39107633E-01 0.91091138E+02</pdfrwt>
<pdfrwt beam="2">  1       -2 0.12554633E-02 0.91091138E+02</pdfrwt>
<totfact> 0.16932499E+05</totfact>
</mgrwt>
</event>
<event>
 5    1  0.6112843E+000  0.9229223E+02  0.7546771E-02  0.1297394E+00
         -2   -1    0    0    0  501 -0.00000000000E+00  0.00000000000E+00  0.14628406407E+02  0.14628406407E+02  0.00000000000E+00 0.  1.
          2   -1    0    0  501    0  0.00000000000E+00 -0.00000000000E+00 -0.14557046838E+03  0.14557046838E+03  0.00000000000E+00 0. -1.
         23    2    1    2    0    0  0.00000000000E+00  0.00000000000E+00 -0.13094206198E+03  0.16019887479E+03  0.92292230928E+02 0.  0.
        -13    1    3    3    0    0  0.13074149500E+02  0.28367356917E+02 -0.65101403331E+01  0.31906460957E+02  0.00000000000E+00 0.  1.
         13    1    3    3    0    0 -0.13074149500E+02 -0.28367356917E+02 -0.12443192164E+03  0.12829241384E+03  0.00000000000E+00 0. -1.
<mgrwt>
<rscale>  0 0.92292231E+02</rscale>
<asrwt>0</asrwt>
<pdfrwt beam="2">  1        2 0.22395457E-01 0.92292231E+02</pdfrwt>
<pdfrwt beam="1">  1       -2 0.22505240E-02 0.92292231E+02</pdfrwt>
<totfact> 0.13389232E+05</totfact>
</mgrwt>
</event>
<event>
 5    1  0.6112843E+000  0.9309039E+02  0.7546771E-02  0.1295536E+00
         -1   -1    0    0    0  501 -0.00000000000E+00  0.00000000000E+00  0.30763006724E+03  0.30763006724E+03  0.00000000000E+00 0.  1.
          1   -1    0    0  501    0  0.00000000000E+00 -0.00000000000E+00 -0.70424040232E+01  0.70424040232E+01  0.00000000000E+00 0. -1.
         23    2    1    2    0    0  0.00000000000E+00  0.00000000000E+00  0.30058766322E+03  0.31467247126E+03  0.93090390980E+02 0.  0.
        -13    1    3    3    0    0 -0.41696760932E+02  0.10989080615E+02  0.91059096487E+02  0.10075286010E+03  0.00000000000E+00 0. -1.
         13    1    3    3    0    0  0.41696760932E+02 -0.10989080615E+02  0.20952856673E+03  0.21391961116E+03  0.00000000000E+00 0.  1.
<mgrwt>
<rscale>  0 0.93090391E+02</rscale>
<asrwt>0</asrwt>
<pdfrwt beam="2">  1        1 0.10834470E-02 0.93090391E+02</pdfrwt>
<pdfrwt beam="1">  1       -1 0.47327692E-01 0.93090391E+02</pdfrwt>
<totfact> 0.56807981E+04</totfact>
</mgrwt>
</event>
<event>
 5    1  0.6112843E+000  0.9131918E+02  0.7546771E-02  0.1299688E+00
         -2   -1    0    0    0  501 -0.00000000000E+00  0.00000000000E+00  0.34039809355E+02  0.34039809355E+02  0.00000000000E+00 0. -1.
          2   -1    0    0  501    0  0.00000000000E+00 -0.00000000000E+00 -0.61245884080E+02  0.61245884080E+02  0.00000000000E+00 0.  1.
         23    2    1    2    0    0  0.00000000000E+00  0.00000000000E+00 -0.27206074725E+02  0.95285693436E+02  0.91319181291E+02 0.  0.
        -13    1    3    3    0    0 -0.70736222423E+01 -0.35497934224E+02 -0.42644661847E+02  0.55934842897E+02  0.00000000000E+00 0.  1.
         13    1    3    3    0    0  0.70736222423E+01  0.35497934224E+02  0.15438587122E+02  0.39350850539E+02  0.00000000000E+00 0. -1.
<mgrwt>
<rscale>  0 0.91319181E+02</rscale>
<asrwt>0</asrwt>
<pdfrwt beam="2">  1        2 0.94224436E-02 0.91319181E+02</pdfrwt>
<pdfrwt beam="1">  1       -2 0.52368938E-02 0.91319181E+02</pdfrwt>
<totfact> 0.10618869E+05</totfact>
</mgrwt>
</event>
<event>
 5    1  0.6112843E+000  0.8942653E+02  0.7546771E-02  0.1304246E+00
         -2   -1    0    0    0  501 -0.00000000000E+00  0.00000000000E+00  0.24007456688E+03  0.24007456688E+03  0.00000000000E+00 0.  1.
          2   -1    0    0  501    0  0.00000000000E+00 -0.00000000000E+00 -0.83277291794E+01  0.83277291794E+01  0.00000000000E+00 0. -1.
         23    2    1    2    0    0  0.00000000000E+00  0.00000000000E+00  0.23174683770E+03  0.24840229606E+03  0.89426527962E+02 0.  0.
        -13    1    3    3    0    0 -0.21401872906E+02  0.26938957019E+02  0.19519818182E+03  0.19820715869E+03  0.00000000000E+00 0.  1.
         13    1    3    3    0    0  0.21401872906E+02 -0.26938957019E+02  0.36548655885E+02  0.50195137376E+02  0.00000000000E+00 0. -1.
<mgrwt>
<rscale>  0 0.89426528E+02</rscale>
<asrwt>0</asrwt>
<pdfrwt beam="2">  1        2 0.12811893E-02 0.89426528E+02</pdfrwt>
<pdfrwt beam="1">  1       -2 0.36934544E-01 0.89426528E+02</pdfrwt>
<totfact> 0.60226779E+04</totfact>
</mgrwt>
</event>
<event>
 5    1  0.6112843E+000  0.9104495E+02  0.7546771E-02  0.1300341E+00
          2   -1    0    0  501    0  0.00000000000E+00  0.00000000000E+00  0.23773777100E+03  0.23773777100E+03  0.00000000000E+00 0. -1.
         -2   -1    0    0    0  501 -0.00000000000E+00 -0.00000000000E+00 -0.87167293426E+01  0.87167293426E+01  0.00000000000E+00 0.  1.
         23    2    1    2    0    0  0.00000000000E+00  0.00000000000E+00  0.22902104165E+03  0.24645450034E+03  0.91044951629E+02 0.  0.
        -13    1    3    3    0    0  0.20462314190E+02 -0.40483265562E+02  0.12488727239E+03  0.13286998117E+03  0.00000000000E+00 0. -1.
         13    1    3    3    0    0 -0.20462314190E+02  0.40483265562E+02  0.10413376927E+03  0.11358451917E+03  0.00000000000E+00 0.  1.
<mgrwt>
<rscale>  0 0.91044952E+02</rscale>
<asrwt>0</asrwt>
<pdfrwt beam="1">  1        2 0.36575037E-01 0.91044952E+02</pdfrwt>
<pdfrwt beam="2">  1       -2 0.13410355E-02 0.91044952E+02</pdfrwt>
<totfact> 0.16541134E+05</totfact>
</mgrwt>
</event>
<event>
 5    1  0.6112843E+000  0.9255746E+02  0.7546771E-02  0.1296774E+00
         -1   -1    0    0    0  501 -0.00000000000E+00  0.00000000000E+00  0.15891744451E+02  0.15891744451E+02  0.00000000000E+00 0.  1.
          1   -1    0    0  501    0  0.00000000000E+00 -0.00000000000E+00 -0.13476940938E+03  0.13476940938E+03  0.00000000000E+00 0. -1.
         23    2    1    2    0    0  0.00000000000E+00  0.00000000000E+00 -0.11887766493E+03  0.15066115383E+03  0.92557463527E+02 0.  0.
        -13    1    3    3    0    0  0.15762708910E+01 -0.31661400886E+02 -0.45567775878E+01  0.32026444666E+02  0.00000000000E+00 0.  1.
         13    1    3    3    0    0 -0.15762708910E+01  0.31661400886E+02 -0.11432088734E+03  0.11863470916E+03  0.00000000000E+00 0. -1.
<mgrwt>
<rscale>  0 0.92557464E+02</rscale>
<asrwt>0</asrwt>
<pdfrwt beam="2">  1        1 0.20733756E-01 0.92557464E+02</pdfrwt>
<pdfrwt beam="1">  1       -1 0.24448837E-02 0.92557464E+02</pdfrwt>
<totfact> 0.10558504E+05</totfact>
</mgrwt>
</event>
<event>
 5    1  0.6112843E+000  0.9184422E+02  0.7546771E-02  0.1298446E+00
          2   -1    0    0  501    0  0.00000000000E+00  0.00000000000E+00  0.49549604062E+03  0.49549604062E+03  0.00000000000E+00 0. -1.
         -2   -1    0    0    0  501 -0.00000000000E+00 -0.00000000000E+00 -0.42560183226E+01  0.42560183226E+01  0.00000000000E+00 0.  1.
         23    2    1    2    0    0  0.00000000000E+00  0.00000000000E+00  0.49124002229E+03  0.49975205894E+03  0.91844220888E+02 0.  0.
        -13    1    3    3    0    0 -0.25616873229E+02  0.37798103292E+02  0.27223204639E+03  0.27603479470E+03  0.00000000000E+00 0.  1.
         13    1    3    3    0    0  0.25616873229E+02 -0.37798103292E+02  0.21900797591E+03  0.22371726423E+03  0.00000000000E+00 0. -1.
<mgrwt>
<rscale>  0 0.91844221E+02</rscale>
<asrwt>0</asrwt>
<pdfrwt beam="1">  1        2 0.76230114E-01 0.91844221E+02</pdfrwt>
<pdfrwt beam="2">  1       -2 0.65477244E-03 0.91844221E+02</pdfrwt>
<totfact> 0.21075128E+05</totfact>
</mgrwt>
</event>
<event>
 5    1  0.6112843E+000  0.9406653E+02  0.7546771E-02  0.1293292E+00
          2   -1    0    0  501    0  0.00000000000E+00  0.00000000000E+00  0.35723375028E+02  0.35723375028E+02  0.00000000000E+00 0. -1.
         -2   -1    0    0    0  501 -0.00000000000E+00 -0.00000000000E+00 -0.61923828050E+02  0.61923828050E+02  0.00000000000E+00 0.  1.
         23    2    1    2    0    0  0.00000000000E+00  0.00000000000E+00 -0.26200453022E+02  0.97647203078E+02  0.94066532467E+02 0.  0.
        -13    1    3    3    0    0  0.99664219765E+01 -0.71391704714E+01 -0.60236059426E+02  0.61470970199E+02  0.00000000000E+00 0.  1.
         13    1    3    3    0    0 -0.99664219765E+01  0.71391704714E+01  0.34035606404E+02  0.36176232879E+02  0.00000000000E+00 0. -1.
<mgrwt>
<rscale>  0 0.94066532E+02</rscale>
<asrwt>0</asrwt>
<pdfrwt beam="1">  1        2 0.54959039E-02 0.94066532E+02</pdfrwt>
<pdfrwt beam="2">  1       -2 0.95267427E-02 0.94066532E+02</pdfrwt>
<totfact> 0.84521227E+04</totfact>
</mgrwt>
</event>
<event>
 5    1  0.6112843E+000  0.9141206E+02  0.7546771E-02  0.1299468E+00
          1   -1    0    0  501    0  0.00000000000E+00  0.00000000000E+00  0.65633193408E+02  0.65633193408E+02  0.00000000000E+00 0. -1.
         -1   -1    0    0    0  501 -0.00000000000E+00 -0.00000000000E+00 -0.31829036049E+02  0.31829036049E+02  0.00000000000E+00 0.  1.
         23    2    1    2    0    0  0.00000000000E+00  0.00000000000E+00  0.33804157359E+02  0.97462229456E+02  0.91412062201E+02 0.  0.
        -13    1    3    3    0    0 -0.24649030826E+02 -0.11811018195E+02 -0.22155350819E+02  0.35184292537E+02  0.00000000000E+00 0.  1.
         13    1    3    3    0    0  0.24649030826E+02  0.11811018195E+02  0.55959508178E+02  0.62277936919E+02  0.00000000000E+00 0. -1.
<mgrwt>
<rscale>  0 0.91412062E+02</rscale>
<asrwt>0</asrwt>
<pdfrwt beam="1">  1        1 0.10097414E-01 0.91412062E+02</pdfrwt>
<pdfrwt beam="2">  1       -1 0.48967748E-02 0.91412062E+02</pdfrwt>
<totfact> 0.97001341E+04</totfact>
</mgrwt>
</event>
<event>
 5    1  0.6112843E+000  0.9114466E+02  0.7546771E-02  0.1300103E+00
          2   -1    0    0  501    0  0.00000000000E+00  0.00000000000E+00  0.32701267152E+03  0.32701267152E+03  0.00000000000E+00 0. -1.
         -2   -1    0    0    0  501 -0.00000000000E+00 -0.00000000000E+00 -0.63509386899E+01  0.63509386899E+01  0.00000000000E+00 0.  1.
         23    2    1    2    0    0  0.00000000000E+00  0.00000000000E+00  0.32066173283E+03  0.33336361021E+03  0.91144663643E+02 0.  0.
        -13    1    3    3    0    0 -0.39744106019E+02  0.73684923326E+01  0.83353384278E+02  0.92637332178E+02  0.00000000000E+00 0.  1.
         13    1    3    3    0    0  0.39744106019E+02 -0.73684923326E+01  0.23730834855E+03  0.24072627803E+03  0.00000000000E+00 0. -1.
<mgrwt>
<rscale>  0 0.91144664E+02</rscale>
<asrwt>0</asrwt>
<pdfrwt beam="1">  1        2 0.50309629E-01 0.91144664E+02</pdfrwt>
<pdfrwt beam="2">  1       -2 0.97706775E-03 0.91144664E+02</pdfrwt>
<totfact> 0.18567687E+05</totfact>
</mgrwt>
</event>
<event>
 5    1  0.6112843E+000  0.7870450E+02  0.7546771E-02  0.1332769E+00
          1   -1    0    0  501    0  0.00000000000E+00  0.00000000000E+00  0.46635013161E+02  0.46635013161E+02  0.00000000000E+00 0. -1.
         -1   -1    0    0    0  501 -0.00000000000E+00 -0.00000000000E+00 -0.33206804485E+02  0.33206804485E+02  0.00000000000E+00 0.  1.
         23    2    1    2    0    0  0.00000000000E+00  0.00000000000E+00  0.13428208676E+02  0.79841817645E+02  0.78704504678E+02 0.  0.
        -13    1    3    3    0    0 -0.24211723642E+01 -0.26720199325E+02 -0.22490241255E+02  0.35009171359E+02  0.00000000000E+00 0.  1.
         13    1    3    3    0    0  0.24211723642E+01  0.26720199325E+02  0.35918449931E+02  0.44832646286E+02  0.00000000000E+00 0. -1.
<mgrwt>
<rscale>  0 0.78704505E+02</rscale>
<asrwt>0</asrwt>
<pdfrwt beam="1">  1        1 0.71746174E-02 0.78704505E+02</pdfrwt>
<pdfrwt beam="2">  1       -1 0.51087392E-02 0.78704505E+02</pdfrwt>
<totfact> 0.13945415E+05</totfact>
</mgrwt>
</event>
<event>
 5    1  0.6112843E+000  0.9100835E+02  0.7546771E-02  0.1300428E+00
         -4   -1    0    0    0  501 -0.00000000000E+00  0.00000000000E+00  0.81455732128E+01  0.81455732128E+01  0.00000000000E+00 0. -1.
          4   -1    0    0  501    0  0.00000000000E+00 -0.00000000000E+00 -0.25420307535E+03  0.25420307535E+03  0.00000000000E+00 0.  1.
         23    2    1    2    0    0  0.00000000000E+00  0.00000000000E+00 -0.24605750214E+03  0.26234864856E+03  0.91008346017E+02 0.  0.
        -13    1    3    3    0    0 -0.27721892736E+02 -0.20985849190E+02 -0.20765027395E+03  0.21054107788E+03  0.00000000000E+00 0.  1.
         13    1    3    3    0    0  0.27721892736E+02  0.20985849190E+02 -0.38407228187E+02  0.51807570683E+02  0.00000000000E+00 0. -1.
<mgrwt>
<rscale>  0 0.91008346E+02</rscale>
<asrwt>0</asrwt>
<pdfrwt beam="2">  1        4 0.39108166E-01 0.91008346E+02</pdfrwt>
<pdfrwt beam="1">  1       -4 0.12531651E-02 0.91008346E+02</pdfrwt>
<totfact> 0.19128679E+04</totfact>
</mgrwt>
</event>
<event>
 5    1  0.6112843E+000  0.1088349E+03  0.7546771E-02  0.1262743E+00
          2   -1    0    0  501    0  0.00000000000E+00  0.00000000000E+00  0.13934711339E+02  0.13934711339E+02  0.00000000000E+00 0. -1.
         -2   -1    0    0    0  501 -0.00000000000E+00 -0.00000000000E+00 -0.21250948688E+03  0.21250948688E+03  0.00000000000E+00 0.  1.
         23    2    1    2    0    0  0.00000000000E+00  0.00000000000E+00 -0.19857477554E+03  0.22644419822E+03  0.10883489067E+03 0.  0.
        -13    1    3    3    0    0  0.12167622641E+02 -0.52973569090E+02 -0.10479545457E+03  0.11805226538E+03  0.00000000000E+00 0.  1.
         13    1    3    3    0    0 -0.12167622641E+02  0.52973569090E+02 -0.93779320975E+02  0.10839193284E+03  0.00000000000E+00 0. -1.
<mgrwt>
<rscale>  0 0.10883489E+03</rscale>
<asrwt>0</asrwt>
<pdfrwt beam="1">  1        2 0.21438019E-02 0.10883489E+03</pdfrwt>
<pdfrwt beam="2">  1       -2 0.32693764E-01 0.10883489E+03</pdfrwt>
<totfact> 0.38539101E+04</totfact>
</mgrwt>
</event>
<event>
 5    1  0.6112843E+000  0.7589431E+02  0.7546771E-02  0.1341124E+00
          2   -1    0    0  501    0  0.00000000000E+00  0.00000000000E+00  0.38125917108E+02  0.38125917108E+02  0.00000000000E+00 0. -1.
         -2   -1    0    0    0  501 -0.00000000000E+00 -0.00000000000E+00 -0.37769229997E+02  0.37769229997E+02  0.00000000000E+00 0.  1.
         23    2    1    2    0    0  0.00000000000E+00  0.00000000000E+00  0.35668711097E+00  0.75895147104E+02  0.75894308932E+02 0.  0.
        -13    1    3    3    0    0  0.22948695086E+02  0.24664211473E+02  0.17643375351E+02  0.38029654581E+02  0.00000000000E+00 0.  1.
         13    1    3    3    0    0 -0.22948695086E+02 -0.24664211473E+02 -0.17286688240E+02  0.37865492524E+02  0.00000000000E+00 0. -1.
<mgrwt>
<rscale>  0 0.75894309E+02</rscale>
<asrwt>0</asrwt>
<pdfrwt beam="1">  1        2 0.58655257E-02 0.75894309E+02</pdfrwt>
<pdfrwt beam="2">  1       -2 0.58106508E-02 0.75894309E+02</pdfrwt>
<totfact> 0.15892326E+05</totfact>
</mgrwt>
</event>
<event>
 5    1  0.6112843E+000  0.8777206E+02  0.7546771E-02  0.1308338E+00
          1   -1    0    0  501    0  0.00000000000E+00  0.00000000000E+00  0.37339580026E+03  0.37339580026E+03  0.00000000000E+00 0. -1.
         -1   -1    0    0    0  501 -0.00000000000E+00 -0.00000000000E+00 -0.51580222433E+01  0.51580222433E+01  0.00000000000E+00 0.  1.
         23    2    1    2    0    0  0.00000000000E+00  0.00000000000E+00  0.36823777802E+03  0.37855382250E+03  0.87772064879E+02 0.  0.
        -13    1    3    3    0    0  0.38570637302E+02 -0.20606762749E+02  0.20005400798E+03  0.20477777917E+03  0.00000000000E+00 0. -1.
         13    1    3    3    0    0 -0.38570637302E+02  0.20606762749E+02  0.16818377004E+03  0.17377604334E+03  0.00000000000E+00 0.  1.
<mgrwt>
<rscale>  0 0.87772065E+02</rscale>
<asrwt>0</asrwt>
<pdfrwt beam="1">  1        1 0.57445487E-01 0.87772065E+02</pdfrwt>
<pdfrwt beam="2">  1       -1 0.79354218E-03 0.87772065E+02</pdfrwt>
<totfact> 0.14748950E+05</totfact>
</mgrwt>
</event>
<event>
 5    1  0.6112843E+000  0.9214686E+02  0.7546771E-02  0.1297735E+00
          1   -1    0    0  501    0  0.00000000000E+00  0.00000000000E+00  0.11570922193E+03  0.11570922193E+03  0.00000000000E+00 0. -1.
         -1   -1    0    0    0  501 -0.00000000000E+00 -0.00000000000E+00 -0.18345649401E+02  0.18345649401E+02  0.00000000000E+00 0.  1.
         23    2    1    2    0    0  0.00000000000E+00  0.00000000000E+00  0.97363572530E+02  0.13405487133E+03  0.92146857093E+02 0.  0.
        -13    1    3    3    0    0 -0.33485417311E+02  0.24120447801E+02  0.18878288650E+02  0.45381262179E+02  0.00000000000E+00 0.  1.
         13    1    3    3    0    0  0.33485417311E+02 -0.24120447801E+02  0.78485283880E+02  0.88673609153E+02  0.00000000000E+00 0. -1.
<mgrwt>
<rscale>  0 0.92146857E+02</rscale>
<asrwt>0</asrwt>
<pdfrwt beam="1">  1        1 0.17801418E-01 0.92146857E+02</pdfrwt>
<pdfrwt beam="2">  1       -1 0.28224077E-02 0.92146857E+02</pdfrwt>
<totfact> 0.10402578E+05</totfact>
</mgrwt>
</event>
<event>
 5    1  0.6112843E+000  0.9261498E+02  0.7546771E-02  0.1296640E+00
         -2   -1    0    0    0  501 -0.00000000000E+00  0.00000000000E+00  0.41761207215E+01  0.41761207215E+01  0.00000000000E+00 0.  1.
          2   -1    0    0  501    0  0.00000000000E+00 -0.00000000000E+00 -0.51348698395E+03  0.51348698395E+03  0.00000000000E+00 0. -1.
         23    2    1    2    0    0  0.00000000000E+00  0.00000000000E+00 -0.50931086323E+03  0.51766310467E+03  0.92614980082E+02 0.  0.
        -13    1    3    3    0    0 -0.19079131958E+02  0.42064709712E+02 -0.27313479778E+03  0.27701276295E+03  0.00000000000E+00 0.  1.
         13    1    3    3    0    0  0.19079131958E+02 -0.42064709712E+02 -0.23617606545E+03  0.24065034172E+03  0.00000000000E+00 0. -1.
<mgrwt>
<rscale>  0 0.92614980E+02</rscale>
<asrwt>0</asrwt>
<pdfrwt beam="2">  1        2 0.78997969E-01 0.92614980E+02</pdfrwt>
<pdfrwt beam="1">  1       -2 0.64248034E-03 0.92614980E+02</pdfrwt>
<totfact> 0.20852748E+05</totfact>
</mgrwt>
</event>
<event>
 5    1  0.6112843E+000  0.8343283E+02  0.7546771E-02  0.1319582E+00
          1   -1    0    0  501    0  0.00000000000E+00  0.00000000000E+00  0.10179869667E+02  0.10179869667E+02  0.00000000000E+00 0. -1.
         -1   -1    0    0    0  501 -0.00000000000E+00 -0.00000000000E+00 -0.17095103569E+03  0.17095103569E+03  0.00000000000E+00 0.  1.
         23    2    1    2    0    0  0.00000000000E+00  0.00000000000E+00 -0.16077116603E+03  0.18113090536E+03  0.83432829578E+02 0.  0.
        -13    1    3    3    0    0  0.28054257934E+02 -0.28426572760E+00 -0.13361132063E+02  0.31074781499E+02  0.00000000000E+00 0. -1.
         13    1    3    3    0    0 -0.28054257934E+02  0.28426572760E+00 -0.14741003396E+03  0.15005612386E+03  0.00000000000E+00 0.  1.
<mgrwt>
<rscale>  0 0.83432830E+02</rscale>
<asrwt>0</asrwt>
<pdfrwt beam="1">  1        1 0.15661337E-02 0.83432830E+02</pdfrwt>
<pdfrwt beam="2">  1       -1 0.26300160E-01 0.83432830E+02</pdfrwt>
<totfact> 0.91174329E+04</totfact>
</mgrwt>
</event>
<event>
 5    1  0.6112843E+000  0.9786924E+02  0.7546771E-02  0.1284842E+00
         -2   -1    0    0    0  501 -0.00000000000E+00  0.00000000000E+00  0.60007653312E+01  0.60007653312E+01  0.00000000000E+00 0.  1.
          2   -1    0    0  501    0  0.00000000000E+00 -0.00000000000E+00 -0.39904860714E+03  0.39904860714E+03  0.00000000000E+00 0. -1.
         23    2    1    2    0    0  0.00000000000E+00  0.00000000000E+00 -0.39304784181E+03  0.40504937247E+03  0.97869240259E+02 0.  0.
        -13    1    3    3    0    0  0.65335268281E+01 -0.48183858477E+02 -0.21927756997E+03  0.22460414930E+03  0.00000000000E+00 0.  1.
         13    1    3    3    0    0 -0.65335268281E+01  0.48183858477E+02 -0.17377027184E+03  0.18044522317E+03  0.00000000000E+00 0. -1.
<mgrwt>
<rscale>  0 0.97869240E+02</rscale>
<asrwt>0</asrwt>
<pdfrwt beam="2">  1        2 0.61392094E-01 0.97869240E+02</pdfrwt>
<pdfrwt beam="1">  1       -2 0.92319466E-03 0.97869240E+02</pdfrwt>
<totfact> 0.16513281E+05</totfact>
</mgrwt>
</event>
<event>
 5    1  0.6112843E+000  0.9146670E+02  0.7546771E-02  0.1299338E+00
         -3   -1    0    0    0  501 -0.00000000000E+00  0.00000000000E+00  0.15007971239E+02  0.15007971239E+02  0.00000000000E+00 0.  1.
          3   -1    0    0  501    0  0.00000000000E+00 -0.00000000000E+00 -0.13936189635E+03  0.13936189635E+03  0.00000000000E+00 0. -1.
         23    2    1    2    0    0  0.00000000000E+00  0.00000000000E+00 -0.12435392511E+03  0.15436986759E+03  0.91466700655E+02 0.  0.
        -13    1    3    3    0    0  0.28202817691E+02  0.38686959261E+01 -0.17677036142E+01  0.28521755029E+02  0.00000000000E+00 0.  1.
         13    1    3    3    0    0 -0.28202817691E+02 -0.38686959261E+01 -0.12258622150E+03  0.12584811256E+03  0.00000000000E+00 0. -1.
<mgrwt>
<rscale>  0 0.91466701E+02</rscale>
<asrwt>0</asrwt>
<pdfrwt beam="2">  1        3 0.21440292E-01 0.91466701E+02</pdfrwt>
<pdfrwt beam="1">  1       -3 0.23089186E-02 0.91466701E+02</pdfrwt>
<totfact> 0.30775751E+04</totfact>
</mgrwt>
</event>
<event>
 5    1  0.6112843E+000  0.8955670E+02  0.7546771E-02  0.1303929E+00
          2   -1    0    0  501    0  0.00000000000E+00  0.00000000000E+00  0.44589669628E+02  0.44589669628E+02  0.00000000000E+00 0. -1.
         -2   -1    0    0    0  501 -0.00000000000E+00 -0.00000000000E+00 -0.44967827471E+02  0.44967827471E+02  0.00000000000E+00 0.  1.
         23    2    1    2    0    0  0.00000000000E+00  0.00000000000E+00 -0.37815784287E+00  0.89557497099E+02  0.89556698706E+02 0.  0.
        -13    1    3    3    0    0  0.25705257165E+02  0.26917543007E+02 -0.25084806548E+02  0.44883871124E+02  0.00000000000E+00 0.  1.
         13    1    3    3    0    0 -0.25705257165E+02 -0.26917543007E+02  0.24706648705E+02  0.44673625975E+02  0.00000000000E+00 0. -1.
<mgrwt>
<rscale>  0 0.89556699E+02</rscale>
<asrwt>0</asrwt>
<pdfrwt beam="1">  1        2 0.68599492E-02 0.89556699E+02</pdfrwt>
<pdfrwt beam="2">  1       -2 0.69181272E-02 0.89556699E+02</pdfrwt>
<totfact> 0.10328331E+05</totfact>
</mgrwt>
</event>
<event>
 5    1  0.6112843E+000  0.9035094E+02  0.7546771E-02  0.1302004E+00
         -1   -1    0    0    0  501 -0.00000000000E+00  0.00000000000E+00  0.34038531981E+02  0.34038531981E+02  0.00000000000E+00 0.  1.
          1   -1    0    0  501    0  0.00000000000E+00 -0.00000000000E+00 -0.59956261181E+02  0.59956261181E+02  0.00000000000E+00 0. -1.
         23    2    1    2    0    0  0.00000000000E+00  0.00000000000E+00 -0.25917729200E+02  0.93994793162E+02  0.90350940531E+02 0.  0.
        -13    1    3    3    0    0 -0.26311138301E+02  0.51932417935E+01 -0.50778506548E+02  0.57425625693E+02  0.00000000000E+00 0. -1.
         13    1    3    3    0    0  0.26311138301E+02 -0.51932417935E+01  0.24860777348E+02  0.36569167469E+02  0.00000000000E+00 0.  1.
<mgrwt>
<rscale>  0 0.90350941E+02</rscale>
<asrwt>0</asrwt>
<pdfrwt beam="2">  1        1 0.92240401E-02 0.90350941E+02</pdfrwt>
<pdfrwt beam="1">  1       -1 0.52366972E-02 0.90350941E+02</pdfrwt>
<totfact> 0.98820450E+04</totfact>
</mgrwt>
</event>
<event>
 5    1  0.6112843E+000  0.9984491E+02  0.7546771E-02  0.1280622E+00
         -2   -1    0    0    0  501 -0.00000000000E+00  0.00000000000E+00  0.10027377560E+02  0.10027377560E+02  0.00000000000E+00 0. -1.
          2   -1    0    0  501    0  0.00000000000E+00 -0.00000000000E+00 -0.24854469402E+03  0.24854469402E+03  0.00000000000E+00 0.  1.
         23    2    1    2    0    0  0.00000000000E+00  0.00000000000E+00 -0.23851731646E+03  0.25857207158E+03  0.99844909485E+02 0.  0.
        -13    1    3    3    0    0 -0.45767325919E+02  0.31869371789E+01 -0.68283131178E+02  0.82264151936E+02  0.00000000000E+00 0. -1.
         13    1    3    3    0    0  0.45767325919E+02 -0.31869371789E+01 -0.17023418528E+03  0.17630791965E+03  0.00000000000E+00 0.  1.
<mgrwt>
<rscale>  0 0.99844909E+02</rscale>
<asrwt>0</asrwt>
<pdfrwt beam="2">  1        2 0.38237645E-01 0.99844909E+02</pdfrwt>
<pdfrwt beam="1">  1       -2 0.15426735E-02 0.99844909E+02</pdfrwt>
<totfact> 0.13114636E+05</totfact>
</mgrwt>
</event>
<event>
 5    1  0.6112843E+000  0.8611883E+02  0.7546771E-02  0.1312532E+00
         -1   -1    0    0    0  501 -0.00000000000E+00  0.00000000000E+00  0.51673173204E+02  0.51673173204E+02  0.00000000000E+00 0.  1.
          1   -1    0    0  501    0  0.00000000000E+00 -0.00000000000E+00 -0.35881544650E+02  0.35881544650E+02  0.00000000000E+00 0. -1.
         23    2    1    2    0    0  0.00000000000E+00  0.00000000000E+00  0.15791628554E+02  0.87554717854E+02  0.86118831193E+02 0.  0.
        -13    1    3    3    0    0  0.68772792212E+01  0.34545102524E+02 -0.17285117002E+02  0.39235651488E+02  0.00000000000E+00 0. -1.
         13    1    3    3    0    0 -0.68772792212E+01 -0.34545102524E+02  0.33076745557E+02  0.48319066366E+02  0.00000000000E+00 0.  1.
<mgrwt>
<rscale>  0 0.86118831E+02</rscale>
<asrwt>0</asrwt>
<pdfrwt beam="2">  1        1 0.55202376E-02 0.86118831E+02</pdfrwt>
<pdfrwt beam="1">  1       -1 0.79497189E-02 0.86118831E+02</pdfrwt>
<totfact> 0.10476330E+05</totfact>
</mgrwt>
</event>
<event>
 5    1  0.6112843E+000  0.9443808E+02  0.7546771E-02  0.1292447E+00
          2   -1    0    0  501    0  0.00000000000E+00  0.00000000000E+00  0.23195831671E+03  0.23195831671E+03  0.00000000000E+00 0. -1.
         -2   -1    0    0    0  501 -0.00000000000E+00 -0.00000000000E+00 -0.96122341620E+01  0.96122341620E+01  0.00000000000E+00 0.  1.
         23    2    1    2    0    0  0.00000000000E+00  0.00000000000E+00  0.22234608255E+03  0.24157055088E+03  0.94438078254E+02 0.  0.
        -13    1    3    3    0    0  0.37217941211E+02  0.23075407313E+02  0.65990999457E+02  0.79198873603E+02  0.00000000000E+00 0.  1.
         13    1    3    3    0    0 -0.37217941211E+02 -0.23075407313E+02  0.15635508309E+03  0.16237167727E+03  0.00000000000E+00 0. -1.
<mgrwt>
<rscale>  0 0.94438078E+02</rscale>
<asrwt>0</asrwt>
<pdfrwt beam="1">  1        2 0.35685891E-01 0.94438078E+02</pdfrwt>
<pdfrwt beam="2">  1       -2 0.14788054E-02 0.94438078E+02</pdfrwt>
<totfact> 0.14855372E+05</totfact>
</mgrwt>
</event>
<event>
 5    1  0.6112843E+000  0.9062845E+02  0.7546771E-02  0.1301337E+00
         -2   -1    0    0    0  501 -0.00000000000E+00  0.00000000000E+00  0.18049938822E+02  0.18049938822E+02  0.00000000000E+00 0.  1.
          2   -1    0    0  501    0  0.00000000000E+00 -0.00000000000E+00 -0.11376098655E+03  0.11376098655E+03  0.00000000000E+00 0. -1.
         23    2    1    2    0    0  0.00000000000E+00  0.00000000000E+00 -0.95711047730E+02  0.13181092537E+03  0.90628446916E+02 0.  0.
        -13    1    3    3    0    0  0.36575680651E+02  0.72674269263E+01 -0.85298687115E+02  0.93093834021E+02  0.00000000000E+00 0. -1.
         13    1    3    3    0    0 -0.36575680651E+02 -0.72674269263E+01 -0.10412360615E+02  0.38717091353E+02  0.00000000000E+00 0.  1.
<mgrwt>
<rscale>  0 0.90628447E+02</rscale>
<asrwt>0</asrwt>
<pdfrwt beam="2">  1        2 0.17501690E-01 0.90628447E+02</pdfrwt>
<pdfrwt beam="1">  1       -2 0.27769137E-02 0.90628447E+02</pdfrwt>
<totfact> 0.12980434E+05</totfact>
</mgrwt>
</event>
<event>
 5    1  0.6112843E+000  0.9191217E+02  0.7546771E-02  0.1298286E+00
         -1   -1    0    0    0  501 -0.00000000000E+00  0.00000000000E+00  0.38086264462E+02  0.38086264462E+02  0.00000000000E+00 0.  1.
          1   -1    0    0  501    0  0.00000000000E+00 -0.00000000000E+00 -0.55452052670E+02  0.55452052670E+02  0.00000000000E+00 0. -1.
         23    2    1    2    0    0  0.00000000000E+00  0.00000000000E+00 -0.17365788208E+02  0.93538317132E+02  0.91912165526E+02 0.  0.
        -13    1    3    3    0    0  0.57881873211E+00  0.41831157285E+02 -0.28039950091E+02  0.50362878711E+02  0.00000000000E+00 0.  1.
         13    1    3    3    0    0 -0.57881873211E+00 -0.41831157285E+02  0.10674161884E+02  0.43175438421E+02  0.00000000000E+00 0. -1.
<mgrwt>
<rscale>  0 0.91912166E+02</rscale>
<asrwt>0</asrwt>
<pdfrwt beam="2">  1        1 0.85310849E-02 0.91912166E+02</pdfrwt>
<pdfrwt beam="1">  1       -1 0.58594254E-02 0.91912166E+02</pdfrwt>
<totfact> 0.93124032E+04</totfact>
</mgrwt>
</event>
<event>
 5    1  0.6112843E+000  0.9103022E+02  0.7546771E-02  0.1300376E+00
         -1   -1    0    0    0  501 -0.00000000000E+00  0.00000000000E+00  0.90151863286E+02  0.90151863286E+02  0.00000000000E+00 0.  1.
          1   -1    0    0  501    0  0.00000000000E+00 -0.00000000000E+00 -0.22979283431E+02  0.22979283431E+02  0.00000000000E+00 0. -1.
         23    2    1    2    0    0  0.00000000000E+00  0.00000000000E+00  0.67172579855E+02  0.11313114672E+03  0.91030219561E+02 0.  0.
        -13    1    3    3    0    0 -0.31536935511E+02 -0.31328201391E+02  0.21435501666E+02  0.49350939560E+02  0.00000000000E+00 0. -1.
         13    1    3    3    0    0  0.31536935511E+02  0.31328201391E+02  0.45737078188E+02  0.63780207157E+02  0.00000000000E+00 0.  1.
<mgrwt>
<rscale>  0 0.91030220E+02</rscale>
<asrwt>0</asrwt>
<pdfrwt beam="2">  1        1 0.35352744E-02 0.91030220E+02</pdfrwt>
<pdfrwt beam="1">  1       -1 0.13869517E-01 0.91030220E+02</pdfrwt>
<totfact> 0.83261105E+04</totfact>
</mgrwt>
</event>
<event>
 5    1  0.6112843E+000  0.9133704E+02  0.7546771E-02  0.1299646E+00
          2   -1    0    0  501    0  0.00000000000E+00  0.00000000000E+00  0.10779905284E+03  0.10779905284E+03  0.00000000000E+00 0. -1.
         -2   -1    0    0    0  501 -0.00000000000E+00 -0.00000000000E+00 -0.19347235840E+02  0.19347235840E+02  0.00000000000E+00 0.  1.
         23    2    1    2    0    0  0.00000000000E+00  0.00000000000E+00  0.88451816999E+02  0.12714628868E+03  0.91337039553E+02 0.  0.
        -13    1    3    3    0    0  0.21201614541E+02  0.16070521934E+01  0.10048844836E+03  0.10271328701E+03  0.00000000000E+00 0. -1.
         13    1    3    3    0    0 -0.21201614541E+02 -0.16070521934E+01 -0.12036631358E+02  0.24433001665E+02  0.00000000000E+00 0.  1.
<mgrwt>
<rscale>  0 0.91337040E+02</rscale>
<asrwt>0</asrwt>
<pdfrwt beam="1">  1        2 0.16584469E-01 0.91337040E+02</pdfrwt>
<pdfrwt beam="2">  1       -2 0.29764979E-02 0.91337040E+02</pdfrwt>
<totfact> 0.12494011E+05</totfact>
</mgrwt>
</event>
<event>
 5    1  0.6112843E+000  0.9151500E+02  0.7546771E-02  0.1299224E+00
          2   -1    0    0  501    0  0.00000000000E+00  0.00000000000E+00  0.71542224512E+02  0.71542224512E+02  0.00000000000E+00 0. -1.
         -2   -1    0    0    0  501 -0.00000000000E+00 -0.00000000000E+00 -0.29265915343E+02  0.29265915343E+02  0.00000000000E+00 0.  1.
         23    2    1    2    0    0  0.00000000000E+00  0.00000000000E+00  0.42276309169E+02  0.10080813986E+03  0.91514997373E+02 0.  0.
        -13    1    3    3    0    0  0.43846596474E+02  0.28066743491E+01  0.70595622449E+01  0.44499874857E+02  0.00000000000E+00 0.  1.
         13    1    3    3    0    0 -0.43846596474E+02 -0.28066743491E+01  0.35216746924E+02  0.56308264998E+02  0.00000000000E+00 0. -1.
<mgrwt>
<rscale>  0 0.91514997E+02</rscale>
<asrwt>0</asrwt>
<pdfrwt beam="1">  1        2 0.11006496E-01 0.91514997E+02</pdfrwt>
<pdfrwt beam="2">  1       -2 0.45024485E-02 0.91514997E+02</pdfrwt>
<totfact> 0.11014418E+05</totfact>
</mgrwt>
</event>
<event>
 5    1  0.6112843E+000  0.9384398E+02  0.7546771E-02  0.1293801E+00
         -2   -1    0    0    0  501 -0.00000000000E+00  0.00000000000E+00  0.45553795280E+01  0.45553795280E+01  0.00000000000E+00 0.  1.
          2   -1    0    0  501    0  0.00000000000E+00 -0.00000000000E+00 -0.48331276668E+03  0.48331276668E+03  0.00000000000E+00 0. -1.
         23    2    1    2    0    0  0.00000000000E+00  0.00000000000E+00 -0.47875738716E+03  0.48786814621E+03  0.93843978666E+02 0.  0.
        -13    1    3    3    0    0  0.23446193254E+02 -0.40268985976E+02 -0.26802256553E+03  0.27204303124E+03  0.00000000000E+00 0.  1.
         13    1    3    3    0    0 -0.23446193254E+02  0.40268985976E+02 -0.21073482162E+03  0.21582511498E+03  0.00000000000E+00 0. -1.
<mgrwt>
<rscale>  0 0.93843979E+02</rscale>
<asrwt>0</asrwt>
<pdfrwt beam="2">  1        2 0.74355818E-01 0.93843979E+02</pdfrwt>
<pdfrwt beam="1">  1       -2 0.70082755E-03 0.93843979E+02</pdfrwt>
<totfact> 0.19741693E+05</totfact>
</mgrwt>
</event>
<event>
 5    1  0.6112843E+000  0.9116085E+02  0.7546771E-02  0.1300065E+00
          1   -1    0    0  501    0  0.00000000000E+00  0.00000000000E+00  0.13650919212E+03  0.13650919212E+03  0.00000000000E+00 0. -1.
         -1   -1    0    0    0  501 -0.00000000000E+00 -0.00000000000E+00 -0.15219304601E+02  0.15219304601E+02  0.00000000000E+00 0.  1.
         23    2    1    2    0    0  0.00000000000E+00  0.00000000000E+00  0.12128988752E+03  0.15172849672E+03  0.91160846324E+02 0.  0.
        -13    1    3    3    0    0  0.20517020553E+01 -0.24557353720E+02  0.12446571700E+03  0.12688178676E+03  0.00000000000E+00 0. -1.
         13    1    3    3    0    0 -0.20517020553E+01  0.24557353720E+02 -0.31758294797E+01  0.24846709962E+02  0.00000000000E+00 0.  1.
<mgrwt>
<rscale>  0 0.91160846E+02</rscale>
<asrwt>0</asrwt>
<pdfrwt beam="1">  1        1 0.21001413E-01 0.91160846E+02</pdfrwt>
<pdfrwt beam="2">  1       -1 0.23414316E-02 0.91160846E+02</pdfrwt>
<totfact> 0.11027883E+05</totfact>
</mgrwt>
</event>
<event>
 5    1  0.6112843E+000  0.9086230E+02  0.7546771E-02  0.1300777E+00
          3   -1    0    0  501    0  0.00000000000E+00  0.00000000000E+00  0.22834450340E+02  0.22834450340E+02  0.00000000000E+00 0. -1.
         -3   -1    0    0    0  501 -0.00000000000E+00 -0.00000000000E+00 -0.90389266320E+02  0.90389266320E+02  0.00000000000E+00 0.  1.
         23    2    1    2    0    0  0.00000000000E+00  0.00000000000E+00 -0.67554815981E+02  0.11322371666E+03  0.90862296098E+02 0.  0.
        -13    1    3    3    0    0  0.33592236054E+02 -0.26663979419E+02 -0.52451617521E+02  0.67753806551E+02  0.00000000000E+00 0.  1.
         13    1    3    3    0    0 -0.33592236054E+02  0.26663979419E+02 -0.15103198459E+02  0.45469910109E+02  0.00000000000E+00 0. -1.
<mgrwt>
<rscale>  0 0.90862296E+02</rscale>
<asrwt>0</asrwt>
<pdfrwt beam="1">  1        3 0.35129924E-02 0.90862296E+02</pdfrwt>
<pdfrwt beam="2">  1       -3 0.13906041E-01 0.90862296E+02</pdfrwt>
<totfact> 0.34036070E+04</totfact>
</mgrwt>
</event>
<event>
 5    1  0.6112843E+000  0.9063845E+02  0.7546771E-02  0.1301313E+00
         -1   -1    0    0    0  501 -0.00000000000E+00  0.00000000000E+00  0.18645435263E+02  0.18645435263E+02  0.00000000000E+00 0.  1.
          1   -1    0    0  501    0  0.00000000000E+00 -0.00000000000E+00 -0.11015201345E+03  0.11015201345E+03  0.00000000000E+00 0. -1.
         23    2    1    2    0    0  0.00000000000E+00  0.00000000000E+00 -0.91506578186E+02  0.12879744871E+03  0.90638451794E+02 0.  0.
        -13    1    3    3    0    0 -0.41150583751E+01  0.42990621891E+02 -0.26232991274E+02  0.50530160371E+02  0.00000000000E+00 0.  1.
         13    1    3    3    0    0  0.41150583751E+01 -0.42990621891E+02 -0.65273586911E+02  0.78267288341E+02  0.00000000000E+00 0. -1.
<mgrwt>
<rscale>  0 0.90638452E+02</rscale>
<asrwt>0</asrwt>
<pdfrwt beam="2">  1        1 0.16946464E-01 0.90638452E+02</pdfrwt>
<pdfrwt beam="1">  1       -1 0.28685285E-02 0.90638452E+02</pdfrwt>
<totfact> 0.10788620E+05</totfact>
</mgrwt>
</event>
<event>
 5    1  0.6112843E+000  0.9138109E+02  0.7546771E-02  0.1299541E+00
         -2   -1    0    0    0  501 -0.00000000000E+00  0.00000000000E+00  0.11481752904E+02  0.11481752904E+02  0.00000000000E+00 0.  1.
          2   -1    0    0  501    0  0.00000000000E+00 -0.00000000000E+00 -0.18182117869E+03  0.18182117869E+03  0.00000000000E+00 0. -1.
         23    2    1    2    0    0  0.00000000000E+00  0.00000000000E+00 -0.17033942579E+03  0.19330293159E+03  0.91381088774E+02 0.  0.
        -13    1    3    3    0    0  0.42756517133E+02  0.25384947074E+01 -0.11882053626E+03  0.12630472497E+03  0.00000000000E+00 0. -1.
         13    1    3    3    0    0 -0.42756517133E+02 -0.25384947074E+01 -0.51518889524E+02  0.66998206621E+02  0.00000000000E+00 0.  1.
<mgrwt>
<rscale>  0 0.91381089E+02</rscale>
<asrwt>0</asrwt>
<pdfrwt beam="2">  1        2 0.27972487E-01 0.91381089E+02</pdfrwt>
<pdfrwt beam="1">  1       -2 0.17664236E-02 0.91381089E+02</pdfrwt>
<totfact> 0.14857950E+05</totfact>
</mgrwt>
</event>
<event>
 5    1  0.6112843E+000  0.9130733E+02  0.7546771E-02  0.1299716E+00
          3   -1    0    0  501    0  0.00000000000E+00  0.00000000000E+00  0.22063295144E+02  0.22063295144E+02  0.00000000000E+00 0. -1.
         -3   -1    0    0    0  501 -0.00000000000E+00 -0.00000000000E+00 -0.94467167075E+02  0.94467167075E+02  0.00000000000E+00 0.  1.
         23    2    1    2    0    0  0.00000000000E+00  0.00000000000E+00 -0.72403871931E+02  0.11653046222E+03  0.91307326948E+02 0.  0.
        -13    1    3    3    0    0 -0.15921780376E+02  0.18602636880E+02 -0.85377865764E+02  0.88819711504E+02  0.00000000000E+00 0.  1.
         13    1    3    3    0    0  0.15921780376E+02 -0.18602636880E+02  0.12973993833E+02  0.27710750715E+02  0.00000000000E+00 0. -1.
<mgrwt>
<rscale>  0 0.91307327E+02</rscale>
<asrwt>0</asrwt>
<pdfrwt beam="1">  1        3 0.33943531E-02 0.91307327E+02</pdfrwt>
<pdfrwt beam="2">  1       -3 0.14533410E-01 0.91307327E+02</pdfrwt>
<totfact> 0.33356920E+04</totfact>
</mgrwt>
</event>
<event>
 5    1  0.6112843E+000  0.1212800E+03  0.7546771E-02  0.1241000E+00
         -2   -1    0    0    0  501 -0.00000000000E+00  0.00000000000E+00  0.11786898277E+02  0.11786898277E+02  0.00000000000E+00 0.  1.
          2   -1    0    0  501    0  0.00000000000E+00 -0.00000000000E+00 -0.31197457175E+03  0.31197457175E+03  0.00000000000E+00 0. -1.
         23    2    1    2    0    0  0.00000000000E+00  0.00000000000E+00 -0.30018767347E+03  0.32376147002E+03  0.12128004852E+03 0.  0.
        -13    1    3    3    0    0 -0.53291687696E+02 -0.13523040625E+02 -0.21838054649E+03  0.22519533674E+03  0.00000000000E+00 0.  1.
         13    1    3    3    0    0  0.53291687696E+02  0.13523040625E+02 -0.81807126981E+02  0.98566133282E+02  0.00000000000E+00 0. -1.
<mgrwt>
<rscale>  0 0.12128005E+03</rscale>
<asrwt>0</asrwt>
<pdfrwt beam="2">  1        2 0.47996096E-01 0.12128005E+03</pdfrwt>
<pdfrwt beam="1">  1       -2 0.18133687E-02 0.12128005E+03</pdfrwt>
<totfact> 0.84129945E+04</totfact>
</mgrwt>
</event>
<event>
 5    1  0.6112843E+000  0.9117930E+02  0.7546771E-02  0.1300021E+00
         -2   -1    0    0    0  501 -0.00000000000E+00  0.00000000000E+00  0.37730396161E+03  0.37730396161E+03  0.00000000000E+00 0.  1.
          2   -1    0    0  501    0  0.00000000000E+00 -0.00000000000E+00 -0.55085994379E+01  0.55085994379E+01  0.00000000000E+00 0. -1.
         23    2    1    2    0    0  0.00000000000E+00  0.00000000000E+00  0.37179536218E+03  0.38281256105E+03  0.91179304469E+02 0.  0.
        -13    1    3    3    0    0 -0.32221542576E+02 -0.31864454147E+02  0.20682486004E+03  0.21173118328E+03  0.00000000000E+00 0.  1.
         13    1    3    3    0    0  0.32221542576E+02  0.31864454147E+02  0.16497050214E+03  0.17108137777E+03  0.00000000000E+00 0. -1.
<mgrwt>
<rscale>  0 0.91179304E+02</rscale>
<asrwt>0</asrwt>
<pdfrwt beam="2">  1        2 0.84747713E-03 0.91179304E+02</pdfrwt>
<pdfrwt beam="1">  1       -2 0.58046743E-01 0.91179304E+02</pdfrwt>
<totfact> 0.44377696E+04</totfact>
</mgrwt>
</event>
<event>
 5    1  0.6112843E+000  0.9156293E+02  0.7546771E-02  0.1299110E+00
          2   -1    0    0  501    0  0.00000000000E+00  0.00000000000E+00  0.23166720427E+03  0.23166720427E+03  0.00000000000E+00 0. -1.
         -2   -1    0    0    0  501 -0.00000000000E+00 -0.00000000000E+00 -0.90472120668E+01  0.90472120668E+01  0.00000000000E+00 0.  1.
         23    2    1    2    0    0  0.00000000000E+00  0.00000000000E+00  0.22261999221E+03  0.24071441634E+03  0.91562925379E+02 0.  0.
        -13    1    3    3    0    0  0.27249922747E+02  0.32712514965E+02  0.15555730606E+03  0.16127846228E+03  0.00000000000E+00 0.  1.
         13    1    3    3    0    0 -0.27249922747E+02 -0.32712514965E+02  0.67062686146E+02  0.79435954065E+02  0.00000000000E+00 0. -1.
<mgrwt>
<rscale>  0 0.91562925E+02</rscale>
<asrwt>0</asrwt>
<pdfrwt beam="1">  1        2 0.35641104E-01 0.91562925E+02</pdfrwt>
<pdfrwt beam="2">  1       -2 0.13918790E-02 0.91562925E+02</pdfrwt>
<totfact> 0.16136613E+05</totfact>
</mgrwt>
</event>
<event>
 5    1  0.6112843E+000  0.7977866E+02  0.7546771E-02  0.1329681E+00
          1   -1    0    0  501    0  0.00000000000E+00  0.00000000000E+00  0.73284956070E+02  0.73284956070E+02  0.00000000000E+00 0. -1.
         -1   -1    0    0    0  501 -0.00000000000E+00 -0.00000000000E+00 -0.21711941691E+02  0.21711941691E+02  0.00000000000E+00 0.  1.
         23    2    1    2    0    0  0.00000000000E+00  0.00000000000E+00  0.51573014380E+02  0.94996897761E+02  0.79778661132E+02 0.  0.
        -13    1    3    3    0    0 -0.68862688747E+01 -0.31351846781E+02 -0.24120290340E+01  0.32189701454E+02  0.00000000000E+00 0.  1.
         13    1    3    3    0    0  0.68862688747E+01  0.31351846781E+02  0.53985043414E+02  0.62807196307E+02  0.00000000000E+00 0. -1.
<mgrwt>
<rscale>  0 0.79778661E+02</rscale>
<asrwt>0</asrwt>
<pdfrwt beam="1">  1        1 0.11274608E-01 0.79778661E+02</pdfrwt>
<pdfrwt beam="2">  1       -1 0.33402988E-02 0.79778661E+02</pdfrwt>
<totfact> 0.14300807E+05</totfact>
</mgrwt>
</event>
<event>
 5    1  0.6112843E+000  0.9167250E+02  0.7546771E-02  0.1298851E+00
         -4   -1    0    0    0  501 -0.00000000000E+00  0.00000000000E+00  0.17778798909E+02  0.17778798909E+02  0.00000000000E+00 0.  1.
          4   -1    0    0  501    0  0.00000000000E+00 -0.00000000000E+00 -0.11817232306E+03  0.11817232306E+03  0.00000000000E+00 0. -1.
         23    2    1    2    0    0  0.00000000000E+00  0.00000000000E+00 -0.10039352416E+03  0.13595112197E+03  0.91672503366E+02 0.  0.
        -13    1    3    3    0    0 -0.37518319215E+02  0.24585483030E+02 -0.64178924716E+02  0.78300731991E+02  0.00000000000E+00 0. -1.
         13    1    3    3    0    0  0.37518319215E+02 -0.24585483030E+02 -0.36214599439E+02  0.57650389982E+02  0.00000000000E+00 0.  1.
<mgrwt>
<rscale>  0 0.91672503E+02</rscale>
<asrwt>0</asrwt>
<pdfrwt beam="2">  1        4 0.18180358E-01 0.91672503E+02</pdfrwt>
<pdfrwt beam="1">  1       -4 0.27351997E-02 0.91672503E+02</pdfrwt>
<totfact> 0.24043549E+04</totfact>
</mgrwt>
</event>
<event>
 5    1  0.6112843E+000  0.6135084E+02  0.7546771E-02  0.1392249E+00
         -2   -1    0    0    0  501 -0.00000000000E+00  0.00000000000E+00  0.23878375854E+03  0.23878375854E+03  0.00000000000E+00 0.  1.
          2   -1    0    0  501    0  0.00000000000E+00 -0.00000000000E+00 -0.39407262479E+01  0.39407262479E+01  0.00000000000E+00 0. -1.
         23    2    1    2    0    0  0.00000000000E+00  0.00000000000E+00  0.23484303229E+03  0.24272448479E+03  0.61350841065E+02 0.  0.
        -13    1    3    3    0    0 -0.50283191165E+01  0.28272133658E+02  0.16010299923E+03  0.16265782458E+03  0.00000000000E+00 0.  1.
         13    1    3    3    0    0  0.50283191165E+01 -0.28272133658E+02  0.74740033065E+02  0.80066660211E+02  0.00000000000E+00 0. -1.
<mgrwt>
<rscale>  0 0.61350841E+02</rscale>
<asrwt>0</asrwt>
<pdfrwt beam="2">  1        2 0.60626576E-03 0.61350841E+02</pdfrwt>
<pdfrwt beam="1">  1       -2 0.36735951E-01 0.61350841E+02</pdfrwt>
<totfact> 0.15698699E+05</totfact>
</mgrwt>
</event>
<event>
 5    1  0.6112843E+000  0.9383993E+02  0.7546771E-02  0.1293810E+00
         -4   -1    0    0    0  501 -0.00000000000E+00  0.00000000000E+00  0.73275413052E+02  0.73275413052E+02  0.00000000000E+00 0.  1.
          4   -1    0    0  501    0  0.00000000000E+00 -0.00000000000E+00 -0.30043954598E+02  0.30043954598E+02  0.00000000000E+00 0. -1.
         23    2    1    2    0    0  0.00000000000E+00  0.00000000000E+00  0.43231458454E+02  0.10331936765E+03  0.93839931435E+02 0.  0.
        -13    1    3    3    0    0 -0.26465308213E+02 -0.38604037518E+02  0.17997596881E+02  0.50145764976E+02  0.00000000000E+00 0.  1.
         13    1    3    3    0    0  0.26465308213E+02  0.38604037518E+02  0.25233861572E+02  0.53173602675E+02  0.00000000000E+00 0. -1.
<mgrwt>
<rscale>  0 0.93839931E+02</rscale>
<asrwt>0</asrwt>
<pdfrwt beam="2">  1        4 0.46221469E-02 0.93839931E+02</pdfrwt>
<pdfrwt beam="1">  1       -4 0.11273140E-01 0.93839931E+02</pdfrwt>
<totfact> 0.24277302E+04</totfact>
</mgrwt>
</event>
<event>
 5    1  0.6112843E+000  0.9160190E+02  0.7546771E-02  0.1299018E+00
         -1   -1    0    0    0  501 -0.00000000000E+00  0.00000000000E+00  0.52387111603E+02  0.52387111603E+02  0.00000000000E+00 0.  1.
          1   -1    0    0  501    0  0.00000000000E+00 -0.00000000000E+00 -0.40042806815E+02  0.40042806815E+02  0.00000000000E+00 0. -1.
         23    2    1    2    0    0  0.00000000000E+00  0.00000000000E+00  0.12344304788E+02  0.92429918419E+02  0.91601899315E+02 0.  0.
        -13    1    3    3    0    0  0.28755276640E+02 -0.20137969772E+02 -0.23510128595E+02  0.42250797717E+02  0.00000000000E+00 0. -1.
         13    1    3    3    0    0 -0.28755276640E+02  0.20137969772E+02  0.35854433383E+02  0.50179120702E+02  0.00000000000E+00 0.  1.
<mgrwt>
<rscale>  0 0.91601899E+02</rscale>
<asrwt>0</asrwt>
<pdfrwt beam="2">  1        1 0.61604318E-02 0.91601899E+02</pdfrwt>
<pdfrwt beam="1">  1       -1 0.80595557E-02 0.91601899E+02</pdfrwt>
<totfact> 0.89493325E+04</totfact>
</mgrwt>
</event>
<event>
 5    1  0.6112843E+000  0.9103326E+02  0.7546771E-02  0.1300369E+00
          3   -1    0    0  501    0  0.00000000000E+00  0.00000000000E+00  0.24971240261E+03  0.24971240261E+03  0.00000000000E+00 0. -1.
         -3   -1    0    0    0  501 -0.00000000000E+00 -0.00000000000E+00 -0.82965982741E+01  0.82965982741E+01  0.00000000000E+00 0.  1.
         23    2    1    2    0    0  0.00000000000E+00  0.00000000000E+00  0.24141580434E+03  0.25800900088E+03  0.91033257407E+02 0.  0.
        -13    1    3    3    0    0 -0.11735848769E+02  0.33648554218E+02  0.20096251512E+03  0.20409774088E+03  0.00000000000E+00 0. -1.
         13    1    3    3    0    0  0.11735848769E+02 -0.33648554218E+02  0.40453289214E+02  0.53911260007E+02  0.00000000000E+00 0.  1.
<mgrwt>
<rscale>  0 0.91033257E+02</rscale>
<asrwt>0</asrwt>
<pdfrwt beam="1">  1        3 0.38417287E-01 0.91033257E+02</pdfrwt>
<pdfrwt beam="2">  1       -3 0.12763999E-02 0.91033257E+02</pdfrwt>
<totfact> 0.25861693E+04</totfact>
</mgrwt>
</event>
<event>
 5    1  0.6112843E+000  0.8374707E+02  0.7546771E-02  0.1318742E+00
          2   -1    0    0  501    0  0.00000000000E+00  0.00000000000E+00  0.99976702059E+01  0.99976702059E+01  0.00000000000E+00 0. -1.
         -2   -1    0    0    0  501 -0.00000000000E+00 -0.00000000000E+00 -0.17538013522E+03  0.17538013522E+03  0.00000000000E+00 0.  1.
         23    2    1    2    0    0  0.00000000000E+00  0.00000000000E+00 -0.16538246502E+03  0.18537780543E+03  0.83747065683E+02 0.  0.
        -13    1    3    3    0    0 -0.38943459953E+02 -0.14978597117E+02 -0.90498897243E+02  0.99654412079E+02  0.00000000000E+00 0.  1.
         13    1    3    3    0    0  0.38943459953E+02  0.14978597117E+02 -0.74883567773E+02  0.85723393348E+02  0.00000000000E+00 0. -1.
<mgrwt>
<rscale>  0 0.83747066E+02</rscale>
<asrwt>0</asrwt>
<pdfrwt beam="1">  1        2 0.15381032E-02 0.83747066E+02</pdfrwt>
<pdfrwt beam="2">  1       -2 0.26981558E-01 0.83747066E+02</pdfrwt>
<totfact> 0.81679168E+04</totfact>
</mgrwt>
</event>
<event>
 5    1  0.6112843E+000  0.9006883E+02  0.7546771E-02  0.1302685E+00
         -2   -1    0    0    0  501 -0.00000000000E+00  0.00000000000E+00  0.11165272110E+02  0.11165272110E+02  0.00000000000E+00 0.  1.
          2   -1    0    0  501    0  0.00000000000E+00 -0.00000000000E+00 -0.18164344520E+03  0.18164344520E+03  0.00000000000E+00 0. -1.
         23    2    1    2    0    0  0.00000000000E+00  0.00000000000E+00 -0.17047817309E+03  0.19280871731E+03  0.90068829071E+02 0.  0.
        -13    1    3    3    0    0 -0.26470172977E+02 -0.24324767236E+02 -0.27174331086E+02  0.45064494100E+02  0.00000000000E+00 0.  1.
         13    1    3    3    0    0  0.26470172977E+02  0.24324767236E+02 -0.14330384200E+03  0.14774422321E+03  0.00000000000E+00 0. -1.
<mgrwt>
<rscale>  0 0.90068829E+02</rscale>
<asrwt>0</asrwt>
<pdfrwt beam="2">  1        2 0.27945144E-01 0.90068829E+02</pdfrwt>
<pdfrwt beam="1">  1       -2 0.17177342E-02 0.90068829E+02</pdfrwt>
<totfact> 0.15443506E+05</totfact>
</mgrwt>
</event>
<event>
 5    1  0.6112843E+000  0.6623278E+02  0.7546771E-02  0.1373393E+00
         -3   -1    0    0    0  501 -0.00000000000E+00  0.00000000000E+00  0.48190079025E+01  0.48190079025E+01  0.00000000000E+00 0.  1.
          3   -1    0    0  501    0  0.00000000000E+00 -0.00000000000E+00 -0.22757696002E+03  0.22757696002E+03  0.00000000000E+00 0. -1.
         23    2    1    2    0    0  0.00000000000E+00  0.00000000000E+00 -0.22275795211E+03  0.23239596792E+03  0.66232776440E+02 0.  0.
        -13    1    3    3    0    0  0.31901865799E+02 -0.86030614206E+01 -0.11918823858E+03  0.12368337771E+03  0.00000000000E+00 0. -1.
         13    1    3    3    0    0 -0.31901865799E+02  0.86030614206E+01 -0.10356971354E+03  0.10871259021E+03  0.00000000000E+00 0.  1.
<mgrwt>
<rscale>  0 0.66232776E+02</rscale>
<asrwt>0</asrwt>
<pdfrwt beam="2">  1        3 0.35011847E-01 0.66232776E+02</pdfrwt>
<pdfrwt beam="1">  1       -3 0.74138567E-03 0.66232776E+02</pdfrwt>
<totfact> 0.62539506E+04</totfact>
</mgrwt>
</event>
<event>
 5    1  0.6112843E+000  0.8897164E+02  0.7546771E-02  0.1305361E+00
         -1   -1    0    0    0  501 -0.00000000000E+00  0.00000000000E+00  0.66696705779E+02  0.66696705779E+02  0.00000000000E+00 0.  1.
          1   -1    0    0  501    0  0.00000000000E+00 -0.00000000000E+00 -0.29671455365E+02  0.29671455365E+02  0.00000000000E+00 0. -1.
         23    2    1    2    0    0  0.00000000000E+00  0.00000000000E+00  0.37025250414E+02  0.96368161144E+02  0.88971643314E+02 0.  0.
        -13    1    3    3    0    0  0.17233705867E+02 -0.38731431922E+02  0.33119429157E+02  0.53796106033E+02  0.00000000000E+00 0.  1.
         13    1    3    3    0    0 -0.17233705867E+02  0.38731431922E+02  0.39058212570E+01  0.42572055111E+02  0.00000000000E+00 0. -1.
<mgrwt>
<rscale>  0 0.88971643E+02</rscale>
<asrwt>0</asrwt>
<pdfrwt beam="2">  1        1 0.45648393E-02 0.88971643E+02</pdfrwt>
<pdfrwt beam="1">  1       -1 0.10261032E-01 0.88971643E+02</pdfrwt>
<totfact> 0.92815370E+04</totfact>
</mgrwt>
</event>
<event>
 5    1  0.6112843E+000  0.9779233E+02  0.7546771E-02  0.1285008E+00
          1   -1    0    0  501    0  0.00000000000E+00  0.00000000000E+00  0.28464041808E+02  0.28464041808E+02  0.00000000000E+00 0. -1.
         -1   -1    0    0    0  501 -0.00000000000E+00 -0.00000000000E+00 -0.83994926021E+02  0.83994926021E+02  0.00000000000E+00 0.  1.
         23    2    1    2    0    0  0.00000000000E+00  0.00000000000E+00 -0.55530884212E+02  0.11245896783E+03  0.97792332745E+02 0.  0.
        -13    1    3    3    0    0 -0.12182876849E+02  0.24079563908E+02 -0.74655579304E+02  0.79383269066E+02  0.00000000000E+00 0.  1.
         13    1    3    3    0    0  0.12182876849E+02 -0.24079563908E+02  0.19124695092E+02  0.33075698763E+02  0.00000000000E+00 0. -1.
<mgrwt>
<rscale>  0 0.97792333E+02</rscale>
<asrwt>0</asrwt>
<pdfrwt beam="1">  1        1 0.43790834E-02 0.97792333E+02</pdfrwt>
<pdfrwt beam="2">  1       -1 0.12922296E-01 0.97792333E+02</pdfrwt>
<totfact> 0.70132494E+04</totfact>
</mgrwt>
</event>
<event>
 5    1  0.6112843E+000  0.9093400E+02  0.7546771E-02  0.1300606E+00
          3   -1    0    0  501    0  0.00000000000E+00  0.00000000000E+00  0.21846214627E+03  0.21846214627E+03  0.00000000000E+00 0. -1.
         -3   -1    0    0    0  501 -0.00000000000E+00 -0.00000000000E+00 -0.94627289383E+01  0.94627289383E+01  0.00000000000E+00 0.  1.
         23    2    1    2    0    0  0.00000000000E+00  0.00000000000E+00  0.20899941734E+03  0.22792487521E+03  0.90933999659E+02 0.  0.
        -13    1    3    3    0    0  0.43543158651E+02  0.12423756807E+02  0.94198177271E+02  0.10451628103E+03  0.00000000000E+00 0. -1.
         13    1    3    3    0    0 -0.43543158651E+02 -0.12423756807E+02  0.11480124007E+03  0.12340859419E+03  0.00000000000E+00 0.  1.
<mgrwt>
<rscale>  0 0.90934000E+02</rscale>
<asrwt>0</asrwt>
<pdfrwt beam="1">  1        3 0.33609557E-01 0.90934000E+02</pdfrwt>
<pdfrwt beam="2">  1       -3 0.14558046E-02 0.90934000E+02</pdfrwt>
<totfact> 0.27312005E+04</totfact>
</mgrwt>
</event>
<event>
 5    1  0.6112843E+000  0.9722571E+02  0.7546771E-02  0.1286240E+00
          2   -1    0    0  501    0  0.00000000000E+00  0.00000000000E+00  0.47288679586E+02  0.47288679586E+02  0.00000000000E+00 0.  1.
         -2   -1    0    0    0  501 -0.00000000000E+00 -0.00000000000E+00 -0.49974105343E+02  0.49974105343E+02  0.00000000000E+00 0. -1.
         23    2    1    2    0    0  0.00000000000E+00  0.00000000000E+00 -0.26854257578E+01  0.97262784929E+02  0.97225705555E+02 0.  0.
        -13    1    3    3    0    0 -0.21520898333E+02  0.28902094692E+02 -0.33985347391E+02  0.49532655693E+02  0.00000000000E+00 0. -1.
         13    1    3    3    0    0  0.21520898333E+02 -0.28902094692E+02  0.31299921633E+02  0.47730129236E+02  0.00000000000E+00 0.  1.
<mgrwt>
<rscale>  0 0.97225706E+02</rscale>
<asrwt>0</asrwt>
<pdfrwt beam="1">  1        2 0.72751815E-02 0.97225706E+02</pdfrwt>
<pdfrwt beam="2">  1       -2 0.76883239E-02 0.97225706E+02</pdfrwt>
<totfact> 0.82773480E+04</totfact>
</mgrwt>
</event>
<event>
 5    1  0.6112843E+000  0.9365688E+02  0.7546771E-02  0.1294230E+00
          4   -1    0    0  501    0  0.00000000000E+00  0.00000000000E+00  0.28994539375E+02  0.28994539375E+02  0.00000000000E+00 0. -1.
         -4   -1    0    0    0  501 -0.00000000000E+00 -0.00000000000E+00 -0.75631576508E+02  0.75631576508E+02  0.00000000000E+00 0.  1.
         23    2    1    2    0    0  0.00000000000E+00  0.00000000000E+00 -0.46637037133E+02  0.10462611588E+03  0.93656878509E+02 0.  0.
        -13    1    3    3    0    0  0.37632741185E+02  0.27864715743E+02 -0.23862512616E+02  0.52555543008E+02  0.00000000000E+00 0.  1.
         13    1    3    3    0    0 -0.37632741185E+02 -0.27864715743E+02 -0.22774524517E+02  0.52070572874E+02  0.00000000000E+00 0. -1.
<mgrwt>
<rscale>  0 0.93656879E+02</rscale>
<asrwt>0</asrwt>
<pdfrwt beam="1">  1        4 0.44606985E-02 0.93656879E+02</pdfrwt>
<pdfrwt beam="2">  1       -4 0.11635627E-01 0.93656879E+02</pdfrwt>
<totfact> 0.24333392E+04</totfact>
</mgrwt>
</event>
<event>
 5    1  0.6112843E+000  0.8517241E+02  0.7546771E-02  0.1314982E+00
         -1   -1    0    0    0  501 -0.00000000000E+00  0.00000000000E+00  0.33560953903E+02  0.33560953903E+02  0.00000000000E+00 0.  1.
          1   -1    0    0  501    0  0.00000000000E+00 -0.00000000000E+00 -0.54038540631E+02  0.54038540631E+02  0.00000000000E+00 0. -1.
         23    2    1    2    0    0  0.00000000000E+00  0.00000000000E+00 -0.20477586728E+02  0.87599494534E+02  0.85172412695E+02 0.  0.
        -13    1    3    3    0    0 -0.29704959981E+02  0.59481522664E+01 -0.41021937873E+02  0.50995730700E+02  0.00000000000E+00 0. -1.
         13    1    3    3    0    0  0.29704959981E+02 -0.59481522664E+01  0.20544351144E+02  0.36603763833E+02  0.00000000000E+00 0.  1.
<mgrwt>
<rscale>  0 0.85172413E+02</rscale>
<asrwt>0</asrwt>
<pdfrwt beam="2">  1        1 0.83136217E-02 0.85172413E+02</pdfrwt>
<pdfrwt beam="1">  1       -1 0.51632236E-02 0.85172413E+02</pdfrwt>
<totfact> 0.11455580E+05</totfact>
</mgrwt>
</event>
<event>
 5    1  0.6112843E+000  0.8996232E+02  0.7546771E-02  0.1302943E+00
         -4   -1    0    0    0  501 -0.00000000000E+00  0.00000000000E+00  0.60008304669E+01  0.60008304669E+01  0.00000000000E+00 0.  1.
          4   -1    0    0  501    0  0.00000000000E+00 -0.00000000000E+00 -0.33717075360E+03  0.33717075360E+03  0.00000000000E+00 0. -1.
         23    2    1    2    0    0  0.00000000000E+00  0.00000000000E+00 -0.33116992313E+03  0.34317158406E+03  0.89962315016E+02 0.  0.
        -13    1    3    3    0    0 -0.37058225295E+01  0.42665290714E+02 -0.21806113883E+03  0.22222673201E+03  0.00000000000E+00 0.  1.
         13    1    3    3    0    0  0.37058225295E+01 -0.42665290714E+02 -0.11310878430E+03  0.12094485205E+03  0.00000000000E+00 0. -1.
<mgrwt>
<rscale>  0 0.89962315E+02</rscale>
<asrwt>0</asrwt>
<pdfrwt beam="2">  1        4 0.51872431E-01 0.89962315E+02</pdfrwt>
<pdfrwt beam="1">  1       -4 0.92320456E-03 0.89962315E+02</pdfrwt>
<totfact> 0.17178542E+04</totfact>
</mgrwt>
</event>
<event>
 5    1  0.6112843E+000  0.9181267E+02  0.7546771E-02  0.1298520E+00
          4   -1    0    0  501    0  0.00000000000E+00  0.00000000000E+00  0.87895094211E+01  0.87895094211E+01  0.00000000000E+00 0. -1.
         -4   -1    0    0    0  501 -0.00000000000E+00 -0.00000000000E+00 -0.23976215012E+03  0.23976215012E+03  0.00000000000E+00 0.  1.
         23    2    1    2    0    0  0.00000000000E+00  0.00000000000E+00 -0.23097264069E+03  0.24855165954E+03  0.91812671833E+02 0.  0.
        -13    1    3    3    0    0  0.12028863437E+02  0.40532813984E+02 -0.16389752369E+03  0.16926311127E+03  0.00000000000E+00 0.  1.
         13    1    3    3    0    0 -0.12028863437E+02 -0.40532813984E+02 -0.67075117002E+02  0.79288548264E+02  0.00000000000E+00 0. -1.
<mgrwt>
<rscale>  0 0.91812672E+02</rscale>
<asrwt>0</asrwt>
<pdfrwt beam="1">  1        4 0.13522323E-02 0.91812672E+02</pdfrwt>
<pdfrwt beam="2">  1       -4 0.36886483E-01 0.91812672E+02</pdfrwt>
<totfact> 0.19156021E+04</totfact>
</mgrwt>
</event>
<event>
 5    1  0.6112843E+000  0.8979444E+02  0.7546771E-02  0.1303350E+00
         -2   -1    0    0    0  501 -0.00000000000E+00  0.00000000000E+00  0.34478217173E+02  0.34478217173E+02  0.00000000000E+00 0.  1.
          2   -1    0    0  501    0  0.00000000000E+00 -0.00000000000E+00 -0.58464749512E+02  0.58464749512E+02  0.00000000000E+00 0. -1.
         23    2    1    2    0    0  0.00000000000E+00  0.00000000000E+00 -0.23986532339E+02  0.92942966685E+02  0.89794439263E+02 0.  0.
        -13    1    3    3    0    0 -0.19993381897E+02  0.75051058945E+01  0.28884523135E+02  0.35921826386E+02  0.00000000000E+00 0.  1.
         13    1    3    3    0    0  0.19993381897E+02 -0.75051058945E+01 -0.52871055473E+02  0.57021140299E+02  0.00000000000E+00 0. -1.
<mgrwt>
<rscale>  0 0.89794439E+02</rscale>
<asrwt>0</asrwt>
<pdfrwt beam="2">  1        2 0.89945768E-02 0.89794439E+02</pdfrwt>
<pdfrwt beam="1">  1       -2 0.53043411E-02 0.89794439E+02</pdfrwt>
<totfact> 0.10997115E+05</totfact>
</mgrwt>
</event>
<event>
 5    1  0.6112843E+000  0.8813515E+02  0.7546771E-02  0.1307432E+00
         -1   -1    0    0    0  501 -0.00000000000E+00  0.00000000000E+00  0.96775297721E+01  0.96775297721E+01  0.00000000000E+00 0.  1.
          1   -1    0    0  501    0  0.00000000000E+00 -0.00000000000E+00 -0.20066597941E+03  0.20066597941E+03  0.00000000000E+00 0. -1.
         23    2    1    2    0    0  0.00000000000E+00  0.00000000000E+00 -0.19098844964E+03  0.21034350918E+03  0.88135145997E+02 0.  0.
        -13    1    3    3    0    0  0.35629638163E+02  0.68023482781E+01 -0.35771547431E+02  0.50944544981E+02  0.00000000000E+00 0.  1.
         13    1    3    3    0    0 -0.35629638163E+02 -0.68023482781E+01 -0.15521690221E+03  0.15939896420E+03  0.00000000000E+00 0. -1.
<mgrwt>
<rscale>  0 0.88135146E+02</rscale>
<asrwt>0</asrwt>
<pdfrwt beam="2">  1        1 0.30871688E-01 0.88135146E+02</pdfrwt>
<pdfrwt beam="1">  1       -1 0.14888508E-02 0.88135146E+02</pdfrwt>
<totfact> 0.12973888E+05</totfact>
</mgrwt>
</event>
<event>
 5    1  0.6112843E+000  0.8744861E+02  0.7546771E-02  0.1309151E+00
         -1   -1    0    0    0  501 -0.00000000000E+00  0.00000000000E+00  0.11139780143E+02  0.11139780143E+02  0.00000000000E+00 0.  1.
          1   -1    0    0  501    0  0.00000000000E+00 -0.00000000000E+00 -0.17162052116E+03  0.17162052116E+03  0.00000000000E+00 0. -1.
         23    2    1    2    0    0  0.00000000000E+00  0.00000000000E+00 -0.16048074102E+03  0.18276030130E+03  0.87448610594E+02 0.  0.
        -13    1    3    3    0    0 -0.25784185003E+02 -0.61984376341E+01 -0.15289526312E+03  0.15517798268E+03  0.00000000000E+00 0. -1.
         13    1    3    3    0    0  0.25784185003E+02  0.61984376341E+01 -0.75854778949E+01  0.27582318616E+02  0.00000000000E+00 0.  1.
<mgrwt>
<rscale>  0 0.87448611E+02</rscale>
<asrwt>0</asrwt>
<pdfrwt beam="2">  1        1 0.26403156E-01 0.87448611E+02</pdfrwt>
<pdfrwt beam="1">  1       -1 0.17138124E-02 0.87448611E+02</pdfrwt>
<totfact> 0.12860143E+05</totfact>
</mgrwt>
</event>
<event>
 5    1  0.6112843E+000  0.8991189E+02  0.7546771E-02  0.1303065E+00
          1   -1    0    0  501    0  0.00000000000E+00  0.00000000000E+00  0.11855656763E+02  0.11855656763E+02  0.00000000000E+00 0. -1.
         -1   -1    0    0    0  501 -0.00000000000E+00 -0.00000000000E+00 -0.17047027958E+03  0.17047027958E+03  0.00000000000E+00 0.  1.
         23    2    1    2    0    0  0.00000000000E+00  0.00000000000E+00 -0.15861462282E+03  0.18232593635E+03  0.89911892942E+02 0.  0.
        -13    1    3    3    0    0 -0.35232504624E+02  0.15267958970E+02 -0.31897852263E+02  0.49919063815E+02  0.00000000000E+00 0. -1.
         13    1    3    3    0    0  0.35232504624E+02 -0.15267958970E+02 -0.12671677056E+03  0.13240687253E+03  0.00000000000E+00 0.  1.
<mgrwt>
<rscale>  0 0.89911893E+02</rscale>
<asrwt>0</asrwt>
<pdfrwt beam="1">  1        1 0.18239472E-02 0.89911893E+02</pdfrwt>
<pdfrwt beam="2">  1       -1 0.26226197E-01 0.89911893E+02</pdfrwt>
<totfact> 0.75165940E+04</totfact>
</mgrwt>
</event>
<event>
 5    1  0.6112843E+000  0.9083715E+02  0.7546771E-02  0.1300837E+00
          2   -1    0    0  501    0  0.00000000000E+00  0.00000000000E+00  0.39305868529E+03  0.39305868529E+03  0.00000000000E+00 0. -1.
         -2   -1    0    0    0  501 -0.00000000000E+00 -0.00000000000E+00 -0.52481907849E+01  0.52481907849E+01  0.00000000000E+00 0.  1.
         23    2    1    2    0    0  0.00000000000E+00  0.00000000000E+00  0.38781049451E+03  0.39830687608E+03  0.90837150331E+02 0.  0.
        -13    1    3    3    0    0 -0.27213580528E+02 -0.36025457312E+02  0.17223043161E+03  0.17804980795E+03  0.00000000000E+00 0.  1.
         13    1    3    3    0    0  0.27213580528E+02  0.36025457312E+02  0.21558006290E+03  0.22025706813E+03  0.00000000000E+00 0. -1.
<mgrwt>
<rscale>  0 0.90837150E+02</rscale>
<asrwt>0</asrwt>
<pdfrwt beam="1">  1        2 0.60470544E-01 0.90837150E+02</pdfrwt>
<pdfrwt beam="2">  1       -2 0.80741427E-03 0.90837150E+02</pdfrwt>
<totfact> 0.20035198E+05</totfact>
</mgrwt>
</event>
<event>
 5    1  0.6112843E+000  0.9088504E+02  0.7546771E-02  0.1300722E+00
         -1   -1    0    0    0  501 -0.00000000000E+00  0.00000000000E+00  0.17292051761E+02  0.17292051761E+02  0.00000000000E+00 0.  1.
          1   -1    0    0  501    0  0.00000000000E+00 -0.00000000000E+00 -0.11942034524E+03  0.11942034524E+03  0.00000000000E+00 0. -1.
         23    2    1    2    0    0  0.00000000000E+00  0.00000000000E+00 -0.10212829348E+03  0.13671239700E+03  0.90885043682E+02 0.  0.
        -13    1    3    3    0    0 -0.37315454375E+02  0.83836135825E+01 -0.14147691664E+02  0.40778490547E+02  0.00000000000E+00 0. -1.
         13    1    3    3    0    0  0.37315454375E+02 -0.83836135825E+01 -0.87980601817E+02  0.95933906456E+02  0.00000000000E+00 0.  1.
<mgrwt>
<rscale>  0 0.90885044E+02</rscale>
<asrwt>0</asrwt>
<pdfrwt beam="2">  1        1 0.18372361E-01 0.90885044E+02</pdfrwt>
<pdfrwt beam="1">  1       -1 0.26603156E-02 0.90885044E+02</pdfrwt>
<totfact> 0.10858807E+05</totfact>
</mgrwt>
</event>
<event>
 5    1  0.6112843E+000  0.9043357E+02  0.7546771E-02  0.1301805E+00
          3   -1    0    0  501    0  0.00000000000E+00  0.00000000000E+00  0.40257167479E+02  0.40257167479E+02  0.00000000000E+00 0. -1.
         -3   -1    0    0    0  501 -0.00000000000E+00 -0.00000000000E+00 -0.50787422918E+02  0.50787422918E+02  0.00000000000E+00 0.  1.
         23    2    1    2    0    0  0.00000000000E+00  0.00000000000E+00 -0.10530255439E+02  0.91044590398E+02  0.90433573197E+02 0.  0.
        -13    1    3    3    0    0  0.26390326913E+02 -0.13923807049E+02  0.28938468388E+02  0.41566292955E+02  0.00000000000E+00 0. -1.
         13    1    3    3    0    0 -0.26390326913E+02  0.13923807049E+02 -0.39468723827E+02  0.49478297443E+02  0.00000000000E+00 0.  1.
<mgrwt>
<rscale>  0 0.90433573E+02</rscale>
<asrwt>0</asrwt>
<pdfrwt beam="1">  1        3 0.61934104E-02 0.90433573E+02</pdfrwt>
<pdfrwt beam="2">  1       -3 0.78134496E-02 0.90433573E+02</pdfrwt>
<totfact> 0.36145475E+04</totfact>
</mgrwt>
</event>
<event>
 5    1  0.6112843E+000  0.9309238E+02  0.7546771E-02  0.1295531E+00
          2   -1    0    0  501    0  0.00000000000E+00  0.00000000000E+00  0.20198089295E+03  0.20198089295E+03  0.00000000000E+00 0. -1.
         -2   -1    0    0    0  501 -0.00000000000E+00 -0.00000000000E+00 -0.10726498448E+02  0.10726498448E+02  0.00000000000E+00 0.  1.
         23    2    1    2    0    0  0.00000000000E+00  0.00000000000E+00  0.19125439450E+03  0.21270739140E+03  0.93092378524E+02 0.  0.
        -13    1    3    3    0    0 -0.18122210746E+02  0.38175298746E+02  0.14021390372E+03  0.14644352752E+03  0.00000000000E+00 0. -1.
         13    1    3    3    0    0  0.18122210746E+02 -0.38175298746E+02  0.51040490786E+02  0.66263863880E+02  0.00000000000E+00 0.  1.
<mgrwt>
<rscale>  0 0.93092379E+02</rscale>
<asrwt>0</asrwt>
<pdfrwt beam="1">  1        2 0.31073981E-01 0.93092379E+02</pdfrwt>
<pdfrwt beam="2">  1       -2 0.16502307E-02 0.93092379E+02</pdfrwt>
<totfact> 0.14676711E+05</totfact>
</mgrwt>
</event>
<event>
 5    1  0.6112843E+000  0.9901201E+02  0.7546771E-02  0.1282387E+00
          4   -1    0    0  501    0  0.00000000000E+00  0.00000000000E+00  0.34293602876E+02  0.34293602876E+02  0.00000000000E+00 0. -1.
         -4   -1    0    0    0  501 -0.00000000000E+00 -0.00000000000E+00 -0.71466518141E+02  0.71466518141E+02  0.00000000000E+00 0.  1.
         23    2    1    2    0    0  0.00000000000E+00  0.00000000000E+00 -0.37172915266E+02  0.10576012102E+03  0.99012007192E+02 0.  0.
        -13    1    3    3    0    0 -0.16096965934E+02  0.22256066092E+02  0.25408018969E+02  0.37416737139E+02  0.00000000000E+00 0. -1.
         13    1    3    3    0    0  0.16096965934E+02 -0.22256066092E+02 -0.62580934235E+02  0.68343383878E+02  0.00000000000E+00 0.  1.
<mgrwt>
<rscale>  0 0.99012007E+02</rscale>
<asrwt>0</asrwt>
<pdfrwt beam="1">  1        4 0.52759390E-02 0.99012007E+02</pdfrwt>
<pdfrwt beam="2">  1       -4 0.10994849E-01 0.99012007E+02</pdfrwt>
<totfact> 0.20849712E+04</totfact>
</mgrwt>
</event>
<event>
 5    1  0.6112843E+000  0.9148926E+02  0.7546771E-02  0.1299285E+00
          3   -1    0    0  501    0  0.00000000000E+00  0.00000000000E+00  0.90979501174E+02  0.90979501174E+02  0.00000000000E+00 0. -1.
         -3   -1    0    0    0  501 -0.00000000000E+00 -0.00000000000E+00 -0.23000468151E+02  0.23000468151E+02  0.00000000000E+00 0.  1.
         23    2    1    2    0    0  0.00000000000E+00  0.00000000000E+00  0.67979033023E+02  0.11397996932E+03  0.91489258804E+02 0.  0.
        -13    1    3    3    0    0  0.31164014777E+02 -0.15812915637E+02  0.70764205862E+02  0.78922854416E+02  0.00000000000E+00 0. -1.
         13    1    3    3    0    0 -0.31164014777E+02  0.15812915637E+02 -0.27851728386E+01  0.35057114908E+02  0.00000000000E+00 0.  1.
<mgrwt>
<rscale>  0 0.91489259E+02</rscale>
<asrwt>0</asrwt>
<pdfrwt beam="1">  1        3 0.13996846E-01 0.91489259E+02</pdfrwt>
<pdfrwt beam="2">  1       -3 0.35385336E-02 0.91489259E+02</pdfrwt>
<totfact> 0.33351169E+04</totfact>
</mgrwt>
</event>
<event>
 5    1  0.6112843E+000  0.8795221E+02  0.7546771E-02  0.1307888E+00
          2   -1    0    0  501    0  0.00000000000E+00  0.00000000000E+00  0.17450146551E+03  0.17450146551E+03  0.00000000000E+00 0. -1.
         -2   -1    0    0    0  501 -0.00000000000E+00 -0.00000000000E+00 -0.11082415645E+02  0.11082415645E+02  0.00000000000E+00 0.  1.
         23    2    1    2    0    0  0.00000000000E+00  0.00000000000E+00  0.16341904986E+03  0.18558388115E+03  0.87952209102E+02 0.  0.
        -13    1    3    3    0    0 -0.22619334165E+02 -0.34083647792E+02  0.47648758765E+02  0.62799152357E+02  0.00000000000E+00 0.  1.
         13    1    3    3    0    0  0.22619334165E+02  0.34083647792E+02  0.11577029110E+03  0.12278472880E+03  0.00000000000E+00 0. -1.
<mgrwt>
<rscale>  0 0.87952209E+02</rscale>
<asrwt>0</asrwt>
<pdfrwt beam="1">  1        2 0.26846377E-01 0.87952209E+02</pdfrwt>
<pdfrwt beam="2">  1       -2 0.17049872E-02 0.87952209E+02</pdfrwt>
<totfact> 0.16232986E+05</totfact>
</mgrwt>
</event>
<event>
 5    1  0.6112843E+000  0.9110925E+02  0.7546771E-02  0.1300188E+00
          1   -1    0    0  501    0  0.00000000000E+00  0.00000000000E+00  0.76215382874E+02  0.76215382874E+02  0.00000000000E+00 0. -1.
         -1   -1    0    0    0  501 -0.00000000000E+00 -0.00000000000E+00 -0.27228412226E+02  0.27228412226E+02  0.00000000000E+00 0.  1.
         23    2    1    2    0    0  0.00000000000E+00  0.00000000000E+00  0.48986970648E+02  0.10344379510E+03  0.91109250088E+02 0.  0.
        -13    1    3    3    0    0 -0.13536739944E+02  0.12468183269E+01 -0.24871818216E+02  0.28344403780E+02  0.00000000000E+00 0.  1.
         13    1    3    3    0    0  0.13536739944E+02 -0.12468183269E+01  0.73858788864E+02  0.75099391321E+02  0.00000000000E+00 0. -1.
<mgrwt>
<rscale>  0 0.91109250E+02</rscale>
<asrwt>0</asrwt>
<pdfrwt beam="1">  1        1 0.11725443E-01 0.91109250E+02</pdfrwt>
<pdfrwt beam="2">  1       -1 0.41889865E-02 0.91109250E+02</pdfrwt>
<totfact> 0.10018434E+05</totfact>
</mgrwt>
</event>
<event>
 5    1  0.6112843E+000  0.9045008E+02  0.7546771E-02  0.1301765E+00
         -1   -1    0    0    0  501 -0.00000000000E+00  0.00000000000E+00  0.19378624419E+02  0.19378624419E+02  0.00000000000E+00 0. -1.
          1   -1    0    0  501    0  0.00000000000E+00 -0.00000000000E+00 -0.10554434604E+03  0.10554434604E+03  0.00000000000E+00 0.  1.
         23    2    1    2    0    0  0.00000000000E+00  0.00000000000E+00 -0.86165721623E+02  0.12492297046E+03  0.90450079968E+02 0.  0.
        -13    1    3    3    0    0  0.44015754193E+02  0.10096225320E+02 -0.39704360120E+02  0.60131161600E+02  0.00000000000E+00 0. -1.
         13    1    3    3    0    0 -0.44015754193E+02 -0.10096225320E+02 -0.46461361503E+02  0.64791808862E+02  0.00000000000E+00 0.  1.
<mgrwt>
<rscale>  0 0.90450080E+02</rscale>
<asrwt>0</asrwt>
<pdfrwt beam="2">  1        1 0.16237592E-01 0.90450080E+02</pdfrwt>
<pdfrwt beam="1">  1       -1 0.29813269E-02 0.90450080E+02</pdfrwt>
<totfact> 0.10771782E+05</totfact>
</mgrwt>
</event>
<event>
 5    1  0.6112843E+000  0.9076995E+02  0.7546771E-02  0.1300998E+00
          4   -1    0    0  501    0  0.00000000000E+00  0.00000000000E+00  0.12655360817E+03  0.12655360817E+03  0.00000000000E+00 0. -1.
         -4   -1    0    0    0  501 -0.00000000000E+00 -0.00000000000E+00 -0.16276074334E+02  0.16276074334E+02  0.00000000000E+00 0.  1.
         23    2    1    2    0    0  0.00000000000E+00  0.00000000000E+00  0.11027753384E+03  0.14282968251E+03  0.90769949517E+02 0.  0.
        -13    1    3    3    0    0 -0.27638295929E+02  0.11394721749E+02  0.14058139890E+01  0.29928103825E+02  0.00000000000E+00 0.  1.
         13    1    3    3    0    0  0.27638295929E+02 -0.11394721749E+02  0.10887171985E+03  0.11290157868E+03  0.00000000000E+00 0. -1.
<mgrwt>
<rscale>  0 0.90769950E+02</rscale>
<asrwt>0</asrwt>
<pdfrwt beam="1">  1        4 0.19469785E-01 0.90769950E+02</pdfrwt>
<pdfrwt beam="2">  1       -4 0.25040115E-02 0.90769950E+02</pdfrwt>
<totfact> 0.24329256E+04</totfact>
</mgrwt>
</event>
<event>
 5    1  0.6112843E+000  0.9112159E+02  0.7546771E-02  0.1300158E+00
         -3   -1    0    0    0  501 -0.00000000000E+00  0.00000000000E+00  0.55365676539E+02  0.55365676539E+02  0.00000000000E+00 0.  1.
          3   -1    0    0  501    0  0.00000000000E+00 -0.00000000000E+00 -0.37492291799E+02  0.37492291799E+02  0.00000000000E+00 0. -1.
         23    2    1    2    0    0  0.00000000000E+00  0.00000000000E+00  0.17873384741E+02  0.92857968338E+02  0.91121591304E+02 0.  0.
        -13    1    3    3    0    0  0.23989096805E+02 -0.81709194738E+01 -0.29646984267E+02  0.39002363604E+02  0.00000000000E+00 0. -1.
         13    1    3    3    0    0 -0.23989096805E+02  0.81709194738E+01  0.47520369008E+02  0.53855604734E+02  0.00000000000E+00 0.  1.
<mgrwt>
<rscale>  0 0.91121591E+02</rscale>
<asrwt>0</asrwt>
<pdfrwt beam="2">  1        3 0.57680449E-02 0.91121591E+02</pdfrwt>
<pdfrwt beam="1">  1       -3 0.85177964E-02 0.91121591E+02</pdfrwt>
<totfact> 0.35268830E+04</totfact>
</mgrwt>
</event>
<event>
 5    1  0.6112843E+000  0.9057787E+02  0.7546771E-02  0.1301458E+00
         -4   -1    0    0    0  501 -0.00000000000E+00  0.00000000000E+00  0.11060290533E+03  0.11060290533E+03  0.00000000000E+00 0.  1.
          4   -1    0    0  501    0  0.00000000000E+00 -0.00000000000E+00 -0.18544607384E+02  0.18544607384E+02  0.00000000000E+00 0. -1.
         23    2    1    2    0    0  0.00000000000E+00  0.00000000000E+00  0.92058297943E+02  0.12914751271E+03  0.90577866055E+02 0.  0.
        -13    1    3    3    0    0 -0.17220952858E+02 -0.26950217568E+02  0.91749051710E+02  0.97163593665E+02  0.00000000000E+00 0.  1.
         13    1    3    3    0    0  0.17220952858E+02  0.26950217568E+02  0.30924623363E+00  0.31983919046E+02  0.00000000000E+00 0. -1.
<mgrwt>
<rscale>  0 0.90577866E+02</rscale>
<asrwt>0</asrwt>
<pdfrwt beam="2">  1        4 0.28530166E-02 0.90577866E+02</pdfrwt>
<pdfrwt beam="1">  1       -4 0.17015831E-01 0.90577866E+02</pdfrwt>
<totfact> 0.25207825E+04</totfact>
</mgrwt>
</event>
<event>
 5    1  0.6112843E+000  0.8958606E+02  0.7546771E-02  0.1303857E+00
         -2   -1    0    0    0  501 -0.00000000000E+00  0.00000000000E+00  0.77445973131E+02  0.77445973131E+02  0.00000000000E+00 0.  1.
          2   -1    0    0  501    0  0.00000000000E+00 -0.00000000000E+00 -0.25907292129E+02  0.25907292129E+02  0.00000000000E+00 0. -1.
         23    2    1    2    0    0  0.00000000000E+00  0.00000000000E+00  0.51538681003E+02  0.10335326526E+03  0.89586058069E+02 0.  0.
        -13    1    3    3    0    0  0.12537535168E+02 -0.38787330793E+01  0.75178205847E+02  0.76315116410E+02  0.00000000000E+00 0.  1.
         13    1    3    3    0    0 -0.12537535168E+02  0.38787330793E+01 -0.23639524844E+02  0.27038148850E+02  0.00000000000E+00 0. -1.
<mgrwt>
<rscale>  0 0.89586058E+02</rscale>
<asrwt>0</asrwt>
<pdfrwt beam="2">  1        2 0.39857373E-02 0.89586058E+02</pdfrwt>
<pdfrwt beam="1">  1       -2 0.11914765E-01 0.89586058E+02</pdfrwt>
<totfact> 0.89624772E+04</totfact>
</mgrwt>
</event>
<event>
 5    1  0.6112843E+000  0.9151085E+02  0.7546771E-02  0.1299234E+00
         -2   -1    0    0    0  501 -0.00000000000E+00  0.00000000000E+00  0.10316873695E+03  0.10316873695E+03  0.00000000000E+00 0.  1.
          2   -1    0    0  501    0  0.00000000000E+00 -0.00000000000E+00 -0.20292569530E+02  0.20292569530E+02  0.00000000000E+00 0. -1.
         23    2    1    2    0    0  0.00000000000E+00  0.00000000000E+00  0.82876167420E+02  0.12346130648E+03  0.91510846743E+02 0.  0.
        -13    1    3    3    0    0 -0.16670727781E+01  0.28609440189E+02 -0.66845702872E+01  0.29427243832E+02  0.00000000000E+00 0. -1.
         13    1    3    3    0    0  0.16670727781E+01 -0.28609440189E+02  0.89560737707E+02  0.94034062648E+02  0.00000000000E+00 0.  1.
<mgrwt>
<rscale>  0 0.91510847E+02</rscale>
<asrwt>0</asrwt>
<pdfrwt beam="2">  1        2 0.31219338E-02 0.91510847E+02</pdfrwt>
<pdfrwt beam="1">  1       -2 0.15872113E-01 0.91510847E+02</pdfrwt>
<totfact> 0.78344276E+04</totfact>
</mgrwt>
</event>
<event>
 5    1  0.6112843E+000  0.9256248E+02  0.7546771E-02  0.1296762E+00
         -1   -1    0    0    0  501 -0.00000000000E+00  0.00000000000E+00  0.50885249885E+01  0.50885249885E+01  0.00000000000E+00 0.  1.
          1   -1    0    0  501    0  0.00000000000E+00 -0.00000000000E+00 -0.42093789243E+03  0.42093789243E+03  0.00000000000E+00 0. -1.
         23    2    1    2    0    0  0.00000000000E+00  0.00000000000E+00 -0.41584936744E+03  0.42602641741E+03  0.92562475857E+02 0.  0.
        -13    1    3    3    0    0  0.37376683858E+02 -0.27278885365E+02 -0.21203853039E+03  0.21702878254E+03  0.00000000000E+00 0.  1.
         13    1    3    3    0    0 -0.37376683858E+02  0.27278885365E+02 -0.20381083705E+03  0.20899763487E+03  0.00000000000E+00 0. -1.
<mgrwt>
<rscale>  0 0.92562476E+02</rscale>
<asrwt>0</asrwt>
<pdfrwt beam="2">  1        1 0.64759693E-01 0.92562476E+02</pdfrwt>
<pdfrwt beam="1">  1       -1 0.78284980E-03 0.92562476E+02</pdfrwt>
<totfact> 0.13065243E+05</totfact>
</mgrwt>
</event>
<event>
 5    1  0.6112843E+000  0.9259349E+02  0.7546771E-02  0.1296690E+00
          3   -1    0    0  501    0  0.00000000000E+00  0.00000000000E+00  0.13917645530E+02  0.13917645530E+02  0.00000000000E+00 0. -1.
         -3   -1    0    0    0  501 -0.00000000000E+00 -0.00000000000E+00 -0.15400510144E+03  0.15400510144E+03  0.00000000000E+00 0.  1.
         23    2    1    2    0    0  0.00000000000E+00  0.00000000000E+00 -0.14008745591E+03  0.16792274697E+03  0.92593485982E+02 0.  0.
        -13    1    3    3    0    0  0.41605302429E+02  0.19800707782E+02 -0.78218625524E+02  0.90781179755E+02  0.00000000000E+00 0.  1.
         13    1    3    3    0    0 -0.41605302429E+02 -0.19800707782E+02 -0.61868830386E+02  0.77141567214E+02  0.00000000000E+00 0. -1.
<mgrwt>
<rscale>  0 0.92593486E+02</rscale>
<asrwt>0</asrwt>
<pdfrwt beam="1">  1        3 0.21411762E-02 0.92593486E+02</pdfrwt>
<pdfrwt beam="2">  1       -3 0.23693092E-01 0.92593486E+02</pdfrwt>
<totfact> 0.29007562E+04</totfact>
</mgrwt>
</event>
<event>
 5    1  0.6112843E+000  0.8360973E+02  0.7546771E-02  0.1319109E+00
         -1   -1    0    0    0  501 -0.00000000000E+00  0.00000000000E+00  0.16234104083E+03  0.16234104083E+03  0.00000000000E+00 0.  1.
          1   -1    0    0  501    0  0.00000000000E+00 -0.00000000000E+00 -0.10765281018E+02  0.10765281018E+02  0.00000000000E+00 0. -1.
         23    2    1    2    0    0  0.00000000000E+00  0.00000000000E+00  0.15157575981E+03  0.17310632185E+03  0.83609734490E+02 0.  0.
        -13    1    3    3    0    0  0.37163627469E+02  0.21177213830E+01  0.36394200160E+02  0.52059175520E+02  0.00000000000E+00 0. -1.
         13    1    3    3    0    0 -0.37163627469E+02 -0.21177213830E+01  0.11518155965E+03  0.12104714633E+03  0.00000000000E+00 0.  1.
<mgrwt>
<rscale>  0 0.83609734E+02</rscale>
<asrwt>0</asrwt>
<pdfrwt beam="2">  1        1 0.16561972E-02 0.83609734E+02</pdfrwt>
<pdfrwt beam="1">  1       -1 0.24975543E-01 0.83609734E+02</pdfrwt>
<totfact> 0.91846264E+04</totfact>
</mgrwt>
</event>
<event>
 5    1  0.6112843E+000  0.9020583E+02  0.7546771E-02  0.1302354E+00
         -1   -1    0    0    0  501 -0.00000000000E+00  0.00000000000E+00  0.26852530799E+02  0.26852530799E+02  0.00000000000E+00 0.  1.
          1   -1    0    0  501    0  0.00000000000E+00 -0.00000000000E+00 -0.75757217801E+02  0.75757217801E+02  0.00000000000E+00 0. -1.
         23    2    1    2    0    0  0.00000000000E+00  0.00000000000E+00 -0.48904687002E+02  0.10260974860E+03  0.90205831835E+02 0.  0.
        -13    1    3    3    0    0  0.29019609422E+02 -0.46959110464E+01 -0.63362454964E+02  0.69849767434E+02  0.00000000000E+00 0. -1.
         13    1    3    3    0    0 -0.29019609422E+02  0.46959110464E+01  0.14457767961E+02  0.32759981166E+02  0.00000000000E+00 0.  1.
<mgrwt>
<rscale>  0 0.90205832E+02</rscale>
<asrwt>0</asrwt>
<pdfrwt beam="2">  1        1 0.11654956E-01 0.90205832E+02</pdfrwt>
<pdfrwt beam="1">  1       -1 0.41311586E-02 0.90205832E+02</pdfrwt>
<totfact> 0.10286606E+05</totfact>
</mgrwt>
</event>
<event>
 5    1  0.6112843E+000  0.9125270E+02  0.7546771E-02  0.1299846E+00
         -2   -1    0    0    0  501 -0.00000000000E+00  0.00000000000E+00  0.10866324238E+03  0.10866324238E+03  0.00000000000E+00 0.  1.
          2   -1    0    0  501    0  0.00000000000E+00 -0.00000000000E+00 -0.19157937415E+02  0.19157937415E+02  0.00000000000E+00 0. -1.
         23    2    1    2    0    0  0.00000000000E+00  0.00000000000E+00  0.89505304969E+02  0.12782117980E+03  0.91252695234E+02 0.  0.
        -13    1    3    3    0    0 -0.14926586240E+02  0.20102426550E+02  0.98180378247E+02  0.10132273784E+03  0.00000000000E+00 0.  1.
         13    1    3    3    0    0  0.14926586240E+02 -0.20102426550E+02 -0.86750732784E+01  0.26498441961E+02  0.00000000000E+00 0. -1.
<mgrwt>
<rscale>  0 0.91252695E+02</rscale>
<asrwt>0</asrwt>
<pdfrwt beam="2">  1        2 0.29473751E-02 0.91252695E+02</pdfrwt>
<pdfrwt beam="1">  1       -2 0.16717422E-01 0.91252695E+02</pdfrwt>
<totfact> 0.77657427E+04</totfact>
</mgrwt>
</event>
<event>
 5    1  0.6112843E+000  0.9090847E+02  0.7546771E-02  0.1300667E+00
          1   -1    0    0  501    0  0.00000000000E+00  0.00000000000E+00  0.69526285821E+02  0.69526285821E+02  0.00000000000E+00 0. -1.
         -1   -1    0    0    0  501 -0.00000000000E+00 -0.00000000000E+00 -0.29716635856E+02  0.29716635856E+02  0.00000000000E+00 0.  1.
         23    2    1    2    0    0  0.00000000000E+00  0.00000000000E+00  0.39809649965E+02  0.99242921676E+02  0.90908466451E+02 0.  0.
        -13    1    3    3    0    0 -0.19275494239E+02 -0.36050883872E+02 -0.17884841764E+01  0.40919550116E+02  0.00000000000E+00 0.  1.
         13    1    3    3    0    0  0.19275494239E+02  0.36050883872E+02  0.41598134141E+02  0.58323371560E+02  0.00000000000E+00 0. -1.
<mgrwt>
<rscale>  0 0.90908466E+02</rscale>
<asrwt>0</asrwt>
<pdfrwt beam="1">  1        1 0.10696352E-01 0.90908466E+02</pdfrwt>
<pdfrwt beam="2">  1       -1 0.45717901E-02 0.90908466E+02</pdfrwt>
<totfact> 0.99368310E+04</totfact>
</mgrwt>
</event>
<event>
 5    1  0.6112843E+000  0.9235809E+02  0.7546771E-02  0.1297240E+00
          2   -1    0    0  501    0  0.00000000000E+00  0.00000000000E+00  0.21396488589E+03  0.21396488589E+03  0.00000000000E+00 0. -1.
         -2   -1    0    0    0  501 -0.00000000000E+00 -0.00000000000E+00 -0.99666090668E+01  0.99666090668E+01  0.00000000000E+00 0.  1.
         23    2    1    2    0    0  0.00000000000E+00  0.00000000000E+00  0.20399827682E+03  0.22393149495E+03  0.92358093780E+02 0.  0.
        -13    1    3    3    0    0 -0.30926615876E+02  0.33258916303E+02  0.81728942048E+02  0.93499898671E+02  0.00000000000E+00 0.  1.
         13    1    3    3    0    0  0.30926615876E+02 -0.33258916303E+02  0.12226933477E+03  0.13043159628E+03  0.00000000000E+00 0. -1.
<mgrwt>
<rscale>  0 0.92358094E+02</rscale>
<asrwt>0</asrwt>
<pdfrwt beam="1">  1        2 0.32917671E-01 0.92358094E+02</pdfrwt>
<pdfrwt beam="2">  1       -2 0.15333246E-02 0.92358094E+02</pdfrwt>
<totfact> 0.15312100E+05</totfact>
</mgrwt>
</event>
<event>
 5    1  0.6112843E+000  0.1083958E+03  0.7546771E-02  0.1263570E+00
         -2   -1    0    0    0  501 -0.00000000000E+00  0.00000000000E+00  0.60168478758E+01  0.60168478758E+01  0.00000000000E+00 0.  1.
          2   -1    0    0  501    0  0.00000000000E+00 -0.00000000000E+00 -0.48819825885E+03  0.48819825885E+03  0.00000000000E+00 0. -1.
         23    2    1    2    0    0  0.00000000000E+00  0.00000000000E+00 -0.48218141097E+03  0.49421510672E+03  0.10839584230E+03 0.  0.
        -13    1    3    3    0    0 -0.40005502237E+02  0.34089094259E+02 -0.18079194939E+03  0.18827701803E+03  0.00000000000E+00 0.  1.
         13    1    3    3    0    0  0.40005502237E+02 -0.34089094259E+02 -0.30138946159E+03  0.30593808869E+03  0.00000000000E+00 0. -1.
<mgrwt>
<rscale>  0 0.10839584E+03</rscale>
<asrwt>0</asrwt>
<pdfrwt beam="2">  1        2 0.75107458E-01 0.10839584E+03</pdfrwt>
<pdfrwt beam="1">  1       -2 0.92566849E-03 0.10839584E+03</pdfrwt>
<totfact> 0.13468702E+05</totfact>
</mgrwt>
</event>
<event>
 5    1  0.6112843E+000  0.9080557E+02  0.7546771E-02  0.1300913E+00
         -1   -1    0    0    0  501 -0.00000000000E+00  0.00000000000E+00  0.26294499887E+03  0.26294499887E+03  0.00000000000E+00 0.  1.
          1   -1    0    0  501    0  0.00000000000E+00 -0.00000000000E+00 -0.78397110523E+01  0.78397110523E+01  0.00000000000E+00 0. -1.
         23    2    1    2    0    0  0.00000000000E+00  0.00000000000E+00  0.25510528782E+03  0.27078470992E+03  0.90805568415E+02 0.  0.
        -13    1    3    3    0    0 -0.38777553405E+02  0.19449040042E+02  0.87605826316E+02  0.97758603771E+02  0.00000000000E+00 0. -1.
         13    1    3    3    0    0  0.38777553405E+02 -0.19449040042E+02  0.16749946150E+03  0.17302610615E+03  0.00000000000E+00 0.  1.
<mgrwt>
<rscale>  0 0.90805568E+02</rscale>
<asrwt>0</asrwt>
<pdfrwt beam="2">  1        1 0.12061096E-02 0.90805568E+02</pdfrwt>
<pdfrwt beam="1">  1       -1 0.40453070E-01 0.90805568E+02</pdfrwt>
<totfact> 0.64324541E+04</totfact>
</mgrwt>
</event>
<event>
 5    1  0.6112843E+000  0.9082872E+02  0.7546771E-02  0.1300857E+00
         -4   -1    0    0    0  501 -0.00000000000E+00  0.00000000000E+00  0.37398880451E+02  0.37398880451E+02  0.00000000000E+00 0.  1.
          4   -1    0    0  501    0  0.00000000000E+00 -0.00000000000E+00 -0.55147746647E+02  0.55147746647E+02  0.00000000000E+00 0. -1.
         23    2    1    2    0    0  0.00000000000E+00  0.00000000000E+00 -0.17748866197E+02  0.92546627098E+02  0.90828717573E+02 0.  0.
        -13    1    3    3    0    0 -0.70998819585E+01  0.43177756688E+02  0.35101682818E+01  0.43898158023E+02  0.00000000000E+00 0.  1.
         13    1    3    3    0    0  0.70998819585E+01 -0.43177756688E+02 -0.21259034478E+02  0.48648469075E+02  0.00000000000E+00 0. -1.
<mgrwt>
<rscale>  0 0.90828718E+02</rscale>
<asrwt>0</asrwt>
<pdfrwt beam="2">  1        4 0.84842687E-02 0.90828718E+02</pdfrwt>
<pdfrwt beam="1">  1       -4 0.57536739E-02 0.90828718E+02</pdfrwt>
<totfact> 0.27209283E+04</totfact>
</mgrwt>
</event>
<event>
 5    1  0.6112843E+000  0.9496245E+02  0.7546771E-02  0.1291261E+00
         -2   -1    0    0    0  501 -0.00000000000E+00  0.00000000000E+00  0.29497674770E+02  0.29497674770E+02  0.00000000000E+00 0.  1.
          2   -1    0    0  501    0  0.00000000000E+00 -0.00000000000E+00 -0.76428617199E+02  0.76428617199E+02  0.00000000000E+00 0. -1.
         23    2    1    2    0    0  0.00000000000E+00  0.00000000000E+00 -0.46930942428E+02  0.10592629197E+03  0.94962445067E+02 0.  0.
        -13    1    3    3    0    0 -0.15757446780E+02  0.35323931568E+02  0.72528839902E+01  0.39353292068E+02  0.00000000000E+00 0.  1.
         13    1    3    3    0    0  0.15757446780E+02 -0.35323931568E+02 -0.54183826419E+02  0.66572999901E+02  0.00000000000E+00 0. -1.
<mgrwt>
<rscale>  0 0.94962445E+02</rscale>
<asrwt>0</asrwt>
<pdfrwt beam="2">  1        2 0.11758249E-01 0.94962445E+02</pdfrwt>
<pdfrwt beam="1">  1       -2 0.45381038E-02 0.94962445E+02</pdfrwt>
<totfact> 0.10117934E+05</totfact>
</mgrwt>
</event>
<event>
 5    1  0.6112843E+000  0.9144764E+02  0.7546771E-02  0.1299383E+00
          2   -1    0    0  501    0  0.00000000000E+00  0.00000000000E+00  0.10969765855E+03  0.10969765855E+03  0.00000000000E+00 0. -1.
         -2   -1    0    0    0  501 -0.00000000000E+00 -0.00000000000E+00 -0.19058454541E+02  0.19058454541E+02  0.00000000000E+00 0.  1.
         23    2    1    2    0    0  0.00000000000E+00  0.00000000000E+00  0.90639204009E+02  0.12875611309E+03  0.91447642698E+02 0.  0.
        -13    1    3    3    0    0 -0.13172818644E+02 -0.24177394239E+02 -0.60782499963E+01  0.28196004437E+02  0.00000000000E+00 0.  1.
         13    1    3    3    0    0  0.13172818644E+02  0.24177394239E+02  0.96717454005E+02  0.10056010865E+03  0.00000000000E+00 0. -1.
<mgrwt>
<rscale>  0 0.91447643E+02</rscale>
<asrwt>0</asrwt>
<pdfrwt beam="1">  1        2 0.16876562E-01 0.91447643E+02</pdfrwt>
<pdfrwt beam="2">  1       -2 0.29320700E-02 0.91447643E+02</pdfrwt>
<totfact> 0.12520549E+05</totfact>
</mgrwt>
</event>
<event>
 5    1  0.6112843E+000  0.9138427E+02  0.7546771E-02  0.1299534E+00
          1   -1    0    0  501    0  0.00000000000E+00  0.00000000000E+00  0.50482939659E+02  0.50482939659E+02  0.00000000000E+00 0. -1.
         -1   -1    0    0    0  501 -0.00000000000E+00 -0.00000000000E+00 -0.41355973764E+02  0.41355973764E+02  0.00000000000E+00 0.  1.
         23    2    1    2    0    0  0.00000000000E+00  0.00000000000E+00  0.91269658947E+01  0.91838913423E+02  0.91384268407E+02 0.  0.
        -13    1    3    3    0    0  0.80176338839E+01  0.44387507903E+02 -0.27692423855E+01  0.45190729296E+02  0.00000000000E+00 0.  1.
         13    1    3    3    0    0 -0.80176338839E+01 -0.44387507903E+02  0.11896208280E+02  0.46648184127E+02  0.00000000000E+00 0. -1.
<mgrwt>
<rscale>  0 0.91384268E+02</rscale>
<asrwt>0</asrwt>
<pdfrwt beam="1">  1        1 0.77666061E-02 0.91384268E+02</pdfrwt>
<pdfrwt beam="2">  1       -1 0.63624575E-02 0.91384268E+02</pdfrwt>
<totfact> 0.93304260E+04</totfact>
</mgrwt>
</event>
<event>
 5    1  0.6112843E+000  0.9109179E+02  0.7546771E-02  0.1300229E+00
         -1   -1    0    0    0  501 -0.00000000000E+00  0.00000000000E+00  0.37641527021E+02  0.37641527021E+02  0.00000000000E+00 0.  1.
          1   -1    0    0  501    0  0.00000000000E+00 -0.00000000000E+00 -0.55110105913E+02  0.55110105913E+02  0.00000000000E+00 0. -1.
         23    2    1    2    0    0  0.00000000000E+00  0.00000000000E+00 -0.17468578892E+02  0.92751632934E+02  0.91091789769E+02 0.  0.
        -13    1    3    3    0    0  0.21457847834E+02 -0.48531381871E+01 -0.49341249349E+02  0.54023615866E+02  0.00000000000E+00 0. -1.
         13    1    3    3    0    0 -0.21457847834E+02  0.48531381871E+01  0.31872670457E+02  0.38728017068E+02  0.00000000000E+00 0.  1.
<mgrwt>
<rscale>  0 0.91091790E+02</rscale>
<asrwt>0</asrwt>
<pdfrwt beam="2">  1        1 0.84784778E-02 0.91091790E+02</pdfrwt>
<pdfrwt beam="1">  1       -1 0.57910042E-02 0.91091790E+02</pdfrwt>
<totfact> 0.95391462E+04</totfact>
</mgrwt>
</event>
<event>
 5    1  0.6112843E+000  0.7343827E+02  0.7546771E-02  0.1348777E+00
         -2   -1    0    0    0  501 -0.00000000000E+00  0.00000000000E+00  0.87326629792E+01  0.87326629792E+01  0.00000000000E+00 0.  1.
          2   -1    0    0  501    0  0.00000000000E+00 -0.00000000000E+00 -0.15439674052E+03  0.15439674052E+03  0.00000000000E+00 0. -1.
         23    2    1    2    0    0  0.00000000000E+00  0.00000000000E+00 -0.14566407754E+03  0.16312940350E+03  0.73438265232E+02 0.  0.
        -13    1    3    3    0    0  0.28887504376E+02 -0.33239035157E+01 -0.23025136598E+02  0.37090337812E+02  0.00000000000E+00 0.  1.
         13    1    3    3    0    0 -0.28887504376E+02  0.33239035157E+01 -0.12263894095E+03  0.12603906569E+03  0.00000000000E+00 0. -1.
<mgrwt>
<rscale>  0 0.73438265E+02</rscale>
<asrwt>0</asrwt>
<pdfrwt beam="2">  1        2 0.23753345E-01 0.73438265E+02</pdfrwt>
<pdfrwt beam="1">  1       -2 0.13434866E-02 0.73438265E+02</pdfrwt>
<totfact> 0.25179599E+05</totfact>
</mgrwt>
</event>
<event>
 5    1  0.6112843E+000  0.9633775E+02  0.7546771E-02  0.1288191E+00
         -1   -1    0    0    0  501 -0.00000000000E+00  0.00000000000E+00  0.21393502387E+03  0.21393502387E+03  0.00000000000E+00 0.  1.
          1   -1    0    0  501    0  0.00000000000E+00 -0.00000000000E+00 -0.10845538390E+02  0.10845538390E+02  0.00000000000E+00 0. -1.
         23    2    1    2    0    0  0.00000000000E+00  0.00000000000E+00  0.20308948548E+03  0.22478056226E+03  0.96337749908E+02 0.  0.
        -13    1    3    3    0    0 -0.36534878176E+02 -0.14936143060E+02  0.37121759734E+02  0.54184045056E+02  0.00000000000E+00 0. -1.
         13    1    3    3    0    0  0.36534878176E+02  0.14936143060E+02  0.16596772575E+03  0.17059651721E+03  0.00000000000E+00 0.  1.
<mgrwt>
<rscale>  0 0.96337750E+02</rscale>
<asrwt>0</asrwt>
<pdfrwt beam="2">  1        1 0.16685445E-02 0.96337750E+02</pdfrwt>
<pdfrwt beam="1">  1       -1 0.32913078E-01 0.96337750E+02</pdfrwt>
<totfact> 0.58944586E+04</totfact>
</mgrwt>
</event>
<event>
 5    1  0.6112843E+000  0.9279174E+02  0.7546771E-02  0.1296229E+00
         -2   -1    0    0    0  501 -0.00000000000E+00  0.00000000000E+00  0.10488859889E+02  0.10488859889E+02  0.00000000000E+00 0.  1.
          2   -1    0    0  501    0  0.00000000000E+00 -0.00000000000E+00 -0.20522503321E+03  0.20522503321E+03  0.00000000000E+00 0. -1.
         23    2    1    2    0    0  0.00000000000E+00  0.00000000000E+00 -0.19473617332E+03  0.21571389310E+03  0.92791737113E+02 0.  0.
        -13    1    3    3    0    0  0.31023392678E+02  0.24731018376E+02 -0.15328219650E+03  0.15833352749E+03  0.00000000000E+00 0. -1.
         13    1    3    3    0    0 -0.31023392678E+02 -0.24731018376E+02 -0.41453976813E+02  0.57380365603E+02  0.00000000000E+00 0.  1.
<mgrwt>
<rscale>  0 0.92791737E+02</rscale>
<asrwt>0</asrwt>
<pdfrwt beam="2">  1        2 0.31573082E-01 0.92791737E+02</pdfrwt>
<pdfrwt beam="1">  1       -2 0.16136707E-02 0.92791737E+02</pdfrwt>
<totfact> 0.14891509E+05</totfact>
</mgrwt>
</event>
<event>
 5    1  0.6112843E+000  0.9437072E+02  0.7546771E-02  0.1292600E+00
          1   -1    0    0  501    0  0.00000000000E+00  0.00000000000E+00  0.19070971514E+03  0.19070971514E+03  0.00000000000E+00 0. -1.
         -1   -1    0    0    0  501 -0.00000000000E+00 -0.00000000000E+00 -0.11674593606E+02  0.11674593606E+02  0.00000000000E+00 0.  1.
         23    2    1    2    0    0  0.00000000000E+00  0.00000000000E+00  0.17903512153E+03  0.20238430874E+03  0.94370724718E+02 0.  0.
        -13    1    3    3    0    0 -0.46197547043E+02  0.54617026093E+01  0.72574822870E+02  0.86204109315E+02  0.00000000000E+00 0.  1.
         13    1    3    3    0    0  0.46197547043E+02 -0.54617026093E+01  0.10646029866E+03  0.11618019943E+03  0.00000000000E+00 0. -1.
<mgrwt>
<rscale>  0 0.94370725E+02</rscale>
<asrwt>0</asrwt>
<pdfrwt beam="1">  1        1 0.29339954E-01 0.94370725E+02</pdfrwt>
<pdfrwt beam="2">  1       -1 0.17960915E-02 0.94370725E+02</pdfrwt>
<totfact> 0.10693891E+05</totfact>
</mgrwt>
</event>
<event>
 5    1  0.6112843E+000  0.9083166E+02  0.7546771E-02  0.1300850E+00
          1   -1    0    0  501    0  0.00000000000E+00  0.00000000000E+00  0.39476230622E+02  0.39476230622E+02  0.00000000000E+00 0. -1.
         -1   -1    0    0    0  501 -0.00000000000E+00 -0.00000000000E+00 -0.52249102529E+02  0.52249102529E+02  0.00000000000E+00 0.  1.
         23    2    1    2    0    0  0.00000000000E+00  0.00000000000E+00 -0.12772871907E+02  0.91725333151E+02  0.90831660146E+02 0.  0.
        -13    1    3    3    0    0  0.38845477067E+02  0.18118120410E+02 -0.21546139180E+02  0.47973674961E+02  0.00000000000E+00 0.  1.
         13    1    3    3    0    0 -0.38845477067E+02 -0.18118120410E+02  0.87732672722E+01  0.43751658190E+02  0.00000000000E+00 0. -1.
<mgrwt>
<rscale>  0 0.90831660E+02</rscale>
<asrwt>0</asrwt>
<pdfrwt beam="1">  1        1 0.60732663E-02 0.90831660E+02</pdfrwt>
<pdfrwt beam="2">  1       -1 0.80383234E-02 0.90831660E+02</pdfrwt>
<totfact> 0.91456963E+04</totfact>
</mgrwt>
</event>
<event>
 5    1  0.6112843E+000  0.9208914E+02  0.7546771E-02  0.1297870E+00
          1   -1    0    0  501    0  0.00000000000E+00  0.00000000000E+00  0.12466213167E+02  0.12466213167E+02  0.00000000000E+00 0. -1.
         -1   -1    0    0    0  501 -0.00000000000E+00 -0.00000000000E+00 -0.17006789516E+03  0.17006789516E+03  0.00000000000E+00 0.  1.
         23    2    1    2    0    0  0.00000000000E+00  0.00000000000E+00 -0.15760168199E+03  0.18253410832E+03  0.92089144503E+02 0.  0.
        -13    1    3    3    0    0 -0.23392515996E+00 -0.30003020892E+02 -0.14803043255E+03  0.15104054074E+03  0.00000000000E+00 0.  1.
         13    1    3    3    0    0  0.23392515996E+00  0.30003020892E+02 -0.95712494357E+01  0.31493567588E+02  0.00000000000E+00 0. -1.
<mgrwt>
<rscale>  0 0.92089145E+02</rscale>
<asrwt>0</asrwt>
<pdfrwt beam="1">  1        1 0.19178790E-02 0.92089145E+02</pdfrwt>
<pdfrwt beam="2">  1       -1 0.26164290E-01 0.92089145E+02</pdfrwt>
<totfact> 0.70675405E+04</totfact>
</mgrwt>
</event>
<event>
 5    1  0.6112843E+000  0.8619496E+02  0.7546771E-02  0.1312337E+00
          1   -1    0    0  501    0  0.00000000000E+00  0.00000000000E+00  0.79080220810E+02  0.79080220810E+02  0.00000000000E+00 0. -1.
         -1   -1    0    0    0  501 -0.00000000000E+00 -0.00000000000E+00 -0.23487451926E+02  0.23487451926E+02  0.00000000000E+00 0.  1.
         23    2    1    2    0    0  0.00000000000E+00  0.00000000000E+00  0.55592768884E+02  0.10256767274E+03  0.86194962372E+02 0.  0.
        -13    1    3    3    0    0 -0.13554454396E+01  0.20281723560E+02  0.73017720698E+02  0.75794281307E+02  0.00000000000E+00 0. -1.
         13    1    3    3    0    0  0.13554454396E+01 -0.20281723560E+02 -0.17424951814E+02  0.26773391429E+02  0.00000000000E+00 0.  1.
<mgrwt>
<rscale>  0 0.86194962E+02</rscale>
<asrwt>0</asrwt>
<pdfrwt beam="1">  1        1 0.12166188E-01 0.86194962E+02</pdfrwt>
<pdfrwt beam="2">  1       -1 0.36134542E-02 0.86194962E+02</pdfrwt>
<totfact> 0.11725269E+05</totfact>
</mgrwt>
</event>
<event>
 5    1  0.6112843E+000  0.9218631E+02  0.7546771E-02  0.1297642E+00
          3   -1    0    0  501    0  0.00000000000E+00  0.00000000000E+00  0.40897741996E+02  0.40897741996E+02  0.00000000000E+00 0. -1.
         -3   -1    0    0    0  501 -0.00000000000E+00 -0.00000000000E+00 -0.51948565781E+02  0.51948565781E+02  0.00000000000E+00 0.  1.
         23    2    1    2    0    0  0.00000000000E+00  0.00000000000E+00 -0.11050823786E+02  0.92846307777E+02  0.92186312224E+02 0.  0.
        -13    1    3    3    0    0 -0.42536411611E+02  0.54967396389E+01  0.11477949384E+02  0.44399366904E+02  0.00000000000E+00 0. -1.
         13    1    3    3    0    0  0.42536411611E+02 -0.54967396389E+01 -0.22528773170E+02  0.48446940873E+02  0.00000000000E+00 0.  1.
<mgrwt>
<rscale>  0 0.92186312E+02</rscale>
<asrwt>0</asrwt>
<pdfrwt beam="1">  1        3 0.62919603E-02 0.92186312E+02</pdfrwt>
<pdfrwt beam="2">  1       -3 0.79920870E-02 0.92186312E+02</pdfrwt>
<totfact> 0.34168389E+04</totfact>
</mgrwt>
</event>
<event>
 5    1  0.6112843E+000  0.8882191E+02  0.7546771E-02  0.1305730E+00
          1   -1    0    0  501    0  0.00000000000E+00  0.00000000000E+00  0.67185047141E+01  0.67185047141E+01  0.00000000000E+00 0. -1.
         -1   -1    0    0    0  501 -0.00000000000E+00 -0.00000000000E+00 -0.29356724622E+03  0.29356724622E+03  0.00000000000E+00 0.  1.
         23    2    1    2    0    0  0.00000000000E+00  0.00000000000E+00 -0.28684874151E+03  0.30028575094E+03  0.88821910082E+02 0.  0.
        -13    1    3    3    0    0  0.42346212597E+02 -0.10461707475E+02 -0.17164591590E+03  0.17710157958E+03  0.00000000000E+00 0.  1.
         13    1    3    3    0    0 -0.42346212597E+02  0.10461707475E+02 -0.11520282561E+03  0.12318417136E+03  0.00000000000E+00 0. -1.
<mgrwt>
<rscale>  0 0.88821910E+02</rscale>
<asrwt>0</asrwt>
<pdfrwt beam="1">  1        1 0.10336159E-02 0.88821910E+02</pdfrwt>
<pdfrwt beam="2">  1       -1 0.45164200E-01 0.88821910E+02</pdfrwt>
<totfact> 0.65421452E+04</totfact>
</mgrwt>
</event>
<event>
 5    1  0.6112843E+000  0.9158423E+02  0.7546771E-02  0.1299060E+00
         -1   -1    0    0    0  501 -0.00000000000E+00  0.00000000000E+00  0.59960639819E+02  0.59960639819E+02  0.00000000000E+00 0.  1.
          1   -1    0    0  501    0  0.00000000000E+00 -0.00000000000E+00 -0.34971573230E+02  0.34971573230E+02  0.00000000000E+00 0. -1.
         23    2    1    2    0    0  0.00000000000E+00  0.00000000000E+00  0.24989066589E+02  0.94932213050E+02  0.91584232407E+02 0.  0.
        -13    1    3    3    0    0 -0.22076933211E+02 -0.21971721164E+02 -0.22299967452E+02  0.38307128048E+02  0.00000000000E+00 0. -1.
         13    1    3    3    0    0  0.22076933211E+02  0.21971721164E+02  0.47289034041E+02  0.56625085002E+02  0.00000000000E+00 0.  1.
<mgrwt>
<rscale>  0 0.91584232E+02</rscale>
<asrwt>0</asrwt>
<pdfrwt beam="2">  1        1 0.53802420E-02 0.91584232E+02</pdfrwt>
<pdfrwt beam="1">  1       -1 0.92247139E-02 0.91584232E+02</pdfrwt>
<totfact> 0.87691706E+04</totfact>
</mgrwt>
</event>
<event>
 4    1  0.6112843E+000  0.1446931E+03  0.7546771E-02  0.1207150E+00
         -4   -1    0    0    0  501 -0.00000000000E+00  0.00000000000E+00  0.25492570628E+03  0.25492570628E+03  0.00000000000E+00 0.  1.
          4   -1    0    0  501    0  0.00000000000E+00 -0.00000000000E+00 -0.20531563660E+02  0.20531563660E+02  0.00000000000E+00 0. -1.
        -13    1    1    2    0    0  0.36291882038E+02 -0.58420136915E+02  0.74457899055E+02  0.10136070161E+03  0.00000000000E+00 0. -1.
         13    1    1    2    0    0 -0.36291882038E+02  0.58420136915E+02  0.15993624357E+03  0.17409656834E+03  0.00000000000E+00 0.  1.
<mgrwt>
<rscale>  0 0.14469310E+03</rscale>
<asrwt>0</asrwt>
<pdfrwt beam="2">  1        4 0.31587023E-02 0.14469310E+03</pdfrwt>
<pdfrwt beam="1">  1       -4 0.39219337E-01 0.14469310E+03</pdfrwt>
<totfact> 0.52233265E+03</totfact>
</mgrwt>
</event>
<event>
 5    1  0.6112843E+000  0.9970332E+02  0.7546771E-02  0.1280921E+00
          2   -1    0    0  501    0  0.00000000000E+00  0.00000000000E+00  0.28768783410E+02  0.28768783410E+02  0.00000000000E+00 0. -1.
         -2   -1    0    0    0  501 -0.00000000000E+00 -0.00000000000E+00 -0.86384886524E+02  0.86384886524E+02  0.00000000000E+00 0.  1.
         23    2    1    2    0    0  0.00000000000E+00  0.00000000000E+00 -0.57616103114E+02  0.11515366993E+03  0.99703321716E+02 0.  0.
        -13    1    3    3    0    0  0.14174001282E+02 -0.27923708216E+02 -0.73607410553E+02  0.79991791337E+02  0.00000000000E+00 0.  1.
         13    1    3    3    0    0 -0.14174001282E+02  0.27923708216E+02  0.15991307439E+02  0.35161878597E+02  0.00000000000E+00 0. -1.
<mgrwt>
<rscale>  0 0.99703322E+02</rscale>
<asrwt>0</asrwt>
<pdfrwt beam="1">  1        2 0.44259667E-02 0.99703322E+02</pdfrwt>
<pdfrwt beam="2">  1       -2 0.13289982E-01 0.99703322E+02</pdfrwt>
<totfact> 0.66799646E+04</totfact>
</mgrwt>
</event>
<event>
 5    1  0.6112843E+000  0.9015972E+02  0.7546771E-02  0.1302465E+00
         -3   -1    0    0    0  501 -0.00000000000E+00  0.00000000000E+00  0.16832567612E+02  0.16832567612E+02  0.00000000000E+00 0.  1.
          3   -1    0    0  501    0  0.00000000000E+00 -0.00000000000E+00 -0.12072987543E+03  0.12072987543E+03  0.00000000000E+00 0. -1.
         23    2    1    2    0    0  0.00000000000E+00  0.00000000000E+00 -0.10389730781E+03  0.13756244304E+03  0.90159720296E+02 0.  0.
        -13    1    3    3    0    0  0.25090240862E+02 -0.37405122090E+02 -0.49081822852E+02  0.66615979161E+02  0.00000000000E+00 0.  1.
         13    1    3    3    0    0 -0.25090240862E+02  0.37405122090E+02 -0.54815484962E+02  0.70946463878E+02  0.00000000000E+00 0. -1.
<mgrwt>
<rscale>  0 0.90159720E+02</rscale>
<asrwt>0</asrwt>
<pdfrwt beam="2">  1        3 0.18573826E-01 0.90159720E+02</pdfrwt>
<pdfrwt beam="1">  1       -3 0.25896259E-02 0.90159720E+02</pdfrwt>
<totfact> 0.33074296E+04</totfact>
</mgrwt>
</event>
<event>
 5    1  0.6112843E+000  0.8708458E+02  0.7546771E-02  0.1310069E+00
          3   -1    0    0  501    0  0.00000000000E+00  0.00000000000E+00  0.23128386901E+02  0.23128386901E+02  0.00000000000E+00 0. -1.
         -3   -1    0    0    0  501 -0.00000000000E+00 -0.00000000000E+00 -0.81974196846E+02  0.81974196846E+02  0.00000000000E+00 0.  1.
         23    2    1    2    0    0  0.00000000000E+00  0.00000000000E+00 -0.58845809945E+02  0.10510258375E+03  0.87084578211E+02 0.  0.
        -13    1    3    3    0    0 -0.23828566507E+02 -0.33385323288E+02 -0.47059814396E+02  0.62426008393E+02  0.00000000000E+00 0.  1.
         13    1    3    3    0    0  0.23828566507E+02  0.33385323288E+02 -0.11785995549E+02  0.42676575354E+02  0.00000000000E+00 0. -1.
<mgrwt>
<rscale>  0 0.87084578E+02</rscale>
<asrwt>0</asrwt>
<pdfrwt beam="1">  1        3 0.35582133E-02 0.87084578E+02</pdfrwt>
<pdfrwt beam="2">  1       -3 0.12611415E-01 0.87084578E+02</pdfrwt>
<totfact> 0.38841422E+04</totfact>
</mgrwt>
</event>
<event>
 5    1  0.6112843E+000  0.9114790E+02  0.7546771E-02  0.1300095E+00
         -1   -1    0    0    0  501 -0.00000000000E+00  0.00000000000E+00  0.66036152713E+02  0.66036152713E+02  0.00000000000E+00 0.  1.
          1   -1    0    0  501    0  0.00000000000E+00 -0.00000000000E+00 -0.31452237853E+02  0.31452237853E+02  0.00000000000E+00 0. -1.
         23    2    1    2    0    0  0.00000000000E+00  0.00000000000E+00  0.34583914860E+02  0.97488390567E+02  0.91147897004E+02 0.  0.
        -13    1    3    3    0    0 -0.27745913631E+01  0.19446119197E+02 -0.26692108188E+02  0.33140889375E+02  0.00000000000E+00 0. -1.
         13    1    3    3    0    0  0.27745913631E+01 -0.19446119197E+02  0.61276023048E+02  0.64347501192E+02  0.00000000000E+00 0.  1.
<mgrwt>
<rscale>  0 0.91147897E+02</rscale>
<asrwt>0</asrwt>
<pdfrwt beam="2">  1        1 0.48388058E-02 0.91147897E+02</pdfrwt>
<pdfrwt beam="1">  1       -1 0.10159408E-01 0.91147897E+02</pdfrwt>
<totfact> 0.87423186E+04</totfact>
</mgrwt>
</event>
<event>
 5    1  0.6112843E+000  0.9228468E+02  0.7546771E-02  0.1297411E+00
         -1   -1    0    0    0  501 -0.00000000000E+00  0.00000000000E+00  0.17958459234E+02  0.17958459234E+02  0.00000000000E+00 0.  1.
          1   -1    0    0  501    0  0.00000000000E+00 -0.00000000000E+00 -0.11855781320E+03  0.11855781320E+03  0.00000000000E+00 0. -1.
         23    2    1    2    0    0  0.00000000000E+00  0.00000000000E+00 -0.10059935397E+03  0.13651627244E+03  0.92284682485E+02 0.  0.
        -13    1    3    3    0    0 -0.33169405068E+02  0.29255723117E+00 -0.28509427124E+01  0.33292985697E+02  0.00000000000E+00 0.  1.
         13    1    3    3    0    0  0.33169405068E+02 -0.29255723117E+00 -0.97748411258E+02  0.10322328674E+03  0.00000000000E+00 0. -1.
<mgrwt>
<rscale>  0 0.92284682E+02</rscale>
<asrwt>0</asrwt>
<pdfrwt beam="2">  1        1 0.18239664E-01 0.92284682E+02</pdfrwt>
<pdfrwt beam="1">  1       -1 0.27628399E-02 0.92284682E+02</pdfrwt>
<totfact> 0.10404180E+05</totfact>
</mgrwt>
</event>
<event>
 5    1  0.6112843E+000  0.7751269E+02  0.7546771E-02  0.1336262E+00
          1   -1    0    0  501    0  0.00000000000E+00  0.00000000000E+00  0.23584597376E+02  0.23584597376E+02  0.00000000000E+00 0. -1.
         -1   -1    0    0    0  501 -0.00000000000E+00 -0.00000000000E+00 -0.63687930271E+02  0.63687930271E+02  0.00000000000E+00 0.  1.
         23    2    1    2    0    0  0.00000000000E+00  0.00000000000E+00 -0.40103332894E+02  0.87272527647E+02  0.77512687817E+02 0.  0.
        -13    1    3    3    0    0 -0.27531926480E+02  0.26857645990E+02 -0.14685647135E+02  0.41170479176E+02  0.00000000000E+00 0.  1.
         13    1    3    3    0    0  0.27531926480E+02 -0.26857645990E+02 -0.25417685759E+02  0.46102048471E+02  0.00000000000E+00 0. -1.
<mgrwt>
<rscale>  0 0.77512688E+02</rscale>
<asrwt>0</asrwt>
<pdfrwt beam="1">  1        1 0.36283996E-02 0.77512688E+02</pdfrwt>
<pdfrwt beam="2">  1       -1 0.97981430E-02 0.77512688E+02</pdfrwt>
<totfact> 0.13262314E+05</totfact>
</mgrwt>
</event>
<event>
 5    1  0.6112843E+000  0.9508694E+02  0.7546771E-02  0.1290980E+00
         -4   -1    0    0    0  501 -0.00000000000E+00  0.00000000000E+00  0.49021191782E+02  0.49021191782E+02  0.00000000000E+00 0.  1.
          4   -1    0    0  501    0  0.00000000000E+00 -0.00000000000E+00 -0.46110291697E+02  0.46110291697E+02  0.00000000000E+00 0. -1.
         23    2    1    2    0    0  0.00000000000E+00  0.00000000000E+00  0.29109000849E+01  0.95131483480E+02  0.95086938166E+02 0.  0.
        -13    1    3    3    0    0  0.88700801935E+01 -0.34770075074E+02  0.32658921404E+02  0.48520527517E+02  0.00000000000E+00 0.  1.
         13    1    3    3    0    0 -0.88700801935E+01  0.34770075074E+02 -0.29748021319E+02  0.46610955962E+02  0.00000000000E+00 0. -1.
<mgrwt>
<rscale>  0 0.95086938E+02</rscale>
<asrwt>0</asrwt>
<pdfrwt beam="2">  1        4 0.70938910E-02 0.95086938E+02</pdfrwt>
<pdfrwt beam="1">  1       -4 0.75417218E-02 0.95086938E+02</pdfrwt>
<totfact> 0.23869345E+04</totfact>
</mgrwt>
</event>
<event>
 5    1  0.6112843E+000  0.9026808E+02  0.7546771E-02  0.1302204E+00
         -2   -1    0    0    0  501 -0.00000000000E+00  0.00000000000E+00  0.52629744965E+02  0.52629744965E+02  0.00000000000E+00 0.  1.
          2   -1    0    0  501    0  0.00000000000E+00 -0.00000000000E+00 -0.38705895472E+02  0.38705895472E+02  0.00000000000E+00 0. -1.
         23    2    1    2    0    0  0.00000000000E+00  0.00000000000E+00  0.13923849494E+02  0.91335640437E+02  0.90268076468E+02 0.  0.
        -13    1    3    3    0    0  0.43957322911E+02  0.53038227575E+01 -0.18997721441E+01  0.44316880616E+02  0.00000000000E+00 0.  1.
         13    1    3    3    0    0 -0.43957322911E+02 -0.53038227575E+01  0.15823621638E+02  0.47018759821E+02  0.00000000000E+00 0. -1.
<mgrwt>
<rscale>  0 0.90268076E+02</rscale>
<asrwt>0</asrwt>
<pdfrwt beam="2">  1        2 0.59547531E-02 0.90268076E+02</pdfrwt>
<pdfrwt beam="1">  1       -2 0.80968839E-02 0.90268076E+02</pdfrwt>
<totfact> 0.97366113E+04</totfact>
</mgrwt>
</event>
<event>
 5    1  0.6112843E+000  0.9375625E+02  0.7546771E-02  0.1294002E+00
          4   -1    0    0  501    0  0.00000000000E+00  0.00000000000E+00  0.16164104173E+03  0.16164104173E+03  0.00000000000E+00 0. -1.
         -4   -1    0    0    0  501 -0.00000000000E+00 -0.00000000000E+00 -0.13595302029E+02  0.13595302029E+02  0.00000000000E+00 0.  1.
         23    2    1    2    0    0  0.00000000000E+00  0.00000000000E+00  0.14804573970E+03  0.17523634376E+03  0.93756253818E+02 0.  0.
        -13    1    3    3    0    0  0.36063028911E+02  0.15330224414E+02  0.25933039754E+02  0.46990215851E+02  0.00000000000E+00 0.  1.
         13    1    3    3    0    0 -0.36063028911E+02 -0.15330224414E+02  0.12211269995E+03  0.12824612791E+03  0.00000000000E+00 0. -1.
<mgrwt>
<rscale>  0 0.93756254E+02</rscale>
<asrwt>0</asrwt>
<pdfrwt beam="1">  1        4 0.24867851E-01 0.93756254E+02</pdfrwt>
<pdfrwt beam="2">  1       -4 0.20915851E-02 0.93756254E+02</pdfrwt>
<totfact> 0.20840436E+04</totfact>
</mgrwt>
</event>
<event>
 5    1  0.6112843E+000  0.9246839E+02  0.7546771E-02  0.1296982E+00
          1   -1    0    0  501    0  0.00000000000E+00  0.00000000000E+00  0.12949422927E+03  0.12949422927E+03  0.00000000000E+00 0. -1.
         -1   -1    0    0    0  501 -0.00000000000E+00 -0.00000000000E+00 -0.16507304515E+02  0.16507304515E+02  0.00000000000E+00 0.  1.
         23    2    1    2    0    0  0.00000000000E+00  0.00000000000E+00  0.11298692475E+03  0.14600153378E+03  0.92468387582E+02 0.  0.
        -13    1    3    3    0    0  0.31054711027E+02 -0.33967179909E+02  0.49532475874E+02  0.67613834044E+02  0.00000000000E+00 0.  1.
         13    1    3    3    0    0 -0.31054711027E+02  0.33967179909E+02  0.63454448880E+02  0.78387699741E+02  0.00000000000E+00 0. -1.
<mgrwt>
<rscale>  0 0.92468388E+02</rscale>
<asrwt>0</asrwt>
<pdfrwt beam="1">  1        1 0.19922188E-01 0.92468388E+02</pdfrwt>
<pdfrwt beam="2">  1       -1 0.25395854E-02 0.92468388E+02</pdfrwt>
<totfact> 0.10510509E+05</totfact>
</mgrwt>
</event>
<event>
 5    1  0.6112843E+000  0.7941533E+02  0.7546771E-02  0.1330719E+00
         -2   -1    0    0    0  501 -0.00000000000E+00  0.00000000000E+00  0.15015698500E+02  0.15015698500E+02  0.00000000000E+00 0.  1.
          2   -1    0    0  501    0  0.00000000000E+00 -0.00000000000E+00 -0.10500335157E+03  0.10500335157E+03  0.00000000000E+00 0. -1.
         23    2    1    2    0    0  0.00000000000E+00  0.00000000000E+00 -0.89987653069E+02  0.12001905007E+03  0.79415330225E+02 0.  0.
        -13    1    3    3    0    0  0.13231429782E+02  0.32050717827E+02 -0.74235473080E+02  0.81934270672E+02  0.00000000000E+00 0. -1.
         13    1    3    3    0    0 -0.13231429782E+02 -0.32050717827E+02 -0.15752179989E+02  0.38084779397E+02  0.00000000000E+00 0.  1.
<mgrwt>
<rscale>  0 0.79415330E+02</rscale>
<asrwt>0</asrwt>
<pdfrwt beam="2">  1        2 0.16154362E-01 0.79415330E+02</pdfrwt>
<pdfrwt beam="1">  1       -2 0.23101074E-02 0.79415330E+02</pdfrwt>
<totfact> 0.18128576E+05</totfact>
</mgrwt>
</event>
<event>
 5    1  0.6112843E+000  0.9092200E+02  0.7546771E-02  0.1300634E+00
          3   -1    0    0  501    0  0.00000000000E+00  0.00000000000E+00  0.92451319923E+01  0.92451319923E+01  0.00000000000E+00 0. -1.
         -3   -1    0    0    0  501 -0.00000000000E+00 -0.00000000000E+00 -0.22354494999E+03  0.22354494999E+03  0.00000000000E+00 0.  1.
         23    2    1    2    0    0  0.00000000000E+00  0.00000000000E+00 -0.21429981800E+03  0.23279008198E+03  0.90922001053E+02 0.  0.
        -13    1    3    3    0    0 -0.16865858777E+00  0.32114253169E+02 -0.18953314446E+03  0.19223466532E+03  0.00000000000E+00 0.  1.
         13    1    3    3    0    0  0.16865858777E+00 -0.32114253169E+02 -0.24766673534E+02  0.40555416657E+02  0.00000000000E+00 0. -1.
<mgrwt>
<rscale>  0 0.90922001E+02</rscale>
<asrwt>0</asrwt>
<pdfrwt beam="1">  1        3 0.14223280E-02 0.90922001E+02</pdfrwt>
<pdfrwt beam="2">  1       -3 0.34391530E-01 0.90922001E+02</pdfrwt>
<totfact> 0.27087793E+04</totfact>
</mgrwt>
</event>
<event>
 5    1  0.6112843E+000  0.8912259E+02  0.7546771E-02  0.1304990E+00
         -1   -1    0    0    0  501 -0.00000000000E+00  0.00000000000E+00  0.83992367866E+02  0.83992367866E+02  0.00000000000E+00 0.  1.
          1   -1    0    0  501    0  0.00000000000E+00 -0.00000000000E+00 -0.23641540704E+02  0.23641540704E+02  0.00000000000E+00 0. -1.
         23    2    1    2    0    0  0.00000000000E+00  0.00000000000E+00  0.60350827162E+02  0.10763390857E+03  0.89122589365E+02 0.  0.
        -13    1    3    3    0    0  0.21303968438E+02  0.71862640255E+00 -0.17084857181E+02  0.27317903287E+02  0.00000000000E+00 0. -1.
         13    1    3    3    0    0 -0.21303968438E+02 -0.71862640255E+00  0.77435684343E+02  0.80316005284E+02  0.00000000000E+00 0.  1.
<mgrwt>
<rscale>  0 0.89122589E+02</rscale>
<asrwt>0</asrwt>
<pdfrwt beam="2">  1        1 0.36371602E-02 0.89122589E+02</pdfrwt>
<pdfrwt beam="1">  1       -1 0.12921903E-01 0.89122589E+02</pdfrwt>
<totfact> 0.88994138E+04</totfact>
</mgrwt>
</event>
<event>
 4    1  0.6112843E+000  0.2907560E+02  0.7546771E-02  0.1608537E+00
         -2   -1    0    0    0  501 -0.00000000000E+00  0.00000000000E+00  0.28266053736E+01  0.28266053736E+01  0.00000000000E+00 0.  1.
          2   -1    0    0  501    0  0.00000000000E+00 -0.00000000000E+00 -0.74770810833E+02  0.74770810833E+02  0.00000000000E+00 0. -1.
        -13    1    1    2    0    0 -0.93944190167E+01 -0.11073538552E+02 -0.37800214328E+02  0.40493636142E+02  0.00000000000E+00 0. -1.
         13    1    1    2    0    0  0.93944190167E+01  0.11073538552E+02 -0.34143991131E+02  0.37103780065E+02  0.00000000000E+00 0.  1.
<mgrwt>
<rscale>  0 0.29075596E+02</rscale>
<asrwt>0</asrwt>
<pdfrwt beam="2">  1        2 0.11503199E-01 0.29075596E+02</pdfrwt>
<pdfrwt beam="1">  1       -2 0.43486245E-03 0.29075596E+02</pdfrwt>
<totfact> 0.21085688E+06</totfact>
</mgrwt>
</event>
<event>
 5    1  0.6112843E+000  0.9057704E+02  0.7546771E-02  0.1301460E+00
         -2   -1    0    0    0  501 -0.00000000000E+00  0.00000000000E+00  0.71293454993E+02  0.71293454993E+02  0.00000000000E+00 0.  1.
          2   -1    0    0  501    0  0.00000000000E+00 -0.00000000000E+00 -0.28769121016E+02  0.28769121016E+02  0.00000000000E+00 0. -1.
         23    2    1    2    0    0  0.00000000000E+00  0.00000000000E+00  0.42524333976E+02  0.10006257601E+03  0.90577039792E+02 0.  0.
        -13    1    3    3    0    0  0.10285036548E+02 -0.27089461963E+02 -0.17188383189E+02  0.33690672936E+02  0.00000000000E+00 0. -1.
         13    1    3    3    0    0 -0.10285036548E+02  0.27089461963E+02  0.59712717165E+02  0.66371903073E+02  0.00000000000E+00 0.  1.
<mgrwt>
<rscale>  0 0.90577040E+02</rscale>
<asrwt>0</asrwt>
<pdfrwt beam="2">  1        2 0.44260186E-02 0.90577040E+02</pdfrwt>
<pdfrwt beam="1">  1       -2 0.10968224E-01 0.90577040E+02</pdfrwt>
<totfact> 0.89212741E+04</totfact>
</mgrwt>
</event>
<event>
 5    1  0.6112843E+000  0.9011369E+02  0.7546771E-02  0.1302577E+00
         -1   -1    0    0    0  501 -0.00000000000E+00  0.00000000000E+00  0.18508215536E+02  0.18508215536E+02  0.00000000000E+00 0.  1.
          1   -1    0    0  501    0  0.00000000000E+00 -0.00000000000E+00 -0.10968746239E+03  0.10968746239E+03  0.00000000000E+00 0. -1.
         23    2    1    2    0    0  0.00000000000E+00  0.00000000000E+00 -0.91179246859E+02  0.12819567793E+03  0.90113688096E+02 0.  0.
        -13    1    3    3    0    0 -0.22266709591E+01  0.43197181777E+02 -0.63537202906E+02  0.76863064798E+02  0.00000000000E+00 0.  1.
         13    1    3    3    0    0  0.22266709591E+01 -0.43197181777E+02 -0.27642043953E+02  0.51332613132E+02  0.00000000000E+00 0. -1.
<mgrwt>
<rscale>  0 0.90113688E+02</rscale>
<asrwt>0</asrwt>
<pdfrwt beam="2">  1        1 0.16874994E-01 0.90113688E+02</pdfrwt>
<pdfrwt beam="1">  1       -1 0.28474178E-02 0.90113688E+02</pdfrwt>
<totfact> 0.10952067E+05</totfact>
</mgrwt>
</event>
<event>
 5    1  0.6112843E+000  0.7701448E+02  0.7546771E-02  0.1337744E+00
         -4   -1    0    0    0  501 -0.00000000000E+00  0.00000000000E+00  0.48384090395E+02  0.48384090395E+02  0.00000000000E+00 0.  1.
          4   -1    0    0  501    0  0.00000000000E+00 -0.00000000000E+00 -0.30646597102E+02  0.30646597102E+02  0.00000000000E+00 0. -1.
         23    2    1    2    0    0  0.00000000000E+00  0.00000000000E+00  0.17737493293E+02  0.79030687498E+02  0.77014484988E+02 0.  0.
        -13    1    3    3    0    0 -0.23945413172E+02 -0.11627952907E+02  0.37421915261E+02  0.45923761198E+02  0.00000000000E+00 0.  1.
         13    1    3    3    0    0  0.23945413172E+02  0.11627952907E+02 -0.19684421968E+02  0.33106926299E+02  0.00000000000E+00 0. -1.
<mgrwt>
<rscale>  0 0.77014485E+02</rscale>
<asrwt>0</asrwt>
<pdfrwt beam="2">  1        4 0.47148611E-02 0.77014485E+02</pdfrwt>
<pdfrwt beam="1">  1       -4 0.74437062E-02 0.77014485E+02</pdfrwt>
<totfact> 0.43785386E+04</totfact>
</mgrwt>
</event>
<event>
 5    1  0.6112843E+000  0.9035337E+02  0.7546771E-02  0.1301998E+00
          2   -1    0    0  501    0  0.00000000000E+00  0.00000000000E+00  0.20329790379E+03  0.20329790379E+03  0.00000000000E+00 0. -1.
         -2   -1    0    0    0  501 -0.00000000000E+00 -0.00000000000E+00 -0.10039125021E+02  0.10039125021E+02  0.00000000000E+00 0.  1.
         23    2    1    2    0    0  0.00000000000E+00  0.00000000000E+00  0.19325877877E+03  0.21333702882E+03  0.90353374541E+02 0.  0.
        -13    1    3    3    0    0 -0.10141833371E+02 -0.41665650162E+02  0.63067131591E+02  0.76264974102E+02  0.00000000000E+00 0.  1.
         13    1    3    3    0    0  0.10141833371E+02  0.41665650162E+02  0.13019164718E+03  0.13707205471E+03  0.00000000000E+00 0. -1.
<mgrwt>
<rscale>  0 0.90353375E+02</rscale>
<asrwt>0</asrwt>
<pdfrwt beam="1">  1        2 0.31276598E-01 0.90353375E+02</pdfrwt>
<pdfrwt beam="2">  1       -2 0.15444809E-02 0.90353375E+02</pdfrwt>
<totfact> 0.15944010E+05</totfact>
</mgrwt>
</event>
<event>
 5    1  0.6112843E+000  0.9094617E+02  0.7546771E-02  0.1300576E+00
         -3   -1    0    0    0  501 -0.00000000000E+00  0.00000000000E+00  0.11821837074E+02  0.11821837074E+02  0.00000000000E+00 0.  1.
          3   -1    0    0  501    0  0.00000000000E+00 -0.00000000000E+00 -0.17491369866E+03  0.17491369866E+03  0.00000000000E+00 0. -1.
         23    2    1    2    0    0  0.00000000000E+00  0.00000000000E+00 -0.16309186159E+03  0.18673553574E+03  0.90946165340E+02 0.  0.
        -13    1    3    3    0    0 -0.34770351996E+02  0.12531047035E+02 -0.27152274850E+02  0.45861209614E+02  0.00000000000E+00 0.  1.
         13    1    3    3    0    0  0.34770351996E+02 -0.12531047035E+02 -0.13593958674E+03  0.14087432612E+03  0.00000000000E+00 0. -1.
<mgrwt>
<rscale>  0 0.90946165E+02</rscale>
<asrwt>0</asrwt>
<pdfrwt beam="2">  1        3 0.26909799E-01 0.90946165E+02</pdfrwt>
<pdfrwt beam="1">  1       -3 0.18187442E-02 0.90946165E+02</pdfrwt>
<totfact> 0.29399540E+04</totfact>
</mgrwt>
</event>
<event>
 5    1  0.6112843E+000  0.7855892E+02  0.7546771E-02  0.1333191E+00
          3   -1    0    0  501    0  0.00000000000E+00  0.00000000000E+00  0.88837209848E+01  0.88837209848E+01  0.00000000000E+00 0. -1.
         -3   -1    0    0    0  501 -0.00000000000E+00 -0.00000000000E+00 -0.17367450365E+03  0.17367450365E+03  0.00000000000E+00 0.  1.
         23    2    1    2    0    0  0.00000000000E+00  0.00000000000E+00 -0.16479078267E+03  0.18255822464E+03  0.78558916301E+02 0.  0.
        -13    1    3    3    0    0  0.17914692154E+02  0.31496865061E+02 -0.11762949664E+03  0.12308406551E+03  0.00000000000E+00 0.  1.
         13    1    3    3    0    0 -0.17914692154E+02 -0.31496865061E+02 -0.47161286029E+02  0.59474159124E+02  0.00000000000E+00 0. -1.
<mgrwt>
<rscale>  0 0.78558916E+02</rscale>
<asrwt>0</asrwt>
<pdfrwt beam="1">  1        3 0.13667262E-02 0.78558916E+02</pdfrwt>
<pdfrwt beam="2">  1       -3 0.26719156E-01 0.78558916E+02</pdfrwt>
<totfact> 0.43830291E+04</totfact>
</mgrwt>
</event>
<event>
 5    1  0.6112843E+000  0.9061507E+02  0.7546771E-02  0.1301369E+00
         -2   -1    0    0    0  501 -0.00000000000E+00  0.00000000000E+00  0.15066634393E+02  0.15066634393E+02  0.00000000000E+00 0.  1.
          2   -1    0    0  501    0  0.00000000000E+00 -0.00000000000E+00 -0.13624626582E+03  0.13624626582E+03  0.00000000000E+00 0. -1.
         23    2    1    2    0    0  0.00000000000E+00  0.00000000000E+00 -0.12117963143E+03  0.15131290021E+03  0.90615068825E+02 0.  0.
        -13    1    3    3    0    0 -0.32578451856E+02  0.19558548102E+02 -0.10179401779E+03  0.10865502468E+03  0.00000000000E+00 0.  1.
         13    1    3    3    0    0  0.32578451856E+02 -0.19558548102E+02 -0.19385613631E+02  0.42657875533E+02  0.00000000000E+00 0. -1.
<mgrwt>
<rscale>  0 0.90615069E+02</rscale>
<asrwt>0</asrwt>
<pdfrwt beam="2">  1        2 0.20960963E-01 0.90615069E+02</pdfrwt>
<pdfrwt beam="1">  1       -2 0.23179439E-02 0.90615069E+02</pdfrwt>
<totfact> 0.13765642E+05</totfact>
</mgrwt>
</event>
<event>
 5    1  0.6112843E+000  0.9413164E+02  0.7546771E-02  0.1293144E+00
          4   -1    0    0  501    0  0.00000000000E+00  0.00000000000E+00  0.10360544704E+03  0.10360544704E+03  0.00000000000E+00 0. -1.
         -4   -1    0    0    0  501 -0.00000000000E+00 -0.00000000000E+00 -0.21381030897E+02  0.21381030897E+02  0.00000000000E+00 0.  1.
         23    2    1    2    0    0  0.00000000000E+00  0.00000000000E+00  0.82224416141E+02  0.12498647794E+03  0.94131636855E+02 0.  0.
        -13    1    3    3    0    0 -0.73896915507E+01  0.41992076733E+02  0.67576418610E+02  0.79903156394E+02  0.00000000000E+00 0. -1.
         13    1    3    3    0    0  0.73896915507E+01 -0.41992076733E+02  0.14647997531E+02  0.45083321541E+02  0.00000000000E+00 0.  1.
<mgrwt>
<rscale>  0 0.94131637E+02</rscale>
<asrwt>0</asrwt>
<pdfrwt beam="1">  1        4 0.15939299E-01 0.94131637E+02</pdfrwt>
<pdfrwt beam="2">  1       -4 0.32893894E-02 0.94131637E+02</pdfrwt>
<totfact> 0.22923147E+04</totfact>
</mgrwt>
</event>
<event>
 5    1  0.6112843E+000  0.9106795E+02  0.7546771E-02  0.1300286E+00
          1   -1    0    0  501    0  0.00000000000E+00  0.00000000000E+00  0.97331716376E+02  0.97331716376E+02  0.00000000000E+00 0. -1.
         -1   -1    0    0    0  501 -0.00000000000E+00 -0.00000000000E+00 -0.21301821893E+02  0.21301821893E+02  0.00000000000E+00 0.  1.
         23    2    1    2    0    0  0.00000000000E+00  0.00000000000E+00  0.76029894483E+02  0.11863353827E+03  0.91067950163E+02 0.  0.
        -13    1    3    3    0    0  0.23900995879E+02 -0.26705873784E+02  0.14261753665E+01  0.35867746998E+02  0.00000000000E+00 0.  1.
         13    1    3    3    0    0 -0.23900995879E+02  0.26705873784E+02  0.74603719117E+02  0.82765791270E+02  0.00000000000E+00 0. -1.
<mgrwt>
<rscale>  0 0.91067950E+02</rscale>
<asrwt>0</asrwt>
<pdfrwt beam="1">  1        1 0.14974110E-01 0.91067950E+02</pdfrwt>
<pdfrwt beam="2">  1       -1 0.32772034E-02 0.91067950E+02</pdfrwt>
<totfact> 0.10432450E+05</totfact>
</mgrwt>
</event>
<event>
 5    1  0.6112843E+000  0.8845571E+02  0.7546771E-02  0.1306635E+00
          2   -1    0    0  501    0  0.00000000000E+00  0.00000000000E+00  0.35488720226E+03  0.35488720226E+03  0.00000000000E+00 0. -1.
         -2   -1    0    0    0  501 -0.00000000000E+00 -0.00000000000E+00 -0.55119006980E+01  0.55119006980E+01  0.00000000000E+00 0.  1.
         23    2    1    2    0    0  0.00000000000E+00  0.00000000000E+00  0.34937530156E+03  0.36039910296E+03  0.88455706834E+02 0.  0.
        -13    1    3    3    0    0 -0.21884668511E+02 -0.34921659029E+02  0.10928938942E+03  0.11680167646E+03  0.00000000000E+00 0.  1.
         13    1    3    3    0    0  0.21884668511E+02  0.34921659029E+02  0.24008591215E+03  0.24359742650E+03  0.00000000000E+00 0. -1.
<mgrwt>
<rscale>  0 0.88455707E+02</rscale>
<asrwt>0</asrwt>
<pdfrwt beam="1">  1        2 0.54598013E-01 0.88455707E+02</pdfrwt>
<pdfrwt beam="2">  1       -2 0.84798500E-03 0.88455707E+02</pdfrwt>
<totfact> 0.20717215E+05</totfact>
</mgrwt>
</event>
<event>
 5    1  0.6112843E+000  0.9032273E+02  0.7546771E-02  0.1302072E+00
         -1   -1    0    0    0  501 -0.00000000000E+00  0.00000000000E+00  0.34344042382E+02  0.34344042382E+02  0.00000000000E+00 0.  1.
          1   -1    0    0  501    0  0.00000000000E+00 -0.00000000000E+00 -0.59385806794E+02  0.59385806794E+02  0.00000000000E+00 0. -1.
         23    2    1    2    0    0  0.00000000000E+00  0.00000000000E+00 -0.25041764411E+02  0.93729849176E+02  0.90322725057E+02 0.  0.
        -13    1    3    3    0    0  0.10652275506E+02 -0.31814818582E+02 -0.43891931088E+02  0.55246314533E+02  0.00000000000E+00 0. -1.
         13    1    3    3    0    0 -0.10652275506E+02  0.31814818582E+02  0.18850166676E+02  0.38483534643E+02  0.00000000000E+00 0.  1.
<mgrwt>
<rscale>  0 0.90322725E+02</rscale>
<asrwt>0</asrwt>
<pdfrwt beam="2">  1        1 0.91362779E-02 0.90322725E+02</pdfrwt>
<pdfrwt beam="1">  1       -1 0.52836989E-02 0.90322725E+02</pdfrwt>
<totfact> 0.98763931E+04</totfact>
</mgrwt>
</event>
<event>
 5    1  0.6112843E+000  0.8796803E+02  0.7546771E-02  0.1307848E+00
         -1   -1    0    0    0  501 -0.00000000000E+00  0.00000000000E+00  0.93688775588E+01  0.93688775588E+01  0.00000000000E+00 0.  1.
          1   -1    0    0  501    0  0.00000000000E+00 -0.00000000000E+00 -0.20649151441E+03  0.20649151441E+03  0.00000000000E+00 0. -1.
         23    2    1    2    0    0  0.00000000000E+00  0.00000000000E+00 -0.19712263685E+03  0.21586039197E+03  0.87968033180E+02 0.  0.
        -13    1    3    3    0    0 -0.43068189099E+02  0.75020145592E+01 -0.11044276485E+03  0.11878027379E+03  0.00000000000E+00 0. -1.
         13    1    3    3    0    0  0.43068189099E+02 -0.75020145592E+01 -0.86679872000E+02  0.97080118174E+02  0.00000000000E+00 0.  1.
<mgrwt>
<rscale>  0 0.87968033E+02</rscale>
<asrwt>0</asrwt>
<pdfrwt beam="2">  1        1 0.31767930E-01 0.87968033E+02</pdfrwt>
<pdfrwt beam="1">  1       -1 0.14413656E-02 0.87968033E+02</pdfrwt>
<totfact> 0.13111860E+05</totfact>
</mgrwt>
</event>
<event>
 5    1  0.6112843E+000  0.9278967E+02  0.7546771E-02  0.1296233E+00
         -3   -1    0    0    0  501 -0.00000000000E+00  0.00000000000E+00  0.91094656643E+02  0.91094656643E+02  0.00000000000E+00 0.  1.
          3   -1    0    0  501    0  0.00000000000E+00 -0.00000000000E+00 -0.23629056427E+02  0.23629056427E+02  0.00000000000E+00 0. -1.
         23    2    1    2    0    0  0.00000000000E+00  0.00000000000E+00  0.67465600215E+02  0.11472371307E+03  0.92789671452E+02 0.  0.
        -13    1    3    3    0    0  0.89201857847E+00  0.16181053954E+02 -0.20015930357E+02  0.25753828303E+02  0.00000000000E+00 0. -1.
         13    1    3    3    0    0 -0.89201857847E+00 -0.16181053954E+02  0.87481530572E+02  0.88969884767E+02  0.00000000000E+00 0.  1.
<mgrwt>
<rscale>  0 0.92789671E+02</rscale>
<asrwt>0</asrwt>
<pdfrwt beam="2">  1        3 0.36352395E-02 0.92789671E+02</pdfrwt>
<pdfrwt beam="1">  1       -3 0.14014562E-01 0.92789671E+02</pdfrwt>
<totfact> 0.32044917E+04</totfact>
</mgrwt>
</event>
<event>
 5    1  0.6112843E+000  0.9135160E+02  0.7546771E-02  0.1299611E+00
         -2   -1    0    0    0  501 -0.00000000000E+00  0.00000000000E+00  0.12365881732E+02  0.12365881732E+02  0.00000000000E+00 0.  1.
          2   -1    0    0  501    0  0.00000000000E+00 -0.00000000000E+00 -0.16871248708E+03  0.16871248708E+03  0.00000000000E+00 0. -1.
         23    2    1    2    0    0  0.00000000000E+00  0.00000000000E+00 -0.15634660535E+03  0.18107836881E+03  0.91351599044E+02 0.  0.
        -13    1    3    3    0    0  0.19284113143E+01  0.28827298420E+02 -0.14829847792E+03  0.15108663229E+03  0.00000000000E+00 0. -1.
         13    1    3    3    0    0 -0.19284113143E+01 -0.28827298420E+02 -0.80481274305E+01  0.29991736521E+02  0.00000000000E+00 0.  1.
<mgrwt>
<rscale>  0 0.91351599E+02</rscale>
<asrwt>0</asrwt>
<pdfrwt beam="2">  1        2 0.25955767E-01 0.91351599E+02</pdfrwt>
<pdfrwt beam="1">  1       -2 0.19024434E-02 0.91351599E+02</pdfrwt>
<totfact> 0.14483851E+05</totfact>
</mgrwt>
</event>
<event>
 5    1  0.6112843E+000  0.9007444E+02  0.7546771E-02  0.1302672E+00
         -2   -1    0    0    0  501 -0.00000000000E+00  0.00000000000E+00  0.65851469349E+01  0.65851469349E+01  0.00000000000E+00 0. -1.
          2   -1    0    0  501    0  0.00000000000E+00 -0.00000000000E+00 -0.30801911915E+03  0.30801911915E+03  0.00000000000E+00 0.  1.
         23    2    1    2    0    0  0.00000000000E+00  0.00000000000E+00 -0.30143397222E+03  0.31460426609E+03  0.90074439402E+02 0.  0.
        -13    1    3    3    0    0  0.12204056718E+02 -0.43309256514E+02 -0.14398006817E+03  0.15084724303E+03  0.00000000000E+00 0.  1.
         13    1    3    3    0    0 -0.12204056718E+02  0.43309256514E+02 -0.15745390405E+03  0.16375702306E+03  0.00000000000E+00 0. -1.
<mgrwt>
<rscale>  0 0.90074439E+02</rscale>
<asrwt>0</asrwt>
<pdfrwt beam="2">  1        2 0.47387555E-01 0.90074439E+02</pdfrwt>
<pdfrwt beam="1">  1       -2 0.10130996E-02 0.90074439E+02</pdfrwt>
<totfact> 0.18740752E+05</totfact>
</mgrwt>
</event>
<event>
 5    1  0.6112843E+000  0.9076866E+02  0.7546771E-02  0.1301001E+00
         -1   -1    0    0    0  501 -0.00000000000E+00  0.00000000000E+00  0.22777943098E+03  0.22777943098E+03  0.00000000000E+00 0.  1.
          1   -1    0    0  501    0  0.00000000000E+00 -0.00000000000E+00 -0.90426841948E+01  0.90426841948E+01  0.00000000000E+00 0. -1.
         23    2    1    2    0    0  0.00000000000E+00  0.00000000000E+00  0.21873674679E+03  0.23682211518E+03  0.90768661122E+02 0.  0.
        -13    1    3    3    0    0 -0.15906249027E+02 -0.42025631067E+02  0.12598779028E+03  0.13376130130E+03  0.00000000000E+00 0.  1.
         13    1    3    3    0    0  0.15906249027E+02  0.42025631067E+02  0.92748956507E+02  0.10306081388E+03  0.00000000000E+00 0. -1.
<mgrwt>
<rscale>  0 0.90768661E+02</rscale>
<asrwt>0</asrwt>
<pdfrwt beam="2">  1        1 0.13911824E-02 0.90768661E+02</pdfrwt>
<pdfrwt beam="1">  1       -1 0.35042985E-01 0.90768661E+02</pdfrwt>
<totfact> 0.67551568E+04</totfact>
</mgrwt>
</event>
<event>
 5    1  0.6112843E+000  0.8992183E+02  0.7546771E-02  0.1303041E+00
          2   -1    0    0  501    0  0.00000000000E+00  0.00000000000E+00  0.47006948926E+02  0.47006948926E+02  0.00000000000E+00 0. -1.
         -2   -1    0    0    0  501 -0.00000000000E+00 -0.00000000000E+00 -0.43003941288E+02  0.43003941288E+02  0.00000000000E+00 0.  1.
         23    2    1    2    0    0  0.00000000000E+00  0.00000000000E+00  0.40030076379E+01  0.90010890215E+02  0.89921834318E+02 0.  0.
        -13    1    3    3    0    0  0.25260730637E+01  0.24880656439E+02 -0.35399332472E+02  0.43342137112E+02  0.00000000000E+00 0.  1.
         13    1    3    3    0    0 -0.25260730637E+01 -0.24880656439E+02  0.39402340110E+02  0.46668753102E+02  0.00000000000E+00 0. -1.
<mgrwt>
<rscale>  0 0.89921834E+02</rscale>
<asrwt>0</asrwt>
<pdfrwt beam="1">  1        2 0.72318383E-02 0.89921834E+02</pdfrwt>
<pdfrwt beam="2">  1       -2 0.66159909E-02 0.89921834E+02</pdfrwt>
<totfact> 0.10348191E+05</totfact>
</mgrwt>
</event>
