<event>
 4    1  0.4151607E+000  0.2381794E+03  0.7546771E-02  0.1121012E+00
         21   -1    0    0  501  502  0.00000000000E+00  0.00000000000E+00  0.11845523908E+04  0.11845523908E+04  0.00000000000E+00 0. -1.
         21   -1    0    0  502  503 -0.00000000000E+00 -0.00000000000E+00 -0.56548298146E+02  0.56548298146E+02  0.00000000000E+00 0. -1.
          6    1    1    2  501    0 -0.85567808613E+02  0.13956563088E+03  0.80680730377E+03  0.84122971928E+03  0.17300000000E+03 0. -1.
         -6    1    1    2    0  503  0.85567808613E+02 -0.13956563088E+03  0.32119678891E+03  0.39987096969E+03  0.17300000000E+03 0. -1.
<mgrwt>
<rscale>  2 0.23817938E+03</rscale>
<asrwt>0</asrwt>
<pdfrwt beam="1">  1       21 0.18223881E+00 0.23817938E+03</pdfrwt>
<pdfrwt beam="2">  1       21 0.86997391E-02 0.23817938E+03</pdfrwt>
<totfact> 0.17653074E+04</totfact>
</mgrwt>
</event>
<event>
 4    1  0.4151607E+000  0.1872874E+03  0.7546771E-02  0.1160931E+00
         21   -1    0    0  501  502  0.00000000000E+00  0.00000000000E+00  0.43521848767E+03  0.43521848767E+03  0.00000000000E+00 0. -1.
         21   -1    0    0  502  503 -0.00000000000E+00 -0.00000000000E+00 -0.21338403040E+03  0.21338403040E+03  0.00000000000E+00 0. -1.
          6    1    1    2  501    0  0.40409703719E+02  0.59284259852E+02  0.36674534648E+03  0.41179936472E+03  0.17300000000E+03 0. -1.
         -6    1    1    2    0  503 -0.40409703719E+02 -0.59284259852E+02 -0.14491088922E+03  0.23680315334E+03  0.17300000000E+03 0. -1.
<mgrwt>
<rscale>  2 0.18728739E+03</rscale>
<asrwt>0</asrwt>
<pdfrwt beam="1">  1       21 0.66956690E-01 0.18728739E+03</pdfrwt>
<pdfrwt beam="2">  1       21 0.32828312E-01 0.18728739E+03</pdfrwt>
<totfact> 0.18306678E+04</totfact>
</mgrwt>
</event>
<event>
 4    1  0.4151607E+000  0.2491249E+03  0.7546771E-02  0.1113859E+00
         21   -1    0    0  501  502  0.00000000000E+00  0.00000000000E+00  0.91270962755E+03  0.91270962755E+03  0.00000000000E+00 0. -1.
         21   -1    0    0  502  503 -0.00000000000E+00 -0.00000000000E+00 -0.85164482905E+02  0.85164482905E+02  0.00000000000E+00 0.  1.
          6    1    1    2  501    0 -0.17776358764E+03  0.23115664643E+02  0.63777158712E+03  0.68470126653E+03  0.17300000000E+03 0.  1.
         -6    1    1    2    0  503  0.17776358764E+03 -0.23115664643E+02  0.18977355752E+03  0.31317284393E+03  0.17300000000E+03 0.  1.
<mgrwt>
<rscale>  2 0.24912492E+03</rscale>
<asrwt>0</asrwt>
<pdfrwt beam="1">  1       21 0.14041686E+00 0.24912492E+03</pdfrwt>
<pdfrwt beam="2">  1       21 0.13102229E-01 0.24912492E+03</pdfrwt>
<totfact> 0.17187620E+04</totfact>
</mgrwt>
</event>
<event>
 4    1  0.4151607E+000  0.2115637E+03  0.7546771E-02  0.1140334E+00
         21   -1    0    0  501  502  0.00000000000E+00  0.00000000000E+00  0.30249646055E+03  0.30249646055E+03  0.00000000000E+00 0. -1.
         21   -1    0    0  502  503 -0.00000000000E+00 -0.00000000000E+00 -0.14971012911E+03  0.14971012911E+03  0.00000000000E+00 0. -1.
          6    1    1    2  501    0 -0.71805462058E+02  0.98357293995E+02  0.10079792753E+03  0.23434889344E+03  0.17300000000E+03 0. -1.
         -6    1    1    2    0  503  0.71805462058E+02 -0.98357293995E+02  0.51988403914E+02  0.21785769623E+03  0.17300000000E+03 0. -1.
<mgrwt>
<rscale>  2 0.21156366E+03</rscale>
<asrwt>0</asrwt>
<pdfrwt beam="1">  1       21 0.46537917E-01 0.21156366E+03</pdfrwt>
<pdfrwt beam="2">  1       21 0.23032328E-01 0.21156366E+03</pdfrwt>
<totfact> 0.77640310E+04</totfact>
</mgrwt>
</event>
<event>
 4    1  0.4151607E+000  0.1746422E+03  0.7546771E-02  0.1173091E+00
         21   -1    0    0  501  502  0.00000000000E+00  0.00000000000E+00  0.13895742300E+03  0.13895742300E+03  0.00000000000E+00 0. -1.
         21   -1    0    0  502  503 -0.00000000000E+00 -0.00000000000E+00 -0.74104719496E+03  0.74104719496E+03  0.00000000000E+00 0. -1.
          6    1    1    2  501    0  0.10233440460E+02 -0.21591328374E+02  0.68087849204E+02  0.18744562938E+03  0.17300000000E+03 0. -1.
         -6    1    1    2    0  503 -0.10233440460E+02  0.21591328374E+02 -0.67017762116E+03  0.69255898859E+03  0.17300000000E+03 0. -1.
<mgrwt>
<rscale>  2 0.17464223E+03</rscale>
<asrwt>0</asrwt>
<pdfrwt beam="1">  1       21 0.21378065E-01 0.17464223E+03</pdfrwt>
<pdfrwt beam="2">  1       21 0.11400726E+00 0.17464223E+03</pdfrwt>
<totfact> 0.12354984E+04</totfact>
</mgrwt>
</event>
<event>
 4    1  0.4151607E+000  0.2248867E+03  0.7546771E-02  0.1130291E+00
         21   -1    0    0  501  502  0.00000000000E+00  0.00000000000E+00  0.30685863935E+03  0.30685863935E+03  0.00000000000E+00 0. -1.
         21   -1    0    0  502  503 -0.00000000000E+00 -0.00000000000E+00 -0.40513390826E+03  0.40513390826E+03  0.00000000000E+00 0. -1.
          6    1    1    2  501    0 -0.97359009832E+01  0.14335349454E+03  0.22504677754E+03  0.31815100856E+03  0.17300000000E+03 0. -1.
         -6    1    1    2    0  503  0.97359009832E+01 -0.14335349454E+03 -0.32332204645E+03  0.39384153906E+03  0.17300000000E+03 0. -1.
<mgrwt>
<rscale>  2 0.22488667E+03</rscale>
<asrwt>0</asrwt>
<pdfrwt beam="1">  1       21 0.47209022E-01 0.22488667E+03</pdfrwt>
<pdfrwt beam="2">  1       21 0.62328293E-01 0.22488667E+03</pdfrwt>
<totfact> 0.10032780E+04</totfact>
</mgrwt>
</event>
<event>
 4    1  0.4151607E+000  0.1788452E+03  0.7546771E-02  0.1168925E+00
         21   -1    0    0  501  502  0.00000000000E+00  0.00000000000E+00  0.14713576873E+04  0.14713576873E+04  0.00000000000E+00 0.  1.
         21   -1    0    0  502  503 -0.00000000000E+00 -0.00000000000E+00 -0.27811728060E+02  0.27811728060E+02  0.00000000000E+00 0.  1.
          6    1    1    2  501    0  0.92374756405E+01  0.44399216971E+02  0.10720438933E+04  0.10868595726E+04  0.17300000000E+03 0.  1.
         -6    1    1    2    0  503 -0.92374756405E+01 -0.44399216971E+02  0.37150206590E+03  0.41230984270E+03  0.17300000000E+03 0.  1.
<mgrwt>
<rscale>  2 0.17884524E+03</rscale>
<asrwt>0</asrwt>
<pdfrwt beam="1">  1       21 0.22636266E+00 0.17884524E+03</pdfrwt>
<pdfrwt beam="2">  1       21 0.42787285E-02 0.17884524E+03</pdfrwt>
<totfact> 0.32541333E+04</totfact>
</mgrwt>
</event>
<event>
 4    1  0.4151607E+000  0.1973775E+03  0.7546771E-02  0.1151971E+00
         21   -1    0    0  503  502  0.00000000000E+00  0.00000000000E+00  0.76355707570E+02  0.76355707570E+02  0.00000000000E+00 0. -1.
         21   -1    0    0  501  503 -0.00000000000E+00 -0.00000000000E+00 -0.92183614956E+03  0.92183614956E+03  0.00000000000E+00 0. -1.
          6    1    1    2  501    0  0.83294107333E+02 -0.45727011508E+02 -0.75624780940E+03  0.78158084490E+03  0.17300000000E+03 0. -1.
         -6    1    1    2    0  502 -0.83294107333E+02  0.45727011508E+02 -0.89232632587E+02  0.21661101222E+03  0.17300000000E+03 0. -1.
<mgrwt>
<rscale>  2 0.19737748E+03</rscale>
<asrwt>0</asrwt>
<pdfrwt beam="1">  1       21 0.11747032E-01 0.19737748E+03</pdfrwt>
<pdfrwt beam="2">  1       21 0.14182095E+00 0.19737748E+03</pdfrwt>
<totfact> 0.21030157E+04</totfact>
</mgrwt>
</event>
<event>
 4    1  0.4151607E+000  0.1946903E+03  0.7546771E-02  0.1154298E+00
         21   -1    0    0  501  502  0.00000000000E+00  0.00000000000E+00  0.92064133311E+02  0.92064133311E+02  0.00000000000E+00 0.  1.
         21   -1    0    0  502  503 -0.00000000000E+00 -0.00000000000E+00 -0.41987544078E+03  0.41987544078E+03  0.00000000000E+00 0. -1.
          6    1    1    2  501    0 -0.56975059232E+02  0.68768906403E+02 -0.12822389981E+03  0.23312161707E+03  0.17300000000E+03 0.  1.
         -6    1    1    2    0  503  0.56975059232E+02 -0.68768906403E+02 -0.19958740765E+03  0.27881795702E+03  0.17300000000E+03 0. -1.
<mgrwt>
<rscale>  2 0.19469032E+03</rscale>
<asrwt>0</asrwt>
<pdfrwt beam="1">  1       21 0.14163713E-01 0.19469032E+03</pdfrwt>
<pdfrwt beam="2">  1       21 0.64596223E-01 0.19469032E+03</pdfrwt>
<totfact> 0.96107905E+04</totfact>
</mgrwt>
</event>
<event>
 4    1  0.4151607E+000  0.2634426E+03  0.7546771E-02  0.1105092E+00
         21   -1    0    0  503  502  0.00000000000E+00  0.00000000000E+00  0.41188100870E+03  0.41188100870E+03  0.00000000000E+00 0.  1.
         21   -1    0    0  501  503 -0.00000000000E+00 -0.00000000000E+00 -0.24313752068E+03  0.24313752068E+03  0.00000000000E+00 0. -1.
          6    1    1    2  501    0 -0.84527113608E+02 -0.17980029413E+03 -0.97086204806E+02  0.28076272877E+03  0.17300000000E+03 0. -1.
         -6    1    1    2    0  502  0.84527113608E+02  0.17980029413E+03  0.26582969282E+03  0.37425580061E+03  0.17300000000E+03 0.  1.
<mgrwt>
<rscale>  2 0.26344255E+03</rscale>
<asrwt>0</asrwt>
<pdfrwt beam="1">  1       21 0.63366309E-01 0.26344255E+03</pdfrwt>
<pdfrwt beam="2">  1       21 0.37405772E-01 0.26344255E+03</pdfrwt>
<totfact> 0.15259423E+04</totfact>
</mgrwt>
</event>
<event>
 4    1  0.4151607E+000  0.2793378E+03  0.7546771E-02  0.1096051E+00
         21   -1    0    0  503  502  0.00000000000E+00  0.00000000000E+00  0.44042484845E+03  0.44042484845E+03  0.00000000000E+00 0. -1.
         21   -1    0    0  501  503 -0.00000000000E+00 -0.00000000000E+00 -0.51405108040E+03  0.51405108040E+03  0.00000000000E+00 0. -1.
          6    1    1    2  501    0  0.84596059491E+02 -0.20234656455E+03 -0.42315412371E+03  0.50703948355E+03  0.17300000000E+03 0. -1.
         -6    1    1    2    0  502 -0.84596059491E+02  0.20234656455E+03  0.34952789176E+03  0.44743644530E+03  0.17300000000E+03 0. -1.
<mgrwt>
<rscale>  2 0.27933783E+03</rscale>
<asrwt>0</asrwt>
<pdfrwt beam="1">  1       21 0.67757669E-01 0.27933783E+03</pdfrwt>
<pdfrwt beam="2">  1       21 0.79084782E-01 0.27933783E+03</pdfrwt>
<totfact> 0.26370740E+03</totfact>
</mgrwt>
</event>
<event>
 4    1  0.4151607E+000  0.1802819E+03  0.7546771E-02  0.1167531E+00
         21   -1    0    0  503  502  0.00000000000E+00  0.00000000000E+00  0.22949450869E+02  0.22949450869E+02  0.00000000000E+00 0.  1.
         21   -1    0    0  501  503 -0.00000000000E+00 -0.00000000000E+00 -0.16754730411E+04  0.16754730411E+04  0.00000000000E+00 0.  1.
          6    1    1    2  501    0 -0.49111096467E+02 -0.12675016936E+02 -0.11603074746E+04  0.11742295310E+04  0.17300000000E+03 0.  1.
         -6    1    1    2    0  502  0.49111096467E+02  0.12675016936E+02 -0.49221611569E+03  0.52419296103E+03  0.17300000000E+03 0.  1.
<mgrwt>
<rscale>  2 0.18028188E+03</rscale>
<asrwt>0</asrwt>
<pdfrwt beam="1">  1       21 0.35306852E-02 0.18028188E+03</pdfrwt>
<pdfrwt beam="2">  1       21 0.25776505E+00 0.18028188E+03</pdfrwt>
<totfact> 0.29219838E+04</totfact>
</mgrwt>
</event>
<event>
 4    1  0.4151607E+000  0.2219853E+03  0.7546771E-02  0.1132412E+00
         21   -1    0    0  501  502  0.00000000000E+00  0.00000000000E+00  0.60863671547E+03  0.60863671547E+03  0.00000000000E+00 0.  1.
         21   -1    0    0  502  503 -0.00000000000E+00 -0.00000000000E+00 -0.12551837827E+03  0.12551837827E+03  0.00000000000E+00 0. -1.
          6    1    1    2  501    0 -0.12472601830E+03  0.61578519879E+02  0.46026013918E+03  0.51099597794E+03  0.17300000000E+03 0.  1.
         -6    1    1    2    0  503  0.12472601830E+03 -0.61578519879E+02  0.22858198026E+02  0.22315911581E+03  0.17300000000E+03 0. -1.
<mgrwt>
<rscale>  2 0.22198535E+03</rscale>
<asrwt>0</asrwt>
<pdfrwt beam="1">  1       21 0.93636416E-01 0.22198535E+03</pdfrwt>
<pdfrwt beam="2">  1       21 0.19310520E-01 0.22198535E+03</pdfrwt>
<totfact> 0.23216005E+04</totfact>
</mgrwt>
</event>
<event>
 4    1  0.4151607E+000  0.2191551E+03  0.7546771E-02  0.1134515E+00
         21   -1    0    0  501  502  0.00000000000E+00  0.00000000000E+00  0.11863038018E+03  0.11863038018E+03  0.00000000000E+00 0. -1.
         21   -1    0    0  502  503 -0.00000000000E+00 -0.00000000000E+00 -0.46106237396E+03  0.46106237396E+03  0.00000000000E+00 0.  1.
          6    1    1    2  501    0  0.11220821902E+03 -0.74224425951E+02 -0.70021454856E+02  0.23006945465E+03  0.17300000000E+03 0. -1.
         -6    1    1    2    0  503 -0.11220821902E+03  0.74224425951E+02 -0.27241053893E+03  0.34962329949E+03  0.17300000000E+03 0. -1.
<mgrwt>
<rscale>  2 0.21915508E+03</rscale>
<asrwt>0</asrwt>
<pdfrwt beam="1">  1       21 0.18250828E-01 0.21915508E+03</pdfrwt>
<pdfrwt beam="2">  1       21 0.70932673E-01 0.21915508E+03</pdfrwt>
<totfact> 0.48617711E+04</totfact>
</mgrwt>
</event>
<event>
 4    1  0.4151607E+000  0.2190259E+03  0.7546771E-02  0.1134611E+00
         21   -1    0    0  501  502  0.00000000000E+00  0.00000000000E+00  0.40445923030E+02  0.40445923030E+02  0.00000000000E+00 0.  1.
         21   -1    0    0  502  503 -0.00000000000E+00 -0.00000000000E+00 -0.19307878905E+04  0.19307878905E+04  0.00000000000E+00 0. -1.
          6    1    1    2  501    0 -0.12477198698E+03  0.49752327311E+02 -0.33305729554E+03  0.39862200757E+03  0.17300000000E+03 0.  1.
         -6    1    1    2    0  503  0.12477198698E+03 -0.49752327311E+02 -0.15572846720E+04  0.15726118060E+04  0.17300000000E+03 0. -1.
<mgrwt>
<rscale>  2 0.21902590E+03</rscale>
<asrwt>0</asrwt>
<pdfrwt beam="1">  1       21 0.62224510E-02 0.21902590E+03</pdfrwt>
<pdfrwt beam="2">  1       21 0.29704423E+00 0.21902590E+03</pdfrwt>
<totfact> 0.63942930E+03</totfact>
</mgrwt>
</event>
<event>
 4    1  0.4151607E+000  0.2706526E+03  0.7546771E-02  0.1100907E+00
         21   -1    0    0  501  502  0.00000000000E+00  0.00000000000E+00  0.36585961577E+03  0.36585961577E+03  0.00000000000E+00 0.  1.
         21   -1    0    0  502  503 -0.00000000000E+00 -0.00000000000E+00 -0.23157015198E+03  0.23157015198E+03  0.00000000000E+00 0.  1.
          6    1    1    2  501    0 -0.77882618016E+02  0.19302363636E+03  0.17705228954E+03  0.32341975762E+03  0.17300000000E+03 0.  1.
         -6    1    1    2    0  503  0.77882618016E+02 -0.19302363636E+03 -0.42762825754E+02  0.27401001013E+03  0.17300000000E+03 0.  1.
<mgrwt>
<rscale>  2 0.27065259E+03</rscale>
<asrwt>0</asrwt>
<pdfrwt beam="1">  1       21 0.56286095E-01 0.27065259E+03</pdfrwt>
<pdfrwt beam="2">  1       21 0.35626177E-01 0.27065259E+03</pdfrwt>
<totfact> 0.21676305E+04</totfact>
</mgrwt>
</event>
<event>
 4    1  0.4151607E+000  0.2052168E+03  0.7546771E-02  0.1145411E+00
         21   -1    0    0  503  502  0.00000000000E+00  0.00000000000E+00  0.44198293307E+03  0.44198293307E+03  0.00000000000E+00 0. -1.
         21   -1    0    0  501  503 -0.00000000000E+00 -0.00000000000E+00 -0.95597197802E+02  0.95597197802E+02  0.00000000000E+00 0.  1.
          6    1    1    2  501    0 -0.94075680569E+02  0.57746832853E+02  0.15780936818E+03  0.25887782266E+03  0.17300000000E+03 0. -1.
         -6    1    1    2    0  502  0.94075680569E+02 -0.57746832853E+02  0.18857636709E+03  0.27870230821E+03  0.17300000000E+03 0.  1.
<mgrwt>
<rscale>  2 0.20521679E+03</rscale>
<asrwt>0</asrwt>
<pdfrwt beam="1">  1       21 0.67997373E-01 0.20521679E+03</pdfrwt>
<pdfrwt beam="2">  1       21 0.14707261E-01 0.20521679E+03</pdfrwt>
<totfact> 0.79865825E+04</totfact>
</mgrwt>
</event>
<event>
 4    1  0.4151607E+000  0.1942481E+03  0.7546771E-02  0.1154685E+00
         21   -1    0    0  501  502  0.00000000000E+00  0.00000000000E+00  0.14652949171E+04  0.14652949171E+04  0.00000000000E+00 0. -1.
         21   -1    0    0  502  503 -0.00000000000E+00 -0.00000000000E+00 -0.33957585551E+02  0.33957585551E+02  0.00000000000E+00 0. -1.
          6    1    1    2  501    0 -0.87166513418E+02 -0.14329047030E+02  0.10841932165E+04  0.11014568776E+04  0.17300000000E+03 0. -1.
         -6    1    1    2    0  503  0.87166513418E+02  0.14329047030E+02  0.34714411510E+03  0.39779562504E+03  0.17300000000E+03 0. -1.
<mgrwt>
<rscale>  2 0.19424810E+03</rscale>
<asrwt>0</asrwt>
<pdfrwt beam="1">  1       21 0.22542994E+00 0.19424810E+03</pdfrwt>
<pdfrwt beam="2">  1       21 0.52242451E-02 0.19424810E+03</pdfrwt>
<totfact> 0.23242707E+04</totfact>
</mgrwt>
</event>
<event>
 4    1  0.4151607E+000  0.1952080E+03  0.7546771E-02  0.1153846E+00
         21   -1    0    0  501  502  0.00000000000E+00  0.00000000000E+00  0.36090336324E+03  0.36090336324E+03  0.00000000000E+00 0.  1.
         21   -1    0    0  502  503 -0.00000000000E+00 -0.00000000000E+00 -0.13640859080E+03  0.13640859080E+03  0.00000000000E+00 0.  1.
          6    1    1    2  501    0 -0.49729506823E+02  0.75525725145E+02  0.23044703721E+03  0.30201323806E+03  0.17300000000E+03 0.  1.
         -6    1    1    2    0  503  0.49729506823E+02 -0.75525725145E+02 -0.59522647711E+01  0.19529871598E+03  0.17300000000E+03 0.  1.
<mgrwt>
<rscale>  2 0.19520799E+03</rscale>
<asrwt>0</asrwt>
<pdfrwt beam="1">  1       21 0.55523594E-01 0.19520799E+03</pdfrwt>
<pdfrwt beam="2">  1       21 0.20985937E-01 0.19520799E+03</pdfrwt>
<totfact> 0.64417940E+04</totfact>
</mgrwt>
</event>
<event>
 4    1  0.4151607E+000  0.2030255E+03  0.7546771E-02  0.1147211E+00
         21   -1    0    0  501  502  0.00000000000E+00  0.00000000000E+00  0.21638391556E+03  0.21638391556E+03  0.00000000000E+00 0.  1.
         21   -1    0    0  502  503 -0.00000000000E+00 -0.00000000000E+00 -0.37590882490E+03  0.37590882490E+03  0.00000000000E+00 0.  1.
          6    1    1    2  501    0  0.32798922878E+01  0.10620544447E+03  0.12822636855E+03  0.24012779039E+03  0.17300000000E+03 0.  1.
         -6    1    1    2    0  503 -0.32798922878E+01 -0.10620544447E+03 -0.28775127789E+03  0.35216495007E+03  0.17300000000E+03 0.  1.
<mgrwt>
<rscale>  2 0.20302550E+03</rscale>
<asrwt>0</asrwt>
<pdfrwt beam="1">  1       21 0.33289833E-01 0.20302550E+03</pdfrwt>
<pdfrwt beam="2">  1       21 0.57832128E-01 0.20302550E+03</pdfrwt>
<totfact> 0.24215944E+04</totfact>
</mgrwt>
</event>
<event>
 4    1  0.4151607E+000  0.2591419E+03  0.7546771E-02  0.1107660E+00
         21   -1    0    0  503  502  0.00000000000E+00  0.00000000000E+00  0.21387778813E+03  0.21387778813E+03  0.00000000000E+00 0. -1.
         21   -1    0    0  501  503 -0.00000000000E+00 -0.00000000000E+00 -0.10538408830E+04  0.10538408830E+04  0.00000000000E+00 0.  1.
          6    1    1    2  501    0  0.16964496764E+03 -0.91902583689E+02 -0.95108462997E+03  0.98575680231E+03  0.17300000000E+03 0.  1.
         -6    1    1    2    0  502 -0.16964496764E+03  0.91902583689E+02  0.11112153507E+03  0.28196186886E+03  0.17300000000E+03 0. -1.
<mgrwt>
<rscale>  2 0.25914185E+03</rscale>
<asrwt>0</asrwt>
<pdfrwt beam="1">  1       21 0.32904275E-01 0.25914185E+03</pdfrwt>
<pdfrwt beam="2">  1       21 0.16212937E+00 0.25914185E+03</pdfrwt>
<totfact> 0.20405506E+03</totfact>
</mgrwt>
</event>
<event>
 4    1  0.4151607E+000  0.2669059E+03  0.7546771E-02  0.1103064E+00
         21   -1    0    0  501  502  0.00000000000E+00  0.00000000000E+00  0.21640705082E+03  0.21640705082E+03  0.00000000000E+00 0.  1.
         21   -1    0    0  502  503 -0.00000000000E+00 -0.00000000000E+00 -0.32918890906E+03  0.32918890906E+03  0.00000000000E+00 0. -1.
          6    1    1    2  501    0  0.15903523408E+03  0.12656050106E+03 -0.56200086655E+02  0.27275853030E+03  0.17300000000E+03 0. -1.
         -6    1    1    2    0  503 -0.15903523408E+03 -0.12656050106E+03 -0.56581771587E+02  0.27283742959E+03  0.17300000000E+03 0.  1.
<mgrwt>
<rscale>  2 0.26690591E+03</rscale>
<asrwt>0</asrwt>
<pdfrwt beam="1">  1       21 0.33293392E-01 0.26690591E+03</pdfrwt>
<pdfrwt beam="2">  1       21 0.50644448E-01 0.26690591E+03</pdfrwt>
<totfact> 0.31103266E+04</totfact>
</mgrwt>
</event>
<event>
 4    1  0.4151607E+000  0.2520110E+03  0.7546771E-02  0.1112040E+00
         21   -1    0    0  503  502  0.00000000000E+00  0.00000000000E+00  0.20183166701E+03  0.20183166701E+03  0.00000000000E+00 0. -1.
         21   -1    0    0  501  503 -0.00000000000E+00 -0.00000000000E+00 -0.80105985231E+03  0.80105985231E+03  0.00000000000E+00 0.  1.
          6    1    1    2  501    0  0.10388410980E+03  0.15095909189E+03 -0.69035199034E+03  0.73491184931E+03  0.17300000000E+03 0.  1.
         -6    1    1    2    0  502 -0.10388410980E+03 -0.15095909189E+03  0.91123805043E+02  0.26797967001E+03  0.17300000000E+03 0. -1.
<mgrwt>
<rscale>  2 0.25201102E+03</rscale>
<asrwt>0</asrwt>
<pdfrwt beam="1">  1       21 0.31051026E-01 0.25201102E+03</pdfrwt>
<pdfrwt beam="2">  1       21 0.12323998E+00 0.25201102E+03</pdfrwt>
<totfact> 0.47145245E+03</totfact>
</mgrwt>
</event>
<event>
 4    1  0.4151607E+000  0.1796612E+03  0.7546771E-02  0.1168131E+00
         21   -1    0    0  503  502  0.00000000000E+00  0.00000000000E+00  0.40982144189E+03  0.40982144189E+03  0.00000000000E+00 0.  1.
         21   -1    0    0  501  503 -0.00000000000E+00 -0.00000000000E+00 -0.80728573900E+02  0.80728573900E+02  0.00000000000E+00 0.  1.
          6    1    1    2  501    0 -0.23358875384E+02 -0.42467795360E+02  0.12625953348E+03  0.21958966391E+03  0.17300000000E+03 0.  1.
         -6    1    1    2    0  502  0.23358875384E+02  0.42467795360E+02  0.20283333451E+03  0.27096035188E+03  0.17300000000E+03 0.  1.
<mgrwt>
<rscale>  2 0.17966121E+03</rscale>
<asrwt>0</asrwt>
<pdfrwt beam="1">  1       21 0.63049451E-01 0.17966121E+03</pdfrwt>
<pdfrwt beam="2">  1       21 0.12419781E-01 0.17966121E+03</pdfrwt>
<totfact> 0.12906764E+05</totfact>
</mgrwt>
</event>
<event>
 4    1  0.4151607E+000  0.2306800E+03  0.7546771E-02  0.1126162E+00
         21   -1    0    0  501  502  0.00000000000E+00  0.00000000000E+00  0.23450305870E+03  0.23450305870E+03  0.00000000000E+00 0.  1.
         21   -1    0    0  502  503 -0.00000000000E+00 -0.00000000000E+00 -0.62735855690E+03  0.62735855690E+03  0.00000000000E+00 0.  1.
          6    1    1    2  501    0  0.11859439374E+03  0.96019018218E+02  0.14785711157E+03  0.27399818891E+03  0.17300000000E+03 0.  1.
         -6    1    1    2    0  503 -0.11859439374E+03 -0.96019018218E+02 -0.54071260977E+03  0.58786342670E+03  0.17300000000E+03 0.  1.
<mgrwt>
<rscale>  2 0.23068004E+03</rscale>
<asrwt>0</asrwt>
<pdfrwt beam="1">  1       21 0.36077394E-01 0.23068004E+03</pdfrwt>
<pdfrwt beam="2">  1       21 0.96516700E-01 0.23068004E+03</pdfrwt>
<totfact> 0.64354450E+03</totfact>
</mgrwt>
</event>
<event>
 4    1  0.4151607E+000  0.2126382E+03  0.7546771E-02  0.1139494E+00
         21   -1    0    0  501  502  0.00000000000E+00  0.00000000000E+00  0.34575170575E+03  0.34575170575E+03  0.00000000000E+00 0.  1.
         21   -1    0    0  502  503 -0.00000000000E+00 -0.00000000000E+00 -0.22157885194E+03  0.22157885194E+03  0.00000000000E+00 0.  1.
          6    1    1    2  501    0 -0.59827414453E+02  0.10819745862E+03  0.24367929789E+03  0.32341089931E+03  0.17300000000E+03 0.  1.
         -6    1    1    2    0  503  0.59827414453E+02 -0.10819745862E+03 -0.11950644407E+03  0.24391965839E+03  0.17300000000E+03 0.  1.
<mgrwt>
<rscale>  2 0.21263821E+03</rscale>
<asrwt>0</asrwt>
<pdfrwt beam="1">  1       21 0.53192570E-01 0.21263821E+03</pdfrwt>
<pdfrwt beam="2">  1       21 0.34089054E-01 0.21263821E+03</pdfrwt>
<totfact> 0.27447000E+04</totfact>
</mgrwt>
</event>
<event>
 4    1  0.4151607E+000  0.1879759E+03  0.7546771E-02  0.1160300E+00
         21   -1    0    0  503  502  0.00000000000E+00  0.00000000000E+00  0.12850933093E+03  0.12850933093E+03  0.00000000000E+00 0. -1.
         21   -1    0    0  501  503 -0.00000000000E+00 -0.00000000000E+00 -0.87898954090E+03  0.87898954090E+03  0.00000000000E+00 0.  1.
          6    1    1    2  501    0 -0.51903247714E+02  0.52076792293E+02 -0.79283172028E+03  0.81481106774E+03  0.17300000000E+03 0.  1.
         -6    1    1    2    0  502  0.51903247714E+02 -0.52076792293E+02  0.42351510315E+02  0.19268780409E+03  0.17300000000E+03 0. -1.
<mgrwt>
<rscale>  2 0.18797590E+03</rscale>
<asrwt>0</asrwt>
<pdfrwt beam="1">  1       21 0.19770667E-01 0.18797590E+03</pdfrwt>
<pdfrwt beam="2">  1       21 0.13522916E+00 0.18797590E+03</pdfrwt>
<totfact> 0.92577304E+03</totfact>
</mgrwt>
</event>
<event>
 4    1  0.4151607E+000  0.1979427E+03  0.7546771E-02  0.1151486E+00
         21   -1    0    0  503  502  0.00000000000E+00  0.00000000000E+00  0.59986211071E+03  0.59986211071E+03  0.00000000000E+00 0. -1.
         21   -1    0    0  501  503 -0.00000000000E+00 -0.00000000000E+00 -0.15270621701E+03  0.15270621701E+03  0.00000000000E+00 0. -1.
          6    1    1    2  501    0  0.36191942812E+02  0.89120486820E+02 -0.61075200876E+02  0.20715090648E+03  0.17300000000E+03 0. -1.
         -6    1    1    2    0  502 -0.36191942812E+02 -0.89120486820E+02  0.50823109458E+03  0.54541742124E+03  0.17300000000E+03 0. -1.
<mgrwt>
<rscale>  2 0.19794271E+03</rscale>
<asrwt>0</asrwt>
<pdfrwt beam="1">  1       21 0.92286477E-01 0.19794271E+03</pdfrwt>
<pdfrwt beam="2">  1       21 0.23493264E-01 0.19794271E+03</pdfrwt>
<totfact> 0.16841432E+04</totfact>
</mgrwt>
</event>
<event>
 4    1  0.4151607E+000  0.2243613E+03  0.7546771E-02  0.1130673E+00
         21   -1    0    0  501  502  0.00000000000E+00  0.00000000000E+00  0.68272774665E+03  0.68272774665E+03  0.00000000000E+00 0. -1.
         21   -1    0    0  502  503 -0.00000000000E+00 -0.00000000000E+00 -0.14572898684E+03  0.14572898684E+03  0.00000000000E+00 0.  1.
          6    1    1    2  501    0 -0.96262479073E+02 -0.10555808600E+03  0.55965691540E+03  0.60295425809E+03  0.17300000000E+03 0. -1.
         -6    1    1    2    0  503  0.96262479073E+02  0.10555808600E+03 -0.22658155590E+02  0.22550247540E+03  0.17300000000E+03 0.  1.
<mgrwt>
<rscale>  2 0.22436126E+03</rscale>
<asrwt>0</asrwt>
<pdfrwt beam="1">  1       21 0.10503504E+00 0.22436126E+03</pdfrwt>
<pdfrwt beam="2">  1       21 0.22419844E-01 0.22436126E+03</pdfrwt>
<totfact> 0.13321958E+04</totfact>
</mgrwt>
</event>
<event>
 4    1  0.4151607E+000  0.1960747E+03  0.7546771E-02  0.1153094E+00
         21   -1    0    0  503  502  0.00000000000E+00  0.00000000000E+00  0.47930675416E+02  0.47930675416E+02  0.00000000000E+00 0. -1.
         21   -1    0    0  501  503 -0.00000000000E+00 -0.00000000000E+00 -0.99786577718E+03  0.99786577718E+03  0.00000000000E+00 0. -1.
          6    1    1    2  501    0 -0.67486723531E+01  0.92036738538E+02 -0.70657201208E+03  0.73327301469E+03  0.17300000000E+03 0. -1.
         -6    1    1    2    0  502  0.67486723531E+01 -0.92036738538E+02 -0.24336308968E+03  0.31252343790E+03  0.17300000000E+03 0. -1.
<mgrwt>
<rscale>  2 0.19607475E+03</rscale>
<asrwt>0</asrwt>
<pdfrwt beam="1">  1       21 0.73739509E-02 0.19607475E+03</pdfrwt>
<pdfrwt beam="2">  1       21 0.15351779E+00 0.19607475E+03</pdfrwt>
<totfact> 0.38787965E+04</totfact>
</mgrwt>
</event>
<event>
 4    1  0.4151607E+000  0.1839541E+03  0.7546771E-02  0.1164030E+00
         21   -1    0    0  503  502  0.00000000000E+00  0.00000000000E+00  0.86178635941E+03  0.86178635941E+03  0.00000000000E+00 0. -1.
         21   -1    0    0  501  503 -0.00000000000E+00 -0.00000000000E+00 -0.62297928123E+02  0.62297928123E+02  0.00000000000E+00 0. -1.
          6    1    1    2  501    0 -0.27975901858E+01  0.62468157365E+02  0.11880794412E+03  0.21898498757E+03  0.17300000000E+03 0. -1.
         -6    1    1    2    0  502  0.27975901858E+01 -0.62468157365E+02  0.68068048717E+03  0.70509929996E+03  0.17300000000E+03 0. -1.
<mgrwt>
<rscale>  2 0.18395406E+03</rscale>
<asrwt>0</asrwt>
<pdfrwt beam="1">  1       21 0.13258251E+00 0.18395406E+03</pdfrwt>
<pdfrwt beam="2">  1       21 0.95842972E-02 0.18395406E+03</pdfrwt>
<totfact> 0.36148842E+04</totfact>
</mgrwt>
</event>
<event>
 4    1  0.4151607E+000  0.1942647E+03  0.7546771E-02  0.1154670E+00
         21   -1    0    0  503  502  0.00000000000E+00  0.00000000000E+00  0.17053639466E+03  0.17053639466E+03  0.00000000000E+00 0.  1.
         21   -1    0    0  501  503 -0.00000000000E+00 -0.00000000000E+00 -0.25483819006E+03  0.25483819006E+03  0.00000000000E+00 0.  1.
          6    1    1    2  501    0 -0.87808075928E+02 -0.99765774782E+01 -0.11931473020E+03  0.22797981301E+03  0.17300000000E+03 0.  1.
         -6    1    1    2    0  502  0.87808075928E+02  0.99765774782E+01  0.35012934802E+02  0.19739477171E+03  0.17300000000E+03 0.  1.
<mgrwt>
<rscale>  2 0.19426474E+03</rscale>
<asrwt>0</asrwt>
<pdfrwt beam="1">  1       21 0.26236368E-01 0.19426474E+03</pdfrwt>
<pdfrwt beam="2">  1       21 0.39205876E-01 0.19426474E+03</pdfrwt>
<totfact> 0.86566412E+04</totfact>
</mgrwt>
</event>
<event>
 4    1  0.4151607E+000  0.2357805E+03  0.7546771E-02  0.1122636E+00
         21   -1    0    0  503  502  0.00000000000E+00  0.00000000000E+00  0.18623479906E+03  0.18623479906E+03  0.00000000000E+00 0. -1.
         21   -1    0    0  501  503 -0.00000000000E+00 -0.00000000000E+00 -0.33093410152E+03  0.33093410152E+03  0.00000000000E+00 0. -1.
          6    1    1    2  501    0 -0.61169979831E+02  0.14805967859E+03 -0.15329355375E+03  0.28123184115E+03  0.17300000000E+03 0. -1.
         -6    1    1    2    0  502  0.61169979831E+02 -0.14805967859E+03  0.85942512853E+01  0.23593705943E+03  0.17300000000E+03 0. -1.
<mgrwt>
<rscale>  2 0.23578048E+03</rscale>
<asrwt>0</asrwt>
<pdfrwt beam="1">  1       21 0.28651508E-01 0.23578048E+03</pdfrwt>
<pdfrwt beam="2">  1       21 0.50912939E-01 0.23578048E+03</pdfrwt>
<totfact> 0.41881802E+04</totfact>
</mgrwt>
</event>
<event>
 4    1  0.4151607E+000  0.1918428E+03  0.7546771E-02  0.1156810E+00
         21   -1    0    0  503  502  0.00000000000E+00  0.00000000000E+00  0.58754147700E+02  0.58754147700E+02  0.00000000000E+00 0. -1.
         21   -1    0    0  501  503 -0.00000000000E+00 -0.00000000000E+00 -0.62777879637E+03  0.62777879637E+03  0.00000000000E+00 0. -1.
          6    1    1    2  501    0 -0.53041016733E+02 -0.63728383970E+02 -0.26843099640E+03  0.32993765503E+03  0.17300000000E+03 0. -1.
         -6    1    1    2    0  502  0.53041016733E+02  0.63728383970E+02 -0.30059365228E+03  0.35659528904E+03  0.17300000000E+03 0. -1.
<mgrwt>
<rscale>  2 0.19184279E+03</rscale>
<asrwt>0</asrwt>
<pdfrwt beam="1">  1       21 0.90390995E-02 0.19184279E+03</pdfrwt>
<pdfrwt beam="2">  1       21 0.96581355E-01 0.19184279E+03</pdfrwt>
<totfact> 0.86425196E+04</totfact>
</mgrwt>
</event>
<event>
 4    1  0.4151607E+000  0.2193486E+03  0.7546771E-02  0.1134370E+00
         21   -1    0    0  503  502  0.00000000000E+00  0.00000000000E+00  0.56776581114E+03  0.56776581114E+03  0.00000000000E+00 0.  1.
         21   -1    0    0  501  503 -0.00000000000E+00 -0.00000000000E+00 -0.85927546510E+02  0.85927546510E+02  0.00000000000E+00 0. -1.
          6    1    1    2  501    0 -0.12850678067E+03 -0.40875823038E+02  0.20253358582E+03  0.29855264020E+03  0.17300000000E+03 0.  1.
         -6    1    1    2    0  502  0.12850678067E+03  0.40875823038E+02  0.27930467881E+03  0.35514071745E+03  0.17300000000E+03 0. -1.
<mgrwt>
<rscale>  2 0.21934864E+03</rscale>
<asrwt>0</asrwt>
<pdfrwt beam="1">  1       21 0.87348584E-01 0.21934864E+03</pdfrwt>
<pdfrwt beam="2">  1       21 0.13219623E-01 0.21934864E+03</pdfrwt>
<totfact> 0.54808926E+04</totfact>
</mgrwt>
</event>
<event>
 4    1  0.4151607E+000  0.2946269E+03  0.7546771E-02  0.1087958E+00
         21   -1    0    0  501  502  0.00000000000E+00  0.00000000000E+00  0.54446059997E+03  0.54446059997E+03  0.00000000000E+00 0.  1.
         21   -1    0    0  502  503 -0.00000000000E+00 -0.00000000000E+00 -0.18076253941E+03  0.18076253941E+03  0.00000000000E+00 0. -1.
          6    1    1    2  501    0  0.22510559915E+03  0.78762206805E+02  0.30640875319E+03  0.42507803992E+03  0.17300000000E+03 0.  1.
         -6    1    1    2    0  503 -0.22510559915E+03 -0.78762206805E+02  0.57289307369E+02  0.30014509946E+03  0.17300000000E+03 0. -1.
<mgrwt>
<rscale>  2 0.29462691E+03</rscale>
<asrwt>0</asrwt>
<pdfrwt beam="1">  1       21 0.83763168E-01 0.29462691E+03</pdfrwt>
<pdfrwt beam="2">  1       21 0.27809622E-01 0.29462691E+03</pdfrwt>
<totfact> 0.14480245E+04</totfact>
</mgrwt>
</event>
<event>
 4    1  0.4151607E+000  0.1835766E+03  0.7546771E-02  0.1164386E+00
         21   -1    0    0  503  502  0.00000000000E+00  0.00000000000E+00  0.12463863274E+04  0.12463863274E+04  0.00000000000E+00 0. -1.
         21   -1    0    0  501  503 -0.00000000000E+00 -0.00000000000E+00 -0.27602514447E+02  0.27602514447E+02  0.00000000000E+00 0.  1.
          6    1    1    2  501    0  0.53618833479E+02 -0.29939958252E+02  0.51833400544E+03  0.54988227977E+03  0.17300000000E+03 0.  1.
         -6    1    1    2    0  502 -0.53618833479E+02  0.29939958252E+02  0.70044980750E+03  0.72410656207E+03  0.17300000000E+03 0. -1.
<mgrwt>
<rscale>  2 0.18357663E+03</rscale>
<asrwt>0</asrwt>
<pdfrwt beam="1">  1       21 0.19175170E+00 0.18357663E+03</pdfrwt>
<pdfrwt beam="2">  1       21 0.42465417E-02 0.18357663E+03</pdfrwt>
<totfact> 0.54140405E+04</totfact>
</mgrwt>
</event>
<event>
 4    1  0.4151607E+000  0.1860215E+03  0.7546771E-02  0.1162099E+00
         21   -1    0    0  501  502  0.00000000000E+00  0.00000000000E+00  0.49959779640E+02  0.49959779640E+02  0.00000000000E+00 0. -1.
         21   -1    0    0  502  503 -0.00000000000E+00 -0.00000000000E+00 -0.70003010388E+03  0.70003010388E+03  0.00000000000E+00 0. -1.
          6    1    1    2  501    0  0.11067688484E+02 -0.67472225512E+02 -0.36357222931E+03  0.40839779734E+03  0.17300000000E+03 0. -1.
         -6    1    1    2    0  503 -0.11067688484E+02  0.67472225512E+02 -0.28649809493E+03  0.34159208618E+03  0.17300000000E+03 0. -1.
<mgrwt>
<rscale>  2 0.18602149E+03</rscale>
<asrwt>0</asrwt>
<pdfrwt beam="1">  1       21 0.76861206E-02 0.18602149E+03</pdfrwt>
<pdfrwt beam="2">  1       21 0.10769693E+00 0.18602149E+03</pdfrwt>
<totfact> 0.88682774E+04</totfact>
</mgrwt>
</event>
<event>
 4    1  0.4151607E+000  0.1845099E+03  0.7546771E-02  0.1163508E+00
         21   -1    0    0  501  502  0.00000000000E+00  0.00000000000E+00  0.14370664579E+03  0.14370664579E+03  0.00000000000E+00 0. -1.
         21   -1    0    0  502  503 -0.00000000000E+00 -0.00000000000E+00 -0.26459395646E+03  0.26459395646E+03  0.00000000000E+00 0. -1.
          6    1    1    2  501    0 -0.60614369097E+02  0.20995268672E+02  0.56049349233E+01  0.18459501170E+03  0.17300000000E+03 0. -1.
         -6    1    1    2    0  503  0.60614369097E+02 -0.20995268672E+02 -0.12649224559E+03  0.22370559055E+03  0.17300000000E+03 0. -1.
<mgrwt>
<rscale>  2 0.18450990E+03</rscale>
<asrwt>0</asrwt>
<pdfrwt beam="1">  1       21 0.22108715E-01 0.18450990E+03</pdfrwt>
<pdfrwt beam="2">  1       21 0.40706763E-01 0.18450990E+03</pdfrwt>
<totfact> 0.11151349E+05</totfact>
</mgrwt>
</event>
<event>
 4    1  0.4151607E+000  0.2587048E+03  0.7546771E-02  0.1107924E+00
         21   -1    0    0  503  502  0.00000000000E+00  0.00000000000E+00  0.11279577374E+04  0.11279577374E+04  0.00000000000E+00 0.  1.
         21   -1    0    0  501  503 -0.00000000000E+00 -0.00000000000E+00 -0.59580150341E+02  0.59580150341E+02  0.00000000000E+00 0.  1.
          6    1    1    2  501    0 -0.14970709909E+03  0.12077640397E+03  0.49615521049E+03  0.55955173860E+03  0.17300000000E+03 0.  1.
         -6    1    1    2    0  502  0.14970709909E+03 -0.12077640397E+03  0.57222237662E+03  0.62798614919E+03  0.17300000000E+03 0.  1.
<mgrwt>
<rscale>  2 0.25870476E+03</rscale>
<asrwt>0</asrwt>
<pdfrwt beam="1">  1       21 0.17353194E+00 0.25870476E+03</pdfrwt>
<pdfrwt beam="2">  1       21 0.91661778E-02 0.25870476E+03</pdfrwt>
<totfact> 0.18280425E+04</totfact>
</mgrwt>
</event>
<event>
 4    1  0.4151607E+000  0.2190911E+03  0.7546771E-02  0.1134562E+00
         21   -1    0    0  501  502  0.00000000000E+00  0.00000000000E+00  0.29030204920E+03  0.29030204920E+03  0.00000000000E+00 0.  1.
         21   -1    0    0  502  503 -0.00000000000E+00 -0.00000000000E+00 -0.16707227133E+03  0.16707227133E+03  0.00000000000E+00 0.  1.
          6    1    1    2  501    0 -0.13013950396E+03 -0.33699031504E+02  0.84845992729E+02  0.23494628683E+03  0.17300000000E+03 0.  1.
         -6    1    1    2    0  503  0.13013950396E+03  0.33699031504E+02  0.38383785142E+02  0.22242803370E+03  0.17300000000E+03 0.  1.
<mgrwt>
<rscale>  2 0.21909111E+03</rscale>
<asrwt>0</asrwt>
<pdfrwt beam="1">  1       21 0.44661854E-01 0.21909111E+03</pdfrwt>
<pdfrwt beam="2">  1       21 0.25703426E-01 0.21909111E+03</pdfrwt>
<totfact> 0.68332802E+04</totfact>
</mgrwt>
</event>
<event>
 4    1  0.4151607E+000  0.3267548E+03  0.7546771E-02  0.1072582E+00
         21   -1    0    0  503  502  0.00000000000E+00  0.00000000000E+00  0.49914237384E+03  0.49914237384E+03  0.00000000000E+00 0.  1.
         21   -1    0    0  501  503 -0.00000000000E+00 -0.00000000000E+00 -0.30289331943E+03  0.30289331943E+03  0.00000000000E+00 0. -1.
          6    1    1    2  501    0 -0.13763008940E+03 -0.24061928347E+03 -0.11923924219E+03  0.34783139301E+03  0.17300000000E+03 0. -1.
         -6    1    1    2    0  502  0.13763008940E+03  0.24061928347E+03  0.31548829660E+03  0.45420430026E+03  0.17300000000E+03 0.  1.
<mgrwt>
<rscale>  2 0.32675477E+03</rscale>
<asrwt>0</asrwt>
<pdfrwt beam="1">  1       21 0.76791134E-01 0.32675477E+03</pdfrwt>
<pdfrwt beam="2">  1       21 0.46598972E-01 0.32675477E+03</pdfrwt>
<totfact> 0.61498972E+03</totfact>
</mgrwt>
</event>
<event>
 4    1  0.4151607E+000  0.1783304E+03  0.7546771E-02  0.1169429E+00
         21   -1    0    0  503  502  0.00000000000E+00  0.00000000000E+00  0.14191957358E+03  0.14191957358E+03  0.00000000000E+00 0.  1.
         21   -1    0    0  501  503 -0.00000000000E+00 -0.00000000000E+00 -0.23197550453E+03  0.23197550453E+03  0.00000000000E+00 0. -1.
          6    1    1    2  501    0 -0.43270537109E+02  0.62030793461E+00 -0.79511660333E+02  0.19525324144E+03  0.17300000000E+03 0. -1.
         -6    1    1    2    0  502  0.43270537109E+02 -0.62030793461E+00 -0.10544270618E+02  0.17864183666E+03  0.17300000000E+03 0.  1.
<mgrwt>
<rscale>  2 0.17833038E+03</rscale>
<asrwt>0</asrwt>
<pdfrwt beam="1">  1       21 0.21833781E-01 0.17833038E+03</pdfrwt>
<pdfrwt beam="2">  1       21 0.35688539E-01 0.17833038E+03</pdfrwt>
<totfact> 0.14892615E+05</totfact>
</mgrwt>
</event>
<event>
 4    1  0.4151607E+000  0.1883048E+03  0.7546771E-02  0.1159999E+00
         21   -1    0    0  501  502  0.00000000000E+00  0.00000000000E+00  0.86098878437E+02  0.86098878437E+02  0.00000000000E+00 0.  1.
         21   -1    0    0  502  503 -0.00000000000E+00 -0.00000000000E+00 -0.58778543137E+03  0.58778543137E+03  0.00000000000E+00 0.  1.
          6    1    1    2  501    0 -0.45110500278E+01 -0.74225036622E+02 -0.66495198648E+02  0.19970056854E+03  0.17300000000E+03 0.  1.
         -6    1    1    2    0  503  0.45110500278E+01  0.74225036622E+02 -0.43519135429E+03  0.47418374127E+03  0.17300000000E+03 0.  1.
<mgrwt>
<rscale>  2 0.18830482E+03</rscale>
<asrwt>0</asrwt>
<pdfrwt beam="1">  1       21 0.13245981E-01 0.18830482E+03</pdfrwt>
<pdfrwt beam="2">  1       21 0.90428532E-01 0.18830482E+03</pdfrwt>
<totfact> 0.51172027E+04</totfact>
</mgrwt>
</event>
<event>
 4    1  0.4151607E+000  0.1766377E+03  0.7546771E-02  0.1171097E+00
         21   -1    0    0  503  502  0.00000000000E+00  0.00000000000E+00  0.57072929157E+03  0.57072929157E+03  0.00000000000E+00 0. -1.
         21   -1    0    0  501  503 -0.00000000000E+00 -0.00000000000E+00 -0.10329578692E+03  0.10329578692E+03  0.00000000000E+00 0. -1.
          6    1    1    2  501    0  0.33790315727E+02  0.11406092659E+02  0.24863103154E+01  0.17665521822E+03  0.17300000000E+03 0. -1.
         -6    1    1    2    0  502 -0.33790315727E+02 -0.11406092659E+02  0.46494719433E+03  0.49736986026E+03  0.17300000000E+03 0. -1.
<mgrwt>
<rscale>  2 0.17663772E+03</rscale>
<asrwt>0</asrwt>
<pdfrwt beam="1">  1       21 0.87804504E-01 0.17663772E+03</pdfrwt>
<pdfrwt beam="2">  1       21 0.15891660E-01 0.17663772E+03</pdfrwt>
<totfact> 0.39596966E+04</totfact>
</mgrwt>
</event>
<event>
 4    1  0.4151607E+000  0.2072726E+03  0.7546771E-02  0.1143744E+00
         21   -1    0    0  501  502  0.00000000000E+00  0.00000000000E+00  0.72319552650E+03  0.72319552650E+03  0.00000000000E+00 0. -1.
         21   -1    0    0  502  503 -0.00000000000E+00 -0.00000000000E+00 -0.63081881785E+02  0.63081881785E+02  0.00000000000E+00 0. -1.
          6    1    1    2  501    0 -0.69748157315E+02 -0.90377708438E+02  0.42496246649E+03  0.47281606737E+03  0.17300000000E+03 0. -1.
         -6    1    1    2    0  503  0.69748157315E+02  0.90377708438E+02  0.23515117822E+03  0.31346134092E+03  0.17300000000E+03 0. -1.
<mgrwt>
<rscale>  2 0.20727261E+03</rscale>
<asrwt>0</asrwt>
<pdfrwt beam="1">  1       21 0.11126084E+00 0.20727261E+03</pdfrwt>
<pdfrwt beam="2">  1       21 0.97049054E-02 0.20727261E+03</pdfrwt>
<totfact> 0.53946754E+04</totfact>
</mgrwt>
</event>
<event>
 4    1  0.4151607E+000  0.2444981E+03  0.7546771E-02  0.1116832E+00
         21   -1    0    0  501  502  0.00000000000E+00  0.00000000000E+00  0.92243657873E+03  0.92243657873E+03  0.00000000000E+00 0.  1.
         21   -1    0    0  502  503 -0.00000000000E+00 -0.00000000000E+00 -0.14964271325E+03  0.14964271325E+03  0.00000000000E+00 0.  1.
          6    1    1    2  501    0 -0.88345613315E+02 -0.14847680761E+03  0.79000641562E+03  0.82697608582E+03  0.17300000000E+03 0.  1.
         -6    1    1    2    0  503  0.88345613315E+02  0.14847680761E+03 -0.17212550146E+02  0.24510320616E+03  0.17300000000E+03 0.  1.
<mgrwt>
<rscale>  2 0.24449808E+03</rscale>
<asrwt>0</asrwt>
<pdfrwt beam="1">  1       21 0.14191332E+00 0.24449808E+03</pdfrwt>
<pdfrwt beam="2">  1       21 0.23021957E-01 0.24449808E+03</pdfrwt>
<totfact> 0.58902898E+03</totfact>
</mgrwt>
</event>
<event>
 4    1  0.4151607E+000  0.1859349E+03  0.7546771E-02  0.1162180E+00
         21   -1    0    0  501  502  0.00000000000E+00  0.00000000000E+00  0.20192008237E+03  0.20192008237E+03  0.00000000000E+00 0.  1.
         21   -1    0    0  502  503 -0.00000000000E+00 -0.00000000000E+00 -0.17431056367E+03  0.17431056367E+03  0.00000000000E+00 0.  1.
          6    1    1    2  501    0 -0.61048660398E+02  0.30262939443E+02  0.38872728332E+02  0.18995492478E+03  0.17300000000E+03 0. -1.
         -6    1    1    2    0  503  0.61048660398E+02 -0.30262939443E+02 -0.11263209627E+02  0.18627572126E+03  0.17300000000E+03 0. -1.
<mgrwt>
<rscale>  2 0.18593489E+03</rscale>
<asrwt>0</asrwt>
<pdfrwt beam="1">  1       21 0.31064628E-01 0.18593489E+03</pdfrwt>
<pdfrwt beam="2">  1       21 0.26817010E-01 0.18593489E+03</pdfrwt>
<totfact> 0.13211198E+05</totfact>
</mgrwt>
</event>
<event>
 4    1  0.4151607E+000  0.1740884E+03  0.7546771E-02  0.1173650E+00
         21   -1    0    0  503  502  0.00000000000E+00  0.00000000000E+00  0.62874607432E+03  0.62874607432E+03  0.00000000000E+00 0.  1.
         21   -1    0    0  501  503 -0.00000000000E+00 -0.00000000000E+00 -0.48354703790E+02  0.48354703790E+02  0.00000000000E+00 0.  1.
          6    1    1    2  501    0  0.13070061434E+02  0.14385461407E+02  0.27116552161E+03  0.32223827847E+03  0.17300000000E+03 0.  1.
         -6    1    1    2    0  502 -0.13070061434E+02 -0.14385461407E+02  0.30922584893E+03  0.35486249964E+03  0.17300000000E+03 0.  1.
<mgrwt>
<rscale>  2 0.17408839E+03</rscale>
<asrwt>0</asrwt>
<pdfrwt beam="1">  1       21 0.96730159E-01 0.17408839E+03</pdfrwt>
<pdfrwt beam="2">  1       21 0.74391857E-02 0.17408839E+03</pdfrwt>
<totfact> 0.12176692E+05</totfact>
</mgrwt>
</event>
<event>
 4    1  0.4151607E+000  0.1866414E+03  0.7546771E-02  0.1161526E+00
         21   -1    0    0  503  502  0.00000000000E+00  0.00000000000E+00  0.24099987240E+03  0.24099987240E+03  0.00000000000E+00 0. -1.
         21   -1    0    0  501  503 -0.00000000000E+00 -0.00000000000E+00 -0.20815650340E+03  0.20815650340E+03  0.00000000000E+00 0. -1.
          6    1    1    2  501    0 -0.59884951429E+02  0.36328948047E+02 -0.10772783367E+03  0.21550008358E+03  0.17300000000E+03 0. -1.
         -6    1    1    2    0  502  0.59884951429E+02 -0.36328948047E+02  0.14057120267E+03  0.23365629222E+03  0.17300000000E+03 0. -1.
<mgrwt>
<rscale>  2 0.18664137E+03</rscale>
<asrwt>0</asrwt>
<pdfrwt beam="1">  1       21 0.37076903E-01 0.18664137E+03</pdfrwt>
<pdfrwt beam="2">  1       21 0.32024077E-01 0.18664137E+03</pdfrwt>
<totfact> 0.65966360E+04</totfact>
</mgrwt>
</event>
<event>
 4    1  0.4151607E+000  0.2496504E+03  0.7546771E-02  0.1113526E+00
         21   -1    0    0  503  502  0.00000000000E+00  0.00000000000E+00  0.46270250669E+03  0.46270250669E+03  0.00000000000E+00 0.  1.
         21   -1    0    0  501  503 -0.00000000000E+00 -0.00000000000E+00 -0.14276235690E+03  0.14276235690E+03  0.00000000000E+00 0. -1.
          6    1    1    2  501    0  0.74928564220E+02  0.16365218257E+03  0.88021216301E+02  0.26471316763E+03  0.17300000000E+03 0. -1.
         -6    1    1    2    0  502 -0.74928564220E+02 -0.16365218257E+03  0.23191893349E+03  0.34075169597E+03  0.17300000000E+03 0.  1.
<mgrwt>
<rscale>  2 0.24965041E+03</rscale>
<asrwt>0</asrwt>
<pdfrwt beam="1">  1       21 0.71185000E-01 0.24965041E+03</pdfrwt>
<pdfrwt beam="2">  1       21 0.21963440E-01 0.24965041E+03</pdfrwt>
<totfact> 0.33613924E+04</totfact>
</mgrwt>
</event>
<event>
 4    1  0.4151607E+000  0.1929349E+03  0.7546771E-02  0.1155841E+00
         21   -1    0    0  503  502  0.00000000000E+00  0.00000000000E+00  0.99224501210E+02  0.99224501210E+02  0.00000000000E+00 0. -1.
         21   -1    0    0  501  503 -0.00000000000E+00 -0.00000000000E+00 -0.43007989677E+03  0.43007989677E+03  0.00000000000E+00 0. -1.
          6    1    1    2  501    0 -0.65520678431E+02  0.54789620361E+02 -0.26001082877E+03  0.32377382982E+03  0.17300000000E+03 0. -1.
         -6    1    1    2    0  502  0.65520678431E+02 -0.54789620361E+02 -0.70844566786E+02  0.20553056815E+03  0.17300000000E+03 0. -1.
<mgrwt>
<rscale>  2 0.19293486E+03</rscale>
<asrwt>0</asrwt>
<pdfrwt beam="1">  1       21 0.15265308E-01 0.19293486E+03</pdfrwt>
<pdfrwt beam="2">  1       21 0.66166137E-01 0.19293486E+03</pdfrwt>
<totfact> 0.79657285E+04</totfact>
</mgrwt>
</event>
<event>
 4    1  0.4151607E+000  0.2097211E+03  0.7546771E-02  0.1141787E+00
         21   -1    0    0  503  502  0.00000000000E+00  0.00000000000E+00  0.31469699187E+03  0.31469699187E+03  0.00000000000E+00 0.  1.
         21   -1    0    0  501  503 -0.00000000000E+00 -0.00000000000E+00 -0.19275686616E+03  0.19275686616E+03  0.00000000000E+00 0.  1.
          6    1    1    2  501    0  0.10382872549E+03  0.57214937693E+02 -0.72067716831E+02  0.22175822226E+03  0.17300000000E+03 0. -1.
         -6    1    1    2    0  502 -0.10382872549E+03 -0.57214937693E+02  0.19400784253E+03  0.28569563577E+03  0.17300000000E+03 0. -1.
<mgrwt>
<rscale>  2 0.20972113E+03</rscale>
<asrwt>0</asrwt>
<pdfrwt beam="1">  1       21 0.48414922E-01 0.20972113E+03</pdfrwt>
<pdfrwt beam="2">  1       21 0.29654902E-01 0.20972113E+03</pdfrwt>
<totfact> 0.44031753E+04</totfact>
</mgrwt>
</event>
<event>
 4    1  0.4151607E+000  0.2224799E+03  0.7546771E-02  0.1132048E+00
         21   -1    0    0  501  502  0.00000000000E+00  0.00000000000E+00  0.86225254588E+02  0.86225254588E+02  0.00000000000E+00 0.  1.
         21   -1    0    0  502  503 -0.00000000000E+00 -0.00000000000E+00 -0.57873718473E+03  0.57873718473E+03  0.00000000000E+00 0. -1.
          6    1    1    2  501    0  0.68200821262E+02 -0.12213490843E+03 -0.27618922838E+03  0.35465162871E+03  0.17300000000E+03 0.  1.
         -6    1    1    2    0  503 -0.68200821262E+02  0.12213490843E+03 -0.21632270176E+03  0.31031081060E+03  0.17300000000E+03 0.  1.
<mgrwt>
<rscale>  2 0.22247986E+03</rscale>
<asrwt>0</asrwt>
<pdfrwt beam="1">  1       21 0.13265424E-01 0.22247986E+03</pdfrwt>
<pdfrwt beam="2">  1       21 0.89036488E-01 0.22247986E+03</pdfrwt>
<totfact> 0.52033320E+04</totfact>
</mgrwt>
</event>
<event>
 4    1  0.4151607E+000  0.2052693E+03  0.7546771E-02  0.1145368E+00
         21   -1    0    0  501  502  0.00000000000E+00  0.00000000000E+00  0.22072281339E+03  0.22072281339E+03  0.00000000000E+00 0.  1.
         21   -1    0    0  502  503 -0.00000000000E+00 -0.00000000000E+00 -0.19118011825E+03  0.19118011825E+03  0.00000000000E+00 0. -1.
          6    1    1    2  501    0  0.11040567100E+03 -0.41311622245E+01  0.22686976962E+02  0.20651919430E+03  0.17300000000E+03 0. -1.
         -6    1    1    2    0  503 -0.11040567100E+03  0.41311622245E+01  0.68557181811E+01  0.20538373734E+03  0.17300000000E+03 0.  1.
<mgrwt>
<rscale>  2 0.20526928E+03</rscale>
<asrwt>0</asrwt>
<pdfrwt beam="1">  1       21 0.33957356E-01 0.20526928E+03</pdfrwt>
<pdfrwt beam="2">  1       21 0.29412326E-01 0.20526928E+03</pdfrwt>
<totfact> 0.92052308E+04</totfact>
</mgrwt>
</event>
<event>
 4    1  0.4151607E+000  0.2304657E+03  0.7546771E-02  0.1126312E+00
         21   -1    0    0  503  502  0.00000000000E+00  0.00000000000E+00  0.14887008892E+03  0.14887008892E+03  0.00000000000E+00 0.  1.
         21   -1    0    0  501  503 -0.00000000000E+00 -0.00000000000E+00 -0.39327158730E+03  0.39327158730E+03  0.00000000000E+00 0. -1.
          6    1    1    2  501    0  0.13789940215E+03  0.64569139833E+02 -0.20476859620E+03  0.30829303742E+03  0.17300000000E+03 0. -1.
         -6    1    1    2    0  502 -0.13789940215E+03 -0.64569139833E+02 -0.39632902176E+02  0.23384863880E+03  0.17300000000E+03 0. -1.
<mgrwt>
<rscale>  2 0.23046566E+03</rscale>
<asrwt>0</asrwt>
<pdfrwt beam="1">  1       21 0.22903091E-01 0.23046566E+03</pdfrwt>
<pdfrwt beam="2">  1       21 0.60503320E-01 0.23046566E+03</pdfrwt>
<totfact> 0.44716013E+04</totfact>
</mgrwt>
</event>
<event>
 4    1  0.4151607E+000  0.3427400E+03  0.7546771E-02  0.1065635E+00
         21   -1    0    0  503  502  0.00000000000E+00  0.00000000000E+00  0.88031393344E+03  0.88031393344E+03  0.00000000000E+00 0.  1.
         21   -1    0    0  501  503 -0.00000000000E+00 -0.00000000000E+00 -0.13420463430E+03  0.13420463430E+03  0.00000000000E+00 0. -1.
          6    1    1    2  501    0  0.27710480499E+03  0.10370441299E+03  0.33481088945E+03  0.47913360341E+03  0.17300000000E+03 0. -1.
         -6    1    1    2    0  502 -0.27710480499E+03 -0.10370441299E+03  0.41129840969E+03  0.53538496433E+03  0.17300000000E+03 0.  1.
<mgrwt>
<rscale>  2 0.34273996E+03</rscale>
<asrwt>0</asrwt>
<pdfrwt beam="1">  1       21 0.13543291E+00 0.34273996E+03</pdfrwt>
<pdfrwt beam="2">  1       21 0.20646867E-01 0.34273996E+03</pdfrwt>
<totfact> 0.77677492E+03</totfact>
</mgrwt>
</event>
<event>
 4    1  0.4151607E+000  0.2909294E+03  0.7546771E-02  0.1089865E+00
         21   -1    0    0  501  502  0.00000000000E+00  0.00000000000E+00  0.36399730142E+03  0.36399730142E+03  0.00000000000E+00 0.  1.
         21   -1    0    0  502  503 -0.00000000000E+00 -0.00000000000E+00 -0.25135972771E+03  0.25135972771E+03  0.00000000000E+00 0. -1.
          6    1    1    2  501    0 -0.91471844083E+02  0.21527618245E+03  0.14053248341E+03  0.32309334856E+03  0.17300000000E+03 0.  1.
         -6    1    1    2    0  503  0.91471844083E+02 -0.21527618245E+03 -0.27894909701E+02  0.29226368057E+03  0.17300000000E+03 0. -1.
<mgrwt>
<rscale>  2 0.29092943E+03</rscale>
<asrwt>0</asrwt>
<pdfrwt beam="1">  1       21 0.55999585E-01 0.29092943E+03</pdfrwt>
<pdfrwt beam="2">  1       21 0.38670727E-01 0.29092943E+03</pdfrwt>
<totfact> 0.18412995E+04</totfact>
</mgrwt>
</event>
<event>
 4    1  0.4151607E+000  0.2156618E+03  0.7546771E-02  0.1137159E+00
         21   -1    0    0  501  502  0.00000000000E+00  0.00000000000E+00  0.13437635813E+04  0.13437635813E+04  0.00000000000E+00 0. -1.
         21   -1    0    0  502  503 -0.00000000000E+00 -0.00000000000E+00 -0.38450581583E+02  0.38450581583E+02  0.00000000000E+00 0.  1.
          6    1    1    2  501    0  0.11224124029E+02 -0.12827714049E+03  0.87102679406E+03  0.89732807919E+03  0.17300000000E+03 0. -1.
         -6    1    1    2    0  503 -0.11224124029E+02  0.12827714049E+03  0.43428620563E+03  0.48488608366E+03  0.17300000000E+03 0.  1.
<mgrwt>
<rscale>  2 0.21566179E+03</rscale>
<asrwt>0</asrwt>
<pdfrwt beam="1">  1       21 0.20673282E+00 0.21566179E+03</pdfrwt>
<pdfrwt beam="2">  1       21 0.59154751E-02 0.21566179E+03</pdfrwt>
<totfact> 0.24167544E+04</totfact>
</mgrwt>
</event>
<event>
 4    1  0.4151607E+000  0.2212451E+03  0.7546771E-02  0.1132958E+00
         21   -1    0    0  503  502  0.00000000000E+00  0.00000000000E+00  0.15021945661E+04  0.15021945661E+04  0.00000000000E+00 0.  1.
         21   -1    0    0  501  503 -0.00000000000E+00 -0.00000000000E+00 -0.56196453627E+02  0.56196453627E+02  0.00000000000E+00 0.  1.
          6    1    1    2  501    0 -0.10807289358E+03  0.85677537195E+02  0.21792970210E+03  0.31055232372E+03  0.17300000000E+03 0.  1.
         -6    1    1    2    0  502  0.10807289358E+03 -0.85677537195E+02  0.12280684104E+04  0.12478386960E+04  0.17300000000E+03 0.  1.
<mgrwt>
<rscale>  2 0.22124509E+03</rscale>
<asrwt>0</asrwt>
<pdfrwt beam="1">  1       21 0.23110683E+00 0.22124509E+03</pdfrwt>
<pdfrwt beam="2">  1       21 0.86456094E-02 0.22124509E+03</pdfrwt>
<totfact> 0.88008240E+03</totfact>
</mgrwt>
</event>
<event>
 4    1  0.4151607E+000  0.1831344E+03  0.7546771E-02  0.1164804E+00
         21   -1    0    0  501  502  0.00000000000E+00  0.00000000000E+00  0.79055668264E+02  0.79055668264E+02  0.00000000000E+00 0.  1.
         21   -1    0    0  502  503 -0.00000000000E+00 -0.00000000000E+00 -0.49909407568E+03  0.49909407568E+03  0.00000000000E+00 0.  1.
          6    1    1    2  501    0  0.17898764344E+02 -0.57348554416E+02 -0.98065140781E+02  0.20773780180E+03  0.17300000000E+03 0.  1.
         -6    1    1    2    0  503 -0.17898764344E+02  0.57348554416E+02 -0.32197326663E+03  0.37041194215E+03  0.17300000000E+03 0.  1.
<mgrwt>
<rscale>  2 0.18313444E+03</rscale>
<asrwt>0</asrwt>
<pdfrwt beam="1">  1       21 0.12162411E-01 0.18313444E+03</pdfrwt>
<pdfrwt beam="2">  1       21 0.76783703E-01 0.18313444E+03</pdfrwt>
<totfact> 0.86751830E+04</totfact>
</mgrwt>
</event>
<event>
 4    1  0.4151607E+000  0.1847323E+03  0.7546771E-02  0.1163300E+00
         21   -1    0    0  503  502  0.00000000000E+00  0.00000000000E+00  0.28138289266E+03  0.28138289266E+03  0.00000000000E+00 0.  1.
         21   -1    0    0  501  503 -0.00000000000E+00 -0.00000000000E+00 -0.41522748865E+03  0.41522748865E+03  0.00000000000E+00 0.  1.
          6    1    1    2  501    0 -0.64505890524E+02  0.60015832937E+01 -0.35997923572E+03  0.40461225768E+03  0.17300000000E+03 0.  1.
         -6    1    1    2    0  502  0.64505890524E+02 -0.60015832937E+01  0.22613463974E+03  0.29199812363E+03  0.17300000000E+03 0.  1.
<mgrwt>
<rscale>  2 0.18473232E+03</rscale>
<asrwt>0</asrwt>
<pdfrwt beam="1">  1       21 0.43289676E-01 0.18473232E+03</pdfrwt>
<pdfrwt beam="2">  1       21 0.63881152E-01 0.18473232E+03</pdfrwt>
<totfact> 0.11672351E+04</totfact>
</mgrwt>
</event>
<event>
 4    1  0.4151607E+000  0.2504096E+03  0.7546771E-02  0.1113046E+00
         21   -1    0    0  503  502  0.00000000000E+00  0.00000000000E+00  0.15050264093E+04  0.15050264093E+04  0.00000000000E+00 0. -1.
         21   -1    0    0  501  503 -0.00000000000E+00 -0.00000000000E+00 -0.94873950510E+02  0.94873950510E+02  0.00000000000E+00 0.  1.
          6    1    1    2  501    0  0.38060212886E+02 -0.17699538492E+03  0.10599300113E+03  0.27191811704E+03  0.17300000000E+03 0.  1.
         -6    1    1    2    0  502 -0.38060212886E+02  0.17699538492E+03  0.13041594576E+04  0.13279822427E+04  0.17300000000E+03 0. -1.
<mgrwt>
<rscale>  2 0.25040956E+03</rscale>
<asrwt>0</asrwt>
<pdfrwt beam="1">  1       21 0.23154251E+00 0.25040956E+03</pdfrwt>
<pdfrwt beam="2">  1       21 0.14595993E-01 0.25040956E+03</pdfrwt>
<totfact> 0.33451482E+03</totfact>
</mgrwt>
</event>
<event>
 4    1  0.4151607E+000  0.2130287E+03  0.7546771E-02  0.1139190E+00
         21   -1    0    0  501  502  0.00000000000E+00  0.00000000000E+00  0.19422554903E+03  0.19422554903E+03  0.00000000000E+00 0.  1.
         21   -1    0    0  502  503 -0.00000000000E+00 -0.00000000000E+00 -0.64525430694E+03  0.64525430694E+03  0.00000000000E+00 0.  1.
          6    1    1    2  501    0  0.11714112980E+03 -0.41595682275E+02  0.10972387705E+03  0.23962590484E+03  0.17300000000E+03 0.  1.
         -6    1    1    2    0  503 -0.11714112980E+03  0.41595682275E+02 -0.56075263496E+03  0.59985395113E+03  0.17300000000E+03 0.  1.
<mgrwt>
<rscale>  2 0.21302874E+03</rscale>
<asrwt>0</asrwt>
<pdfrwt beam="1">  1       21 0.29880854E-01 0.21302874E+03</pdfrwt>
<pdfrwt beam="2">  1       21 0.99269893E-01 0.21302874E+03</pdfrwt>
<totfact> 0.88425229E+03</totfact>
</mgrwt>
</event>
<event>
 4    1  0.4151607E+000  0.2027692E+03  0.7546771E-02  0.1147423E+00
         21   -1    0    0  501  502  0.00000000000E+00  0.00000000000E+00  0.84036931852E+03  0.84036931852E+03  0.00000000000E+00 0.  1.
         21   -1    0    0  502  503 -0.00000000000E+00 -0.00000000000E+00 -0.55918845829E+02  0.55918845829E+02  0.00000000000E+00 0. -1.
          6    1    1    2  501    0  0.10532219927E+03 -0.96731747541E+01  0.55070971174E+03  0.58685306728E+03  0.17300000000E+03 0.  1.
         -6    1    1    2    0  503 -0.10532219927E+03  0.96731747541E+01  0.23374076096E+03  0.30943509708E+03  0.17300000000E+03 0. -1.
<mgrwt>
<rscale>  2 0.20276917E+03</rscale>
<asrwt>0</asrwt>
<pdfrwt beam="1">  1       21 0.12928758E+00 0.20276917E+03</pdfrwt>
<pdfrwt beam="2">  1       21 0.86029000E-02 0.20276917E+03</pdfrwt>
<totfact> 0.46075655E+04</totfact>
</mgrwt>
</event>
<event>
 4    1  0.4151607E+000  0.2132496E+03  0.7546771E-02  0.1139018E+00
         21   -1    0    0  503  502  0.00000000000E+00  0.00000000000E+00  0.17531352159E+04  0.17531352159E+04  0.00000000000E+00 0. -1.
         21   -1    0    0  501  503 -0.00000000000E+00 -0.00000000000E+00 -0.27935077280E+02  0.27935077280E+02  0.00000000000E+00 0. -1.
          6    1    1    2  501    0 -0.10666185225E+03 -0.64572920218E+02  0.62458044190E+03  0.65998192487E+03  0.17300000000E+03 0. -1.
         -6    1    1    2    0  502  0.10666185225E+03  0.64572920218E+02  0.11006196967E+04  0.11210883683E+04  0.17300000000E+03 0. -1.
<mgrwt>
<rscale>  2 0.21324965E+03</rscale>
<asrwt>0</asrwt>
<pdfrwt beam="1">  1       21 0.26971302E+00 0.21324965E+03</pdfrwt>
<pdfrwt beam="2">  1       21 0.42977056E-02 0.21324965E+03</pdfrwt>
<totfact> 0.17397075E+04</totfact>
</mgrwt>
</event>
<event>
 4    1  0.4151607E+000  0.2464982E+03  0.7546771E-02  0.1115538E+00
         21   -1    0    0  503  502  0.00000000000E+00  0.00000000000E+00  0.13318764823E+03  0.13318764823E+03  0.00000000000E+00 0.  1.
         21   -1    0    0  501  503 -0.00000000000E+00 -0.00000000000E+00 -0.70940669483E+03  0.70940669483E+03  0.00000000000E+00 0.  1.
          6    1    1    2  501    0  0.15645085206E+03 -0.79721348700E+02 -0.53980246779E+03  0.59342064910E+03  0.17300000000E+03 0.  1.
         -6    1    1    2    0  502 -0.15645085206E+03  0.79721348700E+02 -0.36416578815E+02  0.24917369396E+03  0.17300000000E+03 0.  1.
<mgrwt>
<rscale>  2 0.24649820E+03</rscale>
<asrwt>0</asrwt>
<pdfrwt beam="1">  1       21 0.20490408E-01 0.24649820E+03</pdfrwt>
<pdfrwt beam="2">  1       21 0.10913949E+00 0.24649820E+03</pdfrwt>
<totfact> 0.14208668E+04</totfact>
</mgrwt>
</event>
<event>
 4    1  0.4151607E+000  0.1971075E+03  0.7546771E-02  0.1152203E+00
         21   -1    0    0  501  502  0.00000000000E+00  0.00000000000E+00  0.61954454874E+03  0.61954454874E+03  0.00000000000E+00 0. -1.
         21   -1    0    0  502  503 -0.00000000000E+00 -0.00000000000E+00 -0.14363026139E+03  0.14363026139E+03  0.00000000000E+00 0. -1.
          6    1    1    2  501    0  0.60770642269E+02  0.72313840181E+02  0.52437552832E+03  0.56019733768E+03  0.17300000000E+03 0. -1.
         -6    1    1    2    0  503 -0.60770642269E+02 -0.72313840181E+02 -0.48461240970E+02  0.20297747244E+03  0.17300000000E+03 0. -1.
<mgrwt>
<rscale>  2 0.19710749E+03</rscale>
<asrwt>0</asrwt>
<pdfrwt beam="1">  1       21 0.95314544E-01 0.19710749E+03</pdfrwt>
<pdfrwt beam="2">  1       21 0.22096964E-01 0.19710749E+03</pdfrwt>
<totfact> 0.17547470E+04</totfact>
</mgrwt>
</event>
<event>
 4    1  0.4151607E+000  0.2001658E+03  0.7546771E-02  0.1149599E+00
         21   -1    0    0  503  502  0.00000000000E+00  0.00000000000E+00  0.29704557880E+02  0.29704557880E+02  0.00000000000E+00 0.  1.
         21   -1    0    0  501  503 -0.00000000000E+00 -0.00000000000E+00 -0.13946341659E+04  0.13946341659E+04  0.00000000000E+00 0.  1.
          6    1    1    2  501    0  0.99956944135E+02  0.12081288635E+02 -0.81153135332E+03  0.83585255018E+03  0.17300000000E+03 0.  1.
         -6    1    1    2    0  502 -0.99956944135E+02 -0.12081288635E+02 -0.55339825469E+03  0.58848617359E+03  0.17300000000E+03 0.  1.
<mgrwt>
<rscale>  2 0.20016580E+03</rscale>
<asrwt>0</asrwt>
<pdfrwt beam="1">  1       21 0.45699318E-02 0.20016580E+03</pdfrwt>
<pdfrwt beam="2">  1       21 0.21455911E+00 0.20016580E+03</pdfrwt>
<totfact> 0.33853090E+04</totfact>
</mgrwt>
</event>
<event>
 4    1  0.4151607E+000  0.2770910E+03  0.7546771E-02  0.1097288E+00
         21   -1    0    0  501  502  0.00000000000E+00  0.00000000000E+00  0.20775082271E+03  0.20775082271E+03  0.00000000000E+00 0. -1.
         21   -1    0    0  502  503 -0.00000000000E+00 -0.00000000000E+00 -0.48649316221E+03  0.48649316221E+03  0.00000000000E+00 0.  1.
          6    1    1    2  501    0 -0.21257519780E+03  0.40770484687E+02  0.30799737576E+02  0.27879754478E+03  0.17300000000E+03 0. -1.
         -6    1    1    2    0  503  0.21257519780E+03 -0.40770484687E+02 -0.30954207707E+03  0.41544644013E+03  0.17300000000E+03 0.  1.
<mgrwt>
<rscale>  2 0.27709104E+03</rscale>
<asrwt>0</asrwt>
<pdfrwt beam="1">  1       21 0.31961665E-01 0.27709104E+03</pdfrwt>
<pdfrwt beam="2">  1       21 0.74845102E-01 0.27709104E+03</pdfrwt>
<totfact> 0.14349490E+04</totfact>
</mgrwt>
</event>
<event>
 4    1  0.4151607E+000  0.2448971E+03  0.7546771E-02  0.1116573E+00
         21   -1    0    0  501  502  0.00000000000E+00  0.00000000000E+00  0.92553020745E+03  0.92553020745E+03  0.00000000000E+00 0.  1.
         21   -1    0    0  502  503 -0.00000000000E+00 -0.00000000000E+00 -0.16086991437E+03  0.16086991437E+03  0.00000000000E+00 0.  1.
          6    1    1    2  501    0  0.40842969448E+01  0.17328857311E+03  0.80210408988E+03  0.83865701098E+03  0.17300000000E+03 0.  1.
         -6    1    1    2    0  503 -0.40842969448E+01 -0.17328857311E+03 -0.37443796806E+02  0.24774311085E+03  0.17300000000E+03 0.  1.
<mgrwt>
<rscale>  2 0.24489714E+03</rscale>
<asrwt>0</asrwt>
<pdfrwt beam="1">  1       21 0.14238926E+00 0.24489714E+03</pdfrwt>
<pdfrwt beam="2">  1       21 0.24749218E-01 0.24489714E+03</pdfrwt>
<totfact> 0.50836400E+03</totfact>
</mgrwt>
</event>
<event>
 4    1  0.4151607E+000  0.4077530E+03  0.7546771E-02  0.1041128E+00
         21   -1    0    0  501  502  0.00000000000E+00  0.00000000000E+00  0.54539070301E+02  0.54539070301E+02  0.00000000000E+00 0. -1.
         21   -1    0    0  502  503 -0.00000000000E+00 -0.00000000000E+00 -0.31784972965E+04  0.31784972965E+04  0.00000000000E+00 0.  1.
          6    1    1    2  501    0 -0.30996466449E+03  0.20063747187E+03 -0.12350656759E+04  0.13006343499E+04  0.17300000000E+03 0.  1.
         -6    1    1    2    0  503  0.30996466449E+03 -0.20063747187E+03 -0.18888925504E+04  0.19324020170E+04  0.17300000000E+03 0.  1.
<mgrwt>
<rscale>  2 0.40775297E+03</rscale>
<asrwt>0</asrwt>
<pdfrwt beam="1">  1       21 0.83906278E-02 0.40775297E+03</pdfrwt>
<pdfrwt beam="2">  1       21 0.48899949E+00 0.40775297E+03</pdfrwt>
<totfact> 0.19507270E+02</totfact>
</mgrwt>
</event>
<event>
 4    1  0.4151607E+000  0.1914816E+03  0.7546771E-02  0.1157132E+00
         21   -1    0    0  503  502  0.00000000000E+00  0.00000000000E+00  0.20848234626E+02  0.20848234626E+02  0.00000000000E+00 0. -1.
         21   -1    0    0  501  503 -0.00000000000E+00 -0.00000000000E+00 -0.17779777508E+04  0.17779777508E+04  0.00000000000E+00 0. -1.
          6    1    1    2  501    0 -0.74202670441E+02 -0.35073982646E+02 -0.97228464402E+03  0.99096046821E+03  0.17300000000E+03 0. -1.
         -6    1    1    2    0  502  0.74202670441E+02  0.35073982646E+02 -0.78484487213E+03  0.80786551720E+03  0.17300000000E+03 0. -1.
<mgrwt>
<rscale>  2 0.19148165E+03</rscale>
<asrwt>0</asrwt>
<pdfrwt beam="1">  1       21 0.32074200E-02 0.19148165E+03</pdfrwt>
<pdfrwt beam="2">  1       21 0.27353510E+00 0.19148165E+03</pdfrwt>
<totfact> 0.27494762E+04</totfact>
</mgrwt>
</event>
<event>
 4    1  0.4151607E+000  0.1805315E+03  0.7546771E-02  0.1167290E+00
         21   -1    0    0  503  502  0.00000000000E+00  0.00000000000E+00  0.10127949670E+04  0.10127949670E+04  0.00000000000E+00 0.  1.
         21   -1    0    0  501  503 -0.00000000000E+00 -0.00000000000E+00 -0.18764614807E+03  0.18764614807E+03  0.00000000000E+00 0.  1.
          6    1    1    2  501    0  0.50003517177E+02  0.12738344047E+02 -0.13376072477E+03  0.22468544374E+03  0.17300000000E+03 0.  1.
         -6    1    1    2    0  502 -0.50003517177E+02 -0.12738344047E+02  0.95890954370E+03  0.97575567133E+03  0.17300000000E+03 0.  1.
<mgrwt>
<rscale>  2 0.18053149E+03</rscale>
<asrwt>0</asrwt>
<pdfrwt beam="1">  1       21 0.15581461E+00 0.18053149E+03</pdfrwt>
<pdfrwt beam="2">  1       21 0.28868639E-01 0.18053149E+03</pdfrwt>
<totfact> 0.31387597E+03</totfact>
</mgrwt>
</event>
<event>
 4    1  0.4151607E+000  0.3803682E+03  0.7546771E-02  0.1050798E+00
         21   -1    0    0  503  502  0.00000000000E+00  0.00000000000E+00  0.37982540511E+03  0.37982540511E+03  0.00000000000E+00 0.  1.
         21   -1    0    0  501  503 -0.00000000000E+00 -0.00000000000E+00 -0.61329932186E+03  0.61329932186E+03  0.00000000000E+00 0.  1.
          6    1    1    2  501    0  0.11463326993E+03 -0.31876349488E+03 -0.42240077025E+03  0.56842093818E+03  0.17300000000E+03 0.  1.
         -6    1    1    2    0  502 -0.11463326993E+03  0.31876349488E+03  0.18892685351E+03  0.42470378880E+03  0.17300000000E+03 0.  1.
<mgrwt>
<rscale>  2 0.38036818E+03</rscale>
<asrwt>0</asrwt>
<pdfrwt beam="1">  1       21 0.58434678E-01 0.38036818E+03</pdfrwt>
<pdfrwt beam="2">  1       21 0.94353741E-01 0.38036818E+03</pdfrwt>
<totfact> 0.22960589E+03</totfact>
</mgrwt>
</event>
<event>
 4    1  0.4151607E+000  0.2110220E+03  0.7546771E-02  0.1140759E+00
         21   -1    0    0  503  502  0.00000000000E+00  0.00000000000E+00  0.12300402494E+03  0.12300402494E+03  0.00000000000E+00 0.  1.
         21   -1    0    0  501  503 -0.00000000000E+00 -0.00000000000E+00 -0.43225945259E+03  0.43225945259E+03  0.00000000000E+00 0.  1.
          6    1    1    2  501    0  0.10591099345E+03  0.58173515795E+02 -0.26654003090E+03  0.33996159275E+03  0.17300000000E+03 0.  1.
         -6    1    1    2    0  502 -0.10591099345E+03 -0.58173515795E+02 -0.42715396749E+02  0.21530188479E+03  0.17300000000E+03 0.  1.
<mgrwt>
<rscale>  2 0.21102203E+03</rscale>
<asrwt>0</asrwt>
<pdfrwt beam="1">  1       21 0.18923696E-01 0.21102203E+03</pdfrwt>
<pdfrwt beam="2">  1       21 0.66501455E-01 0.21102203E+03</pdfrwt>
<totfact> 0.52594087E+04</totfact>
</mgrwt>
</event>
<event>
 4    1  0.4151607E+000  0.3045530E+03  0.7546771E-02  0.1082987E+00
         21   -1    0    0  501  502  0.00000000000E+00  0.00000000000E+00  0.28270531654E+03  0.28270531654E+03  0.00000000000E+00 0. -1.
         21   -1    0    0  502  503 -0.00000000000E+00 -0.00000000000E+00 -0.43136023032E+03  0.43136023032E+03  0.00000000000E+00 0. -1.
          6    1    1    2  501    0 -0.31601522978E+02 -0.24864603508E+03  0.10036642276E+03  0.32066481851E+03  0.17300000000E+03 0. -1.
         -6    1    1    2    0  503  0.31601522978E+02  0.24864603508E+03 -0.24902133653E+03  0.39340072835E+03  0.17300000000E+03 0. -1.
<mgrwt>
<rscale>  2 0.30455296E+03</rscale>
<asrwt>0</asrwt>
<pdfrwt beam="1">  1       21 0.43493125E-01 0.30455296E+03</pdfrwt>
<pdfrwt beam="2">  1       21 0.66363113E-01 0.30455296E+03</pdfrwt>
<totfact> 0.99428070E+03</totfact>
</mgrwt>
</event>
<event>
 4    1  0.4151607E+000  0.2321016E+03  0.7546771E-02  0.1125169E+00
         21   -1    0    0  501  502  0.00000000000E+00  0.00000000000E+00  0.36537916232E+03  0.36537916232E+03  0.00000000000E+00 0. -1.
         21   -1    0    0  502  503 -0.00000000000E+00 -0.00000000000E+00 -0.19047343862E+03  0.19047343862E+03  0.00000000000E+00 0.  1.
          6    1    1    2  501    0 -0.15387672275E+03 -0.16251397185E+02  0.21955817769E+03  0.31949483111E+03  0.17300000000E+03 0. -1.
         -6    1    1    2    0  503  0.15387672275E+03  0.16251397185E+02 -0.44652453990E+02  0.23635776984E+03  0.17300000000E+03 0.  1.
<mgrwt>
<rscale>  2 0.23210160E+03</rscale>
<asrwt>0</asrwt>
<pdfrwt beam="1">  1       21 0.56212179E-01 0.23210160E+03</pdfrwt>
<pdfrwt beam="2">  1       21 0.29303606E-01 0.23210160E+03</pdfrwt>
<totfact> 0.32557511E+04</totfact>
</mgrwt>
</event>
<event>
 4    1  0.4151607E+000  0.4288554E+03  0.7546771E-02  0.1034222E+00
         21   -1    0    0  503  502  0.00000000000E+00  0.00000000000E+00  0.82235387993E+03  0.82235387993E+03  0.00000000000E+00 0. -1.
         21   -1    0    0  501  503 -0.00000000000E+00 -0.00000000000E+00 -0.52252890806E+03  0.52252890806E+03  0.00000000000E+00 0.  1.
          6    1    1    2  501    0 -0.12036434852E+03  0.37349752808E+03 -0.35865558513E+03  0.55906243714E+03  0.17300000000E+03 0.  1.
         -6    1    1    2    0  502  0.12036434852E+03 -0.37349752808E+03  0.65848055700E+03  0.78582035085E+03  0.17300000000E+03 0. -1.
<mgrwt>
<rscale>  2 0.42885543E+03</rscale>
<asrwt>0</asrwt>
<pdfrwt beam="1">  1       21 0.12651598E+00 0.42885543E+03</pdfrwt>
<pdfrwt beam="2">  1       21 0.80389062E-01 0.42885543E+03</pdfrwt>
<totfact> 0.53196585E+02</totfact>
</mgrwt>
</event>
<event>
 4    1  0.4151607E+000  0.1749108E+03  0.7546771E-02  0.1172821E+00
         21   -1    0    0  501  502  0.00000000000E+00  0.00000000000E+00  0.21638599848E+03  0.21638599848E+03  0.00000000000E+00 0. -1.
         21   -1    0    0  502  503 -0.00000000000E+00 -0.00000000000E+00 -0.37284717479E+03  0.37284717479E+03  0.00000000000E+00 0. -1.
          6    1    1    2  501    0  0.79479400644E+00 -0.25771038515E+02  0.15389958233E+03  0.23297823839E+03  0.17300000000E+03 0. -1.
         -6    1    1    2    0  503 -0.79479400644E+00  0.25771038515E+02 -0.31036075864E+03  0.35625493488E+03  0.17300000000E+03 0. -1.
<mgrwt>
<rscale>  2 0.17491077E+03</rscale>
<asrwt>0</asrwt>
<pdfrwt beam="1">  1       21 0.33290154E-01 0.17491077E+03</pdfrwt>
<pdfrwt beam="2">  1       21 0.57361104E-01 0.17491077E+03</pdfrwt>
<totfact> 0.25043225E+04</totfact>
</mgrwt>
</event>
<event>
 4    1  0.4151607E+000  0.1755367E+03  0.7546771E-02  0.1172194E+00
         21   -1    0    0  501  502  0.00000000000E+00  0.00000000000E+00  0.27927922078E+02  0.27927922078E+02  0.00000000000E+00 0. -1.
         21   -1    0    0  502  503 -0.00000000000E+00 -0.00000000000E+00 -0.14338306866E+04  0.14338306866E+04  0.00000000000E+00 0.  1.
          6    1    1    2  501    0  0.91270722726E+01  0.28298867489E+02 -0.35204063270E+03  0.39337734610E+03  0.17300000000E+03 0. -1.
         -6    1    1    2    0  503 -0.91270722726E+01 -0.28298867489E+02 -0.10538621319E+04  0.10683812626E+04  0.17300000000E+03 0.  1.
<mgrwt>
<rscale>  2 0.17553669E+03</rscale>
<asrwt>0</asrwt>
<pdfrwt beam="1">  1       21 0.42966040E-02 0.17553669E+03</pdfrwt>
<pdfrwt beam="2">  1       21 0.22058931E+00 0.17553669E+03</pdfrwt>
<totfact> 0.35120302E+04</totfact>
</mgrwt>
</event>
<event>
 4    1  0.4151607E+000  0.2441633E+03  0.7546771E-02  0.1117050E+00
         21   -1    0    0  501  502  0.00000000000E+00  0.00000000000E+00  0.14896670540E+04  0.14896670540E+04  0.00000000000E+00 0.  1.
         21   -1    0    0  502  503 -0.00000000000E+00 -0.00000000000E+00 -0.52312003662E+02  0.52312003662E+02  0.00000000000E+00 0.  1.
          6    1    1    2  501    0  0.16178228454E+03 -0.59272293813E+02  0.10924163297E+04  0.11193699790E+04  0.17300000000E+03 0.  1.
         -6    1    1    2    0  503 -0.16178228454E+03  0.59272293813E+02  0.34493872063E+03  0.42260907869E+03  0.17300000000E+03 0.  1.
<mgrwt>
<rscale>  2 0.24416329E+03</rscale>
<asrwt>0</asrwt>
<pdfrwt beam="1">  1       21 0.22917951E+00 0.24416329E+03</pdfrwt>
<pdfrwt beam="2">  1       21 0.80480017E-02 0.24416329E+03</pdfrwt>
<totfact> 0.10070558E+04</totfact>
</mgrwt>
</event>
<event>
 4    1  0.4151607E+000  0.1822670E+03  0.7546771E-02  0.1165627E+00
         21   -1    0    0  503  502  0.00000000000E+00  0.00000000000E+00  0.62287465208E+03  0.62287465208E+03  0.00000000000E+00 0. -1.
         21   -1    0    0  501  503 -0.00000000000E+00 -0.00000000000E+00 -0.54397495113E+02  0.54397495113E+02  0.00000000000E+00 0. -1.
          6    1    1    2  501    0  0.36085732815E+02  0.44610393191E+02  0.23692062619E+03  0.29891913691E+03  0.17300000000E+03 0. -1.
         -6    1    1    2    0  502 -0.36085732815E+02 -0.44610393191E+02  0.33155653078E+03  0.37835301029E+03  0.17300000000E+03 0. -1.
<mgrwt>
<rscale>  2 0.18226702E+03</rscale>
<asrwt>0</asrwt>
<pdfrwt beam="1">  1       21 0.95826865E-01 0.18226702E+03</pdfrwt>
<pdfrwt beam="2">  1       21 0.83688458E-02 0.18226702E+03</pdfrwt>
<totfact> 0.10112184E+05</totfact>
</mgrwt>
</event>
<event>
 4    1  0.4151607E+000  0.2026903E+03  0.7546771E-02  0.1147489E+00
         21   -1    0    0  501  502  0.00000000000E+00  0.00000000000E+00  0.92591231786E+03  0.92591231786E+03  0.00000000000E+00 0.  1.
         21   -1    0    0  502  503 -0.00000000000E+00 -0.00000000000E+00 -0.15888295390E+03  0.15888295390E+03  0.00000000000E+00 0. -1.
          6    1    1    2  501    0  0.81268085093E+02 -0.67452754500E+02  0.84398868954E+03  0.86798633850E+03  0.17300000000E+03 0.  1.
         -6    1    1    2    0  503 -0.81268085093E+02  0.67452754500E+02 -0.76959325586E+02  0.21680893325E+03  0.17300000000E+03 0. -1.
<mgrwt>
<rscale>  2 0.20269034E+03</rscale>
<asrwt>0</asrwt>
<pdfrwt beam="1">  1       21 0.14244805E+00 0.20269034E+03</pdfrwt>
<pdfrwt beam="2">  1       21 0.24443532E-01 0.20269034E+03</pdfrwt>
<totfact> 0.53648768E+03</totfact>
</mgrwt>
</event>
<event>
 4    1  0.4151607E+000  0.2289181E+03  0.7546771E-02  0.1127404E+00
         21   -1    0    0  503  502  0.00000000000E+00  0.00000000000E+00  0.58134719179E+02  0.58134719179E+02  0.00000000000E+00 0.  1.
         21   -1    0    0  501  503 -0.00000000000E+00 -0.00000000000E+00 -0.13036464007E+04  0.13036464007E+04  0.00000000000E+00 0.  1.
          6    1    1    2  501    0 -0.83316764369E+02 -0.12463074717E+03 -0.10009679312E+04  0.10268107448E+04  0.17300000000E+03 0.  1.
         -6    1    1    2    0  502  0.83316764369E+02  0.12463074717E+03 -0.24454375040E+03  0.33497037515E+03  0.17300000000E+03 0.  1.
<mgrwt>
<rscale>  2 0.22891812E+03</rscale>
<asrwt>0</asrwt>
<pdfrwt beam="1">  1       21 0.89438039E-02 0.22891812E+03</pdfrwt>
<pdfrwt beam="2">  1       21 0.20056096E+00 0.22891812E+03</pdfrwt>
<totfact> 0.12789060E+04</totfact>
</mgrwt>
</event>
<event>
 4    1  0.4151607E+000  0.2201151E+03  0.7546771E-02  0.1133797E+00
         21   -1    0    0  501  502  0.00000000000E+00  0.00000000000E+00  0.23167475847E+03  0.23167475847E+03  0.00000000000E+00 0.  1.
         21   -1    0    0  502  503 -0.00000000000E+00 -0.00000000000E+00 -0.20913466877E+03  0.20913466877E+03  0.00000000000E+00 0.  1.
          6    1    1    2  501    0 -0.13209090727E+03  0.32766854359E+02  0.12012194890E+02  0.22044266228E+03  0.17300000000E+03 0.  1.
         -6    1    1    2    0  503  0.13209090727E+03 -0.32766854359E+02  0.10527894807E+02  0.22036676496E+03  0.17300000000E+03 0.  1.
<mgrwt>
<rscale>  2 0.22011514E+03</rscale>
<asrwt>0</asrwt>
<pdfrwt beam="1">  1       21 0.35642271E-01 0.22011514E+03</pdfrwt>
<pdfrwt beam="2">  1       21 0.32174564E-01 0.22011514E+03</pdfrwt>
<totfact> 0.69695517E+04</totfact>
</mgrwt>
</event>
<event>
 4    1  0.4151607E+000  0.1965430E+03  0.7546771E-02  0.1152689E+00
         21   -1    0    0  501  502  0.00000000000E+00  0.00000000000E+00  0.12282405617E+03  0.12282405617E+03  0.00000000000E+00 0.  1.
         21   -1    0    0  502  503 -0.00000000000E+00 -0.00000000000E+00 -0.32091922723E+03  0.32091922723E+03  0.00000000000E+00 0.  1.
          6    1    1    2  501    0 -0.40192954317E+02  0.84170563707E+02 -0.67687878308E+02  0.20787209106E+03  0.17300000000E+03 0.  1.
         -6    1    1    2    0  503  0.40192954317E+02 -0.84170563707E+02 -0.13040729275E+03  0.23587119234E+03  0.17300000000E+03 0.  1.
<mgrwt>
<rscale>  2 0.19654302E+03</rscale>
<asrwt>0</asrwt>
<pdfrwt beam="1">  1       21 0.18896009E-01 0.19654302E+03</pdfrwt>
<pdfrwt beam="2">  1       21 0.49372189E-01 0.19654302E+03</pdfrwt>
<totfact> 0.10022327E+05</totfact>
</mgrwt>
</event>
<event>
 4    1  0.4151607E+000  0.1980932E+03  0.7546771E-02  0.1151358E+00
         21   -1    0    0  501  502  0.00000000000E+00  0.00000000000E+00  0.55168137214E+03  0.55168137214E+03  0.00000000000E+00 0.  1.
         21   -1    0    0  502  503 -0.00000000000E+00 -0.00000000000E+00 -0.93848274486E+02  0.93848274486E+02  0.00000000000E+00 0. -1.
          6    1    1    2  501    0  0.94713171771E+02  0.18474768330E+02  0.38772151649E+03  0.43539508073E+03  0.17300000000E+03 0.  1.
         -6    1    1    2    0  503 -0.94713171771E+02 -0.18474768330E+02  0.70111581161E+02  0.21013456590E+03  0.17300000000E+03 0. -1.
<mgrwt>
<rscale>  2 0.19809316E+03</rscale>
<asrwt>0</asrwt>
<pdfrwt beam="1">  1       21 0.84874055E-01 0.19809316E+03</pdfrwt>
<pdfrwt beam="2">  1       21 0.14438196E-01 0.19809316E+03</pdfrwt>
<totfact> 0.50417384E+04</totfact>
</mgrwt>
</event>
<event>
 4    1  0.4151607E+000  0.2521925E+03  0.7546771E-02  0.1111927E+00
         21   -1    0    0  503  502  0.00000000000E+00  0.00000000000E+00  0.15372010521E+03  0.15372010521E+03  0.00000000000E+00 0.  1.
         21   -1    0    0  501  503 -0.00000000000E+00 -0.00000000000E+00 -0.42323694632E+03  0.42323694632E+03  0.00000000000E+00 0.  1.
          6    1    1    2  501    0  0.18220351146E+03 -0.21769617934E+02 -0.17795832959E+03  0.30865871593E+03  0.17300000000E+03 0.  1.
         -6    1    1    2    0  502 -0.18220351146E+03  0.21769617934E+02 -0.91558511520E+02  0.26829833560E+03  0.17300000000E+03 0.  1.
<mgrwt>
<rscale>  2 0.25219246E+03</rscale>
<asrwt>0</asrwt>
<pdfrwt beam="1">  1       21 0.23649247E-01 0.25219246E+03</pdfrwt>
<pdfrwt beam="2">  1       21 0.65113376E-01 0.25219246E+03</pdfrwt>
<totfact> 0.35518427E+04</totfact>
</mgrwt>
</event>
<event>
 4    1  0.4151607E+000  0.1897098E+03  0.7546771E-02  0.1158723E+00
         21   -1    0    0  501  502  0.00000000000E+00  0.00000000000E+00  0.44944535217E+02  0.44944535217E+02  0.00000000000E+00 0. -1.
         21   -1    0    0  502  503 -0.00000000000E+00 -0.00000000000E+00 -0.10309606078E+04  0.10309606078E+04  0.00000000000E+00 0. -1.
          6    1    1    2  501    0  0.49490725691E+02  0.60095660417E+02 -0.23880808385E+03  0.30499036254E+03  0.17300000000E+03 0. -1.
         -6    1    1    2    0  503 -0.49490725691E+02 -0.60095660417E+02 -0.74720798874E+03  0.77091478048E+03  0.17300000000E+03 0. -1.
<mgrwt>
<rscale>  2 0.18970983E+03</rscale>
<asrwt>0</asrwt>
<pdfrwt beam="1">  1       21 0.69145438E-02 0.18970983E+03</pdfrwt>
<pdfrwt beam="2">  1       21 0.15860933E+00 0.18970983E+03</pdfrwt>
<totfact> 0.39884840E+04</totfact>
</mgrwt>
</event>
<event>
 4    1  0.4151607E+000  0.1976848E+03  0.7546771E-02  0.1151707E+00
         21   -1    0    0  503  502  0.00000000000E+00  0.00000000000E+00  0.49830420968E+03  0.49830420968E+03  0.00000000000E+00 0.  1.
         21   -1    0    0  501  503 -0.00000000000E+00 -0.00000000000E+00 -0.25713910610E+03  0.25713910610E+03  0.00000000000E+00 0.  1.
          6    1    1    2  501    0  0.11928312977E+02 -0.94910376685E+02 -0.19431394734E+03  0.27719519185E+03  0.17300000000E+03 0.  1.
         -6    1    1    2    0  502 -0.11928312977E+02  0.94910376685E+02  0.43547905093E+03  0.47824812394E+03  0.17300000000E+03 0.  1.
<mgrwt>
<rscale>  2 0.19768476E+03</rscale>
<asrwt>0</asrwt>
<pdfrwt beam="1">  1       21 0.76662186E-01 0.19768476E+03</pdfrwt>
<pdfrwt beam="2">  1       21 0.39559863E-01 0.19768476E+03</pdfrwt>
<totfact> 0.92917117E+03</totfact>
</mgrwt>
</event>
<event>
 4    1  0.4151607E+000  0.2437361E+03  0.7546771E-02  0.1117329E+00
         21   -1    0    0  503  502  0.00000000000E+00  0.00000000000E+00  0.34428254892E+03  0.34428254892E+03  0.00000000000E+00 0. -1.
         21   -1    0    0  501  503 -0.00000000000E+00 -0.00000000000E+00 -0.78247416250E+03  0.78247416250E+03  0.00000000000E+00 0. -1.
          6    1    1    2  501    0  0.98953392610E+02 -0.14030871469E+03 -0.71649110137E+03  0.75681358846E+03  0.17300000000E+03 0. -1.
         -6    1    1    2    0  502 -0.98953392610E+02  0.14030871469E+03  0.27829948779E+03  0.36994312297E+03  0.17300000000E+03 0. -1.
<mgrwt>
<rscale>  2 0.24373615E+03</rscale>
<asrwt>0</asrwt>
<pdfrwt beam="1">  1       21 0.52966547E-01 0.24373615E+03</pdfrwt>
<pdfrwt beam="2">  1       21 0.12038064E+00 0.24373615E+03</pdfrwt>
<totfact> 0.16935106E+03</totfact>
</mgrwt>
</event>
<event>
 4    1  0.4151607E+000  0.2257948E+03  0.7546771E-02  0.1129635E+00
         21   -1    0    0  501  502  0.00000000000E+00  0.00000000000E+00  0.55475408805E+02  0.55475408805E+02  0.00000000000E+00 0. -1.
         21   -1    0    0  502  503 -0.00000000000E+00 -0.00000000000E+00 -0.92866390719E+03  0.92866390719E+03  0.00000000000E+00 0. -1.
          6    1    1    2  501    0  0.14441491055E+03 -0.14094050799E+02 -0.38646367933E+03  0.44759075515E+03  0.17300000000E+03 0. -1.
         -6    1    1    2    0  503 -0.14441491055E+03  0.14094050799E+02 -0.48672481906E+03  0.53654856085E+03  0.17300000000E+03 0. -1.
<mgrwt>
<rscale>  2 0.22579484E+03</rscale>
<asrwt>0</asrwt>
<pdfrwt beam="1">  1       21 0.85346782E-02 0.22579484E+03</pdfrwt>
<pdfrwt beam="2">  1       21 0.14287137E+00 0.22579484E+03</pdfrwt>
<totfact> 0.35707749E+04</totfact>
</mgrwt>
</event>
<event>
 4    1  0.4151607E+000  0.1849462E+03  0.7546771E-02  0.1163100E+00
         21   -1    0    0  501  502  0.00000000000E+00  0.00000000000E+00  0.49223701150E+02  0.49223701150E+02  0.00000000000E+00 0. -1.
         21   -1    0    0  502  503 -0.00000000000E+00 -0.00000000000E+00 -0.70231267300E+03  0.70231267300E+03  0.00000000000E+00 0. -1.
          6    1    1    2  501    0 -0.50026432784E+01 -0.65200288498E+02 -0.28791602879E+03  0.34219985928E+03  0.17300000000E+03 0. -1.
         -6    1    1    2    0  503  0.50026432784E+01  0.65200288498E+02 -0.36517294306E+03  0.40933651487E+03  0.17300000000E+03 0. -1.
<mgrwt>
<rscale>  2 0.18494622E+03</rscale>
<asrwt>0</asrwt>
<pdfrwt beam="1">  1       21 0.75728773E-02 0.18494622E+03</pdfrwt>
<pdfrwt beam="2">  1       21 0.10804810E+00 0.18494622E+03</pdfrwt>
<totfact> 0.90326197E+04</totfact>
</mgrwt>
</event>
<event>
 4    1  0.4151607E+000  0.1820090E+03  0.7546771E-02  0.1165873E+00
         21   -1    0    0  503  502  0.00000000000E+00  0.00000000000E+00  0.18647204846E+03  0.18647204846E+03  0.00000000000E+00 0.  1.
         21   -1    0    0  501  503 -0.00000000000E+00 -0.00000000000E+00 -0.49238959789E+03  0.49238959789E+03  0.00000000000E+00 0.  1.
          6    1    1    2  501    0  0.40166565924E+02  0.39811170222E+02 -0.42433425231E+03  0.46172160440E+03  0.17300000000E+03 0.  1.
         -6    1    1    2    0  502 -0.40166565924E+02 -0.39811170222E+02  0.11841670288E+03  0.21714004194E+03  0.17300000000E+03 0.  1.
<mgrwt>
<rscale>  2 0.18200902E+03</rscale>
<asrwt>0</asrwt>
<pdfrwt beam="1">  1       21 0.28688007E-01 0.18200902E+03</pdfrwt>
<pdfrwt beam="2">  1       21 0.75752246E-01 0.18200902E+03</pdfrwt>
<totfact> 0.18192190E+04</totfact>
</mgrwt>
</event>
<event>
 4    1  0.4151607E+000  0.1758380E+03  0.7546771E-02  0.1171893E+00
         21   -1    0    0  503  502  0.00000000000E+00  0.00000000000E+00  0.10802125782E+04  0.10802125782E+04  0.00000000000E+00 0. -1.
         21   -1    0    0  501  503 -0.00000000000E+00 -0.00000000000E+00 -0.44092276688E+02  0.44092276688E+02  0.00000000000E+00 0. -1.
          6    1    1    2  501    0  0.85751291065E+01 -0.30273017437E+02  0.18508869643E+03  0.25529750091E+03  0.17300000000E+03 0. -1.
         -6    1    1    2    0  502 -0.85751291065E+01  0.30273017437E+02  0.85103160510E+03  0.86900735400E+03  0.17300000000E+03 0. -1.
<mgrwt>
<rscale>  2 0.17583796E+03</rscale>
<asrwt>0</asrwt>
<pdfrwt beam="1">  1       21 0.16618653E+00 0.17583796E+03</pdfrwt>
<pdfrwt beam="2">  1       21 0.67834280E-02 0.17583796E+03</pdfrwt>
<totfact> 0.36651115E+04</totfact>
</mgrwt>
</event>
<event>
 4    1  0.4151607E+000  0.1826883E+03  0.7546771E-02  0.1165226E+00
         21   -1    0    0  503  502  0.00000000000E+00  0.00000000000E+00  0.19896100664E+03  0.19896100664E+03  0.00000000000E+00 0. -1.
         21   -1    0    0  501  503 -0.00000000000E+00 -0.00000000000E+00 -0.16778419701E+03  0.16778419701E+03  0.00000000000E+00 0. -1.
          6    1    1    2  501    0 -0.55683150924E+02  0.18584729078E+02  0.12838508495E+02  0.18313883464E+03  0.17300000000E+03 0. -1.
         -6    1    1    2    0  502  0.55683150924E+02 -0.18584729078E+02  0.18338301132E+02  0.18360636901E+03  0.17300000000E+03 0. -1.
<mgrwt>
<rscale>  2 0.18268827E+03</rscale>
<asrwt>0</asrwt>
<pdfrwt beam="1">  1       21 0.30609386E-01 0.18268827E+03</pdfrwt>
<pdfrwt beam="2">  1       21 0.25812953E-01 0.18268827E+03</pdfrwt>
<totfact> 0.14645405E+05</totfact>
</mgrwt>
</event>
<event>
 4    1  0.4151607E+000  0.1827132E+03  0.7546771E-02  0.1165203E+00
         21   -1    0    0  503  502  0.00000000000E+00  0.00000000000E+00  0.12384545882E+04  0.12384545882E+04  0.00000000000E+00 0.  1.
         21   -1    0    0  501  503 -0.00000000000E+00 -0.00000000000E+00 -0.27687397735E+02  0.27687397735E+02  0.00000000000E+00 0.  1.
          6    1    1    2  501    0  0.41145326920E+02  0.41978099811E+02  0.70825914384E+03  0.73144727330E+03  0.17300000000E+03 0.  1.
         -6    1    1    2    0  502 -0.41145326920E+02 -0.41978099811E+02  0.50250804659E+03  0.53469471260E+03  0.17300000000E+03 0.  1.
<mgrwt>
<rscale>  2 0.18271316E+03</rscale>
<asrwt>0</asrwt>
<pdfrwt beam="1">  1       21 0.19053143E+00 0.18271316E+03</pdfrwt>
<pdfrwt beam="2">  1       21 0.42596006E-02 0.18271316E+03</pdfrwt>
<totfact> 0.54892148E+04</totfact>
</mgrwt>
</event>
<event>
 4    1  0.4151607E+000  0.1923147E+03  0.7546771E-02  0.1156390E+00
         21   -1    0    0  503  502  0.00000000000E+00  0.00000000000E+00  0.38715151162E+02  0.38715151162E+02  0.00000000000E+00 0. -1.
         21   -1    0    0  501  503 -0.00000000000E+00 -0.00000000000E+00 -0.12493427098E+04  0.12493427098E+04  0.00000000000E+00 0. -1.
          6    1    1    2  501    0 -0.72637415398E+02 -0.42186884884E+02 -0.91775134101E+03  0.93768462252E+03  0.17300000000E+03 0. -1.
         -6    1    1    2    0  502  0.72637415398E+02  0.42186884884E+02 -0.29287621765E+03  0.35037323847E+03  0.17300000000E+03 0. -1.
<mgrwt>
<rscale>  2 0.19231466E+03</rscale>
<asrwt>0</asrwt>
<pdfrwt beam="1">  1       21 0.59561776E-02 0.19231466E+03</pdfrwt>
<pdfrwt beam="2">  1       21 0.19220656E+00 0.19231466E+03</pdfrwt>
<totfact> 0.30127883E+04</totfact>
</mgrwt>
</event>
<event>
 4    1  0.4151607E+000  0.1774812E+03  0.7546771E-02  0.1170263E+00
         21   -1    0    0  503  502  0.00000000000E+00  0.00000000000E+00  0.14664941514E+03  0.14664941514E+03  0.00000000000E+00 0. -1.
         21   -1    0    0  501  503 -0.00000000000E+00 -0.00000000000E+00 -0.32910447911E+03  0.32910447911E+03  0.00000000000E+00 0. -1.
          6    1    1    2  501    0  0.38984183783E+02 -0.71272499658E+01 -0.23142060053E+03  0.29164200422E+03  0.17300000000E+03 0.  1.
         -6    1    1    2    0  502 -0.38984183783E+02  0.71272499658E+01  0.48965536559E+02  0.18411189002E+03  0.17300000000E+03 0.  1.
<mgrwt>
<rscale>  2 0.17748117E+03</rscale>
<asrwt>0</asrwt>
<pdfrwt beam="1">  1       21 0.22561449E-01 0.17748117E+03</pdfrwt>
<pdfrwt beam="2">  1       21 0.50631458E-01 0.17748117E+03</pdfrwt>
<totfact> 0.68771866E+04</totfact>
</mgrwt>
</event>
<event>
 4    1  0.4151607E+000  0.1972496E+03  0.7546771E-02  0.1152081E+00
         21   -1    0    0  503  502  0.00000000000E+00  0.00000000000E+00  0.10765158980E+04  0.10765158980E+04  0.00000000000E+00 0. -1.
         21   -1    0    0  501  503 -0.00000000000E+00 -0.00000000000E+00 -0.36810329838E+02  0.36810329838E+02  0.00000000000E+00 0. -1.
          6    1    1    2  501    0  0.65697598544E+02 -0.68280468270E+02  0.59486212073E+03  0.62671232594E+03  0.17300000000E+03 0. -1.
         -6    1    1    2    0  502 -0.65697598544E+02  0.68280468270E+02  0.44484344744E+03  0.48661390191E+03  0.17300000000E+03 0. -1.
<mgrwt>
<rscale>  2 0.19724958E+03</rscale>
<asrwt>0</asrwt>
<pdfrwt beam="1">  1       21 0.16561781E+00 0.19724958E+03</pdfrwt>
<pdfrwt beam="2">  1       21 0.56631285E-02 0.19724958E+03</pdfrwt>
<totfact> 0.49749019E+04</totfact>
</mgrwt>
</event>
<event>
 4    1  0.4151607E+000  0.2799901E+03  0.7546771E-02  0.1095694E+00
         21   -1    0    0  503  502  0.00000000000E+00  0.00000000000E+00  0.27418431039E+03  0.27418431039E+03  0.00000000000E+00 0.  1.
         21   -1    0    0  501  503 -0.00000000000E+00 -0.00000000000E+00 -0.91148089266E+03  0.91148089266E+03  0.00000000000E+00 0. -1.
          6    1    1    2  501    0  0.21702403593E+03  0.36959685485E+02 -0.80977494486E+03  0.85681381399E+03  0.17300000000E+03 0. -1.
         -6    1    1    2    0  502 -0.21702403593E+03 -0.36959685485E+02  0.17247836259E+03  0.32885138906E+03  0.17300000000E+03 0.  1.
<mgrwt>
<rscale>  2 0.27999009E+03</rscale>
<asrwt>0</asrwt>
<pdfrwt beam="1">  1       21 0.42182201E-01 0.27999009E+03</pdfrwt>
<pdfrwt beam="2">  1       21 0.14022783E+00 0.27999009E+03</pdfrwt>
<totfact> 0.17963093E+03</totfact>
</mgrwt>
</event>
<event>
 4    1  0.4151607E+000  0.2037960E+03  0.7546771E-02  0.1146575E+00
         21   -1    0    0  501  502  0.00000000000E+00  0.00000000000E+00  0.87296413821E+02  0.87296413821E+02  0.00000000000E+00 0. -1.
         21   -1    0    0  502  503 -0.00000000000E+00 -0.00000000000E+00 -0.47612400823E+03  0.47612400823E+03  0.00000000000E+00 0. -1.
          6    1    1    2  501    0 -0.10052274122E+03  0.38716651526E+02 -0.20212192853E+03  0.28702974515E+03  0.17300000000E+03 0. -1.
         -6    1    1    2    0  503  0.10052274122E+03 -0.38716651526E+02 -0.18670566588E+03  0.27639067690E+03  0.17300000000E+03 0. -1.
<mgrwt>
<rscale>  2 0.20379598E+03</rscale>
<asrwt>0</asrwt>
<pdfrwt beam="1">  1       21 0.13430218E-01 0.20379598E+03</pdfrwt>
<pdfrwt beam="2">  1       21 0.73249847E-01 0.20379598E+03</pdfrwt>
<totfact> 0.79932677E+04</totfact>
</mgrwt>
</event>
<event>
 4    1  0.4151607E+000  0.2110980E+03  0.7546771E-02  0.1140699E+00
         21   -1    0    0  501  502  0.00000000000E+00  0.00000000000E+00  0.39061190985E+02  0.39061190985E+02  0.00000000000E+00 0. -1.
         21   -1    0    0  502  503 -0.00000000000E+00 -0.00000000000E+00 -0.12843458993E+04  0.12843458993E+04  0.00000000000E+00 0. -1.
          6    1    1    2  501    0 -0.95891862549E+02 -0.73743699822E+02 -0.40145282522E+03  0.45357111178E+03  0.17300000000E+03 0. -1.
         -6    1    1    2    0  503  0.95891862549E+02  0.73743699822E+02 -0.84383188305E+03  0.86983597846E+03  0.17300000000E+03 0. -1.
<mgrwt>
<rscale>  2 0.21109804E+03</rscale>
<asrwt>0</asrwt>
<pdfrwt beam="1">  1       21 0.60094142E-02 0.21109804E+03</pdfrwt>
<pdfrwt beam="2">  1       21 0.19759167E+00 0.21109804E+03</pdfrwt>
<totfact> 0.27009112E+04</totfact>
</mgrwt>
</event>
<event>
 4    1  0.4151607E+000  0.2023058E+03  0.7546771E-02  0.1147808E+00
         21   -1    0    0  501  502  0.00000000000E+00  0.00000000000E+00  0.59813807933E+03  0.59813807933E+03  0.00000000000E+00 0. -1.
         21   -1    0    0  502  503 -0.00000000000E+00 -0.00000000000E+00 -0.78190952596E+02  0.78190952596E+02  0.00000000000E+00 0. -1.
          6    1    1    2  501    0 -0.10426908327E+03 -0.11250687454E+02  0.37948412432E+03  0.43004164950E+03  0.17300000000E+03 0.  1.
         -6    1    1    2    0  503  0.10426908327E+03  0.11250687454E+02  0.14046300241E+03  0.24628738243E+03  0.17300000000E+03 0.  1.
<mgrwt>
<rscale>  2 0.20230576E+03</rscale>
<asrwt>0</asrwt>
<pdfrwt beam="1">  1       21 0.92021240E-01 0.20230576E+03</pdfrwt>
<pdfrwt beam="2">  1       21 0.12029378E-01 0.20230576E+03</pdfrwt>
<totfact> 0.58023494E+04</totfact>
</mgrwt>
</event>
<event>
 4    1  0.4151607E+000  0.1796078E+03  0.7546771E-02  0.1168183E+00
         21   -1    0    0  501  502  0.00000000000E+00  0.00000000000E+00  0.32523023740E+03  0.32523023740E+03  0.00000000000E+00 0. -1.
         21   -1    0    0  502  503 -0.00000000000E+00 -0.00000000000E+00 -0.99237121416E+02  0.99237121416E+02  0.00000000000E+00 0. -1.
          6    1    1    2  501    0  0.44231887620E+02  0.19325947233E+02  0.11771614691E+03  0.21474646298E+03  0.17300000000E+03 0. -1.
         -6    1    1    2    0  503 -0.44231887620E+02 -0.19325947233E+02  0.10827696908E+03  0.20972089584E+03  0.17300000000E+03 0. -1.
<mgrwt>
<rscale>  2 0.17960777E+03</rscale>
<asrwt>0</asrwt>
<pdfrwt beam="1">  1       21 0.50035421E-01 0.17960777E+03</pdfrwt>
<pdfrwt beam="2">  1       21 0.15267250E-01 0.17960777E+03</pdfrwt>
<totfact> 0.14515319E+05</totfact>
</mgrwt>
</event>
<event>
 4    1  0.4151607E+000  0.1811405E+03  0.7546771E-02  0.1166704E+00
         21   -1    0    0  501  502  0.00000000000E+00  0.00000000000E+00  0.76445625781E+03  0.76445625781E+03  0.00000000000E+00 0. -1.
         21   -1    0    0  502  503 -0.00000000000E+00 -0.00000000000E+00 -0.58439499928E+02  0.58439499928E+02  0.00000000000E+00 0. -1.
          6    1    1    2  501    0 -0.51440442079E+02  0.15386856722E+02  0.56502729070E+03  0.59335294191E+03  0.17300000000E+03 0. -1.
         -6    1    1    2    0  503  0.51440442079E+02 -0.15386856722E+02  0.14098946719E+03  0.22954281583E+03  0.17300000000E+03 0. -1.
<mgrwt>
<rscale>  2 0.18114048E+03</rscale>
<asrwt>0</asrwt>
<pdfrwt beam="1">  1       21 0.11760865E+00 0.18114048E+03</pdfrwt>
<pdfrwt beam="2">  1       21 0.89906928E-02 0.18114048E+03</pdfrwt>
<totfact> 0.54628704E+04</totfact>
</mgrwt>
</event>
<event>
 4    1  0.4151607E+000  0.2020859E+03  0.7546771E-02  0.1147991E+00
         21   -1    0    0  503  502  0.00000000000E+00  0.00000000000E+00  0.57089602047E+03  0.57089602047E+03  0.00000000000E+00 0.  1.
         21   -1    0    0  501  503 -0.00000000000E+00 -0.00000000000E+00 -0.71896166137E+02  0.71896166137E+02  0.00000000000E+00 0. -1.
          6    1    1    2  501    0 -0.10441991014E+03 -0.24918643184E+01  0.27229693131E+03  0.33909341754E+03  0.17300000000E+03 0. -1.
         -6    1    1    2    0  502  0.10441991014E+03  0.24918643184E+01  0.22670292303E+03  0.30369876906E+03  0.17300000000E+03 0.  1.
<mgrwt>
<rscale>  2 0.20208594E+03</rscale>
<asrwt>0</asrwt>
<pdfrwt beam="1">  1       21 0.87830154E-01 0.20208594E+03</pdfrwt>
<pdfrwt beam="2">  1       21 0.11060949E-01 0.20208594E+03</pdfrwt>
<totfact> 0.75103573E+04</totfact>
</mgrwt>
</event>
<event>
 4    1  0.4151607E+000  0.1961646E+03  0.7546771E-02  0.1153016E+00
         21   -1    0    0  503  502  0.00000000000E+00  0.00000000000E+00  0.48169290924E+03  0.48169290924E+03  0.00000000000E+00 0. -1.
         21   -1    0    0  501  503 -0.00000000000E+00 -0.00000000000E+00 -0.87287925873E+02  0.87287925873E+02  0.00000000000E+00 0. -1.
          6    1    1    2  501    0  0.92354791751E+02  0.47075610611E+01  0.11435870520E+03  0.22706492936E+03  0.17300000000E+03 0. -1.
         -6    1    1    2    0  502 -0.92354791751E+02 -0.47075610611E+01  0.28004627816E+03  0.34191590575E+03  0.17300000000E+03 0. -1.
<mgrwt>
<rscale>  2 0.19616465E+03</rscale>
<asrwt>0</asrwt>
<pdfrwt beam="1">  1       21 0.74106600E-01 0.19616465E+03</pdfrwt>
<pdfrwt beam="2">  1       21 0.13428912E-01 0.19616465E+03</pdfrwt>
<totfact> 0.78168312E+04</totfact>
</mgrwt>
</event>
<event>
 4    1  0.4151607E+000  0.2310679E+03  0.7546771E-02  0.1125890E+00
         21   -1    0    0  501  502  0.00000000000E+00  0.00000000000E+00  0.57771842708E+02  0.57771842708E+02  0.00000000000E+00 0. -1.
         21   -1    0    0  502  503 -0.00000000000E+00 -0.00000000000E+00 -0.12881354439E+04  0.12881354439E+04  0.00000000000E+00 0.  1.
          6    1    1    2  501    0 -0.15317523744E+03  0.85495165592E+00 -0.25748076016E+03  0.34596058469E+03  0.17300000000E+03 0. -1.
         -6    1    1    2    0  503  0.15317523744E+03 -0.85495165592E+00 -0.97288284107E+03  0.99994670196E+03  0.17300000000E+03 0.  1.
<mgrwt>
<rscale>  2 0.23106792E+03</rscale>
<asrwt>0</asrwt>
<pdfrwt beam="1">  1       21 0.88879755E-02 0.23106792E+03</pdfrwt>
<pdfrwt beam="2">  1       21 0.19817469E+00 0.23106792E+03</pdfrwt>
<totfact> 0.13379394E+04</totfact>
</mgrwt>
</event>
<event>
 4    1  0.4151607E+000  0.1822274E+03  0.7546771E-02  0.1165665E+00
         21   -1    0    0  501  502  0.00000000000E+00  0.00000000000E+00  0.72122367416E+03  0.72122367416E+03  0.00000000000E+00 0. -1.
         21   -1    0    0  502  503 -0.00000000000E+00 -0.00000000000E+00 -0.54164472827E+02  0.54164472827E+02  0.00000000000E+00 0. -1.
          6    1    1    2  501    0 -0.20912840077E+02  0.53296286952E+02  0.48365921623E+03  0.51684918354E+03  0.17300000000E+03 0. -1.
         -6    1    1    2    0  503  0.20912840077E+02 -0.53296286952E+02  0.18339998509E+03  0.25853896344E+03  0.17300000000E+03 0. -1.
<mgrwt>
<rscale>  2 0.18222744E+03</rscale>
<asrwt>0</asrwt>
<pdfrwt beam="1">  1       21 0.11095748E+00 0.18222744E+03</pdfrwt>
<pdfrwt beam="2">  1       21 0.83329964E-02 0.18222744E+03</pdfrwt>
<totfact> 0.71826037E+04</totfact>
</mgrwt>
</event>
<event>
 4    1  0.4151607E+000  0.1802527E+03  0.7546771E-02  0.1167559E+00
         21   -1    0    0  503  502  0.00000000000E+00  0.00000000000E+00  0.42109250317E+03  0.42109250317E+03  0.00000000000E+00 0. -1.
         21   -1    0    0  501  503 -0.00000000000E+00 -0.00000000000E+00 -0.10626020631E+03  0.10626020631E+03  0.00000000000E+00 0. -1.
          6    1    1    2  501    0  0.14224594136E+02 -0.48576867408E+02  0.19427994853E+02  0.18129671290E+03  0.17300000000E+03 0. -1.
         -6    1    1    2    0  502 -0.14224594136E+02  0.48576867408E+02  0.29540430201E+03  0.34605599658E+03  0.17300000000E+03 0. -1.
<mgrwt>
<rscale>  2 0.18025274E+03</rscale>
<asrwt>0</asrwt>
<pdfrwt beam="1">  1       21 0.64783461E-01 0.18025274E+03</pdfrwt>
<pdfrwt beam="2">  1       21 0.16347724E-01 0.18025274E+03</pdfrwt>
<totfact> 0.73980281E+04</totfact>
</mgrwt>
</event>
<event>
 4    1  0.4151607E+000  0.1851347E+03  0.7546771E-02  0.1162924E+00
         21   -1    0    0  503  502  0.00000000000E+00  0.00000000000E+00  0.35397573293E+03  0.35397573293E+03  0.00000000000E+00 0.  1.
         21   -1    0    0  501  503 -0.00000000000E+00 -0.00000000000E+00 -0.11683369399E+03  0.11683369399E+03  0.00000000000E+00 0.  1.
          6    1    1    2  501    0  0.26529940799E+02 -0.60349123736E+02  0.21160674147E+02  0.18634008861E+03  0.17300000000E+03 0.  1.
         -6    1    1    2    0  502 -0.26529940799E+02  0.60349123736E+02  0.21598136480E+03  0.28446933830E+03  0.17300000000E+03 0.  1.
<mgrwt>
<rscale>  2 0.18513469E+03</rscale>
<asrwt>0</asrwt>
<pdfrwt beam="1">  1       21 0.54457805E-01 0.18513469E+03</pdfrwt>
<pdfrwt beam="2">  1       21 0.17974415E-01 0.18513469E+03</pdfrwt>
<totfact> 0.89926998E+04</totfact>
</mgrwt>
</event>
<event>
 4    1  0.4151607E+000  0.2939476E+03  0.7546771E-02  0.1088306E+00
         21   -1    0    0  501  502  0.00000000000E+00  0.00000000000E+00  0.15955679367E+03  0.15955679367E+03  0.00000000000E+00 0.  1.
         21   -1    0    0  502  503 -0.00000000000E+00 -0.00000000000E+00 -0.65492133891E+03  0.65492133891E+03  0.00000000000E+00 0.  1.
          6    1    1    2  501    0 -0.16709115601E+03  0.16898739690E+03 -0.78232905031E+02  0.30418018041E+03  0.17300000000E+03 0.  1.
         -6    1    1    2    0  503  0.16709115601E+03 -0.16898739690E+03 -0.41713164020E+03  0.51029795217E+03  0.17300000000E+03 0.  1.
<mgrwt>
<rscale>  2 0.29394761E+03</rscale>
<asrwt>0</asrwt>
<pdfrwt beam="1">  1       21 0.24547200E-01 0.29394761E+03</pdfrwt>
<pdfrwt beam="2">  1       21 0.10075713E+00 0.29394761E+03</pdfrwt>
<totfact> 0.11942305E+04</totfact>
</mgrwt>
</event>
<event>
 4    1  0.4151607E+000  0.1864244E+03  0.7546771E-02  0.1161726E+00
         21   -1    0    0  503  502  0.00000000000E+00  0.00000000000E+00  0.45600612780E+02  0.45600612780E+02  0.00000000000E+00 0. -1.
         21   -1    0    0  501  503 -0.00000000000E+00 -0.00000000000E+00 -0.78634392973E+03  0.78634392973E+03  0.00000000000E+00 0. -1.
          6    1    1    2  501    0  0.67373447720E+02 -0.16908346956E+02 -0.44335043893E+03  0.48095081386E+03  0.17300000000E+03 0.  1.
         -6    1    1    2    0  502 -0.67373447720E+02  0.16908346956E+02 -0.29739287802E+03  0.35099372865E+03  0.17300000000E+03 0.  1.
<mgrwt>
<rscale>  2 0.18642444E+03</rscale>
<asrwt>0</asrwt>
<pdfrwt beam="1">  1       21 0.70154786E-02 0.18642444E+03</pdfrwt>
<pdfrwt beam="2">  1       21 0.12097599E+00 0.18642444E+03</pdfrwt>
<totfact> 0.78219596E+04</totfact>
</mgrwt>
</event>
<event>
 4    1  0.4151607E+000  0.1885954E+03  0.7546771E-02  0.1159734E+00
         21   -1    0    0  503  502  0.00000000000E+00  0.00000000000E+00  0.12925914944E+03  0.12925914944E+03  0.00000000000E+00 0. -1.
         21   -1    0    0  501  503 -0.00000000000E+00 -0.00000000000E+00 -0.35933125701E+03  0.35933125701E+03  0.00000000000E+00 0. -1.
          6    1    1    2  501    0 -0.47550749932E+02 -0.58121795351E+02 -0.23326505257E+03  0.29996800107E+03  0.17300000000E+03 0. -1.
         -6    1    1    2    0  502  0.47550749932E+02  0.58121795351E+02  0.31929450023E+01  0.18862240538E+03  0.17300000000E+03 0. -1.
<mgrwt>
<rscale>  2 0.18859538E+03</rscale>
<asrwt>0</asrwt>
<pdfrwt beam="1">  1       21 0.19886023E-01 0.18859538E+03</pdfrwt>
<pdfrwt beam="2">  1       21 0.55281731E-01 0.18859538E+03</pdfrwt>
<totfact> 0.72114355E+04</totfact>
</mgrwt>
</event>
<event>
 4    1  0.4151607E+000  0.1817080E+03  0.7546771E-02  0.1166160E+00
         21   -1    0    0  501  502  0.00000000000E+00  0.00000000000E+00  0.55827131855E+03  0.55827131855E+03  0.00000000000E+00 0. -1.
         21   -1    0    0  502  503 -0.00000000000E+00 -0.00000000000E+00 -0.22011039086E+03  0.22011039086E+03  0.00000000000E+00 0. -1.
          6    1    1    2  501    0 -0.54591482357E+02 -0.10419463067E+02  0.50190199646E+03  0.53378217393E+03  0.17300000000E+03 0. -1.
         -6    1    1    2    0  503  0.54591482357E+02  0.10419463067E+02 -0.16374106877E+03  0.24459953548E+03  0.17300000000E+03 0. -1.
<mgrwt>
<rscale>  2 0.18170799E+03</rscale>
<asrwt>0</asrwt>
<pdfrwt beam="1">  1       21 0.85887895E-01 0.18170799E+03</pdfrwt>
<pdfrwt beam="2">  1       21 0.33863137E-01 0.18170799E+03</pdfrwt>
<totfact> 0.99059488E+03</totfact>
</mgrwt>
</event>
<event>
 4    1  0.4151607E+000  0.2479587E+03  0.7546771E-02  0.1114602E+00
         21   -1    0    0  503  502  0.00000000000E+00  0.00000000000E+00  0.94851543545E+02  0.94851543545E+02  0.00000000000E+00 0. -1.
         21   -1    0    0  501  503 -0.00000000000E+00 -0.00000000000E+00 -0.12606147338E+04  0.12606147338E+04  0.00000000000E+00 0.  1.
          6    1    1    2  501    0 -0.49234807988E+02  0.17067642999E+03 -0.10552573326E+04  0.10839979465E+04  0.17300000000E+03 0.  1.
         -6    1    1    2    0  502  0.49234807988E+02 -0.17067642999E+03 -0.11050585769E+03  0.27146833085E+03  0.17300000000E+03 0. -1.
<mgrwt>
<rscale>  2 0.24795869E+03</rscale>
<asrwt>0</asrwt>
<pdfrwt beam="1">  1       21 0.14592546E-01 0.24795869E+03</pdfrwt>
<pdfrwt beam="2">  1       21 0.19394072E+00 0.24795869E+03</pdfrwt>
<totfact> 0.57965853E+03</totfact>
</mgrwt>
</event>
<event>
 4    1  0.4151607E+000  0.1993055E+03  0.7546771E-02  0.1150326E+00
         21   -1    0    0  501  502  0.00000000000E+00  0.00000000000E+00  0.32828290018E+02  0.32828290018E+02  0.00000000000E+00 0. -1.
         21   -1    0    0  502  503 -0.00000000000E+00 -0.00000000000E+00 -0.12737871581E+04  0.12737871581E+04  0.00000000000E+00 0. -1.
          6    1    1    2  501    0  0.49689914667E+01 -0.98838228038E+02 -0.47429916055E+03  0.51447291464E+03  0.17300000000E+03 0. -1.
         -6    1    1    2    0  503 -0.49689914667E+01  0.98838228038E+02 -0.76665970758E+03  0.79214253353E+03  0.17300000000E+03 0. -1.
<mgrwt>
<rscale>  2 0.19930551E+03</rscale>
<asrwt>0</asrwt>
<pdfrwt beam="1">  1       21 0.50505065E-02 0.19930551E+03</pdfrwt>
<pdfrwt beam="2">  1       21 0.19596724E+00 0.19930551E+03</pdfrwt>
<totfact> 0.37529435E+04</totfact>
</mgrwt>
</event>
<event>
 4    1  0.4151607E+000  0.2024872E+03  0.7546771E-02  0.1147657E+00
         21   -1    0    0  501  502  0.00000000000E+00  0.00000000000E+00  0.54016481913E+02  0.54016481913E+02  0.00000000000E+00 0. -1.
         21   -1    0    0  502  503 -0.00000000000E+00 -0.00000000000E+00 -0.10348132271E+04  0.10348132271E+04  0.00000000000E+00 0.  1.
          6    1    1    2  501    0  0.39592119517E+02 -0.97491201970E+02 -0.20935768382E+03  0.29125883706E+03  0.17300000000E+03 0. -1.
         -6    1    1    2    0  503 -0.39592119517E+02  0.97491201970E+02 -0.77143906135E+03  0.79757087194E+03  0.17300000000E+03 0.  1.
<mgrwt>
<rscale>  2 0.20248721E+03</rscale>
<asrwt>0</asrwt>
<pdfrwt beam="1">  1       21 0.83102277E-02 0.20248721E+03</pdfrwt>
<pdfrwt beam="2">  1       21 0.15920204E+00 0.20248721E+03</pdfrwt>
<totfact> 0.28468057E+04</totfact>
</mgrwt>
</event>
<event>
 4    1  0.4151607E+000  0.3090045E+03  0.7546771E-02  0.1080824E+00
         21   -1    0    0  501  502  0.00000000000E+00  0.00000000000E+00  0.69550272295E+03  0.69550272295E+03  0.00000000000E+00 0.  1.
         21   -1    0    0  502  503 -0.00000000000E+00 -0.00000000000E+00 -0.14083339666E+03  0.14083339666E+03  0.00000000000E+00 0. -1.
          6    1    1    2  501    0  0.14070216592E+03 -0.21391051057E+03  0.34368806380E+03  0.46217452464E+03  0.17300000000E+03 0.  1.
         -6    1    1    2    0  503 -0.14070216592E+03  0.21391051057E+03  0.21098126249E+03  0.37416159496E+03  0.17300000000E+03 0. -1.
<mgrwt>
<rscale>  2 0.30900454E+03</rscale>
<asrwt>0</asrwt>
<pdfrwt beam="1">  1       21 0.10700042E+00 0.30900454E+03</pdfrwt>
<pdfrwt beam="2">  1       21 0.21666677E-01 0.30900454E+03</pdfrwt>
<totfact> 0.13016897E+04</totfact>
</mgrwt>
</event>
<event>
 4    1  0.4151607E+000  0.1768953E+03  0.7546771E-02  0.1170842E+00
         21   -1    0    0  501  502  0.00000000000E+00  0.00000000000E+00  0.52945755916E+03  0.52945755916E+03  0.00000000000E+00 0. -1.
         21   -1    0    0  502  503 -0.00000000000E+00 -0.00000000000E+00 -0.11850994208E+03  0.11850994208E+03  0.00000000000E+00 0. -1.
          6    1    1    2  501    0  0.32303845383E+02 -0.17872397435E+02  0.43486057728E+03  0.46946318566E+03  0.17300000000E+03 0. -1.
         -6    1    1    2    0  503 -0.32303845383E+02  0.17872397435E+02 -0.23912960198E+02  0.17850431558E+03  0.17300000000E+03 0. -1.
<mgrwt>
<rscale>  2 0.17689534E+03</rscale>
<asrwt>0</asrwt>
<pdfrwt beam="1">  1       21 0.81455008E-01 0.17689534E+03</pdfrwt>
<pdfrwt beam="2">  1       21 0.18232299E-01 0.17689534E+03</pdfrwt>
<totfact> 0.36504356E+04</totfact>
</mgrwt>
</event>
<event>
 4    1  0.4151607E+000  0.1986622E+03  0.7546771E-02  0.1150873E+00
         21   -1    0    0  503  502  0.00000000000E+00  0.00000000000E+00  0.17419480117E+03  0.17419480117E+03  0.00000000000E+00 0. -1.
         21   -1    0    0  501  503 -0.00000000000E+00 -0.00000000000E+00 -0.24894871993E+03  0.24894871993E+03  0.00000000000E+00 0. -1.
          6    1    1    2  501    0 -0.48340418222E+02  0.84857913977E+02 -0.10081603219E+03  0.22277911469E+03  0.17300000000E+03 0. -1.
         -6    1    1    2    0  502  0.48340418222E+02 -0.84857913977E+02  0.26062113431E+02  0.20036440641E+03  0.17300000000E+03 0. -1.
<mgrwt>
<rscale>  2 0.19866218E+03</rscale>
<asrwt>0</asrwt>
<pdfrwt beam="1">  1       21 0.26799200E-01 0.19866218E+03</pdfrwt>
<pdfrwt beam="2">  1       21 0.38299803E-01 0.19866218E+03</pdfrwt>
<totfact> 0.86942993E+04</totfact>
</mgrwt>
</event>
<event>
 4    1  0.4151607E+000  0.2294698E+03  0.7546771E-02  0.1127013E+00
         21   -1    0    0  501  502  0.00000000000E+00  0.00000000000E+00  0.56325590275E+02  0.56325590275E+02  0.00000000000E+00 0. -1.
         21   -1    0    0  502  503 -0.00000000000E+00 -0.00000000000E+00 -0.20278267048E+04  0.20278267048E+04  0.00000000000E+00 0. -1.
          6    1    1    2  501    0  0.14943093943E+03 -0.19944850204E+02 -0.22070377780E+03  0.31838115561E+03  0.17300000000E+03 0. -1.
         -6    1    1    2    0  503 -0.14943093943E+03  0.19944850204E+02 -0.17507973367E+04  0.17657711394E+04  0.17300000000E+03 0. -1.
<mgrwt>
<rscale>  2 0.22946983E+03</rscale>
<asrwt>0</asrwt>
<pdfrwt beam="1">  1       21 0.86654760E-02 0.22946983E+03</pdfrwt>
<pdfrwt beam="2">  1       21 0.31197332E+00 0.22946983E+03</pdfrwt>
<totfact> 0.29126995E+03</totfact>
</mgrwt>
</event>
<event>
 4    1  0.4151607E+000  0.2291978E+03  0.7546771E-02  0.1127206E+00
         21   -1    0    0  503  502  0.00000000000E+00  0.00000000000E+00  0.62921685971E+02  0.62921685971E+02  0.00000000000E+00 0.  1.
         21   -1    0    0  501  503 -0.00000000000E+00 -0.00000000000E+00 -0.86930163391E+03  0.86930163391E+03  0.00000000000E+00 0.  1.
          6    1    1    2  501    0  0.10216938124E+03 -0.11029081403E+03 -0.49595017226E+03  0.54634990573E+03  0.17300000000E+03 0.  1.
         -6    1    1    2    0  502 -0.10216938124E+03  0.11029081403E+03 -0.31042977568E+03  0.38587341416E+03  0.17300000000E+03 0.  1.
<mgrwt>
<rscale>  2 0.22919783E+03</rscale>
<asrwt>0</asrwt>
<pdfrwt beam="1">  1       21 0.96802603E-02 0.22919783E+03</pdfrwt>
<pdfrwt beam="2">  1       21 0.13373870E+00 0.22919783E+03</pdfrwt>
<totfact> 0.33868137E+04</totfact>
</mgrwt>
</event>
<event>
 4    1  0.4151607E+000  0.2511246E+03  0.7546771E-02  0.1112596E+00
         21   -1    0    0  503  502  0.00000000000E+00  0.00000000000E+00  0.22143868125E+03  0.22143868125E+03  0.00000000000E+00 0. -1.
         21   -1    0    0  501  503 -0.00000000000E+00 -0.00000000000E+00 -0.28504188412E+03  0.28504188412E+03  0.00000000000E+00 0. -1.
          6    1    1    2  501    0 -0.39765501686E+02  0.17763236278E+03 -0.24275598807E+02  0.25229517659E+03  0.17300000000E+03 0. -1.
         -6    1    1    2    0  502  0.39765501686E+02 -0.17763236278E+03 -0.39327604063E+02  0.25418538879E+03  0.17300000000E+03 0. -1.
<mgrwt>
<rscale>  2 0.25112457E+03</rscale>
<asrwt>0</asrwt>
<pdfrwt beam="1">  1       21 0.34067489E-01 0.25112457E+03</pdfrwt>
<pdfrwt beam="2">  1       21 0.43852598E-01 0.25112457E+03</pdfrwt>
<totfact> 0.40363744E+04</totfact>
</mgrwt>
</event>
<event>
 4    1  0.4151607E+000  0.1806097E+03  0.7546771E-02  0.1167214E+00
         21   -1    0    0  501  502  0.00000000000E+00  0.00000000000E+00  0.10533312952E+04  0.10533312952E+04  0.00000000000E+00 0.  1.
         21   -1    0    0  502  503 -0.00000000000E+00 -0.00000000000E+00 -0.15552016132E+03  0.15552016132E+03  0.00000000000E+00 0.  1.
          6    1    1    2  501    0 -0.49024055054E+02  0.16955546090E+02  0.98981524972E+03  0.10061580776E+04  0.17300000000E+03 0.  1.
         -6    1    1    2    0  503  0.49024055054E+02 -0.16955546090E+02 -0.92004115867E+02  0.20269337891E+03  0.17300000000E+03 0.  1.
<mgrwt>
<rscale>  2 0.18060966E+03</rscale>
<asrwt>0</asrwt>
<pdfrwt beam="1">  1       21 0.16205096E+00 0.18060966E+03</pdfrwt>
<pdfrwt beam="2">  1       21 0.23926179E-01 0.18060966E+03</pdfrwt>
<totfact> 0.40485448E+03</totfact>
</mgrwt>
</event>
<event>
 4    1  0.4151607E+000  0.1739909E+03  0.7546771E-02  0.1173749E+00
         21   -1    0    0  503  502  0.00000000000E+00  0.00000000000E+00  0.92259399800E+03  0.92259399800E+03  0.00000000000E+00 0.  1.
         21   -1    0    0  501  503 -0.00000000000E+00 -0.00000000000E+00 -0.34776943166E+02  0.34776943166E+02  0.00000000000E+00 0.  1.
          6    1    1    2  501    0 -0.77284576985E+01 -0.16855277010E+02  0.33014615190E+03  0.37318803711E+03  0.17300000000E+03 0.  1.
         -6    1    1    2    0  502  0.77284576985E+01  0.16855277010E+02  0.55767090293E+03  0.58418290406E+03  0.17300000000E+03 0.  1.
<mgrwt>
<rscale>  2 0.17399089E+03</rscale>
<asrwt>0</asrwt>
<pdfrwt beam="1">  1       21 0.14193752E+00 0.17399089E+03</pdfrwt>
<pdfrwt beam="2">  1       21 0.53502996E-02 0.17399089E+03</pdfrwt>
<totfact> 0.83559415E+04</totfact>
</mgrwt>
</event>
<event>
 4    1  0.4151607E+000  0.1781287E+03  0.7546771E-02  0.1169626E+00
         21   -1    0    0  501  502  0.00000000000E+00  0.00000000000E+00  0.18684270513E+03  0.18684270513E+03  0.00000000000E+00 0.  1.
         21   -1    0    0  502  503 -0.00000000000E+00 -0.00000000000E+00 -0.17809906410E+03  0.17809906410E+03  0.00000000000E+00 0.  1.
          6    1    1    2  501    0  0.31519549279E+02  0.28414144259E+02  0.43710779380E+02  0.18341340686E+03  0.17300000000E+03 0. -1.
         -6    1    1    2    0  503 -0.31519549279E+02 -0.28414144259E+02 -0.34967138359E+02  0.18152836237E+03  0.17300000000E+03 0. -1.
<mgrwt>
<rscale>  2 0.17812873E+03</rscale>
<asrwt>0</asrwt>
<pdfrwt beam="1">  1       21 0.28745032E-01 0.17812873E+03</pdfrwt>
<pdfrwt beam="2">  1       21 0.27399856E-01 0.17812873E+03</pdfrwt>
<totfact> 0.14779950E+05</totfact>
</mgrwt>
</event>
<event>
 4    1  0.4151607E+000  0.1869826E+03  0.7546771E-02  0.1161211E+00
         21   -1    0    0  503  502  0.00000000000E+00  0.00000000000E+00  0.35213024659E+02  0.35213024659E+02  0.00000000000E+00 0. -1.
         21   -1    0    0  501  503 -0.00000000000E+00 -0.00000000000E+00 -0.24843929753E+04  0.24843929753E+04  0.00000000000E+00 0. -1.
          6    1    1    2  501    0  0.94451065053E+01 -0.70315651143E+02 -0.22007144727E+04  0.22086436315E+04  0.17300000000E+03 0. -1.
         -6    1    1    2    0  502 -0.94451065053E+01  0.70315651143E+02 -0.24846547790E+03  0.31096236836E+03  0.17300000000E+03 0. -1.
<mgrwt>
<rscale>  2 0.18698262E+03</rscale>
<asrwt>0</asrwt>
<pdfrwt beam="1">  1       21 0.54173876E-02 0.18698262E+03</pdfrwt>
<pdfrwt beam="2">  1       21 0.38221436E+00 0.18698262E+03</pdfrwt>
<totfact> 0.26531397E+03</totfact>
</mgrwt>
</event>
<event>
 4    1  0.4151607E+000  0.2030887E+03  0.7546771E-02  0.1147159E+00
         21   -1    0    0  501  502  0.00000000000E+00  0.00000000000E+00  0.38399412404E+03  0.38399412404E+03  0.00000000000E+00 0. -1.
         21   -1    0    0  502  503 -0.00000000000E+00 -0.00000000000E+00 -0.21576608023E+03  0.21576608023E+03  0.00000000000E+00 0.  1.
          6    1    1    2  501    0 -0.30633017026E+02  0.10187060521E+03  0.29662516117E+03  0.35948781367E+03  0.17300000000E+03 0. -1.
         -6    1    1    2    0  503  0.30633017026E+02 -0.10187060521E+03 -0.12839711736E+03  0.24027239060E+03  0.17300000000E+03 0.  1.
<mgrwt>
<rscale>  2 0.20308866E+03</rscale>
<asrwt>0</asrwt>
<pdfrwt beam="1">  1       21 0.59076019E-01 0.20308866E+03</pdfrwt>
<pdfrwt beam="2">  1       21 0.33194782E-01 0.20308866E+03</pdfrwt>
<totfact> 0.23267618E+04</totfact>
</mgrwt>
</event>
<event>
 4    1  0.4151607E+000  0.2120135E+03  0.7546771E-02  0.1139981E+00
         21   -1    0    0  503  502  0.00000000000E+00  0.00000000000E+00  0.90787607807E+03  0.90787607807E+03  0.00000000000E+00 0. -1.
         21   -1    0    0  501  503 -0.00000000000E+00 -0.00000000000E+00 -0.91097839867E+02  0.91097839867E+02  0.00000000000E+00 0.  1.
          6    1    1    2  501    0  0.76457142670E+02  0.95786308552E+02  0.70908462907E+02  0.22355697637E+03  0.17300000000E+03 0.  1.
         -6    1    1    2    0  502 -0.76457142670E+02 -0.95786308552E+02  0.74586977529E+03  0.77541694157E+03  0.17300000000E+03 0. -1.
<mgrwt>
<rscale>  2 0.21201347E+03</rscale>
<asrwt>0</asrwt>
<pdfrwt beam="1">  1       21 0.13967324E+00 0.21201347E+03</pdfrwt>
<pdfrwt beam="2">  1       21 0.14015053E-01 0.21201347E+03</pdfrwt>
<totfact> 0.15767730E+04</totfact>
</mgrwt>
</event>
<event>
 4    1  0.4151607E+000  0.3358282E+03  0.7546771E-02  0.1068587E+00
         21   -1    0    0  503  502  0.00000000000E+00  0.00000000000E+00  0.93366100551E+02  0.93366100551E+02  0.00000000000E+00 0. -1.
         21   -1    0    0  501  503 -0.00000000000E+00 -0.00000000000E+00 -0.12435136433E+04  0.12435136433E+04  0.00000000000E+00 0.  1.
          6    1    1    2  501    0  0.29604433479E+02  0.28631307098E+03 -0.68813261492E+03  0.76570692357E+03  0.17300000000E+03 0.  1.
         -6    1    1    2    0  502 -0.29604433479E+02 -0.28631307098E+03 -0.46201492787E+03  0.57117282032E+03  0.17300000000E+03 0. -1.
<mgrwt>
<rscale>  2 0.33582823E+03</rscale>
<asrwt>0</asrwt>
<pdfrwt beam="1">  1       21 0.14364016E-01 0.33582823E+03</pdfrwt>
<pdfrwt beam="2">  1       21 0.19130979E+00 0.33582823E+03</pdfrwt>
<totfact> 0.58929981E+03</totfact>
</mgrwt>
</event>
<event>
 4    1  0.4151607E+000  0.3186958E+03  0.7546771E-02  0.1076251E+00
         21   -1    0    0  503  502  0.00000000000E+00  0.00000000000E+00  0.28242083567E+03  0.28242083567E+03  0.00000000000E+00 0.  1.
         21   -1    0    0  501  503 -0.00000000000E+00 -0.00000000000E+00 -0.76702055898E+03  0.76702055898E+03  0.00000000000E+00 0.  1.
          6    1    1    2  501    0 -0.23528284434E+03  0.12759317488E+03 -0.62471063270E+03  0.70130621680E+03  0.17300000000E+03 0.  1.
         -6    1    1    2    0  502  0.23528284434E+03 -0.12759317488E+03  0.14011090939E+03  0.34813517784E+03  0.17300000000E+03 0.  1.
<mgrwt>
<rscale>  2 0.31869583E+03</rscale>
<asrwt>0</asrwt>
<pdfrwt beam="1">  1       21 0.43449361E-01 0.31869583E+03</pdfrwt>
<pdfrwt beam="2">  1       21 0.11800316E+00 0.31869583E+03</pdfrwt>
<totfact> 0.25678985E+03</totfact>
</mgrwt>
</event>
<event>
 4    1  0.4151607E+000  0.2058891E+03  0.7546771E-02  0.1144863E+00
         21   -1    0    0  503  502  0.00000000000E+00  0.00000000000E+00  0.25244878775E+03  0.25244878775E+03  0.00000000000E+00 0. -1.
         21   -1    0    0  501  503 -0.00000000000E+00 -0.00000000000E+00 -0.16791674979E+03  0.16791674979E+03  0.00000000000E+00 0. -1.
          6    1    1    2  501    0 -0.11001108229E+03  0.18944642578E+02  0.42056264386E+02  0.21014058885E+03  0.17300000000E+03 0. -1.
         -6    1    1    2    0  502  0.11001108229E+03 -0.18944642578E+02  0.42475773579E+02  0.21022494869E+03  0.17300000000E+03 0. -1.
<mgrwt>
<rscale>  2 0.20588914E+03</rscale>
<asrwt>0</asrwt>
<pdfrwt beam="1">  1       21 0.38838275E-01 0.20588914E+03</pdfrwt>
<pdfrwt beam="2">  1       21 0.25833346E-01 0.20588914E+03</pdfrwt>
<totfact> 0.90439810E+04</totfact>
</mgrwt>
</event>
<event>
 4    1  0.4151607E+000  0.2593623E+03  0.7546771E-02  0.1107527E+00
         21   -1    0    0  503  502  0.00000000000E+00  0.00000000000E+00  0.17055200771E+03  0.17055200771E+03  0.00000000000E+00 0. -1.
         21   -1    0    0  501  503 -0.00000000000E+00 -0.00000000000E+00 -0.39575655378E+03  0.39575655378E+03  0.00000000000E+00 0.  1.
          6    1    1    2  501    0 -0.18488611718E+03  0.56186545137E+02 -0.12906893893E+03  0.28970259781E+03  0.17300000000E+03 0.  1.
         -6    1    1    2    0  502  0.18488611718E+03 -0.56186545137E+02 -0.96135607138E+02  0.27660596367E+03  0.17300000000E+03 0. -1.
<mgrwt>
<rscale>  2 0.25936230E+03</rscale>
<asrwt>0</asrwt>
<pdfrwt beam="1">  1       21 0.26238770E-01 0.25936230E+03</pdfrwt>
<pdfrwt beam="2">  1       21 0.60885624E-01 0.25936230E+03</pdfrwt>
<totfact> 0.33574744E+04</totfact>
</mgrwt>
</event>
<event>
 4    1  0.4151607E+000  0.3170668E+03  0.7546771E-02  0.1077007E+00
         21   -1    0    0  501  502  0.00000000000E+00  0.00000000000E+00  0.25348723745E+03  0.25348723745E+03  0.00000000000E+00 0. -1.
         21   -1    0    0  502  503 -0.00000000000E+00 -0.00000000000E+00 -0.53828111986E+03  0.53828111986E+03  0.00000000000E+00 0.  1.
          6    1    1    2  501    0 -0.15872871122E+03  0.21309041317E+03  0.60712402989E+02  0.32282708038E+03  0.17300000000E+03 0. -1.
         -6    1    1    2    0  503  0.15872871122E+03 -0.21309041317E+03 -0.34550628540E+03  0.46894127693E+03  0.17300000000E+03 0.  1.
<mgrwt>
<rscale>  2 0.31706676E+03</rscale>
<asrwt>0</asrwt>
<pdfrwt beam="1">  1       21 0.38998036E-01 0.31706676E+03</pdfrwt>
<pdfrwt beam="2">  1       21 0.82812480E-01 0.31706676E+03</pdfrwt>
<totfact> 0.75038483E+03</totfact>
</mgrwt>
</event>
<event>
 4    1  0.4151607E+000  0.2655218E+03  0.7546771E-02  0.1103870E+00
         21   -1    0    0  501  502  0.00000000000E+00  0.00000000000E+00  0.12130702293E+04  0.12130702293E+04  0.00000000000E+00 0. -1.
         21   -1    0    0  502  503 -0.00000000000E+00 -0.00000000000E+00 -0.81332254340E+02  0.81332254340E+02  0.00000000000E+00 0.  1.
          6    1    1    2  501    0 -0.16006280720E+03  0.12228137945E+03  0.91163357079E+03  0.94951440505E+03  0.17300000000E+03 0. -1.
         -6    1    1    2    0  503  0.16006280720E+03 -0.12228137945E+03  0.22010440414E+03  0.34488807856E+03  0.17300000000E+03 0.  1.
<mgrwt>
<rscale>  2 0.26552182E+03</rscale>
<asrwt>0</asrwt>
<pdfrwt beam="1">  1       21 0.18662618E+00 0.26552182E+03</pdfrwt>
<pdfrwt beam="2">  1       21 0.12512655E-01 0.26552182E+03</pdfrwt>
<totfact> 0.84784929E+03</totfact>
</mgrwt>
</event>
<event>
 4    1  0.4151607E+000  0.2317549E+03  0.7546771E-02  0.1125411E+00
         21   -1    0    0  503  502  0.00000000000E+00  0.00000000000E+00  0.29310574975E+03  0.29310574975E+03  0.00000000000E+00 0.  1.
         21   -1    0    0  501  503 -0.00000000000E+00 -0.00000000000E+00 -0.21256551024E+03  0.21256551024E+03  0.00000000000E+00 0.  1.
          6    1    1    2  501    0  0.95670756473E+02 -0.12094818293E+03 -0.53631427542E+02  0.23787956326E+03  0.17300000000E+03 0.  1.
         -6    1    1    2    0  502 -0.95670756473E+02  0.12094818293E+03  0.13417166705E+03  0.26779169673E+03  0.17300000000E+03 0.  1.
<mgrwt>
<rscale>  2 0.23175495E+03</rscale>
<asrwt>0</asrwt>
<pdfrwt beam="1">  1       21 0.45093192E-01 0.23175495E+03</pdfrwt>
<pdfrwt beam="2">  1       21 0.32702386E-01 0.23175495E+03</pdfrwt>
<totfact> 0.41671586E+04</totfact>
</mgrwt>
</event>
<event>
 4    1  0.4151607E+000  0.2431588E+03  0.7546771E-02  0.1117706E+00
         21   -1    0    0  501  502  0.00000000000E+00  0.00000000000E+00  0.27021499044E+03  0.27021499044E+03  0.00000000000E+00 0. -1.
         21   -1    0    0  502  503 -0.00000000000E+00 -0.00000000000E+00 -0.27041256170E+03  0.27041256170E+03  0.00000000000E+00 0.  1.
          6    1    1    2  501    0  0.12220627509E+03  0.11942709402E+03  0.11798307232E+03  0.27027062329E+03  0.17300000000E+03 0. -1.
         -6    1    1    2    0  503 -0.12220627509E+03 -0.11942709402E+03 -0.11818064358E+03  0.27035692885E+03  0.17300000000E+03 0.  1.
<mgrwt>
<rscale>  2 0.24315881E+03</rscale>
<asrwt>0</asrwt>
<pdfrwt beam="1">  1       21 0.41571537E-01 0.24315881E+03</pdfrwt>
<pdfrwt beam="2">  1       21 0.41601933E-01 0.24315881E+03</pdfrwt>
<totfact> 0.30209013E+04</totfact>
</mgrwt>
</event>
<event>
 4    1  0.4151607E+000  0.2103157E+03  0.7546771E-02  0.1141316E+00
         21   -1    0    0  501  502  0.00000000000E+00  0.00000000000E+00  0.27925393092E+03  0.27925393092E+03  0.00000000000E+00 0. -1.
         21   -1    0    0  502  503 -0.00000000000E+00 -0.00000000000E+00 -0.48474277682E+03  0.48474277682E+03  0.00000000000E+00 0. -1.
          6    1    1    2  501    0 -0.36932207775E+01  0.11954106054E+03  0.21068912846E+03  0.29769550532E+03  0.17300000000E+03 0. -1.
         -6    1    1    2    0  503  0.36932207775E+01 -0.11954106054E+03 -0.41617797436E+03  0.46630120242E+03  0.17300000000E+03 0. -1.
<mgrwt>
<rscale>  2 0.21031573E+03</rscale>
<asrwt>0</asrwt>
<pdfrwt beam="1">  1       21 0.42962144E-01 0.21031573E+03</pdfrwt>
<pdfrwt beam="2">  1       21 0.74575811E-01 0.21031573E+03</pdfrwt>
<totfact> 0.82853417E+03</totfact>
</mgrwt>
</event>
<event>
 4    1  0.4151607E+000  0.1794794E+03  0.7546771E-02  0.1168308E+00
         21   -1    0    0  501  502  0.00000000000E+00  0.00000000000E+00  0.22022221059E+04  0.22022221059E+04  0.00000000000E+00 0.  1.
         21   -1    0    0  502  503 -0.00000000000E+00 -0.00000000000E+00 -0.17352464369E+02  0.17352464369E+02  0.00000000000E+00 0.  1.
          6    1    1    2  501    0  0.41692845956E+00  0.47787982072E+02  0.15322240615E+04  0.15427000485E+04  0.17300000000E+03 0.  1.
         -6    1    1    2    0  503 -0.41692845956E+00 -0.47787982072E+02  0.65264558000E+03  0.67687452172E+03  0.17300000000E+03 0.  1.
<mgrwt>
<rscale>  2 0.17947943E+03</rscale>
<asrwt>0</asrwt>
<pdfrwt beam="1">  1       21 0.33880318E+00 0.17947943E+03</pdfrwt>
<pdfrwt beam="2">  1       21 0.26696116E-02 0.17947943E+03</pdfrwt>
<totfact> 0.15849372E+04</totfact>
</mgrwt>
</event>
<event>
 4    1  0.4151607E+000  0.1851668E+03  0.7546771E-02  0.1162894E+00
         21   -1    0    0  501  502  0.00000000000E+00  0.00000000000E+00  0.82046731536E+03  0.82046731536E+03  0.00000000000E+00 0. -1.
         21   -1    0    0  502  503 -0.00000000000E+00 -0.00000000000E+00 -0.85151389320E+02  0.85151389320E+02  0.00000000000E+00 0. -1.
          6    1    1    2  501    0  0.28928697488E+02 -0.59336897348E+02  0.69078606373E+03  0.71517279225E+03  0.17300000000E+03 0. -1.
         -6    1    1    2    0  503 -0.28928697488E+02  0.59336897348E+02  0.44529862310E+02  0.19044591243E+03  0.17300000000E+03 0. -1.
<mgrwt>
<rscale>  2 0.18516678E+03</rscale>
<asrwt>0</asrwt>
<pdfrwt beam="1">  1       21 0.12622574E+00 0.18516678E+03</pdfrwt>
<pdfrwt beam="2">  1       21 0.13100214E-01 0.18516678E+03</pdfrwt>
<totfact> 0.23445502E+04</totfact>
</mgrwt>
</event>
<event>
 4    1  0.4151607E+000  0.1984257E+03  0.7546771E-02  0.1151074E+00
         21   -1    0    0  501  502  0.00000000000E+00  0.00000000000E+00  0.21577690887E+03  0.21577690887E+03  0.00000000000E+00 0.  1.
         21   -1    0    0  502  503 -0.00000000000E+00 -0.00000000000E+00 -0.18281804917E+03  0.18281804917E+03  0.00000000000E+00 0.  1.
          6    1    1    2  501    0 -0.89322304714E+02 -0.38279288484E+02  0.25177288470E+02  0.20001668406E+03  0.17300000000E+03 0.  1.
         -6    1    1    2    0  503  0.89322304714E+02  0.38279288484E+02  0.77815712277E+01  0.19857827398E+03  0.17300000000E+03 0.  1.
<mgrwt>
<rscale>  2 0.19842575E+03</rscale>
<asrwt>0</asrwt>
<pdfrwt beam="1">  1       21 0.33196447E-01 0.19842575E+03</pdfrwt>
<pdfrwt beam="2">  1       21 0.28125854E-01 0.19842575E+03</pdfrwt>
<totfact> 0.10529731E+05</totfact>
</mgrwt>
</event>
<event>
 4    1  0.4151607E+000  0.2090552E+03  0.7546771E-02  0.1142316E+00
         21   -1    0    0  501  502  0.00000000000E+00  0.00000000000E+00  0.40590188269E+03  0.40590188269E+03  0.00000000000E+00 0. -1.
         21   -1    0    0  502  503 -0.00000000000E+00 -0.00000000000E+00 -0.15578931837E+03  0.15578931837E+03  0.00000000000E+00 0.  1.
          6    1    1    2  501    0 -0.96703400440E+01 -0.11696826533E+03  0.28113779344E+03  0.35034632789E+03  0.17300000000E+03 0. -1.
         -6    1    1    2    0  503  0.96703400440E+01  0.11696826533E+03 -0.31025229113E+02  0.21134487316E+03  0.17300000000E+03 0.  1.
<mgrwt>
<rscale>  2 0.20905523E+03</rscale>
<asrwt>0</asrwt>
<pdfrwt beam="1">  1       21 0.62446443E-01 0.20905523E+03</pdfrwt>
<pdfrwt beam="2">  1       21 0.23967588E-01 0.20905523E+03</pdfrwt>
<totfact> 0.38692440E+04</totfact>
</mgrwt>
</event>
<event>
 4    1  0.4151607E+000  0.1778799E+03  0.7546771E-02  0.1169871E+00
         21   -1    0    0  503  502  0.00000000000E+00  0.00000000000E+00  0.22220624233E+03  0.22220624233E+03  0.00000000000E+00 0.  1.
         21   -1    0    0  501  503 -0.00000000000E+00 -0.00000000000E+00 -0.16697906423E+03  0.16697906423E+03  0.00000000000E+00 0. -1.
          6    1    1    2  501    0  0.10224238648E+02 -0.40096325743E+02 -0.47050989232E+02  0.18399740754E+03  0.17300000000E+03 0. -1.
         -6    1    1    2    0  502 -0.10224238648E+02  0.40096325743E+02  0.10227816733E+03  0.20518789903E+03  0.17300000000E+03 0. -1.
<mgrwt>
<rscale>  2 0.17787988E+03</rscale>
<asrwt>0</asrwt>
<pdfrwt beam="1">  1       21 0.34185576E-01 0.17787988E+03</pdfrwt>
<pdfrwt beam="2">  1       21 0.25689087E-01 0.17787988E+03</pdfrwt>
<totfact> 0.11918358E+05</totfact>
</mgrwt>
</event>
<event>
 4    1  0.4151607E+000  0.2184051E+03  0.7546771E-02  0.1135078E+00
         21   -1    0    0  503  502  0.00000000000E+00  0.00000000000E+00  0.56625766328E+03  0.56625766328E+03  0.00000000000E+00 0. -1.
         21   -1    0    0  501  503 -0.00000000000E+00 -0.00000000000E+00 -0.87646801529E+02  0.87646801529E+02  0.00000000000E+00 0. -1.
          6    1    1    2  501    0 -0.39665701017E+02  0.12727300910E+03  0.17483284468E+03  0.27976295370E+03  0.17300000000E+03 0. -1.
         -6    1    1    2    0  502  0.39665701017E+02 -0.12727300910E+03  0.30377801707E+03  0.37414151111E+03  0.17300000000E+03 0. -1.
<mgrwt>
<rscale>  2 0.21840510E+03</rscale>
<asrwt>0</asrwt>
<pdfrwt beam="1">  1       21 0.87116561E-01 0.21840510E+03</pdfrwt>
<pdfrwt beam="2">  1       21 0.13484124E-01 0.21840510E+03</pdfrwt>
<totfact> 0.53227372E+04</totfact>
</mgrwt>
</event>
<event>
 4    1  0.4151607E+000  0.1872805E+03  0.7546771E-02  0.1160937E+00
         21   -1    0    0  503  502  0.00000000000E+00  0.00000000000E+00  0.27559333891E+03  0.27559333891E+03  0.00000000000E+00 0.  1.
         21   -1    0    0  501  503 -0.00000000000E+00 -0.00000000000E+00 -0.34750873622E+03  0.34750873622E+03  0.00000000000E+00 0.  1.
          6    1    1    2  501    0 -0.94139048351E+00  0.71722261951E+02 -0.28398302877E+03  0.34017690942E+03  0.17300000000E+03 0.  1.
         -6    1    1    2    0  502  0.94139048351E+00 -0.71722261951E+02  0.21206763146E+03  0.28292516570E+03  0.17300000000E+03 0.  1.
<mgrwt>
<rscale>  2 0.18728046E+03</rscale>
<asrwt>0</asrwt>
<pdfrwt beam="1">  1       21 0.42398975E-01 0.18728046E+03</pdfrwt>
<pdfrwt beam="2">  1       21 0.53462882E-01 0.18728046E+03</pdfrwt>
<totfact> 0.17782015E+04</totfact>
</mgrwt>
</event>
<event>
 4    1  0.4151607E+000  0.1797132E+03  0.7546771E-02  0.1168081E+00
         21   -1    0    0  501  502  0.00000000000E+00  0.00000000000E+00  0.46914321555E+03  0.46914321555E+03  0.00000000000E+00 0. -1.
         21   -1    0    0  502  503 -0.00000000000E+00 -0.00000000000E+00 -0.70056991599E+02  0.70056991599E+02  0.00000000000E+00 0. -1.
          6    1    1    2  501    0 -0.15835483869E+02 -0.46011739739E+02  0.23504474879E+03  0.29587645509E+03  0.17300000000E+03 0. -1.
         -6    1    1    2    0  503  0.15835483869E+02  0.46011739739E+02  0.16404147516E+03  0.24332375206E+03  0.17300000000E+03 0. -1.
<mgrwt>
<rscale>  2 0.17971322E+03</rscale>
<asrwt>0</asrwt>
<pdfrwt beam="1">  1       21 0.72175878E-01 0.17971322E+03</pdfrwt>
<pdfrwt beam="2">  1       21 0.10777999E-01 0.17971322E+03</pdfrwt>
<totfact> 0.12363224E+05</totfact>
</mgrwt>
</event>
<event>
 4    1  0.4151607E+000  0.2217114E+03  0.7546771E-02  0.1132614E+00
         21   -1    0    0  501  502  0.00000000000E+00  0.00000000000E+00  0.39988026629E+02  0.39988026629E+02  0.00000000000E+00 0. -1.
         21   -1    0    0  502  503 -0.00000000000E+00 -0.00000000000E+00 -0.13217443116E+04  0.13217443116E+04  0.00000000000E+00 0. -1.
          6    1    1    2  501    0 -0.10847427792E+03 -0.86372876317E+02 -0.46078103730E+03  0.51134636702E+03  0.17300000000E+03 0. -1.
         -6    1    1    2    0  503  0.10847427792E+03  0.86372876317E+02 -0.82097524772E+03  0.85038597125E+03  0.17300000000E+03 0. -1.
<mgrwt>
<rscale>  2 0.22171140E+03</rscale>
<asrwt>0</asrwt>
<pdfrwt beam="1">  1       21 0.61520035E-02 0.22171140E+03</pdfrwt>
<pdfrwt beam="2">  1       21 0.20334530E+00 0.22171140E+03</pdfrwt>
<totfact> 0.23646849E+04</totfact>
</mgrwt>
</event>
<event>
 4    1  0.4151607E+000  0.2313151E+03  0.7546771E-02  0.1125718E+00
         21   -1    0    0  503  502  0.00000000000E+00  0.00000000000E+00  0.35187476974E+03  0.35187476974E+03  0.00000000000E+00 0. -1.
         21   -1    0    0  501  503 -0.00000000000E+00 -0.00000000000E+00 -0.30741196320E+03  0.30741196320E+03  0.00000000000E+00 0.  1.
          6    1    1    2  501    0 -0.11863718108E+03 -0.97482904151E+02 -0.21210505897E+03  0.31383953444E+03  0.17300000000E+03 0. -1.
         -6    1    1    2    0  502  0.11863718108E+03  0.97482904151E+02  0.25656786551E+03  0.34544719850E+03  0.17300000000E+03 0. -1.
<mgrwt>
<rscale>  2 0.23131515E+03</rscale>
<asrwt>0</asrwt>
<pdfrwt beam="1">  1       21 0.54134580E-01 0.23131515E+03</pdfrwt>
<pdfrwt beam="2">  1       21 0.47294148E-01 0.23131515E+03</pdfrwt>
<totfact> 0.13471515E+04</totfact>
</mgrwt>
</event>
<event>
 4    1  0.4151607E+000  0.1974593E+03  0.7546771E-02  0.1151900E+00
         21   -1    0    0  501  502  0.00000000000E+00  0.00000000000E+00  0.64286926770E+02  0.64286926770E+02  0.00000000000E+00 0. -1.
         21   -1    0    0  502  503 -0.00000000000E+00 -0.00000000000E+00 -0.61426995556E+03  0.61426995556E+03  0.00000000000E+00 0. -1.
          6    1    1    2  501    0  0.35307994177E+02 -0.88399856741E+02 -0.23683990775E+03  0.30835585129E+03  0.17300000000E+03 0. -1.
         -6    1    1    2    0  503 -0.35307994177E+02  0.88399856741E+02 -0.31314312105E+03  0.37020103104E+03  0.17300000000E+03 0. -1.
<mgrwt>
<rscale>  2 0.19745934E+03</rscale>
<asrwt>0</asrwt>
<pdfrwt beam="1">  1       21 0.98902969E-02 0.19745934E+03</pdfrwt>
<pdfrwt beam="2">  1       21 0.94503066E-01 0.19745934E+03</pdfrwt>
<totfact> 0.77423769E+04</totfact>
</mgrwt>
</event>
<event>
 4    1  0.4151607E+000  0.2227462E+03  0.7546771E-02  0.1131852E+00
         21   -1    0    0  501  502  0.00000000000E+00  0.00000000000E+00  0.73351624098E+02  0.73351624098E+02  0.00000000000E+00 0. -1.
         21   -1    0    0  502  503 -0.00000000000E+00 -0.00000000000E+00 -0.90755650933E+03  0.90755650933E+03  0.00000000000E+00 0.  1.
          6    1    1    2  501    0  0.11242617508E+03 -0.83947837444E+02 -0.16958618238E+03  0.27995599209E+03  0.17300000000E+03 0. -1.
         -6    1    1    2    0  503 -0.11242617508E+03  0.83947837444E+02 -0.66461870285E+03  0.70095214133E+03  0.17300000000E+03 0. -1.
<mgrwt>
<rscale>  2 0.22274623E+03</rscale>
<asrwt>0</asrwt>
<pdfrwt beam="1">  1       21 0.11284864E-01 0.22274623E+03</pdfrwt>
<pdfrwt beam="2">  1       21 0.13962409E+00 0.22274623E+03</pdfrwt>
<totfact> 0.23159650E+04</totfact>
</mgrwt>
</event>
<event>
 4    1  0.4151607E+000  0.1837196E+03  0.7546771E-02  0.1164251E+00
         21   -1    0    0  503  502  0.00000000000E+00  0.00000000000E+00  0.21682730836E+03  0.21682730836E+03  0.00000000000E+00 0.  1.
         21   -1    0    0  501  503 -0.00000000000E+00 -0.00000000000E+00 -0.16254656121E+03  0.16254656121E+03  0.00000000000E+00 0. -1.
          6    1    1    2  501    0  0.32827782817E+02 -0.52404324149E+02 -0.11883106595E+02  0.18410346204E+03  0.17300000000E+03 0. -1.
         -6    1    1    2    0  502 -0.32827782817E+02  0.52404324149E+02  0.66163853735E+02  0.19527040753E+03  0.17300000000E+03 0.  1.
<mgrwt>
<rscale>  2 0.18371956E+03</rscale>
<asrwt>0</asrwt>
<pdfrwt beam="1">  1       21 0.33358047E-01 0.18371956E+03</pdfrwt>
<pdfrwt beam="2">  1       21 0.25007163E-01 0.18371956E+03</pdfrwt>
<totfact> 0.13141043E+05</totfact>
</mgrwt>
</event>
<event>
 4    1  0.4151607E+000  0.1771735E+03  0.7546771E-02  0.1170567E+00
         21   -1    0    0  501  502  0.00000000000E+00  0.00000000000E+00  0.24436312692E+03  0.24436312692E+03  0.00000000000E+00 0. -1.
         21   -1    0    0  502  503 -0.00000000000E+00 -0.00000000000E+00 -0.20240038439E+03  0.20240038439E+03  0.00000000000E+00 0. -1.
          6    1    1    2  501    0  0.21744139925E+02  0.31442933753E+02  0.15599821520E+03  0.23606335770E+03  0.17300000000E+03 0. -1.
         -6    1    1    2    0  503 -0.21744139925E+02 -0.31442933753E+02 -0.11403547266E+03  0.21070015361E+03  0.17300000000E+03 0. -1.
<mgrwt>
<rscale>  2 0.17717355E+03</rscale>
<asrwt>0</asrwt>
<pdfrwt beam="1">  1       21 0.37594327E-01 0.17717355E+03</pdfrwt>
<pdfrwt beam="2">  1       21 0.31138521E-01 0.17717355E+03</pdfrwt>
<totfact> 0.68065118E+04</totfact>
</mgrwt>
</event>
<event>
 4    1  0.4151607E+000  0.2278733E+03  0.7546771E-02  0.1128146E+00
         21   -1    0    0  503  502  0.00000000000E+00  0.00000000000E+00  0.45654425394E+03  0.45654425394E+03  0.00000000000E+00 0.  1.
         21   -1    0    0  501  503 -0.00000000000E+00 -0.00000000000E+00 -0.13558315574E+03  0.13558315574E+03  0.00000000000E+00 0. -1.
          6    1    1    2  501    0  0.12584871848E+03  0.78481554523E+02  0.41640258448E+02  0.23164663923E+03  0.17300000000E+03 0. -1.
         -6    1    1    2    0  502 -0.12584871848E+03 -0.78481554523E+02  0.27932083975E+03  0.36048077045E+03  0.17300000000E+03 0.  1.
<mgrwt>
<rscale>  2 0.22787333E+03</rscale>
<asrwt>0</asrwt>
<pdfrwt beam="1">  1       21 0.70237577E-01 0.22787333E+03</pdfrwt>
<pdfrwt beam="2">  1       21 0.20858947E-01 0.22787333E+03</pdfrwt>
<totfact> 0.38551390E+04</totfact>
</mgrwt>
</event>
<event>
 4    1  0.4151607E+000  0.2276763E+03  0.7546771E-02  0.1128286E+00
         21   -1    0    0  501  502  0.00000000000E+00  0.00000000000E+00  0.19500874356E+03  0.19500874356E+03  0.00000000000E+00 0.  1.
         21   -1    0    0  502  503 -0.00000000000E+00 -0.00000000000E+00 -0.28380043646E+03  0.28380043646E+03  0.00000000000E+00 0. -1.
          6    1    1    2  501    0  0.14799251951E+03  0.23890359227E+01 -0.10466170075E+03  0.25058045599E+03  0.17300000000E+03 0. -1.
         -6    1    1    2    0  503 -0.14799251951E+03 -0.23890359227E+01  0.15870007853E+02  0.22822872403E+03  0.17300000000E+03 0.  1.
<mgrwt>
<rscale>  2 0.22767629E+03</rscale>
<asrwt>0</asrwt>
<pdfrwt beam="1">  1       21 0.30001345E-01 0.22767629E+03</pdfrwt>
<pdfrwt beam="2">  1       21 0.43661606E-01 0.22767629E+03</pdfrwt>
<totfact> 0.52856968E+04</totfact>
</mgrwt>
</event>
<event>
 4    1  0.4151607E+000  0.3501686E+03  0.7546771E-02  0.1062546E+00
         21   -1    0    0  503  502  0.00000000000E+00  0.00000000000E+00  0.19957253551E+03  0.19957253551E+03  0.00000000000E+00 0. -1.
         21   -1    0    0  501  503 -0.00000000000E+00 -0.00000000000E+00 -0.12835757670E+04  0.12835757670E+04  0.00000000000E+00 0.  1.
          6    1    1    2  501    0  0.19581431883E+03  0.23312189464E+03 -0.10774440596E+04  0.11329182524E+04  0.17300000000E+03 0.  1.
         -6    1    1    2    0  502 -0.19581431883E+03 -0.23312189464E+03 -0.65591719086E+01  0.35023005005E+03  0.17300000000E+03 0. -1.
<mgrwt>
<rscale>  2 0.35016862E+03</rscale>
<asrwt>0</asrwt>
<pdfrwt beam="1">  1       21 0.30703467E-01 0.35016862E+03</pdfrwt>
<pdfrwt beam="2">  1       21 0.19747320E+00 0.35016862E+03</pdfrwt>
<totfact> 0.12520064E+03</totfact>
</mgrwt>
</event>
<event>
 4    1  0.4151607E+000  0.2685221E+03  0.7546771E-02  0.1102128E+00
         21   -1    0    0  503  502  0.00000000000E+00  0.00000000000E+00  0.68321608682E+02  0.68321608682E+02  0.00000000000E+00 0. -1.
         21   -1    0    0  501  503 -0.00000000000E+00 -0.00000000000E+00 -0.13832451327E+04  0.13832451327E+04  0.00000000000E+00 0.  1.
          6    1    1    2  501    0  0.10333270945E+03 -0.17747527111E+03 -0.10108207094E+04  0.10458788779E+04  0.17300000000E+03 0.  1.
         -6    1    1    2    0  502 -0.10333270945E+03  0.17747527111E+03 -0.30410281455E+03  0.40568786341E+03  0.17300000000E+03 0. -1.
<mgrwt>
<rscale>  2 0.26852210E+03</rscale>
<asrwt>0</asrwt>
<pdfrwt beam="1">  1       21 0.10511016E-01 0.26852210E+03</pdfrwt>
<pdfrwt beam="2">  1       21 0.21280696E+00 0.26852210E+03</pdfrwt>
<totfact> 0.78080680E+03</totfact>
</mgrwt>
</event>
<event>
 4    1  0.4151607E+000  0.2635015E+03  0.7546771E-02  0.1105058E+00
         21   -1    0    0  501  502  0.00000000000E+00  0.00000000000E+00  0.17162835879E+04  0.17162835879E+04  0.00000000000E+00 0. -1.
         21   -1    0    0  502  503 -0.00000000000E+00 -0.00000000000E+00 -0.43674377925E+02  0.43674377925E+02  0.00000000000E+00 0.  1.
          6    1    1    2  501    0  0.96856579369E+02 -0.17355939746E+03  0.10752029416E+04  0.11070205179E+04  0.17300000000E+03 0. -1.
         -6    1    1    2    0  503 -0.96856579369E+02  0.17355939746E+03  0.59740626835E+03  0.65293744790E+03  0.17300000000E+03 0.  1.
<mgrwt>
<rscale>  2 0.26350154E+03</rscale>
<asrwt>0</asrwt>
<pdfrwt beam="1">  1       21 0.26404358E+00 0.26350154E+03</pdfrwt>
<pdfrwt beam="2">  1       21 0.67191364E-02 0.26350154E+03</pdfrwt>
<totfact> 0.84012028E+03</totfact>
</mgrwt>
</event>
<event>
 4    1  0.4151607E+000  0.1909588E+03  0.7546771E-02  0.1157599E+00
         21   -1    0    0  503  502  0.00000000000E+00  0.00000000000E+00  0.16994737988E+03  0.16994737988E+03  0.00000000000E+00 0. -1.
         21   -1    0    0  501  503 -0.00000000000E+00 -0.00000000000E+00 -0.24672790728E+03  0.24672790728E+03  0.00000000000E+00 0. -1.
          6    1    1    2  501    0  0.73150239104E+02 -0.34428398090E+02 -0.11360724471E+03  0.22219783556E+03  0.17300000000E+03 0. -1.
         -6    1    1    2    0  502 -0.73150239104E+02  0.34428398090E+02  0.36826717314E+02  0.19447745161E+03  0.17300000000E+03 0. -1.
<mgrwt>
<rscale>  2 0.19095882E+03</rscale>
<asrwt>0</asrwt>
<pdfrwt beam="1">  1       21 0.26145751E-01 0.19095882E+03</pdfrwt>
<pdfrwt beam="2">  1       21 0.37958139E-01 0.19095882E+03</pdfrwt>
<totfact> 0.93115956E+04</totfact>
</mgrwt>
</event>
<event>
 4    1  0.4151607E+000  0.1949784E+03  0.7546771E-02  0.1154046E+00
         21   -1    0    0  503  502  0.00000000000E+00  0.00000000000E+00  0.11582402024E+04  0.11582402024E+04  0.00000000000E+00 0. -1.
         21   -1    0    0  501  503 -0.00000000000E+00 -0.00000000000E+00 -0.43478545193E+02  0.43478545193E+02  0.00000000000E+00 0. -1.
          6    1    1    2  501    0  0.50504523241E+02 -0.74410199567E+02  0.25992050630E+03  0.32492345908E+03  0.17300000000E+03 0. -1.
         -6    1    1    2    0  502 -0.50504523241E+02  0.74410199567E+02  0.85484115089E+03  0.87679528849E+03  0.17300000000E+03 0. -1.
<mgrwt>
<rscale>  2 0.19497842E+03</rscale>
<asrwt>0</asrwt>
<pdfrwt beam="1">  1       21 0.17819078E+00 0.19497842E+03</pdfrwt>
<pdfrwt beam="2">  1       21 0.66890078E-02 0.19497842E+03</pdfrwt>
<totfact> 0.30580289E+04</totfact>
</mgrwt>
</event>
<event>
 4    1  0.4151607E+000  0.1780906E+03  0.7546771E-02  0.1169664E+00
         21   -1    0    0  501  502  0.00000000000E+00  0.00000000000E+00  0.77559242567E+03  0.77559242567E+03  0.00000000000E+00 0. -1.
         21   -1    0    0  502  503 -0.00000000000E+00 -0.00000000000E+00 -0.42510228843E+02  0.42510228843E+02  0.00000000000E+00 0. -1.
          6    1    1    2  501    0  0.52456890898E+01  0.41949209789E+02  0.44632679949E+03  0.48054538328E+03  0.17300000000E+03 0. -1.
         -6    1    1    2    0  503 -0.52456890898E+01 -0.41949209789E+02  0.28675539735E+03  0.33755727123E+03  0.17300000000E+03 0. -1.
<mgrwt>
<rscale>  2 0.17809058E+03</rscale>
<asrwt>0</asrwt>
<pdfrwt beam="1">  1       21 0.11932190E+00 0.17809058E+03</pdfrwt>
<pdfrwt beam="2">  1       21 0.65400358E-02 0.17809058E+03</pdfrwt>
<totfact> 0.91675319E+04</totfact>
</mgrwt>
</event>
<event>
 4    1  0.4151607E+000  0.1872293E+03  0.7546771E-02  0.1160984E+00
         21   -1    0    0  501  502  0.00000000000E+00  0.00000000000E+00  0.10531080375E+03  0.10531080375E+03  0.00000000000E+00 0.  1.
         21   -1    0    0  502  503 -0.00000000000E+00 -0.00000000000E+00 -0.33586688381E+03  0.33586688381E+03  0.00000000000E+00 0. -1.
          6    1    1    2  501    0 -0.38099576580E+02  0.60615351879E+02 -0.94440769056E+02  0.20969944559E+03  0.17300000000E+03 0. -1.
         -6    1    1    2    0  503  0.38099576580E+02 -0.60615351879E+02 -0.13611531101E+03  0.23147824198E+03  0.17300000000E+03 0. -1.
<mgrwt>
<rscale>  2 0.18722927E+03</rscale>
<asrwt>0</asrwt>
<pdfrwt beam="1">  1       21 0.16201662E-01 0.18722927E+03</pdfrwt>
<pdfrwt beam="2">  1       21 0.51671828E-01 0.18722927E+03</pdfrwt>
<totfact> 0.12145534E+05</totfact>
</mgrwt>
</event>
<event>
 4    1  0.4151607E+000  0.2244958E+03  0.7546771E-02  0.1130575E+00
         21   -1    0    0  501  502  0.00000000000E+00  0.00000000000E+00  0.52720476327E+02  0.52720476327E+02  0.00000000000E+00 0.  1.
         21   -1    0    0  502  503 -0.00000000000E+00 -0.00000000000E+00 -0.11287810573E+04  0.11287810573E+04  0.00000000000E+00 0. -1.
          6    1    1    2  501    0  0.10363621675E+03 -0.98635067680E+02 -0.30687411441E+03  0.38022370270E+03  0.17300000000E+03 0.  1.
         -6    1    1    2    0  503 -0.10363621675E+03  0.98635067680E+02 -0.76918646658E+03  0.80127783095E+03  0.17300000000E+03 0. -1.
<mgrwt>
<rscale>  2 0.22449575E+03</rscale>
<asrwt>0</asrwt>
<pdfrwt beam="1">  1       21 0.81108431E-02 0.22449575E+03</pdfrwt>
<pdfrwt beam="2">  1       21 0.17365861E+00 0.22449575E+03</pdfrwt>
<totfact> 0.23076951E+04</totfact>
</mgrwt>
</event>
<event>
 4    1  0.4151607E+000  0.1998300E+03  0.7546771E-02  0.1149883E+00
         21   -1    0    0  501  502  0.00000000000E+00  0.00000000000E+00  0.68485080602E+03  0.68485080602E+03  0.00000000000E+00 0. -1.
         21   -1    0    0  502  503 -0.00000000000E+00 -0.00000000000E+00 -0.58916499060E+02  0.58916499060E+02  0.00000000000E+00 0. -1.
          6    1    1    2  501    0  0.99510831465E+02  0.10031363668E+02  0.35077197779E+03  0.40369916304E+03  0.17300000000E+03 0. -1.
         -6    1    1    2    0  503 -0.99510831465E+02 -0.10031363668E+02  0.27516232917E+03  0.34006814204E+03  0.17300000000E+03 0. -1.
<mgrwt>
<rscale>  2 0.19983001E+03</rscale>
<asrwt>0</asrwt>
<pdfrwt beam="1">  1       21 0.10536166E+00 0.19983001E+03</pdfrwt>
<pdfrwt beam="2">  1       21 0.90640773E-02 0.19983001E+03</pdfrwt>
<totfact> 0.69665030E+04</totfact>
</mgrwt>
</event>
<event>
 4    1  0.4151607E+000  0.1870343E+03  0.7546771E-02  0.1161164E+00
         21   -1    0    0  503  502  0.00000000000E+00  0.00000000000E+00  0.93724648117E+03  0.93724648117E+03  0.00000000000E+00 0.  1.
         21   -1    0    0  501  503 -0.00000000000E+00 -0.00000000000E+00 -0.61076071748E+02  0.61076071748E+02  0.00000000000E+00 0.  1.
          6    1    1    2  501    0  0.60518167356E+02 -0.37287794620E+02  0.12680199848E+03  0.22596587138E+03  0.17300000000E+03 0.  1.
         -6    1    1    2    0  502 -0.60518167356E+02  0.37287794620E+02  0.74936841095E+03  0.77235668155E+03  0.17300000000E+03 0.  1.
<mgrwt>
<rscale>  2 0.18703430E+03</rscale>
<asrwt>0</asrwt>
<pdfrwt beam="1">  1       21 0.14419176E+00 0.18703430E+03</pdfrwt>
<pdfrwt beam="2">  1       21 0.93963194E-02 0.18703430E+03</pdfrwt>
<totfact> 0.30120399E+04</totfact>
</mgrwt>
</event>
<event>
 4    1  0.4151607E+000  0.2532031E+03  0.7546771E-02  0.1111297E+00
         21   -1    0    0  503  502  0.00000000000E+00  0.00000000000E+00  0.71334442475E+03  0.71334442475E+03  0.00000000000E+00 0. -1.
         21   -1    0    0  501  503 -0.00000000000E+00 -0.00000000000E+00 -0.63379086679E+03  0.63379086679E+03  0.00000000000E+00 0. -1.
          6    1    1    2  501    0 -0.17669685868E+03  0.54415450833E+02 -0.58420814779E+03  0.63671891844E+03  0.17300000000E+03 0. -1.
         -6    1    1    2    0  502  0.17669685868E+03 -0.54415450833E+02  0.66376170575E+03  0.71041637310E+03  0.17300000000E+03 0. -1.
<mgrwt>
<rscale>  2 0.25320312E+03</rscale>
<asrwt>0</asrwt>
<pdfrwt beam="1">  1       21 0.10974530E+00 0.25320312E+03</pdfrwt>
<pdfrwt beam="2">  1       21 0.97506288E-01 0.25320312E+03</pdfrwt>
<totfact> 0.53959910E+02</totfact>
</mgrwt>
</event>
<event>
 4    1  0.4151607E+000  0.1870086E+03  0.7546771E-02  0.1161187E+00
         21   -1    0    0  503  502  0.00000000000E+00  0.00000000000E+00  0.15800575376E+03  0.15800575376E+03  0.00000000000E+00 0. -1.
         21   -1    0    0  501  503 -0.00000000000E+00 -0.00000000000E+00 -0.22206296957E+03  0.22206296957E+03  0.00000000000E+00 0.  1.
          6    1    1    2  501    0 -0.66531221721E+02 -0.24835991071E+02 -0.21149311318E+02  0.18820075262E+03  0.17300000000E+03 0.  1.
         -6    1    1    2    0  502  0.66531221721E+02  0.24835991071E+02 -0.42907904496E+02  0.19186797071E+03  0.17300000000E+03 0.  1.
<mgrwt>
<rscale>  2 0.18700864E+03</rscale>
<asrwt>0</asrwt>
<pdfrwt beam="1">  1       21 0.24308578E-01 0.18700864E+03</pdfrwt>
<pdfrwt beam="2">  1       21 0.34163534E-01 0.18700864E+03</pdfrwt>
<totfact> 0.13216920E+05</totfact>
</mgrwt>
</event>
<event>
 4    1  0.4151607E+000  0.1866923E+03  0.7546771E-02  0.1161479E+00
         21   -1    0    0  503  502  0.00000000000E+00  0.00000000000E+00  0.16123251922E+03  0.16123251922E+03  0.00000000000E+00 0. -1.
         21   -1    0    0  501  503 -0.00000000000E+00 -0.00000000000E+00 -0.39269826391E+03  0.39269826391E+03  0.00000000000E+00 0. -1.
          6    1    1    2  501    0  0.68885858992E+02 -0.13406822783E+02 -0.30142791520E+03  0.35455999849E+03  0.17300000000E+03 0. -1.
         -6    1    1    2    0  502 -0.68885858992E+02  0.13406822783E+02  0.69962170504E+02  0.19937078464E+03  0.17300000000E+03 0. -1.
<mgrwt>
<rscale>  2 0.18669227E+03</rscale>
<asrwt>0</asrwt>
<pdfrwt beam="1">  1       21 0.24805004E-01 0.18669227E+03</pdfrwt>
<pdfrwt beam="2">  1       21 0.60415116E-01 0.18669227E+03</pdfrwt>
<totfact> 0.39371290E+04</totfact>
</mgrwt>
</event>
<event>
 4    1  0.4151607E+000  0.1823882E+03  0.7546771E-02  0.1165512E+00
         21   -1    0    0  503  502  0.00000000000E+00  0.00000000000E+00  0.58263116450E+02  0.58263116450E+02  0.00000000000E+00 0. -1.
         21   -1    0    0  501  503 -0.00000000000E+00 -0.00000000000E+00 -0.76281165632E+03  0.76281165632E+03  0.00000000000E+00 0. -1.
          6    1    1    2  501    0 -0.44259387153E+02 -0.37115471266E+02 -0.55816448864E+03  0.58720784049E+03  0.17300000000E+03 0.  1.
         -6    1    1    2    0  502  0.44259387153E+02  0.37115471266E+02 -0.14638405124E+03  0.23386693228E+03  0.17300000000E+03 0.  1.
<mgrwt>
<rscale>  2 0.18238819E+03</rscale>
<asrwt>0</asrwt>
<pdfrwt beam="1">  1       21 0.89635569E-02 0.18238819E+03</pdfrwt>
<pdfrwt beam="2">  1       21 0.11735563E+00 0.18238819E+03</pdfrwt>
<totfact> 0.55173227E+04</totfact>
</mgrwt>
</event>
<event>
 4    1  0.4151607E+000  0.1764255E+03  0.7546771E-02  0.1171308E+00
         21   -1    0    0  501  502  0.00000000000E+00  0.00000000000E+00  0.81133026089E+02  0.81133026089E+02  0.00000000000E+00 0. -1.
         21   -1    0    0  502  503 -0.00000000000E+00 -0.00000000000E+00 -0.38744747260E+03  0.38744747260E+03  0.00000000000E+00 0. -1.
          6    1    1    2  501    0  0.34090046516E+02 -0.59010373614E+01 -0.12993464784E+03  0.21910948456E+03  0.17300000000E+03 0. -1.
         -6    1    1    2    0  503 -0.34090046516E+02  0.59010373614E+01 -0.17637979868E+03  0.24947101414E+03  0.17300000000E+03 0. -1.
<mgrwt>
<rscale>  2 0.17642549E+03</rscale>
<asrwt>0</asrwt>
<pdfrwt beam="1">  1       21 0.12482004E-01 0.17642549E+03</pdfrwt>
<pdfrwt beam="2">  1       21 0.59607303E-01 0.17642549E+03</pdfrwt>
<totfact> 0.14449668E+05</totfact>
</mgrwt>
</event>
<event>
 4    1  0.4151607E+000  0.1840353E+03  0.7546771E-02  0.1163954E+00
         21   -1    0    0  501  502  0.00000000000E+00  0.00000000000E+00  0.11489851099E+03  0.11489851099E+03  0.00000000000E+00 0. -1.
         21   -1    0    0  502  503 -0.00000000000E+00 -0.00000000000E+00 -0.40738741111E+03  0.40738741111E+03  0.00000000000E+00 0. -1.
          6    1    1    2  501    0 -0.20551526165E+02  0.59309521066E+02 -0.89441739157E+01  0.18425249731E+03  0.17300000000E+03 0. -1.
         -6    1    1    2    0  503  0.20551526165E+02 -0.59309521066E+02 -0.28354472620E+03  0.33803342479E+03  0.17300000000E+03 0. -1.
<mgrwt>
<rscale>  2 0.18403528E+03</rscale>
<asrwt>0</asrwt>
<pdfrwt beam="1">  1       21 0.17676694E-01 0.18403528E+03</pdfrwt>
<pdfrwt beam="2">  1       21 0.62674986E-01 0.18403528E+03</pdfrwt>
<totfact> 0.68732617E+04</totfact>
</mgrwt>
</event>
<event>
 4    1  0.4151607E+000  0.3580713E+03  0.7546771E-02  0.1059350E+00
         21   -1    0    0  503  502  0.00000000000E+00  0.00000000000E+00  0.43324316563E+03  0.43324316563E+03  0.00000000000E+00 0. -1.
         21   -1    0    0  501  503 -0.00000000000E+00 -0.00000000000E+00 -0.33865961348E+03  0.33865961348E+03  0.00000000000E+00 0. -1.
          6    1    1    2  501    0 -0.24736247655E+03 -0.19260799643E+03 -0.89781316493E+02  0.36915541427E+03  0.17300000000E+03 0. -1.
         -6    1    1    2    0  502  0.24736247655E+03  0.19260799643E+03  0.18436486864E+03  0.40274736483E+03  0.17300000000E+03 0. -1.
<mgrwt>
<rscale>  2 0.35807127E+03</rscale>
<asrwt>0</asrwt>
<pdfrwt beam="1">  1       21 0.66652795E-01 0.35807127E+03</pdfrwt>
<pdfrwt beam="2">  1       21 0.52101479E-01 0.35807127E+03</pdfrwt>
<totfact> 0.65914665E+03</totfact>
</mgrwt>
</event>
<event>
 4    1  0.4151607E+000  0.1781280E+03  0.7546771E-02  0.1169627E+00
         21   -1    0    0  503  502  0.00000000000E+00  0.00000000000E+00  0.10899392779E+04  0.10899392779E+04  0.00000000000E+00 0.  1.
         21   -1    0    0  501  503 -0.00000000000E+00 -0.00000000000E+00 -0.70298088150E+02  0.70298088150E+02  0.00000000000E+00 0.  1.
          6    1    1    2  501    0  0.10471676628E+01  0.42420574974E+02  0.65778845791E+02  0.18988538199E+03  0.17300000000E+03 0.  1.
         -6    1    1    2    0  502 -0.10471676628E+01 -0.42420574974E+02  0.95386234395E+03  0.97035198405E+03  0.17300000000E+03 0.  1.
<mgrwt>
<rscale>  2 0.17812805E+03</rscale>
<asrwt>0</asrwt>
<pdfrwt beam="1">  1       21 0.16768295E+00 0.17812805E+03</pdfrwt>
<pdfrwt beam="2">  1       21 0.10815091E-01 0.17812805E+03</pdfrwt>
<totfact> 0.15818765E+04</totfact>
</mgrwt>
</event>
<event>
 4    1  0.4151607E+000  0.2267964E+03  0.7546771E-02  0.1128915E+00
         21   -1    0    0  501  502  0.00000000000E+00  0.00000000000E+00  0.84728752299E+03  0.84728752299E+03  0.00000000000E+00 0.  1.
         21   -1    0    0  502  503 -0.00000000000E+00 -0.00000000000E+00 -0.81824869573E+02  0.81824869573E+02  0.00000000000E+00 0.  1.
          6    1    1    2  501    0 -0.35544289510E+02  0.14228220423E+03  0.61873379210E+03  0.65899023334E+03  0.17300000000E+03 0.  1.
         -6    1    1    2    0  503  0.35544289510E+02 -0.14228220423E+03  0.14672886131E+03  0.27012215922E+03  0.17300000000E+03 0.  1.
<mgrwt>
<rscale>  2 0.22679643E+03</rscale>
<asrwt>0</asrwt>
<pdfrwt beam="1">  1       21 0.13035192E+00 0.22679643E+03</pdfrwt>
<pdfrwt beam="2">  1       21 0.12588442E-01 0.22679643E+03</pdfrwt>
<totfact> 0.22647453E+04</totfact>
</mgrwt>
</event>
<event>
 4    1  0.4151607E+000  0.2316486E+03  0.7546771E-02  0.1125485E+00
         21   -1    0    0  503  502  0.00000000000E+00  0.00000000000E+00  0.17579246372E+04  0.17579246372E+04  0.00000000000E+00 0.  1.
         21   -1    0    0  501  503 -0.00000000000E+00 -0.00000000000E+00 -0.33350497956E+02  0.33350497956E+02  0.00000000000E+00 0.  1.
          6    1    1    2  501    0 -0.84763246910E+02  0.12863626297E+03  0.60160622910E+03  0.64466359528E+03  0.17300000000E+03 0.  1.
         -6    1    1    2    0  502  0.84763246910E+02 -0.12863626297E+03  0.11229679101E+04  0.11466115399E+04  0.17300000000E+03 0.  1.
<mgrwt>
<rscale>  2 0.23164865E+03</rscale>
<asrwt>0</asrwt>
<pdfrwt beam="1">  1       21 0.27044987E+00 0.23164865E+03</pdfrwt>
<pdfrwt beam="2">  1       21 0.51308472E-02 0.23164865E+03</pdfrwt>
<totfact> 0.12554431E+04</totfact>
</mgrwt>
</event>
<event>
 4    1  0.4151607E+000  0.3655929E+03  0.7546771E-02  0.1056391E+00
         21   -1    0    0  501  502  0.00000000000E+00  0.00000000000E+00  0.99838745632E+02  0.99838745632E+02  0.00000000000E+00 0. -1.
         21   -1    0    0  502  503 -0.00000000000E+00 -0.00000000000E+00 -0.14249152761E+04  0.14249152761E+04  0.00000000000E+00 0.  1.
          6    1    1    2  501    0  0.12000881217E+03 -0.29887628615E+03 -0.85002300678E+03  0.92530927882E+03  0.17300000000E+03 0.  1.
         -6    1    1    2    0  503 -0.12000881217E+03  0.29887628615E+03 -0.47505352364E+03  0.59944474286E+03  0.17300000000E+03 0. -1.
<mgrwt>
<rscale>  2 0.36559287E+03</rscale>
<asrwt>0</asrwt>
<pdfrwt beam="1">  1       21 0.15359808E-01 0.36559287E+03</pdfrwt>
<pdfrwt beam="2">  1       21 0.21921772E+00 0.36559287E+03</pdfrwt>
<totfact> 0.33720131E+03</totfact>
</mgrwt>
</event>
<event>
 4    1  0.4151607E+000  0.1794642E+03  0.7546771E-02  0.1168323E+00
         21   -1    0    0  501  502  0.00000000000E+00  0.00000000000E+00  0.21613233934E+03  0.21613233934E+03  0.00000000000E+00 0. -1.
         21   -1    0    0  502  503 -0.00000000000E+00 -0.00000000000E+00 -0.16081155193E+03  0.16081155193E+03  0.00000000000E+00 0. -1.
          6    1    1    2  501    0 -0.14327895572E+02 -0.45531576319E+02  0.78702324361E+02  0.19596292734E+03  0.17300000000E+03 0. -1.
         -6    1    1    2    0  503  0.14327895572E+02  0.45531576319E+02 -0.23381536952E+02  0.18098096393E+03  0.17300000000E+03 0. -1.
<mgrwt>
<rscale>  2 0.17946424E+03</rscale>
<asrwt>0</asrwt>
<pdfrwt beam="1">  1       21 0.33251129E-01 0.17946424E+03</pdfrwt>
<pdfrwt beam="2">  1       21 0.24740239E-01 0.17946424E+03</pdfrwt>
<totfact> 0.13517120E+05</totfact>
</mgrwt>
</event>
<event>
 4    1  0.4151607E+000  0.2072043E+03  0.7546771E-02  0.1143799E+00
         21   -1    0    0  503  502  0.00000000000E+00  0.00000000000E+00  0.10977476654E+03  0.10977476654E+03  0.00000000000E+00 0.  1.
         21   -1    0    0  501  503 -0.00000000000E+00 -0.00000000000E+00 -0.62343952106E+03  0.62343952106E+03  0.00000000000E+00 0.  1.
          6    1    1    2  501    0  0.57850276567E+02  0.98274875497E+02 -0.48063202104E+03  0.52339348994E+03  0.17300000000E+03 0.  1.
         -6    1    1    2    0  502 -0.57850276567E+02 -0.98274875497E+02 -0.33032733480E+02  0.20982079767E+03  0.17300000000E+03 0.  1.
<mgrwt>
<rscale>  2 0.20720426E+03</rscale>
<asrwt>0</asrwt>
<pdfrwt beam="1">  1       21 0.16888426E-01 0.20720426E+03</pdfrwt>
<pdfrwt beam="2">  1       21 0.95913772E-01 0.20720426E+03</pdfrwt>
<totfact> 0.28364736E+04</totfact>
</mgrwt>
</event>
<event>
 4    1  0.4151607E+000  0.1874571E+03  0.7546771E-02  0.1160775E+00
         21   -1    0    0  503  502  0.00000000000E+00  0.00000000000E+00  0.23290237057E+03  0.23290237057E+03  0.00000000000E+00 0. -1.
         21   -1    0    0  501  503 -0.00000000000E+00 -0.00000000000E+00 -0.15464512514E+03  0.15464512514E+03  0.00000000000E+00 0. -1.
          6    1    1    2  501    0  0.36362495231E+02  0.62361208415E+02  0.88904373361E+01  0.18766776828E+03  0.17300000000E+03 0.  1.
         -6    1    1    2    0  502 -0.36362495231E+02 -0.62361208415E+02  0.69366808098E+02  0.19987972744E+03  0.17300000000E+03 0.  1.
<mgrwt>
<rscale>  2 0.18745707E+03</rscale>
<asrwt>0</asrwt>
<pdfrwt beam="1">  1       21 0.35831134E-01 0.18745707E+03</pdfrwt>
<pdfrwt beam="2">  1       21 0.23791558E-01 0.18745707E+03</pdfrwt>
<totfact> 0.12524363E+05</totfact>
</mgrwt>
</event>
<event>
 4    1  0.4151607E+000  0.1818296E+03  0.7546771E-02  0.1166044E+00
         21   -1    0    0  503  502  0.00000000000E+00  0.00000000000E+00  0.37200188160E+03  0.37200188160E+03  0.00000000000E+00 0.  1.
         21   -1    0    0  501  503 -0.00000000000E+00 -0.00000000000E+00 -0.11543024578E+03  0.11543024578E+03  0.00000000000E+00 0.  1.
          6    1    1    2  501    0 -0.44438808026E+02 -0.34032351547E+02  0.11391876242E+02  0.18218612311E+03  0.17300000000E+03 0.  1.
         -6    1    1    2    0  502  0.44438808026E+02  0.34032351547E+02  0.24517975958E+03  0.30524600427E+03  0.17300000000E+03 0.  1.
<mgrwt>
<rscale>  2 0.18182961E+03</rscale>
<asrwt>0</asrwt>
<pdfrwt beam="1">  1       21 0.57231058E-01 0.18182961E+03</pdfrwt>
<pdfrwt beam="2">  1       21 0.17758500E-01 0.18182961E+03</pdfrwt>
<totfact> 0.82882919E+04</totfact>
</mgrwt>
</event>
<event>
 4    1  0.4151607E+000  0.2358510E+03  0.7546771E-02  0.1122588E+00
         21   -1    0    0  503  502  0.00000000000E+00  0.00000000000E+00  0.19352813875E+03  0.19352813875E+03  0.00000000000E+00 0. -1.
         21   -1    0    0  501  503 -0.00000000000E+00 -0.00000000000E+00 -0.29608060934E+03  0.29608060934E+03  0.00000000000E+00 0.  1.
          6    1    1    2  501    0  0.77984255101E+02  0.14005415467E+03 -0.94307837391E+01  0.23603950933E+03  0.17300000000E+03 0. -1.
         -6    1    1    2    0  502 -0.77984255101E+02 -0.14005415467E+03 -0.93121686850E+02  0.25356923876E+03  0.17300000000E+03 0.  1.
<mgrwt>
<rscale>  2 0.23585103E+03</rscale>
<asrwt>0</asrwt>
<pdfrwt beam="1">  1       21 0.29773560E-01 0.23585103E+03</pdfrwt>
<pdfrwt beam="2">  1       21 0.45550863E-01 0.23585103E+03</pdfrwt>
<totfact> 0.48997170E+04</totfact>
</mgrwt>
</event>
<event>
 4    1  0.4151607E+000  0.2314631E+03  0.7546771E-02  0.1125614E+00
         21   -1    0    0  501  502  0.00000000000E+00  0.00000000000E+00  0.14175980342E+03  0.14175980342E+03  0.00000000000E+00 0.  1.
         21   -1    0    0  502  503 -0.00000000000E+00 -0.00000000000E+00 -0.43957298511E+03  0.43957298511E+03  0.00000000000E+00 0.  1.
          6    1    1    2  501    0 -0.11817113021E+03 -0.98395885770E+02 -0.40057691150E+02  0.23490377811E+03  0.17300000000E+03 0.  1.
         -6    1    1    2    0  503  0.11817113021E+03  0.98395885770E+02 -0.25775549055E+03  0.34642901042E+03  0.17300000000E+03 0.  1.
<mgrwt>
<rscale>  2 0.23146310E+03</rscale>
<asrwt>0</asrwt>
<pdfrwt beam="1">  1       21 0.21809201E-01 0.23146310E+03</pdfrwt>
<pdfrwt beam="2">  1       21 0.67626613E-01 0.23146310E+03</pdfrwt>
<totfact> 0.38472236E+04</totfact>
</mgrwt>
</event>
<event>
 4    1  0.4151607E+000  0.1938321E+03  0.7546771E-02  0.1155050E+00
         21   -1    0    0  503  502  0.00000000000E+00  0.00000000000E+00  0.93351530028E+02  0.93351530028E+02  0.00000000000E+00 0.  1.
         21   -1    0    0  501  503 -0.00000000000E+00 -0.00000000000E+00 -0.49628937996E+03  0.49628937996E+03  0.00000000000E+00 0.  1.
          6    1    1    2  501    0 -0.87347612729E+02  0.35041360538E+01 -0.32965592503E+03  0.38241850547E+03  0.17300000000E+03 0.  1.
         -6    1    1    2    0  502  0.87347612729E+02 -0.35041360538E+01 -0.73281924910E+02  0.20722240453E+03  0.17300000000E+03 0.  1.
<mgrwt>
<rscale>  2 0.19383210E+03</rscale>
<asrwt>0</asrwt>
<pdfrwt beam="1">  1       21 0.14361774E-01 0.19383210E+03</pdfrwt>
<pdfrwt beam="2">  1       21 0.76352213E-01 0.19383210E+03</pdfrwt>
<totfact> 0.64823483E+04</totfact>
</mgrwt>
</event>
<event>
 4    1  0.4151607E+000  0.2250648E+03  0.7546771E-02  0.1130162E+00
         21   -1    0    0  503  502  0.00000000000E+00  0.00000000000E+00  0.76035932487E+03  0.76035932487E+03  0.00000000000E+00 0. -1.
         21   -1    0    0  501  503 -0.00000000000E+00 -0.00000000000E+00 -0.66638305494E+02  0.66638305494E+02  0.00000000000E+00 0.  1.
          6    1    1    2  501    0  0.12922981887E+03  0.63441626848E+02  0.35394438823E+03  0.41944107579E+03  0.17300000000E+03 0.  1.
         -6    1    1    2    0  502 -0.12922981887E+03 -0.63441626848E+02  0.33977663114E+03  0.40755655457E+03  0.17300000000E+03 0. -1.
<mgrwt>
<rscale>  2 0.22506485E+03</rscale>
<asrwt>0</asrwt>
<pdfrwt beam="1">  1       21 0.11697835E+00 0.22506485E+03</pdfrwt>
<pdfrwt beam="2">  1       21 0.10252048E-01 0.22506485E+03</pdfrwt>
<totfact> 0.42930126E+04</totfact>
</mgrwt>
</event>
<event>
 4    1  0.4151607E+000  0.1804913E+03  0.7546771E-02  0.1167328E+00
         21   -1    0    0  501  502  0.00000000000E+00  0.00000000000E+00  0.15683666295E+03  0.15683666295E+03  0.00000000000E+00 0. -1.
         21   -1    0    0  502  503 -0.00000000000E+00 -0.00000000000E+00 -0.56881577919E+03  0.56881577919E+03  0.00000000000E+00 0. -1.
          6    1    1    2  501    0  0.44329138938E+01 -0.51268543549E+02  0.83096986360E+02  0.19870134228E+03  0.17300000000E+03 0. -1.
         -6    1    1    2    0  503 -0.44329138938E+01  0.51268543549E+02 -0.49507610259E+03  0.52695109986E+03  0.17300000000E+03 0. -1.
<mgrwt>
<rscale>  2 0.18049131E+03</rscale>
<asrwt>0</asrwt>
<pdfrwt beam="1">  1       21 0.24128718E-01 0.18049131E+03</pdfrwt>
<pdfrwt beam="2">  1       21 0.87510119E-01 0.18049131E+03</pdfrwt>
<totfact> 0.18302424E+04</totfact>
</mgrwt>
</event>
<event>
 4    1  0.4151607E+000  0.1919151E+03  0.7546771E-02  0.1156745E+00
         21   -1    0    0  503  502  0.00000000000E+00  0.00000000000E+00  0.83213913700E+02  0.83213913700E+02  0.00000000000E+00 0.  1.
         21   -1    0    0  501  503 -0.00000000000E+00 -0.00000000000E+00 -0.51689537474E+03  0.51689537474E+03  0.00000000000E+00 0.  1.
          6    1    1    2  501    0 -0.46566341718E+02 -0.68803907635E+02 -0.33058970072E+03  0.38225770379E+03  0.17300000000E+03 0.  1.
         -6    1    1    2    0  502  0.46566341718E+02  0.68803907635E+02 -0.10309176032E+03  0.21785158464E+03  0.17300000000E+03 0.  1.
<mgrwt>
<rscale>  2 0.19191509E+03</rscale>
<asrwt>0</asrwt>
<pdfrwt beam="1">  1       21 0.12802141E-01 0.19191509E+03</pdfrwt>
<pdfrwt beam="2">  1       21 0.79522365E-01 0.19191509E+03</pdfrwt>
<totfact> 0.72871875E+04</totfact>
</mgrwt>
</event>
<event>
 4    1  0.4151607E+000  0.1819742E+03  0.7546771E-02  0.1165906E+00
         21   -1    0    0  503  502  0.00000000000E+00  0.00000000000E+00  0.36925842596E+03  0.36925842596E+03  0.00000000000E+00 0.  1.
         21   -1    0    0  501  503 -0.00000000000E+00 -0.00000000000E+00 -0.10580487500E+03  0.10580487500E+03  0.00000000000E+00 0.  1.
          6    1    1    2  501    0 -0.45996259897E+02 -0.32709899335E+02  0.38993598285E+02  0.18610506212E+03  0.17300000000E+03 0.  1.
         -6    1    1    2    0  502  0.45996259897E+02  0.32709899335E+02  0.22445995268E+03  0.28895823884E+03  0.17300000000E+03 0.  1.
<mgrwt>
<rscale>  2 0.18197416E+03</rscale>
<asrwt>0</asrwt>
<pdfrwt beam="1">  1       21 0.56808988E-01 0.18197416E+03</pdfrwt>
<pdfrwt beam="2">  1       21 0.16277673E-01 0.18197416E+03</pdfrwt>
<totfact> 0.98796915E+04</totfact>
</mgrwt>
</event>
<event>
 4    1  0.4151607E+000  0.1787697E+03  0.7546771E-02  0.1168999E+00
         21   -1    0    0  503  502  0.00000000000E+00  0.00000000000E+00  0.24845911361E+03  0.24845911361E+03  0.00000000000E+00 0. -1.
         21   -1    0    0  501  503 -0.00000000000E+00 -0.00000000000E+00 -0.13131483960E+03  0.13131483960E+03  0.00000000000E+00 0.  1.
          6    1    1    2  501    0  0.38258986503E+02 -0.23787808777E+02  0.31406455437E+02  0.18150750766E+03  0.17300000000E+03 0. -1.
         -6    1    1    2    0  502 -0.38258986503E+02  0.23787808777E+02  0.85737818573E+02  0.19826644554E+03  0.17300000000E+03 0. -1.
<mgrwt>
<rscale>  2 0.17876971E+03</rscale>
<asrwt>0</asrwt>
<pdfrwt beam="1">  1       21 0.38224479E-01 0.17876971E+03</pdfrwt>
<pdfrwt beam="2">  1       21 0.20202283E-01 0.17876971E+03</pdfrwt>
<totfact> 0.15018356E+05</totfact>
</mgrwt>
</event>
<event>
 4    1  0.4151607E+000  0.2460928E+03  0.7546771E-02  0.1115799E+00
         21   -1    0    0  501  502  0.00000000000E+00  0.00000000000E+00  0.12071362517E+04  0.12071362517E+04  0.00000000000E+00 0.  1.
         21   -1    0    0  502  503 -0.00000000000E+00 -0.00000000000E+00 -0.80301950959E+02  0.80301950959E+02  0.00000000000E+00 0.  1.
          6    1    1    2  501    0 -0.17264033362E+03  0.28774452611E+02  0.95773750322E+03  0.98884921954E+03  0.17300000000E+03 0.  1.
         -6    1    1    2    0  503  0.17264033362E+03 -0.28774452611E+02  0.16909679755E+03  0.29858898315E+03  0.17300000000E+03 0.  1.
<mgrwt>
<rscale>  2 0.24609278E+03</rscale>
<asrwt>0</asrwt>
<pdfrwt beam="1">  1       21 0.18571326E+00 0.24609278E+03</pdfrwt>
<pdfrwt beam="2">  1       21 0.12354147E-01 0.24609278E+03</pdfrwt>
<totfact> 0.89104491E+03</totfact>
</mgrwt>
</event>
<event>
 4    1  0.4151607E+000  0.2230983E+03  0.7546771E-02  0.1131594E+00
         21   -1    0    0  501  502  0.00000000000E+00  0.00000000000E+00  0.32600557282E+03  0.32600557282E+03  0.00000000000E+00 0.  1.
         21   -1    0    0  502  503 -0.00000000000E+00 -0.00000000000E+00 -0.20530736104E+03  0.20530736104E+03  0.00000000000E+00 0.  1.
          6    1    1    2  501    0  0.60263252992E+02  0.12732705762E+03  0.19485624560E+03  0.29621241654E+03  0.17300000000E+03 0.  1.
         -6    1    1    2    0  503 -0.60263252992E+02 -0.12732705762E+03 -0.74158033819E+02  0.23510051732E+03  0.17300000000E+03 0.  1.
<mgrwt>
<rscale>  2 0.22309827E+03</rscale>
<asrwt>0</asrwt>
<pdfrwt beam="1">  1       21 0.50154704E-01 0.22309827E+03</pdfrwt>
<pdfrwt beam="2">  1       21 0.31585748E-01 0.22309827E+03</pdfrwt>
<totfact> 0.35917665E+04</totfact>
</mgrwt>
</event>
<event>
 4    1  0.4151607E+000  0.2177858E+03  0.7546771E-02  0.1135545E+00
         21   -1    0    0  503  502  0.00000000000E+00  0.00000000000E+00  0.21697252157E+03  0.21697252157E+03  0.00000000000E+00 0.  1.
         21   -1    0    0  501  503 -0.00000000000E+00 -0.00000000000E+00 -0.26705282764E+03  0.26705282764E+03  0.00000000000E+00 0.  1.
          6    1    1    2  501    0 -0.60054578936E+02  0.11787748104E+03 -0.12812375550E+03  0.25267835228E+03  0.17300000000E+03 0.  1.
         -6    1    1    2    0  502  0.60054578936E+02 -0.11787748104E+03  0.78043449426E+02  0.23134699693E+03  0.17300000000E+03 0.  1.
<mgrwt>
<rscale>  2 0.21778580E+03</rscale>
<asrwt>0</asrwt>
<pdfrwt beam="1">  1       21 0.33380388E-01 0.21778580E+03</pdfrwt>
<pdfrwt beam="2">  1       21 0.41085050E-01 0.21778580E+03</pdfrwt>
<totfact> 0.48726405E+04</totfact>
</mgrwt>
</event>
<event>
 4    1  0.4151607E+000  0.2657339E+03  0.7546771E-02  0.1103746E+00
         21   -1    0    0  503  502  0.00000000000E+00  0.00000000000E+00  0.43675926114E+02  0.43675926114E+02  0.00000000000E+00 0.  1.
         21   -1    0    0  501  503 -0.00000000000E+00 -0.00000000000E+00 -0.16535849625E+04  0.16535849625E+04  0.00000000000E+00 0. -1.
          6    1    1    2  501    0 -0.52932056169E+02  0.19463734832E+03 -0.93155639785E+03  0.96871658513E+03  0.17300000000E+03 0. -1.
         -6    1    1    2    0  502  0.52932056169E+02 -0.19463734832E+03 -0.67835263854E+03  0.72854430349E+03  0.17300000000E+03 0.  1.
<mgrwt>
<rscale>  2 0.26573389E+03</rscale>
<asrwt>0</asrwt>
<pdfrwt beam="1">  1       21 0.67193727E-02 0.26573389E+03</pdfrwt>
<pdfrwt beam="2">  1       21 0.25439771E+00 0.26573389E+03</pdfrwt>
<totfact> 0.95684786E+03</totfact>
</mgrwt>
</event>
<event>
 4    1  0.4151607E+000  0.3704374E+03  0.7546771E-02  0.1054526E+00
         21   -1    0    0  503  502  0.00000000000E+00  0.00000000000E+00  0.79061429805E+03  0.79061429805E+03  0.00000000000E+00 0.  1.
         21   -1    0    0  501  503 -0.00000000000E+00 -0.00000000000E+00 -0.32026510958E+03  0.32026510958E+03  0.00000000000E+00 0. -1.
          6    1    1    2  501    0  0.23879737789E+03 -0.22421126827E+03 -0.14074557039E+03  0.39627414259E+03  0.17300000000E+03 0. -1.
         -6    1    1    2    0  502 -0.23879737789E+03  0.22421126827E+03  0.61109475886E+03  0.71460526503E+03  0.17300000000E+03 0.  1.
<mgrwt>
<rscale>  2 0.37043742E+03</rscale>
<asrwt>0</asrwt>
<pdfrwt beam="1">  1       21 0.12163297E+00 0.37043742E+03</pdfrwt>
<pdfrwt beam="2">  1       21 0.49271556E-01 0.37043742E+03</pdfrwt>
<totfact> 0.17814085E+03</totfact>
</mgrwt>
</event>
<event>
 4    1  0.4151607E+000  0.1829735E+03  0.7546771E-02  0.1164956E+00
         21   -1    0    0  501  502  0.00000000000E+00  0.00000000000E+00  0.84951815114E+03  0.84951815114E+03  0.00000000000E+00 0. -1.
         21   -1    0    0  502  503 -0.00000000000E+00 -0.00000000000E+00 -0.13485111750E+03  0.13485111750E+03  0.00000000000E+00 0. -1.
          6    1    1    2  501    0 -0.56503984047E+01  0.59315872325E+02  0.77139906617E+03  0.79280250946E+03  0.17300000000E+03 0. -1.
         -6    1    1    2    0  503  0.56503984047E+01 -0.59315872325E+02 -0.56732032530E+02  0.19156675919E+03  0.17300000000E+03 0. -1.
<mgrwt>
<rscale>  2 0.18297349E+03</rscale>
<asrwt>0</asrwt>
<pdfrwt beam="1">  1       21 0.13069510E+00 0.18297349E+03</pdfrwt>
<pdfrwt beam="2">  1       21 0.20746326E-01 0.18297349E+03</pdfrwt>
<totfact> 0.92588208E+03</totfact>
</mgrwt>
</event>
<event>
 4    1  0.4151607E+000  0.1937677E+03  0.7546771E-02  0.1155106E+00
         21   -1    0    0  503  502  0.00000000000E+00  0.00000000000E+00  0.33250019051E+03  0.33250019051E+03  0.00000000000E+00 0. -1.
         21   -1    0    0  501  503 -0.00000000000E+00 -0.00000000000E+00 -0.11382625867E+03  0.11382625867E+03  0.00000000000E+00 0.  1.
          6    1    1    2  501    0 -0.42771025223E+02 -0.76076035273E+02  0.89424461790E+02  0.21340725880E+03  0.17300000000E+03 0. -1.
         -6    1    1    2    0  502  0.42771025223E+02  0.76076035273E+02  0.12924947004E+03  0.23291919038E+03  0.17300000000E+03 0.  1.
<mgrwt>
<rscale>  2 0.19376771E+03</rscale>
<asrwt>0</asrwt>
<pdfrwt beam="1">  1       21 0.51153875E-01 0.19376771E+03</pdfrwt>
<pdfrwt beam="2">  1       21 0.17511732E-01 0.19376771E+03</pdfrwt>
<totfact> 0.10727567E+05</totfact>
</mgrwt>
</event>
<event>
 4    1  0.4151607E+000  0.1952020E+03  0.7546771E-02  0.1153851E+00
         21   -1    0    0  503  502  0.00000000000E+00  0.00000000000E+00  0.16873202647E+04  0.16873202647E+04  0.00000000000E+00 0.  1.
         21   -1    0    0  501  503 -0.00000000000E+00 -0.00000000000E+00 -0.22857325175E+02  0.22857325175E+02  0.00000000000E+00 0.  1.
          6    1    1    2  501    0 -0.11135510665E+02 -0.89726269737E+02  0.73845869344E+03  0.76382265284E+03  0.17300000000E+03 0.  1.
         -6    1    1    2    0  502  0.11135510665E+02  0.89726269737E+02  0.92600424608E+03  0.94635493703E+03  0.17300000000E+03 0.  1.
<mgrwt>
<rscale>  2 0.19520195E+03</rscale>
<asrwt>0</asrwt>
<pdfrwt beam="1">  1       21 0.25958764E+00 0.19520195E+03</pdfrwt>
<pdfrwt beam="2">  1       21 0.35165129E-02 0.19520195E+03</pdfrwt>
<totfact> 0.28335609E+04</totfact>
</mgrwt>
</event>
<event>
 4    1  0.4151607E+000  0.1878459E+03  0.7546771E-02  0.1160419E+00
         21   -1    0    0  503  502  0.00000000000E+00  0.00000000000E+00  0.18458799094E+03  0.18458799094E+03  0.00000000000E+00 0.  1.
         21   -1    0    0  501  503 -0.00000000000E+00 -0.00000000000E+00 -0.23527593967E+03  0.23527593967E+03  0.00000000000E+00 0.  1.
          6    1    1    2  501    0  0.12543863692E+02 -0.72109159719E+02 -0.11624759992E+03  0.22090627859E+03  0.17300000000E+03 0.  1.
         -6    1    1    2    0  502 -0.12543863692E+02  0.72109159719E+02  0.65559651188E+02  0.19895765202E+03  0.17300000000E+03 0.  1.
<mgrwt>
<rscale>  2 0.18784589E+03</rscale>
<asrwt>0</asrwt>
<pdfrwt beam="1">  1       21 0.28398152E-01 0.18784589E+03</pdfrwt>
<pdfrwt beam="2">  1       21 0.36196298E-01 0.18784589E+03</pdfrwt>
<totfact> 0.87425092E+04</totfact>
</mgrwt>
</event>
<event>
 4    1  0.4151607E+000  0.2179695E+03  0.7546771E-02  0.1135406E+00
         21   -1    0    0  503  502  0.00000000000E+00  0.00000000000E+00  0.26036053143E+03  0.26036053143E+03  0.00000000000E+00 0.  1.
         21   -1    0    0  501  503 -0.00000000000E+00 -0.00000000000E+00 -0.20304339812E+03  0.20304339812E+03  0.00000000000E+00 0.  1.
          6    1    1    2  501    0 -0.12685623931E+03  0.38590395330E+02 -0.45077042974E+02  0.22258181387E+03  0.17300000000E+03 0.  1.
         -6    1    1    2    0  502  0.12685623931E+03 -0.38590395330E+02  0.10239417628E+03  0.24082211568E+03  0.17300000000E+03 0.  1.
<mgrwt>
<rscale>  2 0.21796955E+03</rscale>
<asrwt>0</asrwt>
<pdfrwt beam="1">  1       21 0.40055467E-01 0.21796955E+03</pdfrwt>
<pdfrwt beam="2">  1       21 0.31237446E-01 0.21796955E+03</pdfrwt>
<totfact> 0.58468812E+04</totfact>
</mgrwt>
</event>
<event>
 4    1  0.4151607E+000  0.2005281E+03  0.7546771E-02  0.1149294E+00
         21   -1    0    0  501  502  0.00000000000E+00  0.00000000000E+00  0.14659009909E+04  0.14659009909E+04  0.00000000000E+00 0. -1.
         21   -1    0    0  502  503 -0.00000000000E+00 -0.00000000000E+00 -0.27458078921E+02  0.27458078921E+02  0.00000000000E+00 0. -1.
          6    1    1    2  501    0 -0.65381357353E+02  0.77509975468E+02  0.74255503334E+03  0.76915505311E+03  0.17300000000E+03 0. -1.
         -6    1    1    2    0  503  0.65381357353E+02 -0.77509975468E+02  0.69588787868E+03  0.72420401675E+03  0.17300000000E+03 0. -1.
<mgrwt>
<rscale>  2 0.20052810E+03</rscale>
<asrwt>0</asrwt>
<pdfrwt beam="1">  1       21 0.22552317E+00 0.20052810E+03</pdfrwt>
<pdfrwt beam="2">  1       21 0.42243210E-02 0.20052810E+03</pdfrwt>
<totfact> 0.33085287E+04</totfact>
</mgrwt>
</event>
<event>
 4    1  0.4151607E+000  0.2310195E+03  0.7546771E-02  0.1125924E+00
         21   -1    0    0  503  502  0.00000000000E+00  0.00000000000E+00  0.11316989297E+03  0.11316989297E+03  0.00000000000E+00 0.  1.
         21   -1    0    0  501  503 -0.00000000000E+00 -0.00000000000E+00 -0.50499356294E+03  0.50499356294E+03  0.00000000000E+00 0.  1.
          6    1    1    2  501    0 -0.13776192012E+03 -0.66803085472E+02 -0.27540225630E+03  0.35946682967E+03  0.17300000000E+03 0.  1.
         -6    1    1    2    0  502  0.13776192012E+03  0.66803085472E+02 -0.11642141368E+03  0.25869662624E+03  0.17300000000E+03 0.  1.
<mgrwt>
<rscale>  2 0.23101948E+03</rscale>
<asrwt>0</asrwt>
<pdfrwt beam="1">  1       21 0.17410753E-01 0.23101948E+03</pdfrwt>
<pdfrwt beam="2">  1       21 0.77691318E-01 0.23101948E+03</pdfrwt>
<totfact> 0.43045842E+04</totfact>
</mgrwt>
</event>
<event>
 4    1  0.4151607E+000  0.1990757E+03  0.7546771E-02  0.1150521E+00
         21   -1    0    0  501  502  0.00000000000E+00  0.00000000000E+00  0.16980020532E+03  0.16980020532E+03  0.00000000000E+00 0. -1.
         21   -1    0    0  502  503 -0.00000000000E+00 -0.00000000000E+00 -0.26372505908E+03  0.26372505908E+03  0.00000000000E+00 0.  1.
          6    1    1    2  501    0  0.14278905222E+02 -0.97458974033E+02  0.26542966955E+02  0.20083741646E+03  0.17300000000E+03 0. -1.
         -6    1    1    2    0  503 -0.14278905222E+02  0.97458974033E+02 -0.12046782071E+03  0.23268784794E+03  0.17300000000E+03 0.  1.
<mgrwt>
<rscale>  2 0.19907571E+03</rscale>
<asrwt>0</asrwt>
<pdfrwt beam="1">  1       21 0.26123109E-01 0.19907571E+03</pdfrwt>
<pdfrwt beam="2">  1       21 0.40573086E-01 0.19907571E+03</pdfrwt>
<totfact> 0.81276302E+04</totfact>
</mgrwt>
</event>
<event>
 4    1  0.4151607E+000  0.3335203E+03  0.7546771E-02  0.1069590E+00
         21   -1    0    0  503  502  0.00000000000E+00  0.00000000000E+00  0.30399433301E+03  0.30399433301E+03  0.00000000000E+00 0.  1.
         21   -1    0    0  501  503 -0.00000000000E+00 -0.00000000000E+00 -0.39494216032E+03  0.39494216032E+03  0.00000000000E+00 0. -1.
          6    1    1    2  501    0 -0.25339306501E+03  0.13076210708E+03 -0.14021774291E+03  0.36179661341E+03  0.17300000000E+03 0.  1.
         -6    1    1    2    0  502  0.25339306501E+03 -0.13076210708E+03  0.49269915606E+02  0.33713987992E+03  0.17300000000E+03 0. -1.
<mgrwt>
<rscale>  2 0.33352028E+03</rscale>
<asrwt>0</asrwt>
<pdfrwt beam="1">  1       21 0.46768359E-01 0.33352028E+03</pdfrwt>
<pdfrwt beam="2">  1       21 0.60760332E-01 0.33352028E+03</pdfrwt>
<totfact> 0.10249512E+04</totfact>
</mgrwt>
</event>
<event>
 4    1  0.4151607E+000  0.1932385E+03  0.7546771E-02  0.1155572E+00
         21   -1    0    0  501  502  0.00000000000E+00  0.00000000000E+00  0.45847785250E+03  0.45847785250E+03  0.00000000000E+00 0.  1.
         21   -1    0    0  502  503 -0.00000000000E+00 -0.00000000000E+00 -0.14581828025E+03  0.14581828025E+03  0.00000000000E+00 0.  1.
          6    1    1    2  501    0 -0.40014174741E+02  0.76229833441E+02  0.35708358020E+03  0.40601700080E+03  0.17300000000E+03 0.  1.
         -6    1    1    2    0  503  0.40014174741E+02 -0.76229833441E+02 -0.44424007956E+02  0.19827913196E+03  0.17300000000E+03 0.  1.
<mgrwt>
<rscale>  2 0.19323851E+03</rscale>
<asrwt>0</asrwt>
<pdfrwt beam="1">  1       21 0.70535053E-01 0.19323851E+03</pdfrwt>
<pdfrwt beam="2">  1       21 0.22433582E-01 0.19323851E+03</pdfrwt>
<totfact> 0.33891330E+04</totfact>
</mgrwt>
</event>
<event>
 4    1  0.4151607E+000  0.1733035E+03  0.7546771E-02  0.1174446E+00
         21   -1    0    0  501  502  0.00000000000E+00  0.00000000000E+00  0.12253626314E+03  0.12253626314E+03  0.00000000000E+00 0. -1.
         21   -1    0    0  502  503 -0.00000000000E+00 -0.00000000000E+00 -0.35862558036E+03  0.35862558036E+03  0.00000000000E+00 0. -1.
          6    1    1    2  501    0  0.91267991960E+01 -0.46701288326E+01  0.17312139892E+02  0.17416606660E+03  0.17300000000E+03 0. -1.
         -6    1    1    2    0  503 -0.91267991960E+01  0.46701288326E+01 -0.25340145711E+03  0.30699577690E+03  0.17300000000E+03 0. -1.
<mgrwt>
<rscale>  2 0.17330352E+03</rscale>
<asrwt>0</asrwt>
<pdfrwt beam="1">  1       21 0.18851733E-01 0.17330352E+03</pdfrwt>
<pdfrwt beam="2">  1       21 0.55173166E-01 0.17330352E+03</pdfrwt>
<totfact> 0.80494772E+04</totfact>
</mgrwt>
</event>
<event>
 4    1  0.4151607E+000  0.3007165E+03  0.7546771E-02  0.1084883E+00
         21   -1    0    0  501  502  0.00000000000E+00  0.00000000000E+00  0.70128339884E+03  0.70128339884E+03  0.00000000000E+00 0. -1.
         21   -1    0    0  502  503 -0.00000000000E+00 -0.00000000000E+00 -0.13528110045E+03  0.13528110045E+03  0.00000000000E+00 0.  1.
          6    1    1    2  501    0  0.23936797596E+03  0.56607495687E+02  0.37348963072E+03  0.47950489126E+03  0.17300000000E+03 0. -1.
         -6    1    1    2    0  503 -0.23936797596E+03 -0.56607495687E+02  0.19251266767E+03  0.35705960804E+03  0.17300000000E+03 0.  1.
<mgrwt>
<rscale>  2 0.30071654E+03</rscale>
<asrwt>0</asrwt>
<pdfrwt beam="1">  1       21 0.10788975E+00 0.30071654E+03</pdfrwt>
<pdfrwt beam="2">  1       21 0.20812477E-01 0.30071654E+03</pdfrwt>
<totfact> 0.13818401E+04</totfact>
</mgrwt>
</event>
<event>
 4    1  0.4151607E+000  0.1740621E+03  0.7546771E-02  0.1173677E+00
         21   -1    0    0  503  502  0.00000000000E+00  0.00000000000E+00  0.10142304242E+03  0.10142304242E+03  0.00000000000E+00 0. -1.
         21   -1    0    0  501  503 -0.00000000000E+00 -0.00000000000E+00 -0.38649748222E+03  0.38649748222E+03  0.00000000000E+00 0. -1.
          6    1    1    2  501    0 -0.18746065438E+02 -0.41454279652E+01 -0.25879577422E+03  0.31188596040E+03  0.17300000000E+03 0. -1.
         -6    1    1    2    0  502  0.18746065438E+02  0.41454279652E+01 -0.26278665578E+02  0.17603456424E+03  0.17300000000E+03 0. -1.
<mgrwt>
<rscale>  2 0.17406206E+03</rscale>
<asrwt>0</asrwt>
<pdfrwt beam="1">  1       21 0.15603545E-01 0.17406206E+03</pdfrwt>
<pdfrwt beam="2">  1       21 0.59461152E-01 0.17406206E+03</pdfrwt>
<totfact> 0.97144705E+04</totfact>
</mgrwt>
</event>
<event>
 4    1  0.4151607E+000  0.1966389E+03  0.7546771E-02  0.1152606E+00
         21   -1    0    0  503  502  0.00000000000E+00  0.00000000000E+00  0.45472386749E+03  0.45472386749E+03  0.00000000000E+00 0.  1.
         21   -1    0    0  501  503 -0.00000000000E+00 -0.00000000000E+00 -0.97149348962E+02  0.97149348962E+02  0.00000000000E+00 0.  1.
          6    1    1    2  501    0 -0.22376606672E+02 -0.90758791065E+02  0.81341708275E+02  0.21279883502E+03  0.17300000000E+03 0.  1.
         -6    1    1    2    0  502  0.22376606672E+02  0.90758791065E+02  0.27623281025E+03  0.33907438143E+03  0.17300000000E+03 0.  1.
<mgrwt>
<rscale>  2 0.19663893E+03</rscale>
<asrwt>0</asrwt>
<pdfrwt beam="1">  1       21 0.69957517E-01 0.19663893E+03</pdfrwt>
<pdfrwt beam="2">  1       21 0.14946054E-01 0.19663893E+03</pdfrwt>
<totfact> 0.73133349E+04</totfact>
</mgrwt>
</event>
<event>
 4    1  0.4151607E+000  0.3154754E+03  0.7546771E-02  0.1077751E+00
         21   -1    0    0  501  502  0.00000000000E+00  0.00000000000E+00  0.65610697864E+03  0.65610697864E+03  0.00000000000E+00 0.  1.
         21   -1    0    0  502  503 -0.00000000000E+00 -0.00000000000E+00 -0.24077216762E+03  0.24077216762E+03  0.00000000000E+00 0. -1.
          6    1    1    2  501    0 -0.26293231752E+03  0.21502016468E+02  0.48043743466E+03  0.57475635614E+03  0.17300000000E+03 0.  1.
         -6    1    1    2    0  503  0.26293231752E+03 -0.21502016468E+02 -0.65102623635E+02  0.32212279011E+03  0.17300000000E+03 0. -1.
<mgrwt>
<rscale>  2 0.31547542E+03</rscale>
<asrwt>0</asrwt>
<pdfrwt beam="1">  1       21 0.10093953E+00 0.31547542E+03</pdfrwt>
<pdfrwt beam="2">  1       21 0.37041872E-01 0.31547542E+03</pdfrwt>
<totfact> 0.52291504E+03</totfact>
</mgrwt>
</event>
<event>
 4    1  0.4151607E+000  0.3270844E+03  0.7546771E-02  0.1072434E+00
         21   -1    0    0  501  502  0.00000000000E+00  0.00000000000E+00  0.20167750286E+03  0.20167750286E+03  0.00000000000E+00 0. -1.
         21   -1    0    0  502  503 -0.00000000000E+00 -0.00000000000E+00 -0.62565256182E+03  0.62565256182E+03  0.00000000000E+00 0. -1.
          6    1    1    2  501    0 -0.26277598237E+03  0.89465189870E+02 -0.50642094550E+02  0.33098165939E+03  0.17300000000E+03 0. -1.
         -6    1    1    2    0  503  0.26277598237E+03 -0.89465189870E+02 -0.37333296441E+03  0.49634840528E+03  0.17300000000E+03 0. -1.
<mgrwt>
<rscale>  2 0.32708445E+03</rscale>
<asrwt>0</asrwt>
<pdfrwt beam="1">  1       21 0.31027309E-01 0.32708445E+03</pdfrwt>
<pdfrwt beam="2">  1       21 0.96254238E-01 0.32708445E+03</pdfrwt>
<totfact> 0.83097748E+03</totfact>
</mgrwt>
</event>
<event>
 4    1  0.4151607E+000  0.1936104E+03  0.7546771E-02  0.1155245E+00
         21   -1    0    0  501  502  0.00000000000E+00  0.00000000000E+00  0.13791186724E+04  0.13791186724E+04  0.00000000000E+00 0. -1.
         21   -1    0    0  502  503 -0.00000000000E+00 -0.00000000000E+00 -0.49960888432E+02  0.49960888432E+02  0.00000000000E+00 0. -1.
          6    1    1    2  501    0 -0.85992856961E+02  0.12697463318E+02  0.11470739313E+04  0.11632985863E+04  0.17300000000E+03 0. -1.
         -6    1    1    2    0  503  0.85992856961E+02 -0.12697463318E+02  0.18208385269E+03  0.26578097455E+03  0.17300000000E+03 0. -1.
<mgrwt>
<rscale>  2 0.19361043E+03</rscale>
<asrwt>0</asrwt>
<pdfrwt beam="1">  1       21 0.21217207E+00 0.19361043E+03</pdfrwt>
<pdfrwt beam="2">  1       21 0.76862916E-02 0.19361043E+03</pdfrwt>
<totfact> 0.14457318E+04</totfact>
</mgrwt>
</event>
<event>
 4    1  0.4151607E+000  0.1898389E+03  0.7546771E-02  0.1158607E+00
         21   -1    0    0  503  502  0.00000000000E+00  0.00000000000E+00  0.44904923413E+02  0.44904923413E+02  0.00000000000E+00 0.  1.
         21   -1    0    0  501  503 -0.00000000000E+00 -0.00000000000E+00 -0.14022211337E+04  0.14022211337E+04  0.00000000000E+00 0.  1.
          6    1    1    2  501    0  0.28543909543E+02 -0.72767038163E+02 -0.11518331812E+04  0.11673724658E+04  0.17300000000E+03 0.  1.
         -6    1    1    2    0  502 -0.28543909543E+02  0.72767038163E+02 -0.20548302916E+03  0.27975359137E+03  0.17300000000E+03 0.  1.
<mgrwt>
<rscale>  2 0.18983887E+03</rscale>
<asrwt>0</asrwt>
<pdfrwt beam="1">  1       21 0.69084504E-02 0.18983887E+03</pdfrwt>
<pdfrwt beam="2">  1       21 0.21572631E+00 0.18983887E+03</pdfrwt>
<totfact> 0.16578540E+04</totfact>
</mgrwt>
</event>
<event>
 4    1  0.4151607E+000  0.2768095E+03  0.7546771E-02  0.1097444E+00
         21   -1    0    0  501  502  0.00000000000E+00  0.00000000000E+00  0.45054859552E+03  0.45054859552E+03  0.00000000000E+00 0.  1.
         21   -1    0    0  502  503 -0.00000000000E+00 -0.00000000000E+00 -0.18000200053E+03  0.18000200053E+03  0.00000000000E+00 0.  1.
          6    1    1    2  501    0 -0.15306970310E+03  0.15252598078E+03  0.61205014772E+02  0.28349526037E+03  0.17300000000E+03 0.  1.
         -6    1    1    2    0  503  0.15306970310E+03 -0.15252598078E+03  0.20934158022E+03  0.34705533568E+03  0.17300000000E+03 0.  1.
<mgrwt>
<rscale>  2 0.27680952E+03</rscale>
<asrwt>0</asrwt>
<pdfrwt beam="1">  1       21 0.69315168E-01 0.27680952E+03</pdfrwt>
<pdfrwt beam="2">  1       21 0.27692616E-01 0.27680952E+03</pdfrwt>
<totfact> 0.22582460E+04</totfact>
</mgrwt>
</event>
<event>
 4    1  0.4151607E+000  0.1773415E+03  0.7546771E-02  0.1170401E+00
         21   -1    0    0  503  502  0.00000000000E+00  0.00000000000E+00  0.16066152511E+04  0.16066152511E+04  0.00000000000E+00 0.  1.
         21   -1    0    0  501  503 -0.00000000000E+00 -0.00000000000E+00 -0.43709587689E+02  0.43709587689E+02  0.00000000000E+00 0.  1.
          6    1    1    2  501    0 -0.38986301315E+02 -0.10417374659E+01  0.16830090600E+03  0.24448969685E+03  0.17300000000E+03 0.  1.
         -6    1    1    2    0  502  0.38986301315E+02  0.10417374659E+01  0.13946047574E+04  0.14058351419E+04  0.17300000000E+03 0.  1.
<mgrwt>
<rscale>  2 0.17734153E+03</rscale>
<asrwt>0</asrwt>
<pdfrwt beam="1">  1       21 0.24717153E+00 0.17734153E+03</pdfrwt>
<pdfrwt beam="2">  1       21 0.67245532E-02 0.17734153E+03</pdfrwt>
<totfact> 0.11367515E+04</totfact>
</mgrwt>
</event>
<event>
 4    1  0.4151607E+000  0.1856356E+03  0.7546771E-02  0.1162458E+00
         21   -1    0    0  503  502  0.00000000000E+00  0.00000000000E+00  0.13293650365E+03  0.13293650365E+03  0.00000000000E+00 0. -1.
         21   -1    0    0  501  503 -0.00000000000E+00 -0.00000000000E+00 -0.66523606430E+03  0.66523606430E+03  0.00000000000E+00 0.  1.
          6    1    1    2  501    0  0.33583935734E+02  0.58341297370E+02 -0.57792913265E+03  0.60701126026E+03  0.17300000000E+03 0.  1.
         -6    1    1    2    0  502 -0.33583935734E+02 -0.58341297370E+02  0.45629571993E+02  0.19116130769E+03  0.17300000000E+03 0. -1.
<mgrwt>
<rscale>  2 0.18563563E+03</rscale>
<asrwt>0</asrwt>
<pdfrwt beam="1">  1       21 0.20451770E-01 0.18563563E+03</pdfrwt>
<pdfrwt beam="2">  1       21 0.10234401E+00 0.18563563E+03</pdfrwt>
<totfact> 0.17275487E+04</totfact>
</mgrwt>
</event>
<event>
 4    1  0.4151607E+000  0.1908337E+03  0.7546771E-02  0.1157712E+00
         21   -1    0    0  501  502  0.00000000000E+00  0.00000000000E+00  0.47368459213E+02  0.47368459213E+02  0.00000000000E+00 0.  1.
         21   -1    0    0  502  503 -0.00000000000E+00 -0.00000000000E+00 -0.98173400108E+03  0.98173400108E+03  0.00000000000E+00 0.  1.
          6    1    1    2  501    0 -0.33632109342E+02  0.73194209213E+02 -0.22755318259E+03  0.29698141684E+03  0.17300000000E+03 0.  1.
         -6    1    1    2    0  503  0.33632109342E+02 -0.73194209213E+02 -0.70681235927E+03  0.73212104345E+03  0.17300000000E+03 0.  1.
<mgrwt>
<rscale>  2 0.19083373E+03</rscale>
<asrwt>0</asrwt>
<pdfrwt beam="1">  1       21 0.72874553E-02 0.19083373E+03</pdfrwt>
<pdfrwt beam="2">  1       21 0.15103600E+00 0.19083373E+03</pdfrwt>
<totfact> 0.41461100E+04</totfact>
</mgrwt>
</event>
<event>
 4    1  0.4151607E+000  0.2584991E+03  0.7546771E-02  0.1108048E+00
         21   -1    0    0  501  502  0.00000000000E+00  0.00000000000E+00  0.35295145973E+03  0.35295145973E+03  0.00000000000E+00 0.  1.
         21   -1    0    0  502  503 -0.00000000000E+00 -0.00000000000E+00 -0.23946219575E+03  0.23946219575E+03  0.00000000000E+00 0.  1.
          6    1    1    2  501    0 -0.12538384744E+03  0.14550483523E+03  0.19228418179E+03  0.32217227199E+03  0.17300000000E+03 0.  1.
         -6    1    1    2    0  503  0.12538384744E+03 -0.14550483523E+03 -0.78794917811E+02  0.27024138348E+03  0.17300000000E+03 0.  1.
<mgrwt>
<rscale>  2 0.25849906E+03</rscale>
<asrwt>0</asrwt>
<pdfrwt beam="1">  1       21 0.54300225E-01 0.25849906E+03</pdfrwt>
<pdfrwt beam="2">  1       21 0.36840338E-01 0.25849906E+03</pdfrwt>
<totfact> 0.21998884E+04</totfact>
</mgrwt>
</event>
<event>
 4    1  0.4151607E+000  0.1861448E+03  0.7546771E-02  0.1161985E+00
         21   -1    0    0  501  502  0.00000000000E+00  0.00000000000E+00  0.17625500034E+02  0.17625500034E+02  0.00000000000E+00 0.  1.
         21   -1    0    0  502  503 -0.00000000000E+00 -0.00000000000E+00 -0.20788980512E+04  0.20788980512E+04  0.00000000000E+00 0.  1.
          6    1    1    2  501    0 -0.58450085526E+02 -0.36117697886E+02 -0.78623906014E+03  0.80797386114E+03  0.17300000000E+03 0.  1.
         -6    1    1    2    0  503  0.58450085526E+02  0.36117697886E+02 -0.12750334910E+04  0.12885496901E+04  0.17300000000E+03 0.  1.
<mgrwt>
<rscale>  2 0.18614484E+03</rscale>
<asrwt>0</asrwt>
<pdfrwt beam="1">  1       21 0.27116165E-02 0.18614484E+03</pdfrwt>
<pdfrwt beam="2">  1       21 0.31983034E+00 0.18614484E+03</pdfrwt>
<totfact> 0.19749738E+04</totfact>
</mgrwt>
</event>
<event>
 4    1  0.4151607E+000  0.1844582E+03  0.7546771E-02  0.1163557E+00
         21   -1    0    0  503  502  0.00000000000E+00  0.00000000000E+00  0.55049787774E+02  0.55049787774E+02  0.00000000000E+00 0. -1.
         21   -1    0    0  501  503 -0.00000000000E+00 -0.00000000000E+00 -0.61811241395E+03  0.61811241395E+03  0.00000000000E+00 0. -1.
          6    1    1    2  501    0 -0.42572314022E+02  0.47785276924E+02 -0.28418966119E+03  0.33880466074E+03  0.17300000000E+03 0. -1.
         -6    1    1    2    0  502  0.42572314022E+02 -0.47785276924E+02 -0.27887296498E+03  0.33435754098E+03  0.17300000000E+03 0. -1.
<mgrwt>
<rscale>  2 0.18445822E+03</rscale>
<asrwt>0</asrwt>
<pdfrwt beam="1">  1       21 0.84691980E-02 0.18445822E+03</pdfrwt>
<pdfrwt beam="2">  1       21 0.95094219E-01 0.18445822E+03</pdfrwt>
<totfact> 0.10074617E+05</totfact>
</mgrwt>
</event>
<event>
 4    1  0.4151607E+000  0.2425224E+03  0.7546771E-02  0.1118124E+00
         21   -1    0    0  503  502  0.00000000000E+00  0.00000000000E+00  0.47220047137E+03  0.47220047137E+03  0.00000000000E+00 0. -1.
         21   -1    0    0  501  503 -0.00000000000E+00 -0.00000000000E+00 -0.21678266162E+03  0.21678266162E+03  0.00000000000E+00 0.  1.
          6    1    1    2  501    0 -0.11318144916E+02 -0.16958782450E+03 -0.96982234594E+02  0.26119472516E+03  0.17300000000E+03 0. -1.
         -6    1    1    2    0  502  0.11318144916E+02  0.16958782450E+03  0.35240004434E+03  0.42778840783E+03  0.17300000000E+03 0. -1.
<mgrwt>
<rscale>  2 0.24252243E+03</rscale>
<asrwt>0</asrwt>
<pdfrwt beam="1">  1       21 0.72646226E-01 0.24252243E+03</pdfrwt>
<pdfrwt beam="2">  1       21 0.33351179E-01 0.24252243E+03</pdfrwt>
<totfact> 0.14345536E+04</totfact>
</mgrwt>
</event>
<event>
 4    1  0.4151607E+000  0.1768079E+03  0.7546771E-02  0.1170929E+00
         21   -1    0    0  501  502  0.00000000000E+00  0.00000000000E+00  0.27885727960E+03  0.27885727960E+03  0.00000000000E+00 0.  1.
         21   -1    0    0  502  503 -0.00000000000E+00 -0.00000000000E+00 -0.12399460287E+03  0.12399460287E+03  0.00000000000E+00 0.  1.
          6    1    1    2  501    0 -0.34808264238E+02 -0.10974286656E+02  0.13980679493E+03  0.22540405971E+03  0.17300000000E+03 0.  1.
         -6    1    1    2    0  503  0.34808264238E+02  0.10974286656E+02  0.15055881801E+02  0.17744782276E+03  0.17300000000E+03 0.  1.
<mgrwt>
<rscale>  2 0.17680795E+03</rscale>
<asrwt>0</asrwt>
<pdfrwt beam="1">  1       21 0.42901120E-01 0.17680795E+03</pdfrwt>
<pdfrwt beam="2">  1       21 0.19076093E-01 0.17680795E+03</pdfrwt>
<totfact> 0.13244626E+05</totfact>
</mgrwt>
</event>
<event>
 4    1  0.4151607E+000  0.1757407E+03  0.7546771E-02  0.1171990E+00
         21   -1    0    0  501  502  0.00000000000E+00  0.00000000000E+00  0.75197758377E+02  0.75197758377E+02  0.00000000000E+00 0. -1.
         21   -1    0    0  502  503 -0.00000000000E+00 -0.00000000000E+00 -0.42335859902E+03  0.42335859902E+03  0.00000000000E+00 0. -1.
          6    1    1    2  501    0  0.16447731793E+02  0.26177368319E+02 -0.13099996990E+03  0.21919346388E+03  0.17300000000E+03 0. -1.
         -6    1    1    2    0  503 -0.16447731793E+02 -0.26177368319E+02 -0.21716087074E+03  0.27936289352E+03  0.17300000000E+03 0. -1.
<mgrwt>
<rscale>  2 0.17574067E+03</rscale>
<asrwt>0</asrwt>
<pdfrwt beam="1">  1       21 0.11568886E-01 0.17574067E+03</pdfrwt>
<pdfrwt beam="2">  1       21 0.65132092E-01 0.17574067E+03</pdfrwt>
<totfact> 0.13673627E+05</totfact>
</mgrwt>
</event>
<event>
 4    1  0.4151607E+000  0.2336570E+03  0.7546771E-02  0.1124092E+00
         21   -1    0    0  501  502  0.00000000000E+00  0.00000000000E+00  0.81283514046E+02  0.81283514046E+02  0.00000000000E+00 0. -1.
         21   -1    0    0  502  503 -0.00000000000E+00 -0.00000000000E+00 -0.67453301453E+03  0.67453301453E+03  0.00000000000E+00 0. -1.
          6    1    1    2  501    0 -0.14189721816E+02 -0.15641365431E+03 -0.32125149617E+03  0.39723809391E+03  0.17300000000E+03 0. -1.
         -6    1    1    2    0  503  0.14189721816E+02  0.15641365431E+03 -0.27199800431E+03  0.35857843466E+03  0.17300000000E+03 0. -1.
<mgrwt>
<rscale>  2 0.23365697E+03</rscale>
<asrwt>0</asrwt>
<pdfrwt beam="1">  1       21 0.12505156E-01 0.23365697E+03</pdfrwt>
<pdfrwt beam="2">  1       21 0.10377431E+00 0.23365697E+03</pdfrwt>
<totfact> 0.40106909E+04</totfact>
</mgrwt>
</event>
<event>
 4    1  0.4151607E+000  0.2430884E+03  0.7546771E-02  0.1117752E+00
         21   -1    0    0  501  502  0.00000000000E+00  0.00000000000E+00  0.32408777568E+03  0.32408777568E+03  0.00000000000E+00 0.  1.
         21   -1    0    0  502  503 -0.00000000000E+00 -0.00000000000E+00 -0.18249441070E+03  0.18249441070E+03  0.00000000000E+00 0. -1.
          6    1    1    2  501    0  0.13504662554E+03  0.10452451105E+03  0.63268701338E+02  0.25118696831E+03  0.17300000000E+03 0.  1.
         -6    1    1    2    0  503 -0.13504662554E+03 -0.10452451105E+03  0.78324663634E+02  0.25539521807E+03  0.17300000000E+03 0. -1.
<mgrwt>
<rscale>  2 0.24308839E+03</rscale>
<asrwt>0</asrwt>
<pdfrwt beam="1">  1       21 0.49859658E-01 0.24308839E+03</pdfrwt>
<pdfrwt beam="2">  1       21 0.28076063E-01 0.24308839E+03</pdfrwt>
<totfact> 0.45382517E+04</totfact>
</mgrwt>
</event>
<event>
 4    1  0.4151607E+000  0.3119438E+03  0.7546771E-02  0.1079418E+00
         21   -1    0    0  503  502  0.00000000000E+00  0.00000000000E+00  0.52295015525E+03  0.52295015525E+03  0.00000000000E+00 0.  1.
         21   -1    0    0  501  503 -0.00000000000E+00 -0.00000000000E+00 -0.21917371290E+03  0.21917371290E+03  0.00000000000E+00 0.  1.
          6    1    1    2  501    0  0.12242299468E+03  0.22889415659E+03  0.76947822142E+01  0.31203867424E+03  0.17300000000E+03 0.  1.
         -6    1    1    2    0  502 -0.12242299468E+03 -0.22889415659E+03  0.29608166014E+03  0.43008519391E+03  0.17300000000E+03 0.  1.
<mgrwt>
<rscale>  2 0.31194378E+03</rscale>
<asrwt>0</asrwt>
<pdfrwt beam="1">  1       21 0.80453870E-01 0.31194378E+03</pdfrwt>
<pdfrwt beam="2">  1       21 0.33719033E-01 0.31194378E+03</pdfrwt>
<totfact> 0.10777660E+04</totfact>
</mgrwt>
</event>
<event>
 4    1  0.4151607E+000  0.1772487E+03  0.7546771E-02  0.1170493E+00
         21   -1    0    0  503  502  0.00000000000E+00  0.00000000000E+00  0.18626097313E+03  0.18626097313E+03  0.00000000000E+00 0.  1.
         21   -1    0    0  501  503 -0.00000000000E+00 -0.00000000000E+00 -0.21276862147E+03  0.21276862147E+03  0.00000000000E+00 0.  1.
          6    1    1    2  501    0 -0.38557544778E+02  0.11961749814E+01 -0.10408213216E+03  0.20554854738E+03  0.17300000000E+03 0.  1.
         -6    1    1    2    0  502  0.38557544778E+02 -0.11961749814E+01  0.77574483825E+02  0.19348104722E+03  0.17300000000E+03 0.  1.
<mgrwt>
<rscale>  2 0.17724874E+03</rscale>
<asrwt>0</asrwt>
<pdfrwt beam="1">  1       21 0.28655534E-01 0.17724874E+03</pdfrwt>
<pdfrwt beam="2">  1       21 0.32733634E-01 0.17724874E+03</pdfrwt>
<totfact> 0.10524537E+05</totfact>
</mgrwt>
</event>
<event>
 4    1  0.4151607E+000  0.1956480E+03  0.7546771E-02  0.1153464E+00
         21   -1    0    0  501  502  0.00000000000E+00  0.00000000000E+00  0.71771614558E+03  0.71771614558E+03  0.00000000000E+00 0.  1.
         21   -1    0    0  502  503 -0.00000000000E+00 -0.00000000000E+00 -0.35362753486E+03  0.35362753486E+03  0.00000000000E+00 0.  1.
          6    1    1    2  501    0 -0.31990585218E+00 -0.91373082145E+02  0.67567175874E+03  0.70342765658E+03  0.17300000000E+03 0.  1.
         -6    1    1    2    0  503  0.31990585218E+00  0.91373082145E+02 -0.31158314802E+03  0.36791602386E+03  0.17300000000E+03 0.  1.
<mgrwt>
<rscale>  2 0.19564801E+03</rscale>
<asrwt>0</asrwt>
<pdfrwt beam="1">  1       21 0.11041787E+00 0.19564801E+03</pdfrwt>
<pdfrwt beam="2">  1       21 0.54404236E-01 0.19564801E+03</pdfrwt>
<totfact> 0.20599459E+03</totfact>
</mgrwt>
</event>
<event>
 4    1  0.4151607E+000  0.1969394E+03  0.7546771E-02  0.1152347E+00
         21   -1    0    0  503  502  0.00000000000E+00  0.00000000000E+00  0.54724634696E+02  0.54724634696E+02  0.00000000000E+00 0.  1.
         21   -1    0    0  501  503 -0.00000000000E+00 -0.00000000000E+00 -0.94444312683E+03  0.94444312683E+03  0.00000000000E+00 0. -1.
          6    1    1    2  501    0  0.87246205220E+02 -0.35273523127E+02 -0.69443947825E+03  0.72182498621E+03  0.17300000000E+03 0. -1.
         -6    1    1    2    0  502 -0.87246205220E+02  0.35273523127E+02 -0.19527901389E+03  0.27734277532E+03  0.17300000000E+03 0.  1.
<mgrwt>
<rscale>  2 0.19693939E+03</rscale>
<asrwt>0</asrwt>
<pdfrwt beam="1">  1       21 0.84191742E-02 0.19693939E+03</pdfrwt>
<pdfrwt beam="2">  1       21 0.14529895E+00 0.19693939E+03</pdfrwt>
<totfact> 0.35577378E+04</totfact>
</mgrwt>
</event>
<event>
 4    1  0.4151607E+000  0.1856292E+03  0.7546771E-02  0.1162464E+00
         21   -1    0    0  501  502  0.00000000000E+00  0.00000000000E+00  0.57453423319E+02  0.57453423319E+02  0.00000000000E+00 0. -1.
         21   -1    0    0  502  503 -0.00000000000E+00 -0.00000000000E+00 -0.60087253544E+03  0.60087253544E+03  0.00000000000E+00 0. -1.
          6    1    1    2  501    0 -0.64288013781E+02  0.19906338836E+02 -0.25753985971E+03  0.31746651852E+03  0.17300000000E+03 0. -1.
         -6    1    1    2    0  503  0.64288013781E+02 -0.19906338836E+02 -0.28587925242E+03  0.34085944025E+03  0.17300000000E+03 0. -1.
<mgrwt>
<rscale>  2 0.18562923E+03</rscale>
<asrwt>0</asrwt>
<pdfrwt beam="1">  1       21 0.88389882E-02 0.18562923E+03</pdfrwt>
<pdfrwt beam="2">  1       21 0.92441929E-01 0.18562923E+03</pdfrwt>
<totfact> 0.99823838E+04</totfact>
</mgrwt>
</event>
<event>
 4    1  0.4151607E+000  0.2212957E+03  0.7546771E-02  0.1132921E+00
         21   -1    0    0  503  502  0.00000000000E+00  0.00000000000E+00  0.68182254062E+03  0.68182254062E+03  0.00000000000E+00 0. -1.
         21   -1    0    0  501  503 -0.00000000000E+00 -0.00000000000E+00 -0.24052888939E+03  0.24052888939E+03  0.00000000000E+00 0. -1.
          6    1    1    2  501    0 -0.67263041021E+02 -0.12049269535E+03 -0.16558276050E+03  0.27638642675E+03  0.17300000000E+03 0. -1.
         -6    1    1    2    0  502  0.67263041021E+02  0.12049269535E+03  0.60687641173E+03  0.64596500326E+03  0.17300000000E+03 0. -1.
<mgrwt>
<rscale>  2 0.22129574E+03</rscale>
<asrwt>0</asrwt>
<pdfrwt beam="1">  1       21 0.10489577E+00 0.22129574E+03</pdfrwt>
<pdfrwt beam="2">  1       21 0.37004445E-01 0.22129574E+03</pdfrwt>
<totfact> 0.50464711E+03</totfact>
</mgrwt>
</event>
<event>
 4    1  0.4151607E+000  0.1927387E+03  0.7546771E-02  0.1156014E+00
         21   -1    0    0  503  502  0.00000000000E+00  0.00000000000E+00  0.22767615030E+03  0.22767615030E+03  0.00000000000E+00 0.  1.
         21   -1    0    0  501  503 -0.00000000000E+00 -0.00000000000E+00 -0.21403558604E+03  0.21403558604E+03  0.00000000000E+00 0.  1.
          6    1    1    2  501    0  0.56268831830E+02 -0.63663340224E+02 -0.10085354088E+03  0.21753077721E+03  0.17300000000E+03 0.  1.
         -6    1    1    2    0  502 -0.56268831830E+02  0.63663340224E+02  0.11449410514E+03  0.22418095913E+03  0.17300000000E+03 0.  1.
<mgrwt>
<rscale>  2 0.19273869E+03</rscale>
<asrwt>0</asrwt>
<pdfrwt beam="1">  1       21 0.35027100E-01 0.19273869E+03</pdfrwt>
<pdfrwt beam="2">  1       21 0.32928552E-01 0.19273869E+03</pdfrwt>
<totfact> 0.69762735E+04</totfact>
</mgrwt>
</event>
<event>
 4    1  0.4151607E+000  0.2097247E+03  0.7546771E-02  0.1141784E+00
         21   -1    0    0  501  502  0.00000000000E+00  0.00000000000E+00  0.36145174968E+02  0.36145174968E+02  0.00000000000E+00 0.  1.
         21   -1    0    0  502  503 -0.00000000000E+00 -0.00000000000E+00 -0.15834349262E+04  0.15834349262E+04  0.00000000000E+00 0.  1.
          6    1    1    2  501    0  0.35868075184E+02 -0.11299961779E+03 -0.38402567571E+03  0.43756159800E+03  0.17300000000E+03 0.  1.
         -6    1    1    2    0  503 -0.35868075184E+02  0.11299961779E+03 -0.11632640756E+04  0.11820185032E+04  0.17300000000E+03 0.  1.
<mgrwt>
<rscale>  2 0.20972466E+03</rscale>
<asrwt>0</asrwt>
<pdfrwt beam="1">  1       21 0.55607962E-02 0.20972466E+03</pdfrwt>
<pdfrwt beam="2">  1       21 0.24360537E+00 0.20972466E+03</pdfrwt>
<totfact> 0.16045710E+04</totfact>
</mgrwt>
</event>
<event>
 4    1  0.4151607E+000  0.2300509E+03  0.7546771E-02  0.1126604E+00
         21   -1    0    0  503  502  0.00000000000E+00  0.00000000000E+00  0.17215317286E+03  0.17215317286E+03  0.00000000000E+00 0.  1.
         21   -1    0    0  501  503 -0.00000000000E+00 -0.00000000000E+00 -0.37604121562E+03  0.37604121562E+03  0.00000000000E+00 0.  1.
          6    1    1    2  501    0  0.10130192120E+03 -0.11283759994E+03 -0.21903264334E+03  0.31764556041E+03  0.17300000000E+03 0.  1.
         -6    1    1    2    0  502 -0.10130192120E+03  0.11283759994E+03  0.15144600582E+02  0.23054882807E+03  0.17300000000E+03 0.  1.
<mgrwt>
<rscale>  2 0.23005087E+03</rscale>
<asrwt>0</asrwt>
<pdfrwt beam="1">  1       21 0.26485104E-01 0.23005087E+03</pdfrwt>
<pdfrwt beam="2">  1       21 0.57852494E-01 0.23005087E+03</pdfrwt>
<totfact> 0.37290920E+04</totfact>
</mgrwt>
</event>
<event>
 4    1  0.4151607E+000  0.2547619E+03  0.7546771E-02  0.1110332E+00
         21   -1    0    0  503  502  0.00000000000E+00  0.00000000000E+00  0.77839866334E+03  0.77839866334E+03  0.00000000000E+00 0.  1.
         21   -1    0    0  501  503 -0.00000000000E+00 -0.00000000000E+00 -0.95592970963E+02  0.95592970963E+02  0.00000000000E+00 0. -1.
          6    1    1    2  501    0 -0.17471637072E+03 -0.66699264620E+02  0.18521095606E+03  0.31497095159E+03  0.17300000000E+03 0.  1.
         -6    1    1    2    0  502  0.17471637072E+03  0.66699264620E+02  0.49759473631E+03  0.55902068272E+03  0.17300000000E+03 0.  1.
<mgrwt>
<rscale>  2 0.25476185E+03</rscale>
<asrwt>0</asrwt>
<pdfrwt beam="1">  1       21 0.11975364E+00 0.25476185E+03</pdfrwt>
<pdfrwt beam="2">  1       21 0.14706611E-01 0.25476185E+03</pdfrwt>
<totfact> 0.20835152E+04</totfact>
</mgrwt>
</event>
<event>
 4    1  0.4151607E+000  0.2968387E+03  0.7546771E-02  0.1086832E+00
         21   -1    0    0  501  502  0.00000000000E+00  0.00000000000E+00  0.80816057769E+02  0.80816057769E+02  0.00000000000E+00 0. -1.
         21   -1    0    0  502  503 -0.00000000000E+00 -0.00000000000E+00 -0.11623511147E+04  0.11623511147E+04  0.00000000000E+00 0.  1.
          6    1    1    2  501    0  0.17713400027E+03 -0.16373069638E+03 -0.38600285505E+03  0.48694085790E+03  0.17300000000E+03 0.  1.
         -6    1    1    2    0  503 -0.17713400027E+03  0.16373069638E+03 -0.69553220184E+03  0.75622631452E+03  0.17300000000E+03 0.  1.
<mgrwt>
<rscale>  2 0.29683867E+03</rscale>
<asrwt>0</asrwt>
<pdfrwt beam="1">  1       21 0.12433239E-01 0.29683867E+03</pdfrwt>
<pdfrwt beam="2">  1       21 0.17882325E+00 0.29683867E+03</pdfrwt>
<totfact> 0.95280365E+03</totfact>
</mgrwt>
</event>
<event>
 4    1  0.4151607E+000  0.1899689E+03  0.7546771E-02  0.1158489E+00
         21   -1    0    0  503  502  0.00000000000E+00  0.00000000000E+00  0.15393682430E+03  0.15393682430E+03  0.00000000000E+00 0. -1.
         21   -1    0    0  501  503 -0.00000000000E+00 -0.00000000000E+00 -0.23841002841E+03  0.23841002841E+03  0.00000000000E+00 0.  1.
          6    1    1    2  501    0  0.79733905105E+01  0.78074440472E+02 -0.67567065522E+02  0.20162713497E+03  0.17300000000E+03 0.  1.
         -6    1    1    2    0  502 -0.79733905105E+01 -0.78074440472E+02 -0.16906138588E+02  0.19071971774E+03  0.17300000000E+03 0. -1.
<mgrwt>
<rscale>  2 0.18996893E+03</rscale>
<asrwt>0</asrwt>
<pdfrwt beam="1">  1       21 0.23682589E-01 0.18996893E+03</pdfrwt>
<pdfrwt beam="2">  1       21 0.36678466E-01 0.18996893E+03</pdfrwt>
<totfact> 0.12048856E+05</totfact>
</mgrwt>
</event>
<event>
 4    1  0.4151607E+000  0.2156449E+03  0.7546771E-02  0.1137172E+00
         21   -1    0    0  501  502  0.00000000000E+00  0.00000000000E+00  0.20709520689E+03  0.20709520689E+03  0.00000000000E+00 0. -1.
         21   -1    0    0  502  503 -0.00000000000E+00 -0.00000000000E+00 -0.24296534029E+03  0.24296534029E+03  0.00000000000E+00 0.  1.
          6    1    1    2  501    0  0.10498375629E+03  0.74512623946E+02  0.44021538168E+02  0.22009228981E+03  0.17300000000E+03 0. -1.
         -6    1    1    2    0  503 -0.10498375629E+03 -0.74512623946E+02 -0.79891671569E+02  0.22996825737E+03  0.17300000000E+03 0.  1.
<mgrwt>
<rscale>  2 0.21564489E+03</rscale>
<asrwt>0</asrwt>
<pdfrwt beam="1">  1       21 0.31860801E-01 0.21564489E+03</pdfrwt>
<pdfrwt beam="2">  1       21 0.37379283E-01 0.21564489E+03</pdfrwt>
<totfact> 0.64720740E+04</totfact>
</mgrwt>
</event>
<event>
 4    1  0.4151607E+000  0.2920274E+03  0.7546771E-02  0.1089295E+00
         21   -1    0    0  503  502  0.00000000000E+00  0.00000000000E+00  0.13960654067E+04  0.13960654067E+04  0.00000000000E+00 0. -1.
         21   -1    0    0  501  503 -0.00000000000E+00 -0.00000000000E+00 -0.64167243622E+02  0.64167243622E+02  0.00000000000E+00 0. -1.
          6    1    1    2  501    0 -0.68458624838E+02 -0.22508759636E+03  0.50595625521E+03  0.58418468102E+03  0.17300000000E+03 0. -1.
         -6    1    1    2    0  502  0.68458624838E+02  0.22508759636E+03  0.82594190787E+03  0.87604796931E+03  0.17300000000E+03 0. -1.
<mgrwt>
<rscale>  2 0.29202741E+03</rscale>
<asrwt>0</asrwt>
<pdfrwt beam="1">  1       21 0.21477927E+00 0.29202741E+03</pdfrwt>
<pdfrwt beam="2">  1       21 0.98718847E-02 0.29202741E+03</pdfrwt>
<totfact> 0.83610614E+03</totfact>
</mgrwt>
</event>
<event>
 4    1  0.4151607E+000  0.3818872E+03  0.7546771E-02  0.1050238E+00
         21   -1    0    0  501  502  0.00000000000E+00  0.00000000000E+00  0.12219267037E+04  0.12219267037E+04  0.00000000000E+00 0.  1.
         21   -1    0    0  502  503 -0.00000000000E+00 -0.00000000000E+00 -0.55169536530E+03  0.55169536530E+03  0.00000000000E+00 0. -1.
          6    1    1    2  501    0  0.15072932152E+03 -0.30526950193E+03  0.11201641493E+04  0.11834718072E+04  0.17300000000E+03 0.  1.
         -6    1    1    2    0  503 -0.15072932152E+03  0.30526950193E+03 -0.44993281088E+03  0.59015026178E+03  0.17300000000E+03 0. -1.
<mgrwt>
<rscale>  2 0.38188715E+03</rscale>
<asrwt>0</asrwt>
<pdfrwt beam="1">  1       21 0.18798872E+00 0.38188715E+03</pdfrwt>
<pdfrwt beam="2">  1       21 0.84876210E-01 0.38188715E+03</pdfrwt>
<totfact> 0.16232623E+02</totfact>
</mgrwt>
</event>
<event>
 4    1  0.4151607E+000  0.1964408E+03  0.7546771E-02  0.1152777E+00
         21   -1    0    0  503  502  0.00000000000E+00  0.00000000000E+00  0.34054438337E+03  0.34054438337E+03  0.00000000000E+00 0. -1.
         21   -1    0    0  501  503 -0.00000000000E+00 -0.00000000000E+00 -0.87279098318E+03  0.87279098318E+03  0.00000000000E+00 0. -1.
          6    1    1    2  501    0 -0.79130865222E+02  0.48972397264E+02 -0.83204010123E+03  0.85491503647E+03  0.17300000000E+03 0. -1.
         -6    1    1    2    0  502  0.79130865222E+02 -0.48972397264E+02  0.29979350142E+03  0.35842033008E+03  0.17300000000E+03 0. -1.
<mgrwt>
<rscale>  2 0.19644080E+03</rscale>
<asrwt>0</asrwt>
<pdfrwt beam="1">  1       21 0.52391443E-01 0.19644080E+03</pdfrwt>
<pdfrwt beam="2">  1       21 0.13427554E+00 0.19644080E+03</pdfrwt>
<totfact> 0.13710511E+03</totfact>
</mgrwt>
</event>
<event>
 4    1  0.4151607E+000  0.1801009E+03  0.7546771E-02  0.1167705E+00
         21   -1    0    0  501  502  0.00000000000E+00  0.00000000000E+00  0.41537624940E+03  0.41537624940E+03  0.00000000000E+00 0.  1.
         21   -1    0    0  502  503 -0.00000000000E+00 -0.00000000000E+00 -0.16483566638E+03  0.16483566638E+03  0.00000000000E+00 0.  1.
          6    1    1    2  501    0  0.19961864748E+02 -0.45922486452E+02  0.33572431876E+03  0.38098184867E+03  0.17300000000E+03 0.  1.
         -6    1    1    2    0  503 -0.19961864748E+02  0.45922486452E+02 -0.85183735740E+02  0.19923006711E+03  0.17300000000E+03 0.  1.
<mgrwt>
<rscale>  2 0.18010095E+03</rscale>
<asrwt>0</asrwt>
<pdfrwt beam="1">  1       21 0.63904038E-01 0.18010095E+03</pdfrwt>
<pdfrwt beam="2">  1       21 0.25359334E-01 0.18010095E+03</pdfrwt>
<totfact> 0.33555749E+04</totfact>
</mgrwt>
</event>
<event>
 4    1  0.4151607E+000  0.2418012E+03  0.7546771E-02  0.1118599E+00
         21   -1    0    0  503  502  0.00000000000E+00  0.00000000000E+00  0.40768465102E+03  0.40768465102E+03  0.00000000000E+00 0.  1.
         21   -1    0    0  501  503 -0.00000000000E+00 -0.00000000000E+00 -0.34517346340E+03  0.34517346340E+03  0.00000000000E+00 0.  1.
          6    1    1    2  501    0 -0.50277986387E+02  0.16127911581E+03 -0.25653793252E+03  0.35253303381E+03  0.17300000000E+03 0.  1.
         -6    1    1    2    0  502  0.50277986387E+02 -0.16127911581E+03  0.31904912013E+03  0.40032508061E+03  0.17300000000E+03 0.  1.
<mgrwt>
<rscale>  2 0.24180122E+03</rscale>
<asrwt>0</asrwt>
<pdfrwt beam="1">  1       21 0.62720715E-01 0.24180122E+03</pdfrwt>
<pdfrwt beam="2">  1       21 0.53103610E-01 0.24180122E+03</pdfrwt>
<totfact> 0.76555657E+03</totfact>
</mgrwt>
</event>
<event>
 4    1  0.4151607E+000  0.2215656E+03  0.7546771E-02  0.1132721E+00
         21   -1    0    0  501  502  0.00000000000E+00  0.00000000000E+00  0.48926097613E+03  0.48926097613E+03  0.00000000000E+00 0. -1.
         21   -1    0    0  502  503 -0.00000000000E+00 -0.00000000000E+00 -0.10316338949E+03  0.10316338949E+03  0.00000000000E+00 0.  1.
          6    1    1    2  501    0 -0.13781920920E+03  0.12968630870E+02  0.24207209157E+03  0.32816187671E+03  0.17300000000E+03 0. -1.
         -6    1    1    2    0  503  0.13781920920E+03 -0.12968630870E+02  0.14402549507E+03  0.26426248890E+03  0.17300000000E+03 0.  1.
<mgrwt>
<rscale>  2 0.22156561E+03</rscale>
<asrwt>0</asrwt>
<pdfrwt beam="1">  1       21 0.75270918E-01 0.22156561E+03</pdfrwt>
<pdfrwt beam="2">  1       21 0.15871291E-01 0.22156561E+03</pdfrwt>
<totfact> 0.55057683E+04</totfact>
</mgrwt>
</event>
<event>
 4    1  0.4151607E+000  0.1993063E+03  0.7546771E-02  0.1150326E+00
         21   -1    0    0  503  502  0.00000000000E+00  0.00000000000E+00  0.37199682931E+02  0.37199682931E+02  0.00000000000E+00 0. -1.
         21   -1    0    0  501  503 -0.00000000000E+00 -0.00000000000E+00 -0.16646592682E+04  0.16646592682E+04  0.00000000000E+00 0. -1.
          6    1    1    2  501    0 -0.82019811211E+02 -0.55378415603E+02 -0.13232426595E+04  0.13381682085E+04  0.17300000000E+03 0. -1.
         -6    1    1    2    0  502  0.82019811211E+02  0.55378415603E+02 -0.30421692579E+03  0.36369074264E+03  0.17300000000E+03 0. -1.
<mgrwt>
<rscale>  2 0.19930634E+03</rscale>
<asrwt>0</asrwt>
<pdfrwt beam="1">  1       21 0.57230262E-02 0.19930634E+03</pdfrwt>
<pdfrwt beam="2">  1       21 0.25610151E+00 0.19930634E+03</pdfrwt>
<totfact> 0.13009162E+04</totfact>
</mgrwt>
</event>
<event>
 4    1  0.4151607E+000  0.2725047E+03  0.7546771E-02  0.1099855E+00
         21   -1    0    0  501  502  0.00000000000E+00  0.00000000000E+00  0.27322664918E+03  0.27322664918E+03  0.00000000000E+00 0.  1.
         21   -1    0    0  502  503 -0.00000000000E+00 -0.00000000000E+00 -0.27295244194E+03  0.27295244194E+03  0.00000000000E+00 0. -1.
          6    1    1    2  501    0  0.17825159988E+03 -0.11205440778E+03 -0.17725091461E+02  0.27308057791E+03  0.17300000000E+03 0. -1.
         -6    1    1    2    0  503 -0.17825159988E+03  0.11205440778E+03  0.17999298709E+02  0.27309851321E+03  0.17300000000E+03 0. -1.
<mgrwt>
<rscale>  2 0.27250472E+03</rscale>
<asrwt>0</asrwt>
<pdfrwt beam="1">  1       21 0.42034869E-01 0.27250472E+03</pdfrwt>
<pdfrwt beam="2">  1       21 0.41992683E-01 0.27250472E+03</pdfrwt>
<totfact> 0.28608046E+04</totfact>
</mgrwt>
</event>
<event>
 4    1  0.4151607E+000  0.1781115E+03  0.7546771E-02  0.1169643E+00
         21   -1    0    0  503  502  0.00000000000E+00  0.00000000000E+00  0.14631708353E+03  0.14631708353E+03  0.00000000000E+00 0. -1.
         21   -1    0    0  501  503 -0.00000000000E+00 -0.00000000000E+00 -0.24178509348E+03  0.24178509348E+03  0.00000000000E+00 0. -1.
          6    1    1    2  501    0 -0.23288391225E+02  0.35388892956E+02 -0.11009489871E+03  0.20939104477E+03  0.17300000000E+03 0. -1.
         -6    1    1    2    0  502  0.23288391225E+02 -0.35388892956E+02  0.14626888747E+02  0.17871113224E+03  0.17300000000E+03 0. -1.
<mgrwt>
<rscale>  2 0.17811155E+03</rscale>
<asrwt>0</asrwt>
<pdfrwt beam="1">  1       21 0.22510321E-01 0.17811155E+03</pdfrwt>
<pdfrwt beam="2">  1       21 0.37197706E-01 0.17811155E+03</pdfrwt>
<totfact> 0.12949180E+05</totfact>
</mgrwt>
</event>
<event>
 4    1  0.4151607E+000  0.3739391E+03  0.7546771E-02  0.1053197E+00
         21   -1    0    0  503  502  0.00000000000E+00  0.00000000000E+00  0.12902582298E+04  0.12902582298E+04  0.00000000000E+00 0.  1.
         21   -1    0    0  501  503 -0.00000000000E+00 -0.00000000000E+00 -0.11488787662E+03  0.11488787662E+03  0.00000000000E+00 0. -1.
          6    1    1    2  501    0  0.32910189268E+03 -0.39917611661E+02  0.42039382982E+03  0.56263793299E+03  0.17300000000E+03 0.  1.
         -6    1    1    2    0  502 -0.32910189268E+03  0.39917611661E+02  0.75497652337E+03  0.84250817345E+03  0.17300000000E+03 0. -1.
<mgrwt>
<rscale>  2 0.37393913E+03</rscale>
<asrwt>0</asrwt>
<pdfrwt beam="1">  1       21 0.19850126E+00 0.37393913E+03</pdfrwt>
<pdfrwt beam="2">  1       21 0.17675059E-01 0.37393913E+03</pdfrwt>
<totfact> 0.35225427E+03</totfact>
</mgrwt>
</event>
<event>
 4    1  0.4151607E+000  0.1993838E+03  0.7546771E-02  0.1150260E+00
         21   -1    0    0  501  502  0.00000000000E+00  0.00000000000E+00  0.80317459864E+02  0.80317459864E+02  0.00000000000E+00 0. -1.
         21   -1    0    0  502  503 -0.00000000000E+00 -0.00000000000E+00 -0.61795157487E+03  0.61795157487E+03  0.00000000000E+00 0.  1.
          6    1    1    2  501    0 -0.92350155976E+02  0.36004831016E+02 -0.11305778014E+03  0.22920724425E+03  0.17300000000E+03 0.  1.
         -6    1    1    2    0  503  0.92350155976E+02 -0.36004831016E+02 -0.42457633487E+03  0.46906179049E+03  0.17300000000E+03 0. -1.
<mgrwt>
<rscale>  2 0.19938380E+03</rscale>
<asrwt>0</asrwt>
<pdfrwt beam="1">  1       21 0.12356533E-01 0.19938380E+03</pdfrwt>
<pdfrwt beam="2">  1       21 0.95069471E-01 0.19938380E+03</pdfrwt>
<totfact> 0.51319361E+04</totfact>
</mgrwt>
</event>
<event>
 4    1  0.4151607E+000  0.1808234E+03  0.7546771E-02  0.1167008E+00
         21   -1    0    0  503  502  0.00000000000E+00  0.00000000000E+00  0.49183384314E+02  0.49183384314E+02  0.00000000000E+00 0. -1.
         21   -1    0    0  501  503 -0.00000000000E+00 -0.00000000000E+00 -0.82782340298E+03  0.82782340298E+03  0.00000000000E+00 0. -1.
          6    1    1    2  501    0  0.34637751008E+02  0.39602337915E+02 -0.58391378678E+03  0.61127115862E+03  0.17300000000E+03 0. -1.
         -6    1    1    2    0  502 -0.34637751008E+02 -0.39602337915E+02 -0.19472623188E+03  0.26573562867E+03  0.17300000000E+03 0. -1.
<mgrwt>
<rscale>  2 0.18082345E+03</rscale>
<asrwt>0</asrwt>
<pdfrwt beam="1">  1       21 0.75666746E-02 0.18082345E+03</pdfrwt>
<pdfrwt beam="2">  1       21 0.12735745E+00 0.18082345E+03</pdfrwt>
<totfact> 0.60534693E+04</totfact>
</mgrwt>
</event>
<event>
 4    1  0.4151607E+000  0.2058226E+03  0.7546771E-02  0.1144917E+00
         21   -1    0    0  501  502  0.00000000000E+00  0.00000000000E+00  0.19741787245E+03  0.19741787245E+03  0.00000000000E+00 0.  1.
         21   -1    0    0  502  503 -0.00000000000E+00 -0.00000000000E+00 -0.24471025922E+03  0.24471025922E+03  0.00000000000E+00 0. -1.
          6    1    1    2  501    0 -0.98574536105E+02  0.52125012108E+02  0.53917044679E+02  0.21276748756E+03  0.17300000000E+03 0.  1.
         -6    1    1    2    0  503  0.98574536105E+02 -0.52125012108E+02 -0.10120943144E+03  0.22936064411E+03  0.17300000000E+03 0. -1.
<mgrwt>
<rscale>  2 0.20582263E+03</rscale>
<asrwt>0</asrwt>
<pdfrwt beam="1">  1       21 0.30371980E-01 0.20582263E+03</pdfrwt>
<pdfrwt beam="2">  1       21 0.37647732E-01 0.20582263E+03</pdfrwt>
<totfact> 0.70374554E+04</totfact>
</mgrwt>
</event>
<event>
 4    1  0.4151607E+000  0.1768500E+03  0.7546771E-02  0.1170887E+00
         21   -1    0    0  503  502  0.00000000000E+00  0.00000000000E+00  0.10469919019E+03  0.10469919019E+03  0.00000000000E+00 0. -1.
         21   -1    0    0  501  503 -0.00000000000E+00 -0.00000000000E+00 -0.29872197697E+03  0.29872197697E+03  0.00000000000E+00 0. -1.
          6    1    1    2  501    0  0.28933369063E+02 -0.22578340553E+02 -0.96821312364E+02  0.20161916535E+03  0.17300000000E+03 0. -1.
         -6    1    1    2    0  502 -0.28933369063E+02  0.22578340553E+02 -0.97201474418E+02  0.20180200181E+03  0.17300000000E+03 0. -1.
<mgrwt>
<rscale>  2 0.17685000E+03</rscale>
<asrwt>0</asrwt>
<pdfrwt beam="1">  1       21 0.16107568E-01 0.17685000E+03</pdfrwt>
<pdfrwt beam="2">  1       21 0.45957228E-01 0.17685000E+03</pdfrwt>
<totfact> 0.15709043E+05</totfact>
</mgrwt>
</event>
<event>
 4    1  0.4151607E+000  0.1930209E+03  0.7546771E-02  0.1155765E+00
         21   -1    0    0  503  502  0.00000000000E+00  0.00000000000E+00  0.39488886525E+03  0.39488886525E+03  0.00000000000E+00 0. -1.
         21   -1    0    0  501  503 -0.00000000000E+00 -0.00000000000E+00 -0.10542445966E+03  0.10542445966E+03  0.00000000000E+00 0.  1.
          6    1    1    2  501    0 -0.30599384943E+02 -0.79948304138E+02  0.63647684052E+02  0.20324389629E+03  0.17300000000E+03 0.  1.
         -6    1    1    2    0  502  0.30599384943E+02  0.79948304138E+02  0.22581672154E+03  0.29706942862E+03  0.17300000000E+03 0. -1.
<mgrwt>
<rscale>  2 0.19302086E+03</rscale>
<asrwt>0</asrwt>
<pdfrwt beam="1">  1       21 0.60752132E-01 0.19302086E+03</pdfrwt>
<pdfrwt beam="2">  1       21 0.16219148E-01 0.19302086E+03</pdfrwt>
<totfact> 0.85791799E+04</totfact>
</mgrwt>
</event>
<event>
 4    1  0.4151607E+000  0.2131771E+03  0.7546771E-02  0.1139075E+00
         21   -1    0    0  503  502  0.00000000000E+00  0.00000000000E+00  0.61649384502E+02  0.61649384502E+02  0.00000000000E+00 0. -1.
         21   -1    0    0  501  503 -0.00000000000E+00 -0.00000000000E+00 -0.12835749211E+04  0.12835749211E+04  0.00000000000E+00 0. -1.
          6    1    1    2  501    0 -0.39414018971E+02 -0.11816090159E+03 -0.10498185238E+04  0.10712438548E+04  0.17300000000E+03 0. -1.
         -6    1    1    2    0  502  0.39414018971E+02  0.11816090159E+03 -0.17210701278E+03  0.27398045077E+03  0.17300000000E+03 0. -1.
<mgrwt>
<rscale>  2 0.21317707E+03</rscale>
<asrwt>0</asrwt>
<pdfrwt beam="1">  1       21 0.94845211E-02 0.21317707E+03</pdfrwt>
<pdfrwt beam="2">  1       21 0.19747306E+00 0.21317707E+03</pdfrwt>
<totfact> 0.12217391E+04</totfact>
</mgrwt>
</event>
<event>
 4    1  0.4151607E+000  0.2435169E+03  0.7546771E-02  0.1117472E+00
         21   -1    0    0  503  502  0.00000000000E+00  0.00000000000E+00  0.17925434207E+03  0.17925434207E+03  0.00000000000E+00 0.  1.
         21   -1    0    0  501  503 -0.00000000000E+00 -0.00000000000E+00 -0.35097854077E+03  0.35097854077E+03  0.00000000000E+00 0.  1.
          6    1    1    2  501    0  0.10833240755E+03  0.13279892817E+03 -0.14940299057E+03  0.28569515124E+03  0.17300000000E+03 0.  1.
         -6    1    1    2    0  502 -0.10833240755E+03 -0.13279892817E+03 -0.22321208134E+02  0.24453773161E+03  0.17300000000E+03 0.  1.
<mgrwt>
<rscale>  2 0.24351687E+03</rscale>
<asrwt>0</asrwt>
<pdfrwt beam="1">  1       21 0.27577591E-01 0.24351687E+03</pdfrwt>
<pdfrwt beam="2">  1       21 0.53996698E-01 0.24351687E+03</pdfrwt>
<totfact> 0.39711835E+04</totfact>
</mgrwt>
</event>
<event>
 4    1  0.4151607E+000  0.3834971E+03  0.7546771E-02  0.1049649E+00
         21   -1    0    0  503  502  0.00000000000E+00  0.00000000000E+00  0.37704448376E+03  0.37704448376E+03  0.00000000000E+00 0. -1.
         21   -1    0    0  501  503 -0.00000000000E+00 -0.00000000000E+00 -0.16638709805E+04  0.16638709805E+04  0.00000000000E+00 0.  1.
          6    1    1    2  501    0  0.51917538737E+02  0.33829810906E+03 -0.15362820732E+04  0.15834243430E+04  0.17300000000E+03 0.  1.
         -6    1    1    2    0  502 -0.51917538737E+02 -0.33829810906E+03  0.24945557647E+03  0.45749112129E+03  0.17300000000E+03 0. -1.
<mgrwt>
<rscale>  2 0.38349712E+03</rscale>
<asrwt>0</asrwt>
<pdfrwt beam="1">  1       21 0.58006844E-01 0.38349712E+03</pdfrwt>
<pdfrwt beam="2">  1       21 0.25598015E+00 0.38349712E+03</pdfrwt>
<totfact> 0.14069659E+02</totfact>
</mgrwt>
</event>
<event>
 4    1  0.4151607E+000  0.1968314E+03  0.7546771E-02  0.1152440E+00
         21   -1    0    0  503  502  0.00000000000E+00  0.00000000000E+00  0.88109459939E+03  0.88109459939E+03  0.00000000000E+00 0.  1.
         21   -1    0    0  501  503 -0.00000000000E+00 -0.00000000000E+00 -0.55587015549E+02  0.55587015549E+02  0.00000000000E+00 0.  1.
          6    1    1    2  501    0 -0.15135774437E+02 -0.92652569654E+02  0.19865986671E+03  0.27965752801E+03  0.17300000000E+03 0.  1.
         -6    1    1    2    0  502  0.15135774437E+02  0.92652569654E+02  0.62684771713E+03  0.65702408693E+03  0.17300000000E+03 0.  1.
<mgrwt>
<rscale>  2 0.19683138E+03</rscale>
<asrwt>0</asrwt>
<pdfrwt beam="1">  1       21 0.13555301E+00 0.19683138E+03</pdfrwt>
<pdfrwt beam="2">  1       21 0.85518491E-02 0.19683138E+03</pdfrwt>
<totfact> 0.41430124E+04</totfact>
</mgrwt>
</event>
<event>
 4    1  0.4151607E+000  0.2062985E+03  0.7546771E-02  0.1144531E+00
         21   -1    0    0  501  502  0.00000000000E+00  0.00000000000E+00  0.62778192766E+02  0.62778192766E+02  0.00000000000E+00 0.  1.
         21   -1    0    0  502  503 -0.00000000000E+00 -0.00000000000E+00 -0.17679194408E+04  0.17679194408E+04  0.00000000000E+00 0.  1.
          6    1    1    2  501    0  0.10349726374E+03 -0.43799546513E+02 -0.13383864808E+03  0.24591028363E+03  0.17300000000E+03 0.  1.
         -6    1    1    2    0  503 -0.10349726374E+03  0.43799546513E+02 -0.15713025999E+04  0.15847873499E+04  0.17300000000E+03 0.  1.
<mgrwt>
<rscale>  2 0.20629853E+03</rscale>
<asrwt>0</asrwt>
<pdfrwt beam="1">  1       21 0.96581837E-02 0.20629853E+03</pdfrwt>
<pdfrwt beam="2">  1       21 0.27198760E+00 0.20629853E+03</pdfrwt>
<totfact> 0.42086950E+03</totfact>
</mgrwt>
</event>
<event>
 4    1  0.4151607E+000  0.2121256E+03  0.7546771E-02  0.1139894E+00
         21   -1    0    0  501  502  0.00000000000E+00  0.00000000000E+00  0.24711467171E+04  0.24711467171E+04  0.00000000000E+00 0. -1.
         21   -1    0    0  502  503 -0.00000000000E+00 -0.00000000000E+00 -0.48716680210E+02  0.48716680210E+02  0.00000000000E+00 0.  1.
          6    1    1    2  501    0 -0.11863793078E+03 -0.31516511706E+02  0.22082544931E+04  0.22184195175E+04  0.17300000000E+03 0. -1.
         -6    1    1    2    0  503  0.11863793078E+03  0.31516511706E+02  0.21417554371E+03  0.30144387977E+03  0.17300000000E+03 0.  1.
<mgrwt>
<rscale>  2 0.21212555E+03</rscale>
<asrwt>0</asrwt>
<pdfrwt beam="1">  1       21 0.38017632E+00 0.21212555E+03</pdfrwt>
<pdfrwt beam="2">  1       21 0.74948758E-02 0.21212555E+03</pdfrwt>
<totfact> 0.15087285E+03</totfact>
</mgrwt>
</event>
<event>
 4    1  0.4151607E+000  0.3271785E+03  0.7546771E-02  0.1072392E+00
         21   -1    0    0  503  502  0.00000000000E+00  0.00000000000E+00  0.16387698014E+04  0.16387698014E+04  0.00000000000E+00 0. -1.
         21   -1    0    0  501  503 -0.00000000000E+00 -0.00000000000E+00 -0.67976512875E+02  0.67976512875E+02  0.00000000000E+00 0. -1.
          6    1    1    2  501    0 -0.25285555877E+03  0.11480788236E+03  0.61672244811E+03  0.69813491637E+03  0.17300000000E+03 0. -1.
         -6    1    1    2    0  502  0.25285555877E+03 -0.11480788236E+03  0.95407084037E+03  0.10086113979E+04  0.17300000000E+03 0. -1.
<mgrwt>
<rscale>  2 0.32717852E+03</rscale>
<asrwt>0</asrwt>
<pdfrwt beam="1">  1       21 0.25211840E+00 0.32717852E+03</pdfrwt>
<pdfrwt beam="2">  1       21 0.10457926E-01 0.32717852E+03</pdfrwt>
<totfact> 0.43467941E+03</totfact>
</mgrwt>
</event>
<event>
 4    1  0.4151607E+000  0.2092539E+03  0.7546771E-02  0.1142158E+00
         21   -1    0    0  501  502  0.00000000000E+00  0.00000000000E+00  0.12915930078E+03  0.12915930078E+03  0.00000000000E+00 0. -1.
         21   -1    0    0  502  503 -0.00000000000E+00 -0.00000000000E+00 -0.41799694786E+03  0.41799694786E+03  0.00000000000E+00 0.  1.
          6    1    1    2  501    0  0.66819985888E+02 -0.96918906665E+02 -0.25499200180E+02  0.21080178888E+03  0.17300000000E+03 0. -1.
         -6    1    1    2    0  503 -0.66819985888E+02  0.96918906665E+02 -0.26333844691E+03  0.33635445976E+03  0.17300000000E+03 0. -1.
<mgrwt>
<rscale>  2 0.20925388E+03</rscale>
<asrwt>0</asrwt>
<pdfrwt beam="1">  1       21 0.19870662E-01 0.20925388E+03</pdfrwt>
<pdfrwt beam="2">  1       21 0.64307222E-01 0.20925388E+03</pdfrwt>
<totfact> 0.51705386E+04</totfact>
</mgrwt>
</event>
<event>
 4    1  0.4151607E+000  0.1985275E+03  0.7546771E-02  0.1150987E+00
         21   -1    0    0  501  502  0.00000000000E+00  0.00000000000E+00  0.72359679508E+02  0.72359679508E+02  0.00000000000E+00 0. -1.
         21   -1    0    0  502  503 -0.00000000000E+00 -0.00000000000E+00 -0.15583609097E+04  0.15583609097E+04  0.00000000000E+00 0. -1.
          6    1    1    2  501    0  0.95804361049E+02 -0.17484183407E+02 -0.85395359071E+02  0.21611464461E+03  0.17300000000E+03 0. -1.
         -6    1    1    2    0  503 -0.95804361049E+02  0.17484183407E+02 -0.14006058711E+04  0.14146059446E+04  0.17300000000E+03 0. -1.
<mgrwt>
<rscale>  2 0.19852751E+03</rscale>
<asrwt>0</asrwt>
<pdfrwt beam="1">  1       21 0.11132259E-01 0.19852751E+03</pdfrwt>
<pdfrwt beam="2">  1       21 0.23974782E+00 0.19852751E+03</pdfrwt>
<totfact> 0.50990687E+03</totfact>
</mgrwt>
</event>
<event>
 4    1  0.4151607E+000  0.1820735E+03  0.7546771E-02  0.1165811E+00
         21   -1    0    0  501  502  0.00000000000E+00  0.00000000000E+00  0.82840311573E+03  0.82840311573E+03  0.00000000000E+00 0.  1.
         21   -1    0    0  502  503 -0.00000000000E+00 -0.00000000000E+00 -0.40279360457E+02  0.40279360457E+02  0.00000000000E+00 0.  1.
          6    1    1    2  501    0 -0.49624138577E+02  0.27553793690E+02  0.42907086538E+03  0.46610360886E+03  0.17300000000E+03 0. -1.
         -6    1    1    2    0  503  0.49624138577E+02 -0.27553793690E+02  0.35905288989E+03  0.40257886732E+03  0.17300000000E+03 0. -1.
<mgrwt>
<rscale>  2 0.18207352E+03</rscale>
<asrwt>0</asrwt>
<pdfrwt beam="1">  1       21 0.12744662E+00 0.18207352E+03</pdfrwt>
<pdfrwt beam="2">  1       21 0.61968253E-02 0.18207352E+03</pdfrwt>
<totfact> 0.85190566E+04</totfact>
</mgrwt>
</event>
<event>
 4    1  0.4151607E+000  0.2597540E+03  0.7546771E-02  0.1107291E+00
         21   -1    0    0  503  502  0.00000000000E+00  0.00000000000E+00  0.52502481810E+03  0.52502481810E+03  0.00000000000E+00 0. -1.
         21   -1    0    0  501  503 -0.00000000000E+00 -0.00000000000E+00 -0.23398760618E+03  0.23398760618E+03  0.00000000000E+00 0. -1.
          6    1    1    2  501    0  0.15756153882E+03  0.11277190409E+03 -0.10928049026E+03  0.28180554718E+03  0.17300000000E+03 0. -1.
         -6    1    1    2    0  502 -0.15756153882E+03 -0.11277190409E+03  0.40031770218E+03  0.47720687710E+03  0.17300000000E+03 0. -1.
<mgrwt>
<rscale>  2 0.25975400E+03</rscale>
<asrwt>0</asrwt>
<pdfrwt beam="1">  1       21 0.80773049E-01 0.25975400E+03</pdfrwt>
<pdfrwt beam="2">  1       21 0.35998093E-01 0.25975400E+03</pdfrwt>
<totfact> 0.96069606E+03</totfact>
</mgrwt>
</event>
<event>
 4    1  0.4151607E+000  0.1756089E+03  0.7546771E-02  0.1172122E+00
         21   -1    0    0  501  502  0.00000000000E+00  0.00000000000E+00  0.35004387978E+03  0.35004387978E+03  0.00000000000E+00 0.  1.
         21   -1    0    0  502  503 -0.00000000000E+00 -0.00000000000E+00 -0.91228725085E+02  0.91228725085E+02  0.00000000000E+00 0.  1.
          6    1    1    2  501    0 -0.26957358372E+02  0.13519756039E+02  0.17027438960E+03  0.24460550020E+03  0.17300000000E+03 0.  1.
         -6    1    1    2    0  503  0.26957358372E+02 -0.13519756039E+02  0.88540765093E+02  0.19666710466E+03  0.17300000000E+03 0.  1.
<mgrwt>
<rscale>  2 0.17560889E+03</rscale>
<asrwt>0</asrwt>
<pdfrwt beam="1">  1       21 0.53852904E-01 0.17560889E+03</pdfrwt>
<pdfrwt beam="2">  1       21 0.14035189E-01 0.17560889E+03</pdfrwt>
<totfact> 0.14517190E+05</totfact>
</mgrwt>
</event>
<event>
 4    1  0.4151607E+000  0.1981369E+03  0.7546771E-02  0.1151320E+00
         21   -1    0    0  501  502  0.00000000000E+00  0.00000000000E+00  0.31910985363E+02  0.31910985363E+02  0.00000000000E+00 0. -1.
         21   -1    0    0  502  503 -0.00000000000E+00 -0.00000000000E+00 -0.14958202531E+04  0.14958202531E+04  0.00000000000E+00 0.  1.
          6    1    1    2  501    0  0.32008217842E+02  0.91130224891E+02 -0.41008999094E+03  0.45544708207E+03  0.17300000000E+03 0. -1.
         -6    1    1    2    0  503 -0.32008217842E+02 -0.91130224891E+02 -0.10538192768E+04  0.10722841564E+04  0.17300000000E+03 0.  1.
<mgrwt>
<rscale>  2 0.19813693E+03</rscale>
<asrwt>0</asrwt>
<pdfrwt beam="1">  1       21 0.49093820E-02 0.19813693E+03</pdfrwt>
<pdfrwt beam="2">  1       21 0.23012621E+00 0.19813693E+03</pdfrwt>
<totfact> 0.24115820E+04</totfact>
</mgrwt>
</event>
<event>
 4    1  0.4151607E+000  0.1816861E+03  0.7546771E-02  0.1166181E+00
         21   -1    0    0  503  502  0.00000000000E+00  0.00000000000E+00  0.11507111437E+03  0.11507111437E+03  0.00000000000E+00 0. -1.
         21   -1    0    0  501  503 -0.00000000000E+00 -0.00000000000E+00 -0.33209841608E+03  0.33209841608E+03  0.00000000000E+00 0. -1.
          6    1    1    2  501    0 -0.15689372558E+02 -0.53241644784E+02 -0.19103007919E+03  0.26363292720E+03  0.17300000000E+03 0. -1.
         -6    1    1    2    0  502  0.15689372558E+02  0.53241644784E+02 -0.25997222521E+02  0.18353660324E+03  0.17300000000E+03 0. -1.
<mgrwt>
<rscale>  2 0.18168607E+03</rscale>
<asrwt>0</asrwt>
<pdfrwt beam="1">  1       21 0.17703249E-01 0.18168607E+03</pdfrwt>
<pdfrwt beam="2">  1       21 0.51092063E-01 0.18168607E+03</pdfrwt>
<totfact> 0.10587931E+05</totfact>
</mgrwt>
</event>
<event>
 4    1  0.4151607E+000  0.1857516E+03  0.7546771E-02  0.1162350E+00
         21   -1    0    0  503  502  0.00000000000E+00  0.00000000000E+00  0.37697246651E+02  0.37697246651E+02  0.00000000000E+00 0.  1.
         21   -1    0    0  501  503 -0.00000000000E+00 -0.00000000000E+00 -0.94669714171E+03  0.94669714171E+03  0.00000000000E+00 0.  1.
          6    1    1    2  501    0 -0.78111421977E+01  0.67183780517E+02 -0.54415846648E+03  0.57498879202E+03  0.17300000000E+03 0.  1.
         -6    1    1    2    0  502  0.78111421977E+01 -0.67183780517E+02 -0.36484142858E+03  0.40940559634E+03  0.17300000000E+03 0.  1.
<mgrwt>
<rscale>  2 0.18575165E+03</rscale>
<asrwt>0</asrwt>
<pdfrwt beam="1">  1       21 0.57995772E-02 0.18575165E+03</pdfrwt>
<pdfrwt beam="2">  1       21 0.14564570E+00 0.18575165E+03</pdfrwt>
<totfact> 0.67717377E+04</totfact>
</mgrwt>
</event>
<event>
 4    1  0.4151607E+000  0.3183325E+03  0.7546771E-02  0.1076419E+00
         21   -1    0    0  501  502  0.00000000000E+00  0.00000000000E+00  0.90047472002E+03  0.90047472002E+03  0.00000000000E+00 0. -1.
         21   -1    0    0  502  503 -0.00000000000E+00 -0.00000000000E+00 -0.18759982813E+03  0.18759982813E+03  0.00000000000E+00 0. -1.
          6    1    1    2  501    0 -0.22109072247E+03  0.15008488556E+03  0.70057222989E+03  0.76950440527E+03  0.17300000000E+03 0. -1.
         -6    1    1    2    0  503  0.22109072247E+03 -0.15008488556E+03  0.12302662001E+02  0.31857014287E+03  0.17300000000E+03 0. -1.
<mgrwt>
<rscale>  2 0.31833250E+03</rscale>
<asrwt>0</asrwt>
<pdfrwt beam="1">  1       21 0.13853457E+00 0.31833250E+03</pdfrwt>
<pdfrwt beam="2">  1       21 0.28861513E-01 0.31833250E+03</pdfrwt>
<totfact> 0.38822281E+03</totfact>
</mgrwt>
</event>
<event>
 4    1  0.4151607E+000  0.1790856E+03  0.7546771E-02  0.1168691E+00
         21   -1    0    0  503  502  0.00000000000E+00  0.00000000000E+00  0.25278937313E+04  0.25278937313E+04  0.00000000000E+00 0. -1.
         21   -1    0    0  501  503 -0.00000000000E+00 -0.00000000000E+00 -0.17316306304E+02  0.17316306304E+02  0.00000000000E+00 0. -1.
          6    1    1    2  501    0  0.36174637371E+02  0.28879941501E+02  0.59729916555E+03  0.62356872001E+03  0.17300000000E+03 0. -1.
         -6    1    1    2    0  502 -0.36174637371E+02 -0.28879941501E+02  0.19132782594E+04  0.19216413176E+04  0.17300000000E+03 0. -1.
<mgrwt>
<rscale>  2 0.17908561E+03</rscale>
<asrwt>0</asrwt>
<pdfrwt beam="1">  1       21 0.38890644E+00 0.17908561E+03</pdfrwt>
<pdfrwt beam="2">  1       21 0.26640491E-02 0.17908561E+03</pdfrwt>
<totfact> 0.79987307E+03</totfact>
</mgrwt>
</event>
<event>
 4    1  0.4151607E+000  0.2480868E+03  0.7546771E-02  0.1114520E+00
         21   -1    0    0  503  502  0.00000000000E+00  0.00000000000E+00  0.29695028623E+03  0.29695028623E+03  0.00000000000E+00 0. -1.
         21   -1    0    0  501  503 -0.00000000000E+00 -0.00000000000E+00 -0.20757278559E+03  0.20757278559E+03  0.00000000000E+00 0. -1.
          6    1    1    2  501    0 -0.17712876955E+03 -0.15602981765E+02  0.54420992671E+02  0.25398562654E+03  0.17300000000E+03 0. -1.
         -6    1    1    2    0  502  0.17712876955E+03  0.15602981765E+02  0.34956507972E+02  0.25053744529E+03  0.17300000000E+03 0. -1.
<mgrwt>
<rscale>  2 0.24808679E+03</rscale>
<asrwt>0</asrwt>
<pdfrwt beam="1">  1       21 0.45684659E-01 0.24808679E+03</pdfrwt>
<pdfrwt beam="2">  1       21 0.31934275E-01 0.24808679E+03</pdfrwt>
<totfact> 0.42219600E+04</totfact>
</mgrwt>
</event>
<event>
 4    1  0.4151607E+000  0.1736912E+03  0.7546771E-02  0.1174052E+00
         21   -1    0    0  503  502  0.00000000000E+00  0.00000000000E+00  0.44077290746E+02  0.44077290746E+02  0.00000000000E+00 0. -1.
         21   -1    0    0  501  503 -0.00000000000E+00 -0.00000000000E+00 -0.14516717370E+04  0.14516717370E+04  0.00000000000E+00 0. -1.
          6    1    1    2  501    0  0.13699557303E+01 -0.15419601245E+02 -0.12474922524E+04  0.12595259269E+04  0.17300000000E+03 0. -1.
         -6    1    1    2    0  502 -0.13699557303E+01  0.15419601245E+02 -0.16010219394E+03  0.23622310087E+03  0.17300000000E+03 0. -1.
<mgrwt>
<rscale>  2 0.17369122E+03</rscale>
<asrwt>0</asrwt>
<pdfrwt beam="1">  1       21 0.67811214E-02 0.17369122E+03</pdfrwt>
<pdfrwt beam="2">  1       21 0.22333412E+00 0.17369122E+03</pdfrwt>
<totfact> 0.15591973E+04</totfact>
</mgrwt>
</event>
<event>
 4    1  0.4151607E+000  0.2225933E+03  0.7546771E-02  0.1131964E+00
         21   -1    0    0  503  502  0.00000000000E+00  0.00000000000E+00  0.31059927599E+03  0.31059927599E+03  0.00000000000E+00 0. -1.
         21   -1    0    0  501  503 -0.00000000000E+00 -0.00000000000E+00 -0.17369530296E+03  0.17369530296E+03  0.00000000000E+00 0. -1.
          6    1    1    2  501    0 -0.20125242835E+01 -0.14005259431E+03 -0.71570267414E+00  0.22259445559E+03  0.17300000000E+03 0. -1.
         -6    1    1    2    0  502  0.20125242835E+01  0.14005259431E+03  0.13761967570E+03  0.26170012336E+03  0.17300000000E+03 0. -1.
<mgrwt>
<rscale>  2 0.22259330E+03</rscale>
<asrwt>0</asrwt>
<pdfrwt beam="1">  1       21 0.47784504E-01 0.22259330E+03</pdfrwt>
<pdfrwt beam="2">  1       21 0.26722354E-01 0.22259330E+03</pdfrwt>
<totfact> 0.55052766E+04</totfact>
</mgrwt>
</event>
<event>
 4    1  0.4151607E+000  0.3441916E+03  0.7546771E-02  0.1065025E+00
         21   -1    0    0  501  502  0.00000000000E+00  0.00000000000E+00  0.84045835084E+03  0.84045835084E+03  0.00000000000E+00 0. -1.
         21   -1    0    0  502  503 -0.00000000000E+00 -0.00000000000E+00 -0.34851141010E+03  0.34851141010E+03  0.00000000000E+00 0.  1.
          6    1    1    2  501    0  0.24965101391E+03 -0.16190510394E+03  0.70474772491E+03  0.78430685780E+03  0.17300000000E+03 0. -1.
         -6    1    1    2    0  503 -0.24965101391E+03  0.16190510394E+03 -0.21280078417E+03  0.40466290313E+03  0.17300000000E+03 0.  1.
<mgrwt>
<rscale>  2 0.34419165E+03</rscale>
<asrwt>0</asrwt>
<pdfrwt beam="1">  1       21 0.12930128E+00 0.34419165E+03</pdfrwt>
<pdfrwt beam="2">  1       21 0.53617140E-01 0.34419165E+03</pdfrwt>
<totfact> 0.12903554E+03</totfact>
</mgrwt>
</event>
<event>
 4    1  0.4151607E+000  0.1864195E+03  0.7546771E-02  0.1161731E+00
         21   -1    0    0  501  502  0.00000000000E+00  0.00000000000E+00  0.16024021449E+03  0.16024021449E+03  0.00000000000E+00 0.  1.
         21   -1    0    0  502  503 -0.00000000000E+00 -0.00000000000E+00 -0.25032698609E+03  0.25032698609E+03  0.00000000000E+00 0.  1.
          6    1    1    2  501    0 -0.45147448414E+02 -0.52772398885E+02  0.29998967623E+02  0.18881778582E+03  0.17300000000E+03 0.  1.
         -6    1    1    2    0  503  0.45147448414E+02  0.52772398885E+02 -0.12008573922E+03  0.22174941476E+03  0.17300000000E+03 0.  1.
<mgrwt>
<rscale>  2 0.18641947E+03</rscale>
<asrwt>0</asrwt>
<pdfrwt beam="1">  1       21 0.24652341E-01 0.18641947E+03</pdfrwt>
<pdfrwt beam="2">  1       21 0.38511844E-01 0.18641947E+03</pdfrwt>
<totfact> 0.10138030E+05</totfact>
</mgrwt>
</event>
<event>
 4    1  0.4151607E+000  0.1767639E+03  0.7546771E-02  0.1170972E+00
         21   -1    0    0  501  502  0.00000000000E+00  0.00000000000E+00  0.22234365732E+03  0.22234365732E+03  0.00000000000E+00 0.  1.
         21   -1    0    0  502  503 -0.00000000000E+00 -0.00000000000E+00 -0.16712158793E+03  0.16712158793E+03  0.00000000000E+00 0.  1.
          6    1    1    2  501    0  0.11525785122E+02 -0.34403955920E+02  0.10529155691E+03  0.20574690244E+03  0.17300000000E+03 0.  1.
         -6    1    1    2    0  503 -0.11525785122E+02  0.34403955920E+02 -0.50069487525E+02  0.18371834281E+03  0.17300000000E+03 0.  1.
<mgrwt>
<rscale>  2 0.17676390E+03</rscale>
<asrwt>0</asrwt>
<pdfrwt beam="1">  1       21 0.34206717E-01 0.17676390E+03</pdfrwt>
<pdfrwt beam="2">  1       21 0.25711013E-01 0.17676390E+03</pdfrwt>
<totfact> 0.11889251E+05</totfact>
</mgrwt>
</event>
<event>
 4    1  0.4151607E+000  0.1851349E+03  0.7546771E-02  0.1162924E+00
         21   -1    0    0  501  502  0.00000000000E+00  0.00000000000E+00  0.46809636445E+02  0.46809636445E+02  0.00000000000E+00 0. -1.
         21   -1    0    0  502  503 -0.00000000000E+00 -0.00000000000E+00 -0.12290182264E+04  0.12290182264E+04  0.00000000000E+00 0. -1.
          6    1    1    2  501    0 -0.59707985882E+02  0.27944172825E+02 -0.18552736946E+03  0.26209793054E+03  0.17300000000E+03 0. -1.
         -6    1    1    2    0  503  0.59707985882E+02 -0.27944172825E+02 -0.99668122054E+03  0.10137299324E+04  0.17300000000E+03 0. -1.
<mgrwt>
<rscale>  2 0.18513487E+03</rscale>
<asrwt>0</asrwt>
<pdfrwt beam="1">  1       21 0.72014831E-02 0.18513487E+03</pdfrwt>
<pdfrwt beam="2">  1       21 0.18907971E+00 0.18513487E+03</pdfrwt>
<totfact> 0.22904373E+04</totfact>
</mgrwt>
</event>
<event>
 4    1  0.4151607E+000  0.2371360E+03  0.7546771E-02  0.1121716E+00
         21   -1    0    0  501  502  0.00000000000E+00  0.00000000000E+00  0.17814458537E+04  0.17814458537E+04  0.00000000000E+00 0.  1.
         21   -1    0    0  502  503 -0.00000000000E+00 -0.00000000000E+00 -0.33213939760E+02  0.33213939760E+02  0.00000000000E+00 0.  1.
          6    1    1    2  501    0  0.11743889336E+03 -0.11185978056E+03  0.10762070898E+04  0.11020232322E+04  0.17300000000E+03 0.  1.
         -6    1    1    2    0  503 -0.11743889336E+03  0.11185978056E+03  0.67202482418E+03  0.71263656130E+03  0.17300000000E+03 0.  1.
<mgrwt>
<rscale>  2 0.23713605E+03</rscale>
<asrwt>0</asrwt>
<pdfrwt beam="1">  1       21 0.27406852E+00 0.23713605E+03</pdfrwt>
<pdfrwt beam="2">  1       21 0.51098383E-02 0.23713605E+03</pdfrwt>
<totfact> 0.11987365E+04</totfact>
</mgrwt>
</event>
<event>
 4    1  0.4151607E+000  0.1965401E+03  0.7546771E-02  0.1152691E+00
         21   -1    0    0  503  502  0.00000000000E+00  0.00000000000E+00  0.34399610332E+03  0.34399610332E+03  0.00000000000E+00 0. -1.
         21   -1    0    0  501  503 -0.00000000000E+00 -0.00000000000E+00 -0.15069483156E+03  0.15069483156E+03  0.00000000000E+00 0. -1.
          6    1    1    2  501    0  0.69473318455E+02  0.62229117418E+02 -0.28213147573E+02  0.19855474491E+03  0.17300000000E+03 0.  1.
         -6    1    1    2    0  502 -0.69473318455E+02 -0.62229117418E+02  0.22151441934E+03  0.29613618996E+03  0.17300000000E+03 0.  1.
<mgrwt>
<rscale>  2 0.19654009E+03</rscale>
<asrwt>0</asrwt>
<pdfrwt beam="1">  1       21 0.52922477E-01 0.19654009E+03</pdfrwt>
<pdfrwt beam="2">  1       21 0.23183820E-01 0.19654009E+03</pdfrwt>
<totfact> 0.59039823E+04</totfact>
</mgrwt>
</event>
<event>
 4    1  0.4151607E+000  0.1849544E+03  0.7546771E-02  0.1163092E+00
         21   -1    0    0  503  502  0.00000000000E+00  0.00000000000E+00  0.24734497279E+03  0.24734497279E+03  0.00000000000E+00 0. -1.
         21   -1    0    0  501  503 -0.00000000000E+00 -0.00000000000E+00 -0.19384344135E+03  0.19384344135E+03  0.00000000000E+00 0. -1.
          6    1    1    2  501    0 -0.65136014967E+02 -0.60363287543E+01 -0.91330161802E+02  0.20627490435E+03  0.17300000000E+03 0. -1.
         -6    1    1    2    0  502  0.65136014967E+02  0.60363287543E+01  0.14483169325E+03  0.23491350979E+03  0.17300000000E+03 0. -1.
<mgrwt>
<rscale>  2 0.18495442E+03</rscale>
<asrwt>0</asrwt>
<pdfrwt beam="1">  1       21 0.38053073E-01 0.18495442E+03</pdfrwt>
<pdfrwt beam="2">  1       21 0.29822068E-01 0.18495442E+03</pdfrwt>
<totfact> 0.72028105E+04</totfact>
</mgrwt>
</event>
<event>
 4    1  0.4151607E+000  0.1756721E+03  0.7546771E-02  0.1172059E+00
         21   -1    0    0  503  502  0.00000000000E+00  0.00000000000E+00  0.21747374785E+03  0.21747374785E+03  0.00000000000E+00 0. -1.
         21   -1    0    0  501  503 -0.00000000000E+00 -0.00000000000E+00 -0.28586386977E+03  0.28586386977E+03  0.00000000000E+00 0.  1.
          6    1    1    2  501    0  0.29564889533E+02  0.75906444430E+01 -0.21278967617E+03  0.27593504102E+03  0.17300000000E+03 0.  1.
         -6    1    1    2    0  502 -0.29564889533E+02 -0.75906444430E+01  0.14439955425E+03  0.22740257660E+03  0.17300000000E+03 0. -1.
<mgrwt>
<rscale>  2 0.17567214E+03</rscale>
<asrwt>0</asrwt>
<pdfrwt beam="1">  1       21 0.33457500E-01 0.17567214E+03</pdfrwt>
<pdfrwt beam="2">  1       21 0.43979057E-01 0.17567214E+03</pdfrwt>
<totfact> 0.43094989E+04</totfact>
</mgrwt>
</event>
<event>
 4    1  0.4151607E+000  0.1736729E+03  0.7546771E-02  0.1174071E+00
         21   -1    0    0  503  502  0.00000000000E+00  0.00000000000E+00  0.15790784202E+03  0.15790784202E+03  0.00000000000E+00 0.  1.
         21   -1    0    0  501  503 -0.00000000000E+00 -0.00000000000E+00 -0.44810695426E+03  0.44810695426E+03  0.00000000000E+00 0.  1.
          6    1    1    2  501    0 -0.10672118013E+02 -0.10926018035E+02 -0.37461360682E+03  0.41291358223E+03  0.17300000000E+03 0.  1.
         -6    1    1    2    0  502  0.10672118013E+02  0.10926018035E+02  0.84414494584E+02  0.19310121405E+03  0.17300000000E+03 0.  1.
<mgrwt>
<rscale>  2 0.17367289E+03</rscale>
<asrwt>0</asrwt>
<pdfrwt beam="1">  1       21 0.24293514E-01 0.17367289E+03</pdfrwt>
<pdfrwt beam="2">  1       21 0.68939531E-01 0.17367289E+03</pdfrwt>
<totfact> 0.30976629E+04</totfact>
</mgrwt>
</event>
<event>
 4    1  0.4151607E+000  0.1819618E+03  0.7546771E-02  0.1165918E+00
         21   -1    0    0  501  502  0.00000000000E+00  0.00000000000E+00  0.16696376036E+03  0.16696376036E+03  0.00000000000E+00 0. -1.
         21   -1    0    0  502  503 -0.00000000000E+00 -0.00000000000E+00 -0.22921187426E+03  0.22921187426E+03  0.00000000000E+00 0. -1.
          6    1    1    2  501    0 -0.40524428229E+01  0.56255477782E+02  0.41612362112E+02  0.18665928789E+03  0.17300000000E+03 0. -1.
         -6    1    1    2    0  503  0.40524428229E+01 -0.56255477782E+02 -0.10386047601E+03  0.20951634674E+03  0.17300000000E+03 0. -1.
<mgrwt>
<rscale>  2 0.18196181E+03</rscale>
<asrwt>0</asrwt>
<pdfrwt beam="1">  1       21 0.25686732E-01 0.18196181E+03</pdfrwt>
<pdfrwt beam="2">  1       21 0.35263365E-01 0.18196181E+03</pdfrwt>
<totfact> 0.11193451E+05</totfact>
</mgrwt>
</event>
<event>
 4    1  0.4151607E+000  0.2050854E+03  0.7546771E-02  0.1145518E+00
         21   -1    0    0  503  502  0.00000000000E+00  0.00000000000E+00  0.40497846570E+03  0.40497846570E+03  0.00000000000E+00 0. -1.
         21   -1    0    0  501  503 -0.00000000000E+00 -0.00000000000E+00 -0.15090447937E+03  0.15090447937E+03  0.00000000000E+00 0. -1.
          6    1    1    2  501    0  0.88392978393E+01 -0.10978564843E+03 -0.28154708030E+02  0.20700895964E+03  0.17300000000E+03 0. -1.
         -6    1    1    2    0  502 -0.88392978393E+01  0.10978564843E+03  0.28222869436E+03  0.34887398542E+03  0.17300000000E+03 0. -1.
<mgrwt>
<rscale>  2 0.20508540E+03</rscale>
<asrwt>0</asrwt>
<pdfrwt beam="1">  1       21 0.62304379E-01 0.20508540E+03</pdfrwt>
<pdfrwt beam="2">  1       21 0.23216074E-01 0.20508540E+03</pdfrwt>
<totfact> 0.41394430E+04</totfact>
</mgrwt>
</event>
<event>
 4    1  0.4151607E+000  0.1968985E+03  0.7546771E-02  0.1152382E+00
         21   -1    0    0  501  502  0.00000000000E+00  0.00000000000E+00  0.37371308178E+03  0.37371308178E+03  0.00000000000E+00 0.  1.
         21   -1    0    0  502  503 -0.00000000000E+00 -0.00000000000E+00 -0.10856314686E+03  0.10856314686E+03  0.00000000000E+00 0.  1.
          6    1    1    2  501    0 -0.70501527136E+02 -0.62205638073E+02  0.18340126685E+03  0.26908183034E+03  0.17300000000E+03 0.  1.
         -6    1    1    2    0  503  0.70501527136E+02  0.62205638073E+02  0.81748668071E+02  0.21319439830E+03  0.17300000000E+03 0.  1.
<mgrwt>
<rscale>  2 0.19689847E+03</rscale>
<asrwt>0</asrwt>
<pdfrwt beam="1">  1       21 0.57494319E-01 0.19689847E+03</pdfrwt>
<pdfrwt beam="2">  1       21 0.16702023E-01 0.19689847E+03</pdfrwt>
<totfact> 0.91329855E+04</totfact>
</mgrwt>
</event>
<event>
 4    1  0.4151607E+000  0.2403522E+03  0.7546771E-02  0.1119558E+00
         21   -1    0    0  501  502  0.00000000000E+00  0.00000000000E+00  0.14882479110E+04  0.14882479110E+04  0.00000000000E+00 0.  1.
         21   -1    0    0  502  503 -0.00000000000E+00 -0.00000000000E+00 -0.65126572104E+02  0.65126572104E+02  0.00000000000E+00 0. -1.
          6    1    1    2  501    0  0.15223502270E+03  0.68298307350E+02  0.12052171369E+04  0.12289497581E+04  0.17300000000E+03 0.  1.
         -6    1    1    2    0  503 -0.15223502270E+03 -0.68298307350E+02  0.21790420196E+03  0.32442472494E+03  0.17300000000E+03 0. -1.
<mgrwt>
<rscale>  2 0.24035216E+03</rscale>
<asrwt>0</asrwt>
<pdfrwt beam="1">  1       21 0.22896119E+00 0.24035216E+03</pdfrwt>
<pdfrwt beam="2">  1       21 0.10019474E-01 0.24035216E+03</pdfrwt>
<totfact> 0.68842135E+03</totfact>
</mgrwt>
</event>
<event>
 4    1  0.4151607E+000  0.2438403E+03  0.7546771E-02  0.1117261E+00
         21   -1    0    0  503  502  0.00000000000E+00  0.00000000000E+00  0.35977959061E+03  0.35977959061E+03  0.00000000000E+00 0.  1.
         21   -1    0    0  501  503 -0.00000000000E+00 -0.00000000000E+00 -0.16664361176E+03  0.16664361176E+03  0.00000000000E+00 0. -1.
          6    1    1    2  501    0 -0.72666536190E+02 -0.15571976513E+03  0.12053019506E+03  0.27200293869E+03  0.17300000000E+03 0.  1.
         -6    1    1    2    0  502  0.72666536190E+02  0.15571976513E+03  0.72605783788E+02  0.25442026369E+03  0.17300000000E+03 0. -1.
<mgrwt>
<rscale>  2 0.24384026E+03</rscale>
<asrwt>0</asrwt>
<pdfrwt beam="1">  1       21 0.55350706E-01 0.24384026E+03</pdfrwt>
<pdfrwt beam="2">  1       21 0.25637479E-01 0.24384026E+03</pdfrwt>
<totfact> 0.43373097E+04</totfact>
</mgrwt>
</event>
<event>
 4    1  0.4151607E+000  0.2473471E+03  0.7546771E-02  0.1114993E+00
         21   -1    0    0  503  502  0.00000000000E+00  0.00000000000E+00  0.21713837008E+04  0.21713837008E+04  0.00000000000E+00 0. -1.
         21   -1    0    0  501  503 -0.00000000000E+00 -0.00000000000E+00 -0.29619518195E+02  0.29619518195E+02  0.00000000000E+00 0.  1.
          6    1    1    2  501    0  0.73890761205E+01  0.17662671014E+03  0.82792220885E+03  0.86408088574E+03  0.17300000000E+03 0.  1.
         -6    1    1    2    0  502 -0.73890761205E+01 -0.17662671014E+03  0.13138419738E+04  0.13369223333E+04  0.17300000000E+03 0. -1.
<mgrwt>
<rscale>  2 0.24734711E+03</rscale>
<asrwt>0</asrwt>
<pdfrwt beam="1">  1       21 0.33405891E+00 0.24734711E+03</pdfrwt>
<pdfrwt beam="2">  1       21 0.45568506E-02 0.24734711E+03</pdfrwt>
<totfact> 0.64371771E+03</totfact>
</mgrwt>
</event>
<event>
 4    1  0.4151607E+000  0.1963195E+03  0.7546771E-02  0.1152882E+00
         21   -1    0    0  503  502  0.00000000000E+00  0.00000000000E+00  0.66295415772E+03  0.66295415772E+03  0.00000000000E+00 0. -1.
         21   -1    0    0  501  503 -0.00000000000E+00 -0.00000000000E+00 -0.79298924095E+02  0.79298924095E+02  0.00000000000E+00 0. -1.
          6    1    1    2  501    0 -0.14778737348E+02 -0.91618324191E+02  0.10010254711E+03  0.22036753015E+03  0.17300000000E+03 0. -1.
         -6    1    1    2    0  502  0.14778737348E+02  0.91618324191E+02  0.48355268652E+03  0.52188555167E+03  0.17300000000E+03 0. -1.
<mgrwt>
<rscale>  2 0.19631945E+03</rscale>
<asrwt>0</asrwt>
<pdfrwt beam="1">  1       21 0.10199294E+00 0.19631945E+03</pdfrwt>
<pdfrwt beam="2">  1       21 0.12199835E-01 0.19631945E+03</pdfrwt>
<totfact> 0.44538561E+04</totfact>
</mgrwt>
</event>
<event>
 4    1  0.4151607E+000  0.1735496E+03  0.7546771E-02  0.1174196E+00
         21   -1    0    0  501  502  0.00000000000E+00  0.00000000000E+00  0.10431249377E+04  0.10431249377E+04  0.00000000000E+00 0.  1.
         21   -1    0    0  502  503 -0.00000000000E+00 -0.00000000000E+00 -0.84577247614E+03  0.84577247614E+03  0.00000000000E+00 0.  1.
          6    1    1    2  501    0  0.98572645144E+01 -0.96587331172E+01  0.10268634355E+04  0.10414259320E+04  0.17300000000E+03 0.  1.
         -6    1    1    2    0  503 -0.98572645144E+01  0.96587331172E+01 -0.82951097387E+03  0.84747148186E+03  0.17300000000E+03 0.  1.
<mgrwt>
<rscale>  2 0.17354958E+03</rscale>
<asrwt>0</asrwt>
<pdfrwt beam="1">  1       21 0.16048076E+00 0.17354958E+03</pdfrwt>
<pdfrwt beam="2">  1       21 0.13011884E+00 0.17354958E+03</pdfrwt>
<totfact> 0.11073015E+02</totfact>
</mgrwt>
</event>
<event>
 4    1  0.4151607E+000  0.2045375E+03  0.7546771E-02  0.1145966E+00
         21   -1    0    0  503  502  0.00000000000E+00  0.00000000000E+00  0.21418362909E+03  0.21418362909E+03  0.00000000000E+00 0.  1.
         21   -1    0    0  501  503 -0.00000000000E+00 -0.00000000000E+00 -0.52763057675E+03  0.52763057675E+03  0.00000000000E+00 0. -1.
          6    1    1    2  501    0 -0.29792075287E+02  0.10497158318E+03 -0.45107644707E+03  0.49528331501E+03  0.17300000000E+03 0. -1.
         -6    1    1    2    0  502  0.29792075287E+02 -0.10497158318E+03  0.13762949942E+03  0.24653089083E+03  0.17300000000E+03 0.  1.
<mgrwt>
<rscale>  2 0.20453753E+03</rscale>
<asrwt>0</asrwt>
<pdfrwt beam="1">  1       21 0.32951328E-01 0.20453753E+03</pdfrwt>
<pdfrwt beam="2">  1       21 0.81173934E-01 0.20453753E+03</pdfrwt>
<totfact> 0.11704786E+04</totfact>
</mgrwt>
</event>
<event>
 4    1  0.4151607E+000  0.2007639E+03  0.7546771E-02  0.1149096E+00
         21   -1    0    0  503  502  0.00000000000E+00  0.00000000000E+00  0.15597809865E+04  0.15597809865E+04  0.00000000000E+00 0.  1.
         21   -1    0    0  501  503 -0.00000000000E+00 -0.00000000000E+00 -0.40207051304E+02  0.40207051304E+02  0.00000000000E+00 0. -1.
          6    1    1    2  501    0  0.27409859606E+02  0.98111282533E+02  0.28159085304E+03  0.34583165367E+03  0.17300000000E+03 0. -1.
         -6    1    1    2    0  502 -0.27409859606E+02 -0.98111282533E+02  0.12379830822E+04  0.12541563841E+04  0.17300000000E+03 0.  1.
<mgrwt>
<rscale>  2 0.20076385E+03</rscale>
<asrwt>0</asrwt>
<pdfrwt beam="1">  1       21 0.23996626E+00 0.20076385E+03</pdfrwt>
<pdfrwt beam="2">  1       21 0.61857014E-02 0.20076385E+03</pdfrwt>
<totfact> 0.14163060E+04</totfact>
</mgrwt>
</event>
<event>
 4    1  0.4151607E+000  0.2030417E+03  0.7546771E-02  0.1147198E+00
         21   -1    0    0  501  502  0.00000000000E+00  0.00000000000E+00  0.12759871463E+04  0.12759871463E+04  0.00000000000E+00 0. -1.
         21   -1    0    0  502  503 -0.00000000000E+00 -0.00000000000E+00 -0.49788829217E+02  0.49788829217E+02  0.00000000000E+00 0.  1.
          6    1    1    2  501    0 -0.10600715491E+03 -0.77092023896E+01  0.10058725024E+04  0.10261605332E+04  0.17300000000E+03 0. -1.
         -6    1    1    2    0  503  0.10600715491E+03  0.77092023896E+01  0.22032581469E+03  0.29961544238E+03  0.17300000000E+03 0.  1.
<mgrwt>
<rscale>  2 0.20304174E+03</rscale>
<asrwt>0</asrwt>
<pdfrwt beam="1">  1       21 0.19630569E+00 0.20304174E+03</pdfrwt>
<pdfrwt beam="2">  1       21 0.76598208E-02 0.20304174E+03</pdfrwt>
<totfact> 0.18212831E+04</totfact>
</mgrwt>
</event>
<event>
 4    1  0.4151607E+000  0.2406220E+03  0.7546771E-02  0.1119379E+00
         21   -1    0    0  501  502  0.00000000000E+00  0.00000000000E+00  0.21556423141E+03  0.21556423141E+03  0.00000000000E+00 0.  1.
         21   -1    0    0  502  503 -0.00000000000E+00 -0.00000000000E+00 -0.27095682879E+03  0.27095682879E+03  0.00000000000E+00 0.  1.
          6    1    1    2  501    0  0.16677398128E+03  0.12506200915E+02 -0.50419144561E+02  0.24584762767E+03  0.17300000000E+03 0.  1.
         -6    1    1    2    0  503 -0.16677398128E+03 -0.12506200915E+02 -0.49734528216E+01  0.24067343253E+03  0.17300000000E+03 0.  1.
<mgrwt>
<rscale>  2 0.24062204E+03</rscale>
<asrwt>0</asrwt>
<pdfrwt beam="1">  1       21 0.33163728E-01 0.24062204E+03</pdfrwt>
<pdfrwt beam="2">  1       21 0.41685666E-01 0.24062204E+03</pdfrwt>
<totfact> 0.47447784E+04</totfact>
</mgrwt>
</event>
<event>
 4    1  0.4151607E+000  0.2357041E+03  0.7546771E-02  0.1122688E+00
         21   -1    0    0  501  502  0.00000000000E+00  0.00000000000E+00  0.45675642836E+02  0.45675642836E+02  0.00000000000E+00 0. -1.
         21   -1    0    0  502  503 -0.00000000000E+00 -0.00000000000E+00 -0.18302477055E+04  0.18302477055E+04  0.00000000000E+00 0. -1.
          6    1    1    2  501    0 -0.15770857849E+03 -0.27485392986E+02 -0.34905211192E+03  0.42118145661E+03  0.17300000000E+03 0. -1.
         -6    1    1    2    0  503  0.15770857849E+03  0.27485392986E+02 -0.14355199508E+04  0.14547418918E+04  0.17300000000E+03 0. -1.
<mgrwt>
<rscale>  2 0.23570414E+03</rscale>
<asrwt>0</asrwt>
<pdfrwt beam="1">  1       21 0.70270232E-02 0.23570414E+03</pdfrwt>
<pdfrwt beam="2">  1       21 0.28157652E+00 0.23570414E+03</pdfrwt>
<totfact> 0.62727696E+03</totfact>
</mgrwt>
</event>
<event>
 4    1  0.4151607E+000  0.1833398E+03  0.7546771E-02  0.1164609E+00
         21   -1    0    0  503  502  0.00000000000E+00  0.00000000000E+00  0.13328662374E+03  0.13328662374E+03  0.00000000000E+00 0.  1.
         21   -1    0    0  501  503 -0.00000000000E+00 -0.00000000000E+00 -0.28222512574E+03  0.28222512574E+03  0.00000000000E+00 0.  1.
          6    1    1    2  501    0  0.33964024878E+02  0.50308442470E+02 -0.14224485831E+03  0.23204976640E+03  0.17300000000E+03 0.  1.
         -6    1    1    2    0  502 -0.33964024878E+02 -0.50308442470E+02 -0.66936436959E+01  0.18346198308E+03  0.17300000000E+03 0.  1.
<mgrwt>
<rscale>  2 0.18333983E+03</rscale>
<asrwt>0</asrwt>
<pdfrwt beam="1">  1       21 0.20505635E-01 0.18333983E+03</pdfrwt>
<pdfrwt beam="2">  1       21 0.43419249E-01 0.18333983E+03</pdfrwt>
<totfact> 0.11270382E+05</totfact>
</mgrwt>
</event>
<event>
 4    1  0.4151607E+000  0.2042856E+03  0.7546771E-02  0.1146173E+00
         21   -1    0    0  501  502  0.00000000000E+00  0.00000000000E+00  0.91591102966E+03  0.91591102966E+03  0.00000000000E+00 0. -1.
         21   -1    0    0  502  503 -0.00000000000E+00 -0.00000000000E+00 -0.79986377397E+02  0.79986377397E+02  0.00000000000E+00 0.  1.
          6    1    1    2  501    0 -0.97536086505E+01 -0.10820568035E+03  0.74462296159E+03  0.77213726569E+03  0.17300000000E+03 0. -1.
         -6    1    1    2    0  503  0.97536086505E+01  0.10820568035E+03  0.91301690667E+02  0.22376014136E+03  0.17300000000E+03 0.  1.
<mgrwt>
<rscale>  2 0.20428559E+03</rscale>
<asrwt>0</asrwt>
<pdfrwt beam="1">  1       21 0.14090938E+00 0.20428559E+03</pdfrwt>
<pdfrwt beam="2">  1       21 0.12305597E-01 0.20428559E+03</pdfrwt>
<totfact> 0.19588527E+04</totfact>
</mgrwt>
</event>
<event>
 4    1  0.4151607E+000  0.2202565E+03  0.7546771E-02  0.1133692E+00
         21   -1    0    0  503  502  0.00000000000E+00  0.00000000000E+00  0.29418729691E+03  0.29418729691E+03  0.00000000000E+00 0. -1.
         21   -1    0    0  501  503 -0.00000000000E+00 -0.00000000000E+00 -0.17823319904E+03  0.17823319904E+03  0.00000000000E+00 0. -1.
          6    1    1    2  501    0 -0.78729611460E+02  0.11129047810E+03 -0.66169318599E+01  0.22035586224E+03  0.17300000000E+03 0. -1.
         -6    1    1    2    0  502  0.78729611460E+02 -0.11129047810E+03  0.12257102974E+03  0.25206463371E+03  0.17300000000E+03 0. -1.
<mgrwt>
<rscale>  2 0.22025649E+03</rscale>
<asrwt>0</asrwt>
<pdfrwt beam="1">  1       21 0.45259584E-01 0.22025649E+03</pdfrwt>
<pdfrwt beam="2">  1       21 0.27420492E-01 0.22025649E+03</pdfrwt>
<totfact> 0.58666333E+04</totfact>
</mgrwt>
</event>
<event>
 4    1  0.4151607E+000  0.2719339E+03  0.7546771E-02  0.1100178E+00
         21   -1    0    0  503  502  0.00000000000E+00  0.00000000000E+00  0.14489731422E+04  0.14489731422E+04  0.00000000000E+00 0.  1.
         21   -1    0    0  501  503 -0.00000000000E+00 -0.00000000000E+00 -0.21914715304E+03  0.21914715304E+03  0.00000000000E+00 0. -1.
          6    1    1    2  501    0  0.30418091977E+02 -0.20759045238E+03 -0.11560222083E+03  0.29548592132E+03  0.17300000000E+03 0. -1.
         -6    1    1    2    0  502 -0.30418091977E+02  0.20759045238E+03  0.13454282100E+04  0.13726343739E+04  0.17300000000E+03 0.  1.
<mgrwt>
<rscale>  2 0.27193392E+03</rscale>
<asrwt>0</asrwt>
<pdfrwt beam="1">  1       21 0.22291894E+00 0.27193392E+03</pdfrwt>
<pdfrwt beam="2">  1       21 0.33714948E-01 0.27193392E+03</pdfrwt>
<totfact> 0.75455078E+02</totfact>
</mgrwt>
</event>
<event>
 4    1  0.4151607E+000  0.2177575E+03  0.7546771E-02  0.1135566E+00
         21   -1    0    0  501  502  0.00000000000E+00  0.00000000000E+00  0.27952872361E+03  0.27952872361E+03  0.00000000000E+00 0. -1.
         21   -1    0    0  502  503 -0.00000000000E+00 -0.00000000000E+00 -0.18331721623E+03  0.18331721623E+03  0.00000000000E+00 0. -1.
          6    1    1    2  501    0 -0.73379457600E+02  0.11002177335E+03  0.11132594193E+03  0.24456451246E+03  0.17300000000E+03 0. -1.
         -6    1    1    2    0  503  0.73379457600E+02 -0.11002177335E+03 -0.15114434557E+02  0.21828142738E+03  0.17300000000E+03 0. -1.
<mgrwt>
<rscale>  2 0.21775752E+03</rscale>
<asrwt>0</asrwt>
<pdfrwt beam="1">  1       21 0.43004419E-01 0.21775752E+03</pdfrwt>
<pdfrwt beam="2">  1       21 0.28202649E-01 0.21775752E+03</pdfrwt>
<totfact> 0.61770620E+04</totfact>
</mgrwt>
</event>
<event>
 4    1  0.4151607E+000  0.1748253E+03  0.7546771E-02  0.1172907E+00
         21   -1    0    0  501  502  0.00000000000E+00  0.00000000000E+00  0.26950970161E+03  0.26950970161E+03  0.00000000000E+00 0.  1.
         21   -1    0    0  502  503 -0.00000000000E+00 -0.00000000000E+00 -0.16985307690E+03  0.16985307690E+03  0.00000000000E+00 0.  1.
          6    1    1    2  501    0  0.27106226874E+00 -0.25195374747E+02  0.17647074341E+03  0.24840652903E+03  0.17300000000E+03 0.  1.
         -6    1    1    2    0  503 -0.27106226874E+00  0.25195374747E+02 -0.76814118707E+02  0.19095624948E+03  0.17300000000E+03 0.  1.
<mgrwt>
<rscale>  2 0.17482529E+03</rscale>
<asrwt>0</asrwt>
<pdfrwt beam="1">  1       21 0.41463031E-01 0.17482529E+03</pdfrwt>
<pdfrwt beam="2">  1       21 0.26131243E-01 0.17482529E+03</pdfrwt>
<totfact> 0.78521820E+04</totfact>
</mgrwt>
</event>
<event>
 4    1  0.4151607E+000  0.1783300E+03  0.7546771E-02  0.1169429E+00
         21   -1    0    0  503  502  0.00000000000E+00  0.00000000000E+00  0.36145456792E+03  0.36145456792E+03  0.00000000000E+00 0.  1.
         21   -1    0    0  501  503 -0.00000000000E+00 -0.00000000000E+00 -0.88092014341E+02  0.88092014341E+02  0.00000000000E+00 0.  1.
          6    1    1    2  501    0 -0.38447420259E+02  0.19858750820E+02  0.12874580027E+03  0.21994784653E+03  0.17300000000E+03 0.  1.
         -6    1    1    2    0  502  0.38447420259E+02 -0.19858750820E+02  0.14461675331E+03  0.22959873573E+03  0.17300000000E+03 0.  1.
<mgrwt>
<rscale>  2 0.17832996E+03</rscale>
<asrwt>0</asrwt>
<pdfrwt beam="1">  1       21 0.55608394E-01 0.17832996E+03</pdfrwt>
<pdfrwt beam="2">  1       21 0.13552618E-01 0.17832996E+03</pdfrwt>
<totfact> 0.14438480E+05</totfact>
</mgrwt>
</event>
<event>
 4    1  0.4151607E+000  0.2086361E+03  0.7546771E-02  0.1142651E+00
         21   -1    0    0  503  502  0.00000000000E+00  0.00000000000E+00  0.10400268626E+04  0.10400268626E+04  0.00000000000E+00 0.  1.
         21   -1    0    0  501  503 -0.00000000000E+00 -0.00000000000E+00 -0.51565358594E+02  0.51565358594E+02  0.00000000000E+00 0. -1.
          6    1    1    2  501    0  0.98667030281E+02  0.62167730818E+02  0.25736770247E+03  0.33131124927E+03  0.17300000000E+03 0. -1.
         -6    1    1    2    0  502 -0.98667030281E+02 -0.62167730818E+02  0.73109380152E+03  0.76028097190E+03  0.17300000000E+03 0.  1.
<mgrwt>
<rscale>  2 0.20863607E+03</rscale>
<asrwt>0</asrwt>
<pdfrwt beam="1">  1       21 0.16000412E+00 0.20863607E+03</pdfrwt>
<pdfrwt beam="2">  1       21 0.79331329E-02 0.20863607E+03</pdfrwt>
<totfact> 0.30337082E+04</totfact>
</mgrwt>
</event>
<event>
 4    1  0.4151607E+000  0.2653632E+03  0.7546771E-02  0.1103963E+00
         21   -1    0    0  501  502  0.00000000000E+00  0.00000000000E+00  0.66097827906E+03  0.66097827906E+03  0.00000000000E+00 0. -1.
         21   -1    0    0  502  503 -0.00000000000E+00 -0.00000000000E+00 -0.13064674122E+03  0.13064674122E+03  0.00000000000E+00 0. -1.
          6    1    1    2  501    0 -0.10322045393E+02 -0.20095299935E+03  0.43520533755E+03  0.50972672914E+03  0.17300000000E+03 0. -1.
         -6    1    1    2    0  503  0.10322045393E+02  0.20095299935E+03  0.95126200294E+02  0.28189829115E+03  0.17300000000E+03 0. -1.
<mgrwt>
<rscale>  2 0.26536325E+03</rscale>
<asrwt>0</asrwt>
<pdfrwt beam="1">  1       21 0.10168896E+00 0.26536325E+03</pdfrwt>
<pdfrwt beam="2">  1       21 0.20099499E-01 0.26536325E+03</pdfrwt>
<totfact> 0.17319128E+04</totfact>
</mgrwt>
</event>
<event>
 4    1  0.4151607E+000  0.3650554E+03  0.7546771E-02  0.1056600E+00
         21   -1    0    0  501  502  0.00000000000E+00  0.00000000000E+00  0.11430734875E+04  0.11430734875E+04  0.00000000000E+00 0.  1.
         21   -1    0    0  502  503 -0.00000000000E+00 -0.00000000000E+00 -0.12047751678E+03  0.12047751678E+03  0.00000000000E+00 0. -1.
          6    1    1    2  501    0 -0.30285364174E+03 -0.10777811297E+03  0.62485498936E+03  0.72367755781E+03  0.17300000000E+03 0. -1.
         -6    1    1    2    0  503  0.30285364174E+03  0.10777811297E+03  0.39774098137E+03  0.53987344648E+03  0.17300000000E+03 0.  1.
<mgrwt>
<rscale>  2 0.36505541E+03</rscale>
<asrwt>0</asrwt>
<pdfrwt beam="1">  1       21 0.17585745E+00 0.36505541E+03</pdfrwt>
<pdfrwt beam="2">  1       21 0.18535003E-01 0.36505541E+03</pdfrwt>
<totfact> 0.46248333E+03</totfact>
</mgrwt>
</event>
<event>
 4    1  0.4151607E+000  0.1863526E+03  0.7546771E-02  0.1161793E+00
         21   -1    0    0  501  502  0.00000000000E+00  0.00000000000E+00  0.13919478103E+03  0.13919478103E+03  0.00000000000E+00 0.  1.
         21   -1    0    0  502  503 -0.00000000000E+00 -0.00000000000E+00 -0.34888626958E+03  0.34888626958E+03  0.00000000000E+00 0.  1.
          6    1    1    2  501    0 -0.58039752445E+02  0.37810872337E+02  0.25414479232E+02  0.18807756561E+03  0.17300000000E+03 0.  1.
         -6    1    1    2    0  503  0.58039752445E+02 -0.37810872337E+02 -0.23510596778E+03  0.30000348501E+03  0.17300000000E+03 0.  1.
<mgrwt>
<rscale>  2 0.18635256E+03</rscale>
<asrwt>0</asrwt>
<pdfrwt beam="1">  1       21 0.21414582E-01 0.18635256E+03</pdfrwt>
<pdfrwt beam="2">  1       21 0.53674811E-01 0.18635256E+03</pdfrwt>
<totfact> 0.66874964E+04</totfact>
</mgrwt>
</event>
<event>
 4    1  0.4151607E+000  0.2133959E+03  0.7546771E-02  0.1138905E+00
         21   -1    0    0  501  502  0.00000000000E+00  0.00000000000E+00  0.88453240438E+03  0.88453240438E+03  0.00000000000E+00 0.  1.
         21   -1    0    0  502  503 -0.00000000000E+00 -0.00000000000E+00 -0.18332899873E+03  0.18332899873E+03  0.00000000000E+00 0. -1.
          6    1    1    2  501    0  0.12206895950E+03 -0.26608151852E+02  0.80339899944E+03  0.83125674549E+03  0.17300000000E+03 0.  1.
         -6    1    1    2    0  503 -0.12206895950E+03  0.26608151852E+02 -0.10219559379E+03  0.23660465762E+03  0.17300000000E+03 0. -1.
<mgrwt>
<rscale>  2 0.21339593E+03</rscale>
<asrwt>0</asrwt>
<pdfrwt beam="1">  1       21 0.13608191E+00 0.21339593E+03</pdfrwt>
<pdfrwt beam="2">  1       21 0.28204462E-01 0.21339593E+03</pdfrwt>
<totfact> 0.45466423E+03</totfact>
</mgrwt>
</event>
<event>
 4    1  0.4151607E+000  0.3605942E+03  0.7546771E-02  0.1058349E+00
         21   -1    0    0  503  502  0.00000000000E+00  0.00000000000E+00  0.26455282116E+03  0.26455282116E+03  0.00000000000E+00 0.  1.
         21   -1    0    0  501  503 -0.00000000000E+00 -0.00000000000E+00 -0.58058703675E+03  0.58058703675E+03  0.00000000000E+00 0.  1.
          6    1    1    2  501    0 -0.13132178382E+03  0.28784327320E+03 -0.32354380086E+03  0.48446749314E+03  0.17300000000E+03 0.  1.
         -6    1    1    2    0  502  0.13132178382E+03 -0.28784327320E+03  0.75095852670E+01  0.36067236476E+03  0.17300000000E+03 0.  1.
<mgrwt>
<rscale>  2 0.36059418E+03</rscale>
<asrwt>0</asrwt>
<pdfrwt beam="1">  1       21 0.40700434E-01 0.36059418E+03</pdfrwt>
<pdfrwt beam="2">  1       21 0.89321082E-01 0.36059418E+03</pdfrwt>
<totfact> 0.56578512E+03</totfact>
</mgrwt>
</event>
<event>
 4    1  0.4151607E+000  0.1870252E+03  0.7546771E-02  0.1161172E+00
         21   -1    0    0  503  502  0.00000000000E+00  0.00000000000E+00  0.34311342234E+03  0.34311342234E+03  0.00000000000E+00 0.  1.
         21   -1    0    0  501  503 -0.00000000000E+00 -0.00000000000E+00 -0.13432390646E+03  0.13432390646E+03  0.00000000000E+00 0.  1.
          6    1    1    2  501    0 -0.54991577890E+02  0.45003919261E+02 -0.12810235113E+02  0.18746340579E+03  0.17300000000E+03 0.  1.
         -6    1    1    2    0  502  0.54991577890E+02 -0.45003919261E+02  0.22159975099E+03  0.28997392301E+03  0.17300000000E+03 0.  1.
<mgrwt>
<rscale>  2 0.18702520E+03</rscale>
<asrwt>0</asrwt>
<pdfrwt beam="1">  1       21 0.52786680E-01 0.18702520E+03</pdfrwt>
<pdfrwt beam="2">  1       21 0.20665216E-01 0.18702520E+03</pdfrwt>
<totfact> 0.74027251E+04</totfact>
</mgrwt>
</event>
<event>
 4    1  0.4151607E+000  0.1786188E+03  0.7546771E-02  0.1169146E+00
         21   -1    0    0  503  502  0.00000000000E+00  0.00000000000E+00  0.60983345370E+03  0.60983345370E+03  0.00000000000E+00 0.  1.
         21   -1    0    0  501  503 -0.00000000000E+00 -0.00000000000E+00 -0.10389938828E+03  0.10389938828E+03  0.00000000000E+00 0.  1.
          6    1    1    2  501    0 -0.35606317061E+02 -0.26605942976E+02  0.15181492750E+01  0.17862528039E+03  0.17300000000E+03 0.  1.
         -6    1    1    2    0  502  0.35606317061E+02  0.26605942976E+02  0.50441591614E+03  0.53510756159E+03  0.17300000000E+03 0.  1.
<mgrwt>
<rscale>  2 0.17861883E+03</rscale>
<asrwt>0</asrwt>
<pdfrwt beam="1">  1       21 0.93820529E-01 0.17861883E+03</pdfrwt>
<pdfrwt beam="2">  1       21 0.15984522E-01 0.17861883E+03</pdfrwt>
<totfact> 0.33573378E+04</totfact>
</mgrwt>
</event>
<event>
 4    1  0.4151607E+000  0.1866661E+03  0.7546771E-02  0.1161503E+00
         21   -1    0    0  503  502  0.00000000000E+00  0.00000000000E+00  0.94001805388E+02  0.94001805388E+02  0.00000000000E+00 0.  1.
         21   -1    0    0  501  503 -0.00000000000E+00 -0.00000000000E+00 -0.37458381051E+03  0.37458381051E+03  0.00000000000E+00 0. -1.
          6    1    1    2  501    0  0.45895931077E+02 -0.52998178601E+02 -0.11636151795E+03  0.21996419319E+03  0.17300000000E+03 0.  1.
         -6    1    1    2    0  502 -0.45895931077E+02  0.52998178601E+02 -0.16422048717E+03  0.24862142271E+03  0.17300000000E+03 0. -1.
<mgrwt>
<rscale>  2 0.18666613E+03</rscale>
<asrwt>0</asrwt>
<pdfrwt beam="1">  1       21 0.14461816E-01 0.18666613E+03</pdfrwt>
<pdfrwt beam="2">  1       21 0.57628279E-01 0.18666613E+03</pdfrwt>
<totfact> 0.11867825E+05</totfact>
</mgrwt>
</event>
<event>
 4    1  0.4151607E+000  0.2388108E+03  0.7546771E-02  0.1120588E+00
         21   -1    0    0  501  502  0.00000000000E+00  0.00000000000E+00  0.90134495532E+02  0.90134495532E+02  0.00000000000E+00 0. -1.
         21   -1    0    0  502  503 -0.00000000000E+00 -0.00000000000E+00 -0.84424334405E+03  0.84424334405E+03  0.00000000000E+00 0.  1.
          6    1    1    2  501    0 -0.13952808480E+03 -0.87369870445E+02 -0.14320834776E+03  0.27845863531E+03  0.17300000000E+03 0. -1.
         -6    1    1    2    0  503  0.13952808480E+03  0.87369870445E+02 -0.61090050076E+03  0.65591920427E+03  0.17300000000E+03 0.  1.
<mgrwt>
<rscale>  2 0.23881076E+03</rscale>
<asrwt>0</asrwt>
<pdfrwt beam="1">  1       21 0.13866846E-01 0.23881076E+03</pdfrwt>
<pdfrwt beam="2">  1       21 0.12988359E+00 0.23881076E+03</pdfrwt>
<totfact> 0.19056123E+04</totfact>
</mgrwt>
</event>
<event>
 4    1  0.4151607E+000  0.1831365E+03  0.7546771E-02  0.1164802E+00
         21   -1    0    0  501  502  0.00000000000E+00  0.00000000000E+00  0.44459100387E+02  0.44459100387E+02  0.00000000000E+00 0.  1.
         21   -1    0    0  502  503 -0.00000000000E+00 -0.00000000000E+00 -0.78612646086E+03  0.78612646086E+03  0.00000000000E+00 0.  1.
          6    1    1    2  501    0 -0.31757476382E+02 -0.51004362930E+02 -0.28737583125E+03  0.34076949795E+03  0.17300000000E+03 0.  1.
         -6    1    1    2    0  503  0.31757476382E+02  0.51004362930E+02 -0.45429152922E+03  0.48981606330E+03  0.17300000000E+03 0.  1.
<mgrwt>
<rscale>  2 0.18313651E+03</rscale>
<asrwt>0</asrwt>
<pdfrwt beam="1">  1       21 0.68398617E-02 0.18313651E+03</pdfrwt>
<pdfrwt beam="2">  1       21 0.12094253E+00 0.18313651E+03</pdfrwt>
<totfact> 0.81895088E+04</totfact>
</mgrwt>
</event>
<event>
 4    1  0.4151607E+000  0.2994339E+03  0.7546771E-02  0.1085524E+00
         21   -1    0    0  501  502  0.00000000000E+00  0.00000000000E+00  0.69521888404E+03  0.69521888404E+03  0.00000000000E+00 0.  1.
         21   -1    0    0  502  503 -0.00000000000E+00 -0.00000000000E+00 -0.14223116053E+03  0.14223116053E+03  0.00000000000E+00 0. -1.
          6    1    1    2  501    0  0.16092647690E+03 -0.18394118039E+03  0.40436193490E+03  0.50315928214E+03  0.17300000000E+03 0.  1.
         -6    1    1    2    0  503 -0.16092647690E+03  0.18394118039E+03  0.14862578861E+03  0.33429076243E+03  0.17300000000E+03 0.  1.
<mgrwt>
<rscale>  2 0.29943395E+03</rscale>
<asrwt>0</asrwt>
<pdfrwt beam="1">  1       21 0.10695675E+00 0.29943395E+03</pdfrwt>
<pdfrwt beam="2">  1       21 0.21881717E-01 0.29943395E+03</pdfrwt>
<totfact> 0.12841244E+04</totfact>
</mgrwt>
</event>
<event>
 4    1  0.4151607E+000  0.1971774E+03  0.7546771E-02  0.1152143E+00
         21   -1    0    0  501  502  0.00000000000E+00  0.00000000000E+00  0.39215366483E+03  0.39215366483E+03  0.00000000000E+00 0.  1.
         21   -1    0    0  502  503 -0.00000000000E+00 -0.00000000000E+00 -0.16993287571E+03  0.16993287571E+03  0.00000000000E+00 0.  1.
          6    1    1    2  501    0  0.94599127463E+02 -0.96061786838E+00  0.29250442063E+03  0.35275735824E+03  0.17300000000E+03 0.  1.
         -6    1    1    2    0  503 -0.94599127463E+02  0.96061786838E+00 -0.70283631509E+02  0.20932918230E+03  0.17300000000E+03 0.  1.
<mgrwt>
<rscale>  2 0.19717738E+03</rscale>
<asrwt>0</asrwt>
<pdfrwt beam="1">  1       21 0.60331333E-01 0.19717738E+03</pdfrwt>
<pdfrwt beam="2">  1       21 0.26143519E-01 0.19717738E+03</pdfrwt>
<totfact> 0.35519995E+04</totfact>
</mgrwt>
</event>
<event>
 4    1  0.4151607E+000  0.2528181E+03  0.7546771E-02  0.1111537E+00
         21   -1    0    0  501  502  0.00000000000E+00  0.00000000000E+00  0.39975524151E+03  0.39975524151E+03  0.00000000000E+00 0. -1.
         21   -1    0    0  502  503 -0.00000000000E+00 -0.00000000000E+00 -0.22601543676E+03  0.22601543676E+03  0.00000000000E+00 0. -1.
          6    1    1    2  501    0 -0.18033350722E+03  0.38311900579E+02  0.25610854601E+03  0.35987298161E+03  0.17300000000E+03 0. -1.
         -6    1    1    2    0  503  0.18033350722E+03 -0.38311900579E+02 -0.82368741264E+02  0.26589769666E+03  0.17300000000E+03 0. -1.
<mgrwt>
<rscale>  2 0.25281807E+03</rscale>
<asrwt>0</asrwt>
<pdfrwt beam="1">  1       21 0.61500806E-01 0.25281807E+03</pdfrwt>
<pdfrwt beam="2">  1       21 0.34771606E-01 0.25281807E+03</pdfrwt>
<totfact> 0.18951790E+04</totfact>
</mgrwt>
</event>
<event>
 4    1  0.4151607E+000  0.1918300E+03  0.7546771E-02  0.1156821E+00
         21   -1    0    0  503  502  0.00000000000E+00  0.00000000000E+00  0.29931109547E+03  0.29931109547E+03  0.00000000000E+00 0.  1.
         21   -1    0    0  501  503 -0.00000000000E+00 -0.00000000000E+00 -0.16456178436E+03  0.16456178436E+03  0.00000000000E+00 0.  1.
          6    1    1    2  501    0 -0.14499931010E+02  0.81605716995E+02 -0.49263280618E+02  0.19805456789E+03  0.17300000000E+03 0.  1.
         -6    1    1    2    0  502  0.14499931010E+02 -0.81605716995E+02  0.18401259173E+03  0.26581831193E+03  0.17300000000E+03 0.  1.
<mgrwt>
<rscale>  2 0.19182998E+03</rscale>
<asrwt>0</asrwt>
<pdfrwt beam="1">  1       21 0.46047861E-01 0.19182998E+03</pdfrwt>
<pdfrwt beam="2">  1       21 0.25317198E-01 0.19182998E+03</pdfrwt>
<totfact> 0.66853814E+04</totfact>
</mgrwt>
</event>
<event>
 4    1  0.4151607E+000  0.2135301E+03  0.7546771E-02  0.1138801E+00
         21   -1    0    0  503  502  0.00000000000E+00  0.00000000000E+00  0.48288588628E+02  0.48288588628E+02  0.00000000000E+00 0. -1.
         21   -1    0    0  501  503 -0.00000000000E+00 -0.00000000000E+00 -0.10138886996E+04  0.10138886996E+04  0.00000000000E+00 0. -1.
          6    1    1    2  501    0 -0.42753902353E+02  0.11763590958E+03 -0.62201547949E+03  0.65764607511E+03  0.17300000000E+03 0. -1.
         -6    1    1    2    0  502  0.42753902353E+02 -0.11763590958E+03 -0.34358463147E+03  0.40453121310E+03  0.17300000000E+03 0. -1.
<mgrwt>
<rscale>  2 0.21353010E+03</rscale>
<asrwt>0</asrwt>
<pdfrwt beam="1">  1       21 0.74290139E-02 0.21353010E+03</pdfrwt>
<pdfrwt beam="2">  1       21 0.15598287E+00 0.21353010E+03</pdfrwt>
<totfact> 0.36317861E+04</totfact>
</mgrwt>
</event>
<event>
 4    1  0.4151607E+000  0.1783806E+03  0.7546771E-02  0.1169380E+00
         21   -1    0    0  501  502  0.00000000000E+00  0.00000000000E+00  0.14452775366E+04  0.14452775366E+04  0.00000000000E+00 0. -1.
         21   -1    0    0  502  503 -0.00000000000E+00 -0.00000000000E+00 -0.25182824481E+02  0.25182824481E+02  0.00000000000E+00 0. -1.
          6    1    1    2  501    0  0.39333761597E+02  0.18533773403E+02  0.97076078331E+03  0.98701375065E+03  0.17300000000E+03 0. -1.
         -6    1    1    2    0  503 -0.39333761597E+02 -0.18533773403E+02  0.44933392879E+03  0.48344661042E+03  0.17300000000E+03 0. -1.
<mgrwt>
<rscale>  2 0.17838062E+03</rscale>
<asrwt>0</asrwt>
<pdfrwt beam="1">  1       21 0.22235032E+00 0.17838062E+03</pdfrwt>
<pdfrwt beam="2">  1       21 0.38742818E-02 0.17838062E+03</pdfrwt>
<totfact> 0.40657546E+04</totfact>
</mgrwt>
</event>
<event>
 4    1  0.4151607E+000  0.2240353E+03  0.7546771E-02  0.1130910E+00
         21   -1    0    0  503  502  0.00000000000E+00  0.00000000000E+00  0.30461508050E+03  0.30461508050E+03  0.00000000000E+00 0.  1.
         21   -1    0    0  501  503 -0.00000000000E+00 -0.00000000000E+00 -0.16490032774E+03  0.16490032774E+03  0.00000000000E+00 0.  1.
          6    1    1    2  501    0  0.11534455178E+01  0.14234292032E+03  0.63291842718E+02  0.23280398355E+03  0.17300000000E+03 0.  1.
         -6    1    1    2    0  502 -0.11534455178E+01 -0.14234292032E+03  0.76422910040E+02  0.23671142470E+03  0.17300000000E+03 0.  1.
<mgrwt>
<rscale>  2 0.22403535E+03</rscale>
<asrwt>0</asrwt>
<pdfrwt beam="1">  1       21 0.46863858E-01 0.22403535E+03</pdfrwt>
<pdfrwt beam="2">  1       21 0.25369281E-01 0.22403535E+03</pdfrwt>
<totfact> 0.63310114E+04</totfact>
</mgrwt>
</event>
<event>
 4    1  0.4151607E+000  0.2314864E+03  0.7546771E-02  0.1125598E+00
         21   -1    0    0  503  502  0.00000000000E+00  0.00000000000E+00  0.11461086283E+04  0.11461086283E+04  0.00000000000E+00 0. -1.
         21   -1    0    0  501  503 -0.00000000000E+00 -0.00000000000E+00 -0.12061163686E+03  0.12061163686E+03  0.00000000000E+00 0. -1.
          6    1    1    2  501    0 -0.14159695480E+03  0.60060551728E+02  0.17125147984E+02  0.23211901726E+03  0.17300000000E+03 0. -1.
         -6    1    1    2    0  502  0.14159695480E+03 -0.60060551728E+02  0.10083718435E+04  0.10346012479E+04  0.17300000000E+03 0. -1.
<mgrwt>
<rscale>  2 0.23148643E+03</rscale>
<asrwt>0</asrwt>
<pdfrwt beam="1">  1       21 0.17632440E+00 0.23148643E+03</pdfrwt>
<pdfrwt beam="2">  1       21 0.18555637E-01 0.23148643E+03</pdfrwt>
<totfact> 0.49550452E+03</totfact>
</mgrwt>
</event>
<event>
 4    1  0.4151607E+000  0.1754373E+03  0.7546771E-02  0.1172293E+00
         21   -1    0    0  501  502  0.00000000000E+00  0.00000000000E+00  0.11332497510E+04  0.11332497510E+04  0.00000000000E+00 0. -1.
         21   -1    0    0  502  503 -0.00000000000E+00 -0.00000000000E+00 -0.56144086644E+02  0.56144086644E+02  0.00000000000E+00 0. -1.
          6    1    1    2  501    0 -0.24628272558E+02 -0.15578807386E+02  0.96584886125E+03  0.98165282755E+03  0.17300000000E+03 0. -1.
         -6    1    1    2    0  503  0.24628272558E+02  0.15578807386E+02  0.11125680315E+03  0.20774101015E+03  0.17300000000E+03 0. -1.
<mgrwt>
<rscale>  2 0.17543731E+03</rscale>
<asrwt>0</asrwt>
<pdfrwt beam="1">  1       21 0.17434610E+00 0.17543731E+03</pdfrwt>
<pdfrwt beam="2">  1       21 0.86375526E-02 0.17543731E+03</pdfrwt>
<totfact> 0.21149431E+04</totfact>
</mgrwt>
</event>
<event>
 4    1  0.4151607E+000  0.1948385E+03  0.7546771E-02  0.1154168E+00
         21   -1    0    0  503  502  0.00000000000E+00  0.00000000000E+00  0.52441306824E+03  0.52441306824E+03  0.00000000000E+00 0. -1.
         21   -1    0    0  501  503 -0.00000000000E+00 -0.00000000000E+00 -0.84502601813E+02  0.84502601813E+02  0.00000000000E+00 0. -1.
          6    1    1    2  501    0 -0.80163086124E+02  0.40086539018E+02  0.10468476733E+03  0.22118081178E+03  0.17300000000E+03 0. -1.
         -6    1    1    2    0  502  0.80163086124E+02 -0.40086539018E+02  0.33522569910E+03  0.38773485828E+03  0.17300000000E+03 0. -1.
<mgrwt>
<rscale>  2 0.19483853E+03</rscale>
<asrwt>0</asrwt>
<pdfrwt beam="1">  1       21 0.80678932E-01 0.19483853E+03</pdfrwt>
<pdfrwt beam="2">  1       21 0.13000401E-01 0.19483853E+03</pdfrwt>
<totfact> 0.68516824E+04</totfact>
</mgrwt>
</event>
<event>
 4    1  0.4151607E+000  0.2688214E+03  0.7546771E-02  0.1101956E+00
         21   -1    0    0  503  502  0.00000000000E+00  0.00000000000E+00  0.31265936673E+03  0.31265936673E+03  0.00000000000E+00 0.  1.
         21   -1    0    0  501  503 -0.00000000000E+00 -0.00000000000E+00 -0.25526081311E+03  0.25526081311E+03  0.00000000000E+00 0. -1.
          6    1    1    2  501    0 -0.17528616002E+03 -0.10775306812E+03 -0.58608141661E+02  0.27513610423E+03  0.17300000000E+03 0.  1.
         -6    1    1    2    0  502  0.17528616002E+03  0.10775306812E+03  0.11600669528E+03  0.29278407561E+03  0.17300000000E+03 0.  1.
<mgrwt>
<rscale>  2 0.26882143E+03</rscale>
<asrwt>0</asrwt>
<pdfrwt beam="1">  1       21 0.48101441E-01 0.26882143E+03</pdfrwt>
<pdfrwt beam="2">  1       21 0.39270895E-01 0.26882143E+03</pdfrwt>
<totfact> 0.24850538E+04</totfact>
</mgrwt>
</event>
<event>
 4    1  0.4151607E+000  0.2429879E+03  0.7546771E-02  0.1117818E+00
         21   -1    0    0  501  502  0.00000000000E+00  0.00000000000E+00  0.24019854892E+03  0.24019854892E+03  0.00000000000E+00 0. -1.
         21   -1    0    0  502  503 -0.00000000000E+00 -0.00000000000E+00 -0.27444912252E+03  0.27444912252E+03  0.00000000000E+00 0. -1.
          6    1    1    2  501    0 -0.16601655728E+03 -0.39403538753E+02  0.65999612035E+02  0.25179174916E+03  0.17300000000E+03 0. -1.
         -6    1    1    2    0  503  0.16601655728E+03  0.39403538753E+02 -0.10025018564E+03  0.26285592228E+03  0.17300000000E+03 0. -1.
<mgrwt>
<rscale>  2 0.24298793E+03</rscale>
<asrwt>0</asrwt>
<pdfrwt beam="1">  1       21 0.36953623E-01 0.24298793E+03</pdfrwt>
<pdfrwt beam="2">  1       21 0.42222942E-01 0.24298793E+03</pdfrwt>
<totfact> 0.37205833E+04</totfact>
</mgrwt>
</event>
<event>
 4    1  0.4151607E+000  0.2672398E+03  0.7546771E-02  0.1102870E+00
         21   -1    0    0  501  502  0.00000000000E+00  0.00000000000E+00  0.48820912837E+03  0.48820912837E+03  0.00000000000E+00 0. -1.
         21   -1    0    0  502  503 -0.00000000000E+00 -0.00000000000E+00 -0.18231516234E+03  0.18231516234E+03  0.00000000000E+00 0.  1.
          6    1    1    2  501    0  0.18439926290E+03 -0.86516037758E+02  0.30199051730E+03  0.40325598010E+03  0.17300000000E+03 0. -1.
         -6    1    1    2    0  503 -0.18439926290E+03  0.86516037758E+02  0.39034487309E+01  0.26726831062E+03  0.17300000000E+03 0.  1.
<mgrwt>
<rscale>  2 0.26723980E+03</rscale>
<asrwt>0</asrwt>
<pdfrwt beam="1">  1       21 0.75109096E-01 0.26723980E+03</pdfrwt>
<pdfrwt beam="2">  1       21 0.28048487E-01 0.26723980E+03</pdfrwt>
<totfact> 0.18484951E+04</totfact>
</mgrwt>
</event>
<event>
 4    1  0.4151607E+000  0.1918283E+03  0.7546771E-02  0.1156823E+00
         21   -1    0    0  501  502  0.00000000000E+00  0.00000000000E+00  0.11166265391E+03  0.11166265391E+03  0.00000000000E+00 0.  1.
         21   -1    0    0  502  503 -0.00000000000E+00 -0.00000000000E+00 -0.41544068265E+03  0.41544068265E+03  0.00000000000E+00 0.  1.
          6    1    1    2  501    0 -0.30572625450E+02  0.77035162913E+02 -0.32051811751E+02  0.19448758415E+03  0.17300000000E+03 0. -1.
         -6    1    1    2    0  503  0.30572625450E+02 -0.77035162913E+02 -0.27172621699E+03  0.33261575241E+03  0.17300000000E+03 0. -1.
<mgrwt>
<rscale>  2 0.19182831E+03</rscale>
<asrwt>0</asrwt>
<pdfrwt beam="1">  1       21 0.17178870E-01 0.19182831E+03</pdfrwt>
<pdfrwt beam="2">  1       21 0.63913950E-01 0.19182831E+03</pdfrwt>
<totfact> 0.69211879E+04</totfact>
</mgrwt>
</event>
<event>
 4    1  0.4151607E+000  0.4140616E+03  0.7546771E-02  0.1039017E+00
         21   -1    0    0  503  502  0.00000000000E+00  0.00000000000E+00  0.22002494832E+03  0.22002494832E+03  0.00000000000E+00 0. -1.
         21   -1    0    0  501  503 -0.00000000000E+00 -0.00000000000E+00 -0.16036626909E+04  0.16036626909E+04  0.00000000000E+00 0. -1.
          6    1    1    2  501    0 -0.37173338076E+03 -0.57726440092E+02 -0.13456191934E+04  0.14078842502E+04  0.17300000000E+03 0. -1.
         -6    1    1    2    0  502  0.37173338076E+03  0.57726440092E+02 -0.38018549178E+02  0.41580338904E+03  0.17300000000E+03 0. -1.
<mgrwt>
<rscale>  2 0.41406165E+03</rscale>
<asrwt>0</asrwt>
<pdfrwt beam="1">  1       21 0.33849991E-01 0.41406165E+03</pdfrwt>
<pdfrwt beam="2">  1       21 0.24671734E+00 0.41406165E+03</pdfrwt>
<totfact> 0.48331646E+02</totfact>
</mgrwt>
</event>
<event>
 4    1  0.4151607E+000  0.1930257E+03  0.7546771E-02  0.1155760E+00
         21   -1    0    0  501  502  0.00000000000E+00  0.00000000000E+00  0.29343759135E+03  0.29343759135E+03  0.00000000000E+00 0. -1.
         21   -1    0    0  502  503 -0.00000000000E+00 -0.00000000000E+00 -0.15266839873E+03  0.15266839873E+03  0.00000000000E+00 0. -1.
          6    1    1    2  501    0  0.12870432711E+02 -0.84642109557E+02  0.16189131888E+03  0.25192803313E+03  0.17300000000E+03 0. -1.
         -6    1    1    2    0  503 -0.12870432711E+02  0.84642109557E+02 -0.21122126262E+02  0.19417795695E+03  0.17300000000E+03 0. -1.
<mgrwt>
<rscale>  2 0.19302574E+03</rscale>
<asrwt>0</asrwt>
<pdfrwt beam="1">  1       21 0.45144245E-01 0.19302574E+03</pdfrwt>
<pdfrwt beam="2">  1       21 0.23487446E-01 0.19302574E+03</pdfrwt>
<totfact> 0.80290723E+04</totfact>
</mgrwt>
</event>
<event>
 4    1  0.4151607E+000  0.2158488E+03  0.7546771E-02  0.1137016E+00
         21   -1    0    0  501  502  0.00000000000E+00  0.00000000000E+00  0.72082976630E+02  0.72082976630E+02  0.00000000000E+00 0. -1.
         21   -1    0    0  502  503 -0.00000000000E+00 -0.00000000000E+00 -0.12158204593E+04  0.12158204593E+04  0.00000000000E+00 0.  1.
          6    1    1    2  501    0  0.84257345079E+02  0.97787540819E+02 -0.13115675438E+03  0.25257236103E+03  0.17300000000E+03 0. -1.
         -6    1    1    2    0  503 -0.84257345079E+02 -0.97787540819E+02 -0.10125807283E+04  0.10353310749E+04  0.17300000000E+03 0.  1.
<mgrwt>
<rscale>  2 0.21584880E+03</rscale>
<asrwt>0</asrwt>
<pdfrwt beam="1">  1       21 0.11089689E-01 0.21584880E+03</pdfrwt>
<pdfrwt beam="2">  1       21 0.18704929E+00 0.21584880E+03</pdfrwt>
<totfact> 0.10821693E+04</totfact>
</mgrwt>
</event>
<event>
 4    1  0.4151607E+000  0.2118747E+03  0.7546771E-02  0.1140090E+00
         21   -1    0    0  503  502  0.00000000000E+00  0.00000000000E+00  0.56541385338E+03  0.56541385338E+03  0.00000000000E+00 0.  1.
         21   -1    0    0  501  503 -0.00000000000E+00 -0.00000000000E+00 -0.84631578298E+02  0.84631578298E+02  0.00000000000E+00 0.  1.
          6    1    1    2  501    0  0.12166306957E+03  0.12649151685E+02  0.15954099643E+03  0.26522487266E+03  0.17300000000E+03 0.  1.
         -6    1    1    2    0  502 -0.12166306957E+03 -0.12649151685E+02  0.32124127865E+03  0.38482055902E+03  0.17300000000E+03 0.  1.
<mgrwt>
<rscale>  2 0.21187474E+03</rscale>
<asrwt>0</asrwt>
<pdfrwt beam="1">  1       21 0.86986744E-01 0.21187474E+03</pdfrwt>
<pdfrwt beam="2">  1       21 0.13020243E-01 0.21187474E+03</pdfrwt>
<totfact> 0.57072767E+04</totfact>
</mgrwt>
</event>
<event>
 4    1  0.4151607E+000  0.2250635E+03  0.7546771E-02  0.1130163E+00
         21   -1    0    0  503  502  0.00000000000E+00  0.00000000000E+00  0.12149473947E+04  0.12149473947E+04  0.00000000000E+00 0.  1.
         21   -1    0    0  501  503 -0.00000000000E+00 -0.00000000000E+00 -0.47440590128E+02  0.47440590128E+02  0.00000000000E+00 0. -1.
          6    1    1    2  501    0 -0.83502479730E+02 -0.11726848978E+03  0.36403358319E+03  0.42798833221E+03  0.17300000000E+03 0. -1.
         -6    1    1    2    0  502  0.83502479730E+02  0.11726848978E+03  0.80347322143E+03  0.83439965267E+03  0.17300000000E+03 0.  1.
<mgrwt>
<rscale>  2 0.22506346E+03</rscale>
<asrwt>0</asrwt>
<pdfrwt beam="1">  1       21 0.18691496E+00 0.22506346E+03</pdfrwt>
<pdfrwt beam="2">  1       21 0.72985533E-02 0.22506346E+03</pdfrwt>
<totfact> 0.22496726E+04</totfact>
</mgrwt>
</event>
<event>
 4    1  0.4151607E+000  0.1795714E+03  0.7546771E-02  0.1168218E+00
         21   -1    0    0  503  502  0.00000000000E+00  0.00000000000E+00  0.46223657168E+03  0.46223657168E+03  0.00000000000E+00 0.  1.
         21   -1    0    0  501  503 -0.00000000000E+00 -0.00000000000E+00 -0.17239674081E+03  0.17239674081E+03  0.00000000000E+00 0.  1.
          6    1    1    2  501    0 -0.45035519424E+02 -0.16990967569E+02 -0.99917927427E+02  0.20549813432E+03  0.17300000000E+03 0.  1.
         -6    1    1    2    0  502  0.45035519424E+02  0.16990967569E+02  0.38975775829E+03  0.42913517816E+03  0.17300000000E+03 0.  1.
<mgrwt>
<rscale>  2 0.17957141E+03</rscale>
<asrwt>0</asrwt>
<pdfrwt beam="1">  1       21 0.71113318E-01 0.17957141E+03</pdfrwt>
<pdfrwt beam="2">  1       21 0.26522576E-01 0.17957141E+03</pdfrwt>
<totfact> 0.24386032E+04</totfact>
</mgrwt>
</event>
<event>
 4    1  0.4151607E+000  0.1980953E+03  0.7546771E-02  0.1151356E+00
         21   -1    0    0  503  502  0.00000000000E+00  0.00000000000E+00  0.62880555933E+03  0.62880555933E+03  0.00000000000E+00 0.  1.
         21   -1    0    0  501  503 -0.00000000000E+00 -0.00000000000E+00 -0.74802105168E+02  0.74802105168E+02  0.00000000000E+00 0.  1.
          6    1    1    2  501    0 -0.93274466694E+02 -0.24751418175E+02  0.13379222985E+03  0.23904417919E+03  0.17300000000E+03 0.  1.
         -6    1    1    2    0  502  0.93274466694E+02  0.24751418175E+02  0.42021122432E+03  0.46456348531E+03  0.17300000000E+03 0.  1.
<mgrwt>
<rscale>  2 0.19809533E+03</rscale>
<asrwt>0</asrwt>
<pdfrwt beam="1">  1       21 0.96739313E-01 0.19809533E+03</pdfrwt>
<pdfrwt beam="2">  1       21 0.11508017E-01 0.19809533E+03</pdfrwt>
<totfact> 0.55988559E+04</totfact>
</mgrwt>
</event>
<event>
 4    1  0.4151607E+000  0.1758225E+03  0.7546771E-02  0.1171908E+00
         21   -1    0    0  503  502  0.00000000000E+00  0.00000000000E+00  0.33686202029E+03  0.33686202029E+03  0.00000000000E+00 0.  1.
         21   -1    0    0  501  503 -0.00000000000E+00 -0.00000000000E+00 -0.12379332244E+03  0.12379332244E+03  0.00000000000E+00 0.  1.
          6    1    1    2  501    0  0.31432365604E+01 -0.31219835033E+02 -0.10613988027E+02  0.17614259785E+03  0.17300000000E+03 0. -1.
         -6    1    1    2    0  502 -0.31432365604E+01  0.31219835033E+02  0.22368268587E+03  0.28451274487E+03  0.17300000000E+03 0. -1.
<mgrwt>
<rscale>  2 0.17582252E+03</rscale>
<asrwt>0</asrwt>
<pdfrwt beam="1">  1       21 0.51824926E-01 0.17582252E+03</pdfrwt>
<pdfrwt beam="2">  1       21 0.19045127E-01 0.17582252E+03</pdfrwt>
<totfact> 0.89993736E+04</totfact>
</mgrwt>
</event>
<event>
 4    1  0.4151607E+000  0.2765415E+03  0.7546771E-02  0.1097593E+00
         21   -1    0    0  501  502  0.00000000000E+00  0.00000000000E+00  0.45227624228E+03  0.45227624228E+03  0.00000000000E+00 0. -1.
         21   -1    0    0  502  503 -0.00000000000E+00 -0.00000000000E+00 -0.17379731986E+03  0.17379731986E+03  0.00000000000E+00 0.  1.
          6    1    1    2  501    0 -0.15651465378E+02  0.21517716993E+03  0.19076016609E+03  0.33595330597E+03  0.17300000000E+03 0.  1.
         -6    1    1    2    0  503  0.15651465378E+02 -0.21517716993E+03  0.87718756330E+02  0.29012025617E+03  0.17300000000E+03 0. -1.
<mgrwt>
<rscale>  2 0.27654147E+03</rscale>
<asrwt>0</asrwt>
<pdfrwt beam="1">  1       21 0.69580960E-01 0.27654147E+03</pdfrwt>
<pdfrwt beam="2">  1       21 0.26738049E-01 0.27654147E+03</pdfrwt>
<totfact> 0.23973810E+04</totfact>
</mgrwt>
</event>
<event>
 4    1  0.4151607E+000  0.2294113E+03  0.7546771E-02  0.1127055E+00
         21   -1    0    0  503  502  0.00000000000E+00  0.00000000000E+00  0.19052996015E+03  0.19052996015E+03  0.00000000000E+00 0. -1.
         21   -1    0    0  501  503 -0.00000000000E+00 -0.00000000000E+00 -0.28569749908E+03  0.28569749908E+03  0.00000000000E+00 0.  1.
          6    1    1    2  501    0  0.13564843292E+03  0.65574627889E+02 -0.90936500679E+02  0.24677717952E+03  0.17300000000E+03 0.  1.
         -6    1    1    2    0  502 -0.13564843292E+03 -0.65574627889E+02 -0.42310382542E+01  0.22945027971E+03  0.17300000000E+03 0.  1.
<mgrwt>
<rscale>  2 0.22941127E+03</rscale>
<asrwt>0</asrwt>
<pdfrwt beam="1">  1       21 0.29312302E-01 0.22941127E+03</pdfrwt>
<pdfrwt beam="2">  1       21 0.43953461E-01 0.22941127E+03</pdfrwt>
<totfact> 0.54520547E+04</totfact>
</mgrwt>
</event>
<event>
 4    1  0.4151607E+000  0.1750095E+03  0.7546771E-02  0.1172722E+00
         21   -1    0    0  503  502  0.00000000000E+00  0.00000000000E+00  0.37359308616E+03  0.37359308616E+03  0.00000000000E+00 0. -1.
         21   -1    0    0  501  503 -0.00000000000E+00 -0.00000000000E+00 -0.87720222313E+02  0.87720222313E+02  0.00000000000E+00 0. -1.
          6    1    1    2  501    0 -0.22688603254E+02  0.13585405949E+02  0.83948727429E+02  0.19410235653E+03  0.17300000000E+03 0. -1.
         -6    1    1    2    0  502  0.22688603254E+02 -0.13585405949E+02  0.20192413642E+03  0.26721095195E+03  0.17300000000E+03 0. -1.
<mgrwt>
<rscale>  2 0.17500953E+03</rscale>
<asrwt>0</asrwt>
<pdfrwt beam="1">  1       21 0.57475858E-01 0.17500953E+03</pdfrwt>
<pdfrwt beam="2">  1       21 0.13495419E-01 0.17500953E+03</pdfrwt>
<totfact> 0.13580669E+05</totfact>
</mgrwt>
</event>
<event>
 4    1  0.4151607E+000  0.2004182E+03  0.7546771E-02  0.1149387E+00
         21   -1    0    0  501  502  0.00000000000E+00  0.00000000000E+00  0.83339591873E+02  0.83339591873E+02  0.00000000000E+00 0.  1.
         21   -1    0    0  502  503 -0.00000000000E+00 -0.00000000000E+00 -0.56031525291E+03  0.56031525291E+03  0.00000000000E+00 0.  1.
          6    1    1    2  501    0 -0.93250646262E+02 -0.39278011171E+02 -0.11814937009E+03  0.23265149654E+03  0.17300000000E+03 0.  1.
         -6    1    1    2    0  503  0.93250646262E+02  0.39278011171E+02 -0.35882629095E+03  0.41100334824E+03  0.17300000000E+03 0.  1.
<mgrwt>
<rscale>  2 0.20041818E+03</rscale>
<asrwt>0</asrwt>
<pdfrwt beam="1">  1       21 0.12821476E-01 0.20041818E+03</pdfrwt>
<pdfrwt beam="2">  1       21 0.86202347E-01 0.20041818E+03</pdfrwt>
<totfact> 0.60239575E+04</totfact>
</mgrwt>
</event>
<event>
 4    1  0.4151607E+000  0.1855473E+03  0.7546771E-02  0.1162540E+00
         21   -1    0    0  503  502  0.00000000000E+00  0.00000000000E+00  0.14042797704E+03  0.14042797704E+03  0.00000000000E+00 0.  1.
         21   -1    0    0  501  503 -0.00000000000E+00 -0.00000000000E+00 -0.33323067498E+03  0.33323067498E+03  0.00000000000E+00 0.  1.
          6    1    1    2  501    0 -0.43719181122E+02  0.50866857416E+02 -0.21815169586E+03  0.28638779022E+03  0.17300000000E+03 0.  1.
         -6    1    1    2    0  502  0.43719181122E+02 -0.50866857416E+02  0.25348997930E+02  0.18727086179E+03  0.17300000000E+03 0.  1.
<mgrwt>
<rscale>  2 0.18554731E+03</rscale>
<asrwt>0</asrwt>
<pdfrwt beam="1">  1       21 0.21604304E-01 0.18554731E+03</pdfrwt>
<pdfrwt beam="2">  1       21 0.51266257E-01 0.18554731E+03</pdfrwt>
<totfact> 0.72452031E+04</totfact>
</mgrwt>
</event>
<event>
 4    1  0.4151607E+000  0.2277538E+03  0.7546771E-02  0.1128231E+00
         21   -1    0    0  503  502  0.00000000000E+00  0.00000000000E+00  0.45982193752E+03  0.45982193752E+03  0.00000000000E+00 0.  1.
         21   -1    0    0  501  503 -0.00000000000E+00 -0.00000000000E+00 -0.12192933757E+03  0.12192933757E+03  0.00000000000E+00 0.  1.
          6    1    1    2  501    0  0.96107053345E+02 -0.11272182017E+03  0.89390267246E+02  0.24466792663E+03  0.17300000000E+03 0.  1.
         -6    1    1    2    0  502 -0.96107053345E+02  0.11272182017E+03  0.24850233271E+03  0.33708334846E+03  0.17300000000E+03 0.  1.
<mgrwt>
<rscale>  2 0.22775376E+03</rscale>
<asrwt>0</asrwt>
<pdfrwt beam="1">  1       21 0.70741835E-01 0.22775376E+03</pdfrwt>
<pdfrwt beam="2">  1       21 0.18758360E-01 0.22775376E+03</pdfrwt>
<totfact> 0.46295283E+04</totfact>
</mgrwt>
</event>
<event>
 4    1  0.4151607E+000  0.2307818E+03  0.7546771E-02  0.1126091E+00
         21   -1    0    0  501  502  0.00000000000E+00  0.00000000000E+00  0.82091053640E+03  0.82091053640E+03  0.00000000000E+00 0.  1.
         21   -1    0    0  502  503 -0.00000000000E+00 -0.00000000000E+00 -0.96505041535E+02  0.96505041535E+02  0.00000000000E+00 0. -1.
          6    1    1    2  501    0  0.11997812702E+03 -0.94532981535E+02  0.62479405545E+03  0.66605393722E+03  0.17300000000E+03 0. -1.
         -6    1    1    2    0  503 -0.11997812702E+03  0.94532981535E+02  0.99611439418E+02  0.25136164072E+03  0.17300000000E+03 0. -1.
<mgrwt>
<rscale>  2 0.23078179E+03</rscale>
<asrwt>0</asrwt>
<pdfrwt beam="1">  1       21 0.12629392E+00 0.23078179E+03</pdfrwt>
<pdfrwt beam="2">  1       21 0.14846930E-01 0.23078179E+03</pdfrwt>
<totfact> 0.18144246E+04</totfact>
</mgrwt>
</event>
<event>
 4    1  0.4151607E+000  0.3055246E+03  0.7546771E-02  0.1082511E+00
         21   -1    0    0  503  502  0.00000000000E+00  0.00000000000E+00  0.28011850140E+03  0.28011850140E+03  0.00000000000E+00 0.  1.
         21   -1    0    0  501  503 -0.00000000000E+00 -0.00000000000E+00 -0.41200525198E+03  0.41200525198E+03  0.00000000000E+00 0. -1.
          6    1    1    2  501    0  0.20215738090E+03  0.15016214643E+03 -0.21725894503E+03  0.37489562023E+03  0.17300000000E+03 0. -1.
         -6    1    1    2    0  502 -0.20215738090E+03 -0.15016214643E+03  0.85372194453E+02  0.31722813315E+03  0.17300000000E+03 0.  1.
<mgrwt>
<rscale>  2 0.30552459E+03</rscale>
<asrwt>0</asrwt>
<pdfrwt beam="1">  1       21 0.43095154E-01 0.30552459E+03</pdfrwt>
<pdfrwt beam="2">  1       21 0.63385423E-01 0.30552459E+03</pdfrwt>
<totfact> 0.11206056E+04</totfact>
</mgrwt>
</event>
<event>
 4    1  0.4151607E+000  0.2490542E+03  0.7546771E-02  0.1113904E+00
         21   -1    0    0  503  502  0.00000000000E+00  0.00000000000E+00  0.70552433649E+03  0.70552433649E+03  0.00000000000E+00 0.  1.
         21   -1    0    0  501  503 -0.00000000000E+00 -0.00000000000E+00 -0.94315181740E+02  0.94315181740E+02  0.00000000000E+00 0. -1.
          6    1    1    2  501    0  0.89307654490E+02  0.15531619806E+03  0.20144689161E+03  0.32032612861E+03  0.17300000000E+03 0. -1.
         -6    1    1    2    0  502 -0.89307654490E+02 -0.15531619806E+03  0.40976226315E+03  0.47951338962E+03  0.17300000000E+03 0.  1.
<mgrwt>
<rscale>  2 0.24905417E+03</rscale>
<asrwt>0</asrwt>
<pdfrwt beam="1">  1       21 0.10854220E+00 0.24905417E+03</pdfrwt>
<pdfrwt beam="2">  1       21 0.14510028E-01 0.24905417E+03</pdfrwt>
<totfact> 0.27266224E+04</totfact>
</mgrwt>
</event>
<event>
 4    1  0.4151607E+000  0.3333921E+03  0.7546771E-02  0.1069646E+00
         21   -1    0    0  501  502  0.00000000000E+00  0.00000000000E+00  0.20652039550E+04  0.20652039550E+04  0.00000000000E+00 0. -1.
         21   -1    0    0  502  503 -0.00000000000E+00 -0.00000000000E+00 -0.12284351099E+03  0.12284351099E+03  0.00000000000E+00 0. -1.
          6    1    1    2  501    0 -0.21458174317E+03  0.18755257156E+03  0.17912439641E+04  0.18220058261E+04  0.17300000000E+03 0. -1.
         -6    1    1    2    0  503  0.21458174317E+03 -0.18755257156E+03  0.15111647993E+03  0.36604163986E+03  0.17300000000E+03 0. -1.
<mgrwt>
<rscale>  2 0.33339210E+03</rscale>
<asrwt>0</asrwt>
<pdfrwt beam="1">  1       21 0.31772366E+00 0.33339210E+03</pdfrwt>
<pdfrwt beam="2">  1       21 0.18899003E-01 0.33339210E+03</pdfrwt>
<totfact> 0.59474322E+02</totfact>
</mgrwt>
</event>
<event>
 4    1  0.4151607E+000  0.1839544E+03  0.7546771E-02  0.1164030E+00
         21   -1    0    0  503  502  0.00000000000E+00  0.00000000000E+00  0.51504161029E+03  0.51504161029E+03  0.00000000000E+00 0.  1.
         21   -1    0    0  501  503 -0.00000000000E+00 -0.00000000000E+00 -0.12528105334E+03  0.12528105334E+03  0.00000000000E+00 0.  1.
          6    1    1    2  501    0  0.38936513444E+02  0.48930216571E+02 -0.25906621872E+02  0.18576967252E+03  0.17300000000E+03 0.  1.
         -6    1    1    2    0  502 -0.38936513444E+02 -0.48930216571E+02  0.41566717882E+03  0.45455299110E+03  0.17300000000E+03 0.  1.
<mgrwt>
<rscale>  2 0.18395439E+03</rscale>
<asrwt>0</asrwt>
<pdfrwt beam="1">  1       21 0.79237170E-01 0.18395439E+03</pdfrwt>
<pdfrwt beam="2">  1       21 0.19274009E-01 0.18395439E+03</pdfrwt>
<totfact> 0.34917285E+04</totfact>
</mgrwt>
</event>
<event>
 4    1  0.4151607E+000  0.1833200E+03  0.7546771E-02  0.1164628E+00
         21   -1    0    0  501  502  0.00000000000E+00  0.00000000000E+00  0.16166260957E+03  0.16166260957E+03  0.00000000000E+00 0.  1.
         21   -1    0    0  502  503 -0.00000000000E+00 -0.00000000000E+00 -0.44401047684E+03  0.44401047684E+03  0.00000000000E+00 0. -1.
          6    1    1    2  501    0 -0.14887201626E+02 -0.58784387628E+02  0.79671678916E+02  0.19988449020E+03  0.17300000000E+03 0.  1.
         -6    1    1    2    0  503  0.14887201626E+02  0.58784387628E+02 -0.36201954618E+03  0.40578859621E+03  0.17300000000E+03 0. -1.
<mgrwt>
<rscale>  2 0.18332003E+03</rscale>
<asrwt>0</asrwt>
<pdfrwt beam="1">  1       21 0.24871171E-01 0.18332003E+03</pdfrwt>
<pdfrwt beam="2">  1       21 0.68309304E-01 0.18332003E+03</pdfrwt>
<totfact> 0.30061882E+04</totfact>
</mgrwt>
</event>
<event>
 4    1  0.4151607E+000  0.1791155E+03  0.7546771E-02  0.1168662E+00
         21   -1    0    0  501  502  0.00000000000E+00  0.00000000000E+00  0.12323558149E+03  0.12323558149E+03  0.00000000000E+00 0.  1.
         21   -1    0    0  502  503 -0.00000000000E+00 -0.00000000000E+00 -0.74140434131E+03  0.74140434131E+03  0.00000000000E+00 0.  1.
          6    1    1    2  501    0  0.45981826660E+02 -0.62477597289E+01  0.39158460980E+02  0.18334597882E+03  0.17300000000E+03 0.  1.
         -6    1    1    2    0  503 -0.45981826660E+02  0.62477597289E+01 -0.65732722081E+03  0.68129394398E+03  0.17300000000E+03 0.  1.
<mgrwt>
<rscale>  2 0.17911550E+03</rscale>
<asrwt>0</asrwt>
<pdfrwt beam="1">  1       21 0.18959320E-01 0.17911550E+03</pdfrwt>
<pdfrwt beam="2">  1       21 0.11406221E+00 0.17911550E+03</pdfrwt>
<totfact> 0.15389196E+04</totfact>
</mgrwt>
</event>
<event>
 4    1  0.4151607E+000  0.1745312E+03  0.7546771E-02  0.1173203E+00
         21   -1    0    0  501  502  0.00000000000E+00  0.00000000000E+00  0.46240267647E+02  0.46240267647E+02  0.00000000000E+00 0.  1.
         21   -1    0    0  502  503 -0.00000000000E+00 -0.00000000000E+00 -0.12694522110E+04  0.12694522110E+04  0.00000000000E+00 0.  1.
          6    1    1    2  501    0  0.14377876610E+02 -0.18039360605E+02 -0.15532941724E+03  0.23364154110E+03  0.17300000000E+03 0.  1.
         -6    1    1    2    0  503 -0.14377876610E+02  0.18039360605E+02 -0.10678825261E+04  0.10820509375E+04  0.17300000000E+03 0.  1.
<mgrwt>
<rscale>  2 0.17453121E+03</rscale>
<asrwt>0</asrwt>
<pdfrwt beam="1">  1       21 0.71138877E-02 0.17453121E+03</pdfrwt>
<pdfrwt beam="2">  1       21 0.19530033E+00 0.17453121E+03</pdfrwt>
<totfact> 0.21476671E+04</totfact>
</mgrwt>
</event>
<event>
 4    1  0.4151607E+000  0.2347431E+03  0.7546771E-02  0.1123345E+00
         21   -1    0    0  501  502  0.00000000000E+00  0.00000000000E+00  0.81925943266E+03  0.81925943266E+03  0.00000000000E+00 0. -1.
         21   -1    0    0  502  503 -0.00000000000E+00 -0.00000000000E+00 -0.12061990922E+03  0.12061990922E+03  0.00000000000E+00 0. -1.
          6    1    1    2  501    0 -0.15836833977E+03  0.97369953177E+01  0.66188122292E+03  0.70227565341E+03  0.17300000000E+03 0. -1.
         -6    1    1    2    0  503  0.15836833977E+03 -0.97369953177E+01  0.36758300527E+02  0.23760368847E+03  0.17300000000E+03 0. -1.
<mgrwt>
<rscale>  2 0.23474314E+03</rscale>
<asrwt>0</asrwt>
<pdfrwt beam="1">  1       21 0.12603991E+00 0.23474314E+03</pdfrwt>
<pdfrwt beam="2">  1       21 0.18556910E-01 0.23474314E+03</pdfrwt>
<totfact> 0.12057849E+04</totfact>
</mgrwt>
</event>
<event>
 4    1  0.4151607E+000  0.2085798E+03  0.7546771E-02  0.1142696E+00
         21   -1    0    0  503  502  0.00000000000E+00  0.00000000000E+00  0.12177792476E+03  0.12177792476E+03  0.00000000000E+00 0. -1.
         21   -1    0    0  501  503 -0.00000000000E+00 -0.00000000000E+00 -0.37369707421E+03  0.37369707421E+03  0.00000000000E+00 0. -1.
          6    1    1    2  501    0  0.11046492049E+03  0.37067713571E+02 -0.17792784135E+03  0.27416022829E+03  0.17300000000E+03 0. -1.
         -6    1    1    2    0  502 -0.11046492049E+03 -0.37067713571E+02 -0.73991308091E+02  0.22131477068E+03  0.17300000000E+03 0. -1.
<mgrwt>
<rscale>  2 0.20857975E+03</rscale>
<asrwt>0</asrwt>
<pdfrwt beam="1">  1       21 0.18735066E-01 0.20857975E+03</pdfrwt>
<pdfrwt beam="2">  1       21 0.57491856E-01 0.20857975E+03</pdfrwt>
<totfact> 0.73496131E+04</totfact>
</mgrwt>
</event>
<event>
 4    1  0.4151607E+000  0.1840345E+03  0.7546771E-02  0.1163955E+00
         21   -1    0    0  501  502  0.00000000000E+00  0.00000000000E+00  0.15486871181E+04  0.15486871181E+04  0.00000000000E+00 0. -1.
         21   -1    0    0  502  503 -0.00000000000E+00 -0.00000000000E+00 -0.28687542854E+02  0.28687542854E+02  0.00000000000E+00 0. -1.
          6    1    1    2  501    0  0.62750460853E+02 -0.14362425670E+01  0.11444984507E+04  0.11592003222E+04  0.17300000000E+03 0. -1.
         -6    1    1    2    0  503 -0.62750460853E+02  0.14362425670E+01  0.37550112453E+03  0.41817433882E+03  0.17300000000E+03 0. -1.
<mgrwt>
<rscale>  2 0.18403446E+03</rscale>
<asrwt>0</asrwt>
<pdfrwt beam="1">  1       21 0.23825949E+00 0.18403446E+03</pdfrwt>
<pdfrwt beam="2">  1       21 0.44134693E-02 0.18403446E+03</pdfrwt>
<totfact> 0.26101243E+04</totfact>
</mgrwt>
</event>
<event>
 4    1  0.4151607E+000  0.3749580E+03  0.7546771E-02  0.1052813E+00
         21   -1    0    0  501  502  0.00000000000E+00  0.00000000000E+00  0.29293073978E+03  0.29293073978E+03  0.00000000000E+00 0. -1.
         21   -1    0    0  502  503 -0.00000000000E+00 -0.00000000000E+00 -0.69180660671E+03  0.69180660671E+03  0.00000000000E+00 0.  1.
          6    1    1    2  501    0  0.10315627232E+03 -0.31626452795E+03  0.73029317111E+02  0.38200359857E+03  0.17300000000E+03 0. -1.
         -6    1    1    2    0  503 -0.10315627232E+03  0.31626452795E+03 -0.47190518404E+03  0.60273374793E+03  0.17300000000E+03 0.  1.
<mgrwt>
<rscale>  2 0.37495796E+03</rscale>
<asrwt>0</asrwt>
<pdfrwt beam="1">  1       21 0.45066268E-01 0.37495796E+03</pdfrwt>
<pdfrwt beam="2">  1       21 0.10643179E+00 0.37495796E+03</pdfrwt>
<totfact> 0.29889163E+03</totfact>
</mgrwt>
</event>
<event>
 4    1  0.4151607E+000  0.1750055E+03  0.7546771E-02  0.1172726E+00
         21   -1    0    0  503  502  0.00000000000E+00  0.00000000000E+00  0.15326761698E+03  0.15326761698E+03  0.00000000000E+00 0.  1.
         21   -1    0    0  501  503 -0.00000000000E+00 -0.00000000000E+00 -0.53228982540E+03  0.53228982540E+03  0.00000000000E+00 0.  1.
          6    1    1    2  501    0 -0.76635182464E+01  0.25282441722E+02 -0.46041275062E+03  0.49255134991E+03  0.17300000000E+03 0.  1.
         -6    1    1    2    0  502  0.76635182464E+01 -0.25282441722E+02  0.81390542188E+02  0.19300609247E+03  0.17300000000E+03 0.  1.
<mgrwt>
<rscale>  2 0.17500552E+03</rscale>
<asrwt>0</asrwt>
<pdfrwt beam="1">  1       21 0.23579633E-01 0.17500552E+03</pdfrwt>
<pdfrwt beam="2">  1       21 0.81890743E-01 0.17500552E+03</pdfrwt>
<totfact> 0.22319933E+04</totfact>
</mgrwt>
</event>
<event>
 4    1  0.4151607E+000  0.3153299E+03  0.7546771E-02  0.1077819E+00
         21   -1    0    0  503  502  0.00000000000E+00  0.00000000000E+00  0.16640792167E+03  0.16640792167E+03  0.00000000000E+00 0. -1.
         21   -1    0    0  501  503 -0.00000000000E+00 -0.00000000000E+00 -0.96720746052E+03  0.96720746052E+03  0.00000000000E+00 0.  1.
          6    1    1    2  501    0  0.18753488982E+03  0.18529603533E+03 -0.75082076501E+03  0.81434929654E+03  0.17300000000E+03 0.  1.
         -6    1    1    2    0  502 -0.18753488982E+03 -0.18529603533E+03 -0.49978773841E+02  0.31926608565E+03  0.17300000000E+03 0. -1.
<mgrwt>
<rscale>  2 0.31532992E+03</rscale>
<asrwt>0</asrwt>
<pdfrwt beam="1">  1       21 0.25601219E-01 0.31532992E+03</pdfrwt>
<pdfrwt beam="2">  1       21 0.14880115E+00 0.31532992E+03</pdfrwt>
<totfact> 0.40643696E+03</totfact>
</mgrwt>
</event>
<event>
 4    1  0.4151607E+000  0.2603095E+03  0.7546771E-02  0.1106957E+00
         21   -1    0    0  501  502  0.00000000000E+00  0.00000000000E+00  0.48927405348E+03  0.48927405348E+03  0.00000000000E+00 0. -1.
         21   -1    0    0  502  503 -0.00000000000E+00 -0.00000000000E+00 -0.66832108217E+03  0.66832108217E+03  0.00000000000E+00 0.  1.
          6    1    1    2  501    0  0.12435490421E+03  0.14955903481E+03  0.42582566697E+03  0.49908771348E+03  0.17300000000E+03 0. -1.
         -6    1    1    2    0  503 -0.12435490421E+03 -0.14955903481E+03 -0.60487269567E+03  0.65850742217E+03  0.17300000000E+03 0.  1.
<mgrwt>
<rscale>  2 0.26030952E+03</rscale>
<asrwt>0</asrwt>
<pdfrwt beam="1">  1       21 0.75272931E-01 0.26030952E+03</pdfrwt>
<pdfrwt beam="2">  1       21 0.10281863E+00 0.26030952E+03</pdfrwt>
<totfact> 0.11429731E+03</totfact>
</mgrwt>
</event>
<event>
 4    1  0.4151607E+000  0.1975228E+03  0.7546771E-02  0.1151846E+00
         21   -1    0    0  503  502  0.00000000000E+00  0.00000000000E+00  0.35249488965E+03  0.35249488965E+03  0.00000000000E+00 0.  1.
         21   -1    0    0  501  503 -0.00000000000E+00 -0.00000000000E+00 -0.11245633946E+03  0.11245633946E+03  0.00000000000E+00 0.  1.
          6    1    1    2  501    0 -0.78915214147E+02 -0.53466167154E+02  0.90827269192E+02  0.21740477199E+03  0.17300000000E+03 0.  1.
         -6    1    1    2    0  502  0.78915214147E+02  0.53466167154E+02  0.14921128101E+03  0.24754645712E+03  0.17300000000E+03 0.  1.
<mgrwt>
<rscale>  2 0.19752276E+03</rscale>
<asrwt>0</asrwt>
<pdfrwt beam="1">  1       21 0.54229983E-01 0.19752276E+03</pdfrwt>
<pdfrwt beam="2">  1       21 0.17300975E-01 0.19752276E+03</pdfrwt>
<totfact> 0.96872533E+04</totfact>
</mgrwt>
</event>
<event>
 4    1  0.4151607E+000  0.1748157E+03  0.7546771E-02  0.1172917E+00
         21   -1    0    0  503  502  0.00000000000E+00  0.00000000000E+00  0.26432815450E+03  0.26432815450E+03  0.00000000000E+00 0. -1.
         21   -1    0    0  501  503 -0.00000000000E+00 -0.00000000000E+00 -0.48694197403E+03  0.48694197403E+03  0.00000000000E+00 0. -1.
          6    1    1    2  501    0 -0.80088309102E+01  0.23820096333E+02 -0.43933062290E+03  0.47283393975E+03  0.17300000000E+03 0. -1.
         -6    1    1    2    0  502  0.80088309102E+01 -0.23820096333E+02  0.21671680337E+03  0.27843618878E+03  0.17300000000E+03 0. -1.
<mgrwt>
<rscale>  2 0.17481573E+03</rscale>
<asrwt>0</asrwt>
<pdfrwt beam="1">  1       21 0.40665871E-01 0.17481573E+03</pdfrwt>
<pdfrwt beam="2">  1       21 0.74914148E-01 0.17481573E+03</pdfrwt>
<totfact> 0.94051467E+03</totfact>
</mgrwt>
</event>
<event>
 4    1  0.4151607E+000  0.1938602E+03  0.7546771E-02  0.1155025E+00
         21   -1    0    0  503  502  0.00000000000E+00  0.00000000000E+00  0.17766654199E+03  0.17766654199E+03  0.00000000000E+00 0.  1.
         21   -1    0    0  501  503 -0.00000000000E+00 -0.00000000000E+00 -0.23096054198E+03  0.23096054198E+03  0.00000000000E+00 0.  1.
          6    1    1    2  501    0  0.39415943306E+02 -0.78097066072E+02 -0.85908540439E+02  0.21204255619E+03  0.17300000000E+03 0.  1.
         -6    1    1    2    0  502 -0.39415943306E+02  0.78097066072E+02  0.32614540445E+02  0.19658452778E+03  0.17300000000E+03 0.  1.
<mgrwt>
<rscale>  2 0.19386018E+03</rscale>
<asrwt>0</asrwt>
<pdfrwt beam="1">  1       21 0.27333314E-01 0.19386018E+03</pdfrwt>
<pdfrwt beam="2">  1       21 0.35532391E-01 0.19386018E+03</pdfrwt>
<totfact> 0.97435659E+04</totfact>
</mgrwt>
</event>
<event>
 4    1  0.4151607E+000  0.1946723E+03  0.7546771E-02  0.1154313E+00
         21   -1    0    0  503  502  0.00000000000E+00  0.00000000000E+00  0.12837030964E+03  0.12837030964E+03  0.00000000000E+00 0.  1.
         21   -1    0    0  501  503 -0.00000000000E+00 -0.00000000000E+00 -0.43043761983E+03  0.43043761983E+03  0.00000000000E+00 0.  1.
          6    1    1    2  501    0  0.58581876111E+02 -0.67353303476E+02 -0.30763530670E+03  0.36405601990E+03  0.17300000000E+03 0.  1.
         -6    1    1    2    0  502 -0.58581876111E+02  0.67353303476E+02  0.55679965125E+01  0.19475190957E+03  0.17300000000E+03 0.  1.
<mgrwt>
<rscale>  2 0.19467230E+03</rscale>
<asrwt>0</asrwt>
<pdfrwt beam="1">  1       21 0.19749278E-01 0.19467230E+03</pdfrwt>
<pdfrwt beam="2">  1       21 0.66221173E-01 0.19467230E+03</pdfrwt>
<totfact> 0.49413175E+04</totfact>
</mgrwt>
</event>
<event>
 4    1  0.4151607E+000  0.3008537E+03  0.7546771E-02  0.1084815E+00
         21   -1    0    0  503  502  0.00000000000E+00  0.00000000000E+00  0.10043426488E+03  0.10043426488E+03  0.00000000000E+00 0. -1.
         21   -1    0    0  501  503 -0.00000000000E+00 -0.00000000000E+00 -0.15617070615E+04  0.15617070615E+04  0.00000000000E+00 0.  1.
          6    1    1    2  501    0 -0.18438204173E+03  0.16305583917E+03 -0.12711065455E+04  0.13062253994E+04  0.17300000000E+03 0.  1.
         -6    1    1    2    0  502  0.18438204173E+03 -0.16305583917E+03 -0.19016625108E+03  0.35591592694E+03  0.17300000000E+03 0. -1.
<mgrwt>
<rscale>  2 0.30085369E+03</rscale>
<asrwt>0</asrwt>
<pdfrwt beam="1">  1       21 0.15451425E-01 0.30085369E+03</pdfrwt>
<pdfrwt beam="2">  1       21 0.24026263E+00 0.30085369E+03</pdfrwt>
<totfact> 0.25669215E+03</totfact>
</mgrwt>
</event>
<event>
 4    1  0.4151607E+000  0.1857070E+03  0.7546771E-02  0.1162391E+00
         21   -1    0    0  501  502  0.00000000000E+00  0.00000000000E+00  0.11149452988E+03  0.11149452988E+03  0.00000000000E+00 0. -1.
         21   -1    0    0  502  503 -0.00000000000E+00 -0.00000000000E+00 -0.30936205067E+03  0.30936205067E+03  0.00000000000E+00 0.  1.
          6    1    1    2  501    0 -0.19352591204E+02  0.64680561056E+02 -0.10148715232E+03  0.21162877841E+03  0.17300000000E+03 0.  1.
         -6    1    1    2    0  503  0.19352591204E+02 -0.64680561056E+02 -0.96380368476E+02  0.20922780215E+03  0.17300000000E+03 0. -1.
<mgrwt>
<rscale>  2 0.18570702E+03</rscale>
<asrwt>0</asrwt>
<pdfrwt beam="1">  1       21 0.17153005E-01 0.18570702E+03</pdfrwt>
<pdfrwt beam="2">  1       21 0.47594161E-01 0.18570702E+03</pdfrwt>
<totfact> 0.12985294E+05</totfact>
</mgrwt>
</event>
<event>
 4    1  0.4151607E+000  0.1954296E+03  0.7546771E-02  0.1153653E+00
         21   -1    0    0  503  502  0.00000000000E+00  0.00000000000E+00  0.11077052333E+03  0.11077052333E+03  0.00000000000E+00 0. -1.
         21   -1    0    0  501  503 -0.00000000000E+00 -0.00000000000E+00 -0.47982140724E+03  0.47982140724E+03  0.00000000000E+00 0. -1.
          6    1    1    2  501    0  0.26532782994E+02 -0.86946855513E+02 -0.34117621840E+03  0.39318437947E+03  0.17300000000E+03 0. -1.
         -6    1    1    2    0  502 -0.26532782994E+02  0.86946855513E+02 -0.27874665509E+02  0.19740755111E+03  0.17300000000E+03 0. -1.
<mgrwt>
<rscale>  2 0.19542964E+03</rscale>
<asrwt>0</asrwt>
<pdfrwt beam="1">  1       21 0.17041619E-01 0.19542964E+03</pdfrwt>
<pdfrwt beam="2">  1       21 0.73818679E-01 0.19542964E+03</pdfrwt>
<totfact> 0.51088932E+04</totfact>
</mgrwt>
</event>
<event>
 4    1  0.4151607E+000  0.1827081E+03  0.7546771E-02  0.1165208E+00
         21   -1    0    0  503  502  0.00000000000E+00  0.00000000000E+00  0.31503756867E+02  0.31503756867E+02  0.00000000000E+00 0.  1.
         21   -1    0    0  501  503 -0.00000000000E+00 -0.00000000000E+00 -0.10623311533E+04  0.10623311533E+04  0.00000000000E+00 0.  1.
          6    1    1    2  501    0  0.58055809136E+02 -0.90980812689E+01 -0.54300389275E+03  0.57291838825E+03  0.17300000000E+03 0.  1.
         -6    1    1    2    0  502 -0.58055809136E+02  0.90980812689E+01 -0.48782350368E+03  0.52091652191E+03  0.17300000000E+03 0.  1.
<mgrwt>
<rscale>  2 0.18270811E+03</rscale>
<asrwt>0</asrwt>
<pdfrwt beam="1">  1       21 0.48467314E-02 0.18270811E+03</pdfrwt>
<pdfrwt beam="2">  1       21 0.16343558E+00 0.18270811E+03</pdfrwt>
<totfact> 0.67748689E+04</totfact>
</mgrwt>
</event>
<event>
 4    1  0.4151607E+000  0.1820273E+03  0.7546771E-02  0.1165855E+00
         21   -1    0    0  501  502  0.00000000000E+00  0.00000000000E+00  0.55030484835E+03  0.55030484835E+03  0.00000000000E+00 0. -1.
         21   -1    0    0  502  503 -0.00000000000E+00 -0.00000000000E+00 -0.77844651094E+02  0.77844651094E+02  0.00000000000E+00 0.  1.
          6    1    1    2  501    0  0.29013702237E+02 -0.48612208178E+02  0.38571596334E+03  0.42650996012E+03  0.17300000000E+03 0. -1.
         -6    1    1    2    0  503 -0.29013702237E+02  0.48612208178E+02  0.86744233908E+02  0.20163953932E+03  0.17300000000E+03 0. -1.
<mgrwt>
<rscale>  2 0.18202731E+03</rscale>
<asrwt>0</asrwt>
<pdfrwt beam="1">  1       21 0.84662282E-01 0.18202731E+03</pdfrwt>
<pdfrwt beam="2">  1       21 0.11976100E-01 0.18202731E+03</pdfrwt>
<totfact> 0.71545640E+04</totfact>
</mgrwt>
</event>
<event>
 4    1  0.4151607E+000  0.1771704E+03  0.7546771E-02  0.1170570E+00
         21   -1    0    0  503  502  0.00000000000E+00  0.00000000000E+00  0.12731359811E+03  0.12731359811E+03  0.00000000000E+00 0. -1.
         21   -1    0    0  501  503 -0.00000000000E+00 -0.00000000000E+00 -0.24684033578E+03  0.24684033578E+03  0.00000000000E+00 0. -1.
          6    1    1    2  501    0 -0.80164863142E+01 -0.37364429057E+02 -0.53364515537E+02  0.18503279744E+03  0.17300000000E+03 0. -1.
         -6    1    1    2    0  502  0.80164863142E+01  0.37364429057E+02 -0.66162222133E+02  0.18912113644E+03  0.17300000000E+03 0. -1.
<mgrwt>
<rscale>  2 0.17717044E+03</rscale>
<asrwt>0</asrwt>
<pdfrwt beam="1">  1       21 0.19586707E-01 0.17717044E+03</pdfrwt>
<pdfrwt beam="2">  1       21 0.37975436E-01 0.17717044E+03</pdfrwt>
<totfact> 0.16127734E+05</totfact>
</mgrwt>
</event>
<event>
 4    1  0.4151607E+000  0.2241980E+03  0.7546771E-02  0.1130791E+00
         21   -1    0    0  501  502  0.00000000000E+00  0.00000000000E+00  0.99811270120E+02  0.99811270120E+02  0.00000000000E+00 0.  1.
         21   -1    0    0  502  503 -0.00000000000E+00 -0.00000000000E+00 -0.50840551771E+03  0.50840551771E+03  0.00000000000E+00 0. -1.
          6    1    1    2  501    0 -0.75194941623E+02  0.12116713876E+03 -0.17472487906E+03  0.28424204144E+03  0.17300000000E+03 0.  1.
         -6    1    1    2    0  503  0.75194941623E+02 -0.12116713876E+03 -0.23386936854E+03  0.32397474639E+03  0.17300000000E+03 0. -1.
<mgrwt>
<rscale>  2 0.22419803E+03</rscale>
<asrwt>0</asrwt>
<pdfrwt beam="1">  1       21 0.15355580E-01 0.22419803E+03</pdfrwt>
<pdfrwt beam="2">  1       21 0.78216233E-01 0.22419803E+03</pdfrwt>
<totfact> 0.53589824E+04</totfact>
</mgrwt>
</event>
<event>
 4    1  0.4151607E+000  0.1984484E+03  0.7546771E-02  0.1151055E+00
         21   -1    0    0  503  502  0.00000000000E+00  0.00000000000E+00  0.12360446903E+04  0.12360446903E+04  0.00000000000E+00 0. -1.
         21   -1    0    0  501  503 -0.00000000000E+00 -0.00000000000E+00 -0.32437850426E+02  0.32437850426E+02  0.00000000000E+00 0. -1.
          6    1    1    2  501    0  0.97177035033E+02 -0.30615525637E+01  0.51723257449E+03  0.55399574489E+03  0.17300000000E+03 0. -1.
         -6    1    1    2    0  502 -0.97177035033E+02  0.30615525637E+01  0.68637426534E+03  0.71448679579E+03  0.17300000000E+03 0. -1.
<mgrwt>
<rscale>  2 0.19844835E+03</rscale>
<asrwt>0</asrwt>
<pdfrwt beam="1">  1       21 0.19016069E+00 0.19844835E+03</pdfrwt>
<pdfrwt beam="2">  1       21 0.49904395E-02 0.19844835E+03</pdfrwt>
<totfact> 0.41828434E+04</totfact>
</mgrwt>
</event>
<event>
 4    1  0.4151607E+000  0.1798167E+03  0.7546771E-02  0.1167981E+00
         21   -1    0    0  503  502  0.00000000000E+00  0.00000000000E+00  0.47855074935E+03  0.47855074935E+03  0.00000000000E+00 0. -1.
         21   -1    0    0  501  503 -0.00000000000E+00 -0.00000000000E+00 -0.67866783250E+02  0.67866783250E+02  0.00000000000E+00 0. -1.
          6    1    1    2  501    0 -0.38528992479E+02 -0.30340933113E+02  0.22351163019E+03  0.28686495832E+03  0.17300000000E+03 0.  1.
         -6    1    1    2    0  502  0.38528992479E+02  0.30340933113E+02  0.18717233591E+03  0.25955257428E+03  0.17300000000E+03 0.  1.
<mgrwt>
<rscale>  2 0.17981673E+03</rscale>
<asrwt>0</asrwt>
<pdfrwt beam="1">  1       21 0.73623190E-01 0.17981673E+03</pdfrwt>
<pdfrwt beam="2">  1       21 0.10441044E-01 0.17981673E+03</pdfrwt>
<totfact> 0.12514876E+05</totfact>
</mgrwt>
</event>
<event>
 4    1  0.4151607E+000  0.2055562E+03  0.7546771E-02  0.1145134E+00
         21   -1    0    0  501  502  0.00000000000E+00  0.00000000000E+00  0.15733633082E+03  0.15733633082E+03  0.00000000000E+00 0. -1.
         21   -1    0    0  502  503 -0.00000000000E+00 -0.00000000000E+00 -0.53419944321E+03  0.53419944321E+03  0.00000000000E+00 0. -1.
          6    1    1    2  501    0  0.10937627392E+03 -0.19004814094E+02  0.55396602697E+02  0.21288996182E+03  0.17300000000E+03 0. -1.
         -6    1    1    2    0  503 -0.10937627392E+03  0.19004814094E+02 -0.43225971509E+03  0.47864581221E+03  0.17300000000E+03 0. -1.
<mgrwt>
<rscale>  2 0.20555620E+03</rscale>
<asrwt>0</asrwt>
<pdfrwt beam="1">  1       21 0.24205589E-01 0.20555620E+03</pdfrwt>
<pdfrwt beam="2">  1       21 0.82184530E-01 0.20555620E+03</pdfrwt>
<totfact> 0.20680676E+04</totfact>
</mgrwt>
</event>
<event>
 4    1  0.4151607E+000  0.1916288E+03  0.7546771E-02  0.1157000E+00
         21   -1    0    0  503  502  0.00000000000E+00  0.00000000000E+00  0.14133118793E+03  0.14133118793E+03  0.00000000000E+00 0.  1.
         21   -1    0    0  501  503 -0.00000000000E+00 -0.00000000000E+00 -0.26300799865E+03  0.26300799865E+03  0.00000000000E+00 0.  1.
          6    1    1    2  501    0  0.61143825979E+02  0.55263223686E+02 -0.83073837052E+02  0.20886084782E+03  0.17300000000E+03 0.  1.
         -6    1    1    2    0  502 -0.61143825979E+02 -0.55263223686E+02 -0.38602973668E+02  0.19547833876E+03  0.17300000000E+03 0.  1.
<mgrwt>
<rscale>  2 0.19162879E+03</rscale>
<asrwt>0</asrwt>
<pdfrwt beam="1">  1       21 0.21743260E-01 0.19162879E+03</pdfrwt>
<pdfrwt beam="2">  1       21 0.40462769E-01 0.19162879E+03</pdfrwt>
<totfact> 0.11618739E+05</totfact>
</mgrwt>
</event>
<event>
 4    1  0.4151607E+000  0.1815393E+03  0.7546771E-02  0.1166322E+00
         21   -1    0    0  501  502  0.00000000000E+00  0.00000000000E+00  0.31409354480E+03  0.31409354480E+03  0.00000000000E+00 0.  1.
         21   -1    0    0  502  503 -0.00000000000E+00 -0.00000000000E+00 -0.56128484268E+03  0.56128484268E+03  0.00000000000E+00 0.  1.
          6    1    1    2  501    0  0.44895415050E+01  0.54839386290E+02  0.27106833961E+03  0.32624309803E+03  0.17300000000E+03 0.  1.
         -6    1    1    2    0  503 -0.44895415050E+01 -0.54839386290E+02 -0.51825963749E+03  0.54913528945E+03  0.17300000000E+03 0.  1.
<mgrwt>
<rscale>  2 0.18153929E+03</rscale>
<asrwt>0</asrwt>
<pdfrwt beam="1">  1       21 0.48322083E-01 0.18153929E+03</pdfrwt>
<pdfrwt beam="2">  1       21 0.86351515E-01 0.18153929E+03</pdfrwt>
<totfact> 0.47701172E+03</totfact>
</mgrwt>
</event>
<event>
 4    1  0.4151607E+000  0.2581208E+03  0.7546771E-02  0.1108278E+00
         21   -1    0    0  503  502  0.00000000000E+00  0.00000000000E+00  0.10151714325E+04  0.10151714325E+04  0.00000000000E+00 0. -1.
         21   -1    0    0  501  503 -0.00000000000E+00 -0.00000000000E+00 -0.65685301578E+02  0.65685301578E+02  0.00000000000E+00 0.  1.
          6    1    1    2  501    0  0.92968635549E+02  0.16749387523E+03  0.49033097734E+03  0.55412167687E+03  0.17300000000E+03 0. -1.
         -6    1    1    2    0  502 -0.92968635549E+02 -0.16749387523E+03  0.45915515358E+03  0.52673505721E+03  0.17300000000E+03 0.  1.
<mgrwt>
<rscale>  2 0.25812083E+03</rscale>
<asrwt>0</asrwt>
<pdfrwt beam="1">  1       21 0.15618021E+00 0.25812083E+03</pdfrwt>
<pdfrwt beam="2">  1       21 0.10105432E-01 0.25812083E+03</pdfrwt>
<totfact> 0.20561845E+04</totfact>
</mgrwt>
</event>
<event>
 4    1  0.4151607E+000  0.1960300E+03  0.7546771E-02  0.1153132E+00
         21   -1    0    0  503  502  0.00000000000E+00  0.00000000000E+00  0.42574294193E+03  0.42574294193E+03  0.00000000000E+00 0.  1.
         21   -1    0    0  501  503 -0.00000000000E+00 -0.00000000000E+00 -0.10122238984E+03  0.10122238984E+03  0.00000000000E+00 0.  1.
          6    1    1    2  501    0 -0.91879525677E+02  0.75441496260E+01  0.75552727339E+02  0.21008563978E+03  0.17300000000E+03 0.  1.
         -6    1    1    2    0  502  0.91879525677E+02 -0.75441496260E+01  0.24896782475E+03  0.31687969199E+03  0.17300000000E+03 0.  1.
<mgrwt>
<rscale>  2 0.19603000E+03</rscale>
<asrwt>0</asrwt>
<pdfrwt beam="1">  1       21 0.65498914E-01 0.19603000E+03</pdfrwt>
<pdfrwt beam="2">  1       21 0.15572676E-01 0.19603000E+03</pdfrwt>
<totfact> 0.78418362E+04</totfact>
</mgrwt>
</event>
<event>
 4    1  0.4151607E+000  0.2022346E+03  0.7546771E-02  0.1147867E+00
         21   -1    0    0  501  502  0.00000000000E+00  0.00000000000E+00  0.25721927331E+02  0.25721927331E+02  0.00000000000E+00 0. -1.
         21   -1    0    0  502  503 -0.00000000000E+00 -0.00000000000E+00 -0.17546256547E+04  0.17546256547E+04  0.00000000000E+00 0. -1.
          6    1    1    2  501    0 -0.96908647634E+01  0.10428768109E+03 -0.59181684666E+03  0.62541667174E+03  0.17300000000E+03 0. -1.
         -6    1    1    2    0  503  0.96908647634E+01 -0.10428768109E+03 -0.11370868807E+04  0.11549309103E+04  0.17300000000E+03 0. -1.
<mgrwt>
<rscale>  2 0.20223460E+03</rscale>
<asrwt>0</asrwt>
<pdfrwt beam="1">  1       21 0.39572199E-02 0.20223460E+03</pdfrwt>
<pdfrwt beam="2">  1       21 0.26994239E+00 0.20223460E+03</pdfrwt>
<totfact> 0.20121148E+04</totfact>
</mgrwt>
</event>
<event>
 4    1  0.4151607E+000  0.1828912E+03  0.7546771E-02  0.1165034E+00
         21   -1    0    0  503  502  0.00000000000E+00  0.00000000000E+00  0.64743505270E+03  0.64743505270E+03  0.00000000000E+00 0. -1.
         21   -1    0    0  501  503 -0.00000000000E+00 -0.00000000000E+00 -0.92455142920E+02  0.92455142920E+02  0.00000000000E+00 0. -1.
          6    1    1    2  501    0 -0.38686606229E+02  0.44983710344E+02  0.31762417323E+02  0.18562876623E+03  0.17300000000E+03 0. -1.
         -6    1    1    2    0  502  0.38686606229E+02 -0.44983710344E+02  0.52321749246E+03  0.55426142939E+03  0.17300000000E+03 0. -1.
<mgrwt>
<rscale>  2 0.18289119E+03</rscale>
<asrwt>0</asrwt>
<pdfrwt beam="1">  1       21 0.99605390E-01 0.18289119E+03</pdfrwt>
<pdfrwt beam="2">  1       21 0.14223869E-01 0.18289119E+03</pdfrwt>
<totfact> 0.35991754E+04</totfact>
</mgrwt>
</event>
<event>
 4    1  0.4151607E+000  0.1913950E+03  0.7546771E-02  0.1157209E+00
         21   -1    0    0  501  502  0.00000000000E+00  0.00000000000E+00  0.10170483562E+03  0.10170483562E+03  0.00000000000E+00 0. -1.
         21   -1    0    0  502  503 -0.00000000000E+00 -0.00000000000E+00 -0.63345583953E+03  0.63345583953E+03  0.00000000000E+00 0. -1.
          6    1    1    2  501    0 -0.54446228027E+01 -0.81690991551E+02 -0.24443627103E+02  0.19294961240E+03  0.17300000000E+03 0. -1.
         -6    1    1    2    0  503  0.54446228027E+01  0.81690991551E+02 -0.50730737680E+03  0.54221106276E+03  0.17300000000E+03 0. -1.
<mgrwt>
<rscale>  2 0.19139504E+03</rscale>
<asrwt>0</asrwt>
<pdfrwt beam="1">  1       21 0.15646898E-01 0.19139504E+03</pdfrwt>
<pdfrwt beam="2">  1       21 0.97454745E-01 0.19139504E+03</pdfrwt>
<totfact> 0.31712831E+04</totfact>
</mgrwt>
</event>
<event>
 4    1  0.4151607E+000  0.2833519E+03  0.7546771E-02  0.1093872E+00
         21   -1    0    0  501  502  0.00000000000E+00  0.00000000000E+00  0.43904894965E+03  0.43904894965E+03  0.00000000000E+00 0.  1.
         21   -1    0    0  502  503 -0.00000000000E+00 -0.00000000000E+00 -0.30595612126E+03  0.30595612126E+03  0.00000000000E+00 0. -1.
          6    1    1    2  501    0  0.12077320602E+03 -0.18913781082E+03  0.30281534966E+03  0.41471124263E+03  0.17300000000E+03 0.  1.
         -6    1    1    2    0  503 -0.12077320602E+03  0.18913781082E+03 -0.16972252127E+03  0.33029382828E+03  0.17300000000E+03 0. -1.
<mgrwt>
<rscale>  2 0.28335186E+03</rscale>
<asrwt>0</asrwt>
<pdfrwt beam="1">  1       21 0.67545992E-01 0.28335186E+03</pdfrwt>
<pdfrwt beam="2">  1       21 0.47070173E-01 0.28335186E+03</pdfrwt>
<totfact> 0.81955524E+03</totfact>
</mgrwt>
</event>
<event>
 4    1  0.4151607E+000  0.1824471E+03  0.7546771E-02  0.1165456E+00
         21   -1    0    0  503  502  0.00000000000E+00  0.00000000000E+00  0.62299618938E+03  0.62299618938E+03  0.00000000000E+00 0.  1.
         21   -1    0    0  501  503 -0.00000000000E+00 -0.00000000000E+00 -0.77494956743E+02  0.77494956743E+02  0.00000000000E+00 0.  1.
          6    1    1    2  501    0 -0.36648809717E+02 -0.44886581051E+02  0.77575342114E+02  0.19825456897E+03  0.17300000000E+03 0.  1.
         -6    1    1    2    0  502  0.36648809717E+02  0.44886581051E+02  0.46792589052E+03  0.50223657716E+03  0.17300000000E+03 0.  1.
<mgrwt>
<rscale>  2 0.18244709E+03</rscale>
<asrwt>0</asrwt>
<pdfrwt beam="1">  1       21 0.95845564E-01 0.18244709E+03</pdfrwt>
<pdfrwt beam="2">  1       21 0.11922301E-01 0.18244709E+03</pdfrwt>
<totfact> 0.54131522E+04</totfact>
</mgrwt>
</event>
<event>
 4    1  0.4151607E+000  0.2435481E+03  0.7546771E-02  0.1117452E+00
         21   -1    0    0  501  502  0.00000000000E+00  0.00000000000E+00  0.16590847711E+04  0.16590847711E+04  0.00000000000E+00 0.  1.
         21   -1    0    0  502  503 -0.00000000000E+00 -0.00000000000E+00 -0.48337586055E+02  0.48337586055E+02  0.00000000000E+00 0. -1.
          6    1    1    2  501    0  0.16744277090E+03  0.36736728095E+02  0.12409902547E+04  0.12646629911E+04  0.17300000000E+03 0.  1.
         -6    1    1    2    0  503 -0.16744277090E+03 -0.36736728095E+02  0.36975693033E+03  0.44275936608E+03  0.17300000000E+03 0. -1.
<mgrwt>
<rscale>  2 0.24354808E+03</rscale>
<asrwt>0</asrwt>
<pdfrwt beam="1">  1       21 0.25524377E+00 0.24354808E+03</pdfrwt>
<pdfrwt beam="2">  1       21 0.74365530E-02 0.24354808E+03</pdfrwt>
<totfact> 0.80624048E+03</totfact>
</mgrwt>
</event>
<event>
 4    1  0.4151607E+000  0.2002085E+03  0.7546771E-02  0.1149563E+00
         21   -1    0    0  503  502  0.00000000000E+00  0.00000000000E+00  0.13330577971E+03  0.13330577971E+03  0.00000000000E+00 0.  1.
         21   -1    0    0  501  503 -0.00000000000E+00 -0.00000000000E+00 -0.34882546295E+03  0.34882546295E+03  0.00000000000E+00 0.  1.
          6    1    1    2  501    0 -0.79552584700E+02 -0.61853173368E+02 -0.19731146198E+03  0.28109649912E+03  0.17300000000E+03 0.  1.
         -6    1    1    2    0  502  0.79552584700E+02  0.61853173368E+02 -0.18208221262E+02  0.20103474354E+03  0.17300000000E+03 0.  1.
<mgrwt>
<rscale>  2 0.20020846E+03</rscale>
<asrwt>0</asrwt>
<pdfrwt beam="1">  1       21 0.20508582E-01 0.20020846E+03</pdfrwt>
<pdfrwt beam="2">  1       21 0.53665455E-01 0.20020846E+03</pdfrwt>
<totfact> 0.72111311E+04</totfact>
</mgrwt>
</event>
<event>
 4    1  0.4151607E+000  0.1917980E+03  0.7546771E-02  0.1156850E+00
         21   -1    0    0  501  502  0.00000000000E+00  0.00000000000E+00  0.42730223299E+03  0.42730223299E+03  0.00000000000E+00 0.  1.
         21   -1    0    0  502  503 -0.00000000000E+00 -0.00000000000E+00 -0.95309711179E+02  0.95309711179E+02  0.00000000000E+00 0.  1.
          6    1    1    2  501    0 -0.63587789351E+02  0.53047618632E+02  0.24726789655E+03  0.31293428937E+03  0.17300000000E+03 0.  1.
         -6    1    1    2    0  503  0.63587789351E+02 -0.53047618632E+02  0.84724625256E+02  0.20967765480E+03  0.17300000000E+03 0.  1.
<mgrwt>
<rscale>  2 0.19179796E+03</rscale>
<asrwt>0</asrwt>
<pdfrwt beam="1">  1       21 0.65738804E-01 0.19179796E+03</pdfrwt>
<pdfrwt beam="2">  1       21 0.14663033E-01 0.19179796E+03</pdfrwt>
<totfact> 0.86972751E+04</totfact>
</mgrwt>
</event>
<event>
 4    1  0.4151607E+000  0.1967947E+03  0.7546771E-02  0.1152472E+00
         21   -1    0    0  503  502  0.00000000000E+00  0.00000000000E+00  0.21011335587E+03  0.21011335587E+03  0.00000000000E+00 0.  1.
         21   -1    0    0  501  503 -0.00000000000E+00 -0.00000000000E+00 -0.18760310200E+03  0.18760310200E+03  0.00000000000E+00 0.  1.
          6    1    1    2  501    0 -0.25323082328E+02 -0.90321090711E+02 -0.15050311595E+02  0.19736937403E+03  0.17300000000E+03 0.  1.
         -6    1    1    2    0  502  0.25323082328E+02  0.90321090711E+02  0.37560565465E+02  0.20034708384E+03  0.17300000000E+03 0.  1.
<mgrwt>
<rscale>  2 0.19679471E+03</rscale>
<asrwt>0</asrwt>
<pdfrwt beam="1">  1       21 0.32325132E-01 0.19679471E+03</pdfrwt>
<pdfrwt beam="2">  1       21 0.28862016E-01 0.19679471E+03</pdfrwt>
<totfact> 0.10561077E+05</totfact>
</mgrwt>
</event>
<event>
 4    1  0.4151607E+000  0.1987032E+03  0.7546771E-02  0.1150838E+00
         21   -1    0    0  501  502  0.00000000000E+00  0.00000000000E+00  0.22888729771E+04  0.22888729771E+04  0.00000000000E+00 0.  1.
         21   -1    0    0  502  503 -0.00000000000E+00 -0.00000000000E+00 -0.24643994382E+02  0.24643994382E+02  0.00000000000E+00 0.  1.
          6    1    1    2  501    0  0.66923599720E+02  0.71240280458E+02  0.17657334345E+04  0.17768785855E+04  0.17300000000E+03 0.  1.
         -6    1    1    2    0  503 -0.66923599720E+02 -0.71240280458E+02  0.49849554824E+03  0.53663838604E+03  0.17300000000E+03 0.  1.
<mgrwt>
<rscale>  2 0.19870316E+03</rscale>
<asrwt>0</asrwt>
<pdfrwt beam="1">  1       21 0.35213414E+00 0.19870316E+03</pdfrwt>
<pdfrwt beam="2">  1       21 0.37913856E-02 0.19870316E+03</pdfrwt>
<totfact> 0.72273388E+03</totfact>
</mgrwt>
</event>
<event>
 4    1  0.4151607E+000  0.2165613E+03  0.7546771E-02  0.1136473E+00
         21   -1    0    0  503  502  0.00000000000E+00  0.00000000000E+00  0.28054663779E+03  0.28054663779E+03  0.00000000000E+00 0. -1.
         21   -1    0    0  501  503 -0.00000000000E+00 -0.00000000000E+00 -0.21945474911E+03  0.21945474911E+03  0.00000000000E+00 0. -1.
          6    1    1    2  501    0 -0.12746357439E+03  0.26885559000E+02 -0.91481911332E+02  0.23509091046E+03  0.17300000000E+03 0. -1.
         -6    1    1    2    0  502  0.12746357439E+03 -0.26885559000E+02  0.15257380000E+03  0.26491047644E+03  0.17300000000E+03 0. -1.
<mgrwt>
<rscale>  2 0.21656130E+03</rscale>
<asrwt>0</asrwt>
<pdfrwt beam="1">  1       21 0.43161021E-01 0.21656130E+03</pdfrwt>
<pdfrwt beam="2">  1       21 0.33762269E-01 0.21656130E+03</pdfrwt>
<totfact> 0.43105853E+04</totfact>
</mgrwt>
</event>
<event>
 4    1  0.4151607E+000  0.3354297E+03  0.7546771E-02  0.1068759E+00
         21   -1    0    0  503  502  0.00000000000E+00  0.00000000000E+00  0.39839088197E+03  0.39839088197E+03  0.00000000000E+00 0. -1.
         21   -1    0    0  501  503 -0.00000000000E+00 -0.00000000000E+00 -0.31027317256E+03  0.31027317256E+03  0.00000000000E+00 0.  1.
          6    1    1    2  501    0  0.22698201990E+03  0.17624775212E+03 -0.62106874371E+02  0.34113101784E+03  0.17300000000E+03 0.  1.
         -6    1    1    2    0  502 -0.22698201990E+03 -0.17624775212E+03  0.15022458378E+03  0.36753303669E+03  0.17300000000E+03 0. -1.
<mgrwt>
<rscale>  2 0.33542974E+03</rscale>
<asrwt>0</asrwt>
<pdfrwt beam="1">  1       21 0.61290905E-01 0.33542974E+03</pdfrwt>
<pdfrwt beam="2">  1       21 0.47734334E-01 0.33542974E+03</pdfrwt>
<totfact> 0.96275625E+03</totfact>
</mgrwt>
</event>
<event>
 4    1  0.4151607E+000  0.1915643E+03  0.7546771E-02  0.1157058E+00
         21   -1    0    0  503  502  0.00000000000E+00  0.00000000000E+00  0.30541067839E+03  0.30541067839E+03  0.00000000000E+00 0. -1.
         21   -1    0    0  501  503 -0.00000000000E+00 -0.00000000000E+00 -0.18758653469E+03  0.18758653469E+03  0.00000000000E+00 0. -1.
          6    1    1    2  501    0  0.14917228746E+02 -0.80903392012E+02 -0.88877024086E+02  0.21117766919E+03  0.17300000000E+03 0. -1.
         -6    1    1    2    0  502 -0.14917228746E+02  0.80903392012E+02  0.20670116779E+03  0.28181954389E+03  0.17300000000E+03 0. -1.
<mgrwt>
<rscale>  2 0.19156430E+03</rscale>
<asrwt>0</asrwt>
<pdfrwt beam="1">  1       21 0.46986258E-01 0.19156430E+03</pdfrwt>
<pdfrwt beam="2">  1       21 0.28859467E-01 0.19156430E+03</pdfrwt>
<totfact> 0.49841725E+04</totfact>
</mgrwt>
</event>
<event>
 4    1  0.4151607E+000  0.1941398E+03  0.7546771E-02  0.1154780E+00
         21   -1    0    0  503  502  0.00000000000E+00  0.00000000000E+00  0.60227737172E+03  0.60227737172E+03  0.00000000000E+00 0.  1.
         21   -1    0    0  501  503 -0.00000000000E+00 -0.00000000000E+00 -0.75815353794E+02  0.75815353794E+02  0.00000000000E+00 0.  1.
          6    1    1    2  501    0 -0.83122298394E+02 -0.29188405706E+02  0.12156854920E+03  0.22906154560E+03  0.17300000000E+03 0.  1.
         -6    1    1    2    0  502  0.83122298394E+02  0.29188405706E+02  0.40489346873E+03  0.44903117992E+03  0.17300000000E+03 0.  1.
<mgrwt>
<rscale>  2 0.19413985E+03</rscale>
<asrwt>0</asrwt>
<pdfrwt beam="1">  1       21 0.92658054E-01 0.19413985E+03</pdfrwt>
<pdfrwt beam="2">  1       21 0.11663901E-01 0.19413985E+03</pdfrwt>
<totfact> 0.60582769E+04</totfact>
</mgrwt>
</event>
<event>
 4    1  0.4151607E+000  0.1832769E+03  0.7546771E-02  0.1164669E+00
         21   -1    0    0  501  502  0.00000000000E+00  0.00000000000E+00  0.92091739962E+02  0.92091739962E+02  0.00000000000E+00 0. -1.
         21   -1    0    0  502  503 -0.00000000000E+00 -0.00000000000E+00 -0.36803641584E+03  0.36803641584E+03  0.00000000000E+00 0. -1.
          6    1    1    2  501    0  0.35470727438E+02  0.49023112118E+02 -0.11623121444E+03  0.21702565111E+03  0.17300000000E+03 0.  1.
         -6    1    1    2    0  503 -0.35470727438E+02 -0.49023112118E+02 -0.15971346144E+03  0.24310250470E+03  0.17300000000E+03 0.  1.
<mgrwt>
<rscale>  2 0.18327694E+03</rscale>
<asrwt>0</asrwt>
<pdfrwt beam="1">  1       21 0.14167960E-01 0.18327694E+03</pdfrwt>
<pdfrwt beam="2">  1       21 0.56620988E-01 0.18327694E+03</pdfrwt>
<totfact> 0.12803628E+05</totfact>
</mgrwt>
</event>
<event>
 4    1  0.4151607E+000  0.2474196E+03  0.7546771E-02  0.1114946E+00
         21   -1    0    0  501  502  0.00000000000E+00  0.00000000000E+00  0.16985782199E+03  0.16985782199E+03  0.00000000000E+00 0. -1.
         21   -1    0    0  502  503 -0.00000000000E+00 -0.00000000000E+00 -0.77358485929E+03  0.77358485929E+03  0.00000000000E+00 0.  1.
          6    1    1    2  501    0 -0.13503807392E+03 -0.11424620007E+03  0.42886755266E+02  0.25110903890E+03  0.17300000000E+03 0.  1.
         -6    1    1    2    0  503  0.13503807392E+03  0.11424620007E+03 -0.64661379256E+03  0.69233364238E+03  0.17300000000E+03 0.  1.
<mgrwt>
<rscale>  2 0.24741963E+03</rscale>
<asrwt>0</asrwt>
<pdfrwt beam="1">  1       21 0.26131973E-01 0.24741963E+03</pdfrwt>
<pdfrwt beam="2">  1       21 0.11901305E+00 0.24741963E+03</pdfrwt>
<totfact> 0.72227206E+03</totfact>
</mgrwt>
</event>
<event>
 4    1  0.4151607E+000  0.2117902E+03  0.7546771E-02  0.1140156E+00
         21   -1    0    0  503  502  0.00000000000E+00  0.00000000000E+00  0.65900081487E+03  0.65900081487E+03  0.00000000000E+00 0. -1.
         21   -1    0    0  501  503 -0.00000000000E+00 -0.00000000000E+00 -0.10122449017E+03  0.10122449017E+03  0.00000000000E+00 0. -1.
          6    1    1    2  501    0  0.78054324800E+02 -0.93987218819E+02  0.61331886362E+02  0.22049189374E+03  0.17300000000E+03 0. -1.
         -6    1    1    2    0  502 -0.78054324800E+02  0.93987218819E+02  0.49644443833E+03  0.53973341130E+03  0.17300000000E+03 0. -1.
<mgrwt>
<rscale>  2 0.21179017E+03</rscale>
<asrwt>0</asrwt>
<pdfrwt beam="1">  1       21 0.10138474E+00 0.21179017E+03</pdfrwt>
<pdfrwt beam="2">  1       21 0.15572999E-01 0.21179017E+03</pdfrwt>
<totfact> 0.28791614E+04</totfact>
</mgrwt>
</event>
<event>
 4    1  0.4151607E+000  0.1990368E+03  0.7546771E-02  0.1150554E+00
         21   -1    0    0  501  502  0.00000000000E+00  0.00000000000E+00  0.49581880422E+02  0.49581880422E+02  0.00000000000E+00 0. -1.
         21   -1    0    0  502  503 -0.00000000000E+00 -0.00000000000E+00 -0.85119996222E+03  0.85119996222E+03  0.00000000000E+00 0. -1.
          6    1    1    2  501    0  0.67518982161E+02  0.71608963182E+02 -0.28926888895E+03  0.35112981456E+03  0.17300000000E+03 0. -1.
         -6    1    1    2    0  503 -0.67518982161E+02 -0.71608963182E+02 -0.51234919285E+03  0.54965202808E+03  0.17300000000E+03 0. -1.
<mgrwt>
<rscale>  2 0.19903682E+03</rscale>
<asrwt>0</asrwt>
<pdfrwt beam="1">  1       21 0.76279817E-02 0.19903682E+03</pdfrwt>
<pdfrwt beam="2">  1       21 0.13095384E+00 0.19903682E+03</pdfrwt>
<totfact> 0.55128965E+04</totfact>
</mgrwt>
</event>
<event>
 4    1  0.4151607E+000  0.2050331E+03  0.7546771E-02  0.1145561E+00
         21   -1    0    0  501  502  0.00000000000E+00  0.00000000000E+00  0.54700739284E+02  0.54700739284E+02  0.00000000000E+00 0. -1.
         21   -1    0    0  502  503 -0.00000000000E+00 -0.00000000000E+00 -0.79934413837E+03  0.79934413837E+03  0.00000000000E+00 0.  1.
          6    1    1    2  501    0 -0.71629301601E+02 -0.83539399563E+02 -0.28846604245E+03  0.35390852741E+03  0.17300000000E+03 0. -1.
         -6    1    1    2    0  503  0.71629301601E+02  0.83539399563E+02 -0.45617735664E+03  0.50013635024E+03  0.17300000000E+03 0.  1.
<mgrwt>
<rscale>  2 0.20503314E+03</rscale>
<asrwt>0</asrwt>
<pdfrwt beam="1">  1       21 0.84154989E-02 0.20503314E+03</pdfrwt>
<pdfrwt beam="2">  1       21 0.12297601E+00 0.20503314E+03</pdfrwt>
<totfact> 0.54235872E+04</totfact>
</mgrwt>
</event>
<event>
 4    1  0.4151607E+000  0.2356926E+03  0.7546771E-02  0.1122696E+00
         21   -1    0    0  501  502  0.00000000000E+00  0.00000000000E+00  0.18197764434E+03  0.18197764434E+03  0.00000000000E+00 0. -1.
         21   -1    0    0  502  503 -0.00000000000E+00 -0.00000000000E+00 -0.58743735947E+03  0.58743735947E+03  0.00000000000E+00 0. -1.
          6    1    1    2  501    0  0.15974764678E+03 -0.10133483879E+02  0.63900031270E+02  0.24420117146E+03  0.17300000000E+03 0. -1.
         -6    1    1    2    0  503 -0.15974764678E+03  0.10133483879E+02 -0.46935974640E+03  0.52521383235E+03  0.17300000000E+03 0. -1.
<mgrwt>
<rscale>  2 0.23569259E+03</rscale>
<asrwt>0</asrwt>
<pdfrwt beam="1">  1       21 0.27996561E-01 0.23569259E+03</pdfrwt>
<pdfrwt beam="2">  1       21 0.90374978E-01 0.23569259E+03</pdfrwt>
<totfact> 0.12340849E+04</totfact>
</mgrwt>
</event>
<event>
 4    1  0.4151607E+000  0.1744573E+03  0.7546771E-02  0.1173278E+00
         21   -1    0    0  501  502  0.00000000000E+00  0.00000000000E+00  0.55618576920E+03  0.55618576920E+03  0.00000000000E+00 0.  1.
         21   -1    0    0  502  503 -0.00000000000E+00 -0.00000000000E+00 -0.54765589291E+02  0.54765589291E+02  0.00000000000E+00 0.  1.
          6    1    1    2  501    0  0.11673366111E+02 -0.19237677255E+02  0.25937111127E+03  0.31258395523E+03  0.17300000000E+03 0.  1.
         -6    1    1    2    0  503 -0.11673366111E+02  0.19237677255E+02  0.24204906864E+03  0.29836740326E+03  0.17300000000E+03 0.  1.
<mgrwt>
<rscale>  2 0.17445732E+03</rscale>
<asrwt>0</asrwt>
<pdfrwt beam="1">  1       21 0.85567038E-01 0.17445732E+03</pdfrwt>
<pdfrwt beam="2">  1       21 0.84254756E-02 0.17445732E+03</pdfrwt>
<totfact> 0.13025786E+05</totfact>
</mgrwt>
</event>
<event>
 4    1  0.4151607E+000  0.2247638E+03  0.7546771E-02  0.1130380E+00
         21   -1    0    0  501  502  0.00000000000E+00  0.00000000000E+00  0.21351412216E+03  0.21351412216E+03  0.00000000000E+00 0.  1.
         21   -1    0    0  502  503 -0.00000000000E+00 -0.00000000000E+00 -0.28635414568E+03  0.28635414568E+03  0.00000000000E+00 0.  1.
          6    1    1    2  501    0 -0.11125404125E+03 -0.90621796544E+02  0.67754452478E+02  0.23475399365E+03  0.17300000000E+03 0.  1.
         -6    1    1    2    0  503  0.11125404125E+03  0.90621796544E+02 -0.14059447600E+03  0.26511427420E+03  0.17300000000E+03 0.  1.
<mgrwt>
<rscale>  2 0.22476381E+03</rscale>
<asrwt>0</asrwt>
<pdfrwt beam="1">  1       21 0.32848327E-01 0.22476381E+03</pdfrwt>
<pdfrwt beam="2">  1       21 0.44054484E-01 0.22476381E+03</pdfrwt>
<totfact> 0.43473557E+04</totfact>
</mgrwt>
</event>
<event>
 4    1  0.4151607E+000  0.1786557E+03  0.7546771E-02  0.1169110E+00
         21   -1    0    0  501  502  0.00000000000E+00  0.00000000000E+00  0.18546650816E+03  0.18546650816E+03  0.00000000000E+00 0.  1.
         21   -1    0    0  502  503 -0.00000000000E+00 -0.00000000000E+00 -0.17631187586E+03  0.17631187586E+03  0.00000000000E+00 0.  1.
          6    1    1    2  501    0 -0.27083810114E+02  0.35430670103E+02  0.32552017443E+02  0.18159707870E+03  0.17300000000E+03 0.  1.
         -6    1    1    2    0  503  0.27083810114E+02 -0.35430670103E+02 -0.23397385146E+02  0.18018130532E+03  0.17300000000E+03 0.  1.
<mgrwt>
<rscale>  2 0.17865572E+03</rscale>
<asrwt>0</asrwt>
<pdfrwt beam="1">  1       21 0.28533309E-01 0.17865572E+03</pdfrwt>
<pdfrwt beam="2">  1       21 0.27124904E-01 0.17865572E+03</pdfrwt>
<totfact> 0.15284046E+05</totfact>
</mgrwt>
</event>
<event>
 4    1  0.4151607E+000  0.1773172E+03  0.7546771E-02  0.1170425E+00
         21   -1    0    0  503  502  0.00000000000E+00  0.00000000000E+00  0.60221837803E+03  0.60221837803E+03  0.00000000000E+00 0. -1.
         21   -1    0    0  501  503 -0.00000000000E+00 -0.00000000000E+00 -0.53797346425E+02  0.53797346425E+02  0.00000000000E+00 0. -1.
          6    1    1    2  501    0 -0.32211117529E+02 -0.21790355821E+02  0.21785441553E+03  0.28089485945E+03  0.17300000000E+03 0.  1.
         -6    1    1    2    0  502  0.32211117529E+02  0.21790355821E+02  0.33056661608E+03  0.37512086501E+03  0.17300000000E+03 0.  1.
<mgrwt>
<rscale>  2 0.17731716E+03</rscale>
<asrwt>0</asrwt>
<pdfrwt beam="1">  1       21 0.92648976E-01 0.17731716E+03</pdfrwt>
<pdfrwt beam="2">  1       21 0.82765153E-02 0.17731716E+03</pdfrwt>
<totfact> 0.11175558E+05</totfact>
</mgrwt>
</event>
<event>
 4    1  0.4151607E+000  0.1796605E+03  0.7546771E-02  0.1168132E+00
         21   -1    0    0  503  502  0.00000000000E+00  0.00000000000E+00  0.94491603104E+02  0.94491603104E+02  0.00000000000E+00 0.  1.
         21   -1    0    0  501  503 -0.00000000000E+00 -0.00000000000E+00 -0.74510398043E+03  0.74510398043E+03  0.00000000000E+00 0.  1.
          6    1    1    2  501    0 -0.40403621343E+02 -0.26766382148E+02 -0.63423479440E+03  0.65919015941E+03  0.17300000000E+03 0.  1.
         -6    1    1    2    0  502  0.40403621343E+02  0.26766382148E+02 -0.16377582923E+02  0.18040542412E+03  0.17300000000E+03 0.  1.
<mgrwt>
<rscale>  2 0.17966049E+03</rscale>
<asrwt>0</asrwt>
<pdfrwt beam="1">  1       21 0.14537170E-01 0.17966049E+03</pdfrwt>
<pdfrwt beam="2">  1       21 0.11463138E+00 0.17966049E+03</pdfrwt>
<totfact> 0.24731907E+04</totfact>
</mgrwt>
</event>
<event>
 4    1  0.4151607E+000  0.2426457E+03  0.7546771E-02  0.1118043E+00
         21   -1    0    0  501  502  0.00000000000E+00  0.00000000000E+00  0.93343995584E+03  0.93343995584E+03  0.00000000000E+00 0. -1.
         21   -1    0    0  502  503 -0.00000000000E+00 -0.00000000000E+00 -0.70027888259E+03  0.70027888259E+03  0.00000000000E+00 0.  1.
          6    1    1    2  501    0 -0.15136924551E+03  0.77687108881E+02  0.89578411118E+03  0.92806578927E+03  0.17300000000E+03 0. -1.
         -6    1    1    2    0  503  0.15136924551E+03 -0.77687108881E+02 -0.66262303793E+03  0.70565304915E+03  0.17300000000E+03 0.  1.
<mgrwt>
<rscale>  2 0.24264570E+03</rscale>
<asrwt>0</asrwt>
<pdfrwt beam="1">  1       21 0.14360615E+00 0.24264570E+03</pdfrwt>
<pdfrwt beam="2">  1       21 0.10773521E+00 0.24264570E+03</pdfrwt>
<totfact> 0.21737290E+02</totfact>
</mgrwt>
</event>
<event>
 4    1  0.4151607E+000  0.3905802E+03  0.7546771E-02  0.1047091E+00
         21   -1    0    0  503  502  0.00000000000E+00  0.00000000000E+00  0.12562026573E+04  0.12562026573E+04  0.00000000000E+00 0. -1.
         21   -1    0    0  501  503 -0.00000000000E+00 -0.00000000000E+00 -0.14639924645E+03  0.14639924645E+03  0.00000000000E+00 0. -1.
          6    1    1    2  501    0  0.28463371986E+03 -0.20397918706E+03  0.26533179897E+03  0.47217986698E+03  0.17300000000E+03 0. -1.
         -6    1    1    2    0  502 -0.28463371986E+03  0.20397918706E+03  0.84447161188E+03  0.93042203677E+03  0.17300000000E+03 0. -1.
<mgrwt>
<rscale>  2 0.39058016E+03</rscale>
<asrwt>0</asrwt>
<pdfrwt beam="1">  1       21 0.19326194E+00 0.39058016E+03</pdfrwt>
<pdfrwt beam="2">  1       21 0.22522962E-01 0.39058016E+03</pdfrwt>
<totfact> 0.23920763E+03</totfact>
</mgrwt>
</event>
<event>
 4    1  0.4151607E+000  0.2076766E+03  0.7546771E-02  0.1143419E+00
         21   -1    0    0  501  502  0.00000000000E+00  0.00000000000E+00  0.17158954848E+03  0.17158954848E+03  0.00000000000E+00 0. -1.
         21   -1    0    0  502  503 -0.00000000000E+00 -0.00000000000E+00 -0.85037540548E+03  0.85037540548E+03  0.00000000000E+00 0.  1.
          6    1    1    2  501    0  0.12152865679E+02  0.11424920087E+03  0.89473591497E+02  0.22613070473E+03  0.17300000000E+03 0. -1.
         -6    1    1    2    0  503 -0.12152865679E+02 -0.11424920087E+03 -0.76825944849E+03  0.79583424923E+03  0.17300000000E+03 0.  1.
<mgrwt>
<rscale>  2 0.20767660E+03</rscale>
<asrwt>0</asrwt>
<pdfrwt beam="1">  1       21 0.26398392E-01 0.20767660E+03</pdfrwt>
<pdfrwt beam="2">  1       21 0.13082699E+00 0.20767660E+03</pdfrwt>
<totfact> 0.57369304E+03</totfact>
</mgrwt>
</event>
<event>
 4    1  0.4151607E+000  0.1823461E+03  0.7546771E-02  0.1165552E+00
         21   -1    0    0  503  502  0.00000000000E+00  0.00000000000E+00  0.39289994399E+03  0.39289994399E+03  0.00000000000E+00 0.  1.
         21   -1    0    0  501  503 -0.00000000000E+00 -0.00000000000E+00 -0.88195983109E+02  0.88195983109E+02  0.00000000000E+00 0.  1.
          6    1    1    2  501    0 -0.25594954193E+02 -0.51633162975E+02  0.10396510336E+03  0.20990194834E+03  0.17300000000E+03 0.  1.
         -6    1    1    2    0  502  0.25594954193E+02  0.51633162975E+02  0.20073885752E+03  0.27119397877E+03  0.17300000000E+03 0.  1.
<mgrwt>
<rscale>  2 0.18234606E+03</rscale>
<asrwt>0</asrwt>
<pdfrwt beam="1">  1       21 0.60446144E-01 0.18234606E+03</pdfrwt>
<pdfrwt beam="2">  1       21 0.13568613E-01 0.18234606E+03</pdfrwt>
<totfact> 0.12044390E+05</totfact>
</mgrwt>
</event>
<event>
 4    1  0.4151607E+000  0.1837826E+03  0.7546771E-02  0.1164192E+00
         21   -1    0    0  501  502  0.00000000000E+00  0.00000000000E+00  0.15920941788E+03  0.15920941788E+03  0.00000000000E+00 0.  1.
         21   -1    0    0  502  503 -0.00000000000E+00 -0.00000000000E+00 -0.12911975932E+04  0.12911975932E+04  0.00000000000E+00 0.  1.
          6    1    1    2  501    0  0.62024378113E+02 -0.19163057825E+00  0.96961012967E+02  0.20779195903E+03  0.17300000000E+03 0.  1.
         -6    1    1    2    0  503 -0.62024378113E+02  0.19163057825E+00 -0.12289491883E+04  0.12426150520E+04  0.17300000000E+03 0.  1.
<mgrwt>
<rscale>  2 0.18378264E+03</rscale>
<asrwt>0</asrwt>
<pdfrwt beam="1">  1       21 0.24493757E-01 0.18378264E+03</pdfrwt>
<pdfrwt beam="2">  1       21 0.19864578E+00 0.18378264E+03</pdfrwt>
<totfact> 0.21776466E+03</totfact>
</mgrwt>
</event>
<event>
 4    1  0.4151607E+000  0.1826919E+03  0.7546771E-02  0.1165223E+00
         21   -1    0    0  503  502  0.00000000000E+00  0.00000000000E+00  0.87721393681E+02  0.87721393681E+02  0.00000000000E+00 0. -1.
         21   -1    0    0  501  503 -0.00000000000E+00 -0.00000000000E+00 -0.38773540093E+03  0.38773540093E+03  0.00000000000E+00 0. -1.
          6    1    1    2  501    0 -0.54704332326E+02  0.21325381574E+02 -0.18252396237E+03  0.25824665092E+03  0.17300000000E+03 0. -1.
         -6    1    1    2    0  502  0.54704332326E+02 -0.21325381574E+02 -0.11749004488E+03  0.21721014369E+03  0.17300000000E+03 0. -1.
<mgrwt>
<rscale>  2 0.18269192E+03</rscale>
<asrwt>0</asrwt>
<pdfrwt beam="1">  1       21 0.13495599E-01 0.18269192E+03</pdfrwt>
<pdfrwt beam="2">  1       21 0.59651599E-01 0.18269192E+03</pdfrwt>
<totfact> 0.12510681E+05</totfact>
</mgrwt>
</event>
<event>
 4    1  0.4151607E+000  0.3001696E+03  0.7546771E-02  0.1085156E+00
         21   -1    0    0  503  502  0.00000000000E+00  0.00000000000E+00  0.17610624129E+03  0.17610624129E+03  0.00000000000E+00 0.  1.
         21   -1    0    0  501  503 -0.00000000000E+00 -0.00000000000E+00 -0.64580729749E+03  0.64580729749E+03  0.00000000000E+00 0. -1.
          6    1    1    2  501    0  0.17584107131E+03  0.17103414283E+03 -0.42216846593E+03  0.51800383589E+03  0.17300000000E+03 0. -1.
         -6    1    1    2    0  502 -0.17584107131E+03 -0.17103414283E+03 -0.47532590273E+02  0.30390970289E+03  0.17300000000E+03 0.  1.
<mgrwt>
<rscale>  2 0.30016955E+03</rscale>
<asrwt>0</asrwt>
<pdfrwt beam="1">  1       21 0.27093267E-01 0.30016955E+03</pdfrwt>
<pdfrwt beam="2">  1       21 0.99354971E-01 0.30016955E+03</pdfrwt>
<totfact> 0.10175517E+04</totfact>
</mgrwt>
</event>
<event>
 4    1  0.4151607E+000  0.1842928E+03  0.7546771E-02  0.1163712E+00
         21   -1    0    0  503  502  0.00000000000E+00  0.00000000000E+00  0.74507588802E+03  0.74507588802E+03  0.00000000000E+00 0. -1.
         21   -1    0    0  501  503 -0.00000000000E+00 -0.00000000000E+00 -0.45943354866E+02  0.45943354866E+02  0.00000000000E+00 0. -1.
          6    1    1    2  501    0  0.34371474774E+02  0.53417491450E+02  0.31460603824E+03  0.36461045785E+03  0.17300000000E+03 0. -1.
         -6    1    1    2    0  502 -0.34371474774E+02 -0.53417491450E+02  0.38452649491E+03  0.42640878504E+03  0.17300000000E+03 0. -1.
<mgrwt>
<rscale>  2 0.18429277E+03</rscale>
<asrwt>0</asrwt>
<pdfrwt beam="1">  1       21 0.11462705E+00 0.18429277E+03</pdfrwt>
<pdfrwt beam="2">  1       21 0.70682090E-02 0.18429277E+03</pdfrwt>
<totfact> 0.88225147E+04</totfact>
</mgrwt>
</event>
<event>
 4    1  0.4151607E+000  0.1768115E+03  0.7546771E-02  0.1170925E+00
         21   -1    0    0  503  502  0.00000000000E+00  0.00000000000E+00  0.39514911099E+02  0.39514911099E+02  0.00000000000E+00 0. -1.
         21   -1    0    0  501  503 -0.00000000000E+00 -0.00000000000E+00 -0.94531393307E+03  0.94531393307E+03  0.00000000000E+00 0. -1.
          6    1    1    2  501    0 -0.36495874319E+02  0.11723892748E+01 -0.65175176138E+03  0.67530932305E+03  0.17300000000E+03 0. -1.
         -6    1    1    2    0  502  0.36495874319E+02 -0.11723892748E+01 -0.25404726059E+03  0.30951952112E+03  0.17300000000E+03 0. -1.
<mgrwt>
<rscale>  2 0.17681155E+03</rscale>
<asrwt>0</asrwt>
<pdfrwt beam="1">  1       21 0.60792176E-02 0.17681155E+03</pdfrwt>
<pdfrwt beam="2">  1       21 0.14543290E+00 0.17681155E+03</pdfrwt>
<totfact> 0.63019576E+04</totfact>
</mgrwt>
</event>
<event>
 4    1  0.4151607E+000  0.2106585E+03  0.7546771E-02  0.1141046E+00
         21   -1    0    0  501  502  0.00000000000E+00  0.00000000000E+00  0.92350252846E+02  0.92350252846E+02  0.00000000000E+00 0. -1.
         21   -1    0    0  502  503 -0.00000000000E+00 -0.00000000000E+00 -0.60526202968E+03  0.60526202968E+03  0.00000000000E+00 0.  1.
          6    1    1    2  501    0 -0.70929094838E+02  0.97041507563E+02 -0.98111440150E+02  0.23238512296E+03  0.17300000000E+03 0. -1.
         -6    1    1    2    0  503  0.70929094838E+02 -0.97041507563E+02 -0.41480033668E+03  0.46522715956E+03  0.17300000000E+03 0.  1.
<mgrwt>
<rscale>  2 0.21065847E+03</rscale>
<asrwt>0</asrwt>
<pdfrwt beam="1">  1       21 0.14207732E-01 0.21065847E+03</pdfrwt>
<pdfrwt beam="2">  1       21 0.93117231E-01 0.21065847E+03</pdfrwt>
<totfact> 0.41630101E+04</totfact>
</mgrwt>
</event>
<event>
 4    1  0.4151607E+000  0.2089680E+03  0.7546771E-02  0.1142386E+00
         21   -1    0    0  503  502  0.00000000000E+00  0.00000000000E+00  0.18650612221E+04  0.18650612221E+04  0.00000000000E+00 0. -1.
         21   -1    0    0  501  503 -0.00000000000E+00 -0.00000000000E+00 -0.28468282750E+02  0.28468282750E+02  0.00000000000E+00 0. -1.
          6    1    1    2  501    0  0.22465781372E+02  0.11503881758E+03  0.51935240980E+03  0.55981654713E+03  0.17300000000E+03 0. -1.
         -6    1    1    2    0  502 -0.22465781372E+02 -0.11503881758E+03  0.13172405296E+04  0.13337129577E+04  0.17300000000E+03 0. -1.
<mgrwt>
<rscale>  2 0.20896804E+03</rscale>
<asrwt>0</asrwt>
<pdfrwt beam="1">  1       21 0.28693240E+00 0.20896804E+03</pdfrwt>
<pdfrwt beam="2">  1       21 0.43797373E-02 0.20896804E+03</pdfrwt>
<totfact> 0.13440542E+04</totfact>
</mgrwt>
</event>
<event>
 4    1  0.4151607E+000  0.2039572E+03  0.7546771E-02  0.1146443E+00
         21   -1    0    0  501  502  0.00000000000E+00  0.00000000000E+00  0.30654948086E+03  0.30654948086E+03  0.00000000000E+00 0.  1.
         21   -1    0    0  502  503 -0.00000000000E+00 -0.00000000000E+00 -0.15568767384E+03  0.15568767384E+03  0.00000000000E+00 0.  1.
          6    1    1    2  501    0  0.34939505896E+02  0.10221922187E+03  0.15824359170E+03  0.25814641719E+03  0.17300000000E+03 0.  1.
         -6    1    1    2    0  503 -0.34939505896E+02 -0.10221922187E+03 -0.73817846737E+01  0.20409073751E+03  0.17300000000E+03 0.  1.
<mgrwt>
<rscale>  2 0.20395720E+03</rscale>
<asrwt>0</asrwt>
<pdfrwt beam="1">  1       21 0.47161459E-01 0.20395720E+03</pdfrwt>
<pdfrwt beam="2">  1       21 0.23951950E-01 0.20395720E+03</pdfrwt>
<totfact> 0.70344442E+04</totfact>
</mgrwt>
</event>
<event>
 4    1  0.4151607E+000  0.2723207E+03  0.7546771E-02  0.1099959E+00
         21   -1    0    0  503  502  0.00000000000E+00  0.00000000000E+00  0.17442528914E+03  0.17442528914E+03  0.00000000000E+00 0. -1.
         21   -1    0    0  501  503 -0.00000000000E+00 -0.00000000000E+00 -0.10086774262E+04  0.10086774262E+04  0.00000000000E+00 0.  1.
          6    1    1    2  501    0  0.11102104635E+03  0.17861658961E+03 -0.86705448902E+03  0.90881353739E+03  0.17300000000E+03 0.  1.
         -6    1    1    2    0  502 -0.11102104635E+03 -0.17861658961E+03  0.32802352008E+02  0.27428917790E+03  0.17300000000E+03 0. -1.
<mgrwt>
<rscale>  2 0.27232069E+03</rscale>
<asrwt>0</asrwt>
<pdfrwt beam="1">  1       21 0.26834660E-01 0.27232069E+03</pdfrwt>
<pdfrwt beam="2">  1       21 0.15518114E+00 0.27232069E+03</pdfrwt>
<totfact> 0.33990443E+03</totfact>
</mgrwt>
</event>
<event>
 4    1  0.4151607E+000  0.1783390E+03  0.7546771E-02  0.1169420E+00
         21   -1    0    0  503  502  0.00000000000E+00  0.00000000000E+00  0.25481554763E+03  0.25481554763E+03  0.00000000000E+00 0. -1.
         21   -1    0    0  501  503 -0.00000000000E+00 -0.00000000000E+00 -0.27205391685E+03  0.27205391685E+03  0.00000000000E+00 0. -1.
          6    1    1    2  501    0  0.37234816128E+02  0.22121793150E+02 -0.20242055041E+03  0.26977561879E+03  0.17300000000E+03 0. -1.
         -6    1    1    2    0  502 -0.37234816128E+02 -0.22121793150E+02  0.18518218119E+03  0.25709384570E+03  0.17300000000E+03 0. -1.
<mgrwt>
<rscale>  2 0.17833902E+03</rscale>
<asrwt>0</asrwt>
<pdfrwt beam="1">  1       21 0.39202392E-01 0.17833902E+03</pdfrwt>
<pdfrwt beam="2">  1       21 0.41854449E-01 0.17833902E+03</pdfrwt>
<totfact> 0.34729435E+04</totfact>
</mgrwt>
</event>
<event>
 4    1  0.4151607E+000  0.1770823E+03  0.7546771E-02  0.1170657E+00
         21   -1    0    0  503  502  0.00000000000E+00  0.00000000000E+00  0.21243562711E+04  0.21243562711E+04  0.00000000000E+00 0.  1.
         21   -1    0    0  501  503 -0.00000000000E+00 -0.00000000000E+00 -0.15249104594E+02  0.15249104594E+02  0.00000000000E+00 0.  1.
          6    1    1    2  501    0  0.82932816338E+00  0.37795023447E+02  0.86320413238E+03  0.88118075656E+03  0.17300000000E+03 0. -1.
         -6    1    1    2    0  502 -0.82932816338E+00 -0.37795023447E+02  0.12459030341E+04  0.12584246191E+04  0.17300000000E+03 0. -1.
<mgrwt>
<rscale>  2 0.17708233E+03</rscale>
<asrwt>0</asrwt>
<pdfrwt beam="1">  1       21 0.32682381E+00 0.17708233E+03</pdfrwt>
<pdfrwt beam="2">  1       21 0.23460178E-02 0.17708233E+03</pdfrwt>
<totfact> 0.23051990E+04</totfact>
</mgrwt>
</event>
<event>
 4    1  0.4151607E+000  0.2545594E+03  0.7546771E-02  0.1110457E+00
         21   -1    0    0  503  502  0.00000000000E+00  0.00000000000E+00  0.10504219955E+04  0.10504219955E+04  0.00000000000E+00 0. -1.
         21   -1    0    0  501  503 -0.00000000000E+00 -0.00000000000E+00 -0.85462287190E+02  0.85462287190E+02  0.00000000000E+00 0. -1.
          6    1    1    2  501    0  0.13835945870E+03  0.12541200019E+03  0.18294144042E+03  0.31347739987E+03  0.17300000000E+03 0. -1.
         -6    1    1    2    0  502 -0.13835945870E+03 -0.12541200019E+03  0.78201826784E+03  0.82240688277E+03  0.17300000000E+03 0. -1.
<mgrwt>
<rscale>  2 0.25455944E+03</rscale>
<asrwt>0</asrwt>
<pdfrwt beam="1">  1       21 0.16160337E+00 0.25455944E+03</pdfrwt>
<pdfrwt beam="2">  1       21 0.13148045E-01 0.25455944E+03</pdfrwt>
<totfact> 0.11702998E+04</totfact>
</mgrwt>
</event>
<event>
 4    1  0.4151607E+000  0.2478466E+03  0.7546771E-02  0.1114673E+00
         21   -1    0    0  501  502  0.00000000000E+00  0.00000000000E+00  0.11987787143E+03  0.11987787143E+03  0.00000000000E+00 0.  1.
         21   -1    0    0  502  503 -0.00000000000E+00 -0.00000000000E+00 -0.52692295256E+03  0.52692295256E+03  0.00000000000E+00 0.  1.
          6    1    1    2  501    0 -0.44134769253E+02 -0.17190419677E+03 -0.14987111656E+03  0.28963646577E+03  0.17300000000E+03 0.  1.
         -6    1    1    2    0  503  0.44134769253E+02  0.17190419677E+03 -0.25717396457E+03  0.35716435822E+03  0.17300000000E+03 0.  1.
<mgrwt>
<rscale>  2 0.24784659E+03</rscale>
<asrwt>0</asrwt>
<pdfrwt beam="1">  1       21 0.18442749E-01 0.24784659E+03</pdfrwt>
<pdfrwt beam="2">  1       21 0.81065070E-01 0.24784659E+03</pdfrwt>
<totfact> 0.34859713E+04</totfact>
</mgrwt>
</event>
<event>
 4    1  0.4151607E+000  0.2300025E+03  0.7546771E-02  0.1126638E+00
         21   -1    0    0  501  502  0.00000000000E+00  0.00000000000E+00  0.29621314556E+03  0.29621314556E+03  0.00000000000E+00 0.  1.
         21   -1    0    0  502  503 -0.00000000000E+00 -0.00000000000E+00 -0.17859173809E+03  0.17859173809E+03  0.00000000000E+00 0.  1.
          6    1    1    2  501    0  0.13372410993E+03  0.71344482394E+02  0.59036293681E+02  0.23745832627E+03  0.17300000000E+03 0.  1.
         -6    1    1    2    0  503 -0.13372410993E+03 -0.71344482394E+02  0.58585113781E+02  0.23734655738E+03  0.17300000000E+03 0.  1.
<mgrwt>
<rscale>  2 0.23000255E+03</rscale>
<asrwt>0</asrwt>
<pdfrwt beam="1">  1       21 0.45571253E-01 0.23000255E+03</pdfrwt>
<pdfrwt beam="2">  1       21 0.27475652E-01 0.23000255E+03</pdfrwt>
<totfact> 0.57379752E+04</totfact>
</mgrwt>
</event>
<event>
 4    1  0.4151607E+000  0.1949459E+03  0.7546771E-02  0.1154075E+00
         21   -1    0    0  503  502  0.00000000000E+00  0.00000000000E+00  0.44298426940E+02  0.44298426940E+02  0.00000000000E+00 0.  1.
         21   -1    0    0  501  503 -0.00000000000E+00 -0.00000000000E+00 -0.86058004480E+03  0.86058004480E+03  0.00000000000E+00 0.  1.
          6    1    1    2  501    0 -0.86202475253E+02  0.25377560945E+02 -0.43336091975E+03  0.47519003999E+03  0.17300000000E+03 0.  1.
         -6    1    1    2    0  502  0.86202475253E+02 -0.25377560945E+02 -0.38292069811E+03  0.42968843175E+03  0.17300000000E+03 0.  1.
<mgrwt>
<rscale>  2 0.19494586E+03</rscale>
<asrwt>0</asrwt>
<pdfrwt beam="1">  1       21 0.68151426E-02 0.19494586E+03</pdfrwt>
<pdfrwt beam="2">  1       21 0.13239693E+00 0.19494586E+03</pdfrwt>
<totfact> 0.65310036E+04</totfact>
</mgrwt>
</event>
<event>
 4    1  0.4151607E+000  0.1897501E+03  0.7546771E-02  0.1158687E+00
         21   -1    0    0  503  502  0.00000000000E+00  0.00000000000E+00  0.18244859347E+04  0.18244859347E+04  0.00000000000E+00 0. -1.
         21   -1    0    0  501  503 -0.00000000000E+00 -0.00000000000E+00 -0.25231731971E+02  0.25231731971E+02  0.00000000000E+00 0.  1.
          6    1    1    2  501    0  0.77941019794E+02 -0.11380740394E+01  0.46793041979E+03  0.50493957614E+03  0.17300000000E+03 0.  1.
         -6    1    1    2    0  502 -0.77941019794E+02  0.11380740394E+01  0.13313237830E+04  0.13447780906E+04  0.17300000000E+03 0. -1.
<mgrwt>
<rscale>  2 0.18975009E+03</rscale>
<asrwt>0</asrwt>
<pdfrwt beam="1">  1       21 0.28069004E+00 0.18975009E+03</pdfrwt>
<pdfrwt beam="2">  1       21 0.38818063E-02 0.18975009E+03</pdfrwt>
<totfact> 0.18220384E+04</totfact>
</mgrwt>
</event>
<event>
 4    1  0.4151607E+000  0.2118791E+03  0.7546771E-02  0.1140087E+00
         21   -1    0    0  501  502  0.00000000000E+00  0.00000000000E+00  0.38209638340E+03  0.38209638340E+03  0.00000000000E+00 0. -1.
         21   -1    0    0  502  503 -0.00000000000E+00 -0.00000000000E+00 -0.28848357013E+03  0.28848357013E+03  0.00000000000E+00 0.  1.
          6    1    1    2  501    0  0.50680962355E+02  0.11133360629E+03  0.30494275474E+03  0.37132575389E+03  0.17300000000E+03 0. -1.
         -6    1    1    2    0  503 -0.50680962355E+02 -0.11133360629E+03 -0.21132994147E+03  0.29925419963E+03  0.17300000000E+03 0.  1.
<mgrwt>
<rscale>  2 0.21187905E+03</rscale>
<asrwt>0</asrwt>
<pdfrwt beam="1">  1       21 0.58784059E-01 0.21187905E+03</pdfrwt>
<pdfrwt beam="2">  1       21 0.44382087E-01 0.21187905E+03</pdfrwt>
<totfact> 0.13036137E+04</totfact>
</mgrwt>
</event>
<event>
 4    1  0.4151607E+000  0.2257930E+03  0.7546771E-02  0.1129636E+00
         21   -1    0    0  501  502  0.00000000000E+00  0.00000000000E+00  0.13290972692E+04  0.13290972692E+04  0.00000000000E+00 0. -1.
         21   -1    0    0  502  503 -0.00000000000E+00 -0.00000000000E+00 -0.40908545385E+02  0.40908545385E+02  0.00000000000E+00 0.  1.
          6    1    1    2  501    0  0.12405978669E+03 -0.75250511004E+02  0.81511188472E+03  0.84580722076E+03  0.17300000000E+03 0.  1.
         -6    1    1    2    0  503 -0.12405978669E+03  0.75250511004E+02  0.47307683910E+03  0.52419859383E+03  0.17300000000E+03 0. -1.
<mgrwt>
<rscale>  2 0.22579298E+03</rscale>
<asrwt>0</asrwt>
<pdfrwt beam="1">  1       21 0.20447647E+00 0.22579298E+03</pdfrwt>
<pdfrwt beam="2">  1       21 0.62936234E-02 0.22579298E+03</pdfrwt>
<totfact> 0.22300328E+04</totfact>
</mgrwt>
</event>
<event>
 4    1  0.4151607E+000  0.2385635E+03  0.7546771E-02  0.1120753E+00
         21   -1    0    0  501  502  0.00000000000E+00  0.00000000000E+00  0.26351580199E+03  0.26351580199E+03  0.00000000000E+00 0. -1.
         21   -1    0    0  502  503 -0.00000000000E+00 -0.00000000000E+00 -0.24558288555E+03  0.24558288555E+03  0.00000000000E+00 0.  1.
          6    1    1    2  501    0  0.77029302998E+01  0.16408596722E+03  0.97352681494E+02  0.25766273376E+03  0.17300000000E+03 0. -1.
         -6    1    1    2    0  503 -0.77029302998E+01 -0.16408596722E+03 -0.79419765052E+02  0.25143595378E+03  0.17300000000E+03 0.  1.
<mgrwt>
<rscale>  2 0.23856349E+03</rscale>
<asrwt>0</asrwt>
<pdfrwt beam="1">  1       21 0.40540892E-01 0.23856349E+03</pdfrwt>
<pdfrwt beam="2">  1       21 0.37781983E-01 0.23856349E+03</pdfrwt>
<totfact> 0.38735512E+04</totfact>
</mgrwt>
</event>
<event>
 4    1  0.4151607E+000  0.2053213E+03  0.7546771E-02  0.1145326E+00
         21   -1    0    0  501  502  0.00000000000E+00  0.00000000000E+00  0.28272595764E+03  0.28272595764E+03  0.00000000000E+00 0.  1.
         21   -1    0    0  502  503 -0.00000000000E+00 -0.00000000000E+00 -0.17118216568E+03  0.17118216568E+03  0.00000000000E+00 0. -1.
          6    1    1    2  501    0 -0.68113684798E+02 -0.87111230821E+02  0.13726972334E+03  0.24698141132E+03  0.17300000000E+03 0.  1.
         -6    1    1    2    0  503  0.68113684798E+02  0.87111230821E+02 -0.25725931377E+02  0.20692671200E+03  0.17300000000E+03 0. -1.
<mgrwt>
<rscale>  2 0.20532131E+03</rscale>
<asrwt>0</asrwt>
<pdfrwt beam="1">  1       21 0.43496301E-01 0.20532131E+03</pdfrwt>
<pdfrwt beam="2">  1       21 0.26335718E-01 0.20532131E+03</pdfrwt>
<totfact> 0.69259688E+04</totfact>
</mgrwt>
</event>
<event>
 4    1  0.4151607E+000  0.2717958E+03  0.7546771E-02  0.1100256E+00
         21   -1    0    0  503  502  0.00000000000E+00  0.00000000000E+00  0.17546897707E+03  0.17546897707E+03  0.00000000000E+00 0.  1.
         21   -1    0    0  501  503 -0.00000000000E+00 -0.00000000000E+00 -0.43127003445E+03  0.43127003445E+03  0.00000000000E+00 0. -1.
          6    1    1    2  501    0 -0.19617020145E+03  0.73900151047E+02 -0.17470830860E+03  0.32310365729E+03  0.17300000000E+03 0.  1.
         -6    1    1    2    0  502  0.19617020145E+03 -0.73900151047E+02 -0.81092748782E+02  0.28363535423E+03  0.17300000000E+03 0. -1.
<mgrwt>
<rscale>  2 0.27179584E+03</rscale>
<asrwt>0</asrwt>
<pdfrwt beam="1">  1       21 0.26995227E-01 0.27179584E+03</pdfrwt>
<pdfrwt beam="2">  1       21 0.66349236E-01 0.27179584E+03</pdfrwt>
<totfact> 0.26197490E+04</totfact>
</mgrwt>
</event>
<event>
 4    1  0.4151607E+000  0.2527685E+03  0.7546771E-02  0.1111568E+00
         21   -1    0    0  501  502  0.00000000000E+00  0.00000000000E+00  0.18042746202E+04  0.18042746202E+04  0.00000000000E+00 0. -1.
         21   -1    0    0  502  503 -0.00000000000E+00 -0.00000000000E+00 -0.11867914554E+03  0.11867914554E+03  0.00000000000E+00 0.  1.
          6    1    1    2  501    0  0.35880487779E+02 -0.18076363876E+03  0.16481576841E+04  0.16674278557E+04  0.17300000000E+03 0. -1.
         -6    1    1    2    0  503 -0.35880487779E+02  0.18076363876E+03  0.37437790544E+02  0.25552590996E+03  0.17300000000E+03 0.  1.
<mgrwt>
<rscale>  2 0.25276848E+03</rscale>
<asrwt>0</asrwt>
<pdfrwt beam="1">  1       21 0.27758069E+00 0.25276848E+03</pdfrwt>
<pdfrwt beam="2">  1       21 0.18258331E-01 0.25276848E+03</pdfrwt>
<totfact> 0.11748215E+03</totfact>
</mgrwt>
</event>
<event>
 4    1  0.4151607E+000  0.1770427E+03  0.7546771E-02  0.1170696E+00
         21   -1    0    0  501  502  0.00000000000E+00  0.00000000000E+00  0.10312277031E+04  0.10312277031E+04  0.00000000000E+00 0. -1.
         21   -1    0    0  502  503 -0.00000000000E+00 -0.00000000000E+00 -0.30988222423E+02  0.30988222423E+02  0.00000000000E+00 0. -1.
          6    1    1    2  501    0  0.34297254148E+02  0.15453107420E+02  0.57360777589E+03  0.60030823810E+03  0.17300000000E+03 0.  1.
         -6    1    1    2    0  503 -0.34297254148E+02 -0.15453107420E+02  0.42663170480E+03  0.46190768743E+03  0.17300000000E+03 0.  1.
<mgrwt>
<rscale>  2 0.17704265E+03</rscale>
<asrwt>0</asrwt>
<pdfrwt beam="1">  1       21 0.15865039E+00 0.17704265E+03</pdfrwt>
<pdfrwt beam="2">  1       21 0.47674196E-02 0.17704265E+03</pdfrwt>
<totfact> 0.75706827E+04</totfact>
</mgrwt>
</event>
<event>
 4    1  0.4151607E+000  0.1926510E+03  0.7546771E-02  0.1156092E+00
         21   -1    0    0  503  502  0.00000000000E+00  0.00000000000E+00  0.95901392549E+02  0.95901392549E+02  0.00000000000E+00 0. -1.
         21   -1    0    0  501  503 -0.00000000000E+00 -0.00000000000E+00 -0.38735512626E+03  0.38735512626E+03  0.00000000000E+00 0. -1.
          6    1    1    2  501    0  0.66968959191E+02  0.51967009290E+02 -0.15298128070E+03  0.24600342232E+03  0.17300000000E+03 0. -1.
         -6    1    1    2    0  502 -0.66968959191E+02 -0.51967009290E+02 -0.13847245301E+03  0.23725309648E+03  0.17300000000E+03 0. -1.
<mgrwt>
<rscale>  2 0.19265101E+03</rscale>
<asrwt>0</asrwt>
<pdfrwt beam="1">  1       21 0.14754061E-01 0.19265101E+03</pdfrwt>
<pdfrwt beam="2">  1       21 0.59593096E-01 0.19265101E+03</pdfrwt>
<totfact> 0.10630034E+05</totfact>
</mgrwt>
</event>
<event>
 4    1  0.4151607E+000  0.2376067E+03  0.7546771E-02  0.1121397E+00
         21   -1    0    0  503  502  0.00000000000E+00  0.00000000000E+00  0.52031894683E+03  0.52031894683E+03  0.00000000000E+00 0.  1.
         21   -1    0    0  501  503 -0.00000000000E+00 -0.00000000000E+00 -0.11389256594E+03  0.11389256594E+03  0.00000000000E+00 0. -1.
          6    1    1    2  501    0 -0.28401969536E+02 -0.16037855053E+03  0.27218514997E+03  0.36130555933E+03  0.17300000000E+03 0.  1.
         -6    1    1    2    0  502  0.28401969536E+02  0.16037855053E+03  0.13424123092E+03  0.27290595344E+03  0.17300000000E+03 0. -1.
<mgrwt>
<rscale>  2 0.23760672E+03</rscale>
<asrwt>0</asrwt>
<pdfrwt beam="1">  1       21 0.80049067E-01 0.23760672E+03</pdfrwt>
<pdfrwt beam="2">  1       21 0.17521934E-01 0.23760672E+03</pdfrwt>
<totfact> 0.39637663E+04</totfact>
</mgrwt>
</event>
<event>
 4    1  0.4151607E+000  0.2176712E+03  0.7546771E-02  0.1135631E+00
         21   -1    0    0  503  502  0.00000000000E+00  0.00000000000E+00  0.21928437070E+03  0.21928437070E+03  0.00000000000E+00 0. -1.
         21   -1    0    0  501  503 -0.00000000000E+00 -0.00000000000E+00 -0.21609961177E+03  0.21609961177E+03  0.00000000000E+00 0.  1.
          6    1    1    2  501    0  0.11590270801E+03  0.63390049249E+02  0.41480904744E+01  0.21771068582E+03  0.17300000000E+03 0. -1.
         -6    1    1    2    0  502 -0.11590270801E+03 -0.63390049249E+02 -0.96333154008E+00  0.21767329665E+03  0.17300000000E+03 0. -1.
<mgrwt>
<rscale>  2 0.21767116E+03</rscale>
<asrwt>0</asrwt>
<pdfrwt beam="1">  1       21 0.33736057E-01 0.21767116E+03</pdfrwt>
<pdfrwt beam="2">  1       21 0.33246094E-01 0.21767116E+03</pdfrwt>
<totfact> 0.72948652E+04</totfact>
</mgrwt>
</event>
<event>
 4    1  0.4151607E+000  0.1812650E+03  0.7546771E-02  0.1166584E+00
         21   -1    0    0  503  502  0.00000000000E+00  0.00000000000E+00  0.90324436661E+03  0.90324436661E+03  0.00000000000E+00 0.  1.
         21   -1    0    0  501  503 -0.00000000000E+00 -0.00000000000E+00 -0.15409831361E+03  0.15409831361E+03  0.00000000000E+00 0.  1.
          6    1    1    2  501    0 -0.36915633852E+02  0.39563048091E+02 -0.87504695837E+02  0.20128107360E+03  0.17300000000E+03 0.  1.
         -6    1    1    2    0  502  0.36915633852E+02 -0.39563048091E+02  0.83665074883E+03  0.85606160662E+03  0.17300000000E+03 0.  1.
<mgrwt>
<rscale>  2 0.18126500E+03</rscale>
<asrwt>0</asrwt>
<pdfrwt beam="1">  1       21 0.13896067E+00 0.18126500E+03</pdfrwt>
<pdfrwt beam="2">  1       21 0.23707433E-01 0.18126500E+03</pdfrwt>
<totfact> 0.61698548E+03</totfact>
</mgrwt>
</event>
<event>
 4    1  0.4151607E+000  0.2675416E+03  0.7546771E-02  0.1102695E+00
         21   -1    0    0  501  502  0.00000000000E+00  0.00000000000E+00  0.40833266612E+03  0.40833266612E+03  0.00000000000E+00 0.  1.
         21   -1    0    0  502  503 -0.00000000000E+00 -0.00000000000E+00 -0.17646819750E+03  0.17646819750E+03  0.00000000000E+00 0.  1.
          6    1    1    2  501    0 -0.83395446572E+02  0.18626515714E+03  0.13977767346E+03  0.30185477845E+03  0.17300000000E+03 0.  1.
         -6    1    1    2    0  503  0.83395446572E+02 -0.18626515714E+03  0.92086795151E+02  0.28294608517E+03  0.17300000000E+03 0.  1.
<mgrwt>
<rscale>  2 0.26754160E+03</rscale>
<asrwt>0</asrwt>
<pdfrwt beam="1">  1       21 0.62820410E-01 0.26754160E+03</pdfrwt>
<pdfrwt beam="2">  1       21 0.27148954E-01 0.26754160E+03</pdfrwt>
<totfact> 0.29261338E+04</totfact>
</mgrwt>
</event>
<event>
 4    1  0.4151607E+000  0.1984758E+03  0.7546771E-02  0.1151031E+00
         21   -1    0    0  501  502  0.00000000000E+00  0.00000000000E+00  0.36147822847E+03  0.36147822847E+03  0.00000000000E+00 0. -1.
         21   -1    0    0  502  503 -0.00000000000E+00 -0.00000000000E+00 -0.11635086877E+03  0.11635086877E+03  0.00000000000E+00 0. -1.
          6    1    1    2  501    0 -0.30124479272E+02 -0.92499610240E+02  0.18271120536E+03  0.26977035921E+03  0.17300000000E+03 0. -1.
         -6    1    1    2    0  503  0.30124479272E+02  0.92499610240E+02  0.62416154345E+02  0.20805873803E+03  0.17300000000E+03 0. -1.
<mgrwt>
<rscale>  2 0.19847585E+03</rscale>
<asrwt>0</asrwt>
<pdfrwt beam="1">  1       21 0.55612035E-01 0.19847585E+03</pdfrwt>
<pdfrwt beam="2">  1       21 0.17900134E-01 0.19847585E+03</pdfrwt>
<totfact> 0.86216577E+04</totfact>
</mgrwt>
</event>
<event>
 4    1  0.4151607E+000  0.2239425E+03  0.7546771E-02  0.1130977E+00
         21   -1    0    0  503  502  0.00000000000E+00  0.00000000000E+00  0.10999939335E+04  0.10999939335E+04  0.00000000000E+00 0.  1.
         21   -1    0    0  501  503 -0.00000000000E+00 -0.00000000000E+00 -0.34486201298E+03  0.34486201298E+03  0.00000000000E+00 0. -1.
          6    1    1    2  501    0 -0.11237277435E+03  0.87141341928E+02 -0.29541676648E+03  0.37070381682E+03  0.17300000000E+03 0. -1.
         -6    1    1    2    0  502  0.11237277435E+03 -0.87141341928E+02  0.10505486870E+04  0.10741521296E+04  0.17300000000E+03 0.  1.
<mgrwt>
<rscale>  2 0.22394252E+03</rscale>
<asrwt>0</asrwt>
<pdfrwt beam="1">  1       21 0.16922983E+00 0.22394252E+03</pdfrwt>
<pdfrwt beam="2">  1       21 0.53055695E-01 0.22394252E+03</pdfrwt>
<totfact> 0.70339537E+02</totfact>
</mgrwt>
</event>
<event>
 4    1  0.4151607E+000  0.2023955E+03  0.7546771E-02  0.1147734E+00
         21   -1    0    0  501  502  0.00000000000E+00  0.00000000000E+00  0.46624823172E+03  0.46624823172E+03  0.00000000000E+00 0. -1.
         21   -1    0    0  502  503 -0.00000000000E+00 -0.00000000000E+00 -0.13066728323E+03  0.13066728323E+03  0.00000000000E+00 0. -1.
          6    1    1    2  501    0 -0.62568134545E+02  0.84381079267E+02  0.33862086951E+03  0.39449718791E+03  0.17300000000E+03 0. -1.
         -6    1    1    2    0  503  0.62568134545E+02 -0.84381079267E+02 -0.30399210266E+01  0.20241832703E+03  0.17300000000E+03 0. -1.
<mgrwt>
<rscale>  2 0.20239550E+03</rscale>
<asrwt>0</asrwt>
<pdfrwt beam="1">  1       21 0.71730496E-01 0.20239550E+03</pdfrwt>
<pdfrwt beam="2">  1       21 0.20102659E-01 0.20239550E+03</pdfrwt>
<totfact> 0.39934270E+04</totfact>
</mgrwt>
</event>
<event>
 4    1  0.4151607E+000  0.2412237E+03  0.7546771E-02  0.1118980E+00
         21   -1    0    0  503  502  0.00000000000E+00  0.00000000000E+00  0.76992620618E+02  0.76992620618E+02  0.00000000000E+00 0.  1.
         21   -1    0    0  501  503 -0.00000000000E+00 -0.00000000000E+00 -0.10076444539E+04  0.10076444539E+04  0.00000000000E+00 0.  1.
          6    1    1    2  501    0  0.11031030035E+03 -0.12685235063E+03 -0.73646427742E+03  0.77496355601E+03  0.17300000000E+03 0.  1.
         -6    1    1    2    0  502 -0.11031030035E+03  0.12685235063E+03 -0.19418755590E+03  0.30967351855E+03  0.17300000000E+03 0.  1.
<mgrwt>
<rscale>  2 0.24122372E+03</rscale>
<asrwt>0</asrwt>
<pdfrwt beam="1">  1       21 0.11845019E-01 0.24122372E+03</pdfrwt>
<pdfrwt beam="2">  1       21 0.15502222E+00 0.24122372E+03</pdfrwt>
<totfact> 0.15940754E+04</totfact>
</mgrwt>
</event>
<event>
 4    1  0.4151607E+000  0.2109331E+03  0.7546771E-02  0.1140829E+00
         21   -1    0    0  503  502  0.00000000000E+00  0.00000000000E+00  0.81562186543E+03  0.81562186543E+03  0.00000000000E+00 0.  1.
         21   -1    0    0  501  503 -0.00000000000E+00 -0.00000000000E+00 -0.12255940575E+03  0.12255940575E+03  0.00000000000E+00 0.  1.
          6    1    1    2  501    0 -0.26228823188E+02 -0.11779572269E+03 -0.29030756818E+01  0.21095310213E+03  0.17300000000E+03 0.  1.
         -6    1    1    2    0  502  0.26228823188E+02  0.11779572269E+03  0.69596553536E+03  0.72722816905E+03  0.17300000000E+03 0.  1.
<mgrwt>
<rscale>  2 0.21093313E+03</rscale>
<asrwt>0</asrwt>
<pdfrwt beam="1">  1       21 0.12548028E+00 0.21093313E+03</pdfrwt>
<pdfrwt beam="2">  1       21 0.18855294E-01 0.21093313E+03</pdfrwt>
<totfact> 0.12018008E+04</totfact>
</mgrwt>
</event>
<event>
 4    1  0.4151607E+000  0.2071087E+03  0.7546771E-02  0.1143876E+00
         21   -1    0    0  501  502  0.00000000000E+00  0.00000000000E+00  0.83532551006E+03  0.83532551006E+03  0.00000000000E+00 0. -1.
         21   -1    0    0  502  503 -0.00000000000E+00 -0.00000000000E+00 -0.53199646709E+02  0.53199646709E+02  0.00000000000E+00 0.  1.
          6    1    1    2  501    0 -0.94051107922E+02  0.64182414683E+02  0.47390020046E+03  0.51718023285E+03  0.17300000000E+03 0. -1.
         -6    1    1    2    0  503  0.94051107922E+02 -0.64182414683E+02  0.30822566289E+03  0.37134492392E+03  0.17300000000E+03 0.  1.
<mgrwt>
<rscale>  2 0.20710865E+03</rscale>
<asrwt>0</asrwt>
<pdfrwt beam="1">  1       21 0.12851161E+00 0.20710865E+03</pdfrwt>
<pdfrwt beam="2">  1       21 0.81845616E-02 0.20710865E+03</pdfrwt>
<totfact> 0.50922760E+04</totfact>
</mgrwt>
</event>
<event>
 4    1  0.4151607E+000  0.1804653E+03  0.7546771E-02  0.1167353E+00
         21   -1    0    0  503  502  0.00000000000E+00  0.00000000000E+00  0.87657724731E+02  0.87657724731E+02  0.00000000000E+00 0. -1.
         21   -1    0    0  501  503 -0.00000000000E+00 -0.00000000000E+00 -0.45528790522E+03  0.45528790522E+03  0.00000000000E+00 0. -1.
          6    1    1    2  501    0  0.27815095829E+02  0.43186144734E+02 -0.30025151260E+03  0.35031227994E+03  0.17300000000E+03 0. -1.
         -6    1    1    2    0  502 -0.27815095829E+02 -0.43186144734E+02 -0.67378667889E+02  0.19263335002E+03  0.17300000000E+03 0. -1.
<mgrwt>
<rscale>  2 0.18046529E+03</rscale>
<asrwt>0</asrwt>
<pdfrwt beam="1">  1       21 0.13485804E-01 0.18046529E+03</pdfrwt>
<pdfrwt beam="2">  1       21 0.70044294E-01 0.18046529E+03</pdfrwt>
<totfact> 0.88467136E+04</totfact>
</mgrwt>
</event>
<event>
 4    1  0.4151607E+000  0.1817941E+03  0.7546771E-02  0.1166078E+00
         21   -1    0    0  501  502  0.00000000000E+00  0.00000000000E+00  0.20072215937E+03  0.20072215937E+03  0.00000000000E+00 0.  1.
         21   -1    0    0  502  503 -0.00000000000E+00 -0.00000000000E+00 -0.29746028237E+03  0.29746028237E+03  0.00000000000E+00 0.  1.
          6    1    1    2  501    0  0.53142975545E+02  0.17202239244E+02  0.11807114119E+03  0.21677150935E+03  0.17300000000E+03 0.  1.
         -6    1    1    2    0  503 -0.53142975545E+02 -0.17202239244E+02 -0.21480926419E+03  0.28141093239E+03  0.17300000000E+03 0.  1.
<mgrwt>
<rscale>  2 0.18179409E+03</rscale>
<asrwt>0</asrwt>
<pdfrwt beam="1">  1       21 0.30880332E-01 0.18179409E+03</pdfrwt>
<pdfrwt beam="2">  1       21 0.45763120E-01 0.18179409E+03</pdfrwt>
<totfact> 0.46342591E+04</totfact>
</mgrwt>
</event>
<event>
 4    1  0.4151607E+000  0.1788504E+03  0.7546771E-02  0.1168920E+00
         21   -1    0    0  501  502  0.00000000000E+00  0.00000000000E+00  0.14081438072E+04  0.14081438072E+04  0.00000000000E+00 0.  1.
         21   -1    0    0  502  503 -0.00000000000E+00 -0.00000000000E+00 -0.25736877799E+02  0.25736877799E+02  0.00000000000E+00 0.  1.
          6    1    1    2  501    0 -0.44808967206E+02  0.71152178278E+01  0.93682578616E+03  0.95374526131E+03  0.17300000000E+03 0.  1.
         -6    1    1    2    0  503  0.44808967206E+02 -0.71152178278E+01  0.44558114329E+03  0.48013542373E+03  0.17300000000E+03 0.  1.
<mgrwt>
<rscale>  2 0.17885041E+03</rscale>
<asrwt>0</asrwt>
<pdfrwt beam="1">  1       21 0.21663745E+00 0.17885041E+03</pdfrwt>
<pdfrwt beam="2">  1       21 0.39595208E-02 0.17885041E+03</pdfrwt>
<totfact> 0.42475525E+04</totfact>
</mgrwt>
</event>
<event>
 4    1  0.4151607E+000  0.1981451E+03  0.7546771E-02  0.1151314E+00
         21   -1    0    0  501  502  0.00000000000E+00  0.00000000000E+00  0.15709399312E+04  0.15709399312E+04  0.00000000000E+00 0.  1.
         21   -1    0    0  502  503 -0.00000000000E+00 -0.00000000000E+00 -0.25233555759E+02  0.25233555759E+02  0.00000000000E+00 0. -1.
          6    1    1    2  501    0 -0.71876553912E+02  0.64546378261E+02  0.85088263182E+03  0.87364908693E+03  0.17300000000E+03 0.  1.
         -6    1    1    2    0  503  0.71876553912E+02 -0.64546378261E+02  0.69482374363E+03  0.72252440004E+03  0.17300000000E+03 0. -1.
<mgrwt>
<rscale>  2 0.19814508E+03</rscale>
<asrwt>0</asrwt>
<pdfrwt beam="1">  1       21 0.24168299E+00 0.19814508E+03</pdfrwt>
<pdfrwt beam="2">  1       21 0.38820867E-02 0.19814508E+03</pdfrwt>
<totfact> 0.30539725E+04</totfact>
</mgrwt>
</event>
<event>
 4    1  0.4151607E+000  0.2316840E+03  0.7546771E-02  0.1125460E+00
         21   -1    0    0  503  502  0.00000000000E+00  0.00000000000E+00  0.23347810361E+03  0.23347810361E+03  0.00000000000E+00 0. -1.
         21   -1    0    0  501  503 -0.00000000000E+00 -0.00000000000E+00 -0.37727265461E+03  0.37727265461E+03  0.00000000000E+00 0.  1.
          6    1    1    2  501    0 -0.15293356710E+03 -0.18968152446E+02 -0.26275486721E+03  0.35031070066E+03  0.17300000000E+03 0.  1.
         -6    1    1    2    0  502  0.15293356710E+03  0.18968152446E+02  0.11896031621E+03  0.26044005757E+03  0.17300000000E+03 0. -1.
<mgrwt>
<rscale>  2 0.23168398E+03</rscale>
<asrwt>0</asrwt>
<pdfrwt beam="1">  1       21 0.35919709E-01 0.23168398E+03</pdfrwt>
<pdfrwt beam="2">  1       21 0.58041946E-01 0.23168398E+03</pdfrwt>
<totfact> 0.20337077E+04</totfact>
</mgrwt>
</event>
<event>
 4    1  0.4151607E+000  0.1930769E+03  0.7546771E-02  0.1155715E+00
         21   -1    0    0  503  502  0.00000000000E+00  0.00000000000E+00  0.25870683117E+03  0.25870683117E+03  0.00000000000E+00 0. -1.
         21   -1    0    0  501  503 -0.00000000000E+00 -0.00000000000E+00 -0.56470090368E+03  0.56470090368E+03  0.00000000000E+00 0. -1.
          6    1    1    2  501    0 -0.62665963910E+02  0.58503519553E+02 -0.50831138072E+03  0.54374547777E+03  0.17300000000E+03 0. -1.
         -6    1    1    2    0  502  0.62665963910E+02 -0.58503519553E+02  0.20231730821E+03  0.27966225708E+03  0.17300000000E+03 0. -1.
<mgrwt>
<rscale>  2 0.19307689E+03</rscale>
<asrwt>0</asrwt>
<pdfrwt beam="1">  1       21 0.39801051E-01 0.19307689E+03</pdfrwt>
<pdfrwt beam="2">  1       21 0.86877062E-01 0.19307689E+03</pdfrwt>
<totfact> 0.69329644E+03</totfact>
</mgrwt>
</event>
<event>
 4    1  0.4151607E+000  0.1881185E+03  0.7546771E-02  0.1160169E+00
         21   -1    0    0  501  502  0.00000000000E+00  0.00000000000E+00  0.37436584851E+02  0.37436584851E+02  0.00000000000E+00 0. -1.
         21   -1    0    0  502  503 -0.00000000000E+00 -0.00000000000E+00 -0.10074022646E+04  0.10074022646E+04  0.00000000000E+00 0. -1.
          6    1    1    2  501    0 -0.52530850171E+02 -0.51962337305E+02 -0.35526701667E+03  0.40199903962E+03  0.17300000000E+03 0. -1.
         -6    1    1    2    0  503  0.52530850171E+02  0.51962337305E+02 -0.61469866304E+03  0.64283980980E+03  0.17300000000E+03 0. -1.
<mgrwt>
<rscale>  2 0.18811851E+03</rscale>
<asrwt>0</asrwt>
<pdfrwt beam="1">  1       21 0.57594743E-02 0.18811851E+03</pdfrwt>
<pdfrwt beam="2">  1       21 0.15498497E+00 0.18811851E+03</pdfrwt>
<totfact> 0.58116626E+04</totfact>
</mgrwt>
</event>
<event>
 4    1  0.4151607E+000  0.1776366E+03  0.7546771E-02  0.1170110E+00
         21   -1    0    0  503  502  0.00000000000E+00  0.00000000000E+00  0.97150053367E+03  0.97150053367E+03  0.00000000000E+00 0. -1.
         21   -1    0    0  501  503 -0.00000000000E+00 -0.00000000000E+00 -0.47754651948E+02  0.47754651948E+02  0.00000000000E+00 0. -1.
          6    1    1    2  501    0  0.21721709435E+02  0.33969331788E+02  0.17365252422E+03  0.24841486938E+03  0.17300000000E+03 0. -1.
         -6    1    1    2    0  502 -0.21721709435E+02 -0.33969331788E+02  0.75009335751E+03  0.77084031624E+03  0.17300000000E+03 0. -1.
<mgrwt>
<rscale>  2 0.17763656E+03</rscale>
<asrwt>0</asrwt>
<pdfrwt beam="1">  1       21 0.14946161E+00 0.17763656E+03</pdfrwt>
<pdfrwt beam="2">  1       21 0.73468702E-02 0.17763656E+03</pdfrwt>
<totfact> 0.42350926E+04</totfact>
</mgrwt>
</event>
<event>
 4    1  0.4151607E+000  0.1852593E+03  0.7546771E-02  0.1162808E+00
         21   -1    0    0  503  502  0.00000000000E+00  0.00000000000E+00  0.10991739872E+03  0.10991739872E+03  0.00000000000E+00 0. -1.
         21   -1    0    0  501  503 -0.00000000000E+00 -0.00000000000E+00 -0.34520901755E+03  0.34520901755E+03  0.00000000000E+00 0. -1.
          6    1    1    2  501    0 -0.49643586442E+02 -0.43903513704E+02 -0.47323961026E+02  0.19120816269E+03  0.17300000000E+03 0. -1.
         -6    1    1    2    0  502  0.49643586442E+02  0.43903513704E+02 -0.18796765781E+03  0.26391825358E+03  0.17300000000E+03 0. -1.
<mgrwt>
<rscale>  2 0.18525929E+03</rscale>
<asrwt>0</asrwt>
<pdfrwt beam="1">  1       21 0.16910369E-01 0.18525929E+03</pdfrwt>
<pdfrwt beam="2">  1       21 0.53109079E-01 0.18525929E+03</pdfrwt>
<totfact> 0.10607750E+05</totfact>
</mgrwt>
</event>
<event>
 4    1  0.4151607E+000  0.2364243E+03  0.7546771E-02  0.1122198E+00
         21   -1    0    0  501  502  0.00000000000E+00  0.00000000000E+00  0.22239413075E+03  0.22239413075E+03  0.00000000000E+00 0.  1.
         21   -1    0    0  502  503 -0.00000000000E+00 -0.00000000000E+00 -0.43306464775E+03  0.43306464775E+03  0.00000000000E+00 0. -1.
          6    1    1    2  501    0 -0.15882089501E+03  0.27265281882E+02  0.10696293979E+03  0.25949478372E+03  0.17300000000E+03 0.  1.
         -6    1    1    2    0  503  0.15882089501E+03 -0.27265281882E+02 -0.31763345679E+03  0.39596399478E+03  0.17300000000E+03 0. -1.
<mgrwt>
<rscale>  2 0.23642435E+03</rscale>
<asrwt>0</asrwt>
<pdfrwt beam="1">  1       21 0.34214482E-01 0.23642435E+03</pdfrwt>
<pdfrwt beam="2">  1       21 0.66625331E-01 0.23642435E+03</pdfrwt>
<totfact> 0.16569017E+04</totfact>
</mgrwt>
</event>
<event>
 4    1  0.4151607E+000  0.2200476E+03  0.7546771E-02  0.1133848E+00
         21   -1    0    0  503  502  0.00000000000E+00  0.00000000000E+00  0.64235219529E+02  0.64235219529E+02  0.00000000000E+00 0.  1.
         21   -1    0    0  501  503 -0.00000000000E+00 -0.00000000000E+00 -0.95560192425E+03  0.95560192425E+03  0.00000000000E+00 0.  1.
          6    1    1    2  501    0 -0.13505187575E+03  0.15903535069E+02 -0.68000795327E+03  0.71472494575E+03  0.17300000000E+03 0.  1.
         -6    1    1    2    0  502  0.13505187575E+03 -0.15903535069E+02 -0.21135875145E+03  0.30511219803E+03  0.17300000000E+03 0.  1.
<mgrwt>
<rscale>  2 0.22004757E+03</rscale>
<asrwt>0</asrwt>
<pdfrwt beam="1">  1       21 0.98823416E-02 0.22004757E+03</pdfrwt>
<pdfrwt beam="2">  1       21 0.14701568E+00 0.22004757E+03</pdfrwt>
<totfact> 0.25667624E+04</totfact>
</mgrwt>
</event>
<event>
 4    1  0.4151607E+000  0.1755086E+03  0.7546771E-02  0.1172222E+00
         21   -1    0    0  503  502  0.00000000000E+00  0.00000000000E+00  0.11147972666E+03  0.11147972666E+03  0.00000000000E+00 0. -1.
         21   -1    0    0  501  503 -0.00000000000E+00 -0.00000000000E+00 -0.32621700780E+03  0.32621700780E+03  0.00000000000E+00 0. -1.
          6    1    1    2  501    0 -0.16600906683E+02 -0.24468012715E+02 -0.19296566323E+03  0.26084290471E+03  0.17300000000E+03 0. -1.
         -6    1    1    2    0  502  0.16600906683E+02  0.24468012715E+02 -0.21771617908E+02  0.17685382974E+03  0.17300000000E+03 0. -1.
<mgrwt>
<rscale>  2 0.17550861E+03</rscale>
<asrwt>0</asrwt>
<pdfrwt beam="1">  1       21 0.17150728E-01 0.17550861E+03</pdfrwt>
<pdfrwt beam="2">  1       21 0.50187230E-01 0.17550861E+03</pdfrwt>
<totfact> 0.11677165E+05</totfact>
</mgrwt>
</event>
<event>
 4    1  0.4151607E+000  0.2231316E+03  0.7546771E-02  0.1131570E+00
         21   -1    0    0  503  502  0.00000000000E+00  0.00000000000E+00  0.61869755464E+03  0.61869755464E+03  0.00000000000E+00 0. -1.
         21   -1    0    0  501  503 -0.00000000000E+00 -0.00000000000E+00 -0.80875940868E+02  0.80875940868E+02  0.00000000000E+00 0.  1.
          6    1    1    2  501    0 -0.75846849523E+01 -0.14071668162E+03  0.24418475335E+03  0.33077772854E+03  0.17300000000E+03 0.  1.
         -6    1    1    2    0  502  0.75846849523E+01  0.14071668162E+03  0.29363686042E+03  0.36879576697E+03  0.17300000000E+03 0. -1.
<mgrwt>
<rscale>  2 0.22313160E+03</rscale>
<asrwt>0</asrwt>
<pdfrwt beam="1">  1       21 0.95184236E-01 0.22313160E+03</pdfrwt>
<pdfrwt beam="2">  1       21 0.12442453E-01 0.22313160E+03</pdfrwt>
<totfact> 0.49960562E+04</totfact>
</mgrwt>
</event>
<event>
 4    1  0.4151607E+000  0.1808608E+03  0.7546771E-02  0.1166973E+00
         21   -1    0    0  503  502  0.00000000000E+00  0.00000000000E+00  0.31323125843E+03  0.31323125843E+03  0.00000000000E+00 0. -1.
         21   -1    0    0  501  503 -0.00000000000E+00 -0.00000000000E+00 -0.28833385832E+03  0.28833385832E+03  0.00000000000E+00 0. -1.
          6    1    1    2  501    0  0.35188716346E+02 -0.39285922709E+02 -0.22776659999E+03  0.29084059819E+03  0.17300000000E+03 0. -1.
         -6    1    1    2    0  502 -0.35188716346E+02  0.39285922709E+02  0.25266400010E+03  0.31072451855E+03  0.17300000000E+03 0. -1.
<mgrwt>
<rscale>  2 0.18086080E+03</rscale>
<asrwt>0</asrwt>
<pdfrwt beam="1">  1       21 0.48189424E-01 0.18086080E+03</pdfrwt>
<pdfrwt beam="2">  1       21 0.44359055E-01 0.18086080E+03</pdfrwt>
<totfact> 0.20218976E+04</totfact>
</mgrwt>
</event>
<event>
 4    1  0.4151607E+000  0.1751291E+03  0.7546771E-02  0.1172602E+00
         21   -1    0    0  503  502  0.00000000000E+00  0.00000000000E+00  0.58422185523E+03  0.58422185523E+03  0.00000000000E+00 0. -1.
         21   -1    0    0  501  503 -0.00000000000E+00 -0.00000000000E+00 -0.13681630172E+03  0.13681630172E+03  0.00000000000E+00 0. -1.
          6    1    1    2  501    0  0.76508365404E+01  0.26128013190E+02 -0.59320038735E+02  0.18490288091E+03  0.17300000000E+03 0. -1.
         -6    1    1    2    0  502 -0.76508365404E+01 -0.26128013190E+02  0.50672559225E+03  0.53613527604E+03  0.17300000000E+03 0. -1.
<mgrwt>
<rscale>  2 0.17512912E+03</rscale>
<asrwt>0</asrwt>
<pdfrwt beam="1">  1       21 0.89880284E-01 0.17512912E+03</pdfrwt>
<pdfrwt beam="2">  1       21 0.21048662E-01 0.17512912E+03</pdfrwt>
<totfact> 0.22340735E+04</totfact>
</mgrwt>
</event>
<event>
 4    1  0.4151607E+000  0.2458052E+03  0.7546771E-02  0.1115985E+00
         21   -1    0    0  503  502  0.00000000000E+00  0.00000000000E+00  0.10813683996E+04  0.10813683996E+04  0.00000000000E+00 0. -1.
         21   -1    0    0  501  503 -0.00000000000E+00 -0.00000000000E+00 -0.55947098833E+02  0.55947098833E+02  0.00000000000E+00 0.  1.
          6    1    1    2  501    0 -0.16877781455E+03  0.44780056027E+02  0.53328823874E+03  0.58721082217E+03  0.17300000000E+03 0.  1.
         -6    1    1    2    0  502  0.16877781455E+03 -0.44780056027E+02  0.49213306203E+03  0.55010467626E+03  0.17300000000E+03 0.  1.
<mgrwt>
<rscale>  2 0.24580522E+03</rscale>
<asrwt>0</asrwt>
<pdfrwt beam="1">  1       21 0.16636435E+00 0.24580522E+03</pdfrwt>
<pdfrwt beam="2">  1       21 0.86072468E-02 0.24580522E+03</pdfrwt>
<totfact> 0.23133492E+04</totfact>
</mgrwt>
</event>
<event>
 4    1  0.4151607E+000  0.1819821E+03  0.7546771E-02  0.1165898E+00
         21   -1    0    0  501  502  0.00000000000E+00  0.00000000000E+00  0.36174775061E+03  0.36174775061E+03  0.00000000000E+00 0. -1.
         21   -1    0    0  502  503 -0.00000000000E+00 -0.00000000000E+00 -0.14760477813E+03  0.14760477813E+03  0.00000000000E+00 0. -1.
          6    1    1    2  501    0  0.15228638050E+02  0.54374322248E+02  0.26401748147E+03  0.32065980238E+03  0.17300000000E+03 0. -1.
         -6    1    1    2    0  503 -0.15228638050E+02 -0.54374322248E+02 -0.49874508994E+02  0.18869272637E+03  0.17300000000E+03 0. -1.
<mgrwt>
<rscale>  2 0.18198208E+03</rscale>
<asrwt>0</asrwt>
<pdfrwt beam="1">  1       21 0.55653500E-01 0.18198208E+03</pdfrwt>
<pdfrwt beam="2">  1       21 0.22708428E-01 0.18198208E+03</pdfrwt>
<totfact> 0.55582719E+04</totfact>
</mgrwt>
</event>
<event>
 4    1  0.4151607E+000  0.3067532E+03  0.7546771E-02  0.1081913E+00
         21   -1    0    0  503  502  0.00000000000E+00  0.00000000000E+00  0.16356206306E+03  0.16356206306E+03  0.00000000000E+00 0. -1.
         21   -1    0    0  501  503 -0.00000000000E+00 -0.00000000000E+00 -0.83339055063E+03  0.83339055063E+03  0.00000000000E+00 0. -1.
          6    1    1    2  501    0  0.18908876451E+03  0.16856441758E+03 -0.61231325184E+03  0.68485402978E+03  0.17300000000E+03 0. -1.
         -6    1    1    2    0  502 -0.18908876451E+03 -0.16856441758E+03 -0.57515235729E+02  0.31209858391E+03  0.17300000000E+03 0. -1.
<mgrwt>
<rscale>  2 0.30675320E+03</rscale>
<asrwt>0</asrwt>
<pdfrwt beam="1">  1       21 0.25163394E-01 0.30675320E+03</pdfrwt>
<pdfrwt beam="2">  1       21 0.12821393E+00 0.30675320E+03</pdfrwt>
<totfact> 0.62292720E+03</totfact>
</mgrwt>
</event>
<event>
 4    1  0.4151607E+000  0.2077857E+03  0.7546771E-02  0.1143332E+00
         21   -1    0    0  501  502  0.00000000000E+00  0.00000000000E+00  0.79719514050E+02  0.79719514050E+02  0.00000000000E+00 0.  1.
         21   -1    0    0  502  503 -0.00000000000E+00 -0.00000000000E+00 -0.54448998773E+03  0.54448998773E+03  0.00000000000E+00 0.  1.
          6    1    1    2  501    0  0.18861573373E+01  0.11507528949E+03 -0.20958759448E+03  0.29513020787E+03  0.17300000000E+03 0.  1.
         -6    1    1    2    0  503 -0.18861573373E+01 -0.11507528949E+03 -0.25518287921E+03  0.32907929391E+03  0.17300000000E+03 0.  1.
<mgrwt>
<rscale>  2 0.20778566E+03</rscale>
<asrwt>0</asrwt>
<pdfrwt beam="1">  1       21 0.12264541E-01 0.20778566E+03</pdfrwt>
<pdfrwt beam="2">  1       21 0.83767687E-01 0.20778566E+03</pdfrwt>
<totfact> 0.69431844E+04</totfact>
</mgrwt>
</event>
<event>
 4    1  0.4151607E+000  0.2138370E+03  0.7546771E-02  0.1138563E+00
         21   -1    0    0  501  502  0.00000000000E+00  0.00000000000E+00  0.48437154884E+02  0.48437154884E+02  0.00000000000E+00 0. -1.
         21   -1    0    0  502  503 -0.00000000000E+00 -0.00000000000E+00 -0.12285149176E+04  0.12285149176E+04  0.00000000000E+00 0.  1.
          6    1    1    2  501    0 -0.11826984809E+03 -0.42538384470E+02 -0.28279606199E+03  0.35454179415E+03  0.17300000000E+03 0. -1.
         -6    1    1    2    0  503  0.11826984809E+03  0.42538384470E+02 -0.89728170075E+03  0.92241027835E+03  0.17300000000E+03 0.  1.
<mgrwt>
<rscale>  2 0.21383702E+03</rscale>
<asrwt>0</asrwt>
<pdfrwt beam="1">  1       21 0.74518694E-02 0.21383702E+03</pdfrwt>
<pdfrwt beam="2">  1       21 0.18900231E+00 0.21383702E+03</pdfrwt>
<totfact> 0.21172610E+04</totfact>
</mgrwt>
</event>
<event>
 4    1  0.4151607E+000  0.2146686E+03  0.7546771E-02  0.1137921E+00
         21   -1    0    0  501  502  0.00000000000E+00  0.00000000000E+00  0.10235846185E+04  0.10235846185E+04  0.00000000000E+00 0. -1.
         21   -1    0    0  502  503 -0.00000000000E+00 -0.00000000000E+00 -0.45084775491E+02  0.45084775491E+02  0.00000000000E+00 0.  1.
          6    1    1    2  501    0 -0.11361901939E+03  0.56959100996E+02  0.50937469839E+03  0.55276143508E+03  0.17300000000E+03 0.  1.
         -6    1    1    2    0  503  0.11361901939E+03 -0.56959100996E+02  0.46912514464E+03  0.51590795893E+03  0.17300000000E+03 0.  1.
<mgrwt>
<rscale>  2 0.21466863E+03</rscale>
<asrwt>0</asrwt>
<pdfrwt beam="1">  1       21 0.15747454E+00 0.21466863E+03</pdfrwt>
<pdfrwt beam="2">  1       21 0.69361201E-02 0.21466863E+03</pdfrwt>
<totfact> 0.39847983E+04</totfact>
</mgrwt>
</event>
<event>
 4    1  0.4151607E+000  0.2489760E+03  0.7546771E-02  0.1113954E+00
         21   -1    0    0  503  502  0.00000000000E+00  0.00000000000E+00  0.33560139602E+03  0.33560139602E+03  0.00000000000E+00 0. -1.
         21   -1    0    0  501  503 -0.00000000000E+00 -0.00000000000E+00 -0.18901042661E+03  0.18901042661E+03  0.00000000000E+00 0.  1.
          6    1    1    2  501    0  0.36752920870E+02 -0.17524054949E+03  0.33730874094E+02  0.25125047113E+03  0.17300000000E+03 0.  1.
         -6    1    1    2    0  502 -0.36752920870E+02  0.17524054949E+03  0.11286009531E+03  0.27336135150E+03  0.17300000000E+03 0. -1.
<mgrwt>
<rscale>  2 0.24897596E+03</rscale>
<asrwt>0</asrwt>
<pdfrwt beam="1">  1       21 0.51630984E-01 0.24897596E+03</pdfrwt>
<pdfrwt beam="2">  1       21 0.29078527E-01 0.24897596E+03</pdfrwt>
<totfact> 0.39286600E+04</totfact>
</mgrwt>
</event>
<event>
 4    1  0.4151607E+000  0.1880020E+03  0.7546771E-02  0.1160276E+00
         21   -1    0    0  501  502  0.00000000000E+00  0.00000000000E+00  0.77307326820E+03  0.77307326820E+03  0.00000000000E+00 0. -1.
         21   -1    0    0  502  503 -0.00000000000E+00 -0.00000000000E+00 -0.47430905112E+02  0.47430905112E+02  0.00000000000E+00 0. -1.
          6    1    1    2  501    0 -0.69450719805E+02 -0.24337907175E+02  0.44074344440E+03  0.47916544115E+03  0.17300000000E+03 0. -1.
         -6    1    1    2    0  503  0.69450719805E+02  0.24337907175E+02  0.28489891868E+03  0.34133873216E+03  0.17300000000E+03 0. -1.
<mgrwt>
<rscale>  2 0.18800196E+03</rscale>
<asrwt>0</asrwt>
<pdfrwt beam="1">  1       21 0.11893434E+00 0.18800196E+03</pdfrwt>
<pdfrwt beam="2">  1       21 0.72970629E-02 0.18800196E+03</pdfrwt>
<totfact> 0.76169435E+04</totfact>
</mgrwt>
</event>
<event>
 4    1  0.4151607E+000  0.2798758E+03  0.7546771E-02  0.1095757E+00
         21   -1    0    0  501  502  0.00000000000E+00  0.00000000000E+00  0.12857051648E+03  0.12857051648E+03  0.00000000000E+00 0.  1.
         21   -1    0    0  502  503 -0.00000000000E+00 -0.00000000000E+00 -0.74716754381E+03  0.74716754381E+03  0.00000000000E+00 0. -1.
          6    1    1    2  501    0  0.18335692590E+03 -0.12157995631E+03 -0.12116813213E+03  0.30497895714E+03  0.17300000000E+03 0.  1.
         -6    1    1    2    0  503 -0.18335692590E+03  0.12157995631E+03 -0.49742889520E+03  0.57075910315E+03  0.17300000000E+03 0. -1.
<mgrwt>
<rscale>  2 0.27987577E+03</rscale>
<asrwt>0</asrwt>
<pdfrwt beam="1">  1       21 0.19780080E-01 0.27987577E+03</pdfrwt>
<pdfrwt beam="2">  1       21 0.11494885E+00 0.27987577E+03</pdfrwt>
<totfact> 0.13144688E+04</totfact>
</mgrwt>
</event>
<event>
 4    1  0.4151607E+000  0.2332532E+03  0.7546771E-02  0.1124371E+00
         21   -1    0    0  501  502  0.00000000000E+00  0.00000000000E+00  0.14724852723E+03  0.14724852723E+03  0.00000000000E+00 0.  1.
         21   -1    0    0  502  503 -0.00000000000E+00 -0.00000000000E+00 -0.62283339357E+03  0.62283339357E+03  0.00000000000E+00 0.  1.
          6    1    1    2  501    0  0.83548846482E+02 -0.13227865624E+03  0.77771923208E+01  0.23338281292E+03  0.17300000000E+03 0.  1.
         -6    1    1    2    0  503 -0.83548846482E+02  0.13227865624E+03 -0.48336205867E+03  0.53669910788E+03  0.17300000000E+03 0.  1.
<mgrwt>
<rscale>  2 0.23325319E+03</rscale>
<asrwt>0</asrwt>
<pdfrwt beam="1">  1       21 0.22653619E-01 0.23325319E+03</pdfrwt>
<pdfrwt beam="2">  1       21 0.95820525E-01 0.23325319E+03</pdfrwt>
<totfact> 0.16178814E+04</totfact>
</mgrwt>
</event>
<event>
 4    1  0.4151607E+000  0.2219765E+03  0.7546771E-02  0.1132418E+00
         21   -1    0    0  501  502  0.00000000000E+00  0.00000000000E+00  0.15397114925E+03  0.15397114925E+03  0.00000000000E+00 0. -1.
         21   -1    0    0  502  503 -0.00000000000E+00 -0.00000000000E+00 -0.37865848353E+03  0.37865848353E+03  0.00000000000E+00 0.  1.
          6    1    1    2  501    0  0.85414470853E+02  0.10976753882E+03 -0.75415320444E+01  0.22210452295E+03  0.17300000000E+03 0.  1.
         -6    1    1    2    0  503 -0.85414470853E+02 -0.10976753882E+03 -0.21714580223E+03  0.31052510983E+03  0.17300000000E+03 0.  1.
<mgrwt>
<rscale>  2 0.22197645E+03</rscale>
<asrwt>0</asrwt>
<pdfrwt beam="1">  1       21 0.23687870E-01 0.22197645E+03</pdfrwt>
<pdfrwt beam="2">  1       21 0.58255150E-01 0.22197645E+03</pdfrwt>
<totfact> 0.45674826E+04</totfact>
</mgrwt>
</event>
<event>
 4    1  0.4151607E+000  0.1963228E+03  0.7546771E-02  0.1152879E+00
         21   -1    0    0  501  502  0.00000000000E+00  0.00000000000E+00  0.14467795175E+03  0.14467795175E+03  0.00000000000E+00 0.  1.
         21   -1    0    0  502  503 -0.00000000000E+00 -0.00000000000E+00 -0.27710940559E+03  0.27710940559E+03  0.00000000000E+00 0. -1.
          6    1    1    2  501    0 -0.59171628936E+02 -0.71500661687E+02 -0.24762174917E+02  0.19787822417E+03  0.17300000000E+03 0.  1.
         -6    1    1    2    0  503  0.59171628936E+02  0.71500661687E+02 -0.10766927893E+03  0.22390913317E+03  0.17300000000E+03 0. -1.
<mgrwt>
<rscale>  2 0.19632276E+03</rscale>
<asrwt>0</asrwt>
<pdfrwt beam="1">  1       21 0.22258147E-01 0.19632276E+03</pdfrwt>
<pdfrwt beam="2">  1       21 0.42632216E-01 0.19632276E+03</pdfrwt>
<totfact> 0.99798590E+04</totfact>
</mgrwt>
</event>
<event>
 4    1  0.4151607E+000  0.1868233E+03  0.7546771E-02  0.1161358E+00
         21   -1    0    0  501  502  0.00000000000E+00  0.00000000000E+00  0.14356955804E+04  0.14356955804E+04  0.00000000000E+00 0. -1.
         21   -1    0    0  502  503 -0.00000000000E+00 -0.00000000000E+00 -0.25034008963E+02  0.25034008963E+02  0.00000000000E+00 0. -1.
          6    1    1    2  501    0 -0.59917784178E+02  0.37199494934E+02  0.82946719359E+03  0.85024629875E+03  0.17300000000E+03 0. -1.
         -6    1    1    2    0  503  0.59917784178E+02 -0.37199494934E+02  0.58119437784E+03  0.61048329061E+03  0.17300000000E+03 0. -1.
<mgrwt>
<rscale>  2 0.18682329E+03</rscale>
<asrwt>0</asrwt>
<pdfrwt beam="1">  1       21 0.22087618E+00 0.18682329E+03</pdfrwt>
<pdfrwt beam="2">  1       21 0.38513871E-02 0.18682329E+03</pdfrwt>
<totfact> 0.41658949E+04</totfact>
</mgrwt>
</event>
<event>
 4    1  0.4151607E+000  0.1864739E+03  0.7546771E-02  0.1161681E+00
         21   -1    0    0  501  502  0.00000000000E+00  0.00000000000E+00  0.17656576635E+03  0.17656576635E+03  0.00000000000E+00 0. -1.
         21   -1    0    0  502  503 -0.00000000000E+00 -0.00000000000E+00 -0.19852230948E+03  0.19852230948E+03  0.00000000000E+00 0. -1.
          6    1    1    2  501    0  0.54851311493E+02  0.42835292263E+02 -0.27731684283E+02  0.18852473299E+03  0.17300000000E+03 0. -1.
         -6    1    1    2    0  503 -0.54851311493E+02 -0.42835292263E+02  0.57751411511E+01  0.18656334284E+03  0.17300000000E+03 0. -1.
<mgrwt>
<rscale>  2 0.18647394E+03</rscale>
<asrwt>0</asrwt>
<pdfrwt beam="1">  1       21 0.27163964E-01 0.18647394E+03</pdfrwt>
<pdfrwt beam="2">  1       21 0.30541894E-01 0.18647394E+03</pdfrwt>
<totfact> 0.13320621E+05</totfact>
</mgrwt>
</event>
<event>
 4    1  0.4151607E+000  0.1903111E+03  0.7546771E-02  0.1158181E+00
         21   -1    0    0  503  502  0.00000000000E+00  0.00000000000E+00  0.69910152070E+03  0.69910152070E+03  0.00000000000E+00 0.  1.
         21   -1    0    0  501  503 -0.00000000000E+00 -0.00000000000E+00 -0.12847459248E+03  0.12847459248E+03  0.00000000000E+00 0.  1.
          6    1    1    2  501    0 -0.62616278666E+02  0.48667331308E+02 -0.34337060813E+02  0.19338392187E+03  0.17300000000E+03 0.  1.
         -6    1    1    2    0  502  0.62616278666E+02 -0.48667331308E+02  0.60496398904E+03  0.63419219131E+03  0.17300000000E+03 0.  1.
<mgrwt>
<rscale>  2 0.19031108E+03</rscale>
<asrwt>0</asrwt>
<pdfrwt beam="1">  1       21 0.10755408E+00 0.19031108E+03</pdfrwt>
<pdfrwt beam="2">  1       21 0.19765322E-01 0.19031108E+03</pdfrwt>
<totfact> 0.16296869E+04</totfact>
</mgrwt>
</event>
<event>
 4    1  0.4151607E+000  0.1754650E+03  0.7546771E-02  0.1172266E+00
         21   -1    0    0  503  502  0.00000000000E+00  0.00000000000E+00  0.10136329263E+03  0.10136329263E+03  0.00000000000E+00 0. -1.
         21   -1    0    0  501  503 -0.00000000000E+00 -0.00000000000E+00 -0.30535253600E+03  0.30535253600E+03  0.00000000000E+00 0. -1.
          6    1    1    2  501    0  0.29042378490E+02 -0.39394007190E+01 -0.11677747576E+03  0.21077228820E+03  0.17300000000E+03 0.  1.
         -6    1    1    2    0  502 -0.29042378490E+02  0.39394007190E+01 -0.87211767607E+02  0.19594354043E+03  0.17300000000E+03 0.  1.
<mgrwt>
<rscale>  2 0.17546504E+03</rscale>
<asrwt>0</asrwt>
<pdfrwt beam="1">  1       21 0.15594353E-01 0.17546504E+03</pdfrwt>
<pdfrwt beam="2">  1       21 0.46977312E-01 0.17546504E+03</pdfrwt>
<totfact> 0.15936365E+05</totfact>
</mgrwt>
</event>
<event>
 4    1  0.4151607E+000  0.1900970E+03  0.7546771E-02  0.1158374E+00
         21   -1    0    0  503  502  0.00000000000E+00  0.00000000000E+00  0.46642500349E+03  0.46642500349E+03  0.00000000000E+00 0.  1.
         21   -1    0    0  501  503 -0.00000000000E+00 -0.00000000000E+00 -0.77524693757E+02  0.77524693757E+02  0.00000000000E+00 0. -1.
          6    1    1    2  501    0  0.41007052925E+02 -0.67277669087E+02  0.20124843524E+03  0.27683532259E+03  0.17300000000E+03 0.  1.
         -6    1    1    2    0  502 -0.41007052925E+02  0.67277669087E+02  0.18765187450E+03  0.26711437466E+03  0.17300000000E+03 0. -1.
<mgrwt>
<rscale>  2 0.19009698E+03</rscale>
<asrwt>0</asrwt>
<pdfrwt beam="1">  1       21 0.71757691E-01 0.19009698E+03</pdfrwt>
<pdfrwt beam="2">  1       21 0.11926876E-01 0.19009698E+03</pdfrwt>
<totfact> 0.10417006E+05</totfact>
</mgrwt>
</event>
<event>
 4    1  0.4151607E+000  0.1974860E+03  0.7546771E-02  0.1151878E+00
         21   -1    0    0  501  502  0.00000000000E+00  0.00000000000E+00  0.24950675203E+03  0.24950675203E+03  0.00000000000E+00 0. -1.
         21   -1    0    0  502  503 -0.00000000000E+00 -0.00000000000E+00 -0.19754305830E+03  0.19754305830E+03  0.00000000000E+00 0. -1.
          6    1    1    2  501    0  0.76106851519E+02  0.57266751254E+02  0.12810183908E+03  0.23539501869E+03  0.17300000000E+03 0. -1.
         -6    1    1    2    0  503 -0.76106851519E+02 -0.57266751254E+02 -0.76138145343E+02  0.21165479164E+03  0.17300000000E+03 0. -1.
<mgrwt>
<rscale>  2 0.19748603E+03</rscale>
<asrwt>0</asrwt>
<pdfrwt beam="1">  1       21 0.38385655E-01 0.19748603E+03</pdfrwt>
<pdfrwt beam="2">  1       21 0.30391239E-01 0.19748603E+03</pdfrwt>
<totfact> 0.67853910E+04</totfact>
</mgrwt>
</event>
<event>
 4    1  0.4151607E+000  0.2230156E+03  0.7546771E-02  0.1131655E+00
         21   -1    0    0  501  502  0.00000000000E+00  0.00000000000E+00  0.21098785306E+03  0.21098785306E+03  0.00000000000E+00 0.  1.
         21   -1    0    0  502  503 -0.00000000000E+00 -0.00000000000E+00 -0.39668327850E+03  0.39668327850E+03  0.00000000000E+00 0.  1.
          6    1    1    2  501    0  0.13575195478E+03 -0.37126426966E+02  0.10069100813E+03  0.24469295847E+03  0.17300000000E+03 0.  1.
         -6    1    1    2    0  503 -0.13575195478E+03  0.37126426966E+02 -0.28638643357E+03  0.36297817309E+03  0.17300000000E+03 0.  1.
<mgrwt>
<rscale>  2 0.22301562E+03</rscale>
<asrwt>0</asrwt>
<pdfrwt beam="1">  1       21 0.32459670E-01 0.22301562E+03</pdfrwt>
<pdfrwt beam="2">  1       21 0.61028196E-01 0.22301562E+03</pdfrwt>
<totfact> 0.22426197E+04</totfact>
</mgrwt>
</event>
<event>
 4    1  0.4151607E+000  0.2595040E+03  0.7546771E-02  0.1107442E+00
         21   -1    0    0  501  502  0.00000000000E+00  0.00000000000E+00  0.41229607587E+03  0.41229607587E+03  0.00000000000E+00 0. -1.
         21   -1    0    0  502  503 -0.00000000000E+00 -0.00000000000E+00 -0.19723525450E+03  0.19723525450E+03  0.00000000000E+00 0.  1.
          6    1    1    2  501    0  0.18853284643E+03  0.43228291702E+02  0.23388068222E+03  0.34934580705E+03  0.17300000000E+03 0. -1.
         -6    1    1    2    0  503 -0.18853284643E+03 -0.43228291702E+02 -0.18819860842E+02  0.26018552332E+03  0.17300000000E+03 0.  1.
<mgrwt>
<rscale>  2 0.25950399E+03</rscale>
<asrwt>0</asrwt>
<pdfrwt beam="1">  1       21 0.63430165E-01 0.25950399E+03</pdfrwt>
<pdfrwt beam="2">  1       21 0.30343886E-01 0.25950399E+03</pdfrwt>
<totfact> 0.23133921E+04</totfact>
</mgrwt>
</event>
<event>
 4    1  0.4151607E+000  0.2162425E+03  0.7546771E-02  0.1136716E+00
         21   -1    0    0  501  502  0.00000000000E+00  0.00000000000E+00  0.61184691830E+03  0.61184691830E+03  0.00000000000E+00 0. -1.
         21   -1    0    0  502  503 -0.00000000000E+00 -0.00000000000E+00 -0.11467949792E+03  0.11467949792E+03  0.00000000000E+00 0. -1.
          6    1    1    2  501    0  0.12814915779E+03  0.20238516888E+02  0.45838880610E+03  0.50683439284E+03  0.17300000000E+03 0. -1.
         -6    1    1    2    0  503 -0.12814915779E+03 -0.20238516888E+02  0.38778614279E+02  0.21969202337E+03  0.17300000000E+03 0. -1.
<mgrwt>
<rscale>  2 0.21624247E+03</rscale>
<asrwt>0</asrwt>
<pdfrwt beam="1">  1       21 0.94130293E-01 0.21624247E+03</pdfrwt>
<pdfrwt beam="2">  1       21 0.17643000E-01 0.21624247E+03</pdfrwt>
<totfact> 0.27208497E+04</totfact>
</mgrwt>
</event>
<event>
 4    1  0.4151607E+000  0.2441212E+03  0.7546771E-02  0.1117077E+00
         21   -1    0    0  503  502  0.00000000000E+00  0.00000000000E+00  0.13713511909E+03  0.13713511909E+03  0.00000000000E+00 0. -1.
         21   -1    0    0  501  503 -0.00000000000E+00 -0.00000000000E+00 -0.46695693356E+03  0.46695693356E+03  0.00000000000E+00 0.  1.
          6    1    1    2  501    0 -0.12185421082E+03 -0.12172804679E+03 -0.24445394165E+03  0.34547488427E+03  0.17300000000E+03 0.  1.
         -6    1    1    2    0  502  0.12185421082E+03  0.12172804679E+03 -0.85367872818E+02  0.25861716838E+03  0.17300000000E+03 0. -1.
<mgrwt>
<rscale>  2 0.24412121E+03</rscale>
<asrwt>0</asrwt>
<pdfrwt beam="1">  1       21 0.21097710E-01 0.24412121E+03</pdfrwt>
<pdfrwt beam="2">  1       21 0.71839529E-01 0.24412121E+03</pdfrwt>
<totfact> 0.35625400E+04</totfact>
</mgrwt>
</event>
<event>
 4    1  0.4151607E+000  0.1770671E+03  0.7546771E-02  0.1170672E+00
         21   -1    0    0  503  502  0.00000000000E+00  0.00000000000E+00  0.13070723214E+03  0.13070723214E+03  0.00000000000E+00 0.  1.
         21   -1    0    0  501  503 -0.00000000000E+00 -0.00000000000E+00 -0.23988200651E+03  0.23988200651E+03  0.00000000000E+00 0.  1.
          6    1    1    2  501    0  0.32959052823E+02 -0.18370392368E+02 -0.55887094070E+02  0.18567751011E+03  0.17300000000E+03 0.  1.
         -6    1    1    2    0  502 -0.32959052823E+02  0.18370392368E+02 -0.53287680303E+02  0.18491172854E+03  0.17300000000E+03 0.  1.
<mgrwt>
<rscale>  2 0.17706714E+03</rscale>
<asrwt>0</asrwt>
<pdfrwt beam="1">  1       21 0.20108805E-01 0.17706714E+03</pdfrwt>
<pdfrwt beam="2">  1       21 0.36904924E-01 0.17706714E+03</pdfrwt>
<totfact> 0.16259665E+05</totfact>
</mgrwt>
</event>
<event>
 4    1  0.4151607E+000  0.1967686E+03  0.7546771E-02  0.1152494E+00
         21   -1    0    0  501  502  0.00000000000E+00  0.00000000000E+00  0.46428456889E+02  0.46428456889E+02  0.00000000000E+00 0.  1.
         21   -1    0    0  502  503 -0.00000000000E+00 -0.00000000000E+00 -0.11621552302E+04  0.11621552302E+04  0.00000000000E+00 0. -1.
          6    1    1    2  501    0 -0.36828993262E+02  0.86211965773E+02 -0.23671660986E+03  0.30781915335E+03  0.17300000000E+03 0.  1.
         -6    1    1    2    0  503  0.36828993262E+02 -0.86211965773E+02 -0.87901016348E+03  0.90076453377E+03  0.17300000000E+03 0. -1.
<mgrwt>
<rscale>  2 0.19676859E+03</rscale>
<asrwt>0</asrwt>
<pdfrwt beam="1">  1       21 0.71428398E-02 0.19676859E+03</pdfrwt>
<pdfrwt beam="2">  1       21 0.17879310E+00 0.19676859E+03</pdfrwt>
<totfact> 0.27012265E+04</totfact>
</mgrwt>
</event>
<event>
 4    1  0.4151607E+000  0.3851449E+03  0.7546771E-02  0.1049048E+00
         21   -1    0    0  503  502  0.00000000000E+00  0.00000000000E+00  0.33596814242E+03  0.33596814242E+03  0.00000000000E+00 0.  1.
         21   -1    0    0  501  503 -0.00000000000E+00 -0.00000000000E+00 -0.80881507314E+03  0.80881507314E+03  0.00000000000E+00 0. -1.
          6    1    1    2  501    0 -0.27691870408E+03  0.20426358716E+03 -0.62214716053E+03  0.73171283375E+03  0.17300000000E+03 0. -1.
         -6    1    1    2    0  502  0.27691870408E+03 -0.20426358716E+03  0.14930022981E+03  0.41307038181E+03  0.17300000000E+03 0.  1.
<mgrwt>
<rscale>  2 0.38514488E+03</rscale>
<asrwt>0</asrwt>
<pdfrwt beam="1">  1       21 0.51687408E-01 0.38514488E+03</pdfrwt>
<pdfrwt beam="2">  1       21 0.12443309E+00 0.38514488E+03</pdfrwt>
<totfact> 0.15080053E+03</totfact>
</mgrwt>
</event>
<event>
 4    1  0.4151607E+000  0.2156319E+03  0.7546771E-02  0.1137182E+00
         21   -1    0    0  503  502  0.00000000000E+00  0.00000000000E+00  0.77606255254E+03  0.77606255254E+03  0.00000000000E+00 0. -1.
         21   -1    0    0  501  503 -0.00000000000E+00 -0.00000000000E+00 -0.61376724387E+02  0.61376724387E+02  0.00000000000E+00 0. -1.
          6    1    1    2  501    0  0.95434601377E+02 -0.86373240456E+02  0.29270521517E+03  0.36355665693E+03  0.17300000000E+03 0. -1.
         -6    1    1    2    0  502 -0.95434601377E+02  0.86373240456E+02  0.42198061298E+03  0.47388262000E+03  0.17300000000E+03 0. -1.
<mgrwt>
<rscale>  2 0.21563186E+03</rscale>
<asrwt>0</asrwt>
<pdfrwt beam="1">  1       21 0.11939423E+00 0.21563186E+03</pdfrwt>
<pdfrwt beam="2">  1       21 0.94425736E-02 0.21563186E+03</pdfrwt>
<totfact> 0.47435314E+04</totfact>
</mgrwt>
</event>
<event>
 4    1  0.4151607E+000  0.1813255E+03  0.7546771E-02  0.1166526E+00
         21   -1    0    0  501  502  0.00000000000E+00  0.00000000000E+00  0.13731389679E+04  0.13731389679E+04  0.00000000000E+00 0.  1.
         21   -1    0    0  502  503 -0.00000000000E+00 -0.00000000000E+00 -0.31480322864E+02  0.31480322864E+02  0.00000000000E+00 0.  1.
          6    1    1    2  501    0 -0.49404753299E+02  0.22563311740E+02  0.10144493291E+04  0.10305272311E+04  0.17300000000E+03 0.  1.
         -6    1    1    2    0  503  0.49404753299E+02 -0.22563311740E+02  0.32720931595E+03  0.37409205969E+03  0.17300000000E+03 0.  1.
<mgrwt>
<rscale>  2 0.18132549E+03</rscale>
<asrwt>0</asrwt>
<pdfrwt beam="1">  1       21 0.21125210E+00 0.18132549E+03</pdfrwt>
<pdfrwt beam="2">  1       21 0.48431277E-02 0.18132549E+03</pdfrwt>
<totfact> 0.32627268E+04</totfact>
</mgrwt>
</event>
<event>
 4    1  0.4151607E+000  0.2576458E+03  0.7546771E-02  0.1108566E+00
         21   -1    0    0  501  502  0.00000000000E+00  0.00000000000E+00  0.10385320183E+04  0.10385320183E+04  0.00000000000E+00 0. -1.
         21   -1    0    0  502  503 -0.00000000000E+00 -0.00000000000E+00 -0.88491921057E+02  0.88491921057E+02  0.00000000000E+00 0.  1.
          6    1    1    2  501    0 -0.18115392581E+03  0.60296133770E+02  0.77197084018E+03  0.81383066216E+03  0.17300000000E+03 0.  1.
         -6    1    1    2    0  503  0.18115392581E+03 -0.60296133770E+02  0.17806925711E+03  0.31319327724E+03  0.17300000000E+03 0.  1.
<mgrwt>
<rscale>  2 0.25764582E+03</rscale>
<asrwt>0</asrwt>
<pdfrwt beam="1">  1       21 0.15977415E+00 0.25764582E+03</pdfrwt>
<pdfrwt beam="2">  1       21 0.13614142E-01 0.25764582E+03</pdfrwt>
<totfact> 0.11311974E+04</totfact>
</mgrwt>
</event>
<event>
 4    1  0.4151607E+000  0.2092306E+03  0.7546771E-02  0.1142177E+00
         21   -1    0    0  503  502  0.00000000000E+00  0.00000000000E+00  0.44903618456E+02  0.44903618456E+02  0.00000000000E+00 0.  1.
         21   -1    0    0  501  503 -0.00000000000E+00 -0.00000000000E+00 -0.13439659010E+04  0.13439659010E+04  0.00000000000E+00 0.  1.
          6    1    1    2  501    0 -0.11226726269E+03  0.35277699563E+02 -0.10134271354E+04  0.10348004702E+04  0.17300000000E+03 0.  1.
         -6    1    1    2    0  502  0.11226726269E+03 -0.35277699563E+02 -0.28563514716E+03  0.35406904927E+03  0.17300000000E+03 0.  1.
<mgrwt>
<rscale>  2 0.20923062E+03</rscale>
<asrwt>0</asrwt>
<pdfrwt beam="1">  1       21 0.69082502E-02 0.20923062E+03</pdfrwt>
<pdfrwt beam="2">  1       21 0.20676395E+00 0.20923062E+03</pdfrwt>
<totfact> 0.18579605E+04</totfact>
</mgrwt>
</event>
<event>
 4    1  0.4151607E+000  0.1996754E+03  0.7546771E-02  0.1150013E+00
         21   -1    0    0  503  502  0.00000000000E+00  0.00000000000E+00  0.83684122548E+03  0.83684122548E+03  0.00000000000E+00 0.  1.
         21   -1    0    0  501  503 -0.00000000000E+00 -0.00000000000E+00 -0.71105042211E+02  0.71105042211E+02  0.00000000000E+00 0.  1.
          6    1    1    2  501    0  0.98515927543E+02  0.15357930513E+02  0.12209911748E+03  0.23404796196E+03  0.17300000000E+03 0.  1.
         -6    1    1    2    0  502 -0.98515927543E+02 -0.15357930513E+02  0.64363706578E+03  0.67389830572E+03  0.17300000000E+03 0.  1.
<mgrwt>
<rscale>  2 0.19967537E+03</rscale>
<asrwt>0</asrwt>
<pdfrwt beam="1">  1       21 0.12874480E+00 0.19967537E+03</pdfrwt>
<pdfrwt beam="2">  1       21 0.10939238E-01 0.19967537E+03</pdfrwt>
<totfact> 0.30528711E+04</totfact>
</mgrwt>
</event>
<event>
 4    1  0.4151607E+000  0.2252486E+03  0.7546771E-02  0.1130029E+00
         21   -1    0    0  503  502  0.00000000000E+00  0.00000000000E+00  0.11027172413E+03  0.11027172413E+03  0.00000000000E+00 0.  1.
         21   -1    0    0  501  503 -0.00000000000E+00 -0.00000000000E+00 -0.78061028330E+03  0.78061028330E+03  0.00000000000E+00 0. -1.
          6    1    1    2  501    0  0.19781150624E+02  0.14288685340E+03 -0.62059187409E+03  0.66020543847E+03  0.17300000000E+03 0. -1.
         -6    1    1    2    0  502 -0.19781150624E+02 -0.14288685340E+03 -0.49746685076E+02  0.23067656897E+03  0.17300000000E+03 0.  1.
<mgrwt>
<rscale>  2 0.22524863E+03</rscale>
<asrwt>0</asrwt>
<pdfrwt beam="1">  1       21 0.16964881E-01 0.22524863E+03</pdfrwt>
<pdfrwt beam="2">  1       21 0.12009389E+00 0.22524863E+03</pdfrwt>
<totfact> 0.16167177E+04</totfact>
</mgrwt>
</event>
<event>
 4    1  0.4151607E+000  0.1986464E+03  0.7546771E-02  0.1150886E+00
         21   -1    0    0  501  502  0.00000000000E+00  0.00000000000E+00  0.27391517227E+03  0.27391517227E+03  0.00000000000E+00 0. -1.
         21   -1    0    0  502  503 -0.00000000000E+00 -0.00000000000E+00 -0.14442573714E+03  0.14442573714E+03  0.00000000000E+00 0. -1.
          6    1    1    2  501    0 -0.92039622180E+02 -0.32559357955E+02  0.75261020974E+02  0.21242557548E+03  0.17300000000E+03 0. -1.
         -6    1    1    2    0  503  0.92039622180E+02  0.32559357955E+02  0.54228414157E+02  0.20591533392E+03  0.17300000000E+03 0. -1.
<mgrwt>
<rscale>  2 0.19864643E+03</rscale>
<asrwt>0</asrwt>
<pdfrwt beam="1">  1       21 0.42140796E-01 0.19864643E+03</pdfrwt>
<pdfrwt beam="2">  1       21 0.22219344E-01 0.19864643E+03</pdfrwt>
<totfact> 0.10242362E+05</totfact>
</mgrwt>
</event>
<event>
 4    1  0.4151607E+000  0.1922917E+03  0.7546771E-02  0.1156410E+00
         21   -1    0    0  503  502  0.00000000000E+00  0.00000000000E+00  0.79826218949E+03  0.79826218949E+03  0.00000000000E+00 0. -1.
         21   -1    0    0  501  503 -0.00000000000E+00 -0.00000000000E+00 -0.10859377036E+03  0.10859377036E+03  0.00000000000E+00 0.  1.
          6    1    1    2  501    0 -0.82070409748E+02 -0.17651198844E+02  0.14694144139E+01  0.19229736388E+03  0.17300000000E+03 0.  1.
         -6    1    1    2    0  502  0.82070409748E+02  0.17651198844E+02  0.68819900472E+03  0.71455859597E+03  0.17300000000E+03 0. -1.
<mgrwt>
<rscale>  2 0.19229175E+03</rscale>
<asrwt>0</asrwt>
<pdfrwt beam="1">  1       21 0.12280956E+00 0.19229175E+03</pdfrwt>
<pdfrwt beam="2">  1       21 0.16706734E-01 0.19229175E+03</pdfrwt>
<totfact> 0.16063914E+04</totfact>
</mgrwt>
</event>
<event>
 4    1  0.4151607E+000  0.1903466E+03  0.7546771E-02  0.1158149E+00
         21   -1    0    0  501  502  0.00000000000E+00  0.00000000000E+00  0.80066194804E+02  0.80066194804E+02  0.00000000000E+00 0.  1.
         21   -1    0    0  502  503 -0.00000000000E+00 -0.00000000000E+00 -0.15271596935E+04  0.15271596935E+04  0.00000000000E+00 0.  1.
          6    1    1    2  501    0 -0.75284823195E+02 -0.25199369177E+02 -0.49429431917E+02  0.19665981173E+03  0.17300000000E+03 0.  1.
         -6    1    1    2    0  503  0.75284823195E+02  0.25199369177E+02 -0.13976640668E+04  0.14105660765E+04  0.17300000000E+03 0.  1.
<mgrwt>
<rscale>  2 0.19034656E+03</rscale>
<asrwt>0</asrwt>
<pdfrwt beam="1">  1       21 0.12317876E-01 0.19034656E+03</pdfrwt>
<pdfrwt beam="2">  1       21 0.23494765E+00 0.19034656E+03</pdfrwt>
<totfact> 0.45838422E+03</totfact>
</mgrwt>
</event>
<event>
 4    1  0.4151607E+000  0.1993713E+03  0.7546771E-02  0.1150271E+00
         21   -1    0    0  501  502  0.00000000000E+00  0.00000000000E+00  0.47142472568E+03  0.47142472568E+03  0.00000000000E+00 0. -1.
         21   -1    0    0  502  503 -0.00000000000E+00 -0.00000000000E+00 -0.90731000514E+02  0.90731000514E+02  0.00000000000E+00 0.  1.
          6    1    1    2  501    0  0.90870895323E+02  0.39526961475E+02  0.26508271021E+03  0.33168922737E+03  0.17300000000E+03 0.  1.
         -6    1    1    2    0  503 -0.90870895323E+02 -0.39526961475E+02  0.11561101495E+03  0.23046649882E+03  0.17300000000E+03 0.  1.
<mgrwt>
<rscale>  2 0.19937126E+03</rscale>
<asrwt>0</asrwt>
<pdfrwt beam="1">  1       21 0.72526880E-01 0.19937126E+03</pdfrwt>
<pdfrwt beam="2">  1       21 0.13958616E-01 0.19937126E+03</pdfrwt>
<totfact> 0.76353081E+04</totfact>
</mgrwt>
</event>
<event>
 4    1  0.4151607E+000  0.1737283E+03  0.7546771E-02  0.1174015E+00
         21   -1    0    0  503  502  0.00000000000E+00  0.00000000000E+00  0.12938667609E+04  0.12938667609E+04  0.00000000000E+00 0.  1.
         21   -1    0    0  501  503 -0.00000000000E+00 -0.00000000000E+00 -0.25993335253E+02  0.25993335253E+02  0.00000000000E+00 0.  1.
          6    1    1    2  501    0 -0.10562592191E+02 -0.11873004368E+02  0.42256088227E+03  0.45687989211E+03  0.17300000000E+03 0.  1.
         -6    1    1    2    0  502  0.10562592191E+02  0.11873004368E+02  0.84531254338E+03  0.86298020405E+03  0.17300000000E+03 0.  1.
<mgrwt>
<rscale>  2 0.17372834E+03</rscale>
<asrwt>0</asrwt>
<pdfrwt beam="1">  1       21 0.19905637E+00 0.17372834E+03</pdfrwt>
<pdfrwt beam="2">  1       21 0.39989757E-02 0.17372834E+03</pdfrwt>
<totfact> 0.54043642E+04</totfact>
</mgrwt>
</event>
<event>
 4    1  0.4151607E+000  0.2463801E+03  0.7546771E-02  0.1115614E+00
         21   -1    0    0  503  502  0.00000000000E+00  0.00000000000E+00  0.28002347182E+03  0.28002347182E+03  0.00000000000E+00 0.  1.
         21   -1    0    0  501  503 -0.00000000000E+00 -0.00000000000E+00 -0.22687953902E+03  0.22687953902E+03  0.00000000000E+00 0.  1.
          6    1    1    2  501    0 -0.13865572524E+03 -0.10746509711E+03 -0.26905816944E+02  0.24784487129E+03  0.17300000000E+03 0.  1.
         -6    1    1    2    0  502  0.13865572524E+03  0.10746509711E+03  0.80049749747E+02  0.25905813956E+03  0.17300000000E+03 0.  1.
<mgrwt>
<rscale>  2 0.24638011E+03</rscale>
<asrwt>0</asrwt>
<pdfrwt beam="1">  1       21 0.43080534E-01 0.24638011E+03</pdfrwt>
<pdfrwt beam="2">  1       21 0.34904544E-01 0.24638011E+03</pdfrwt>
<totfact> 0.39966596E+04</totfact>
</mgrwt>
</event>
<event>
 4    1  0.4151607E+000  0.2001855E+03  0.7546771E-02  0.1149583E+00
         21   -1    0    0  503  502  0.00000000000E+00  0.00000000000E+00  0.69600009901E+03  0.69600009901E+03  0.00000000000E+00 0.  1.
         21   -1    0    0  501  503 -0.00000000000E+00 -0.00000000000E+00 -0.62103967036E+02  0.62103967036E+02  0.00000000000E+00 0.  1.
          6    1    1    2  501    0  0.10008576067E+03 -0.11316503838E+02  0.21461882725E+03  0.29348843888E+03  0.17300000000E+03 0. -1.
         -6    1    1    2    0  502 -0.10008576067E+03  0.11316503838E+02  0.41927730473E+03  0.46461562716E+03  0.17300000000E+03 0. -1.
<mgrwt>
<rscale>  2 0.20018547E+03</rscale>
<asrwt>0</asrwt>
<pdfrwt beam="1">  1       21 0.10707693E+00 0.20018547E+03</pdfrwt>
<pdfrwt beam="2">  1       21 0.95544570E-02 0.20018547E+03</pdfrwt>
<totfact> 0.61063094E+04</totfact>
</mgrwt>
</event>
<event>
 4    1  0.4151607E+000  0.2019094E+03  0.7546771E-02  0.1148138E+00
         21   -1    0    0  501  502  0.00000000000E+00  0.00000000000E+00  0.14232008204E+03  0.14232008204E+03  0.00000000000E+00 0. -1.
         21   -1    0    0  502  503 -0.00000000000E+00 -0.00000000000E+00 -0.32182008093E+03  0.32182008093E+03  0.00000000000E+00 0. -1.
          6    1    1    2  501    0 -0.75674847912E+02  0.71496218017E+02 -0.12812325237E+02  0.20231546524E+03  0.17300000000E+03 0. -1.
         -6    1    1    2    0  503  0.75674847912E+02 -0.71496218017E+02 -0.16668767365E+03  0.26182469773E+03  0.17300000000E+03 0. -1.
<mgrwt>
<rscale>  2 0.20190937E+03</rscale>
<asrwt>0</asrwt>
<pdfrwt beam="1">  1       21 0.21895397E-01 0.20190937E+03</pdfrwt>
<pdfrwt beam="2">  1       21 0.49510781E-01 0.20190937E+03</pdfrwt>
<totfact> 0.75445373E+04</totfact>
</mgrwt>
</event>
<event>
 4    1  0.4151607E+000  0.2179372E+03  0.7546771E-02  0.1135430E+00
         21   -1    0    0  501  502  0.00000000000E+00  0.00000000000E+00  0.54919831338E+03  0.54919831338E+03  0.00000000000E+00 0. -1.
         21   -1    0    0  502  503 -0.00000000000E+00 -0.00000000000E+00 -0.90028380881E+02  0.90028380881E+02  0.00000000000E+00 0.  1.
          6    1    1    2  501    0  0.12913184985E+03  0.29876185951E+02  0.29300592434E+03  0.36516995061E+03  0.17300000000E+03 0.  1.
         -6    1    1    2    0  503 -0.12913184985E+03 -0.29876185951E+02  0.16616400817E+03  0.27405674365E+03  0.17300000000E+03 0.  1.
<mgrwt>
<rscale>  2 0.21793720E+03</rscale>
<asrwt>0</asrwt>
<pdfrwt beam="1">  1       21 0.84492047E-01 0.21793720E+03</pdfrwt>
<pdfrwt beam="2">  1       21 0.13850520E-01 0.21793720E+03</pdfrwt>
<totfact> 0.54409663E+04</totfact>
</mgrwt>
</event>
<event>
 4    1  0.4151607E+000  0.2987122E+03  0.7546771E-02  0.1085886E+00
         21   -1    0    0  503  502  0.00000000000E+00  0.00000000000E+00  0.10773126745E+04  0.10773126745E+04  0.00000000000E+00 0.  1.
         21   -1    0    0  501  503 -0.00000000000E+00 -0.00000000000E+00 -0.87447540694E+02  0.87447540694E+02  0.00000000000E+00 0. -1.
          6    1    1    2  501    0  0.15291497542E+03 -0.18951774948E+03  0.36104219551E+03  0.46859410369E+03  0.17300000000E+03 0.  1.
         -6    1    1    2    0  502 -0.15291497542E+03  0.18951774948E+03  0.62882293832E+03  0.69616611152E+03  0.17300000000E+03 0.  1.
<mgrwt>
<rscale>  2 0.29871218E+03</rscale>
<asrwt>0</asrwt>
<pdfrwt beam="1">  1       21 0.16574040E+00 0.29871218E+03</pdfrwt>
<pdfrwt beam="2">  1       21 0.13453469E-01 0.29871218E+03</pdfrwt>
<totfact> 0.10218162E+04</totfact>
</mgrwt>
</event>
<event>
 4    1  0.4151607E+000  0.2276971E+03  0.7546771E-02  0.1128271E+00
         21   -1    0    0  501  502  0.00000000000E+00  0.00000000000E+00  0.19595755166E+03  0.19595755166E+03  0.00000000000E+00 0. -1.
         21   -1    0    0  502  503 -0.00000000000E+00 -0.00000000000E+00 -0.35095073471E+03  0.35095073471E+03  0.00000000000E+00 0.  1.
          6    1    1    2  501    0 -0.70211675490E+02  0.13033529279E+03  0.58163126256E+02  0.23500833427E+03  0.17300000000E+03 0. -1.
         -6    1    1    2    0  503  0.70211675490E+02 -0.13033529279E+03 -0.21315630931E+03  0.31189995210E+03  0.17300000000E+03 0.  1.
<mgrwt>
<rscale>  2 0.22769710E+03</rscale>
<asrwt>0</asrwt>
<pdfrwt beam="1">  1       21 0.30147316E-01 0.22769710E+03</pdfrwt>
<pdfrwt beam="2">  1       21 0.53992420E-01 0.22769710E+03</pdfrwt>
<totfact> 0.33623969E+04</totfact>
</mgrwt>
</event>
<event>
 4    1  0.4151607E+000  0.1746332E+03  0.7546771E-02  0.1173100E+00
         21   -1    0    0  503  502  0.00000000000E+00  0.00000000000E+00  0.11566692743E+04  0.11566692743E+04  0.00000000000E+00 0.  1.
         21   -1    0    0  501  503 -0.00000000000E+00 -0.00000000000E+00 -0.51889253290E+02  0.51889253290E+02  0.00000000000E+00 0.  1.
          6    1    1    2  501    0  0.22241350980E+02 -0.85494620633E+01  0.12858432028E+03  0.21686562295E+03  0.17300000000E+03 0.  1.
         -6    1    1    2    0  502 -0.22241350980E+02  0.85494620633E+01  0.97619570074E+03  0.99169290465E+03  0.17300000000E+03 0.  1.
<mgrwt>
<rscale>  2 0.17463325E+03</rscale>
<asrwt>0</asrwt>
<pdfrwt beam="1">  1       21 0.17794910E+00 0.17463325E+03</pdfrwt>
<pdfrwt beam="2">  1       21 0.79829629E-02 0.17463325E+03</pdfrwt>
<totfact> 0.22929855E+04</totfact>
</mgrwt>
</event>
<event>
 4    1  0.4151607E+000  0.1842888E+03  0.7546771E-02  0.1163716E+00
         21   -1    0    0  503  502  0.00000000000E+00  0.00000000000E+00  0.50255817211E+02  0.50255817211E+02  0.00000000000E+00 0. -1.
         21   -1    0    0  501  503 -0.00000000000E+00 -0.00000000000E+00 -0.67827156746E+03  0.67827156746E+03  0.00000000000E+00 0. -1.
          6    1    1    2  501    0 -0.34355037141E+02 -0.53414370838E+02 -0.29197336226E+03  0.34526918174E+03  0.17300000000E+03 0. -1.
         -6    1    1    2    0  502  0.34355037141E+02  0.53414370838E+02 -0.33604238799E+03  0.38325820293E+03  0.17300000000E+03 0. -1.
<mgrwt>
<rscale>  2 0.18428880E+03</rscale>
<asrwt>0</asrwt>
<pdfrwt beam="1">  1       21 0.77316638E-02 0.18428880E+03</pdfrwt>
<pdfrwt beam="2">  1       21 0.10434948E+00 0.18428880E+03</pdfrwt>
<totfact> 0.94764646E+04</totfact>
</mgrwt>
</event>
<event>
 4    1  0.4151607E+000  0.3604487E+03  0.7546771E-02  0.1058406E+00
         21   -1    0    0  503  502  0.00000000000E+00  0.00000000000E+00  0.69459199932E+03  0.69459199932E+03  0.00000000000E+00 0. -1.
         21   -1    0    0  501  503 -0.00000000000E+00 -0.00000000000E+00 -0.22700082304E+03  0.22700082304E+03  0.00000000000E+00 0.  1.
          6    1    1    2  501    0 -0.27186030641E+03  0.16151230427E+03  0.40483207909E+02  0.36271495800E+03  0.17300000000E+03 0.  1.
         -6    1    1    2    0  502  0.27186030641E+03 -0.16151230427E+03  0.42710796838E+03  0.55887786437E+03  0.17300000000E+03 0. -1.
<mgrwt>
<rscale>  2 0.36044868E+03</rscale>
<asrwt>0</asrwt>
<pdfrwt beam="1">  1       21 0.10686031E+00 0.36044868E+03</pdfrwt>
<pdfrwt beam="2">  1       21 0.34923204E-01 0.36044868E+03</pdfrwt>
<totfact> 0.50218543E+03</totfact>
</mgrwt>
</event>
<event>
 4    1  0.4151607E+000  0.2030948E+03  0.7546771E-02  0.1147154E+00
         21   -1    0    0  501  502  0.00000000000E+00  0.00000000000E+00  0.64884416983E+03  0.64884416983E+03  0.00000000000E+00 0.  1.
         21   -1    0    0  502  503 -0.00000000000E+00 -0.00000000000E+00 -0.98736008411E+02  0.98736008411E+02  0.00000000000E+00 0.  1.
          6    1    1    2  501    0 -0.48201181656E+02  0.94842630258E+02  0.49812718498E+03  0.53793881701E+03  0.17300000000E+03 0.  1.
         -6    1    1    2    0  503  0.48201181656E+02 -0.94842630258E+02  0.51980976434E+02  0.20964136123E+03  0.17300000000E+03 0.  1.
<mgrwt>
<rscale>  2 0.20309475E+03</rscale>
<asrwt>0</asrwt>
<pdfrwt beam="1">  1       21 0.99822178E-01 0.20309475E+03</pdfrwt>
<pdfrwt beam="2">  1       21 0.15190156E-01 0.20309475E+03</pdfrwt>
<totfact> 0.31420718E+04</totfact>
</mgrwt>
</event>
<event>
 4    1  0.4151607E+000  0.1923339E+03  0.7546771E-02  0.1156373E+00
         21   -1    0    0  501  502  0.00000000000E+00  0.00000000000E+00  0.73542758428E+03  0.73542758428E+03  0.00000000000E+00 0. -1.
         21   -1    0    0  502  503 -0.00000000000E+00 -0.00000000000E+00 -0.51576388984E+02  0.51576388984E+02  0.00000000000E+00 0.  1.
          6    1    1    2  501    0 -0.78867911925E+02 -0.29037477831E+02  0.28003280650E+03  0.33972149677E+03  0.17300000000E+03 0. -1.
         -6    1    1    2    0  503  0.78867911925E+02  0.29037477831E+02  0.40381838880E+03  0.44728247649E+03  0.17300000000E+03 0.  1.
<mgrwt>
<rscale>  2 0.19233388E+03</rscale>
<asrwt>0</asrwt>
<pdfrwt beam="1">  1       21 0.11314270E+00 0.19233388E+03</pdfrwt>
<pdfrwt beam="2">  1       21 0.79348296E-02 0.19233388E+03</pdfrwt>
<totfact> 0.74261350E+04</totfact>
</mgrwt>
</event>
<event>
 4    1  0.4151607E+000  0.2191884E+03  0.7546771E-02  0.1134490E+00
         21   -1    0    0  501  502  0.00000000000E+00  0.00000000000E+00  0.11180427968E+04  0.11180427968E+04  0.00000000000E+00 0. -1.
         21   -1    0    0  502  503 -0.00000000000E+00 -0.00000000000E+00 -0.46969435431E+02  0.46969435431E+02  0.00000000000E+00 0. -1.
          6    1    1    2  501    0 -0.13289712891E+02  0.13393261229E+03  0.70549047486E+03  0.73875596188E+03  0.17300000000E+03 0. -1.
         -6    1    1    2    0  503  0.13289712891E+02 -0.13393261229E+03  0.36558288653E+03  0.42625627037E+03  0.17300000000E+03 0. -1.
<mgrwt>
<rscale>  2 0.21918841E+03</rscale>
<asrwt>0</asrwt>
<pdfrwt beam="1">  1       21 0.17200656E+00 0.21918841E+03</pdfrwt>
<pdfrwt beam="2">  1       21 0.72260678E-02 0.21918841E+03</pdfrwt>
<totfact> 0.29076848E+04</totfact>
</mgrwt>
</event>
<event>
 4    1  0.4151607E+000  0.2010739E+03  0.7546771E-02  0.1148836E+00
         21   -1    0    0  501  502  0.00000000000E+00  0.00000000000E+00  0.61534827113E+02  0.61534827113E+02  0.00000000000E+00 0.  1.
         21   -1    0    0  502  503 -0.00000000000E+00 -0.00000000000E+00 -0.66640506562E+03  0.66640506562E+03  0.00000000000E+00 0.  1.
          6    1    1    2  501    0  0.87039457936E+02 -0.54091082637E+02 -0.25928312185E+03  0.32811347082E+03  0.17300000000E+03 0.  1.
         -6    1    1    2    0  503 -0.87039457936E+02  0.54091082637E+02 -0.34558711666E+03  0.39982642191E+03  0.17300000000E+03 0.  1.
<mgrwt>
<rscale>  2 0.20107390E+03</rscale>
<asrwt>0</asrwt>
<pdfrwt beam="1">  1       21 0.94668968E-02 0.20107390E+03</pdfrwt>
<pdfrwt beam="2">  1       21 0.10252385E+00 0.20107390E+03</pdfrwt>
<totfact> 0.68862623E+04</totfact>
</mgrwt>
</event>
<event>
 4    1  0.4151607E+000  0.1908304E+03  0.7546771E-02  0.1157714E+00
         21   -1    0    0  503  502  0.00000000000E+00  0.00000000000E+00  0.10880502806E+04  0.10880502806E+04  0.00000000000E+00 0. -1.
         21   -1    0    0  501  503 -0.00000000000E+00 -0.00000000000E+00 -0.72549682575E+02  0.72549682575E+02  0.00000000000E+00 0. -1.
          6    1    1    2  501    0 -0.64865242574E+02 -0.47746774097E+02  0.81843728263E+02  0.20764067517E+03  0.17300000000E+03 0. -1.
         -6    1    1    2    0  502  0.64865242574E+02  0.47746774097E+02  0.93365686973E+03  0.95295928797E+03  0.17300000000E+03 0. -1.
<mgrwt>
<rscale>  2 0.19083043E+03</rscale>
<asrwt>0</asrwt>
<pdfrwt beam="1">  1       21 0.16739234E+00 0.19083043E+03</pdfrwt>
<pdfrwt beam="2">  1       21 0.11161490E-01 0.19083043E+03</pdfrwt>
<totfact> 0.14887074E+04</totfact>
</mgrwt>
</event>
<event>
 4    1  0.4151607E+000  0.1738581E+03  0.7546771E-02  0.1173883E+00
         21   -1    0    0  501  502  0.00000000000E+00  0.00000000000E+00  0.14129032358E+04  0.14129032358E+04  0.00000000000E+00 0. -1.
         21   -1    0    0  502  503 -0.00000000000E+00 -0.00000000000E+00 -0.49511780977E+02  0.49511780977E+02  0.00000000000E+00 0. -1.
          6    1    1    2  501    0  0.14387179002E+02 -0.95217029660E+01  0.12327347375E+04  0.12449343704E+04  0.17300000000E+03 0. -1.
         -6    1    1    2    0  503 -0.14387179002E+02  0.95217029660E+01  0.13065671740E+03  0.21748064637E+03  0.17300000000E+03 0. -1.
<mgrwt>
<rscale>  2 0.17385814E+03</rscale>
<asrwt>0</asrwt>
<pdfrwt beam="1">  1       21 0.21736970E+00 0.17385814E+03</pdfrwt>
<pdfrwt beam="2">  1       21 0.76171981E-02 0.17385814E+03</pdfrwt>
<totfact> 0.13869928E+04</totfact>
</mgrwt>
</event>
<event>
 4    1  0.4151607E+000  0.2165201E+03  0.7546771E-02  0.1136504E+00
         21   -1    0    0  501  502  0.00000000000E+00  0.00000000000E+00  0.11150871097E+03  0.11150871097E+03  0.00000000000E+00 0. -1.
         21   -1    0    0  502  503 -0.00000000000E+00 -0.00000000000E+00 -0.42736803261E+03  0.42736803261E+03  0.00000000000E+00 0.  1.
          6    1    1    2  501    0  0.99818873811E+02  0.83595198580E+02 -0.19227413525E+03  0.28956917633E+03  0.17300000000E+03 0. -1.
         -6    1    1    2    0  503 -0.99818873811E+02 -0.83595198580E+02 -0.12358518639E+03  0.24930756725E+03  0.17300000000E+03 0. -1.
<mgrwt>
<rscale>  2 0.21652013E+03</rscale>
<asrwt>0</asrwt>
<pdfrwt beam="1">  1       21 0.17155186E-01 0.21652013E+03</pdfrwt>
<pdfrwt beam="2">  1       21 0.65748929E-01 0.21652013E+03</pdfrwt>
<totfact> 0.64516445E+04</totfact>
</mgrwt>
</event>
<event>
 4    1  0.4151607E+000  0.2073857E+03  0.7546771E-02  0.1143653E+00
         21   -1    0    0  503  502  0.00000000000E+00  0.00000000000E+00  0.73948429596E+02  0.73948429596E+02  0.00000000000E+00 0.  1.
         21   -1    0    0  501  503 -0.00000000000E+00 -0.00000000000E+00 -0.81600879303E+03  0.81600879303E+03  0.00000000000E+00 0.  1.
          6    1    1    2  501    0 -0.11429577642E+03 -0.40382870711E+01 -0.60952191756E+03  0.64383678076E+03  0.17300000000E+03 0.  1.
         -6    1    1    2    0  502  0.11429577642E+03  0.40382870711E+01 -0.13253844587E+03  0.24612044186E+03  0.17300000000E+03 0.  1.
<mgrwt>
<rscale>  2 0.20738571E+03</rscale>
<asrwt>0</asrwt>
<pdfrwt beam="1">  1       21 0.11376680E-01 0.20738571E+03</pdfrwt>
<pdfrwt beam="2">  1       21 0.12553983E+00 0.20738571E+03</pdfrwt>
<totfact> 0.30195206E+04</totfact>
</mgrwt>
</event>
<event>
 4    1  0.4151607E+000  0.1748841E+03  0.7546771E-02  0.1172848E+00
         21   -1    0    0  503  502  0.00000000000E+00  0.00000000000E+00  0.77674683018E+02  0.77674683018E+02  0.00000000000E+00 0.  1.
         21   -1    0    0  501  503 -0.00000000000E+00 -0.00000000000E+00 -0.58530130037E+03  0.58530130037E+03  0.00000000000E+00 0.  1.
          6    1    1    2  501    0 -0.24284813331E+02 -0.81052227712E+01 -0.44344897383E+03  0.47668798935E+03  0.17300000000E+03 0.  1.
         -6    1    1    2    0  502  0.24284813331E+02  0.81052227712E+01 -0.64177643514E+02  0.18628799404E+03  0.17300000000E+03 0.  1.
<mgrwt>
<rscale>  2 0.17488410E+03</rscale>
<asrwt>0</asrwt>
<pdfrwt beam="1">  1       21 0.11949951E-01 0.17488410E+03</pdfrwt>
<pdfrwt beam="2">  1       21 0.90046353E-01 0.17488410E+03</pdfrwt>
<totfact> 0.62555928E+04</totfact>
</mgrwt>
</event>
<event>
 4    1  0.4151607E+000  0.2246870E+03  0.7546771E-02  0.1130436E+00
         21   -1    0    0  503  502  0.00000000000E+00  0.00000000000E+00  0.18293189517E+03  0.18293189517E+03  0.00000000000E+00 0.  1.
         21   -1    0    0  501  503 -0.00000000000E+00 -0.00000000000E+00 -0.69152762974E+03  0.69152762974E+03  0.00000000000E+00 0.  1.
          6    1    1    2  501    0  0.78312833977E+02 -0.12009313270E+03 -0.59323489831E+03  0.63435944468E+03  0.17300000000E+03 0.  1.
         -6    1    1    2    0  502 -0.78312833977E+02  0.12009313270E+03  0.84639163731E+02  0.24010008023E+03  0.17300000000E+03 0.  1.
<mgrwt>
<rscale>  2 0.22468703E+03</rscale>
<asrwt>0</asrwt>
<pdfrwt beam="1">  1       21 0.28143368E-01 0.22468703E+03</pdfrwt>
<pdfrwt beam="2">  1       21 0.10638887E+00 0.22468703E+03</pdfrwt>
<totfact> 0.83501941E+03</totfact>
</mgrwt>
</event>
<event>
 4    1  0.4151607E+000  0.2106767E+03  0.7546771E-02  0.1141031E+00
         21   -1    0    0  501  502  0.00000000000E+00  0.00000000000E+00  0.19123250233E+03  0.19123250233E+03  0.00000000000E+00 0.  1.
         21   -1    0    0  502  503 -0.00000000000E+00 -0.00000000000E+00 -0.34270248885E+03  0.34270248885E+03  0.00000000000E+00 0.  1.
          6    1    1    2  501    0  0.54927209196E+02 -0.10695165315E+03  0.75930370442E+02  0.22394212551E+03  0.17300000000E+03 0.  1.
         -6    1    1    2    0  503 -0.54927209196E+02  0.10695165315E+03 -0.22740035696E+03  0.30999286567E+03  0.17300000000E+03 0.  1.
<mgrwt>
<rscale>  2 0.21067666E+03</rscale>
<asrwt>0</asrwt>
<pdfrwt beam="1">  1       21 0.29420385E-01 0.21067666E+03</pdfrwt>
<pdfrwt beam="2">  1       21 0.52723460E-01 0.21067666E+03</pdfrwt>
<totfact> 0.37393176E+04</totfact>
</mgrwt>
</event>
<event>
 4    1  0.4151607E+000  0.2772737E+03  0.7546771E-02  0.1097187E+00
         21   -1    0    0  503  502  0.00000000000E+00  0.00000000000E+00  0.26442808751E+04  0.26442808751E+04  0.00000000000E+00 0.  1.
         21   -1    0    0  501  503 -0.00000000000E+00 -0.00000000000E+00 -0.36684654597E+02  0.36684654597E+02  0.00000000000E+00 0. -1.
          6    1    1    2  501    0 -0.18838010553E+03 -0.10707318549E+03  0.69324954570E+03  0.74664292927E+03  0.17300000000E+03 0. -1.
         -6    1    1    2    0  502  0.18838010553E+03  0.10707318549E+03  0.19143466748E+04  0.19343226004E+04  0.17300000000E+03 0.  1.
<mgrwt>
<rscale>  2 0.27727375E+03</rscale>
<asrwt>0</asrwt>
<pdfrwt beam="1">  1       21 0.40681229E+00 0.27727375E+03</pdfrwt>
<pdfrwt beam="2">  1       21 0.56437951E-02 0.27727375E+03</pdfrwt>
<totfact> 0.15570973E+03</totfact>
</mgrwt>
</event>
<event>
 4    1  0.4151607E+000  0.2370275E+03  0.7546771E-02  0.1121789E+00
         21   -1    0    0  503  502  0.00000000000E+00  0.00000000000E+00  0.30076111030E+03  0.30076111030E+03  0.00000000000E+00 0.  1.
         21   -1    0    0  501  503 -0.00000000000E+00 -0.00000000000E+00 -0.25274787316E+03  0.25274787316E+03  0.00000000000E+00 0. -1.
          6    1    1    2  501    0  0.27553813198E+02 -0.15966783001E+03 -0.11736197193E+03  0.26449170312E+03  0.17300000000E+03 0. -1.
         -6    1    1    2    0  502 -0.27553813198E+02  0.15966783001E+03  0.16537520907E+03  0.28901728034E+03  0.17300000000E+03 0.  1.
<mgrwt>
<rscale>  2 0.23702748E+03</rscale>
<asrwt>0</asrwt>
<pdfrwt beam="1">  1       21 0.46270940E-01 0.23702748E+03</pdfrwt>
<pdfrwt beam="2">  1       21 0.38884288E-01 0.23702748E+03</pdfrwt>
<totfact> 0.27881044E+04</totfact>
</mgrwt>
</event>
<event>
 4    1  0.4151607E+000  0.1800758E+03  0.7546771E-02  0.1167730E+00
         21   -1    0    0  503  502  0.00000000000E+00  0.00000000000E+00  0.35005515603E+03  0.35005515603E+03  0.00000000000E+00 0.  1.
         21   -1    0    0  501  503 -0.00000000000E+00 -0.00000000000E+00 -0.10820719903E+03  0.10820719903E+03  0.00000000000E+00 0.  1.
          6    1    1    2  501    0 -0.13678831949E+01 -0.49964055987E+02  0.34001055090E+02  0.18325760487E+03  0.17300000000E+03 0.  1.
         -6    1    1    2    0  502  0.13678831949E+01  0.49964055987E+02  0.20784690191E+03  0.27500475020E+03  0.17300000000E+03 0.  1.
<mgrwt>
<rscale>  2 0.18007576E+03</rscale>
<asrwt>0</asrwt>
<pdfrwt beam="1">  1       21 0.53854639E-01 0.18007576E+03</pdfrwt>
<pdfrwt beam="2">  1       21 0.16647262E-01 0.18007576E+03</pdfrwt>
<totfact> 0.10622560E+05</totfact>
</mgrwt>
</event>
<event>
 4    1  0.4151607E+000  0.1795406E+03  0.7546771E-02  0.1168248E+00
         21   -1    0    0  503  502  0.00000000000E+00  0.00000000000E+00  0.18055934672E+03  0.18055934672E+03  0.00000000000E+00 0. -1.
         21   -1    0    0  501  503 -0.00000000000E+00 -0.00000000000E+00 -0.58843345348E+03  0.58843345348E+03  0.00000000000E+00 0. -1.
          6    1    1    2  501    0  0.47242861639E+02 -0.85987689046E+01 -0.52484883422E+03  0.55470814451E+03  0.17300000000E+03 0. -1.
         -6    1    1    2    0  502 -0.47242861639E+02  0.85987689046E+01  0.11697472745E+03  0.21428465569E+03  0.17300000000E+03 0. -1.
<mgrwt>
<rscale>  2 0.17954060E+03</rscale>
<asrwt>0</asrwt>
<pdfrwt beam="1">  1       21 0.27778361E-01 0.17954060E+03</pdfrwt>
<pdfrwt beam="2">  1       21 0.90528223E-01 0.17954060E+03</pdfrwt>
<totfact> 0.12936320E+04</totfact>
</mgrwt>
</event>
<event>
 4    1  0.4151607E+000  0.1751585E+03  0.7546771E-02  0.1172573E+00
         21   -1    0    0  503  502  0.00000000000E+00  0.00000000000E+00  0.89149317307E+03  0.89149317307E+03  0.00000000000E+00 0.  1.
         21   -1    0    0  501  503 -0.00000000000E+00 -0.00000000000E+00 -0.21059350269E+03  0.21059350269E+03  0.00000000000E+00 0.  1.
          6    1    1    2  501    0 -0.27359447813E+02 -0.17238467579E+01 -0.16356119688E+03  0.23965136377E+03  0.17300000000E+03 0.  1.
         -6    1    1    2    0  502  0.27359447813E+02  0.17238467579E+01  0.84446086725E+03  0.86243531198E+03  0.17300000000E+03 0.  1.
<mgrwt>
<rscale>  2 0.17515853E+03</rscale>
<asrwt>0</asrwt>
<pdfrwt beam="1">  1       21 0.13715279E+00 0.17515853E+03</pdfrwt>
<pdfrwt beam="2">  1       21 0.32399001E-01 0.17515853E+03</pdfrwt>
<totfact> 0.35132520E+03</totfact>
</mgrwt>
</event>
<event>
 4    1  0.4151607E+000  0.2771867E+03  0.7546771E-02  0.1097236E+00
         21   -1    0    0  501  502  0.00000000000E+00  0.00000000000E+00  0.32947942549E+03  0.32947942549E+03  0.00000000000E+00 0.  1.
         21   -1    0    0  502  503 -0.00000000000E+00 -0.00000000000E+00 -0.29552970201E+03  0.29552970201E+03  0.00000000000E+00 0.  1.
          6    1    1    2  501    0  0.20979777286E+03 -0.53743286178E+02  0.16049938546E+03  0.32030063852E+03  0.17300000000E+03 0.  1.
         -6    1    1    2    0  503 -0.20979777286E+03  0.53743286178E+02 -0.12654966198E+03  0.30470848897E+03  0.17300000000E+03 0.  1.
<mgrwt>
<rscale>  2 0.27718666E+03</rscale>
<asrwt>0</asrwt>
<pdfrwt beam="1">  1       21 0.50689143E-01 0.27718666E+03</pdfrwt>
<pdfrwt beam="2">  1       21 0.45466108E-01 0.27718666E+03</pdfrwt>
<totfact> 0.16419087E+04</totfact>
</mgrwt>
</event>
<event>
 4    1  0.4151607E+000  0.3146002E+03  0.7546771E-02  0.1078162E+00
         21   -1    0    0  503  502  0.00000000000E+00  0.00000000000E+00  0.20126856711E+03  0.20126856711E+03  0.00000000000E+00 0. -1.
         21   -1    0    0  501  503 -0.00000000000E+00 -0.00000000000E+00 -0.49206782891E+03  0.49206782891E+03  0.00000000000E+00 0. -1.
          6    1    1    2  501    0 -0.17984432776E+03  0.19157319039E+03 -0.13655149515E+03  0.34295711150E+03  0.17300000000E+03 0. -1.
         -6    1    1    2    0  502  0.17984432776E+03 -0.19157319039E+03 -0.15424776666E+03  0.35037928452E+03  0.17300000000E+03 0. -1.
<mgrwt>
<rscale>  2 0.31460017E+03</rscale>
<asrwt>0</asrwt>
<pdfrwt beam="1">  1       21 0.30964395E-01 0.31460017E+03</pdfrwt>
<pdfrwt beam="2">  1       21 0.75702743E-01 0.31460017E+03</pdfrwt>
<totfact> 0.14651274E+04</totfact>
</mgrwt>
</event>
<event>
 4    1  0.4151607E+000  0.2041694E+03  0.7546771E-02  0.1146268E+00
         21   -1    0    0  503  502  0.00000000000E+00  0.00000000000E+00  0.98311230651E+03  0.98311230651E+03  0.00000000000E+00 0. -1.
         21   -1    0    0  501  503 -0.00000000000E+00 -0.00000000000E+00 -0.60452788598E+02  0.60452788598E+02  0.00000000000E+00 0. -1.
          6    1    1    2  501    0 -0.10841687830E+03  0.13846545021E+01  0.17620222940E+03  0.26968938135E+03  0.17300000000E+03 0. -1.
         -6    1    1    2    0  502  0.10841687830E+03 -0.13846545021E+01  0.74645728851E+03  0.77387571376E+03  0.17300000000E+03 0. -1.
<mgrwt>
<rscale>  2 0.20416938E+03</rscale>
<asrwt>0</asrwt>
<pdfrwt beam="1">  1       21 0.15124804E+00 0.20416938E+03</pdfrwt>
<pdfrwt beam="2">  1       21 0.93004297E-02 0.20416938E+03</pdfrwt>
<totfact> 0.26767804E+04</totfact>
</mgrwt>
</event>
<event>
 4    1  0.4151607E+000  0.1842263E+03  0.7546771E-02  0.1163774E+00
         21   -1    0    0  503  502  0.00000000000E+00  0.00000000000E+00  0.47490596939E+03  0.47490596939E+03  0.00000000000E+00 0. -1.
         21   -1    0    0  501  503 -0.00000000000E+00 -0.00000000000E+00 -0.28831589530E+03  0.28831589530E+03  0.00000000000E+00 0. -1.
          6    1    1    2  501    0  0.49397308293E+02 -0.39626106079E+02 -0.23765830554E+03  0.30070050306E+03  0.17300000000E+03 0. -1.
         -6    1    1    2    0  502 -0.49397308293E+02  0.39626106079E+02  0.42424837962E+03  0.46252136163E+03  0.17300000000E+03 0. -1.
<mgrwt>
<rscale>  2 0.18422628E+03</rscale>
<asrwt>0</asrwt>
<pdfrwt beam="1">  1       21 0.73062456E-01 0.18422628E+03</pdfrwt>
<pdfrwt beam="2">  1       21 0.44356292E-01 0.18422628E+03</pdfrwt>
<totfact> 0.82758223E+03</totfact>
</mgrwt>
</event>
<event>
 4    1  0.4151607E+000  0.4545781E+03  0.7546771E-02  0.1026366E+00
         21   -1    0    0  503  502  0.00000000000E+00  0.00000000000E+00  0.47178524708E+03  0.47178524708E+03  0.00000000000E+00 0. -1.
         21   -1    0    0  501  503 -0.00000000000E+00 -0.00000000000E+00 -0.47234974203E+03  0.47234974203E+03  0.00000000000E+00 0. -1.
          6    1    1    2  501    0  0.40510238948E+03 -0.11226872312E+03 -0.12758673833E+03  0.47214360946E+03  0.17300000000E+03 0. -1.
         -6    1    1    2    0  502 -0.40510238948E+03  0.11226872312E+03  0.12702224338E+03  0.47199137965E+03  0.17300000000E+03 0. -1.
<mgrwt>
<rscale>  2 0.45457806E+03</rscale>
<asrwt>0</asrwt>
<pdfrwt beam="1">  1       21 0.72582346E-01 0.45457806E+03</pdfrwt>
<pdfrwt beam="2">  1       21 0.72669190E-01 0.45457806E+03</pdfrwt>
<totfact> 0.25273067E+03</totfact>
</mgrwt>
</event>
<event>
 4    1  0.4151607E+000  0.2015558E+03  0.7546771E-02  0.1148433E+00
         21   -1    0    0  501  502  0.00000000000E+00  0.00000000000E+00  0.71237072007E+03  0.71237072007E+03  0.00000000000E+00 0. -1.
         21   -1    0    0  502  503 -0.00000000000E+00 -0.00000000000E+00 -0.60060122738E+02  0.60060122738E+02  0.00000000000E+00 0.  1.
          6    1    1    2  501    0  0.42501358962E+01  0.10333293177E+03  0.41293975700E+03  0.45950408198E+03  0.17300000000E+03 0. -1.
         -6    1    1    2    0  503 -0.42501358962E+01 -0.10333293177E+03  0.23937084033E+03  0.31292676083E+03  0.17300000000E+03 0.  1.
<mgrwt>
<rscale>  2 0.20155584E+03</rscale>
<asrwt>0</asrwt>
<pdfrwt beam="1">  1       21 0.10959549E+00 0.20155584E+03</pdfrwt>
<pdfrwt beam="2">  1       21 0.92400193E-02 0.20155584E+03</pdfrwt>
<totfact> 0.61188662E+04</totfact>
</mgrwt>
</event>
<event>
 4    1  0.4151607E+000  0.2022270E+03  0.7546771E-02  0.1147874E+00
         21   -1    0    0  503  502  0.00000000000E+00  0.00000000000E+00  0.35774318425E+03  0.35774318425E+03  0.00000000000E+00 0. -1.
         21   -1    0    0  501  503 -0.00000000000E+00 -0.00000000000E+00 -0.12737646849E+03  0.12737646849E+03  0.00000000000E+00 0. -1.
          6    1    1    2  501    0 -0.82509686996E+02  0.64489592564E+02  0.37513181243E+02  0.20567691840E+03  0.17300000000E+03 0. -1.
         -6    1    1    2    0  502  0.82509686996E+02 -0.64489592564E+02  0.19285353452E+03  0.27944273433E+03  0.17300000000E+03 0. -1.
<mgrwt>
<rscale>  2 0.20222699E+03</rscale>
<asrwt>0</asrwt>
<pdfrwt beam="1">  1       21 0.55037413E-01 0.20222699E+03</pdfrwt>
<pdfrwt beam="2">  1       21 0.19596380E-01 0.20222699E+03</pdfrwt>
<totfact> 0.74369097E+04</totfact>
</mgrwt>
</event>
<event>
 4    1  0.4151607E+000  0.2843744E+03  0.7546771E-02  0.1093323E+00
         21   -1    0    0  503  502  0.00000000000E+00  0.00000000000E+00  0.41298921674E+03  0.41298921674E+03  0.00000000000E+00 0. -1.
         21   -1    0    0  501  503 -0.00000000000E+00 -0.00000000000E+00 -0.19912918684E+03  0.19912918684E+03  0.00000000000E+00 0.  1.
          6    1    1    2  501    0  0.17504793195E+03  0.14247112985E+03  0.67435692087E+02  0.29226079773E+03  0.17300000000E+03 0.  1.
         -6    1    1    2    0  502 -0.17504793195E+03 -0.14247112985E+03  0.14642433780E+03  0.31985760585E+03  0.17300000000E+03 0.  1.
<mgrwt>
<rscale>  2 0.28437440E+03</rscale>
<asrwt>0</asrwt>
<pdfrwt beam="1">  1       21 0.63536802E-01 0.28437440E+03</pdfrwt>
<pdfrwt beam="2">  1       21 0.30635260E-01 0.28437440E+03</pdfrwt>
<totfact> 0.22377447E+04</totfact>
</mgrwt>
</event>
<event>
 4    1  0.4151607E+000  0.1844634E+03  0.7546771E-02  0.1163552E+00
         21   -1    0    0  503  502  0.00000000000E+00  0.00000000000E+00  0.39810033668E+02  0.39810033668E+02  0.00000000000E+00 0. -1.
         21   -1    0    0  501  503 -0.00000000000E+00 -0.00000000000E+00 -0.12462739944E+04  0.12462739944E+04  0.00000000000E+00 0. -1.
          6    1    1    2  501    0  0.40045751142E+01  0.63888195772E+02 -0.96366464820E+03  0.98116068631E+03  0.17300000000E+03 0. -1.
         -6    1    1    2    0  502 -0.40045751142E+01 -0.63888195772E+02 -0.24279931255E+03  0.30492334177E+03  0.17300000000E+03 0. -1.
<mgrwt>
<rscale>  2 0.18446338E+03</rscale>
<asrwt>0</asrwt>
<pdfrwt beam="1">  1       21 0.61246211E-02 0.18446338E+03</pdfrwt>
<pdfrwt beam="2">  1       21 0.19173444E+00 0.18446338E+03</pdfrwt>
<totfact> 0.29087958E+04</totfact>
</mgrwt>
</event>
<event>
 4    1  0.4151607E+000  0.2628047E+03  0.7546771E-02  0.1105470E+00
         21   -1    0    0  501  502  0.00000000000E+00  0.00000000000E+00  0.67612501091E+03  0.67612501091E+03  0.00000000000E+00 0. -1.
         21   -1    0    0  502  503 -0.00000000000E+00 -0.00000000000E+00 -0.15745283878E+03  0.15745283878E+03  0.00000000000E+00 0. -1.
          6    1    1    2  501    0 -0.54012147502E+02 -0.19031549191E+03  0.50634571754E+03  0.57048425413E+03  0.17300000000E+03 0. -1.
         -6    1    1    2    0  503  0.54012147502E+02  0.19031549191E+03  0.12326454587E+02  0.26309359555E+03  0.17300000000E+03 0. -1.
<mgrwt>
<rscale>  2 0.26280468E+03</rscale>
<asrwt>0</asrwt>
<pdfrwt beam="1">  1       21 0.10401923E+00 0.26280468E+03</pdfrwt>
<pdfrwt beam="2">  1       21 0.24223514E-01 0.26280468E+03</pdfrwt>
<totfact> 0.11517584E+04</totfact>
</mgrwt>
</event>
<event>
 4    1  0.4151607E+000  0.1765466E+03  0.7546771E-02  0.1171188E+00
         21   -1    0    0  501  502  0.00000000000E+00  0.00000000000E+00  0.57010200497E+02  0.57010200497E+02  0.00000000000E+00 0.  1.
         21   -1    0    0  502  503 -0.00000000000E+00 -0.00000000000E+00 -0.65790748668E+03  0.65790748668E+03  0.00000000000E+00 0. -1.
          6    1    1    2  501    0 -0.62827104805E+00  0.35203625210E+02 -0.15349881476E+03  0.23394566909E+03  0.17300000000E+03 0.  1.
         -6    1    1    2    0  503  0.62827104805E+00 -0.35203625210E+02 -0.44739847143E+03  0.48097201809E+03  0.17300000000E+03 0. -1.
<mgrwt>
<rscale>  2 0.17654657E+03</rscale>
<asrwt>0</asrwt>
<pdfrwt beam="1">  1       21 0.87708007E-02 0.17654657E+03</pdfrwt>
<pdfrwt beam="2">  1       21 0.10121653E+00 0.17654657E+03</pdfrwt>
<totfact> 0.82101792E+04</totfact>
</mgrwt>
</event>
<event>
 4    1  0.4151607E+000  0.2162809E+03  0.7546771E-02  0.1136687E+00
         21   -1    0    0  501  502  0.00000000000E+00  0.00000000000E+00  0.54163699080E+02  0.54163699080E+02  0.00000000000E+00 0. -1.
         21   -1    0    0  502  503 -0.00000000000E+00 -0.00000000000E+00 -0.88714114468E+03  0.88714114468E+03  0.00000000000E+00 0.  1.
          6    1    1    2  501    0  0.12938876184E+03  0.10342368209E+02 -0.33986958308E+03  0.40285077854E+03  0.17300000000E+03 0.  1.
         -6    1    1    2    0  503 -0.12938876184E+03 -0.10342368209E+02 -0.49310786252E+03  0.53845406522E+03  0.17300000000E+03 0. -1.
<mgrwt>
<rscale>  2 0.21628087E+03</rscale>
<asrwt>0</asrwt>
<pdfrwt beam="1">  1       21 0.83328764E-02 0.21628087E+03</pdfrwt>
<pdfrwt beam="2">  1       21 0.13648326E+00 0.21628087E+03</pdfrwt>
<totfact> 0.42144041E+04</totfact>
</mgrwt>
</event>
<event>
 4    1  0.4151607E+000  0.1827909E+03  0.7546771E-02  0.1165129E+00
         21   -1    0    0  503  502  0.00000000000E+00  0.00000000000E+00  0.85801805225E+02  0.85801805225E+02  0.00000000000E+00 0. -1.
         21   -1    0    0  501  503 -0.00000000000E+00 -0.00000000000E+00 -0.76824906805E+03  0.76824906805E+03  0.00000000000E+00 0. -1.
          6    1    1    2  501    0  0.30786261994E+02  0.50355760583E+02 -0.64108970142E+03  0.66663970916E+03  0.17300000000E+03 0. -1.
         -6    1    1    2    0  502 -0.30786261994E+02 -0.50355760583E+02 -0.41357561400E+02  0.18741116412E+03  0.17300000000E+03 0. -1.
<mgrwt>
<rscale>  2 0.18279085E+03</rscale>
<asrwt>0</asrwt>
<pdfrwt beam="1">  1       21 0.13200277E-01 0.18279085E+03</pdfrwt>
<pdfrwt beam="2">  1       21 0.11819217E+00 0.18279085E+03</pdfrwt>
<totfact> 0.27272835E+04</totfact>
</mgrwt>
</event>
<event>
 4    1  0.4151607E+000  0.3019039E+03  0.7546771E-02  0.1084293E+00
         21   -1    0    0  501  502  0.00000000000E+00  0.00000000000E+00  0.22210933588E+03  0.22210933588E+03  0.00000000000E+00 0.  1.
         21   -1    0    0  502  503 -0.00000000000E+00 -0.00000000000E+00 -0.59684946225E+03  0.59684946225E+03  0.00000000000E+00 0. -1.
          6    1    1    2  501    0  0.10628694394E+03 -0.22342798851E+03  0.41516630416E+02  0.30474515764E+03  0.17300000000E+03 0.  1.
         -6    1    1    2    0  503 -0.10628694394E+03  0.22342798851E+03 -0.41625675678E+03  0.51421364049E+03  0.17300000000E+03 0.  1.
<mgrwt>
<rscale>  2 0.30190393E+03</rscale>
<asrwt>0</asrwt>
<pdfrwt beam="1">  1       21 0.34170667E-01 0.30190393E+03</pdfrwt>
<pdfrwt beam="2">  1       21 0.91822995E-01 0.30190393E+03</pdfrwt>
<totfact> 0.77557519E+03</totfact>
</mgrwt>
</event>
<event>
 4    1  0.4151607E+000  0.2004460E+03  0.7546771E-02  0.1149363E+00
         21   -1    0    0  503  502  0.00000000000E+00  0.00000000000E+00  0.26657761896E+02  0.26657761896E+02  0.00000000000E+00 0. -1.
         21   -1    0    0  501  503 -0.00000000000E+00 -0.00000000000E+00 -0.15563893806E+04  0.15563893806E+04  0.00000000000E+00 0. -1.
          6    1    1    2  501    0 -0.10122466956E+03  0.17807053399E+01 -0.90557942076E+03  0.92749808191E+03  0.17300000000E+03 0. -1.
         -6    1    1    2    0  502  0.10122466956E+03 -0.17807053399E+01 -0.62415219795E+03  0.65554906059E+03  0.17300000000E+03 0. -1.
<mgrwt>
<rscale>  2 0.20044601E+03</rscale>
<asrwt>0</asrwt>
<pdfrwt beam="1">  1       21 0.41011936E-02 0.20044601E+03</pdfrwt>
<pdfrwt beam="2">  1       21 0.23944455E+00 0.20044601E+03</pdfrwt>
<totfact> 0.28667726E+04</totfact>
</mgrwt>
</event>
<event>
 4    1  0.4151607E+000  0.1794500E+03  0.7546771E-02  0.1168336E+00
         21   -1    0    0  501  502  0.00000000000E+00  0.00000000000E+00  0.20741341713E+03  0.20741341713E+03  0.00000000000E+00 0. -1.
         21   -1    0    0  502  503 -0.00000000000E+00 -0.00000000000E+00 -0.15576953584E+03  0.15576953584E+03  0.00000000000E+00 0. -1.
          6    1    1    2  501    0 -0.38999313963E+02 -0.27428857977E+02  0.15400862382E+02  0.18010962024E+03  0.17300000000E+03 0. -1.
         -6    1    1    2    0  503  0.38999313963E+02  0.27428857977E+02  0.36243018902E+02  0.18307333273E+03  0.17300000000E+03 0. -1.
<mgrwt>
<rscale>  2 0.17944996E+03</rscale>
<asrwt>0</asrwt>
<pdfrwt beam="1">  1       21 0.31909757E-01 0.17944996E+03</pdfrwt>
<pdfrwt beam="2">  1       21 0.23964544E-01 0.17944996E+03</pdfrwt>
<totfact> 0.15570649E+05</totfact>
</mgrwt>
</event>
<event>
 4    1  0.4151607E+000  0.2070137E+03  0.7546771E-02  0.1143953E+00
         21   -1    0    0  501  502  0.00000000000E+00  0.00000000000E+00  0.50906211079E+03  0.50906211079E+03  0.00000000000E+00 0.  1.
         21   -1    0    0  502  503 -0.00000000000E+00 -0.00000000000E+00 -0.14079128770E+03  0.14079128770E+03  0.00000000000E+00 0.  1.
          6    1    1    2  501    0 -0.16541827780E+02  0.11248125000E+03  0.39016772892E+03  0.44168486544E+03  0.17300000000E+03 0.  1.
         -6    1    1    2    0  503  0.16541827780E+02 -0.11248125000E+03 -0.21896905828E+02  0.20816853305E+03  0.17300000000E+03 0.  1.
<mgrwt>
<rscale>  2 0.20701368E+03</rscale>
<asrwt>0</asrwt>
<pdfrwt beam="1">  1       21 0.78317247E-01 0.20701368E+03</pdfrwt>
<pdfrwt beam="2">  1       21 0.21660198E-01 0.20701368E+03</pdfrwt>
<totfact> 0.28450390E+04</totfact>
</mgrwt>
</event>
<event>
 4    1  0.4151607E+000  0.1977658E+03  0.7546771E-02  0.1151638E+00
         21   -1    0    0  501  502  0.00000000000E+00  0.00000000000E+00  0.27863279826E+03  0.27863279826E+03  0.00000000000E+00 0.  1.
         21   -1    0    0  502  503 -0.00000000000E+00 -0.00000000000E+00 -0.17343756401E+03  0.17343756401E+03  0.00000000000E+00 0.  1.
          6    1    1    2  501    0  0.74265572615E+02 -0.60555225695E+02  0.15129699215E+03  0.24900218969E+03  0.17300000000E+03 0.  1.
         -6    1    1    2    0  503 -0.74265572615E+02  0.60555225695E+02 -0.46101757894E+02  0.20306817258E+03  0.17300000000E+03 0.  1.
<mgrwt>
<rscale>  2 0.19776580E+03</rscale>
<asrwt>0</asrwt>
<pdfrwt beam="1">  1       21 0.42866584E-01 0.19776580E+03</pdfrwt>
<pdfrwt beam="2">  1       21 0.26682702E-01 0.19776580E+03</pdfrwt>
<totfact> 0.69817883E+04</totfact>
</mgrwt>
</event>
<event>
 4    1  0.4151607E+000  0.2195693E+03  0.7546771E-02  0.1134205E+00
         21   -1    0    0  501  502  0.00000000000E+00  0.00000000000E+00  0.11958417171E+03  0.11958417171E+03  0.00000000000E+00 0.  1.
         21   -1    0    0  502  503 -0.00000000000E+00 -0.00000000000E+00 -0.48411257437E+03  0.48411257437E+03  0.00000000000E+00 0.  1.
          6    1    1    2  501    0  0.12779687759E+03 -0.44154429523E+02 -0.58825553223E+02  0.22731278292E+03  0.17300000000E+03 0.  1.
         -6    1    1    2    0  503 -0.12779687759E+03  0.44154429523E+02 -0.30570284944E+03  0.37638396316E+03  0.17300000000E+03 0.  1.
<mgrwt>
<rscale>  2 0.21956925E+03</rscale>
<asrwt>0</asrwt>
<pdfrwt beam="1">  1       21 0.18397565E-01 0.21956925E+03</pdfrwt>
<pdfrwt beam="2">  1       21 0.74478858E-01 0.21956925E+03</pdfrwt>
<totfact> 0.42959197E+04</totfact>
</mgrwt>
</event>
<event>
 4    1  0.4151607E+000  0.1752090E+03  0.7546771E-02  0.1172522E+00
         21   -1    0    0  501  502  0.00000000000E+00  0.00000000000E+00  0.10852061505E+03  0.10852061505E+03  0.00000000000E+00 0.  1.
         21   -1    0    0  502  503 -0.00000000000E+00 -0.00000000000E+00 -0.89293152118E+03  0.89293152118E+03  0.00000000000E+00 0.  1.
          6    1    1    2  501    0  0.41238944115E+01 -0.27426279120E+02  0.21674817018E+02  0.17654462604E+03  0.17300000000E+03 0.  1.
         -6    1    1    2    0  503 -0.41238944115E+01  0.27426279120E+02 -0.80608572315E+03  0.82490751018E+03  0.17300000000E+03 0.  1.
<mgrwt>
<rscale>  2 0.17520904E+03</rscale>
<asrwt>0</asrwt>
<pdfrwt beam="1">  1       21 0.16695480E-01 0.17520904E+03</pdfrwt>
<pdfrwt beam="2">  1       21 0.13737408E+00 0.17520904E+03</pdfrwt>
<totfact> 0.12273167E+04</totfact>
</mgrwt>
</event>
<event>
 4    1  0.4151607E+000  0.2178280E+03  0.7546771E-02  0.1135513E+00
         21   -1    0    0  503  502  0.00000000000E+00  0.00000000000E+00  0.43559192408E+03  0.43559192408E+03  0.00000000000E+00 0.  1.
         21   -1    0    0  501  503 -0.00000000000E+00 -0.00000000000E+00 -0.14305437827E+03  0.14305437827E+03  0.00000000000E+00 0.  1.
          6    1    1    2  501    0 -0.77851339613E+02  0.10704763304E+03  0.49613406769E+01  0.21788446875E+03  0.17300000000E+03 0.  1.
         -6    1    1    2    0  502  0.77851339613E+02 -0.10704763304E+03  0.28757620514E+03  0.36076183360E+03  0.17300000000E+03 0.  1.
<mgrwt>
<rscale>  2 0.21782798E+03</rscale>
<asrwt>0</asrwt>
<pdfrwt beam="1">  1       21 0.67014141E-01 0.21782798E+03</pdfrwt>
<pdfrwt beam="2">  1       21 0.22008366E-01 0.21782798E+03</pdfrwt>
<totfact> 0.38829931E+04</totfact>
</mgrwt>
</event>
<event>
 4    1  0.4151607E+000  0.2275754E+03  0.7546771E-02  0.1128358E+00
         21   -1    0    0  503  502  0.00000000000E+00  0.00000000000E+00  0.33111371064E+03  0.33111371064E+03  0.00000000000E+00 0. -1.
         21   -1    0    0  501  503 -0.00000000000E+00 -0.00000000000E+00 -0.18954077460E+03  0.18954077460E+03  0.00000000000E+00 0. -1.
          6    1    1    2  501    0 -0.61509746648E+02 -0.13445495480E+03 -0.38047018901E+02  0.23073395817E+03  0.17300000000E+03 0. -1.
         -6    1    1    2    0  502  0.61509746648E+02  0.13445495480E+03  0.17961995495E+03  0.28992052707E+03  0.17300000000E+03 0. -1.
<mgrwt>
<rscale>  2 0.22757545E+03</rscale>
<asrwt>0</asrwt>
<pdfrwt beam="1">  1       21 0.50940571E-01 0.22757545E+03</pdfrwt>
<pdfrwt beam="2">  1       21 0.29160119E-01 0.22757545E+03</pdfrwt>
<totfact> 0.40571651E+04</totfact>
</mgrwt>
</event>
<event>
 4    1  0.4151607E+000  0.2255499E+03  0.7546771E-02  0.1129812E+00
         21   -1    0    0  501  502  0.00000000000E+00  0.00000000000E+00  0.85151624821E+02  0.85151624821E+02  0.00000000000E+00 0.  1.
         21   -1    0    0  502  503 -0.00000000000E+00 -0.00000000000E+00 -0.62460739313E+03  0.62460739313E+03  0.00000000000E+00 0. -1.
          6    1    1    2  501    0  0.14250995065E+03 -0.25192697804E+02 -0.19571236137E+03  0.29862365353E+03  0.17300000000E+03 0.  1.
         -6    1    1    2    0  503 -0.14250995065E+03  0.25192697804E+02 -0.34374340694E+03  0.41113536442E+03  0.17300000000E+03 0. -1.
<mgrwt>
<rscale>  2 0.22554990E+03</rscale>
<asrwt>0</asrwt>
<pdfrwt beam="1">  1       21 0.13100250E-01 0.22554990E+03</pdfrwt>
<pdfrwt beam="2">  1       21 0.96093447E-01 0.22554990E+03</pdfrwt>
<totfact> 0.44468751E+04</totfact>
</mgrwt>
</event>
<event>
 4    1  0.4151607E+000  0.1947829E+03  0.7546771E-02  0.1154217E+00
         21   -1    0    0  501  502  0.00000000000E+00  0.00000000000E+00  0.31469482980E+03  0.31469482980E+03  0.00000000000E+00 0. -1.
         21   -1    0    0  502  503 -0.00000000000E+00 -0.00000000000E+00 -0.16444364082E+03  0.16444364082E+03  0.00000000000E+00 0. -1.
          6    1    1    2  501    0  0.88710668945E+02 -0.11907770368E+02  0.19888030457E+03  0.27837699856E+03  0.17300000000E+03 0. -1.
         -6    1    1    2    0  503 -0.88710668945E+02  0.11907770368E+02 -0.48629115597E+02  0.20076147206E+03  0.17300000000E+03 0. -1.
<mgrwt>
<rscale>  2 0.19478290E+03</rscale>
<asrwt>0</asrwt>
<pdfrwt beam="1">  1       21 0.48414589E-01 0.19478290E+03</pdfrwt>
<pdfrwt beam="2">  1       21 0.25299022E-01 0.19478290E+03</pdfrwt>
<totfact> 0.60273868E+04</totfact>
</mgrwt>
</event>
<event>
 4    1  0.4151607E+000  0.2930233E+03  0.7546771E-02  0.1088781E+00
         21   -1    0    0  503  502  0.00000000000E+00  0.00000000000E+00  0.25458748991E+03  0.25458748991E+03  0.00000000000E+00 0.  1.
         21   -1    0    0  501  503 -0.00000000000E+00 -0.00000000000E+00 -0.62691880309E+03  0.62691880309E+03  0.00000000000E+00 0. -1.
          6    1    1    2  501    0  0.23297248091E+03  0.40711999979E+02 -0.48575872731E+03  0.56729550057E+03  0.17300000000E+03 0. -1.
         -6    1    1    2    0  502 -0.23297248091E+03 -0.40711999979E+02  0.11342741413E+03  0.31421079243E+03  0.17300000000E+03 0.  1.
<mgrwt>
<rscale>  2 0.29302328E+03</rscale>
<asrwt>0</asrwt>
<pdfrwt beam="1">  1       21 0.39167307E-01 0.29302328E+03</pdfrwt>
<pdfrwt beam="2">  1       21 0.96449045E-01 0.29302328E+03</pdfrwt>
<totfact> 0.52664034E+03</totfact>
</mgrwt>
</event>
<event>
 4    1  0.4151607E+000  0.2060221E+03  0.7546771E-02  0.1144755E+00
         21   -1    0    0  503  502  0.00000000000E+00  0.00000000000E+00  0.77337740970E+02  0.77337740970E+02  0.00000000000E+00 0.  1.
         21   -1    0    0  501  503 -0.00000000000E+00 -0.00000000000E+00 -0.26673607274E+04  0.26673607274E+04  0.00000000000E+00 0.  1.
          6    1    1    2  501    0 -0.10464801519E+03 -0.39558630739E+02 -0.25180535469E+04  0.25264676443E+04  0.17300000000E+03 0.  1.
         -6    1    1    2    0  502  0.10464801519E+03  0.39558630739E+02 -0.71969439450E+02  0.21823082405E+03  0.17300000000E+03 0.  1.
<mgrwt>
<rscale>  2 0.20602207E+03</rscale>
<asrwt>0</asrwt>
<pdfrwt beam="1">  1       21 0.11898116E-01 0.20602207E+03</pdfrwt>
<pdfrwt beam="2">  1       21 0.41036311E+00 0.20602207E+03</pdfrwt>
<totfact> 0.43763795E+02</totfact>
</mgrwt>
</event>
<event>
 4    1  0.4151607E+000  0.1775505E+03  0.7546771E-02  0.1170195E+00
         21   -1    0    0  503  502  0.00000000000E+00  0.00000000000E+00  0.25556641897E+03  0.25556641897E+03  0.00000000000E+00 0.  1.
         21   -1    0    0  501  503 -0.00000000000E+00 -0.00000000000E+00 -0.14112804024E+03  0.14112804024E+03  0.00000000000E+00 0.  1.
          6    1    1    2  501    0 -0.14909542982E+02 -0.37052674070E+02 -0.13178390499E+02  0.17803894266E+03  0.17300000000E+03 0.  1.
         -6    1    1    2    0  502  0.14909542982E+02  0.37052674070E+02  0.12761676923E+03  0.21865551655E+03  0.17300000000E+03 0.  1.
<mgrwt>
<rscale>  2 0.17755054E+03</rscale>
<asrwt>0</asrwt>
<pdfrwt beam="1">  1       21 0.39317911E-01 0.17755054E+03</pdfrwt>
<pdfrwt beam="2">  1       21 0.21712006E-01 0.17755054E+03</pdfrwt>
<totfact> 0.12405645E+05</totfact>
</mgrwt>
</event>
<event>
 4    1  0.4151607E+000  0.2512478E+03  0.7546771E-02  0.1112519E+00
         21   -1    0    0  503  502  0.00000000000E+00  0.00000000000E+00  0.16035060608E+03  0.16035060608E+03  0.00000000000E+00 0.  1.
         21   -1    0    0  501  503 -0.00000000000E+00 -0.00000000000E+00 -0.43501681294E+03  0.43501681294E+03  0.00000000000E+00 0. -1.
          6    1    1    2  501    0  0.18197948507E+03 -0.89386297480E+01 -0.22910637680E+03  0.34002229924E+03  0.17300000000E+03 0. -1.
         -6    1    1    2    0  502 -0.18197948507E+03  0.89386297480E+01 -0.45559830061E+02  0.25534511979E+03  0.17300000000E+03 0.  1.
<mgrwt>
<rscale>  2 0.25124775E+03</rscale>
<asrwt>0</asrwt>
<pdfrwt beam="1">  1       21 0.24669325E-01 0.25124775E+03</pdfrwt>
<pdfrwt beam="2">  1       21 0.66925662E-01 0.25124775E+03</pdfrwt>
<totfact> 0.30854758E+04</totfact>
</mgrwt>
</event>
<event>
 4    1  0.4151607E+000  0.2175493E+03  0.7546771E-02  0.1135723E+00
         21   -1    0    0  503  502  0.00000000000E+00  0.00000000000E+00  0.69470408049E+02  0.69470408049E+02  0.00000000000E+00 0. -1.
         21   -1    0    0  501  503 -0.00000000000E+00 -0.00000000000E+00 -0.74386720030E+03  0.74386720030E+03  0.00000000000E+00 0. -1.
          6    1    1    2  501    0  0.82586410906E+02 -0.10285035702E+03 -0.45517347224E+03  0.50449043701E+03  0.17300000000E+03 0. -1.
         -6    1    1    2    0  502 -0.82586410906E+02  0.10285035702E+03 -0.21922332002E+03  0.30884717134E+03  0.17300000000E+03 0. -1.
<mgrwt>
<rscale>  2 0.21754933E+03</rscale>
<asrwt>0</asrwt>
<pdfrwt beam="1">  1       21 0.10687755E-01 0.21754933E+03</pdfrwt>
<pdfrwt beam="2">  1       21 0.11444111E+00 0.21754933E+03</pdfrwt>
<totfact> 0.42228778E+04</totfact>
</mgrwt>
</event>
<event>
 4    1  0.4151607E+000  0.2296876E+03  0.7546771E-02  0.1126860E+00
         21   -1    0    0  503  502  0.00000000000E+00  0.00000000000E+00  0.22073106177E+03  0.22073106177E+03  0.00000000000E+00 0. -1.
         21   -1    0    0  501  503 -0.00000000000E+00 -0.00000000000E+00 -0.27730579972E+03  0.27730579972E+03  0.00000000000E+00 0. -1.
          6    1    1    2  501    0  0.95950867897E+02 -0.11670838570E+03 -0.12082977987E+03  0.25953083063E+03  0.17300000000E+03 0. -1.
         -6    1    1    2    0  502 -0.95950867897E+02  0.11670838570E+03  0.64255041915E+02  0.23850603086E+03  0.17300000000E+03 0. -1.
<mgrwt>
<rscale>  2 0.22968765E+03</rscale>
<asrwt>0</asrwt>
<pdfrwt beam="1">  1       21 0.33958625E-01 0.22968765E+03</pdfrwt>
<pdfrwt beam="2">  1       21 0.42662431E-01 0.22968765E+03</pdfrwt>
<totfact> 0.43377263E+04</totfact>
</mgrwt>
</event>
<event>
 4    1  0.4151607E+000  0.2571602E+03  0.7546771E-02  0.1108862E+00
         21   -1    0    0  503  502  0.00000000000E+00  0.00000000000E+00  0.16878258633E+03  0.16878258633E+03  0.00000000000E+00 0.  1.
         21   -1    0    0  501  503 -0.00000000000E+00 -0.00000000000E+00 -0.42398792122E+03  0.42398792122E+03  0.00000000000E+00 0. -1.
          6    1    1    2  501    0  0.10707732795E+03 -0.15727947028E+03 -0.20924804865E+03  0.33153601885E+03  0.17300000000E+03 0. -1.
         -6    1    1    2    0  502 -0.10707732795E+03  0.15727947028E+03 -0.45957286235E+02  0.26123448870E+03  0.17300000000E+03 0.  1.
<mgrwt>
<rscale>  2 0.25716023E+03</rscale>
<asrwt>0</asrwt>
<pdfrwt beam="1">  1       21 0.25966552E-01 0.25716023E+03</pdfrwt>
<pdfrwt beam="2">  1       21 0.65228910E-01 0.25716023E+03</pdfrwt>
<totfact> 0.29504649E+04</totfact>
</mgrwt>
</event>
<event>
 4    1  0.4151607E+000  0.1739708E+03  0.7546771E-02  0.1173769E+00
         21   -1    0    0  503  502  0.00000000000E+00  0.00000000000E+00  0.14638103541E+03  0.14638103541E+03  0.00000000000E+00 0.  1.
         21   -1    0    0  501  503 -0.00000000000E+00 -0.00000000000E+00 -0.21920124192E+03  0.21920124192E+03  0.00000000000E+00 0.  1.
          6    1    1    2  501    0 -0.18340286137E+02 -0.67806640565E+00 -0.79956838920E+02  0.19146519778E+03  0.17300000000E+03 0.  1.
         -6    1    1    2    0  502  0.18340286137E+02  0.67806640565E+00  0.71366324051E+01  0.17411707955E+03  0.17300000000E+03 0.  1.
<mgrwt>
<rscale>  2 0.17397076E+03</rscale>
<asrwt>0</asrwt>
<pdfrwt beam="1">  1       21 0.22520159E-01 0.17397076E+03</pdfrwt>
<pdfrwt beam="2">  1       21 0.33723268E-01 0.17397076E+03</pdfrwt>
<totfact> 0.15738373E+05</totfact>
</mgrwt>
</event>
<event>
 4    1  0.4151607E+000  0.1763953E+03  0.7546771E-02  0.1171338E+00
         21   -1    0    0  503  502  0.00000000000E+00  0.00000000000E+00  0.88172431573E+02  0.88172431573E+02  0.00000000000E+00 0.  1.
         21   -1    0    0  501  503 -0.00000000000E+00 -0.00000000000E+00 -0.80323818624E+03  0.80323818624E+03  0.00000000000E+00 0.  1.
          6    1    1    2  501    0  0.37935368261E+01 -0.34233388770E+02 -0.69126579232E+03  0.71341692681E+03  0.17300000000E+03 0.  1.
         -6    1    1    2    0  502 -0.37935368261E+01  0.34233388770E+02 -0.23799962346E+02  0.17799369100E+03  0.17300000000E+03 0.  1.
<mgrwt>
<rscale>  2 0.17639534E+03</rscale>
<asrwt>0</asrwt>
<pdfrwt beam="1">  1       21 0.13564989E-01 0.17639534E+03</pdfrwt>
<pdfrwt beam="2">  1       21 0.12357511E+00 0.17639534E+03</pdfrwt>
<totfact> 0.23346261E+04</totfact>
</mgrwt>
</event>
<event>
 4    1  0.4151607E+000  0.2451922E+03  0.7546771E-02  0.1116381E+00
         21   -1    0    0  501  502  0.00000000000E+00  0.00000000000E+00  0.37853246005E+03  0.37853246005E+03  0.00000000000E+00 0.  1.
         21   -1    0    0  502  503 -0.00000000000E+00 -0.00000000000E+00 -0.17606337351E+03  0.17606337351E+03  0.00000000000E+00 0. -1.
          6    1    1    2  501    0 -0.14483627083E+03 -0.95982582340E+02  0.18801076155E+03  0.30897774664E+03  0.17300000000E+03 0. -1.
         -6    1    1    2    0  503  0.14483627083E+03  0.95982582340E+02  0.14458324986E+02  0.24561808692E+03  0.17300000000E+03 0.  1.
<mgrwt>
<rscale>  2 0.24519217E+03</rscale>
<asrwt>0</asrwt>
<pdfrwt beam="1">  1       21 0.58235763E-01 0.24519217E+03</pdfrwt>
<pdfrwt beam="2">  1       21 0.27086673E-01 0.24519217E+03</pdfrwt>
<totfact> 0.34966351E+04</totfact>
</mgrwt>
</event>
<event>
 4    1  0.4151607E+000  0.2765721E+03  0.7546771E-02  0.1097576E+00
         21   -1    0    0  501  502  0.00000000000E+00  0.00000000000E+00  0.12963125935E+03  0.12963125935E+03  0.00000000000E+00 0.  1.
         21   -1    0    0  502  503 -0.00000000000E+00 -0.00000000000E+00 -0.76800061312E+03  0.76800061312E+03  0.00000000000E+00 0. -1.
          6    1    1    2  501    0 -0.21134034682E+03 -0.43570551648E+02 -0.10315818874E+03  0.29518425952E+03  0.17300000000E+03 0.  1.
         -6    1    1    2    0  503  0.21134034682E+03  0.43570551648E+02 -0.53521116504E+03  0.60244761295E+03  0.17300000000E+03 0. -1.
<mgrwt>
<rscale>  2 0.27657212E+03</rscale>
<asrwt>0</asrwt>
<pdfrwt beam="1">  1       21 0.19943271E-01 0.27657212E+03</pdfrwt>
<pdfrwt beam="2">  1       21 0.11815394E+00 0.27657212E+03</pdfrwt>
<totfact> 0.12112019E+04</totfact>
</mgrwt>
</event>
<event>
 4    1  0.4151607E+000  0.1739252E+03  0.7546771E-02  0.1173815E+00
         21   -1    0    0  503  502  0.00000000000E+00  0.00000000000E+00  0.10797151945E+03  0.10797151945E+03  0.00000000000E+00 0.  1.
         21   -1    0    0  501  503 -0.00000000000E+00 -0.00000000000E+00 -0.32639506971E+03  0.32639506971E+03  0.00000000000E+00 0.  1.
          6    1    1    2  501    0  0.97658219473E+01 -0.15019809679E+02 -0.19094741159E+03  0.25828449422E+03  0.17300000000E+03 0.  1.
         -6    1    1    2    0  502 -0.97658219473E+01  0.15019809679E+02 -0.27476138667E+02  0.17608209494E+03  0.17300000000E+03 0.  1.
<mgrwt>
<rscale>  2 0.17392517E+03</rscale>
<asrwt>0</asrwt>
<pdfrwt beam="1">  1       21 0.16611003E-01 0.17392517E+03</pdfrwt>
<pdfrwt beam="2">  1       21 0.50214626E-01 0.17392517E+03</pdfrwt>
<totfact> 0.12375765E+05</totfact>
</mgrwt>
</event>
<event>
 4    1  0.4151607E+000  0.2099825E+03  0.7546771E-02  0.1141580E+00
         21   -1    0    0  503  502  0.00000000000E+00  0.00000000000E+00  0.62168350347E+02  0.62168350347E+02  0.00000000000E+00 0.  1.
         21   -1    0    0  501  503 -0.00000000000E+00 -0.00000000000E+00 -0.96076862093E+03  0.96076862093E+03  0.00000000000E+00 0. -1.
          6    1    1    2  501    0 -0.86744922465E+01  0.11869459003E+03 -0.71099669733E+03  0.74135616011E+03  0.17300000000E+03 0. -1.
         -6    1    1    2    0  502  0.86744922465E+01 -0.11869459003E+03 -0.18760357325E+03  0.28158081116E+03  0.17300000000E+03 0.  1.
<mgrwt>
<rscale>  2 0.20998251E+03</rscale>
<asrwt>0</asrwt>
<pdfrwt beam="1">  1       21 0.95643611E-02 0.20998251E+03</pdfrwt>
<pdfrwt beam="2">  1       21 0.14781056E+00 0.20998251E+03</pdfrwt>
<totfact> 0.26974594E+04</totfact>
</mgrwt>
</event>
<event>
 4    1  0.4151607E+000  0.1911264E+03  0.7546771E-02  0.1157449E+00
         21   -1    0    0  501  502  0.00000000000E+00  0.00000000000E+00  0.63806742145E+02  0.63806742145E+02  0.00000000000E+00 0. -1.
         21   -1    0    0  502  503 -0.00000000000E+00 -0.00000000000E+00 -0.12598875953E+04  0.12598875953E+04  0.00000000000E+00 0. -1.
          6    1    1    2  501    0 -0.77000181880E+02 -0.25908650794E+02 -0.10917083375E+03  0.22010805787E+03  0.17300000000E+03 0. -1.
         -6    1    1    2    0  503  0.77000181880E+02  0.25908650794E+02 -0.10869100194E+04  0.11035862796E+04  0.17300000000E+03 0. -1.
<mgrwt>
<rscale>  2 0.19112636E+03</rscale>
<asrwt>0</asrwt>
<pdfrwt beam="1">  1       21 0.98164219E-02 0.19112636E+03</pdfrwt>
<pdfrwt beam="2">  1       21 0.19382886E+00 0.19112636E+03</pdfrwt>
<totfact> 0.12357738E+04</totfact>
</mgrwt>
</event>
<event>
 4    1  0.4151607E+000  0.1831840E+03  0.7546771E-02  0.1164757E+00
         21   -1    0    0  503  502  0.00000000000E+00  0.00000000000E+00  0.35138310970E+02  0.35138310970E+02  0.00000000000E+00 0.  1.
         21   -1    0    0  501  503 -0.00000000000E+00 -0.00000000000E+00 -0.23350642032E+04  0.23350642032E+04  0.00000000000E+00 0.  1.
          6    1    1    2  501    0 -0.43913732973E+02 -0.41218525752E+02 -0.20610478368E+04  0.20691724357E+04  0.17300000000E+03 0.  1.
         -6    1    1    2    0  502  0.43913732973E+02  0.41218525752E+02 -0.23887805536E+03  0.30103007847E+03  0.17300000000E+03 0.  1.
<mgrwt>
<rscale>  2 0.18318401E+03</rscale>
<asrwt>0</asrwt>
<pdfrwt beam="1">  1       21 0.54058935E-02 0.18318401E+03</pdfrwt>
<pdfrwt beam="2">  1       21 0.35924068E+00 0.18318401E+03</pdfrwt>
<totfact> 0.36791168E+03</totfact>
</mgrwt>
</event>
<event>
 4    1  0.4151607E+000  0.1778682E+03  0.7546771E-02  0.1169882E+00
         21   -1    0    0  501  502  0.00000000000E+00  0.00000000000E+00  0.89280945094E+03  0.89280945094E+03  0.00000000000E+00 0. -1.
         21   -1    0    0  502  503 -0.00000000000E+00 -0.00000000000E+00 -0.39031878158E+02  0.39031878158E+02  0.00000000000E+00 0. -1.
          6    1    1    2  501    0  0.37158820875E+02  0.18092426052E+02  0.56831741205E+03  0.59550129696E+03  0.17300000000E+03 0. -1.
         -6    1    1    2    0  503 -0.37158820875E+02 -0.18092426052E+02  0.28546016073E+03  0.33634003213E+03  0.17300000000E+03 0. -1.
<mgrwt>
<rscale>  2 0.17786825E+03</rscale>
<asrwt>0</asrwt>
<pdfrwt beam="1">  1       21 0.13735528E+00 0.17786825E+03</pdfrwt>
<pdfrwt beam="2">  1       21 0.60049050E-02 0.17786825E+03</pdfrwt>
<totfact> 0.74551732E+04</totfact>
</mgrwt>
</event>
<event>
 4    1  0.4151607E+000  0.2309302E+03  0.7546771E-02  0.1125987E+00
         21   -1    0    0  501  502  0.00000000000E+00  0.00000000000E+00  0.15695159053E+03  0.15695159053E+03  0.00000000000E+00 0. -1.
         21   -1    0    0  502  503 -0.00000000000E+00 -0.00000000000E+00 -0.45419598836E+03  0.45419598836E+03  0.00000000000E+00 0.  1.
          6    1    1    2  501    0  0.87498347089E+02  0.12547432758E+03  0.47479217626E+01  0.23097902586E+03  0.17300000000E+03 0.  1.
         -6    1    1    2    0  503 -0.87498347089E+02 -0.12547432758E+03 -0.30199231959E+03  0.38016855303E+03  0.17300000000E+03 0.  1.
<mgrwt>
<rscale>  2 0.23093022E+03</rscale>
<asrwt>0</asrwt>
<pdfrwt beam="1">  1       21 0.24146399E-01 0.23093022E+03</pdfrwt>
<pdfrwt beam="2">  1       21 0.69876305E-01 0.23093022E+03</pdfrwt>
<totfact> 0.29500164E+04</totfact>
</mgrwt>
</event>
<event>
 4    1  0.4151607E+000  0.2463590E+03  0.7546771E-02  0.1115628E+00
         21   -1    0    0  503  502  0.00000000000E+00  0.00000000000E+00  0.10628058541E+04  0.10628058541E+04  0.00000000000E+00 0.  1.
         21   -1    0    0  501  503 -0.00000000000E+00 -0.00000000000E+00 -0.61491673487E+03  0.61491673487E+03  0.00000000000E+00 0. -1.
          6    1    1    2  501    0 -0.17372316919E+03  0.24166103879E+02 -0.57501607053E+03  0.62556871841E+03  0.17300000000E+03 0. -1.
         -6    1    1    2    0  502  0.17372316919E+03 -0.24166103879E+02  0.10229051898E+04  0.10521538706E+04  0.17300000000E+03 0.  1.
<mgrwt>
<rscale>  2 0.24635897E+03</rscale>
<asrwt>0</asrwt>
<pdfrwt beam="1">  1       21 0.16350859E+00 0.24635897E+03</pdfrwt>
<pdfrwt beam="2">  1       21 0.94602575E-01 0.24635897E+03</pdfrwt>
<totfact> 0.20879376E+02</totfact>
</mgrwt>
</event>
<event>
 4    1  0.4151607E+000  0.1898482E+03  0.7546771E-02  0.1158598E+00
         21   -1    0    0  503  502  0.00000000000E+00  0.00000000000E+00  0.13578503557E+03  0.13578503557E+03  0.00000000000E+00 0.  1.
         21   -1    0    0  501  503 -0.00000000000E+00 -0.00000000000E+00 -0.30361176902E+03  0.30361176902E+03  0.00000000000E+00 0.  1.
          6    1    1    2  501    0  0.19842287043E+02 -0.75628207097E+02 -0.16181688665E+03  0.24945349641E+03  0.17300000000E+03 0. -1.
         -6    1    1    2    0  502 -0.19842287043E+02  0.75628207097E+02 -0.60098467999E+01  0.18994330818E+03  0.17300000000E+03 0. -1.
<mgrwt>
<rscale>  2 0.18984821E+03</rscale>
<asrwt>0</asrwt>
<pdfrwt beam="1">  1       21 0.20890005E-01 0.18984821E+03</pdfrwt>
<pdfrwt beam="2">  1       21 0.46709503E-01 0.18984821E+03</pdfrwt>
<totfact> 0.93475083E+04</totfact>
</mgrwt>
</event>
<event>
 4    1  0.4151607E+000  0.2485444E+03  0.7546771E-02  0.1114228E+00
         21   -1    0    0  501  502  0.00000000000E+00  0.00000000000E+00  0.59381533305E+03  0.59381533305E+03  0.00000000000E+00 0.  1.
         21   -1    0    0  502  503 -0.00000000000E+00 -0.00000000000E+00 -0.11053189056E+03  0.11053189056E+03  0.00000000000E+00 0.  1.
          6    1    1    2  501    0 -0.34528946138E+02 -0.17508011582E+03  0.32705993795E+03  0.41078278699E+03  0.17300000000E+03 0.  1.
         -6    1    1    2    0  503  0.34528946138E+02  0.17508011582E+03  0.15622350454E+03  0.29356443662E+03  0.17300000000E+03 0.  1.
<mgrwt>
<rscale>  2 0.24854435E+03</rscale>
<asrwt>0</asrwt>
<pdfrwt beam="1">  1       21 0.91356204E-01 0.24854435E+03</pdfrwt>
<pdfrwt beam="2">  1       21 0.17004907E-01 0.24854435E+03</pdfrwt>
<totfact> 0.30744615E+04</totfact>
</mgrwt>
</event>
<event>
 4    1  0.4151607E+000  0.2528367E+03  0.7546771E-02  0.1111525E+00
         21   -1    0    0  503  502  0.00000000000E+00  0.00000000000E+00  0.20748438607E+03  0.20748438607E+03  0.00000000000E+00 0.  1.
         21   -1    0    0  501  503 -0.00000000000E+00 -0.00000000000E+00 -0.31830199224E+03  0.31830199224E+03  0.00000000000E+00 0. -1.
          6    1    1    2  501    0 -0.11368326271E+03  0.14516711820E+03 -0.10246938665E+03  0.27281193454E+03  0.17300000000E+03 0.  1.
         -6    1    1    2    0  502  0.11368326271E+03 -0.14516711820E+03 -0.83482195230E+01  0.25297444376E+03  0.17300000000E+03 0. -1.
<mgrwt>
<rscale>  2 0.25283666E+03</rscale>
<asrwt>0</asrwt>
<pdfrwt beam="1">  1       21 0.31920675E-01 0.25283666E+03</pdfrwt>
<pdfrwt beam="2">  1       21 0.48969537E-01 0.25283666E+03</pdfrwt>
<totfact> 0.36496165E+04</totfact>
</mgrwt>
</event>
<event>
 4    1  0.4151607E+000  0.1829994E+03  0.7546771E-02  0.1164931E+00
         21   -1    0    0  501  502  0.00000000000E+00  0.00000000000E+00  0.54829031978E+02  0.54829031978E+02  0.00000000000E+00 0.  1.
         21   -1    0    0  502  503 -0.00000000000E+00 -0.00000000000E+00 -0.73871839305E+03  0.73871839305E+03  0.00000000000E+00 0.  1.
          6    1    1    2  501    0  0.98530908461E+01  0.58844770722E+02 -0.17682678253E+03  0.25447298768E+03  0.17300000000E+03 0.  1.
         -6    1    1    2    0  503 -0.98530908461E+01 -0.58844770722E+02 -0.50706257855E+03  0.53907443735E+03  0.17300000000E+03 0.  1.
<mgrwt>
<rscale>  2 0.18299943E+03</rscale>
<asrwt>0</asrwt>
<pdfrwt beam="1">  1       21 0.84352365E-02 0.18299943E+03</pdfrwt>
<pdfrwt beam="2">  1       21 0.11364897E+00 0.18299943E+03</pdfrwt>
<totfact> 0.66321847E+04</totfact>
</mgrwt>
</event>
<event>
 4    1  0.4151607E+000  0.3845927E+03  0.7546771E-02  0.1049249E+00
         21   -1    0    0  501  502  0.00000000000E+00  0.00000000000E+00  0.23275552014E+04  0.23275552014E+04  0.00000000000E+00 0.  1.
         21   -1    0    0  502  503 -0.00000000000E+00 -0.00000000000E+00 -0.63860389663E+02  0.63860389663E+02  0.00000000000E+00 0. -1.
          6    1    1    2  501    0 -0.22586278462E+03  0.25878277973E+03  0.10482209520E+04  0.11165476652E+04  0.17300000000E+03 0.  1.
         -6    1    1    2    0  503  0.22586278462E+03 -0.25878277973E+03  0.12154738597E+04  0.12748679258E+04  0.17300000000E+03 0. -1.
<mgrwt>
<rscale>  2 0.38459267E+03</rscale>
<asrwt>0</asrwt>
<pdfrwt beam="1">  1       21 0.35808535E+00 0.38459267E+03</pdfrwt>
<pdfrwt beam="2">  1       21 0.98246771E-02 0.38459267E+03</pdfrwt>
<totfact> 0.10845384E+03</totfact>
</mgrwt>
</event>
<event>
 4    1  0.4151607E+000  0.4780601E+03  0.7546771E-02  0.1019670E+00
         21   -1    0    0  503  502  0.00000000000E+00  0.00000000000E+00  0.45516778257E+03  0.45516778257E+03  0.00000000000E+00 0.  1.
         21   -1    0    0  501  503 -0.00000000000E+00 -0.00000000000E+00 -0.75363868131E+03  0.75363868131E+03  0.00000000000E+00 0. -1.
          6    1    1    2  501    0  0.40084012272E+03  0.19478112123E+03 -0.49841135383E+03  0.69061955286E+03  0.17300000000E+03 0. -1.
         -6    1    1    2    0  502 -0.40084012272E+03 -0.19478112123E+03  0.19994045509E+03  0.51818691102E+03  0.17300000000E+03 0.  1.
<mgrwt>
<rscale>  2 0.47806013E+03</rscale>
<asrwt>0</asrwt>
<pdfrwt beam="1">  1       21 0.70025813E-01 0.47806013E+03</pdfrwt>
<pdfrwt beam="2">  1       21 0.11594441E+00 0.47806013E+03</pdfrwt>
<totfact> 0.89110319E+02</totfact>
</mgrwt>
</event>
<event>
 4    1  0.4151607E+000  0.1805645E+03  0.7546771E-02  0.1167258E+00
         21   -1    0    0  501  502  0.00000000000E+00  0.00000000000E+00  0.39597579779E+03  0.39597579779E+03  0.00000000000E+00 0.  1.
         21   -1    0    0  502  503 -0.00000000000E+00 -0.00000000000E+00 -0.12753701331E+03  0.12753701331E+03  0.00000000000E+00 0.  1.
          6    1    1    2  501    0  0.15541326467E+01 -0.51692486235E+02  0.29004816088E+03  0.34165986608E+03  0.17300000000E+03 0.  1.
         -6    1    1    2    0  503 -0.15541326467E+01  0.51692486235E+02 -0.21609376411E+02  0.18185294501E+03  0.17300000000E+03 0.  1.
<mgrwt>
<rscale>  2 0.18056447E+03</rscale>
<asrwt>0</asrwt>
<pdfrwt beam="1">  1       21 0.60919353E-01 0.18056447E+03</pdfrwt>
<pdfrwt beam="2">  1       21 0.19621079E-01 0.18056447E+03</pdfrwt>
<totfact> 0.60319520E+04</totfact>
</mgrwt>
</event>
<event>
 4    1  0.4151607E+000  0.1747219E+03  0.7546771E-02  0.1173011E+00
         21   -1    0    0  501  502  0.00000000000E+00  0.00000000000E+00  0.15164915293E+03  0.15164915293E+03  0.00000000000E+00 0.  1.
         21   -1    0    0  502  503 -0.00000000000E+00 -0.00000000000E+00 -0.23455885555E+03  0.23455885555E+03  0.00000000000E+00 0.  1.
          6    1    1    2  501    0  0.22953149737E+02 -0.84787658040E+01  0.31253818751E+02  0.17749517666E+03  0.17300000000E+03 0.  1.
         -6    1    1    2    0  503 -0.22953149737E+02  0.84787658040E+01 -0.11416352137E+03  0.20871283181E+03  0.17300000000E+03 0.  1.
<mgrwt>
<rscale>  2 0.17472188E+03</rscale>
<asrwt>0</asrwt>
<pdfrwt beam="1">  1       21 0.23330639E-01 0.17472188E+03</pdfrwt>
<pdfrwt beam="2">  1       21 0.36085978E-01 0.17472188E+03</pdfrwt>
<totfact> 0.12872337E+05</totfact>
</mgrwt>
</event>
<event>
 4    1  0.4151607E+000  0.2130777E+03  0.7546771E-02  0.1139152E+00
         21   -1    0    0  503  502  0.00000000000E+00  0.00000000000E+00  0.69377265121E+02  0.69377265121E+02  0.00000000000E+00 0. -1.
         21   -1    0    0  501  503 -0.00000000000E+00 -0.00000000000E+00 -0.71484783277E+03  0.71484783277E+03  0.00000000000E+00 0. -1.
          6    1    1    2  501    0 -0.11774441239E+03 -0.40116898289E+02 -0.43673660799E+03  0.48594338861E+03  0.17300000000E+03 0. -1.
         -6    1    1    2    0  502  0.11774441239E+03  0.40116898289E+02 -0.20873395966E+03  0.29828170928E+03  0.17300000000E+03 0. -1.
<mgrwt>
<rscale>  2 0.21307771E+03</rscale>
<asrwt>0</asrwt>
<pdfrwt beam="1">  1       21 0.10673426E-01 0.21307771E+03</pdfrwt>
<pdfrwt beam="2">  1       21 0.10997658E+00 0.21307771E+03</pdfrwt>
<totfact> 0.46744608E+04</totfact>
</mgrwt>
</event>
<event>
 4    1  0.4151607E+000  0.2109746E+03  0.7546771E-02  0.1140797E+00
         21   -1    0    0  501  502  0.00000000000E+00  0.00000000000E+00  0.14582796308E+04  0.14582796308E+04  0.00000000000E+00 0. -1.
         21   -1    0    0  502  503 -0.00000000000E+00 -0.00000000000E+00 -0.55328788345E+02  0.55328788345E+02  0.00000000000E+00 0.  1.
          6    1    1    2  501    0 -0.96960386865E+02 -0.71971851064E+02  0.12082202315E+04  0.12265016884E+04  0.17300000000E+03 0. -1.
         -6    1    1    2    0  503  0.96960386865E+02  0.71971851064E+02  0.19473061095E+03  0.28710673069E+03  0.17300000000E+03 0.  1.
<mgrwt>
<rscale>  2 0.21097456E+03</rscale>
<asrwt>0</asrwt>
<pdfrwt beam="1">  1       21 0.22435068E+00 0.21097456E+03</pdfrwt>
<pdfrwt beam="2">  1       21 0.85121224E-02 0.21097456E+03</pdfrwt>
<totfact> 0.10029003E+04</totfact>
</mgrwt>
</event>
<event>
 4    1  0.4151607E+000  0.1744183E+03  0.7546771E-02  0.1173317E+00
         21   -1    0    0  501  502  0.00000000000E+00  0.00000000000E+00  0.14223581055E+04  0.14223581055E+04  0.00000000000E+00 0. -1.
         21   -1    0    0  502  503 -0.00000000000E+00 -0.00000000000E+00 -0.31472726361E+03  0.31472726361E+03  0.00000000000E+00 0. -1.
          6    1    1    2  501    0 -0.10881686857E+02 -0.19347318117E+02  0.13923266991E+04  0.14032089534E+04  0.17300000000E+03 0. -1.
         -6    1    1    2    0  503  0.10881686857E+02  0.19347318117E+02 -0.28469585724E+03  0.33387641570E+03  0.17300000000E+03 0. -1.
<mgrwt>
<rscale>  2 0.17441826E+03</rscale>
<asrwt>0</asrwt>
<pdfrwt beam="1">  1       21 0.21882432E+00 0.17441826E+03</pdfrwt>
<pdfrwt beam="2">  1       21 0.48419580E-01 0.17441826E+03</pdfrwt>
<totfact> 0.42698554E+02</totfact>
</mgrwt>
</event>
<event>
 4    1  0.4151607E+000  0.2019043E+03  0.7546771E-02  0.1148142E+00
         21   -1    0    0  503  502  0.00000000000E+00  0.00000000000E+00  0.49649402701E+03  0.49649402701E+03  0.00000000000E+00 0. -1.
         21   -1    0    0  501  503 -0.00000000000E+00 -0.00000000000E+00 -0.85980423734E+02  0.85980423734E+02  0.00000000000E+00 0. -1.
          6    1    1    2  501    0 -0.22531592368E+01 -0.10407333130E+03  0.14343687618E+03  0.24766806912E+03  0.17300000000E+03 0. -1.
         -6    1    1    2    0  502  0.22531592368E+01  0.10407333130E+03  0.26707672710E+03  0.33480638162E+03  0.17300000000E+03 0. -1.
<mgrwt>
<rscale>  2 0.20190427E+03</rscale>
<asrwt>0</asrwt>
<pdfrwt beam="1">  1       21 0.76383695E-01 0.20190427E+03</pdfrwt>
<pdfrwt beam="2">  1       21 0.13227758E-01 0.20190427E+03</pdfrwt>
<totfact> 0.74876639E+04</totfact>
</mgrwt>
</event>
<event>
 4    1  0.4151607E+000  0.2083035E+03  0.7546771E-02  0.1142917E+00
         21   -1    0    0  501  502  0.00000000000E+00  0.00000000000E+00  0.90252149313E+02  0.90252149313E+02  0.00000000000E+00 0. -1.
         21   -1    0    0  502  503 -0.00000000000E+00 -0.00000000000E+00 -0.59805577084E+03  0.59805577084E+03  0.00000000000E+00 0. -1.
          6    1    1    2  501    0 -0.11443192121E+03  0.19148507968E+02 -0.10149351390E+03  0.23171375296E+03  0.17300000000E+03 0. -1.
         -6    1    1    2    0  503  0.11443192121E+03 -0.19148507968E+02 -0.40631010763E+03  0.45659416719E+03  0.17300000000E+03 0. -1.
<mgrwt>
<rscale>  2 0.20830346E+03</rscale>
<asrwt>0</asrwt>
<pdfrwt beam="1">  1       21 0.13884946E-01 0.20830346E+03</pdfrwt>
<pdfrwt beam="2">  1       21 0.92008581E-01 0.20830346E+03</pdfrwt>
<totfact> 0.44686750E+04</totfact>
</mgrwt>
</event>
<event>
 4    1  0.4151607E+000  0.1875178E+03  0.7546771E-02  0.1160719E+00
         21   -1    0    0  501  502  0.00000000000E+00  0.00000000000E+00  0.59362509610E+02  0.59362509610E+02  0.00000000000E+00 0.  1.
         21   -1    0    0  502  503 -0.00000000000E+00 -0.00000000000E+00 -0.65353617813E+03  0.65353617813E+03  0.00000000000E+00 0.  1.
          6    1    1    2  501    0 -0.70013182148E+02  0.18222918535E+02 -0.18801382565E+03  0.26554118150E+03  0.17300000000E+03 0. -1.
         -6    1    1    2    0  503  0.70013182148E+02 -0.18222918535E+02 -0.40615984287E+03  0.44735750625E+03  0.17300000000E+03 0. -1.
<mgrwt>
<rscale>  2 0.18751779E+03</rscale>
<asrwt>0</asrwt>
<pdfrwt beam="1">  1       21 0.91326939E-02 0.18751779E+03</pdfrwt>
<pdfrwt beam="2">  1       21 0.10054403E+00 0.18751779E+03</pdfrwt>
<totfact> 0.77333573E+04</totfact>
</mgrwt>
</event>
<event>
 4    1  0.4151607E+000  0.1805120E+03  0.7546771E-02  0.1167308E+00
         21   -1    0    0  503  502  0.00000000000E+00  0.00000000000E+00  0.25413197469E+04  0.25413197469E+04  0.00000000000E+00 0.  1.
         21   -1    0    0  501  503 -0.00000000000E+00 -0.00000000000E+00 -0.20625433258E+02  0.20625433258E+02  0.00000000000E+00 0.  1.
          6    1    1    2  501    0  0.22955790038E+02 -0.46136928714E+02  0.47242459504E+03  0.50573667307E+03  0.17300000000E+03 0.  1.
         -6    1    1    2    0  502 -0.22955790038E+02  0.46136928714E+02  0.20482697186E+04  0.20562085071E+04  0.17300000000E+03 0.  1.
<mgrwt>
<rscale>  2 0.18051201E+03</rscale>
<asrwt>0</asrwt>
<pdfrwt beam="1">  1       21 0.39097202E+00 0.18051201E+03</pdfrwt>
<pdfrwt beam="2">  1       21 0.31731456E-02 0.18051201E+03</pdfrwt>
<totfact> 0.58097866E+03</totfact>
</mgrwt>
</event>
<event>
 4    1  0.4151607E+000  0.3829392E+03  0.7546771E-02  0.1049853E+00
         21   -1    0    0  501  502  0.00000000000E+00  0.00000000000E+00  0.65277385102E+03  0.65277385102E+03  0.00000000000E+00 0.  1.
         21   -1    0    0  502  503 -0.00000000000E+00 -0.00000000000E+00 -0.24576420419E+03  0.24576420419E+03  0.00000000000E+00 0.  1.
          6    1    1    2  501    0  0.21800877600E+03  0.26303153894E+03  0.33520470576E+03  0.50892495680E+03  0.17300000000E+03 0.  1.
         -6    1    1    2    0  503 -0.21800877600E+03 -0.26303153894E+03  0.71804941073E+02  0.38961309841E+03  0.17300000000E+03 0.  1.
<mgrwt>
<rscale>  2 0.38293918E+03</rscale>
<asrwt>0</asrwt>
<pdfrwt beam="1">  1       21 0.10042675E+00 0.38293918E+03</pdfrwt>
<pdfrwt beam="2">  1       21 0.37809878E-01 0.38293918E+03</pdfrwt>
<totfact> 0.49300292E+03</totfact>
</mgrwt>
</event>
<event>
 4    1  0.4151607E+000  0.1768537E+03  0.7546771E-02  0.1170883E+00
         21   -1    0    0  503  502  0.00000000000E+00  0.00000000000E+00  0.81001115688E+02  0.81001115688E+02  0.00000000000E+00 0.  1.
         21   -1    0    0  501  503 -0.00000000000E+00 -0.00000000000E+00 -0.49970897196E+03  0.49970897196E+03  0.00000000000E+00 0.  1.
          6    1    1    2  501    0  0.30551221842E+02  0.20367759946E+02 -0.34777862586E+03  0.39016303696E+03  0.17300000000E+03 0.  1.
         -6    1    1    2    0  502 -0.30551221842E+02 -0.20367759946E+02 -0.70929230416E+02  0.19054705070E+03  0.17300000000E+03 0.  1.
<mgrwt>
<rscale>  2 0.17685368E+03</rscale>
<asrwt>0</asrwt>
<pdfrwt beam="1">  1       21 0.12461711E-01 0.17685368E+03</pdfrwt>
<pdfrwt beam="2">  1       21 0.76878301E-01 0.17685368E+03</pdfrwt>
<totfact> 0.83049719E+04</totfact>
</mgrwt>
</event>
<event>
 4    1  0.4151607E+000  0.1862150E+03  0.7546771E-02  0.1161920E+00
         21   -1    0    0  501  502  0.00000000000E+00  0.00000000000E+00  0.26681987681E+02  0.26681987681E+02  0.00000000000E+00 0.  1.
         21   -1    0    0  502  503 -0.00000000000E+00 -0.00000000000E+00 -0.14159807501E+04  0.14159807501E+04  0.00000000000E+00 0.  1.
          6    1    1    2  501    0 -0.53166031772E+02 -0.43822208952E+02 -0.48785458518E+03  0.52218589527E+03  0.17300000000E+03 0.  1.
         -6    1    1    2    0  503  0.53166031772E+02  0.43822208952E+02 -0.90144417726E+03  0.92047684254E+03  0.17300000000E+03 0.  1.
<mgrwt>
<rscale>  2 0.18621496E+03</rscale>
<asrwt>0</asrwt>
<pdfrwt beam="1">  1       21 0.41049222E-02 0.18621496E+03</pdfrwt>
<pdfrwt beam="2">  1       21 0.21784314E+00 0.18621496E+03</pdfrwt>
<totfact> 0.39096322E+04</totfact>
</mgrwt>
</event>
<event>
 4    1  0.4151607E+000  0.2369632E+03  0.7546771E-02  0.1121833E+00
         21   -1    0    0  503  502  0.00000000000E+00  0.00000000000E+00  0.44531244428E+03  0.44531244428E+03  0.00000000000E+00 0.  1.
         21   -1    0    0  501  503 -0.00000000000E+00 -0.00000000000E+00 -0.14036911627E+03  0.14036911627E+03  0.00000000000E+00 0.  1.
          6    1    1    2  501    0  0.13661488005E+03 -0.86942096939E+02  0.59087238306E+02  0.24421886783E+03  0.17300000000E+03 0.  1.
         -6    1    1    2    0  502 -0.13661488005E+03  0.86942096939E+02  0.24585608971E+03  0.34146269272E+03  0.17300000000E+03 0.  1.
<mgrwt>
<rscale>  2 0.23696319E+03</rscale>
<asrwt>0</asrwt>
<pdfrwt beam="1">  1       21 0.68509606E-01 0.23696319E+03</pdfrwt>
<pdfrwt beam="2">  1       21 0.21595249E-01 0.23696319E+03</pdfrwt>
<totfact> 0.37996382E+04</totfact>
</mgrwt>
</event>
<event>
 4    1  0.4151607E+000  0.2271393E+03  0.7546771E-02  0.1128670E+00
         21   -1    0    0  501  502  0.00000000000E+00  0.00000000000E+00  0.76516617351E+03  0.76516617351E+03  0.00000000000E+00 0.  1.
         21   -1    0    0  502  503 -0.00000000000E+00 -0.00000000000E+00 -0.68335940116E+02  0.68335940116E+02  0.00000000000E+00 0. -1.
          6    1    1    2  501    0  0.13478268720E+03  0.59134335486E+02  0.39650042115E+03  0.45695166744E+03  0.17300000000E+03 0.  1.
         -6    1    1    2    0  503 -0.13478268720E+03 -0.59134335486E+02  0.30032981225E+03  0.37655044619E+03  0.17300000000E+03 0. -1.
<mgrwt>
<rscale>  2 0.22713926E+03</rscale>
<asrwt>0</asrwt>
<pdfrwt beam="1">  1       21 0.11771787E+00 0.22713926E+03</pdfrwt>
<pdfrwt beam="2">  1       21 0.10513222E-01 0.22713926E+03</pdfrwt>
<totfact> 0.40379818E+04</totfact>
</mgrwt>
</event>
<event>
 4    1  0.4151607E+000  0.2135219E+03  0.7546771E-02  0.1138807E+00
         21   -1    0    0  501  502  0.00000000000E+00  0.00000000000E+00  0.12748048348E+03  0.12748048348E+03  0.00000000000E+00 0. -1.
         21   -1    0    0  502  503 -0.00000000000E+00 -0.00000000000E+00 -0.11685193502E+04  0.11685193502E+04  0.00000000000E+00 0. -1.
          6    1    1    2  501    0  0.11196544061E+03 -0.55913772433E+02  0.19284678258E+02  0.21439101813E+03  0.17300000000E+03 0. -1.
         -6    1    1    2    0  503 -0.11196544061E+03  0.55913772433E+02 -0.10603235450E+04  0.10816088156E+04  0.17300000000E+03 0. -1.
<mgrwt>
<rscale>  2 0.21352192E+03</rscale>
<asrwt>0</asrwt>
<pdfrwt beam="1">  1       21 0.19612381E-01 0.21352192E+03</pdfrwt>
<pdfrwt beam="2">  1       21 0.17977222E+00 0.21352192E+03</pdfrwt>
<totfact> 0.42922831E+03</totfact>
</mgrwt>
</event>
<event>
 4    1  0.4151607E+000  0.2309407E+03  0.7546771E-02  0.1125979E+00
         21   -1    0    0  503  502  0.00000000000E+00  0.00000000000E+00  0.72108638961E+03  0.72108638961E+03  0.00000000000E+00 0.  1.
         21   -1    0    0  501  503 -0.00000000000E+00 -0.00000000000E+00 -0.10409992229E+03  0.10409992229E+03  0.00000000000E+00 0. -1.
          6    1    1    2  501    0 -0.10441039246E+03  0.11181721604E+03  0.86496188861E+02  0.24660740164E+03  0.17300000000E+03 0. -1.
         -6    1    1    2    0  502  0.10441039246E+03 -0.11181721604E+03  0.53049027845E+03  0.57857891025E+03  0.17300000000E+03 0.  1.
<mgrwt>
<rscale>  2 0.23094073E+03</rscale>
<asrwt>0</asrwt>
<pdfrwt beam="1">  1       21 0.11093636E+00 0.23094073E+03</pdfrwt>
<pdfrwt beam="2">  1       21 0.16015373E-01 0.23094073E+03</pdfrwt>
<totfact> 0.21774860E+04</totfact>
</mgrwt>
</event>
<event>
 4    1  0.4151607E+000  0.1758564E+03  0.7546771E-02  0.1171875E+00
         21   -1    0    0  501  502  0.00000000000E+00  0.00000000000E+00  0.14257750063E+03  0.14257750063E+03  0.00000000000E+00 0. -1.
         21   -1    0    0  502  503 -0.00000000000E+00 -0.00000000000E+00 -0.57609964833E+03  0.57609964833E+03  0.00000000000E+00 0. -1.
          6    1    1    2  501    0  0.26220113573E+02  0.17577615502E+02  0.66979381325E+02  0.18817997886E+03  0.17300000000E+03 0. -1.
         -6    1    1    2    0  503 -0.26220113573E+02 -0.17577615502E+02 -0.50050152902E+03  0.53049717009E+03  0.17300000000E+03 0. -1.
<mgrwt>
<rscale>  2 0.17585638E+03</rscale>
<asrwt>0</asrwt>
<pdfrwt beam="1">  1       21 0.21935000E-01 0.17585638E+03</pdfrwt>
<pdfrwt beam="2">  1       21 0.88630715E-01 0.17585638E+03</pdfrwt>
<totfact> 0.21345113E+04</totfact>
</mgrwt>
</event>
<event>
 4    1  0.4151607E+000  0.2481334E+03  0.7546771E-02  0.1114490E+00
         21   -1    0    0  503  502  0.00000000000E+00  0.00000000000E+00  0.55066680488E+03  0.55066680488E+03  0.00000000000E+00 0.  1.
         21   -1    0    0  501  503 -0.00000000000E+00 -0.00000000000E+00 -0.52763403594E+03  0.52763403594E+03  0.00000000000E+00 0. -1.
          6    1    1    2  501    0  0.84572525091E+02 -0.15648856692E+03 -0.46711174614E+03  0.52892680681E+03  0.17300000000E+03 0. -1.
         -6    1    1    2    0  502 -0.84572525091E+02  0.15648856692E+03  0.49014451509E+03  0.54937403401E+03  0.17300000000E+03 0.  1.
<mgrwt>
<rscale>  2 0.24813340E+03</rscale>
<asrwt>0</asrwt>
<pdfrwt beam="1">  1       21 0.84717971E-01 0.24813340E+03</pdfrwt>
<pdfrwt beam="2">  1       21 0.81174467E-01 0.24813340E+03</pdfrwt>
<totfact> 0.15329729E+03</totfact>
</mgrwt>
</event>
<event>
 4    1  0.4151607E+000  0.1820017E+03  0.7546771E-02  0.1165880E+00
         21   -1    0    0  501  502  0.00000000000E+00  0.00000000000E+00  0.77544648939E+03  0.77544648939E+03  0.00000000000E+00 0. -1.
         21   -1    0    0  502  503 -0.00000000000E+00 -0.00000000000E+00 -0.43600587746E+02  0.43600587746E+02  0.00000000000E+00 0. -1.
          6    1    1    2  501    0  0.56238282773E+02  0.57345451148E+01  0.42422650178E+03  0.46161970741E+03  0.17300000000E+03 0. -1.
         -6    1    1    2    0  503 -0.56238282773E+02 -0.57345451148E+01  0.30761939987E+03  0.35742736973E+03  0.17300000000E+03 0. -1.
<mgrwt>
<rscale>  2 0.18200173E+03</rscale>
<asrwt>0</asrwt>
<pdfrwt beam="1">  1       21 0.11929945E+00 0.18200173E+03</pdfrwt>
<pdfrwt beam="2">  1       21 0.67077833E-02 0.18200173E+03</pdfrwt>
<totfact> 0.87654695E+04</totfact>
</mgrwt>
</event>
<event>
 4    1  0.4151607E+000  0.2404642E+03  0.7546771E-02  0.1119484E+00
         21   -1    0    0  501  502  0.00000000000E+00  0.00000000000E+00  0.14070420088E+04  0.14070420088E+04  0.00000000000E+00 0. -1.
         21   -1    0    0  502  503 -0.00000000000E+00 -0.00000000000E+00 -0.67326835655E+02  0.67326835655E+02  0.00000000000E+00 0. -1.
          6    1    1    2  501    0  0.12155511070E+03  0.11453550455E+03  0.11300004079E+04  0.11553025355E+04  0.17300000000E+03 0. -1.
         -6    1    1    2    0  503 -0.12155511070E+03 -0.11453550455E+03  0.20971476529E+03  0.31906630897E+03  0.17300000000E+03 0. -1.
<mgrwt>
<rscale>  2 0.24046419E+03</rscale>
<asrwt>0</asrwt>
<pdfrwt beam="1">  1       21 0.21646798E+00 0.24046419E+03</pdfrwt>
<pdfrwt beam="2">  1       21 0.10357976E-01 0.24046419E+03</pdfrwt>
<totfact> 0.77506426E+03</totfact>
</mgrwt>
</event>
<event>
 4    1  0.4151607E+000  0.1854435E+03  0.7546771E-02  0.1162636E+00
         21   -1    0    0  501  502  0.00000000000E+00  0.00000000000E+00  0.10880019688E+04  0.10880019688E+04  0.00000000000E+00 0. -1.
         21   -1    0    0  502  503 -0.00000000000E+00 -0.00000000000E+00 -0.37226142704E+02  0.37226142704E+02  0.00000000000E+00 0. -1.
          6    1    1    2  501    0  0.11926236895E+02 -0.65711976936E+02  0.74395885999E+03  0.76672295153E+03  0.17300000000E+03 0. -1.
         -6    1    1    2    0  503 -0.11926236895E+02  0.65711976936E+02  0.30681696610E+03  0.35850515997E+03  0.17300000000E+03 0. -1.
<mgrwt>
<rscale>  2 0.18544352E+03</rscale>
<asrwt>0</asrwt>
<pdfrwt beam="1">  1       21 0.16738489E+00 0.18544352E+03</pdfrwt>
<pdfrwt beam="2">  1       21 0.57270997E-02 0.18544352E+03</pdfrwt>
<totfact> 0.47742724E+04</totfact>
</mgrwt>
</event>
<event>
 4    1  0.4151607E+000  0.2456497E+03  0.7546771E-02  0.1116085E+00
         21   -1    0    0  501  502  0.00000000000E+00  0.00000000000E+00  0.20901744690E+03  0.20901744690E+03  0.00000000000E+00 0.  1.
         21   -1    0    0  502  503 -0.00000000000E+00 -0.00000000000E+00 -0.34599644602E+03  0.34599644602E+03  0.00000000000E+00 0.  1.
          6    1    1    2  501    0 -0.17203338737E+03  0.28623166859E+02  0.44436512667E+02  0.24963648713E+03  0.17300000000E+03 0.  1.
         -6    1    1    2    0  503  0.17203338737E+03 -0.28623166859E+02 -0.18141551179E+03  0.30537740579E+03  0.17300000000E+03 0.  1.
<mgrwt>
<rscale>  2 0.24564969E+03</rscale>
<asrwt>0</asrwt>
<pdfrwt beam="1">  1       21 0.32156531E-01 0.24564969E+03</pdfrwt>
<pdfrwt beam="2">  1       21 0.53230222E-01 0.24564969E+03</pdfrwt>
<totfact> 0.30269787E+04</totfact>
</mgrwt>
</event>
<event>
 4    1  0.4151607E+000  0.1799362E+03  0.7546771E-02  0.1167865E+00
         21   -1    0    0  501  502  0.00000000000E+00  0.00000000000E+00  0.46029561706E+02  0.46029561706E+02  0.00000000000E+00 0.  1.
         21   -1    0    0  502  503 -0.00000000000E+00 -0.00000000000E+00 -0.12865739036E+04  0.12865739036E+04  0.00000000000E+00 0.  1.
          6    1    1    2  501    0 -0.49443234747E+02  0.18398424470E+01 -0.17167758090E+03  0.24869702504E+03  0.17300000000E+03 0.  1.
         -6    1    1    2    0  503  0.49443234747E+02 -0.18398424470E+01 -0.10688667610E+04  0.10839064402E+04  0.17300000000E+03 0.  1.
<mgrwt>
<rscale>  2 0.17993615E+03</rscale>
<asrwt>0</asrwt>
<pdfrwt beam="1">  1       21 0.70814713E-02 0.17993615E+03</pdfrwt>
<pdfrwt beam="2">  1       21 0.19793444E+00 0.17993615E+03</pdfrwt>
<totfact> 0.20727517E+04</totfact>
</mgrwt>
</event>
<event>
 4    1  0.4151607E+000  0.2040417E+03  0.7546771E-02  0.1146373E+00
         21   -1    0    0  503  502  0.00000000000E+00  0.00000000000E+00  0.14262019453E+03  0.14262019453E+03  0.00000000000E+00 0. -1.
         21   -1    0    0  501  503 -0.00000000000E+00 -0.00000000000E+00 -0.31746081242E+03  0.31746081242E+03  0.00000000000E+00 0.  1.
          6    1    1    2  501    0 -0.20835938249E+02 -0.10615972839E+03 -0.15267565801E+03  0.25483893110E+03  0.17300000000E+03 0.  1.
         -6    1    1    2    0  502  0.20835938249E+02  0.10615972839E+03 -0.22164959879E+02  0.20524207585E+03  0.17300000000E+03 0. -1.
<mgrwt>
<rscale>  2 0.20404172E+03</rscale>
<asrwt>0</asrwt>
<pdfrwt beam="1">  1       21 0.21941568E-01 0.20404172E+03</pdfrwt>
<pdfrwt beam="2">  1       21 0.48840125E-01 0.20404172E+03</pdfrwt>
<totfact> 0.77239469E+04</totfact>
</mgrwt>
</event>
<event>
 4    1  0.4151607E+000  0.2412805E+03  0.7546771E-02  0.1118943E+00
         21   -1    0    0  503  502  0.00000000000E+00  0.00000000000E+00  0.39207706541E+03  0.39207706541E+03  0.00000000000E+00 0.  1.
         21   -1    0    0  501  503 -0.00000000000E+00 -0.00000000000E+00 -0.14978128085E+03  0.14978128085E+03  0.00000000000E+00 0. -1.
          6    1    1    2  501    0  0.14079846950E+03 -0.91994977283E+02  0.95911807348E+02  0.25964467961E+03  0.17300000000E+03 0. -1.
         -6    1    1    2    0  502 -0.14079846950E+03  0.91994977283E+02  0.14638397721E+03  0.28221366665E+03  0.17300000000E+03 0.  1.
<mgrwt>
<rscale>  2 0.24128051E+03</rscale>
<asrwt>0</asrwt>
<pdfrwt beam="1">  1       21 0.60319548E-01 0.24128051E+03</pdfrwt>
<pdfrwt beam="2">  1       21 0.23043274E-01 0.24128051E+03</pdfrwt>
<totfact> 0.44284535E+04</totfact>
</mgrwt>
</event>
<event>
 4    1  0.4151607E+000  0.2522177E+03  0.7546771E-02  0.1111911E+00
         21   -1    0    0  503  502  0.00000000000E+00  0.00000000000E+00  0.99023392004E+02  0.99023392004E+02  0.00000000000E+00 0. -1.
         21   -1    0    0  501  503 -0.00000000000E+00 -0.00000000000E+00 -0.64257971186E+03  0.64257971186E+03  0.00000000000E+00 0. -1.
          6    1    1    2  501    0 -0.15900399483E+03  0.91665151134E+02 -0.26577959304E+03  0.36640491588E+03  0.17300000000E+03 0. -1.
         -6    1    1    2    0  502  0.15900399483E+03 -0.91665151134E+02 -0.27777672682E+03  0.37519818798E+03  0.17300000000E+03 0. -1.
<mgrwt>
<rscale>  2 0.25221770E+03</rscale>
<asrwt>0</asrwt>
<pdfrwt beam="1">  1       21 0.15234369E-01 0.25221770E+03</pdfrwt>
<pdfrwt beam="2">  1       21 0.98858413E-01 0.25221770E+03</pdfrwt>
<totfact> 0.31200595E+04</totfact>
</mgrwt>
</event>
<event>
 4    1  0.4151607E+000  0.2100973E+03  0.7546771E-02  0.1141489E+00
         21   -1    0    0  501  502  0.00000000000E+00  0.00000000000E+00  0.60883706757E+02  0.60883706757E+02  0.00000000000E+00 0.  1.
         21   -1    0    0  502  503 -0.00000000000E+00 -0.00000000000E+00 -0.85581243545E+03  0.85581243545E+03  0.00000000000E+00 0. -1.
          6    1    1    2  501    0  0.28556145183E+02 -0.11574292075E+03 -0.21826954315E+03  0.30295621895E+03  0.17300000000E+03 0. -1.
         -6    1    1    2    0  503 -0.28556145183E+02  0.11574292075E+03 -0.57665918554E+03  0.61373992326E+03  0.17300000000E+03 0. -1.
<mgrwt>
<rscale>  2 0.21009730E+03</rscale>
<asrwt>0</asrwt>
<pdfrwt beam="1">  1       21 0.93667244E-02 0.21009730E+03</pdfrwt>
<pdfrwt beam="2">  1       21 0.13166345E+00 0.21009730E+03</pdfrwt>
<totfact> 0.37740809E+04</totfact>
</mgrwt>
</event>
<event>
 4    1  0.4151607E+000  0.1880340E+03  0.7546771E-02  0.1160247E+00
         21   -1    0    0  501  502  0.00000000000E+00  0.00000000000E+00  0.11487113204E+03  0.11487113204E+03  0.00000000000E+00 0. -1.
         21   -1    0    0  502  503 -0.00000000000E+00 -0.00000000000E+00 -0.40554431081E+03  0.40554431081E+03  0.00000000000E+00 0. -1.
          6    1    1    2  501    0  0.52489257982E+02 -0.51697632448E+02 -0.17587523402E+02  0.18885467530E+03  0.17300000000E+03 0. -1.
         -6    1    1    2    0  503 -0.52489257982E+02  0.51697632448E+02 -0.27308565538E+03  0.33156076755E+03  0.17300000000E+03 0. -1.
<mgrwt>
<rscale>  2 0.18803395E+03</rscale>
<asrwt>0</asrwt>
<pdfrwt beam="1">  1       21 0.17672482E-01 0.18803395E+03</pdfrwt>
<pdfrwt beam="2">  1       21 0.62391432E-01 0.18803395E+03</pdfrwt>
<totfact> 0.69320990E+04</totfact>
</mgrwt>
</event>
<event>
 4    1  0.4151607E+000  0.1730370E+03  0.7546771E-02  0.1174717E+00
         21   -1    0    0  501  502  0.00000000000E+00  0.00000000000E+00  0.19538589233E+03  0.19538589233E+03  0.00000000000E+00 0.  1.
         21   -1    0    0  502  503 -0.00000000000E+00 -0.00000000000E+00 -0.15427616055E+03  0.15427616055E+03  0.00000000000E+00 0.  1.
          6    1    1    2  501    0  0.35753188400E+01 -0.14005811055E+00  0.62577248058E+01  0.17315011303E+03  0.17300000000E+03 0.  1.
         -6    1    1    2    0  503 -0.35753188400E+01  0.14005811055E+00  0.34852006975E+02  0.17651193985E+03  0.17300000000E+03 0.  1.
<mgrwt>
<rscale>  2 0.17303700E+03</rscale>
<asrwt>0</asrwt>
<pdfrwt beam="1">  1       21 0.30059368E-01 0.17303700E+03</pdfrwt>
<pdfrwt beam="2">  1       21 0.23734794E-01 0.17303700E+03</pdfrwt>
<totfact> 0.17855006E+05</totfact>
</mgrwt>
</event>
<event>
 4    1  0.4151607E+000  0.2722113E+03  0.7546771E-02  0.1100021E+00
         21   -1    0    0  501  502  0.00000000000E+00  0.00000000000E+00  0.14939352319E+03  0.14939352319E+03  0.00000000000E+00 0.  1.
         21   -1    0    0  502  503 -0.00000000000E+00 -0.00000000000E+00 -0.58699438349E+03  0.58699438349E+03  0.00000000000E+00 0. -1.
          6    1    1    2  501    0  0.20717310735E+03  0.35345190596E+02 -0.73833045289E+02  0.28204662289E+03  0.17300000000E+03 0.  1.
         -6    1    1    2    0  503 -0.20717310735E+03 -0.35345190596E+02 -0.36376781502E+03  0.45434128378E+03  0.17300000000E+03 0. -1.
<mgrwt>
<rscale>  2 0.27221128E+03</rscale>
<asrwt>0</asrwt>
<pdfrwt beam="1">  1       21 0.22983619E-01 0.27221128E+03</pdfrwt>
<pdfrwt beam="2">  1       21 0.90306828E-01 0.27221128E+03</pdfrwt>
<totfact> 0.17738837E+04</totfact>
</mgrwt>
</event>
<event>
 4    1  0.4151607E+000  0.1943705E+03  0.7546771E-02  0.1154577E+00
         21   -1    0    0  501  502  0.00000000000E+00  0.00000000000E+00  0.78675097247E+02  0.78675097247E+02  0.00000000000E+00 0.  1.
         21   -1    0    0  502  503 -0.00000000000E+00 -0.00000000000E+00 -0.59533426508E+03  0.59533426508E+03  0.00000000000E+00 0.  1.
          6    1    1    2  501    0 -0.32797753464E+02  0.82311694974E+02 -0.11012734379E+03  0.22340084962E+03  0.17300000000E+03 0.  1.
         -6    1    1    2    0  503  0.32797753464E+02 -0.82311694974E+02 -0.40653182404E+03  0.45060851270E+03  0.17300000000E+03 0.  1.
<mgrwt>
<rscale>  2 0.19437054E+03</rscale>
<asrwt>0</asrwt>
<pdfrwt beam="1">  1       21 0.12103861E-01 0.19437054E+03</pdfrwt>
<pdfrwt beam="2">  1       21 0.91589887E-01 0.19437054E+03</pdfrwt>
<totfact> 0.58245237E+04</totfact>
</mgrwt>
</event>
<event>
 4    1  0.4151607E+000  0.2096416E+03  0.7546771E-02  0.1141850E+00
         21   -1    0    0  501  502  0.00000000000E+00  0.00000000000E+00  0.22182867069E+03  0.22182867069E+03  0.00000000000E+00 0. -1.
         21   -1    0    0  502  503 -0.00000000000E+00 -0.00000000000E+00 -0.23055848943E+03  0.23055848943E+03  0.00000000000E+00 0.  1.
          6    1    1    2  501    0 -0.11109356508E+03 -0.40973388432E+02  0.80473553110E+02  0.22455643280E+03  0.17300000000E+03 0. -1.
         -6    1    1    2    0  503  0.11109356508E+03  0.40973388432E+02 -0.89203371848E+02  0.22783072732E+03  0.17300000000E+03 0.  1.
<mgrwt>
<rscale>  2 0.20964160E+03</rscale>
<asrwt>0</asrwt>
<pdfrwt beam="1">  1       21 0.34127488E-01 0.20964160E+03</pdfrwt>
<pdfrwt beam="2">  1       21 0.35470537E-01 0.20964160E+03</pdfrwt>
<totfact> 0.62911691E+04</totfact>
</mgrwt>
</event>
<event>
 4    1  0.4151607E+000  0.2517270E+03  0.7546771E-02  0.1112218E+00
         21   -1    0    0  501  502  0.00000000000E+00  0.00000000000E+00  0.19689514260E+04  0.19689514260E+04  0.00000000000E+00 0.  1.
         21   -1    0    0  502  503 -0.00000000000E+00 -0.00000000000E+00 -0.33823517398E+02  0.33823517398E+02  0.00000000000E+00 0. -1.
          6    1    1    2  501    0  0.15406503693E+03 -0.98495884693E+02  0.11881116913E+04  0.12144858443E+04  0.17300000000E+03 0.  1.
         -6    1    1    2    0  503 -0.15406503693E+03  0.98495884693E+02  0.74701621728E+03  0.78828909911E+03  0.17300000000E+03 0. -1.
<mgrwt>
<rscale>  2 0.25172698E+03</rscale>
<asrwt>0</asrwt>
<pdfrwt beam="1">  1       21 0.30291552E+00 0.25172698E+03</pdfrwt>
<pdfrwt beam="2">  1       21 0.52036196E-02 0.25172698E+03</pdfrwt>
<totfact> 0.77912891E+03</totfact>
</mgrwt>
</event>
<event>
 4    1  0.4151607E+000  0.1804777E+03  0.7546771E-02  0.1167341E+00
         21   -1    0    0  503  502  0.00000000000E+00  0.00000000000E+00  0.39541324714E+03  0.39541324714E+03  0.00000000000E+00 0.  1.
         21   -1    0    0  501  503 -0.00000000000E+00 -0.00000000000E+00 -0.12649547005E+03  0.12649547005E+03  0.00000000000E+00 0.  1.
          6    1    1    2  501    0 -0.51215533899E+02  0.44926348910E+01 -0.19656686385E+02  0.18154503574E+03  0.17300000000E+03 0.  1.
         -6    1    1    2    0  502  0.51215533899E+02 -0.44926348910E+01  0.28857446347E+03  0.34036368145E+03  0.17300000000E+03 0.  1.
<mgrwt>
<rscale>  2 0.18047774E+03</rscale>
<asrwt>0</asrwt>
<pdfrwt beam="1">  1       21 0.60832807E-01 0.18047774E+03</pdfrwt>
<pdfrwt beam="2">  1       21 0.19460842E-01 0.18047774E+03</pdfrwt>
<totfact> 0.61436834E+04</totfact>
</mgrwt>
</event>
<event>
 4    1  0.4151607E+000  0.1801253E+03  0.7546771E-02  0.1167682E+00
         21   -1    0    0  501  502  0.00000000000E+00  0.00000000000E+00  0.72178716226E+02  0.72178716226E+02  0.00000000000E+00 0.  1.
         21   -1    0    0  502  503 -0.00000000000E+00 -0.00000000000E+00 -0.51667374823E+03  0.51667374823E+03  0.00000000000E+00 0. -1.
          6    1    1    2  501    0 -0.18764713910E+02 -0.46518902850E+02 -0.11609440747E+03  0.21429660347E+03  0.17300000000E+03 0.  1.
         -6    1    1    2    0  503  0.18764713910E+02  0.46518902850E+02 -0.32840062453E+03  0.37455586099E+03  0.17300000000E+03 0. -1.
<mgrwt>
<rscale>  2 0.18012530E+03</rscale>
<asrwt>0</asrwt>
<pdfrwt beam="1">  1       21 0.11104418E-01 0.18012530E+03</pdfrwt>
<pdfrwt beam="2">  1       21 0.79488269E-01 0.18012530E+03</pdfrwt>
<totfact> 0.94513777E+04</totfact>
</mgrwt>
</event>
<event>
 4    1  0.4151607E+000  0.3868920E+03  0.7546771E-02  0.1048415E+00
         21   -1    0    0  503  502  0.00000000000E+00  0.00000000000E+00  0.18259108836E+03  0.18259108836E+03  0.00000000000E+00 0.  1.
         21   -1    0    0  501  503 -0.00000000000E+00 -0.00000000000E+00 -0.11446307710E+04  0.11446307710E+04  0.00000000000E+00 0. -1.
          6    1    1    2  501    0 -0.34602917974E+03  0.44969590428E+01 -0.83454432922E+03  0.91986393195E+03  0.17300000000E+03 0. -1.
         -6    1    1    2    0  502  0.34602917974E+03 -0.44969590428E+01 -0.12749535341E+03  0.40735792740E+03  0.17300000000E+03 0.  1.
<mgrwt>
<rscale>  2 0.38689200E+03</rscale>
<asrwt>0</asrwt>
<pdfrwt beam="1">  1       21 0.28090937E-01 0.38689200E+03</pdfrwt>
<pdfrwt beam="2">  1       21 0.17609704E+00 0.38689200E+03</pdfrwt>
<totfact> 0.20507206E+03</totfact>
</mgrwt>
</event>
<event>
 4    1  0.4151607E+000  0.2054815E+03  0.7546771E-02  0.1145195E+00
         21   -1    0    0  501  502  0.00000000000E+00  0.00000000000E+00  0.22554436388E+03  0.22554436388E+03  0.00000000000E+00 0. -1.
         21   -1    0    0  502  503 -0.00000000000E+00 -0.00000000000E+00 -0.23858181660E+03  0.23858181660E+03  0.00000000000E+00 0.  1.
          6    1    1    2  501    0 -0.35732427154E+02 -0.10496108734E+03  0.10117202946E+03  0.22903802250E+03  0.17300000000E+03 0.  1.
         -6    1    1    2    0  503  0.35732427154E+02  0.10496108734E+03 -0.11420948217E+03  0.23508815798E+03  0.17300000000E+03 0.  1.
<mgrwt>
<rscale>  2 0.20548147E+03</rscale>
<asrwt>0</asrwt>
<pdfrwt beam="1">  1       21 0.34699133E-01 0.20548147E+03</pdfrwt>
<pdfrwt beam="2">  1       21 0.36704895E-01 0.20548147E+03</pdfrwt>
<totfact> 0.56961376E+04</totfact>
</mgrwt>
</event>
<event>
 4    1  0.4151607E+000  0.2074442E+03  0.7546771E-02  0.1143606E+00
         21   -1    0    0  503  502  0.00000000000E+00  0.00000000000E+00  0.17030085149E+04  0.17030085149E+04  0.00000000000E+00 0.  1.
         21   -1    0    0  501  503 -0.00000000000E+00 -0.00000000000E+00 -0.37514818711E+02  0.37514818711E+02  0.00000000000E+00 0.  1.
          6    1    1    2  501    0 -0.19804465236E+02  0.11274693175E+03  0.33553120371E+03  0.39447975376E+03  0.17300000000E+03 0.  1.
         -6    1    1    2    0  502  0.19804465236E+02 -0.11274693175E+03  0.13299624925E+04  0.13460435799E+04  0.17300000000E+03 0.  1.
<mgrwt>
<rscale>  2 0.20744418E+03</rscale>
<asrwt>0</asrwt>
<pdfrwt beam="1">  1       21 0.26200125E+00 0.20744418E+03</pdfrwt>
<pdfrwt beam="2">  1       21 0.57715119E-02 0.20744418E+03</pdfrwt>
<totfact> 0.11755173E+04</totfact>
</mgrwt>
</event>
<event>
 4    1  0.4151607E+000  0.2164676E+03  0.7546771E-02  0.1136544E+00
         21   -1    0    0  503  502  0.00000000000E+00  0.00000000000E+00  0.18467649820E+03  0.18467649820E+03  0.00000000000E+00 0.  1.
         21   -1    0    0  501  503 -0.00000000000E+00 -0.00000000000E+00 -0.34932066526E+03  0.34932066526E+03  0.00000000000E+00 0. -1.
          6    1    1    2  501    0  0.12987676772E+03 -0.78249777842E+01 -0.22199160323E+03  0.31006205342E+03  0.17300000000E+03 0. -1.
         -6    1    1    2    0  502 -0.12987676772E+03  0.78249777842E+01  0.57347436165E+02  0.22393511003E+03  0.17300000000E+03 0.  1.
<mgrwt>
<rscale>  2 0.21646756E+03</rscale>
<asrwt>0</asrwt>
<pdfrwt beam="1">  1       21 0.28411769E-01 0.21646756E+03</pdfrwt>
<pdfrwt beam="2">  1       21 0.53741641E-01 0.21646756E+03</pdfrwt>
<totfact> 0.38326211E+04</totfact>
</mgrwt>
</event>
<event>
 4    1  0.4151607E+000  0.2028994E+03  0.7546771E-02  0.1147316E+00
         21   -1    0    0  503  502  0.00000000000E+00  0.00000000000E+00  0.34428729452E+03  0.34428729452E+03  0.00000000000E+00 0. -1.
         21   -1    0    0  501  503 -0.00000000000E+00 -0.00000000000E+00 -0.12009492262E+03  0.12009492262E+03  0.00000000000E+00 0. -1.
          6    1    1    2  501    0  0.91899234533E+02 -0.52855332827E+02  0.96818771450E+02  0.22481554666E+03  0.17300000000E+03 0.  1.
         -6    1    1    2    0  502 -0.91899234533E+02  0.52855332827E+02  0.12737360045E+03  0.23956667049E+03  0.17300000000E+03 0.  1.
<mgrwt>
<rscale>  2 0.20289937E+03</rscale>
<asrwt>0</asrwt>
<pdfrwt beam="1">  1       21 0.52967276E-01 0.20289937E+03</pdfrwt>
<pdfrwt beam="2">  1       21 0.18476142E-01 0.20289937E+03</pdfrwt>
<totfact> 0.89953492E+04</totfact>
</mgrwt>
</event>
<event>
 4    1  0.4151607E+000  0.2343264E+03  0.7546771E-02  0.1123631E+00
         21   -1    0    0  503  502  0.00000000000E+00  0.00000000000E+00  0.77457419390E+03  0.77457419390E+03  0.00000000000E+00 0. -1.
         21   -1    0    0  501  503 -0.00000000000E+00 -0.00000000000E+00 -0.10636886671E+03  0.10636886671E+03  0.00000000000E+00 0. -1.
          6    1    1    2  501    0 -0.26096443653E+02  0.15588081696E+03  0.79712060038E+02  0.24751336526E+03  0.17300000000E+03 0. -1.
         -6    1    1    2    0  502  0.26096443653E+02 -0.15588081696E+03  0.58849326715E+03  0.63342969535E+03  0.17300000000E+03 0. -1.
<mgrwt>
<rscale>  2 0.23432638E+03</rscale>
<asrwt>0</asrwt>
<pdfrwt beam="1">  1       21 0.11916526E+00 0.23432638E+03</pdfrwt>
<pdfrwt beam="2">  1       21 0.16364442E-01 0.23432638E+03</pdfrwt>
<totfact> 0.17523448E+04</totfact>
</mgrwt>
</event>
<event>
 4    1  0.4151607E+000  0.1781227E+03  0.7546771E-02  0.1169632E+00
         21   -1    0    0  501  502  0.00000000000E+00  0.00000000000E+00  0.23359580159E+03  0.23359580159E+03  0.00000000000E+00 0.  1.
         21   -1    0    0  502  503 -0.00000000000E+00 -0.00000000000E+00 -0.22547548249E+03  0.22547548249E+03  0.00000000000E+00 0.  1.
          6    1    1    2  501    0  0.40775433588E+02 -0.11665161003E+02  0.14879774535E+03  0.23209584440E+03  0.17300000000E+03 0.  1.
         -6    1    1    2    0  503 -0.40775433588E+02  0.11665161003E+02 -0.14067742624E+03  0.22697543968E+03  0.17300000000E+03 0.  1.
<mgrwt>
<rscale>  2 0.17812274E+03</rscale>
<asrwt>0</asrwt>
<pdfrwt beam="1">  1       21 0.35937816E-01 0.17812274E+03</pdfrwt>
<pdfrwt beam="2">  1       21 0.34688536E-01 0.17812274E+03</pdfrwt>
<totfact> 0.60195806E+04</totfact>
</mgrwt>
</event>
<event>
 4    1  0.4151607E+000  0.3355198E+03  0.7546771E-02  0.1068720E+00
         21   -1    0    0  503  502  0.00000000000E+00  0.00000000000E+00  0.81414015336E+03  0.81414015336E+03  0.00000000000E+00 0. -1.
         21   -1    0    0  501  503 -0.00000000000E+00 -0.00000000000E+00 -0.14140787459E+03  0.14140787459E+03  0.00000000000E+00 0.  1.
          6    1    1    2  501    0 -0.11940494344E+03 -0.26150906266E+03  0.40750417338E+03  0.52785716031E+03  0.17300000000E+03 0.  1.
         -6    1    1    2    0  502  0.11940494344E+03  0.26150906266E+03  0.26522810539E+03  0.42769086764E+03  0.17300000000E+03 0. -1.
<mgrwt>
<rscale>  2 0.33551979E+03</rscale>
<asrwt>0</asrwt>
<pdfrwt beam="1">  1       21 0.12525233E+00 0.33551979E+03</pdfrwt>
<pdfrwt beam="2">  1       21 0.21755058E-01 0.33551979E+03</pdfrwt>
<totfact> 0.86254077E+03</totfact>
</mgrwt>
</event>
<event>
 4    1  0.4151607E+000  0.2292397E+03  0.7546771E-02  0.1127176E+00
         21   -1    0    0  503  502  0.00000000000E+00  0.00000000000E+00  0.14522587163E+03  0.14522587163E+03  0.00000000000E+00 0.  1.
         21   -1    0    0  501  503 -0.00000000000E+00 -0.00000000000E+00 -0.36371535959E+03  0.36371535959E+03  0.00000000000E+00 0. -1.
          6    1    1    2  501    0  0.14313702692E+03 -0.46191147434E+02 -0.12743993203E+03  0.26228184622E+03  0.17300000000E+03 0.  1.
         -6    1    1    2    0  502 -0.14313702692E+03  0.46191147434E+02 -0.91049555927E+02  0.24665938501E+03  0.17300000000E+03 0.  1.
<mgrwt>
<rscale>  2 0.22923968E+03</rscale>
<asrwt>0</asrwt>
<pdfrwt beam="1">  1       21 0.22342442E-01 0.22923968E+03</pdfrwt>
<pdfrwt beam="2">  1       21 0.55956208E-01 0.22923968E+03</pdfrwt>
<totfact> 0.55453191E+04</totfact>
</mgrwt>
</event>
<event>
 4    1  0.4151607E+000  0.1746370E+03  0.7546771E-02  0.1173097E+00
         21   -1    0    0  503  502  0.00000000000E+00  0.00000000000E+00  0.24882073618E+02  0.24882073618E+02  0.00000000000E+00 0.  1.
         21   -1    0    0  501  503 -0.00000000000E+00 -0.00000000000E+00 -0.18169688991E+04  0.18169688991E+04  0.00000000000E+00 0.  1.
          6    1    1    2  501    0 -0.60576792223E+01  0.23073529158E+02 -0.14213845494E+04  0.14320726659E+04  0.17300000000E+03 0.  1.
         -6    1    1    2    0  502  0.60576792223E+01 -0.23073529158E+02 -0.37070227611E+03  0.40977830682E+03  0.17300000000E+03 0.  1.
<mgrwt>
<rscale>  2 0.17463700E+03</rscale>
<asrwt>0</asrwt>
<pdfrwt beam="1">  1       21 0.38280108E-02 0.17463700E+03</pdfrwt>
<pdfrwt beam="2">  1       21 0.27953372E+00 0.17463700E+03</pdfrwt>
<totfact> 0.19226310E+04</totfact>
</mgrwt>
</event>
<event>
 4    1  0.4151607E+000  0.2521640E+03  0.7546771E-02  0.1111945E+00
         21   -1    0    0  501  502  0.00000000000E+00  0.00000000000E+00  0.75874194356E+02  0.75874194356E+02  0.00000000000E+00 0.  1.
         21   -1    0    0  502  503 -0.00000000000E+00 -0.00000000000E+00 -0.98308110694E+03  0.98308110694E+03  0.00000000000E+00 0.  1.
          6    1    1    2  501    0 -0.18031642336E+03 -0.33818318528E+02 -0.25023800600E+03  0.35525448744E+03  0.17300000000E+03 0.  1.
         -6    1    1    2    0  503  0.18031642336E+03  0.33818318528E+02 -0.65696890659E+03  0.70370081386E+03  0.17300000000E+03 0.  1.
<mgrwt>
<rscale>  2 0.25216402E+03</rscale>
<asrwt>0</asrwt>
<pdfrwt beam="1">  1       21 0.11672953E-01 0.25216402E+03</pdfrwt>
<pdfrwt beam="2">  1       21 0.15124325E+00 0.25216402E+03</pdfrwt>
<totfact> 0.17373947E+04</totfact>
</mgrwt>
</event>
<event>
 4    1  0.4151607E+000  0.1934167E+03  0.7546771E-02  0.1155415E+00
         21   -1    0    0  501  502  0.00000000000E+00  0.00000000000E+00  0.47923071128E+03  0.47923071128E+03  0.00000000000E+00 0.  1.
         21   -1    0    0  502  503 -0.00000000000E+00 -0.00000000000E+00 -0.83296055686E+02  0.83296055686E+02  0.00000000000E+00 0.  1.
          6    1    1    2  501    0 -0.79393707747E+02 -0.34317260273E+02  0.26846776381E+03  0.33088513926E+03  0.17300000000E+03 0. -1.
         -6    1    1    2    0  503  0.79393707747E+02  0.34317260273E+02  0.12746689179E+03  0.23164162770E+03  0.17300000000E+03 0. -1.
<mgrwt>
<rscale>  2 0.19341674E+03</rscale>
<asrwt>0</asrwt>
<pdfrwt beam="1">  1       21 0.73727800E-01 0.19341674E+03</pdfrwt>
<pdfrwt beam="2">  1       21 0.12814778E-01 0.19341674E+03</pdfrwt>
<totfact> 0.86132497E+04</totfact>
</mgrwt>
</event>
<event>
 4    1  0.4151607E+000  0.2087185E+03  0.7546771E-02  0.1142585E+00
         21   -1    0    0  503  502  0.00000000000E+00  0.00000000000E+00  0.30420988324E+03  0.30420988324E+03  0.00000000000E+00 0.  1.
         21   -1    0    0  501  503 -0.00000000000E+00 -0.00000000000E+00 -0.21072032371E+03  0.21072032371E+03  0.00000000000E+00 0.  1.
          6    1    1    2  501    0 -0.11468790296E+03 -0.21933562684E+02 -0.98994527176E+02  0.23100500572E+03  0.17300000000E+03 0.  1.
         -6    1    1    2    0  502  0.11468790296E+03  0.21933562684E+02  0.19248408670E+03  0.28392520123E+03  0.17300000000E+03 0.  1.
<mgrwt>
<rscale>  2 0.20871846E+03</rscale>
<asrwt>0</asrwt>
<pdfrwt beam="1">  1       21 0.46801520E-01 0.20871846E+03</pdfrwt>
<pdfrwt beam="2">  1       21 0.32418511E-01 0.20871846E+03</pdfrwt>
<totfact> 0.39687662E+04</totfact>
</mgrwt>
</event>
<event>
 4    1  0.4151607E+000  0.1817028E+03  0.7546771E-02  0.1166165E+00
         21   -1    0    0  503  502  0.00000000000E+00  0.00000000000E+00  0.16715549218E+03  0.16715549218E+03  0.00000000000E+00 0.  1.
         21   -1    0    0  501  503 -0.00000000000E+00 -0.00000000000E+00 -0.49097270883E+03  0.49097270883E+03  0.00000000000E+00 0.  1.
          6    1    1    2  501    0 -0.39308104004E+01 -0.55420659642E+02 -0.41631251548E+03  0.45423783564E+03  0.17300000000E+03 0.  1.
         -6    1    1    2    0  502  0.39308104004E+01  0.55420659642E+02  0.92495298824E+02  0.20389036537E+03  0.17300000000E+03 0.  1.
<mgrwt>
<rscale>  2 0.18170278E+03</rscale>
<asrwt>0</asrwt>
<pdfrwt beam="1">  1       21 0.25716230E-01 0.18170278E+03</pdfrwt>
<pdfrwt beam="2">  1       21 0.75534262E-01 0.18170278E+03</pdfrwt>
<totfact> 0.22601451E+04</totfact>
</mgrwt>
</event>
<event>
 4    1  0.4151607E+000  0.2322919E+03  0.7546771E-02  0.1125037E+00
         21   -1    0    0  501  502  0.00000000000E+00  0.00000000000E+00  0.43372652785E+03  0.43372652785E+03  0.00000000000E+00 0. -1.
         21   -1    0    0  502  503 -0.00000000000E+00 -0.00000000000E+00 -0.13348033558E+03  0.13348033558E+03  0.00000000000E+00 0.  1.
          6    1    1    2  501    0 -0.97259941277E+02  0.12071050303E+03  0.22405575918E+03  0.32273906634E+03  0.17300000000E+03 0. -1.
         -6    1    1    2    0  503  0.97259941277E+02 -0.12071050303E+03  0.76190433093E+02  0.24446779709E+03  0.17300000000E+03 0.  1.
<mgrwt>
<rscale>  2 0.23229189E+03</rscale>
<asrwt>0</asrwt>
<pdfrwt beam="1">  1       21 0.66727158E-01 0.23229189E+03</pdfrwt>
<pdfrwt beam="2">  1       21 0.20535436E-01 0.23229189E+03</pdfrwt>
<totfact> 0.44368230E+04</totfact>
</mgrwt>
</event>
<event>
 4    1  0.4151607E+000  0.1748013E+03  0.7546771E-02  0.1172931E+00
         21   -1    0    0  503  502  0.00000000000E+00  0.00000000000E+00  0.37897495130E+02  0.37897495130E+02  0.00000000000E+00 0. -1.
         21   -1    0    0  501  503 -0.00000000000E+00 -0.00000000000E+00 -0.84741146351E+03  0.84741146351E+03  0.00000000000E+00 0.  1.
          6    1    1    2  501    0  0.29510753159E+01  0.24855562004E+02 -0.50229463010E+03  0.53184152079E+03  0.17300000000E+03 0.  1.
         -6    1    1    2    0  502 -0.29510753159E+01 -0.24855562004E+02 -0.30721933828E+03  0.35346743785E+03  0.17300000000E+03 0. -1.
<mgrwt>
<rscale>  2 0.17480134E+03</rscale>
<asrwt>0</asrwt>
<pdfrwt beam="1">  1       21 0.58303840E-02 0.17480134E+03</pdfrwt>
<pdfrwt beam="2">  1       21 0.13037099E+00 0.17480134E+03</pdfrwt>
<totfact> 0.89614267E+04</totfact>
</mgrwt>
</event>
<event>
 4    1  0.4151607E+000  0.1967844E+03  0.7546771E-02  0.1152481E+00
         21   -1    0    0  501  502  0.00000000000E+00  0.00000000000E+00  0.24512741156E+02  0.24512741156E+02  0.00000000000E+00 0.  1.
         21   -1    0    0  502  503 -0.00000000000E+00 -0.00000000000E+00 -0.15800962109E+04  0.15800962109E+04  0.00000000000E+00 0.  1.
          6    1    1    2  501    0  0.93741742704E+02 -0.27567769990E+01 -0.76599393517E+03  0.79086713351E+03  0.17300000000E+03 0.  1.
         -6    1    1    2    0  503 -0.93741742704E+02  0.27567769990E+01 -0.78958953454E+03  0.81374181852E+03  0.17300000000E+03 0.  1.
<mgrwt>
<rscale>  2 0.19678444E+03</rscale>
<asrwt>0</asrwt>
<pdfrwt beam="1">  1       21 0.37711914E-02 0.19678444E+03</pdfrwt>
<pdfrwt beam="2">  1       21 0.24309169E+00 0.19678444E+03</pdfrwt>
<totfact> 0.31480885E+04</totfact>
</mgrwt>
</event>
<event>
 4    1  0.4151607E+000  0.2073926E+03  0.7546771E-02  0.1143648E+00
         21   -1    0    0  503  502  0.00000000000E+00  0.00000000000E+00  0.26219193981E+03  0.26219193981E+03  0.00000000000E+00 0.  1.
         21   -1    0    0  501  503 -0.00000000000E+00 -0.00000000000E+00 -0.26788345109E+03  0.26788345109E+03  0.00000000000E+00 0.  1.
          6    1    1    2  501    0 -0.11436467236E+03 -0.18508514887E+01 -0.16785580630E+03  0.26680943694E+03  0.17300000000E+03 0.  1.
         -6    1    1    2    0  502  0.11436467236E+03  0.18508514887E+01  0.16216429502E+03  0.26326595396E+03  0.17300000000E+03 0.  1.
<mgrwt>
<rscale>  2 0.20739263E+03</rscale>
<asrwt>0</asrwt>
<pdfrwt beam="1">  1       21 0.40337222E-01 0.20739263E+03</pdfrwt>
<pdfrwt beam="2">  1       21 0.41212838E-01 0.20739263E+03</pdfrwt>
<totfact> 0.33315371E+04</totfact>
</mgrwt>
</event>
<event>
 4    1  0.4151607E+000  0.1955016E+03  0.7546771E-02  0.1153591E+00
         21   -1    0    0  501  502  0.00000000000E+00  0.00000000000E+00  0.61485599714E+03  0.61485599714E+03  0.00000000000E+00 0. -1.
         21   -1    0    0  502  503 -0.00000000000E+00 -0.00000000000E+00 -0.64661826980E+02  0.64661826980E+02  0.00000000000E+00 0. -1.
          6    1    1    2  501    0  0.43243108708E+01  0.90956916638E+02  0.34189703760E+03  0.39384571176E+03  0.17300000000E+03 0. -1.
         -6    1    1    2    0  503 -0.43243108708E+01 -0.90956916638E+02  0.20829713255E+03  0.28567211236E+03  0.17300000000E+03 0. -1.
<mgrwt>
<rscale>  2 0.19550156E+03</rscale>
<asrwt>0</asrwt>
<pdfrwt beam="1">  1       21 0.94593226E-01 0.19550156E+03</pdfrwt>
<pdfrwt beam="2">  1       21 0.99479738E-02 0.19550156E+03</pdfrwt>
<totfact> 0.76532144E+04</totfact>
</mgrwt>
</event>
<event>
 4    1  0.4151607E+000  0.1810596E+03  0.7546771E-02  0.1166781E+00
         21   -1    0    0  501  502  0.00000000000E+00  0.00000000000E+00  0.29354882705E+02  0.29354882705E+02  0.00000000000E+00 0.  1.
         21   -1    0    0  502  503 -0.00000000000E+00 -0.00000000000E+00 -0.27452236376E+04  0.27452236376E+04  0.00000000000E+00 0. -1.
          6    1    1    2  501    0 -0.29266092931E+02  0.44688649134E+02 -0.28945488932E+03  0.34141867627E+03  0.17300000000E+03 0.  1.
         -6    1    1    2    0  503  0.29266092931E+02 -0.44688649134E+02 -0.24264138656E+04  0.24331598440E+04  0.17300000000E+03 0. -1.
<mgrwt>
<rscale>  2 0.18105960E+03</rscale>
<asrwt>0</asrwt>
<pdfrwt beam="1">  1       21 0.45161357E-02 0.18105960E+03</pdfrwt>
<pdfrwt beam="2">  1       21 0.42234211E+00 0.18105960E+03</pdfrwt>
<totfact> 0.20491123E+03</totfact>
</mgrwt>
</event>
<event>
 4    1  0.4151607E+000  0.2617908E+03  0.7546771E-02  0.1106072E+00
         21   -1    0    0  503  502  0.00000000000E+00  0.00000000000E+00  0.21561110894E+03  0.21561110894E+03  0.00000000000E+00 0. -1.
         21   -1    0    0  501  503 -0.00000000000E+00 -0.00000000000E+00 -0.49305874015E+03  0.49305874015E+03  0.00000000000E+00 0.  1.
          6    1    1    2  501    0 -0.47474524411E+02 -0.19066091977E+03 -0.34994066892E+03  0.43702733159E+03  0.17300000000E+03 0.  1.
         -6    1    1    2    0  502  0.47474524411E+02  0.19066091977E+03  0.72493037713E+02  0.27164251750E+03  0.17300000000E+03 0. -1.
<mgrwt>
<rscale>  2 0.26179079E+03</rscale>
<asrwt>0</asrwt>
<pdfrwt beam="1">  1       21 0.33170940E-01 0.26179079E+03</pdfrwt>
<pdfrwt beam="2">  1       21 0.75855190E-01 0.26179079E+03</pdfrwt>
<totfact> 0.13029882E+04</totfact>
</mgrwt>
</event>
<event>
 4    1  0.4151607E+000  0.1857598E+03  0.7546771E-02  0.1162342E+00
         21   -1    0    0  501  502  0.00000000000E+00  0.00000000000E+00  0.10664618263E+03  0.10664618263E+03  0.00000000000E+00 0. -1.
         21   -1    0    0  502  503 -0.00000000000E+00 -0.00000000000E+00 -0.32748787154E+03  0.32748787154E+03  0.00000000000E+00 0. -1.
          6    1    1    2  501    0 -0.13025943555E+02  0.66392973846E+02 -0.86655816056E+02  0.20497788329E+03  0.17300000000E+03 0. -1.
         -6    1    1    2    0  503  0.13025943555E+02 -0.66392973846E+02 -0.13418587285E+03  0.22915617089E+03  0.17300000000E+03 0. -1.
<mgrwt>
<rscale>  2 0.18575980E+03</rscale>
<asrwt>0</asrwt>
<pdfrwt beam="1">  1       21 0.16407105E-01 0.18575980E+03</pdfrwt>
<pdfrwt beam="2">  1       21 0.50382749E-01 0.18575980E+03</pdfrwt>
<totfact> 0.12518161E+05</totfact>
</mgrwt>
</event>
<event>
 4    1  0.4151607E+000  0.1868463E+03  0.7546771E-02  0.1161337E+00
         21   -1    0    0  503  502  0.00000000000E+00  0.00000000000E+00  0.36117829570E+03  0.36117829570E+03  0.00000000000E+00 0. -1.
         21   -1    0    0  501  503 -0.00000000000E+00 -0.00000000000E+00 -0.10473263575E+03  0.10473263575E+03  0.00000000000E+00 0. -1.
          6    1    1    2  501    0  0.29863442429E+02  0.63958747387E+02  0.63547946293E+02  0.19735725991E+03  0.17300000000E+03 0. -1.
         -6    1    1    2    0  502 -0.29863442429E+02 -0.63958747387E+02  0.19289771367E+03  0.26855367154E+03  0.17300000000E+03 0. -1.
<mgrwt>
<rscale>  2 0.18684632E+03</rscale>
<asrwt>0</asrwt>
<pdfrwt beam="1">  1       21 0.55565891E-01 0.18684632E+03</pdfrwt>
<pdfrwt beam="2">  1       21 0.16112713E-01 0.18684632E+03</pdfrwt>
<totfact> 0.10529695E+05</totfact>
</mgrwt>
</event>
<event>
 4    1  0.4151607E+000  0.1756404E+03  0.7546771E-02  0.1172090E+00
         21   -1    0    0  503  502  0.00000000000E+00  0.00000000000E+00  0.83429677257E+02  0.83429677257E+02  0.00000000000E+00 0. -1.
         21   -1    0    0  501  503 -0.00000000000E+00 -0.00000000000E+00 -0.14280459498E+04  0.14280459498E+04  0.00000000000E+00 0. -1.
          6    1    1    2  501    0  0.14356164185E+02  0.26729369428E+02 -0.13228872230E+04  0.13344962208E+04  0.17300000000E+03 0. -1.
         -6    1    1    2    0  502 -0.14356164185E+02 -0.26729369428E+02 -0.21729049565E+02  0.17697940625E+03  0.17300000000E+03 0. -1.
<mgrwt>
<rscale>  2 0.17564042E+03</rscale>
<asrwt>0</asrwt>
<pdfrwt beam="1">  1       21 0.12835336E-01 0.17564042E+03</pdfrwt>
<pdfrwt beam="2">  1       21 0.21969936E+00 0.17564042E+03</pdfrwt>
<totfact> 0.53440548E+03</totfact>
</mgrwt>
</event>
<event>
 4    1  0.4151607E+000  0.2533573E+03  0.7546771E-02  0.1111201E+00
         21   -1    0    0  503  502  0.00000000000E+00  0.00000000000E+00  0.54880381465E+03  0.54880381465E+03  0.00000000000E+00 0.  1.
         21   -1    0    0  501  503 -0.00000000000E+00 -0.00000000000E+00 -0.12146412032E+03  0.12146412032E+03  0.00000000000E+00 0. -1.
          6    1    1    2  501    0  0.90972920618E+02 -0.16119822744E+03  0.14915834549E+03  0.29400366128E+03  0.17300000000E+03 0.  1.
         -6    1    1    2    0  502 -0.90972920618E+02  0.16119822744E+03  0.27818134884E+03  0.37626427369E+03  0.17300000000E+03 0.  1.
<mgrwt>
<rscale>  2 0.25335734E+03</rscale>
<asrwt>0</asrwt>
<pdfrwt beam="1">  1       21 0.84431355E-01 0.25335734E+03</pdfrwt>
<pdfrwt beam="2">  1       21 0.18686788E-01 0.25335734E+03</pdfrwt>
<totfact> 0.30911864E+04</totfact>
</mgrwt>
</event>
<event>
 4    1  0.4151607E+000  0.2766433E+03  0.7546771E-02  0.1097537E+00
         21   -1    0    0  501  502  0.00000000000E+00  0.00000000000E+00  0.56367043801E+03  0.56367043801E+03  0.00000000000E+00 0. -1.
         21   -1    0    0  502  503 -0.00000000000E+00 -0.00000000000E+00 -0.24292814162E+03  0.24292814162E+03  0.00000000000E+00 0. -1.
          6    1    1    2  501    0  0.20831937415E+03  0.56617778030E+02  0.42822256204E+03  0.50980986365E+03  0.17300000000E+03 0. -1.
         -6    1    1    2    0  503 -0.20831937415E+03 -0.56617778030E+02 -0.10748026564E+03  0.29678871599E+03  0.17300000000E+03 0. -1.
<mgrwt>
<rscale>  2 0.27664333E+03</rscale>
<asrwt>0</asrwt>
<pdfrwt beam="1">  1       21 0.86718529E-01 0.27664333E+03</pdfrwt>
<pdfrwt beam="2">  1       21 0.37373560E-01 0.27664333E+03</pdfrwt>
<totfact> 0.74977574E+03</totfact>
</mgrwt>
</event>
<event>
 4    1  0.4151607E+000  0.1733872E+03  0.7546771E-02  0.1174361E+00
         21   -1    0    0  503  502  0.00000000000E+00  0.00000000000E+00  0.32639615394E+03  0.32639615394E+03  0.00000000000E+00 0.  1.
         21   -1    0    0  501  503 -0.00000000000E+00 -0.00000000000E+00 -0.12024586894E+03  0.12024586894E+03  0.00000000000E+00 0.  1.
          6    1    1    2  501    0  0.91188696083E+00 -0.11545217366E+02 -0.49571671157E+01  0.17345805570E+03  0.17300000000E+03 0.  1.
         -6    1    1    2    0  502 -0.91188696083E+00  0.11545217366E+02  0.21110745212E+03  0.27318396718E+03  0.17300000000E+03 0.  1.
<mgrwt>
<rscale>  2 0.17338721E+03</rscale>
<asrwt>0</asrwt>
<pdfrwt beam="1">  1       21 0.50214793E-01 0.17338721E+03</pdfrwt>
<pdfrwt beam="2">  1       21 0.18499365E-01 0.17338721E+03</pdfrwt>
<totfact> 0.10153564E+05</totfact>
</mgrwt>
</event>
<event>
 4    1  0.4151607E+000  0.1773463E+03  0.7546771E-02  0.1170396E+00
         21   -1    0    0  503  502  0.00000000000E+00  0.00000000000E+00  0.48300686906E+03  0.48300686906E+03  0.00000000000E+00 0.  1.
         21   -1    0    0  501  503 -0.00000000000E+00 -0.00000000000E+00 -0.90012147301E+02  0.90012147301E+02  0.00000000000E+00 0.  1.
          6    1    1    2  501    0  0.39000862604E+02 -0.12846887231E+01  0.45819247864E+02  0.18316965137E+03  0.17300000000E+03 0.  1.
         -6    1    1    2    0  502 -0.39000862604E+02  0.12846887231E+01  0.34717547390E+03  0.38984936499E+03  0.17300000000E+03 0.  1.
<mgrwt>
<rscale>  2 0.17734632E+03</rscale>
<asrwt>0</asrwt>
<pdfrwt beam="1">  1       21 0.74308748E-01 0.17734632E+03</pdfrwt>
<pdfrwt beam="2">  1       21 0.13848023E-01 0.17734632E+03</pdfrwt>
<totfact> 0.74097874E+04</totfact>
</mgrwt>
</event>
<event>
 4    1  0.4151607E+000  0.1762150E+03  0.7546771E-02  0.1171517E+00
         21   -1    0    0  503  502  0.00000000000E+00  0.00000000000E+00  0.69297770895E+02  0.69297770895E+02  0.00000000000E+00 0.  1.
         21   -1    0    0  501  503 -0.00000000000E+00 -0.00000000000E+00 -0.56295905687E+03  0.56295905687E+03  0.00000000000E+00 0.  1.
          6    1    1    2  501    0 -0.24222685660E+02  0.23151723021E+02 -0.38962921200E+03  0.42762444227E+03  0.17300000000E+03 0. -1.
         -6    1    1    2    0  502  0.24222685660E+02 -0.23151723021E+02 -0.10403207397E+03  0.20463238550E+03  0.17300000000E+03 0. -1.
<mgrwt>
<rscale>  2 0.17621504E+03</rscale>
<asrwt>0</asrwt>
<pdfrwt beam="1">  1       21 0.10661196E-01 0.17621504E+03</pdfrwt>
<pdfrwt beam="2">  1       21 0.86609083E-01 0.17621504E+03</pdfrwt>
<totfact> 0.83743216E+04</totfact>
</mgrwt>
</event>
<event>
 4    1  0.4151607E+000  0.2514411E+03  0.7546771E-02  0.1112397E+00
         21   -1    0    0  501  502  0.00000000000E+00  0.00000000000E+00  0.13010707193E+04  0.13010707193E+04  0.00000000000E+00 0. -1.
         21   -1    0    0  502  503 -0.00000000000E+00 -0.00000000000E+00 -0.53227592420E+02  0.53227592420E+02  0.00000000000E+00 0. -1.
          6    1    1    2  501    0 -0.16700307208E+03  0.73509126431E+02  0.82373879080E+03  0.86125966654E+03  0.17300000000E+03 0. -1.
         -6    1    1    2    0  503  0.16700307208E+03 -0.73509126431E+02  0.42410433611E+03  0.49303864520E+03  0.17300000000E+03 0. -1.
<mgrwt>
<rscale>  2 0.25144108E+03</rscale>
<asrwt>0</asrwt>
<pdfrwt beam="1">  1       21 0.20016470E+00 0.25144108E+03</pdfrwt>
<pdfrwt beam="2">  1       21 0.81888614E-02 0.25144108E+03</pdfrwt>
<totfact> 0.14798372E+04</totfact>
</mgrwt>
</event>
<event>
 4    1  0.4151607E+000  0.1746721E+03  0.7546771E-02  0.1173061E+00
         21   -1    0    0  501  502  0.00000000000E+00  0.00000000000E+00  0.30335673588E+03  0.30335673588E+03  0.00000000000E+00 0.  1.
         21   -1    0    0  502  503 -0.00000000000E+00 -0.00000000000E+00 -0.17012890079E+03  0.17012890079E+03  0.00000000000E+00 0.  1.
          6    1    1    2  501    0 -0.16482159633E+01 -0.24054379571E+02  0.21798613900E+03  0.27933543740E+03  0.17300000000E+03 0.  1.
         -6    1    1    2    0  503  0.16482159633E+01  0.24054379571E+02 -0.84758303920E+02  0.19415019927E+03  0.17300000000E+03 0.  1.
<mgrwt>
<rscale>  2 0.17467206E+03</rscale>
<asrwt>0</asrwt>
<pdfrwt beam="1">  1       21 0.46670267E-01 0.17467206E+03</pdfrwt>
<pdfrwt beam="2">  1       21 0.26173677E-01 0.17467206E+03</pdfrwt>
<totfact> 0.61482707E+04</totfact>
</mgrwt>
</event>
<event>
 4    1  0.4151607E+000  0.1970387E+03  0.7546771E-02  0.1152262E+00
         21   -1    0    0  501  502  0.00000000000E+00  0.00000000000E+00  0.26277012096E+03  0.26277012096E+03  0.00000000000E+00 0. -1.
         21   -1    0    0  502  503 -0.00000000000E+00 -0.00000000000E+00 -0.16584092275E+03  0.16584092275E+03  0.00000000000E+00 0. -1.
          6    1    1    2  501    0  0.64777907016E+02 -0.68549655590E+02  0.11924618393E+03  0.23031258086E+03  0.17300000000E+03 0. -1.
         -6    1    1    2    0  503 -0.64777907016E+02  0.68549655590E+02 -0.22316985719E+02  0.19829846285E+03  0.17300000000E+03 0. -1.
<mgrwt>
<rscale>  2 0.19703866E+03</rscale>
<asrwt>0</asrwt>
<pdfrwt beam="1">  1       21 0.40426172E-01 0.19703866E+03</pdfrwt>
<pdfrwt beam="2">  1       21 0.25513988E-01 0.19703866E+03</pdfrwt>
<totfact> 0.85739097E+04</totfact>
</mgrwt>
</event>
<event>
 4    1  0.4151607E+000  0.1780772E+03  0.7546771E-02  0.1169677E+00
         21   -1    0    0  501  502  0.00000000000E+00  0.00000000000E+00  0.53697120058E+02  0.53697120058E+02  0.00000000000E+00 0.  1.
         21   -1    0    0  502  503 -0.00000000000E+00 -0.00000000000E+00 -0.63240071120E+03  0.63240071120E+03  0.00000000000E+00 0.  1.
          6    1    1    2  501    0  0.41846377804E+02 -0.56016394303E+01 -0.20111551754E+03  0.26862417816E+03  0.17300000000E+03 0.  1.
         -6    1    1    2    0  503 -0.41846377804E+02  0.56016394303E+01 -0.37758807360E+03  0.41747365309E+03  0.17300000000E+03 0.  1.
<mgrwt>
<rscale>  2 0.17807722E+03</rscale>
<asrwt>0</asrwt>
<pdfrwt beam="1">  1       21 0.82610957E-02 0.17807722E+03</pdfrwt>
<pdfrwt beam="2">  1       21 0.97292413E-01 0.17807722E+03</pdfrwt>
<totfact> 0.99988279E+04</totfact>
</mgrwt>
</event>
<event>
 4    1  0.4151607E+000  0.2217113E+03  0.7546771E-02  0.1132614E+00
         21   -1    0    0  501  502  0.00000000000E+00  0.00000000000E+00  0.10230783925E+04  0.10230783925E+04  0.00000000000E+00 0.  1.
         21   -1    0    0  502  503 -0.00000000000E+00 -0.00000000000E+00 -0.48687557008E+02  0.48687557008E+02  0.00000000000E+00 0.  1.
          6    1    1    2  501    0 -0.58398830718E+02  0.12576360512E+03  0.42573154979E+03  0.48000339612E+03  0.17300000000E+03 0.  1.
         -6    1    1    2    0  503  0.58398830718E+02 -0.12576360512E+03  0.54865928573E+03  0.59176255341E+03  0.17300000000E+03 0.  1.
<mgrwt>
<rscale>  2 0.22171132E+03</rscale>
<asrwt>0</asrwt>
<pdfrwt beam="1">  1       21 0.15739666E+00 0.22171132E+03</pdfrwt>
<pdfrwt beam="2">  1       21 0.74903941E-02 0.22171132E+03</pdfrwt>
<totfact> 0.34779017E+04</totfact>
</mgrwt>
</event>
<event>
 4    1  0.4151607E+000  0.1942679E+03  0.7546771E-02  0.1154667E+00
         21   -1    0    0  501  502  0.00000000000E+00  0.00000000000E+00  0.11250603365E+03  0.11250603365E+03  0.00000000000E+00 0.  1.
         21   -1    0    0  502  503 -0.00000000000E+00 -0.00000000000E+00 -0.44726183848E+03  0.44726183848E+03  0.00000000000E+00 0.  1.
          6    1    1    2  501    0  0.87875243335E+02 -0.94310350940E+01 -0.27437387350E+02  0.19619585378E+03  0.17300000000E+03 0.  1.
         -6    1    1    2    0  503 -0.87875243335E+02  0.94310350940E+01 -0.30731841748E+03  0.36357201836E+03  0.17300000000E+03 0.  1.
<mgrwt>
<rscale>  2 0.19426786E+03</rscale>
<asrwt>0</asrwt>
<pdfrwt beam="1">  1       21 0.17308620E-01 0.19426786E+03</pdfrwt>
<pdfrwt beam="2">  1       21 0.68809515E-01 0.19426786E+03</pdfrwt>
<totfact> 0.58032466E+04</totfact>
</mgrwt>
</event>
<event>
 4    1  0.4151607E+000  0.1947559E+03  0.7546771E-02  0.1154240E+00
         21   -1    0    0  503  502  0.00000000000E+00  0.00000000000E+00  0.10210445232E+03  0.10210445232E+03  0.00000000000E+00 0. -1.
         21   -1    0    0  501  503 -0.00000000000E+00 -0.00000000000E+00 -0.37163109536E+03  0.37163109536E+03  0.00000000000E+00 0.  1.
          6    1    1    2  501    0  0.89333869684E+02  0.45056785406E+01 -0.13952712816E+03  0.23957808937E+03  0.17300000000E+03 0. -1.
         -6    1    1    2    0  502 -0.89333869684E+02 -0.45056785406E+01 -0.12999951488E+03  0.23415745831E+03  0.17300000000E+03 0. -1.
<mgrwt>
<rscale>  2 0.19475585E+03</rscale>
<asrwt>0</asrwt>
<pdfrwt beam="1">  1       21 0.15708377E-01 0.19475585E+03</pdfrwt>
<pdfrwt beam="2">  1       21 0.57174014E-01 0.19475585E+03</pdfrwt>
<totfact> 0.10351610E+05</totfact>
</mgrwt>
</event>
<event>
 4    1  0.4151607E+000  0.1906758E+03  0.7546771E-02  0.1157853E+00
         21   -1    0    0  503  502  0.00000000000E+00  0.00000000000E+00  0.99132806287E+03  0.99132806287E+03  0.00000000000E+00 0.  1.
         21   -1    0    0  501  503 -0.00000000000E+00 -0.00000000000E+00 -0.73384767698E+02  0.73384767698E+02  0.00000000000E+00 0.  1.
          6    1    1    2  501    0 -0.48545755602E+02 -0.63808831500E+02  0.82451210471E+02  0.20773892142E+03  0.17300000000E+03 0.  1.
         -6    1    1    2    0  502  0.48545755602E+02  0.63808831500E+02  0.83549208470E+03  0.85697390915E+03  0.17300000000E+03 0.  1.
<mgrwt>
<rscale>  2 0.19067579E+03</rscale>
<asrwt>0</asrwt>
<pdfrwt beam="1">  1       21 0.15251200E+00 0.19067579E+03</pdfrwt>
<pdfrwt beam="2">  1       21 0.11289965E-01 0.19067579E+03</pdfrwt>
<totfact> 0.18744995E+04</totfact>
</mgrwt>
</event>
<event>
 4    1  0.4151607E+000  0.2589698E+03  0.7546771E-02  0.1107764E+00
         21   -1    0    0  503  502  0.00000000000E+00  0.00000000000E+00  0.89335421166E+03  0.89335421166E+03  0.00000000000E+00 0. -1.
         21   -1    0    0  501  503 -0.00000000000E+00 -0.00000000000E+00 -0.81707456433E+02  0.81707456433E+02  0.00000000000E+00 0.  1.
          6    1    1    2  501    0 -0.15242122952E+03  0.11791566913E+03  0.26688352558E+03  0.37187652852E+03  0.17300000000E+03 0.  1.
         -6    1    1    2    0  502  0.15242122952E+03 -0.11791566913E+03  0.54476322964E+03  0.60318513958E+03  0.17300000000E+03 0.  1.
<mgrwt>
<rscale>  2 0.25896976E+03</rscale>
<asrwt>0</asrwt>
<pdfrwt beam="1">  1       21 0.13743910E+00 0.25896976E+03</pdfrwt>
<pdfrwt beam="2">  1       21 0.12570379E-01 0.25896976E+03</pdfrwt>
<totfact> 0.19488841E+04</totfact>
</mgrwt>
</event>
<event>
 4    1  0.4151607E+000  0.1841896E+03  0.7546771E-02  0.1163809E+00
         21   -1    0    0  503  502  0.00000000000E+00  0.00000000000E+00  0.58358465618E+03  0.58358465618E+03  0.00000000000E+00 0. -1.
         21   -1    0    0  501  503 -0.00000000000E+00 -0.00000000000E+00 -0.64057863580E+02  0.64057863580E+02  0.00000000000E+00 0. -1.
          6    1    1    2  501    0 -0.19201515529E+01 -0.63191060508E+02  0.16128491666E+03  0.24482365379E+03  0.17300000000E+03 0. -1.
         -6    1    1    2    0  502  0.19201515529E+01  0.63191060508E+02  0.35824187594E+03  0.40281886597E+03  0.17300000000E+03 0. -1.
<mgrwt>
<rscale>  2 0.18418957E+03</rscale>
<asrwt>0</asrwt>
<pdfrwt beam="1">  1       21 0.89782252E-01 0.18418957E+03</pdfrwt>
<pdfrwt beam="2">  1       21 0.98550563E-02 0.18418957E+03</pdfrwt>
<totfact> 0.88277692E+04</totfact>
</mgrwt>
</event>
<event>
 4    1  0.4151607E+000  0.3159194E+03  0.7546771E-02  0.1077543E+00
         21   -1    0    0  503  502  0.00000000000E+00  0.00000000000E+00  0.14867269997E+04  0.14867269997E+04  0.00000000000E+00 0.  1.
         21   -1    0    0  501  503 -0.00000000000E+00 -0.00000000000E+00 -0.16822414321E+03  0.16822414321E+03  0.00000000000E+00 0. -1.
          6    1    1    2  501    0 -0.26170202318E+03  0.37257611663E+02  0.17787211568E+02  0.31641975833E+03  0.17300000000E+03 0. -1.
         -6    1    1    2    0  502  0.26170202318E+03 -0.37257611663E+02  0.13007156449E+04  0.13385313846E+04  0.17300000000E+03 0.  1.
<mgrwt>
<rscale>  2 0.31591942E+03</rscale>
<asrwt>0</asrwt>
<pdfrwt beam="1">  1       21 0.22872722E+00 0.31591942E+03</pdfrwt>
<pdfrwt beam="2">  1       21 0.25880638E-01 0.31591942E+03</pdfrwt>
<totfact> 0.11287614E+03</totfact>
</mgrwt>
</event>
<event>
 4    1  0.4151607E+000  0.2222237E+03  0.7546771E-02  0.1132236E+00
         21   -1    0    0  503  502  0.00000000000E+00  0.00000000000E+00  0.43142363760E+03  0.43142363760E+03  0.00000000000E+00 0.  1.
         21   -1    0    0  501  503 -0.00000000000E+00 -0.00000000000E+00 -0.22669893115E+03  0.22669893115E+03  0.00000000000E+00 0.  1.
          6    1    1    2  501    0 -0.13899431049E+03  0.11617520317E+02 -0.12917016431E+03  0.25703757795E+03  0.17300000000E+03 0.  1.
         -6    1    1    2    0  502  0.13899431049E+03 -0.11617520317E+02  0.33389487077E+03  0.40108499081E+03  0.17300000000E+03 0.  1.
<mgrwt>
<rscale>  2 0.22222373E+03</rscale>
<asrwt>0</asrwt>
<pdfrwt beam="1">  1       21 0.66372867E-01 0.22222373E+03</pdfrwt>
<pdfrwt beam="2">  1       21 0.34876759E-01 0.22222373E+03</pdfrwt>
<totfact> 0.16208623E+04</totfact>
</mgrwt>
</event>
<event>
 4    1  0.4151607E+000  0.1753210E+03  0.7546771E-02  0.1172410E+00
         21   -1    0    0  501  502  0.00000000000E+00  0.00000000000E+00  0.20187595215E+02  0.20187595215E+02  0.00000000000E+00 0.  1.
         21   -1    0    0  502  503 -0.00000000000E+00 -0.00000000000E+00 -0.20238635384E+04  0.20238635384E+04  0.00000000000E+00 0.  1.
          6    1    1    2  501    0  0.81085768923E+01  0.27252608469E+02 -0.49320086363E+03  0.52343533084E+03  0.17300000000E+03 0. -1.
         -6    1    1    2    0  503 -0.81085768923E+01 -0.27252608469E+02 -0.15104750795E+04  0.15206158027E+04  0.17300000000E+03 0. -1.
<mgrwt>
<rscale>  2 0.17532100E+03</rscale>
<asrwt>0</asrwt>
<pdfrwt beam="1">  1       21 0.31057834E-02 0.17532100E+03</pdfrwt>
<pdfrwt beam="2">  1       21 0.31136367E+00 0.17532100E+03</pdfrwt>
<totfact> 0.17872693E+04</totfact>
</mgrwt>
</event>
<event>
 4    1  0.4151607E+000  0.1932196E+03  0.7546771E-02  0.1155589E+00
         21   -1    0    0  503  502  0.00000000000E+00  0.00000000000E+00  0.18229950880E+03  0.18229950880E+03  0.00000000000E+00 0.  1.
         21   -1    0    0  501  503 -0.00000000000E+00 -0.00000000000E+00 -0.29878949050E+03  0.29878949050E+03  0.00000000000E+00 0. -1.
          6    1    1    2  501    0 -0.52349961401E+02 -0.68295735908E+02 -0.19316194543E+03  0.27321303623E+03  0.17300000000E+03 0. -1.
         -6    1    1    2    0  502  0.52349961401E+02  0.68295735908E+02  0.76671963737E+02  0.20787596308E+03  0.17300000000E+03 0.  1.
<mgrwt>
<rscale>  2 0.19321963E+03</rscale>
<asrwt>0</asrwt>
<pdfrwt beam="1">  1       21 0.28046078E-01 0.19321963E+03</pdfrwt>
<pdfrwt beam="2">  1       21 0.45967614E-01 0.19321963E+03</pdfrwt>
<totfact> 0.55075732E+04</totfact>
</mgrwt>
</event>
<event>
 4    1  0.4151607E+000  0.1918140E+03  0.7546771E-02  0.1156835E+00
         21   -1    0    0  501  502  0.00000000000E+00  0.00000000000E+00  0.39830462647E+02  0.39830462647E+02  0.00000000000E+00 0. -1.
         21   -1    0    0  502  503 -0.00000000000E+00 -0.00000000000E+00 -0.13285200126E+04  0.13285200126E+04  0.00000000000E+00 0. -1.
          6    1    1    2  501    0 -0.82306937324E+02  0.94439668936E+01 -0.26668752233E+03  0.32850396498E+03  0.17300000000E+03 0. -1.
         -6    1    1    2    0  503  0.82306937324E+02 -0.94439668936E+01 -0.10220020276E+04  0.10398465103E+04  0.17300000000E+03 0. -1.
<mgrwt>
<rscale>  2 0.19181403E+03</rscale>
<asrwt>0</asrwt>
<pdfrwt beam="1">  1       21 0.61277634E-02 0.19181403E+03</pdfrwt>
<pdfrwt beam="2">  1       21 0.20438770E+00 0.19181403E+03</pdfrwt>
<totfact> 0.23957610E+04</totfact>
</mgrwt>
</event>
<event>
 4    1  0.4151607E+000  0.2017319E+03  0.7546771E-02  0.1148286E+00
         21   -1    0    0  501  502  0.00000000000E+00  0.00000000000E+00  0.64938063201E+02  0.64938063201E+02  0.00000000000E+00 0. -1.
         21   -1    0    0  502  503 -0.00000000000E+00 -0.00000000000E+00 -0.98124884355E+03  0.98124884355E+03  0.00000000000E+00 0. -1.
          6    1    1    2  501    0  0.18665962712E+02  0.10207029961E+03 -0.14371638109E+03  0.24768964940E+03  0.17300000000E+03 0. -1.
         -6    1    1    2    0  503 -0.18665962712E+02 -0.10207029961E+03 -0.77259439926E+03  0.79849725735E+03  0.17300000000E+03 0. -1.
<mgrwt>
<rscale>  2 0.20173191E+03</rscale>
<asrwt>0</asrwt>
<pdfrwt beam="1">  1       21 0.99904715E-02 0.20173191E+03</pdfrwt>
<pdfrwt beam="2">  1       21 0.15096136E+00 0.20173191E+03</pdfrwt>
<totfact> 0.23747876E+04</totfact>
</mgrwt>
</event>
<event>
 4    1  0.4151607E+000  0.3201498E+03  0.7546771E-02  0.1075580E+00
         21   -1    0    0  503  502  0.00000000000E+00  0.00000000000E+00  0.21464079707E+03  0.21464079707E+03  0.00000000000E+00 0. -1.
         21   -1    0    0  501  503 -0.00000000000E+00 -0.00000000000E+00 -0.47752500949E+03  0.47752500949E+03  0.00000000000E+00 0. -1.
          6    1    1    2  501    0  0.25433297638E+03  0.88778546713E+02 -0.13217162232E+03  0.34635997312E+03  0.17300000000E+03 0. -1.
         -6    1    1    2    0  502 -0.25433297638E+03 -0.88778546713E+02 -0.13071259010E+03  0.34580583344E+03  0.17300000000E+03 0. -1.
<mgrwt>
<rscale>  2 0.32014980E+03</rscale>
<asrwt>0</asrwt>
<pdfrwt beam="1">  1       21 0.33021661E-01 0.32014980E+03</pdfrwt>
<pdfrwt beam="2">  1       21 0.73465386E-01 0.32014980E+03</pdfrwt>
<totfact> 0.13767058E+04</totfact>
</mgrwt>
</event>
<event>
 4    1  0.4151607E+000  0.2382866E+03  0.7546771E-02  0.1120940E+00
         21   -1    0    0  503  502  0.00000000000E+00  0.00000000000E+00  0.80815162067E+02  0.80815162067E+02  0.00000000000E+00 0.  1.
         21   -1    0    0  501  503 -0.00000000000E+00 -0.00000000000E+00 -0.10517145096E+04  0.10517145096E+04  0.00000000000E+00 0.  1.
          6    1    1    2  501    0 -0.16354398181E+03  0.10240060902E+02 -0.81170413392E+03  0.84595750121E+03  0.17300000000E+03 0.  1.
         -6    1    1    2    0  502  0.16354398181E+03 -0.10240060902E+02 -0.15919521358E+03  0.28657217042E+03  0.17300000000E+03 0.  1.
<mgrwt>
<rscale>  2 0.23828658E+03</rscale>
<asrwt>0</asrwt>
<pdfrwt beam="1">  1       21 0.12433102E-01 0.23828658E+03</pdfrwt>
<pdfrwt beam="2">  1       21 0.16180223E+00 0.23828658E+03</pdfrwt>
<totfact> 0.13031152E+04</totfact>
</mgrwt>
</event>
<event>
 4    1  0.4151607E+000  0.1734355E+03  0.7546771E-02  0.1174312E+00
         21   -1    0    0  501  502  0.00000000000E+00  0.00000000000E+00  0.37953610685E+02  0.37953610685E+02  0.00000000000E+00 0.  1.
         21   -1    0    0  502  503 -0.00000000000E+00 -0.00000000000E+00 -0.10680214700E+04  0.10680214700E+04  0.00000000000E+00 0.  1.
          6    1    1    2  501    0 -0.54561060334E+01 -0.11005188226E+02 -0.23418751853E+03  0.29141667265E+03  0.17300000000E+03 0.  1.
         -6    1    1    2    0  503  0.54561060334E+01  0.11005188226E+02 -0.79588034080E+03  0.81455840805E+03  0.17300000000E+03 0.  1.
<mgrwt>
<rscale>  2 0.17343553E+03</rscale>
<asrwt>0</asrwt>
<pdfrwt beam="1">  1       21 0.58390176E-02 0.17343553E+03</pdfrwt>
<pdfrwt beam="2">  1       21 0.16431098E+00 0.17343553E+03</pdfrwt>
<totfact> 0.48937865E+04</totfact>
</mgrwt>
</event>
<event>
 4    1  0.4151607E+000  0.2531149E+03  0.7546771E-02  0.1111352E+00
         21   -1    0    0  503  502  0.00000000000E+00  0.00000000000E+00  0.79815144636E+03  0.79815144636E+03  0.00000000000E+00 0.  1.
         21   -1    0    0  501  503 -0.00000000000E+00 -0.00000000000E+00 -0.93439224093E+03  0.93439224093E+03  0.00000000000E+00 0. -1.
          6    1    1    2  501    0 -0.18334762525E+03 -0.22842879138E+02 -0.89634809754E+03  0.93140059092E+03  0.17300000000E+03 0. -1.
         -6    1    1    2    0  502  0.18334762525E+03  0.22842879138E+02  0.76010730298E+03  0.80114309636E+03  0.17300000000E+03 0.  1.
<mgrwt>
<rscale>  2 0.25311489E+03</rscale>
<asrwt>0</asrwt>
<pdfrwt beam="1">  1       21 0.12279253E+00 0.25311489E+03</pdfrwt>
<pdfrwt beam="2">  1       21 0.14375265E+00 0.25311489E+03</pdfrwt>
<totfact> 0.15539950E+02</totfact>
</mgrwt>
</event>
<event>
 4    1  0.4151607E+000  0.2034082E+03  0.7546771E-02  0.1146895E+00
         21   -1    0    0  503  502  0.00000000000E+00  0.00000000000E+00  0.14516220935E+03  0.14516220935E+03  0.00000000000E+00 0.  1.
         21   -1    0    0  501  503 -0.00000000000E+00 -0.00000000000E+00 -0.28537958821E+03  0.28537958821E+03  0.00000000000E+00 0.  1.
          6    1    1    2  501    0  0.84165184755E+02 -0.66046396061E+02 -0.62523931581E+02  0.21280072081E+03  0.17300000000E+03 0.  1.
         -6    1    1    2    0  502 -0.84165184755E+02  0.66046396061E+02 -0.77693447280E+02  0.21774107676E+03  0.17300000000E+03 0.  1.
<mgrwt>
<rscale>  2 0.20340822E+03</rscale>
<asrwt>0</asrwt>
<pdfrwt beam="1">  1       21 0.22332648E-01 0.20340822E+03</pdfrwt>
<pdfrwt beam="2">  1       21 0.43904552E-01 0.20340822E+03</pdfrwt>
<totfact> 0.93111565E+04</totfact>
</mgrwt>
</event>
<event>
 4    1  0.4151607E+000  0.2504716E+03  0.7546771E-02  0.1113007E+00
         21   -1    0    0  503  502  0.00000000000E+00  0.00000000000E+00  0.64061141042E+03  0.64061141042E+03  0.00000000000E+00 0. -1.
         21   -1    0    0  501  503 -0.00000000000E+00 -0.00000000000E+00 -0.99385164520E+02  0.99385164520E+02  0.00000000000E+00 0.  1.
          6    1    1    2  501    0  0.75783454744E+02 -0.16451111628E+03  0.31536078162E+03  0.40272628667E+03  0.17300000000E+03 0. -1.
         -6    1    1    2    0  502 -0.75783454744E+02  0.16451111628E+03  0.22586546429E+03  0.33727028827E+03  0.17300000000E+03 0.  1.
<mgrwt>
<rscale>  2 0.25047163E+03</rscale>
<asrwt>0</asrwt>
<pdfrwt beam="1">  1       21 0.98555599E-01 0.25047163E+03</pdfrwt>
<pdfrwt beam="2">  1       21 0.15290026E-01 0.25047163E+03</pdfrwt>
<totfact> 0.31244290E+04</totfact>
</mgrwt>
</event>
<event>
 4    1  0.4151607E+000  0.1762297E+03  0.7546771E-02  0.1171503E+00
         21   -1    0    0  501  502  0.00000000000E+00  0.00000000000E+00  0.88524668029E+03  0.88524668029E+03  0.00000000000E+00 0. -1.
         21   -1    0    0  502  503 -0.00000000000E+00 -0.00000000000E+00 -0.48381274801E+02  0.48381274801E+02  0.00000000000E+00 0. -1.
          6    1    1    2  501    0  0.30740976812E+02 -0.13523530543E+02  0.66317375835E+03  0.68618971670E+03  0.17300000000E+03 0. -1.
         -6    1    1    2    0  503 -0.30740976812E+02  0.13523530543E+02  0.17369164714E+03  0.24743823839E+03  0.17300000000E+03 0. -1.
<mgrwt>
<rscale>  2 0.17622966E+03</rscale>
<asrwt>0</asrwt>
<pdfrwt beam="1">  1       21 0.13619179E+00 0.17622966E+03</pdfrwt>
<pdfrwt beam="2">  1       21 0.74432737E-02 0.17622966E+03</pdfrwt>
<totfact> 0.52714757E+04</totfact>
</mgrwt>
</event>
<event>
 4    1  0.4151607E+000  0.1865673E+03  0.7546771E-02  0.1161594E+00
         21   -1    0    0  503  502  0.00000000000E+00  0.00000000000E+00  0.81304871512E+03  0.81304871512E+03  0.00000000000E+00 0.  1.
         21   -1    0    0  501  503 -0.00000000000E+00 -0.00000000000E+00 -0.54889046087E+02  0.54889046087E+02  0.00000000000E+00 0.  1.
          6    1    1    2  501    0 -0.43125480276E+02 -0.54941495472E+02  0.17550913357E+03  0.25614611249E+03  0.17300000000E+03 0.  1.
         -6    1    1    2    0  502  0.43125480276E+02  0.54941495472E+02  0.58265053545E+03  0.61179164872E+03  0.17300000000E+03 0.  1.
<mgrwt>
<rscale>  2 0.18656735E+03</rscale>
<asrwt>0</asrwt>
<pdfrwt beam="1">  1       21 0.12508441E+00 0.18656735E+03</pdfrwt>
<pdfrwt beam="2">  1       21 0.84444692E-02 0.18656735E+03</pdfrwt>
<totfact> 0.52169655E+04</totfact>
</mgrwt>
</event>
<event>
 4    1  0.4151607E+000  0.1841992E+03  0.7546771E-02  0.1163800E+00
         21   -1    0    0  501  502  0.00000000000E+00  0.00000000000E+00  0.13621457270E+03  0.13621457270E+03  0.00000000000E+00 0.  1.
         21   -1    0    0  502  503 -0.00000000000E+00 -0.00000000000E+00 -0.25217611000E+03  0.25217611000E+03  0.00000000000E+00 0.  1.
          6    1    1    2  501    0 -0.59725457988E+02  0.20814255362E+02 -0.36489600490E+02  0.18777873815E+03  0.17300000000E+03 0.  1.
         -6    1    1    2    0  503  0.59725457988E+02 -0.20814255362E+02 -0.79471936810E+02  0.20061194456E+03  0.17300000000E+03 0.  1.
<mgrwt>
<rscale>  2 0.18419925E+03</rscale>
<asrwt>0</asrwt>
<pdfrwt beam="1">  1       21 0.20956088E-01 0.18419925E+03</pdfrwt>
<pdfrwt beam="2">  1       21 0.38796324E-01 0.18419925E+03</pdfrwt>
<totfact> 0.13587893E+05</totfact>
</mgrwt>
</event>
<event>
 4    1  0.4151607E+000  0.1757156E+03  0.7546771E-02  0.1172015E+00
         21   -1    0    0  501  502  0.00000000000E+00  0.00000000000E+00  0.61046325102E+03  0.61046325102E+03  0.00000000000E+00 0. -1.
         21   -1    0    0  502  503 -0.00000000000E+00 -0.00000000000E+00 -0.13871942428E+03  0.13871942428E+03  0.00000000000E+00 0. -1.
          6    1    1    2  501    0 -0.15806130800E+02 -0.26403513450E+02  0.53446465643E+03  0.56260861020E+03  0.17300000000E+03 0. -1.
         -6    1    1    2    0  503  0.15806130800E+02  0.26403513450E+02 -0.62720829682E+02  0.18657406510E+03  0.17300000000E+03 0. -1.
<mgrwt>
<rscale>  2 0.17571562E+03</rscale>
<asrwt>0</asrwt>
<pdfrwt beam="1">  1       21 0.93917422E-01 0.17571562E+03</pdfrwt>
<pdfrwt beam="2">  1       21 0.21341450E-01 0.17571562E+03</pdfrwt>
<totfact> 0.19654503E+04</totfact>
</mgrwt>
</event>
<event>
 4    1  0.4151607E+000  0.1952180E+03  0.7546771E-02  0.1153837E+00
         21   -1    0    0  503  502  0.00000000000E+00  0.00000000000E+00  0.25557740116E+03  0.25557740116E+03  0.00000000000E+00 0. -1.
         21   -1    0    0  501  503 -0.00000000000E+00 -0.00000000000E+00 -0.21950595405E+03  0.21950595405E+03  0.00000000000E+00 0.  1.
          6    1    1    2  501    0  0.56552202057E+02 -0.70589894293E+02 -0.11648190105E+03  0.22732821647E+03  0.17300000000E+03 0. -1.
         -6    1    1    2    0  502 -0.56552202057E+02  0.70589894293E+02  0.15255334816E+03  0.24775513873E+03  0.17300000000E+03 0. -1.
<mgrwt>
<rscale>  2 0.19521804E+03</rscale>
<asrwt>0</asrwt>
<pdfrwt beam="1">  1       21 0.39319600E-01 0.19521804E+03</pdfrwt>
<pdfrwt beam="2">  1       21 0.33770147E-01 0.19521804E+03</pdfrwt>
<totfact> 0.52611264E+04</totfact>
</mgrwt>
</event>
<event>
 4    1  0.4151607E+000  0.1808572E+03  0.7546771E-02  0.1166976E+00
         21   -1    0    0  501  502  0.00000000000E+00  0.00000000000E+00  0.21558242382E+02  0.21558242382E+02  0.00000000000E+00 0.  1.
         21   -1    0    0  502  503 -0.00000000000E+00 -0.00000000000E+00 -0.18144002859E+04  0.18144002859E+04  0.00000000000E+00 0.  1.
          6    1    1    2  501    0  0.51107345959E+02 -0.12975372867E+02 -0.52492706320E+03  0.55520963860E+03  0.17300000000E+03 0.  1.
         -6    1    1    2    0  503 -0.51107345959E+02  0.12975372867E+02 -0.12679149803E+04  0.12807488897E+04  0.17300000000E+03 0.  1.
<mgrwt>
<rscale>  2 0.18085718E+03</rscale>
<asrwt>0</asrwt>
<pdfrwt beam="1">  1       21 0.33166522E-02 0.18085718E+03</pdfrwt>
<pdfrwt beam="2">  1       21 0.27913854E+00 0.18085718E+03</pdfrwt>
<totfact> 0.24385789E+04</totfact>
</mgrwt>
</event>
<event>
 4    1  0.4151607E+000  0.1883276E+03  0.7546771E-02  0.1159978E+00
         21   -1    0    0  501  502  0.00000000000E+00  0.00000000000E+00  0.53756811694E+03  0.53756811694E+03  0.00000000000E+00 0. -1.
         21   -1    0    0  502  503 -0.00000000000E+00 -0.00000000000E+00 -0.79692363838E+02  0.79692363838E+02  0.00000000000E+00 0.  1.
          6    1    1    2  501    0  0.46446880223E+02 -0.58146000035E+02  0.35697317387E+03  0.40360514970E+03  0.17300000000E+03 0. -1.
         -6    1    1    2    0  503 -0.46446880223E+02  0.58146000035E+02  0.10090257924E+03  0.21365533108E+03  0.17300000000E+03 0.  1.
<mgrwt>
<rscale>  2 0.18832756E+03</rscale>
<asrwt>0</asrwt>
<pdfrwt beam="1">  1       21 0.82702785E-01 0.18832756E+03</pdfrwt>
<pdfrwt beam="2">  1       21 0.12260364E-01 0.18832756E+03</pdfrwt>
<totfact> 0.72165779E+04</totfact>
</mgrwt>
</event>
<event>
 4    1  0.4151607E+000  0.1892612E+03  0.7546771E-02  0.1159129E+00
         21   -1    0    0  501  502  0.00000000000E+00  0.00000000000E+00  0.14427399590E+03  0.14427399590E+03  0.00000000000E+00 0.  1.
         21   -1    0    0  502  503 -0.00000000000E+00 -0.00000000000E+00 -0.26481242414E+03  0.26481242414E+03  0.00000000000E+00 0. -1.
          6    1    1    2  501    0 -0.19208231708E+02 -0.74309218409E+02 -0.91560755952E+01  0.18948258449E+03  0.17300000000E+03 0.  1.
         -6    1    1    2    0  503  0.19208231708E+02  0.74309218409E+02 -0.11138235265E+03  0.21960383555E+03  0.17300000000E+03 0.  1.
<mgrwt>
<rscale>  2 0.18926124E+03</rscale>
<asrwt>0</asrwt>
<pdfrwt beam="1">  1       21 0.22196000E-01 0.18926124E+03</pdfrwt>
<pdfrwt beam="2">  1       21 0.40740372E-01 0.18926124E+03</pdfrwt>
<totfact> 0.11031698E+05</totfact>
</mgrwt>
</event>
<event>
 4    1  0.4151607E+000  0.1965901E+03  0.7546771E-02  0.1152648E+00
         21   -1    0    0  501  502  0.00000000000E+00  0.00000000000E+00  0.43618044171E+03  0.43618044171E+03  0.00000000000E+00 0. -1.
         21   -1    0    0  502  503 -0.00000000000E+00 -0.00000000000E+00 -0.10618571725E+03  0.10618571725E+03  0.00000000000E+00 0. -1.
          6    1    1    2  501    0  0.91641985597E+02  0.17899893991E+02  0.27534191461E+03  0.33832060190E+03  0.17300000000E+03 0. -1.
         -6    1    1    2    0  503 -0.91641985597E+02 -0.17899893991E+02  0.54652809852E+02  0.20404555705E+03  0.17300000000E+03 0. -1.
<mgrwt>
<rscale>  2 0.19659008E+03</rscale>
<asrwt>0</asrwt>
<pdfrwt beam="1">  1       21 0.67104682E-01 0.19659008E+03</pdfrwt>
<pdfrwt beam="2">  1       21 0.16336264E-01 0.19659008E+03</pdfrwt>
<totfact> 0.68117932E+04</totfact>
</mgrwt>
</event>
<event>
 4    1  0.4151607E+000  0.2434341E+03  0.7546771E-02  0.1117526E+00
         21   -1    0    0  503  502  0.00000000000E+00  0.00000000000E+00  0.30922319547E+04  0.30922319547E+04  0.00000000000E+00 0. -1.
         21   -1    0    0  501  503 -0.00000000000E+00 -0.00000000000E+00 -0.21104185898E+02  0.21104185898E+02  0.00000000000E+00 0. -1.
          6    1    1    2  501    0  0.54422005525E+02  0.16238659594E+03  0.10635979485E+04  0.10911007090E+04  0.17300000000E+03 0. -1.
         -6    1    1    2    0  502 -0.54422005525E+02 -0.16238659594E+03  0.20075298203E+04  0.20222354315E+04  0.17300000000E+03 0. -1.
<mgrwt>
<rscale>  2 0.24343410E+03</rscale>
<asrwt>0</asrwt>
<pdfrwt beam="1">  1       21 0.47572763E+00 0.24343410E+03</pdfrwt>
<pdfrwt beam="2">  1       21 0.32468003E-02 0.24343410E+03</pdfrwt>
<totfact> 0.14442292E+03</totfact>
</mgrwt>
</event>
<event>
 4    1  0.4151607E+000  0.1958810E+03  0.7546771E-02  0.1153261E+00
         21   -1    0    0  503  502  0.00000000000E+00  0.00000000000E+00  0.26367216192E+02  0.26367216192E+02  0.00000000000E+00 0. -1.
         21   -1    0    0  501  503 -0.00000000000E+00 -0.00000000000E+00 -0.14572926562E+04  0.14572926562E+04  0.00000000000E+00 0. -1.
          6    1    1    2  501    0  0.51320750709E+02 -0.76200657895E+02 -0.68729720723E+03  0.71466552371E+03  0.17300000000E+03 0. -1.
         -6    1    1    2    0  502 -0.51320750709E+02  0.76200657895E+02 -0.74362823279E+03  0.76899434869E+03  0.17300000000E+03 0. -1.
<mgrwt>
<rscale>  2 0.19588098E+03</rscale>
<asrwt>0</asrwt>
<pdfrwt beam="1">  1       21 0.40564948E-02 0.19588098E+03</pdfrwt>
<pdfrwt beam="2">  1       21 0.22419887E+00 0.19588098E+03</pdfrwt>
<totfact> 0.36206635E+04</totfact>
</mgrwt>
</event>
<event>
 4    1  0.4151607E+000  0.1923160E+03  0.7546771E-02  0.1156389E+00
         21   -1    0    0  501  502  0.00000000000E+00  0.00000000000E+00  0.33803400540E+02  0.33803400540E+02  0.00000000000E+00 0.  1.
         21   -1    0    0  502  503 -0.00000000000E+00 -0.00000000000E+00 -0.11285992704E+04  0.11285992704E+04  0.00000000000E+00 0.  1.
          6    1    1    2  501    0 -0.63145196772E+02  0.55399860464E+02 -0.44583257868E+03  0.48554314806E+03  0.17300000000E+03 0. -1.
         -6    1    1    2    0  503  0.63145196772E+02 -0.55399860464E+02 -0.64896329118E+03  0.67685952289E+03  0.17300000000E+03 0. -1.
<mgrwt>
<rscale>  2 0.19231604E+03</rscale>
<asrwt>0</asrwt>
<pdfrwt beam="1">  1       21 0.52005229E-02 0.19231604E+03</pdfrwt>
<pdfrwt beam="2">  1       21 0.17363067E+00 0.19231604E+03</pdfrwt>
<totfact> 0.50659251E+04</totfact>
</mgrwt>
</event>
<event>
 4    1  0.4151607E+000  0.1853579E+03  0.7546771E-02  0.1162716E+00
         21   -1    0    0  503  502  0.00000000000E+00  0.00000000000E+00  0.31898812361E+02  0.31898812361E+02  0.00000000000E+00 0. -1.
         21   -1    0    0  501  503 -0.00000000000E+00 -0.00000000000E+00 -0.11052449938E+04  0.11052449938E+04  0.00000000000E+00 0. -1.
          6    1    1    2  501    0 -0.13586421762E+02 -0.65145793603E+02 -0.62743691125E+03  0.65424356541E+03  0.17300000000E+03 0. -1.
         -6    1    1    2    0  502  0.13586421762E+02  0.65145793603E+02 -0.44590927024E+03  0.48290024080E+03  0.17300000000E+03 0. -1.
<mgrwt>
<rscale>  2 0.18535794E+03</rscale>
<asrwt>0</asrwt>
<pdfrwt beam="1">  1       21 0.49075087E-02 0.18535794E+03</pdfrwt>
<pdfrwt beam="2">  1       21 0.17003772E+00 0.18535794E+03</pdfrwt>
<totfact> 0.59453575E+04</totfact>
</mgrwt>
</event>
<event>
 4    1  0.4151607E+000  0.1888169E+03  0.7546771E-02  0.1159533E+00
         21   -1    0    0  503  502  0.00000000000E+00  0.00000000000E+00  0.15466481563E+04  0.15466481563E+04  0.00000000000E+00 0. -1.
         21   -1    0    0  501  503 -0.00000000000E+00 -0.00000000000E+00 -0.23862406885E+02  0.23862406885E+02  0.00000000000E+00 0. -1.
          6    1    1    2  501    0 -0.42992095343E+02  0.62245521749E+02  0.61659359230E+03  0.64485617257E+03  0.17300000000E+03 0. -1.
         -6    1    1    2    0  502  0.42992095343E+02 -0.62245521749E+02  0.90619215708E+03  0.92565439057E+03  0.17300000000E+03 0. -1.
<mgrwt>
<rscale>  2 0.18881691E+03</rscale>
<asrwt>0</asrwt>
<pdfrwt beam="1">  1       21 0.23794579E+00 0.18881691E+03</pdfrwt>
<pdfrwt beam="2">  1       21 0.36711407E-02 0.18881691E+03</pdfrwt>
<totfact> 0.35553349E+04</totfact>
</mgrwt>
</event>
<event>
 4    1  0.4151607E+000  0.2210631E+03  0.7546771E-02  0.1133093E+00
         21   -1    0    0  503  502  0.00000000000E+00  0.00000000000E+00  0.40090149309E+03  0.40090149309E+03  0.00000000000E+00 0. -1.
         21   -1    0    0  501  503 -0.00000000000E+00 -0.00000000000E+00 -0.15008179265E+03  0.15008179265E+03  0.00000000000E+00 0. -1.
          6    1    1    2  501    0 -0.92307917704E+02  0.10207422283E+03  0.60253835015E+01  0.22114520995E+03  0.17300000000E+03 0. -1.
         -6    1    1    2    0  502  0.92307917704E+02 -0.10207422283E+03  0.24479431694E+03  0.32983807580E+03  0.17300000000E+03 0. -1.
<mgrwt>
<rscale>  2 0.22106311E+03</rscale>
<asrwt>0</asrwt>
<pdfrwt beam="1">  1       21 0.61677152E-01 0.22106311E+03</pdfrwt>
<pdfrwt beam="2">  1       21 0.23089507E-01 0.22106311E+03</pdfrwt>
<totfact> 0.42421612E+04</totfact>
</mgrwt>
</event>
<event>
 4    1  0.4151607E+000  0.2344551E+03  0.7546771E-02  0.1123543E+00
         21   -1    0    0  503  502  0.00000000000E+00  0.00000000000E+00  0.15796042113E+03  0.15796042113E+03  0.00000000000E+00 0. -1.
         21   -1    0    0  501  503 -0.00000000000E+00 -0.00000000000E+00 -0.13571106138E+04  0.13571106138E+04  0.00000000000E+00 0.  1.
          6    1    1    2  501    0 -0.15376301519E+03 -0.37378192542E+02 -0.12528051685E+04  0.12745548181E+04  0.17300000000E+03 0.  1.
         -6    1    1    2    0  502  0.15376301519E+03  0.37378192542E+02  0.53654975851E+02  0.24051621681E+03  0.17300000000E+03 0. -1.
<mgrwt>
<rscale>  2 0.23445510E+03</rscale>
<asrwt>0</asrwt>
<pdfrwt beam="1">  1       21 0.24301603E-01 0.23445510E+03</pdfrwt>
<pdfrwt beam="2">  1       21 0.20878625E+00 0.23445510E+03</pdfrwt>
<totfact> 0.18114807E+03</totfact>
</mgrwt>
</event>
<event>
 4    1  0.4151607E+000  0.2200829E+03  0.7546771E-02  0.1133821E+00
         21   -1    0    0  501  502  0.00000000000E+00  0.00000000000E+00  0.29596063858E+02  0.29596063858E+02  0.00000000000E+00 0. -1.
         21   -1    0    0  502  503 -0.00000000000E+00 -0.00000000000E+00 -0.18620770396E+04  0.18620770396E+04  0.00000000000E+00 0. -1.
          6    1    1    2  501    0  0.12020062764E+03 -0.63712447759E+02 -0.12453823449E+04  0.12646792684E+04  0.17300000000E+03 0. -1.
         -6    1    1    2    0  503 -0.12020062764E+03  0.63712447759E+02 -0.58709863080E+03  0.62699383503E+03  0.17300000000E+03 0. -1.
<mgrwt>
<rscale>  2 0.22008286E+03</rscale>
<asrwt>0</asrwt>
<pdfrwt beam="1">  1       21 0.45532398E-02 0.22008286E+03</pdfrwt>
<pdfrwt beam="2">  1       21 0.28647344E+00 0.22008286E+03</pdfrwt>
<totfact> 0.12532578E+04</totfact>
</mgrwt>
</event>
<event>
 4    1  0.4151607E+000  0.1894186E+03  0.7546771E-02  0.1158987E+00
         21   -1    0    0  503  502  0.00000000000E+00  0.00000000000E+00  0.81421344389E+02  0.81421344389E+02  0.00000000000E+00 0.  1.
         21   -1    0    0  501  503 -0.00000000000E+00 -0.00000000000E+00 -0.48086907200E+03  0.48086907200E+03  0.00000000000E+00 0.  1.
          6    1    1    2  501    0 -0.50980765104E+02 -0.57891116785E+02 -0.28101815324E+03  0.33889618213E+03  0.17300000000E+03 0.  1.
         -6    1    1    2    0  502  0.50980765104E+02  0.57891116785E+02 -0.11842957437E+03  0.22339423426E+03  0.17300000000E+03 0.  1.
<mgrwt>
<rscale>  2 0.18941864E+03</rscale>
<asrwt>0</asrwt>
<pdfrwt beam="1">  1       21 0.12526361E-01 0.18941864E+03</pdfrwt>
<pdfrwt beam="2">  1       21 0.73979858E-01 0.18941864E+03</pdfrwt>
<totfact> 0.89189138E+04</totfact>
</mgrwt>
</event>
<event>
 4    1  0.4151607E+000  0.2197977E+03  0.7546771E-02  0.1134034E+00
         21   -1    0    0  503  502  0.00000000000E+00  0.00000000000E+00  0.11459274226E+03  0.11459274226E+03  0.00000000000E+00 0.  1.
         21   -1    0    0  501  503 -0.00000000000E+00 -0.00000000000E+00 -0.44182016874E+03  0.44182016874E+03  0.00000000000E+00 0. -1.
          6    1    1    2  501    0 -0.94872940572E+02 -0.96856418917E+02 -0.22314630853E+03  0.31321768109E+03  0.17300000000E+03 0. -1.
         -6    1    1    2    0  502  0.94872940572E+02  0.96856418917E+02 -0.10408111795E+03  0.24319522991E+03  0.17300000000E+03 0.  1.
<mgrwt>
<rscale>  2 0.21979773E+03</rscale>
<asrwt>0</asrwt>
<pdfrwt beam="1">  1       21 0.17629653E-01 0.21979773E+03</pdfrwt>
<pdfrwt beam="2">  1       21 0.67972331E-01 0.21979773E+03</pdfrwt>
<totfact> 0.56944669E+04</totfact>
</mgrwt>
</event>
<event>
 4    1  0.4151607E+000  0.1920493E+03  0.7546771E-02  0.1156626E+00
         21   -1    0    0  501  502  0.00000000000E+00  0.00000000000E+00  0.81580855174E+02  0.81580855174E+02  0.00000000000E+00 0.  1.
         21   -1    0    0  502  503 -0.00000000000E+00 -0.00000000000E+00 -0.11846074005E+04  0.11846074005E+04  0.00000000000E+00 0.  1.
          6    1    1    2  501    0  0.50702943925E+02 -0.66205224126E+02 -0.53677283006E+02  0.19940955578E+03  0.17300000000E+03 0.  1.
         -6    1    1    2    0  503 -0.50702943925E+02  0.66205224126E+02 -0.10493492624E+04  0.10667786999E+04  0.17300000000E+03 0.  1.
<mgrwt>
<rscale>  2 0.19204927E+03</rscale>
<asrwt>0</asrwt>
<pdfrwt beam="1">  1       21 0.12550901E-01 0.19204927E+03</pdfrwt>
<pdfrwt beam="2">  1       21 0.18224729E+00 0.19204927E+03</pdfrwt>
<totfact> 0.95178980E+03</totfact>
</mgrwt>
</event>
<event>
 4    1  0.4151607E+000  0.1881907E+03  0.7546771E-02  0.1160103E+00
         21   -1    0    0  503  502  0.00000000000E+00  0.00000000000E+00  0.16730317372E+04  0.16730317372E+04  0.00000000000E+00 0. -1.
         21   -1    0    0  501  503 -0.00000000000E+00 -0.00000000000E+00 -0.52155683596E+02  0.52155683596E+02  0.00000000000E+00 0. -1.
          6    1    1    2  501    0  0.73938479100E+02  0.44525038504E+01  0.14555402124E+03  0.23791111067E+03  0.17300000000E+03 0. -1.
         -6    1    1    2    0  502 -0.73938479100E+02 -0.44525038504E+01  0.14753220323E+04  0.14872763101E+04  0.17300000000E+03 0. -1.
<mgrwt>
<rscale>  2 0.18819066E+03</rscale>
<asrwt>0</asrwt>
<pdfrwt beam="1">  1       21 0.25738946E+00 0.18819066E+03</pdfrwt>
<pdfrwt beam="2">  1       21 0.80239526E-02 0.18819066E+03</pdfrwt>
<totfact> 0.72173935E+03</totfact>
</mgrwt>
</event>
<event>
 4    1  0.4151607E+000  0.1866412E+03  0.7546771E-02  0.1161526E+00
         21   -1    0    0  501  502  0.00000000000E+00  0.00000000000E+00  0.61739255357E+03  0.61739255357E+03  0.00000000000E+00 0. -1.
         21   -1    0    0  502  503 -0.00000000000E+00 -0.00000000000E+00 -0.10230558946E+03  0.10230558946E+03  0.00000000000E+00 0. -1.
          6    1    1    2  501    0 -0.43937216276E+02  0.54547891301E+02  0.49853186716E+03  0.53232412494E+03  0.17300000000E+03 0. -1.
         -6    1    1    2    0  503  0.43937216276E+02 -0.54547891301E+02  0.16555096957E+02  0.18737401809E+03  0.17300000000E+03 0. -1.
<mgrwt>
<rscale>  2 0.18664124E+03</rscale>
<asrwt>0</asrwt>
<pdfrwt beam="1">  1       21 0.94983468E-01 0.18664124E+03</pdfrwt>
<pdfrwt beam="2">  1       21 0.15739322E-01 0.18664124E+03</pdfrwt>
<totfact> 0.33407859E+04</totfact>
</mgrwt>
</event>
<event>
 4    1  0.4151607E+000  0.1741212E+03  0.7546771E-02  0.1173617E+00
         21   -1    0    0  503  502  0.00000000000E+00  0.00000000000E+00  0.17954661134E+03  0.17954661134E+03  0.00000000000E+00 0.  1.
         21   -1    0    0  501  503 -0.00000000000E+00 -0.00000000000E+00 -0.11555126440E+04  0.11555126440E+04  0.00000000000E+00 0.  1.
          6    1    1    2  501    0  0.68692469295E+01  0.18493408183E+02 -0.11048128862E+04  0.11184496887E+04  0.17300000000E+03 0.  1.
         -6    1    1    2    0  502 -0.68692469295E+01 -0.18493408183E+02  0.12884685351E+03  0.21660956664E+03  0.17300000000E+03 0.  1.
<mgrwt>
<rscale>  2 0.17412120E+03</rscale>
<asrwt>0</asrwt>
<pdfrwt beam="1">  1       21 0.27622556E-01 0.17412120E+03</pdfrwt>
<pdfrwt beam="2">  1       21 0.17777117E+00 0.17412120E+03</pdfrwt>
<totfact> 0.24019048E+03</totfact>
</mgrwt>
</event>
<event>
 4    1  0.4151607E+000  0.2010642E+03  0.7546771E-02  0.1148844E+00
         21   -1    0    0  503  502  0.00000000000E+00  0.00000000000E+00  0.32566516822E+03  0.32566516822E+03  0.00000000000E+00 0. -1.
         21   -1    0    0  501  503 -0.00000000000E+00 -0.00000000000E+00 -0.21999954264E+03  0.21999954264E+03  0.00000000000E+00 0. -1.
          6    1    1    2  501    0  0.98064955263E+02 -0.29682777123E+02 -0.12726627051E+03  0.23795694215E+03  0.17300000000E+03 0. -1.
         -6    1    1    2    0  502 -0.98064955263E+02  0.29682777123E+02  0.23293189609E+03  0.30770776871E+03  0.17300000000E+03 0. -1.
<mgrwt>
<rscale>  2 0.20106418E+03</rscale>
<asrwt>0</asrwt>
<pdfrwt beam="1">  1       21 0.50102333E-01 0.20106418E+03</pdfrwt>
<pdfrwt beam="2">  1       21 0.33846084E-01 0.20106418E+03</pdfrwt>
<totfact> 0.31762306E+04</totfact>
</mgrwt>
</event>
<event>
 4    1  0.4151607E+000  0.4565296E+03  0.7546771E-02  0.1025793E+00
         21   -1    0    0  501  502  0.00000000000E+00  0.00000000000E+00  0.63023863741E+03  0.63023863741E+03  0.00000000000E+00 0.  1.
         21   -1    0    0  502  503 -0.00000000000E+00 -0.00000000000E+00 -0.37628829185E+03  0.37628829185E+03  0.00000000000E+00 0.  1.
          6    1    1    2  501    0  0.31871483756E+03 -0.27732860368E+03  0.30214784718E+03  0.54746015714E+03  0.17300000000E+03 0.  1.
         -6    1    1    2    0  503 -0.31871483756E+03  0.27732860368E+03 -0.48197501619E+02  0.45906677212E+03  0.17300000000E+03 0.  1.
<mgrwt>
<rscale>  2 0.45652963E+03</rscale>
<asrwt>0</asrwt>
<pdfrwt beam="1">  1       21 0.96959790E-01 0.45652963E+03</pdfrwt>
<pdfrwt beam="2">  1       21 0.57890507E-01 0.45652963E+03</pdfrwt>
<totfact> 0.21287664E+03</totfact>
</mgrwt>
</event>
<event>
 4    1  0.4151607E+000  0.1775889E+03  0.7546771E-02  0.1170157E+00
         21   -1    0    0  503  502  0.00000000000E+00  0.00000000000E+00  0.37609464181E+03  0.37609464181E+03  0.00000000000E+00 0. -1.
         21   -1    0    0  501  503 -0.00000000000E+00 -0.00000000000E+00 -0.85427735871E+02  0.85427735871E+02  0.00000000000E+00 0. -1.
          6    1    1    2  501    0 -0.26636344272E+02  0.29988943479E+02  0.11403386137E+03  0.21104869842E+03  0.17300000000E+03 0.  1.
         -6    1    1    2    0  502  0.26636344272E+02 -0.29988943479E+02  0.17663304457E+03  0.25047367926E+03  0.17300000000E+03 0.  1.
<mgrwt>
<rscale>  2 0.17758894E+03</rscale>
<asrwt>0</asrwt>
<pdfrwt beam="1">  1       21 0.57860713E-01 0.17758894E+03</pdfrwt>
<pdfrwt beam="2">  1       21 0.13142729E-01 0.17758894E+03</pdfrwt>
<totfact> 0.14030093E+05</totfact>
</mgrwt>
</event>
<event>
 4    1  0.4151607E+000  0.1823084E+03  0.7546771E-02  0.1165587E+00
         21   -1    0    0  501  502  0.00000000000E+00  0.00000000000E+00  0.48955868069E+03  0.48955868069E+03  0.00000000000E+00 0.  1.
         21   -1    0    0  502  503 -0.00000000000E+00 -0.00000000000E+00 -0.14243513897E+03  0.14243513897E+03  0.00000000000E+00 0.  1.
          6    1    1    2  501    0  0.62300325803E+01  0.57171246655E+02  0.40216511747E+03  0.44155763662E+03  0.17300000000E+03 0.  1.
         -6    1    1    2    0  503 -0.62300325803E+01 -0.57171246655E+02 -0.55041575754E+02  0.19043618304E+03  0.17300000000E+03 0.  1.
<mgrwt>
<rscale>  2 0.18230843E+03</rscale>
<asrwt>0</asrwt>
<pdfrwt beam="1">  1       21 0.75316719E-01 0.18230843E+03</pdfrwt>
<pdfrwt beam="2">  1       21 0.21913099E-01 0.18230843E+03</pdfrwt>
<totfact> 0.30803191E+04</totfact>
</mgrwt>
</event>
<event>
 4    1  0.4151607E+000  0.3038549E+03  0.7546771E-02  0.1083329E+00
         21   -1    0    0  503  502  0.00000000000E+00  0.00000000000E+00  0.33306939358E+03  0.33306939358E+03  0.00000000000E+00 0. -1.
         21   -1    0    0  501  503 -0.00000000000E+00 -0.00000000000E+00 -0.41158085487E+03  0.41158085487E+03  0.00000000000E+00 0.  1.
          6    1    1    2  501    0  0.38650240892E+01 -0.24976763279E+03 -0.25200042610E+03  0.39475565045E+03  0.17300000000E+03 0.  1.
         -6    1    1    2    0  502 -0.38650240892E+01  0.24976763279E+03  0.17348896481E+03  0.34989459800E+03  0.17300000000E+03 0. -1.
<mgrwt>
<rscale>  2 0.30385491E+03</rscale>
<asrwt>0</asrwt>
<pdfrwt beam="1">  1       21 0.51241445E-01 0.30385491E+03</pdfrwt>
<pdfrwt beam="2">  1       21 0.63320132E-01 0.30385491E+03</pdfrwt>
<totfact> 0.78276485E+03</totfact>
</mgrwt>
</event>
<event>
 4    1  0.4151607E+000  0.1829271E+03  0.7546771E-02  0.1165000E+00
         21   -1    0    0  503  502  0.00000000000E+00  0.00000000000E+00  0.20154493407E+03  0.20154493407E+03  0.00000000000E+00 0.  1.
         21   -1    0    0  501  503 -0.00000000000E+00 -0.00000000000E+00 -0.23088768949E+03  0.23088768949E+03  0.00000000000E+00 0.  1.
          6    1    1    2  501    0 -0.50977406190E+01 -0.59222635762E+02 -0.12926807184E+03  0.22399228099E+03  0.17300000000E+03 0.  1.
         -6    1    1    2    0  502  0.50977406190E+01  0.59222635762E+02  0.99925316426E+02  0.20844034257E+03  0.17300000000E+03 0.  1.
<mgrwt>
<rscale>  2 0.18292706E+03</rscale>
<asrwt>0</asrwt>
<pdfrwt beam="1">  1       21 0.31006913E-01 0.18292706E+03</pdfrwt>
<pdfrwt beam="2">  1       21 0.35521183E-01 0.18292706E+03</pdfrwt>
<totfact> 0.76652175E+04</totfact>
</mgrwt>
</event>
<event>
 4    1  0.4151607E+000  0.3018772E+03  0.7546771E-02  0.1084306E+00
         21   -1    0    0  503  502  0.00000000000E+00  0.00000000000E+00  0.14968503560E+03  0.14968503560E+03  0.00000000000E+00 0. -1.
         21   -1    0    0  501  503 -0.00000000000E+00 -0.00000000000E+00 -0.61115521578E+03  0.61115521578E+03  0.00000000000E+00 0.  1.
          6    1    1    2  501    0  0.12438177166E+03  0.21384571229E+03 -0.20717171395E+03  0.36612830108E+03  0.17300000000E+03 0.  1.
         -6    1    1    2    0  502 -0.12438177166E+03 -0.21384571229E+03 -0.25429846622E+03  0.39471195030E+03  0.17300000000E+03 0. -1.
<mgrwt>
<rscale>  2 0.30187715E+03</rscale>
<asrwt>0</asrwt>
<pdfrwt beam="1">  1       21 0.23028467E-01 0.30187715E+03</pdfrwt>
<pdfrwt beam="2">  1       21 0.94023879E-01 0.30187715E+03</pdfrwt>
<totfact> 0.15864449E+04</totfact>
</mgrwt>
</event>
<event>
 4    1  0.4151607E+000  0.2981127E+03  0.7546771E-02  0.1086188E+00
         21   -1    0    0  501  502  0.00000000000E+00  0.00000000000E+00  0.64071869321E+03  0.64071869321E+03  0.00000000000E+00 0.  1.
         21   -1    0    0  502  503 -0.00000000000E+00 -0.00000000000E+00 -0.16413192790E+03  0.16413192790E+03  0.00000000000E+00 0.  1.
          6    1    1    2  501    0 -0.24206176891E+03  0.18662167643E+02  0.39668486788E+03  0.49621574025E+03  0.17300000000E+03 0.  1.
         -6    1    1    2    0  503  0.24206176891E+03 -0.18662167643E+02  0.79901897440E+02  0.30863488086E+03  0.17300000000E+03 0.  1.
<mgrwt>
<rscale>  2 0.29811269E+03</rscale>
<asrwt>0</asrwt>
<pdfrwt beam="1">  1       21 0.98572105E-01 0.29811269E+03</pdfrwt>
<pdfrwt beam="2">  1       21 0.25251066E-01 0.29811269E+03</pdfrwt>
<totfact> 0.11897327E+04</totfact>
</mgrwt>
</event>
<event>
 4    1  0.4151607E+000  0.1851315E+03  0.7546771E-02  0.1162927E+00
         21   -1    0    0  503  502  0.00000000000E+00  0.00000000000E+00  0.53292579381E+02  0.53292579381E+02  0.00000000000E+00 0. -1.
         21   -1    0    0  501  503 -0.00000000000E+00 -0.00000000000E+00 -0.10315365953E+04  0.10315365953E+04  0.00000000000E+00 0.  1.
          6    1    1    2  501    0 -0.15548964666E+02  0.64053902671E+02 -0.82196266077E+03  0.84255343359E+03  0.17300000000E+03 0.  1.
         -6    1    1    2    0  502  0.15548964666E+02 -0.64053902671E+02 -0.15628135512E+03  0.24227574106E+03  0.17300000000E+03 0. -1.
<mgrwt>
<rscale>  2 0.18513150E+03</rscale>
<asrwt>0</asrwt>
<pdfrwt beam="1">  1       21 0.81988588E-02 0.18513150E+03</pdfrwt>
<pdfrwt beam="2">  1       21 0.15869793E+00 0.18513150E+03</pdfrwt>
<totfact> 0.29725254E+04</totfact>
</mgrwt>
</event>
<event>
 4    1  0.4151607E+000  0.1990032E+03  0.7546771E-02  0.1150583E+00
         21   -1    0    0  501  502  0.00000000000E+00  0.00000000000E+00  0.17439410718E+03  0.17439410718E+03  0.00000000000E+00 0. -1.
         21   -1    0    0  502  503 -0.00000000000E+00 -0.00000000000E+00 -0.28485892748E+03  0.28485892748E+03  0.00000000000E+00 0. -1.
          6    1    1    2  501    0 -0.98300485520E+02  0.32100374409E+01  0.48180076711E+02  0.20475255697E+03  0.17300000000E+03 0. -1.
         -6    1    1    2    0  503  0.98300485520E+02 -0.32100374409E+01 -0.15864489702E+03  0.25450047769E+03  0.17300000000E+03 0. -1.
<mgrwt>
<rscale>  2 0.19900324E+03</rscale>
<asrwt>0</asrwt>
<pdfrwt beam="1">  1       21 0.26829863E-01 0.19900324E+03</pdfrwt>
<pdfrwt beam="2">  1       21 0.43824450E-01 0.19900324E+03</pdfrwt>
<totfact> 0.65993805E+04</totfact>
</mgrwt>
</event>
<event>
 4    1  0.4151607E+000  0.5882328E+03  0.7546771E-02  0.9930124E-01
         21   -1    0    0  501  502  0.00000000000E+00  0.00000000000E+00  0.81510221408E+03  0.81510221408E+03  0.00000000000E+00 0. -1.
         21   -1    0    0  502  503 -0.00000000000E+00 -0.00000000000E+00 -0.44029114418E+03  0.44029114418E+03  0.00000000000E+00 0.  1.
          6    1    1    2  501    0  0.41353399944E+03 -0.38089169270E+03  0.68563741265E+02  0.59221519474E+03  0.17300000000E+03 0.  1.
         -6    1    1    2    0  503 -0.41353399944E+03  0.38089169270E+03  0.30624732863E+03  0.66317816351E+03  0.17300000000E+03 0. -1.
<mgrwt>
<rscale>  2 0.58823282E+03</rscale>
<asrwt>0</asrwt>
<pdfrwt beam="1">  1       21 0.12540034E+00 0.58823282E+03</pdfrwt>
<pdfrwt beam="2">  1       21 0.67737099E-01 0.58823282E+03</pdfrwt>
<totfact> 0.75562915E+02</totfact>
</mgrwt>
</event>
<event>
 4    1  0.4151607E+000  0.1763466E+03  0.7546771E-02  0.1171386E+00
         21   -1    0    0  501  502  0.00000000000E+00  0.00000000000E+00  0.31751553970E+02  0.31751553970E+02  0.00000000000E+00 0.  1.
         21   -1    0    0  502  503 -0.00000000000E+00 -0.00000000000E+00 -0.10484656177E+04  0.10484656177E+04  0.00000000000E+00 0.  1.
          6    1    1    2  501    0  0.55385203456E+01 -0.33741020450E+02 -0.36975499912E+03  0.40965459969E+03  0.17300000000E+03 0.  1.
         -6    1    1    2    0  503 -0.55385203456E+01  0.33741020450E+02 -0.64695906463E+03  0.67056257200E+03  0.17300000000E+03 0.  1.
<mgrwt>
<rscale>  2 0.17634662E+03</rscale>
<asrwt>0</asrwt>
<pdfrwt beam="1">  1       21 0.48848545E-02 0.17634662E+03</pdfrwt>
<pdfrwt beam="2">  1       21 0.16130240E+00 0.17634662E+03</pdfrwt>
<totfact> 0.69519134E+04</totfact>
</mgrwt>
</event>
<event>
 4    1  0.4151607E+000  0.3808017E+03  0.7546771E-02  0.1050638E+00
         21   -1    0    0  501  502  0.00000000000E+00  0.00000000000E+00  0.11739629077E+04  0.11739629077E+04  0.00000000000E+00 0. -1.
         21   -1    0    0  502  503 -0.00000000000E+00 -0.00000000000E+00 -0.13218314323E+03  0.13218314323E+03  0.00000000000E+00 0. -1.
          6    1    1    2  501    0  0.31822518578E+03 -0.11753161092E+03  0.68806347653E+03  0.78641038661E+03  0.17300000000E+03 0. -1.
         -6    1    1    2    0  503 -0.31822518578E+03  0.11753161092E+03  0.35371628798E+03  0.51973566437E+03  0.17300000000E+03 0. -1.
<mgrwt>
<rscale>  2 0.38080172E+03</rscale>
<asrwt>0</asrwt>
<pdfrwt beam="1">  1       21 0.18060967E+00 0.38080172E+03</pdfrwt>
<pdfrwt beam="2">  1       21 0.20335869E-01 0.38080172E+03</pdfrwt>
<totfact> 0.35670664E+03</totfact>
</mgrwt>
</event>
<event>
 4    1  0.4151607E+000  0.3025537E+03  0.7546771E-02  0.1083971E+00
         21   -1    0    0  501  502  0.00000000000E+00  0.00000000000E+00  0.19068593527E+04  0.19068593527E+04  0.00000000000E+00 0.  1.
         21   -1    0    0  502  503 -0.00000000000E+00 -0.00000000000E+00 -0.50392900001E+02  0.50392900001E+02  0.00000000000E+00 0. -1.
          6    1    1    2  501    0  0.24819395004E+03 -0.30844428960E+01  0.11412637096E+04  0.11806869210E+04  0.17300000000E+03 0.  1.
         -6    1    1    2    0  503 -0.24819395004E+03  0.30844428960E+01  0.71520274309E+03  0.77656533167E+03  0.17300000000E+03 0. -1.
<mgrwt>
<rscale>  2 0.30255372E+03</rscale>
<asrwt>0</asrwt>
<pdfrwt beam="1">  1       21 0.29336292E+00 0.30255372E+03</pdfrwt>
<pdfrwt beam="2">  1       21 0.77527553E-02 0.30255372E+03</pdfrwt>
<totfact> 0.42708885E+03</totfact>
</mgrwt>
</event>
<event>
 4    1  0.4151607E+000  0.2602531E+03  0.7546771E-02  0.1106991E+00
         21   -1    0    0  501  502  0.00000000000E+00  0.00000000000E+00  0.40379846854E+03  0.40379846854E+03  0.00000000000E+00 0. -1.
         21   -1    0    0  502  503 -0.00000000000E+00 -0.00000000000E+00 -0.21126620768E+03  0.21126620768E+03  0.00000000000E+00 0.  1.
          6    1    1    2  501    0  0.18228464080E+03  0.67638823811E+02  0.23586090266E+03  0.35122936403E+03  0.17300000000E+03 0. -1.
         -6    1    1    2    0  503 -0.18228464080E+03 -0.67638823811E+02 -0.43328641798E+02  0.26383531219E+03  0.17300000000E+03 0.  1.
<mgrwt>
<rscale>  2 0.26025315E+03</rscale>
<asrwt>0</asrwt>
<pdfrwt beam="1">  1       21 0.62122841E-01 0.26025315E+03</pdfrwt>
<pdfrwt beam="2">  1       21 0.32502493E-01 0.26025315E+03</pdfrwt>
<totfact> 0.21131107E+04</totfact>
</mgrwt>
</event>
<event>
 4    1  0.4151607E+000  0.2028196E+03  0.7546771E-02  0.1147382E+00
         21   -1    0    0  503  502  0.00000000000E+00  0.00000000000E+00  0.50125118075E+03  0.50125118075E+03  0.00000000000E+00 0. -1.
         21   -1    0    0  501  503 -0.00000000000E+00 -0.00000000000E+00 -0.10331130205E+03  0.10331130205E+03  0.00000000000E+00 0. -1.
          6    1    1    2  501    0  0.35963284321E+02  0.99566153373E+02  0.61892257898E+02  0.21205289035E+03  0.17300000000E+03 0. -1.
         -6    1    1    2    0  502 -0.35963284321E+02 -0.99566153373E+02  0.33604762081E+03  0.39250959245E+03  0.17300000000E+03 0. -1.
<mgrwt>
<rscale>  2 0.20281957E+03</rscale>
<asrwt>0</asrwt>
<pdfrwt beam="1">  1       21 0.77115565E-01 0.20281957E+03</pdfrwt>
<pdfrwt beam="2">  1       21 0.15894047E-01 0.20281957E+03</pdfrwt>
<totfact> 0.52464631E+04</totfact>
</mgrwt>
</event>
<event>
 4    1  0.4151607E+000  0.4861270E+03  0.7546771E-02  0.1017465E+00
         21   -1    0    0  501  502  0.00000000000E+00  0.00000000000E+00  0.94533841218E+03  0.94533841218E+03  0.00000000000E+00 0. -1.
         21   -1    0    0  502  503 -0.00000000000E+00 -0.00000000000E+00 -0.27870594386E+03  0.27870594386E+03  0.00000000000E+00 0.  1.
          6    1    1    2  501    0 -0.45430150767E+03  0.78539869198E+00  0.52978837001E+03  0.71902377827E+03  0.17300000000E+03 0. -1.
         -6    1    1    2    0  503  0.45430150767E+03 -0.78539869198E+00  0.13684409831E+03  0.50502057776E+03  0.17300000000E+03 0.  1.
<mgrwt>
<rscale>  2 0.48612702E+03</rscale>
<asrwt>0</asrwt>
<pdfrwt beam="1">  1       21 0.14543668E+00 0.48612702E+03</pdfrwt>
<pdfrwt beam="2">  1       21 0.42877838E-01 0.48612702E+03</pdfrwt>
<totfact> 0.14232587E+03</totfact>
</mgrwt>
</event>
<event>
 4    1  0.4151607E+000  0.2891128E+03  0.7546771E-02  0.1090813E+00
         21   -1    0    0  503  502  0.00000000000E+00  0.00000000000E+00  0.75338604037E+03  0.75338604037E+03  0.00000000000E+00 0. -1.
         21   -1    0    0  501  503 -0.00000000000E+00 -0.00000000000E+00 -0.15514310191E+03  0.15514310191E+03  0.00000000000E+00 0. -1.
          6    1    1    2  501    0  0.22635161614E+03 -0.49215643978E+02  0.56665670589E+02  0.29461369955E+03  0.17300000000E+03 0. -1.
         -6    1    1    2    0  502 -0.22635161614E+03  0.49215643978E+02  0.54157726788E+03  0.61391544273E+03  0.17300000000E+03 0. -1.
<mgrwt>
<rscale>  2 0.28911284E+03</rscale>
<asrwt>0</asrwt>
<pdfrwt beam="1">  1       21 0.11590554E+00 0.28911284E+03</pdfrwt>
<pdfrwt beam="2">  1       21 0.23868170E-01 0.28911284E+03</pdfrwt>
<totfact> 0.89718588E+03</totfact>
</mgrwt>
</event>
<event>
 4    1  0.4151607E+000  0.1914763E+03  0.7546771E-02  0.1157137E+00
         21   -1    0    0  501  502  0.00000000000E+00  0.00000000000E+00  0.11647872230E+03  0.11647872230E+03  0.00000000000E+00 0.  1.
         21   -1    0    0  502  503 -0.00000000000E+00 -0.00000000000E+00 -0.31598025620E+03  0.31598025620E+03  0.00000000000E+00 0.  1.
          6    1    1    2  501    0  0.77609062889E+02 -0.26664661892E+02 -0.11317249583E+03  0.22242118750E+03  0.17300000000E+03 0.  1.
         -6    1    1    2    0  503 -0.77609062889E+02  0.26664661892E+02 -0.86329038064E+02  0.21003779100E+03  0.17300000000E+03 0.  1.
<mgrwt>
<rscale>  2 0.19147629E+03</rscale>
<asrwt>0</asrwt>
<pdfrwt beam="1">  1       21 0.17919804E-01 0.19147629E+03</pdfrwt>
<pdfrwt beam="2">  1       21 0.48612347E-01 0.19147629E+03</pdfrwt>
<totfact> 0.11442655E+05</totfact>
</mgrwt>
</event>
<event>
 4    1  0.4151607E+000  0.1807133E+03  0.7546771E-02  0.1167114E+00
         21   -1    0    0  503  502  0.00000000000E+00  0.00000000000E+00  0.10479716325E+03  0.10479716325E+03  0.00000000000E+00 0. -1.
         21   -1    0    0  501  503 -0.00000000000E+00 -0.00000000000E+00 -0.33987547080E+03  0.33987547080E+03  0.00000000000E+00 0. -1.
          6    1    1    2  501    0 -0.46897764917E+02 -0.22998056326E+02 -0.18164107498E+03  0.25622410322E+03  0.17300000000E+03 0.  1.
         -6    1    1    2    0  502  0.46897764917E+02  0.22998056326E+02 -0.53437232575E+02  0.18844853084E+03  0.17300000000E+03 0.  1.
<mgrwt>
<rscale>  2 0.18071334E+03</rscale>
<asrwt>0</asrwt>
<pdfrwt beam="1">  1       21 0.16122641E-01 0.18071334E+03</pdfrwt>
<pdfrwt beam="2">  1       21 0.52288534E-01 0.18071334E+03</pdfrwt>
<totfact> 0.11981475E+05</totfact>
</mgrwt>
</event>
<event>
 4    1  0.4151607E+000  0.1815296E+03  0.7546771E-02  0.1166331E+00
         21   -1    0    0  503  502  0.00000000000E+00  0.00000000000E+00  0.22114474722E+02  0.22114474722E+02  0.00000000000E+00 0. -1.
         21   -1    0    0  501  503 -0.00000000000E+00 -0.00000000000E+00 -0.21582604504E+04  0.21582604504E+04  0.00000000000E+00 0. -1.
          6    1    1    2  501    0 -0.31226497934E+02 -0.45264904091E+02 -0.16746504988E+04  0.16844605364E+04  0.17300000000E+03 0. -1.
         -6    1    1    2    0  502  0.31226497934E+02  0.45264904091E+02 -0.46149547688E+03  0.49591438868E+03  0.17300000000E+03 0. -1.
<mgrwt>
<rscale>  2 0.18152963E+03</rscale>
<asrwt>0</asrwt>
<pdfrwt beam="1">  1       21 0.34022272E-02 0.18152963E+03</pdfrwt>
<pdfrwt beam="2">  1       21 0.33204004E+00 0.18152963E+03</pdfrwt>
<totfact> 0.11592491E+04</totfact>
</mgrwt>
</event>
<event>
 4    1  0.4151607E+000  0.1955877E+03  0.7546771E-02  0.1153516E+00
         21   -1    0    0  503  502  0.00000000000E+00  0.00000000000E+00  0.94964538968E+03  0.94964538968E+03  0.00000000000E+00 0. -1.
         21   -1    0    0  501  503 -0.00000000000E+00 -0.00000000000E+00 -0.49265003571E+02  0.49265003571E+02  0.00000000000E+00 0. -1.
          6    1    1    2  501    0 -0.54192645178E+02  0.73407815580E+02  0.23692780316E+03  0.30722847214E+03  0.17300000000E+03 0. -1.
         -6    1    1    2    0  502  0.54192645178E+02 -0.73407815580E+02  0.66345258295E+03  0.69168192112E+03  0.17300000000E+03 0. -1.
<mgrwt>
<rscale>  2 0.19558770E+03</rscale>
<asrwt>0</asrwt>
<pdfrwt beam="1">  1       21 0.14609928E+00 0.19558770E+03</pdfrwt>
<pdfrwt beam="2">  1       21 0.75792320E-02 0.19558770E+03</pdfrwt>
<totfact> 0.42147903E+04</totfact>
</mgrwt>
</event>
<event>
 4    1  0.4151607E+000  0.1773364E+03  0.7546771E-02  0.1170406E+00
         21   -1    0    0  501  502  0.00000000000E+00  0.00000000000E+00  0.24305448255E+03  0.24305448255E+03  0.00000000000E+00 0.  1.
         21   -1    0    0  502  503 -0.00000000000E+00 -0.00000000000E+00 -0.34877348036E+03  0.34877348036E+03  0.00000000000E+00 0.  1.
          6    1    1    2  501    0 -0.31184826867E+02 -0.23381378666E+02  0.18183251608E+03  0.25399064195E+03  0.17300000000E+03 0.  1.
         -6    1    1    2    0  503  0.31184826867E+02  0.23381378666E+02 -0.28755151388E+03  0.33783732096E+03  0.17300000000E+03 0.  1.
<mgrwt>
<rscale>  2 0.17733635E+03</rscale>
<asrwt>0</asrwt>
<pdfrwt beam="1">  1       21 0.37392997E-01 0.17733635E+03</pdfrwt>
<pdfrwt beam="2">  1       21 0.53657459E-01 0.17733635E+03</pdfrwt>
<totfact> 0.22870024E+04</totfact>
</mgrwt>
</event>
<event>
 4    1  0.4151607E+000  0.2692419E+03  0.7546771E-02  0.1101714E+00
         21   -1    0    0  501  502  0.00000000000E+00  0.00000000000E+00  0.73795549334E+02  0.73795549334E+02  0.00000000000E+00 0.  1.
         21   -1    0    0  502  503 -0.00000000000E+00 -0.00000000000E+00 -0.11075302539E+04  0.11075302539E+04  0.00000000000E+00 0.  1.
          6    1    1    2  501    0  0.14557999910E+03 -0.14618032541E+03 -0.31827024378E+03  0.41687788589E+03  0.17300000000E+03 0.  1.
         -6    1    1    2    0  503 -0.14557999910E+03  0.14618032541E+03 -0.71546446084E+03  0.76444791739E+03  0.17300000000E+03 0.  1.
<mgrwt>
<rscale>  2 0.26924194E+03</rscale>
<asrwt>0</asrwt>
<pdfrwt beam="1">  1       21 0.11353161E-01 0.26924194E+03</pdfrwt>
<pdfrwt beam="2">  1       21 0.17038927E+00 0.26924194E+03</pdfrwt>
<totfact> 0.13064180E+04</totfact>
</mgrwt>
</event>
<event>
 4    1  0.4151607E+000  0.2806226E+03  0.7546771E-02  0.1095349E+00
         21   -1    0    0  503  502  0.00000000000E+00  0.00000000000E+00  0.67550565346E+03  0.67550565346E+03  0.00000000000E+00 0.  1.
         21   -1    0    0  501  503 -0.00000000000E+00 -0.00000000000E+00 -0.12814379742E+03  0.12814379742E+03  0.00000000000E+00 0. -1.
          6    1    1    2  501    0 -0.15871726041E+03  0.15371679782E+03  0.15296133918E+03  0.31960318204E+03  0.17300000000E+03 0.  1.
         -6    1    1    2    0  502  0.15871726041E+03 -0.15371679782E+03  0.39440051686E+03  0.48404626884E+03  0.17300000000E+03 0. -1.
<mgrwt>
<rscale>  2 0.28062256E+03</rscale>
<asrwt>0</asrwt>
<pdfrwt beam="1">  1       21 0.10392394E+00 0.28062256E+03</pdfrwt>
<pdfrwt beam="2">  1       21 0.19714431E-01 0.28062256E+03</pdfrwt>
<totfact> 0.16919722E+04</totfact>
</mgrwt>
</event>
<event>
 4    1  0.4151607E+000  0.2732337E+03  0.7546771E-02  0.1099443E+00
         21   -1    0    0  503  502  0.00000000000E+00  0.00000000000E+00  0.63026009704E+03  0.63026009704E+03  0.00000000000E+00 0.  1.
         21   -1    0    0  501  503 -0.00000000000E+00 -0.00000000000E+00 -0.15161688027E+03  0.15161688027E+03  0.00000000000E+00 0. -1.
          6    1    1    2  501    0  0.14240526005E+03  0.15635986250E+03  0.56485282427E+02  0.27901120375E+03  0.17300000000E+03 0. -1.
         -6    1    1    2    0  502 -0.14240526005E+03 -0.15635986250E+03  0.42215793434E+03  0.50286577356E+03  0.17300000000E+03 0. -1.
<mgrwt>
<rscale>  2 0.27323372E+03</rscale>
<asrwt>0</asrwt>
<pdfrwt beam="1">  1       21 0.96963091E-01 0.27323372E+03</pdfrwt>
<pdfrwt beam="2">  1       21 0.23325674E-01 0.27323372E+03</pdfrwt>
<totfact> 0.14576819E+04</totfact>
</mgrwt>
</event>
<event>
 4    1  0.4151607E+000  0.1777943E+03  0.7546771E-02  0.1169955E+00
         21   -1    0    0  501  502  0.00000000000E+00  0.00000000000E+00  0.30490311994E+03  0.30490311994E+03  0.00000000000E+00 0.  1.
         21   -1    0    0  502  503 -0.00000000000E+00 -0.00000000000E+00 -0.23301245842E+03  0.23301245842E+03  0.00000000000E+00 0.  1.
          6    1    1    2  501    0 -0.40055136361E+02  0.87967432107E+01  0.23632649956E+03  0.29573807843E+03  0.17300000000E+03 0.  1.
         -6    1    1    2    0  503  0.40055136361E+02 -0.87967432107E+01 -0.16443583804E+03  0.24217749993E+03  0.17300000000E+03 0.  1.
<mgrwt>
<rscale>  2 0.17779425E+03</rscale>
<asrwt>0</asrwt>
<pdfrwt beam="1">  1       21 0.46908173E-01 0.17779425E+03</pdfrwt>
<pdfrwt beam="2">  1       21 0.35848070E-01 0.17779425E+03</pdfrwt>
<totfact> 0.32900177E+04</totfact>
</mgrwt>
</event>
<event>
 4    1  0.4151607E+000  0.2232599E+03  0.7546771E-02  0.1131476E+00
         21   -1    0    0  503  502  0.00000000000E+00  0.00000000000E+00  0.20570063051E+03  0.20570063051E+03  0.00000000000E+00 0. -1.
         21   -1    0    0  501  503 -0.00000000000E+00 -0.00000000000E+00 -0.31197619154E+03  0.31197619154E+03  0.00000000000E+00 0. -1.
          6    1    1    2  501    0  0.89919189958E+02  0.10876811092E+03 -0.17544557579E+03  0.28394737671E+03  0.17300000000E+03 0. -1.
         -6    1    1    2    0  502 -0.89919189958E+02 -0.10876811092E+03  0.69170014762E+02  0.23372944534E+03  0.17300000000E+03 0. -1.
<mgrwt>
<rscale>  2 0.22325985E+03</rscale>
<asrwt>0</asrwt>
<pdfrwt beam="1">  1       21 0.31646251E-01 0.22325985E+03</pdfrwt>
<pdfrwt beam="2">  1       21 0.47996337E-01 0.22325985E+03</pdfrwt>
<totfact> 0.39220053E+04</totfact>
</mgrwt>
</event>
<event>
 4    1  0.4151607E+000  0.2127589E+03  0.7546771E-02  0.1139400E+00
         21   -1    0    0  501  502  0.00000000000E+00  0.00000000000E+00  0.85907613322E+03  0.85907613322E+03  0.00000000000E+00 0. -1.
         21   -1    0    0  502  503 -0.00000000000E+00 -0.00000000000E+00 -0.52895532968E+02  0.52895532968E+02  0.00000000000E+00 0.  1.
          6    1    1    2  501    0 -0.98696959797E+01 -0.12345015696E+03  0.37479802828E+03  0.43097553776E+03  0.17300000000E+03 0. -1.
         -6    1    1    2    0  503  0.98696959797E+01  0.12345015696E+03  0.43138257198E+03  0.48099612842E+03  0.17300000000E+03 0.  1.
<mgrwt>
<rscale>  2 0.21275891E+03</rscale>
<asrwt>0</asrwt>
<pdfrwt beam="1">  1       21 0.13216555E+00 0.21275891E+03</pdfrwt>
<pdfrwt beam="2">  1       21 0.81377749E-02 0.21275891E+03</pdfrwt>
<totfact> 0.47768869E+04</totfact>
</mgrwt>
</event>
<event>
 4    1  0.4151607E+000  0.1904750E+03  0.7546771E-02  0.1158034E+00
         21   -1    0    0  501  502  0.00000000000E+00  0.00000000000E+00  0.69381922120E+03  0.69381922120E+03  0.00000000000E+00 0.  1.
         21   -1    0    0  502  503 -0.00000000000E+00 -0.00000000000E+00 -0.12383825195E+03  0.12383825195E+03  0.00000000000E+00 0.  1.
          6    1    1    2  501    0 -0.67691881110E+02  0.42065977352E+02  0.59573927966E+03  0.62544866020E+03  0.17300000000E+03 0.  1.
         -6    1    1    2    0  503  0.67691881110E+02 -0.42065977352E+02 -0.25758310419E+02  0.19220881295E+03  0.17300000000E+03 0.  1.
<mgrwt>
<rscale>  2 0.19047503E+03</rscale>
<asrwt>0</asrwt>
<pdfrwt beam="1">  1       21 0.10674142E+00 0.19047503E+03</pdfrwt>
<pdfrwt beam="2">  1       21 0.19052039E-01 0.19047503E+03</pdfrwt>
<totfact> 0.17771229E+04</totfact>
</mgrwt>
</event>
<event>
 4    1  0.4151607E+000  0.2092226E+03  0.7546771E-02  0.1142183E+00
         21   -1    0    0  501  502  0.00000000000E+00  0.00000000000E+00  0.67671444704E+02  0.67671444704E+02  0.00000000000E+00 0. -1.
         21   -1    0    0  502  503 -0.00000000000E+00 -0.00000000000E+00 -0.85198450117E+03  0.85198450117E+03  0.00000000000E+00 0.  1.
          6    1    1    2  501    0 -0.28545394418E+02  0.11415018130E+03 -0.16653220312E+03  0.26740807413E+03  0.17300000000E+03 0. -1.
         -6    1    1    2    0  503  0.28545394418E+02 -0.11415018130E+03 -0.61778085335E+03  0.65224787175E+03  0.17300000000E+03 0.  1.
<mgrwt>
<rscale>  2 0.20922262E+03</rscale>
<asrwt>0</asrwt>
<pdfrwt beam="1">  1       21 0.10410991E-01 0.20922262E+03</pdfrwt>
<pdfrwt beam="2">  1       21 0.13107455E+00 0.20922262E+03</pdfrwt>
<totfact> 0.31679462E+04</totfact>
</mgrwt>
</event>
<event>
 4    1  0.4151607E+000  0.1912829E+03  0.7546771E-02  0.1157309E+00
         21   -1    0    0  501  502  0.00000000000E+00  0.00000000000E+00  0.16771554001E+03  0.16771554001E+03  0.00000000000E+00 0.  1.
         21   -1    0    0  502  503 -0.00000000000E+00 -0.00000000000E+00 -0.26414961393E+03  0.26414961393E+03  0.00000000000E+00 0.  1.
          6    1    1    2  501    0  0.63374482485E+02 -0.51418243834E+02  0.41880626048E+02  0.19581406402E+03  0.17300000000E+03 0.  1.
         -6    1    1    2    0  503 -0.63374482485E+02  0.51418243834E+02 -0.13831469997E+03  0.23605108993E+03  0.17300000000E+03 0.  1.
<mgrwt>
<rscale>  2 0.19128293E+03</rscale>
<asrwt>0</asrwt>
<pdfrwt beam="1">  1       21 0.25802391E-01 0.19128293E+03</pdfrwt>
<pdfrwt beam="2">  1       21 0.40638402E-01 0.19128293E+03</pdfrwt>
<totfact> 0.83230120E+04</totfact>
</mgrwt>
</event>
<event>
 4    1  0.4151607E+000  0.3035107E+03  0.7546771E-02  0.1083499E+00
         21   -1    0    0  503  502  0.00000000000E+00  0.00000000000E+00  0.38785642280E+03  0.38785642280E+03  0.00000000000E+00 0. -1.
         21   -1    0    0  501  503 -0.00000000000E+00 -0.00000000000E+00 -0.29561761488E+03  0.29561761488E+03  0.00000000000E+00 0. -1.
          6    1    1    2  501    0 -0.19710648512E+03 -0.15277026154E+03 -0.10539489013E+03  0.32128928110E+03  0.17300000000E+03 0. -1.
         -6    1    1    2    0  502  0.19710648512E+03  0.15277026154E+03  0.19763369805E+03  0.36218475657E+03  0.17300000000E+03 0. -1.
<mgrwt>
<rscale>  2 0.30351066E+03</rscale>
<asrwt>0</asrwt>
<pdfrwt beam="1">  1       21 0.59670219E-01 0.30351066E+03</pdfrwt>
<pdfrwt beam="2">  1       21 0.45479633E-01 0.30351066E+03</pdfrwt>
<totfact> 0.11444349E+04</totfact>
</mgrwt>
</event>
<event>
 4    1  0.4151607E+000  0.1963638E+03  0.7546771E-02  0.1152844E+00
         21   -1    0    0  503  502  0.00000000000E+00  0.00000000000E+00  0.67668725872E+02  0.67668725872E+02  0.00000000000E+00 0. -1.
         21   -1    0    0  501  503 -0.00000000000E+00 -0.00000000000E+00 -0.64075647759E+03  0.64075647759E+03  0.00000000000E+00 0. -1.
          6    1    1    2  501    0 -0.70127857432E+02 -0.60924716168E+02 -0.40440318555E+03  0.44955608539E+03  0.17300000000E+03 0. -1.
         -6    1    1    2    0  502  0.70127857432E+02  0.60924716168E+02 -0.16868456617E+03  0.25886911807E+03  0.17300000000E+03 0. -1.
<mgrwt>
<rscale>  2 0.19636379E+03</rscale>
<asrwt>0</asrwt>
<pdfrwt beam="1">  1       21 0.10410573E-01 0.19636379E+03</pdfrwt>
<pdfrwt beam="2">  1       21 0.98577923E-01 0.19636379E+03</pdfrwt>
<totfact> 0.64063790E+04</totfact>
</mgrwt>
</event>
<event>
 4    1  0.4151607E+000  0.2061983E+03  0.7546771E-02  0.1144612E+00
         21   -1    0    0  501  502  0.00000000000E+00  0.00000000000E+00  0.76700850412E+02  0.76700850412E+02  0.00000000000E+00 0.  1.
         21   -1    0    0  502  503 -0.00000000000E+00 -0.00000000000E+00 -0.57940592854E+03  0.57940592854E+03  0.00000000000E+00 0. -1.
          6    1    1    2  501    0 -0.76260013102E+02  0.82299249756E+02 -0.18310893383E+03  0.27576554853E+03  0.17300000000E+03 0.  1.
         -6    1    1    2    0  503  0.76260013102E+02 -0.82299249756E+02 -0.31959614430E+03  0.38034123042E+03  0.17300000000E+03 0. -1.
<mgrwt>
<rscale>  2 0.20619834E+03</rscale>
<asrwt>0</asrwt>
<pdfrwt beam="1">  1       21 0.11800131E-01 0.20619834E+03</pdfrwt>
<pdfrwt beam="2">  1       21 0.89139376E-01 0.20619834E+03</pdfrwt>
<totfact> 0.64541493E+04</totfact>
</mgrwt>
</event>
<event>
 4    1  0.4151607E+000  0.2136546E+03  0.7546771E-02  0.1138704E+00
         21   -1    0    0  501  502  0.00000000000E+00  0.00000000000E+00  0.46375732659E+03  0.46375732659E+03  0.00000000000E+00 0. -1.
         21   -1    0    0  502  503 -0.00000000000E+00 -0.00000000000E+00 -0.20072156314E+03  0.20072156314E+03  0.00000000000E+00 0. -1.
          6    1    1    2  501    0  0.61985142726E+01  0.12522331372E+03  0.36869404275E+03  0.42612626889E+03  0.17300000000E+03 0. -1.
         -6    1    1    2    0  503 -0.61985142726E+01 -0.12522331372E+03 -0.10565827929E+03  0.23835262084E+03  0.17300000000E+03 0. -1.
<mgrwt>
<rscale>  2 0.21365463E+03</rscale>
<asrwt>0</asrwt>
<pdfrwt beam="1">  1       21 0.71347281E-01 0.21365463E+03</pdfrwt>
<pdfrwt beam="2">  1       21 0.30880241E-01 0.21365463E+03</pdfrwt>
<totfact> 0.17664155E+04</totfact>
</mgrwt>
</event>
<event>
 4    1  0.4151607E+000  0.1980543E+03  0.7546771E-02  0.1151391E+00
         21   -1    0    0  501  502  0.00000000000E+00  0.00000000000E+00  0.10733824238E+04  0.10733824238E+04  0.00000000000E+00 0.  1.
         21   -1    0    0  502  503 -0.00000000000E+00 -0.00000000000E+00 -0.49294470040E+02  0.49294470040E+02  0.00000000000E+00 0.  1.
          6    1    1    2  501    0  0.59244511034E+02  0.76069580284E+02  0.79753461147E+03  0.82175844969E+03  0.17300000000E+03 0.  1.
         -6    1    1    2    0  503 -0.59244511034E+02 -0.76069580284E+02  0.22655334230E+03  0.30091844416E+03  0.17300000000E+03 0.  1.
<mgrwt>
<rscale>  2 0.19805427E+03</rscale>
<asrwt>0</asrwt>
<pdfrwt beam="1">  1       21 0.16513574E+00 0.19805427E+03</pdfrwt>
<pdfrwt beam="2">  1       21 0.75837654E-02 0.19805427E+03</pdfrwt>
<totfact> 0.30315826E+04</totfact>
</mgrwt>
</event>
<event>
 4    1  0.4151607E+000  0.2512600E+03  0.7546771E-02  0.1112511E+00
         21   -1    0    0  501  502  0.00000000000E+00  0.00000000000E+00  0.23799615687E+03  0.23799615687E+03  0.00000000000E+00 0. -1.
         21   -1    0    0  502  503 -0.00000000000E+00 -0.00000000000E+00 -0.30653474311E+03  0.30653474311E+03  0.00000000000E+00 0.  1.
          6    1    1    2  501    0  0.41193137967E+02  0.17749845306E+03  0.65633830448E+02  0.25969092235E+03  0.17300000000E+03 0. -1.
         -6    1    1    2    0  503 -0.41193137967E+02 -0.17749845306E+03 -0.13417241669E+03  0.28483997762E+03  0.17300000000E+03 0.  1.
<mgrwt>
<rscale>  2 0.25125998E+03</rscale>
<asrwt>0</asrwt>
<pdfrwt beam="1">  1       21 0.36614793E-01 0.25125998E+03</pdfrwt>
<pdfrwt beam="2">  1       21 0.47159191E-01 0.25125998E+03</pdfrwt>
<totfact> 0.30059414E+04</totfact>
</mgrwt>
</event>
<event>
 4    1  0.4151607E+000  0.1731036E+03  0.7546771E-02  0.1174649E+00
         21   -1    0    0  503  502  0.00000000000E+00  0.00000000000E+00  0.30048854119E+03  0.30048854119E+03  0.00000000000E+00 0. -1.
         21   -1    0    0  501  503 -0.00000000000E+00 -0.00000000000E+00 -0.10850324414E+03  0.10850324414E+03  0.00000000000E+00 0. -1.
          6    1    1    2  501    0  0.40804380687E+01  0.43808108402E+01  0.37811741111E+02  0.17718512704E+03  0.17300000000E+03 0. -1.
         -6    1    1    2    0  502 -0.40804380687E+01 -0.43808108402E+01  0.15417355594E+03  0.23180665829E+03  0.17300000000E+03 0. -1.
<mgrwt>
<rscale>  2 0.17310356E+03</rscale>
<asrwt>0</asrwt>
<pdfrwt beam="1">  1       21 0.46229006E-01 0.17310356E+03</pdfrwt>
<pdfrwt beam="2">  1       21 0.16692807E-01 0.17310356E+03</pdfrwt>
<totfact> 0.14557055E+05</totfact>
</mgrwt>
</event>
<event>
 4    1  0.4151607E+000  0.2053709E+03  0.7546771E-02  0.1145285E+00
         21   -1    0    0  503  502  0.00000000000E+00  0.00000000000E+00  0.26979523921E+03  0.26979523921E+03  0.00000000000E+00 0. -1.
         21   -1    0    0  501  503 -0.00000000000E+00 -0.00000000000E+00 -0.29339162796E+03  0.29339162796E+03  0.00000000000E+00 0.  1.
          6    1    1    2  501    0  0.10969327169E+03 -0.14682851723E+02 -0.20426505410E+03  0.28965740508E+03  0.17300000000E+03 0.  1.
         -6    1    1    2    0  502 -0.10969327169E+03  0.14682851723E+02  0.18066866535E+03  0.27352946209E+03  0.17300000000E+03 0. -1.
<mgrwt>
<rscale>  2 0.20537088E+03</rscale>
<asrwt>0</asrwt>
<pdfrwt beam="1">  1       21 0.41506960E-01 0.20537088E+03</pdfrwt>
<pdfrwt beam="2">  1       21 0.45137174E-01 0.20537088E+03</pdfrwt>
<totfact> 0.26129407E+04</totfact>
</mgrwt>
</event>
<event>
 4    1  0.4151607E+000  0.2020531E+03  0.7546771E-02  0.1148018E+00
         21   -1    0    0  503  502  0.00000000000E+00  0.00000000000E+00  0.23505274164E+03  0.23505274164E+03  0.00000000000E+00 0. -1.
         21   -1    0    0  501  503 -0.00000000000E+00 -0.00000000000E+00 -0.17571816771E+03  0.17571816771E+03  0.00000000000E+00 0.  1.
          6    1    1    2  501    0  0.10053125786E+03 -0.28105208070E+02  0.75815905369E+01  0.20219524486E+03  0.17300000000E+03 0. -1.
         -6    1    1    2    0  502 -0.10053125786E+03  0.28105208070E+02  0.51752983387E+02  0.20857566449E+03  0.17300000000E+03 0. -1.
<mgrwt>
<rscale>  2 0.20205305E+03</rscale>
<asrwt>0</asrwt>
<pdfrwt beam="1">  1       21 0.36161960E-01 0.20205305E+03</pdfrwt>
<pdfrwt beam="2">  1       21 0.27033564E-01 0.20205305E+03</pdfrwt>
<totfact> 0.95780691E+04</totfact>
</mgrwt>
</event>
<event>
 4    1  0.4151607E+000  0.2018405E+03  0.7546771E-02  0.1148195E+00
         21   -1    0    0  503  502  0.00000000000E+00  0.00000000000E+00  0.34659383803E+02  0.34659383803E+02  0.00000000000E+00 0.  1.
         21   -1    0    0  501  503 -0.00000000000E+00 -0.00000000000E+00 -0.11754435924E+04  0.11754435924E+04  0.00000000000E+00 0.  1.
          6    1    1    2  501    0 -0.34478383498E+02 -0.98090857611E+02 -0.57266584063E+03  0.60719497717E+03  0.17300000000E+03 0.  1.
         -6    1    1    2    0  502  0.34478383498E+02  0.98090857611E+02 -0.56811836796E+03  0.60290799903E+03  0.17300000000E+03 0.  1.
<mgrwt>
<rscale>  2 0.20184047E+03</rscale>
<asrwt>0</asrwt>
<pdfrwt beam="1">  1       21 0.53322135E-02 0.20184047E+03</pdfrwt>
<pdfrwt beam="2">  1       21 0.18083745E+00 0.20184047E+03</pdfrwt>
<totfact> 0.43056763E+04</totfact>
</mgrwt>
</event>
<event>
 4    1  0.4151607E+000  0.2627539E+03  0.7546771E-02  0.1105500E+00
         21   -1    0    0  501  502  0.00000000000E+00  0.00000000000E+00  0.15042384854E+03  0.15042384854E+03  0.00000000000E+00 0.  1.
         21   -1    0    0  502  503 -0.00000000000E+00 -0.00000000000E+00 -0.51231964186E+03  0.51231964186E+03  0.00000000000E+00 0. -1.
          6    1    1    2  501    0  0.15515737830E+03 -0.12262459998E+03 -0.74012289604E+02  0.27297879694E+03  0.17300000000E+03 0.  1.
         -6    1    1    2    0  503 -0.15515737830E+03  0.12262459998E+03 -0.28788350372E+03  0.38976469347E+03  0.17300000000E+03 0. -1.
<mgrwt>
<rscale>  2 0.26275389E+03</rscale>
<asrwt>0</asrwt>
<pdfrwt beam="1">  1       21 0.23142131E-01 0.26275389E+03</pdfrwt>
<pdfrwt beam="2">  1       21 0.78818406E-01 0.26275389E+03</pdfrwt>
<totfact> 0.24061214E+04</totfact>
</mgrwt>
</event>
<event>
 4    1  0.4151607E+000  0.2033097E+03  0.7546771E-02  0.1146976E+00
         21   -1    0    0  503  502  0.00000000000E+00  0.00000000000E+00  0.60219836738E+02  0.60219836738E+02  0.00000000000E+00 0. -1.
         21   -1    0    0  501  503 -0.00000000000E+00 -0.00000000000E+00 -0.80549287283E+03  0.80549287283E+03  0.00000000000E+00 0. -1.
          6    1    1    2  501    0 -0.84693762967E+02  0.65060022648E+02 -0.53907644836E+03  0.57614083105E+03  0.17300000000E+03 0. -1.
         -6    1    1    2    0  502  0.84693762967E+02 -0.65060022648E+02 -0.20619658773E+03  0.28957187851E+03  0.17300000000E+03 0. -1.
<mgrwt>
<rscale>  2 0.20330971E+03</rscale>
<asrwt>0</asrwt>
<pdfrwt beam="1">  1       21 0.92645906E-02 0.20330971E+03</pdfrwt>
<pdfrwt beam="2">  1       21 0.12392198E+00 0.20330971E+03</pdfrwt>
<totfact> 0.44991553E+04</totfact>
</mgrwt>
</event>
<event>
 4    1  0.4151607E+000  0.1739478E+03  0.7546771E-02  0.1173792E+00
         21   -1    0    0  503  502  0.00000000000E+00  0.00000000000E+00  0.45066462017E+02  0.45066462017E+02  0.00000000000E+00 0.  1.
         21   -1    0    0  501  503 -0.00000000000E+00 -0.00000000000E+00 -0.76454034835E+03  0.76454034835E+03  0.00000000000E+00 0.  1.
          6    1    1    2  501    0 -0.16600355591E+02 -0.72976343370E+01 -0.50102397204E+03  0.53036105422E+03  0.17300000000E+03 0.  1.
         -6    1    1    2    0  502  0.16600355591E+02  0.72976343370E+01 -0.21844991429E+03  0.27924575615E+03  0.17300000000E+03 0.  1.
<mgrwt>
<rscale>  2 0.17394777E+03</rscale>
<asrwt>0</asrwt>
<pdfrwt beam="1">  1       21 0.69333015E-02 0.17394777E+03</pdfrwt>
<pdfrwt beam="2">  1       21 0.11762160E+00 0.17394777E+03</pdfrwt>
<totfact> 0.86056626E+04</totfact>
</mgrwt>
</event>
<event>
 4    1  0.4151607E+000  0.1873272E+03  0.7546771E-02  0.1160894E+00
         21   -1    0    0  503  502  0.00000000000E+00  0.00000000000E+00  0.12111194573E+03  0.12111194573E+03  0.00000000000E+00 0.  1.
         21   -1    0    0  501  503 -0.00000000000E+00 -0.00000000000E+00 -0.29139742746E+03  0.29139742746E+03  0.00000000000E+00 0.  1.
          6    1    1    2  501    0 -0.69977534119E+02 -0.16297979686E+02 -0.10067848458E+03  0.21266790233E+03  0.17300000000E+03 0. -1.
         -6    1    1    2    0  502  0.69977534119E+02  0.16297979686E+02 -0.69606997147E+02  0.19984147086E+03  0.17300000000E+03 0. -1.
<mgrwt>
<rscale>  2 0.18732720E+03</rscale>
<asrwt>0</asrwt>
<pdfrwt beam="1">  1       21 0.18632607E-01 0.18732720E+03</pdfrwt>
<pdfrwt beam="2">  1       21 0.44830373E-01 0.18732720E+03</pdfrwt>
<totfact> 0.12600192E+05</totfact>
</mgrwt>
</event>
<event>
 4    1  0.4151607E+000  0.1902839E+03  0.7546771E-02  0.1158206E+00
         21   -1    0    0  503  502  0.00000000000E+00  0.00000000000E+00  0.78699729493E+02  0.78699729493E+02  0.00000000000E+00 0. -1.
         21   -1    0    0  501  503 -0.00000000000E+00 -0.00000000000E+00 -0.79534616746E+03  0.79534616746E+03  0.00000000000E+00 0.  1.
          6    1    1    2  501    0 -0.22861011403E+02 -0.75870460984E+02 -0.64206468775E+03  0.66966784001E+03  0.17300000000E+03 0.  1.
         -6    1    1    2    0  502  0.22861011403E+02  0.75870460984E+02 -0.74581750215E+02  0.20437805694E+03  0.17300000000E+03 0. -1.
<mgrwt>
<rscale>  2 0.19028387E+03</rscale>
<asrwt>0</asrwt>
<pdfrwt beam="1">  1       21 0.12107651E-01 0.19028387E+03</pdfrwt>
<pdfrwt beam="2">  1       21 0.12236094E+00 0.19028387E+03</pdfrwt>
<totfact> 0.29097597E+04</totfact>
</mgrwt>
</event>
<event>
 4    1  0.4151607E+000  0.3370334E+03  0.7546771E-02  0.1068067E+00
         21   -1    0    0  501  502  0.00000000000E+00  0.00000000000E+00  0.65522883052E+02  0.65522883052E+02  0.00000000000E+00 0. -1.
         21   -1    0    0  502  503 -0.00000000000E+00 -0.00000000000E+00 -0.17949366483E+04  0.17949366483E+04  0.00000000000E+00 0.  1.
          6    1    1    2  501    0 -0.23302316264E+03  0.17135550633E+03 -0.69276969268E+03  0.77040336900E+03  0.17300000000E+03 0. -1.
         -6    1    1    2    0  503  0.23302316264E+03 -0.17135550633E+03 -0.10366440725E+04  0.10900561623E+04  0.17300000000E+03 0.  1.
<mgrwt>
<rscale>  2 0.33703339E+03</rscale>
<asrwt>0</asrwt>
<pdfrwt beam="1">  1       21 0.10080443E-01 0.33703339E+03</pdfrwt>
<pdfrwt beam="2">  1       21 0.27614412E+00 0.33703339E+03</pdfrwt>
<totfact> 0.33124776E+03</totfact>
</mgrwt>
</event>
<event>
 4    1  0.4151607E+000  0.1803757E+03  0.7546771E-02  0.1167440E+00
         21   -1    0    0  503  502  0.00000000000E+00  0.00000000000E+00  0.22899942872E+03  0.22899942872E+03  0.00000000000E+00 0.  1.
         21   -1    0    0  501  503 -0.00000000000E+00 -0.00000000000E+00 -0.41400063404E+03  0.41400063404E+03  0.00000000000E+00 0.  1.
          6    1    1    2  501    0 -0.47961778867E+02  0.17494343003E+02 -0.35305870265E+03  0.39646668434E+03  0.17300000000E+03 0.  1.
         -6    1    1    2    0  502  0.47961778867E+02 -0.17494343003E+02  0.16805749733E+03  0.24653337843E+03  0.17300000000E+03 0.  1.
<mgrwt>
<rscale>  2 0.18037568E+03</rscale>
<asrwt>0</asrwt>
<pdfrwt beam="1">  1       21 0.35230682E-01 0.18037568E+03</pdfrwt>
<pdfrwt beam="2">  1       21 0.63692404E-01 0.18037568E+03</pdfrwt>
<totfact> 0.17827097E+04</totfact>
</mgrwt>
</event>
<event>
 4    1  0.4151607E+000  0.1987174E+03  0.7546771E-02  0.1150826E+00
         21   -1    0    0  501  502  0.00000000000E+00  0.00000000000E+00  0.33646173862E+03  0.33646173862E+03  0.00000000000E+00 0.  1.
         21   -1    0    0  502  503 -0.00000000000E+00 -0.00000000000E+00 -0.11829751564E+03  0.11829751564E+03  0.00000000000E+00 0.  1.
          6    1    1    2  501    0 -0.93345675603E+02  0.29089326012E+02  0.88886850141E+02  0.21769124045E+03  0.17300000000E+03 0.  1.
         -6    1    1    2    0  503  0.93345675603E+02 -0.29089326012E+02  0.12927737284E+03  0.23706801380E+03  0.17300000000E+03 0.  1.
<mgrwt>
<rscale>  2 0.19871740E+03</rscale>
<asrwt>0</asrwt>
<pdfrwt beam="1">  1       21 0.51763344E-01 0.19871740E+03</pdfrwt>
<pdfrwt beam="2">  1       21 0.18199618E-01 0.19871740E+03</pdfrwt>
<totfact> 0.97252904E+04</totfact>
</mgrwt>
</event>
<event>
 4    1  0.4151607E+000  0.2880782E+03  0.7546771E-02  0.1091357E+00
         21   -1    0    0  503  502  0.00000000000E+00  0.00000000000E+00  0.89921894179E+02  0.89921894179E+02  0.00000000000E+00 0.  1.
         21   -1    0    0  501  503 -0.00000000000E+00 -0.00000000000E+00 -0.10563188919E+04  0.10563188919E+04  0.00000000000E+00 0.  1.
          6    1    1    2  501    0  0.71527710971E+02 -0.21896078849E+03 -0.68688148587E+03  0.74484576656E+03  0.17300000000E+03 0.  1.
         -6    1    1    2    0  502 -0.71527710971E+02  0.21896078849E+03 -0.27951551188E+03  0.40139501955E+03  0.17300000000E+03 0.  1.
<mgrwt>
<rscale>  2 0.28807818E+03</rscale>
<asrwt>0</asrwt>
<pdfrwt beam="1">  1       21 0.13834138E-01 0.28807818E+03</pdfrwt>
<pdfrwt beam="2">  1       21 0.16251059E+00 0.28807818E+03</pdfrwt>
<totfact> 0.10310519E+04</totfact>
</mgrwt>
</event>
<event>
 4    1  0.4151607E+000  0.1933273E+03  0.7546771E-02  0.1155494E+00
         21   -1    0    0  501  502  0.00000000000E+00  0.00000000000E+00  0.72689380209E+03  0.72689380209E+03  0.00000000000E+00 0.  1.
         21   -1    0    0  502  503 -0.00000000000E+00 -0.00000000000E+00 -0.52111569360E+02  0.52111569360E+02  0.00000000000E+00 0.  1.
          6    1    1    2  501    0  0.26598985193E+02  0.82091098094E+02  0.38232519995E+03  0.42842503768E+03  0.17300000000E+03 0.  1.
         -6    1    1    2    0  503 -0.26598985193E+02 -0.82091098094E+02  0.29245703279E+03  0.35058033377E+03  0.17300000000E+03 0.  1.
<mgrwt>
<rscale>  2 0.19332732E+03</rscale>
<asrwt>0</asrwt>
<pdfrwt beam="1">  1       21 0.11182981E+00 0.19332732E+03</pdfrwt>
<pdfrwt beam="2">  1       21 0.80171650E-02 0.19332732E+03</pdfrwt>
<totfact> 0.75002477E+04</totfact>
</mgrwt>
</event>
<event>
 4    1  0.4151607E+000  0.2181082E+03  0.7546771E-02  0.1135301E+00
         21   -1    0    0  501  502  0.00000000000E+00  0.00000000000E+00  0.61344747325E+03  0.61344747325E+03  0.00000000000E+00 0. -1.
         21   -1    0    0  502  503 -0.00000000000E+00 -0.00000000000E+00 -0.24003914088E+03  0.24003914088E+03  0.00000000000E+00 0.  1.
          6    1    1    2  501    0 -0.32651196933E+02 -0.12874810591E+03  0.53781280018E+03  0.58035660027E+03  0.17300000000E+03 0. -1.
         -6    1    1    2    0  503  0.32651196933E+02  0.12874810591E+03 -0.16440446781E+03  0.27313001386E+03  0.17300000000E+03 0.  1.
<mgrwt>
<rscale>  2 0.21810817E+03</rscale>
<asrwt>0</asrwt>
<pdfrwt beam="1">  1       21 0.94376534E-01 0.21810817E+03</pdfrwt>
<pdfrwt beam="2">  1       21 0.36929099E-01 0.21810817E+03</pdfrwt>
<totfact> 0.65299660E+03</totfact>
</mgrwt>
</event>
<event>
 4    1  0.4151607E+000  0.1956476E+03  0.7546771E-02  0.1153464E+00
         21   -1    0    0  503  502  0.00000000000E+00  0.00000000000E+00  0.12285226920E+03  0.12285226920E+03  0.00000000000E+00 0. -1.
         21   -1    0    0  501  503 -0.00000000000E+00 -0.00000000000E+00 -0.60882240780E+03  0.60882240780E+03  0.00000000000E+00 0. -1.
          6    1    1    2  501    0 -0.66594205030E+00  0.91370251976E+02 -0.49860819635E+03  0.53561936101E+03  0.17300000000E+03 0. -1.
         -6    1    1    2    0  502  0.66594205030E+00 -0.91370251976E+02  0.12638057742E+02  0.19605531599E+03  0.17300000000E+03 0. -1.
<mgrwt>
<rscale>  2 0.19564756E+03</rscale>
<asrwt>0</asrwt>
<pdfrwt beam="1">  1       21 0.18900349E-01 0.19564756E+03</pdfrwt>
<pdfrwt beam="2">  1       21 0.93664987E-01 0.19564756E+03</pdfrwt>
<totfact> 0.24514963E+04</totfact>
</mgrwt>
</event>
<event>
 4    1  0.4151607E+000  0.2942134E+03  0.7546771E-02  0.1088170E+00
         21   -1    0    0  501  502  0.00000000000E+00  0.00000000000E+00  0.65954459838E+03  0.65954459838E+03  0.00000000000E+00 0. -1.
         21   -1    0    0  502  503 -0.00000000000E+00 -0.00000000000E+00 -0.17097140687E+03  0.17097140687E+03  0.00000000000E+00 0. -1.
          6    1    1    2  501    0  0.14754281256E+03 -0.18671802508E+03  0.44445681341E+03  0.53301347208E+03  0.17300000000E+03 0. -1.
         -6    1    1    2    0  503 -0.14754281256E+03  0.18671802508E+03  0.44116378089E+02  0.29750253317E+03  0.17300000000E+03 0. -1.
<mgrwt>
<rscale>  2 0.29421336E+03</rscale>
<asrwt>0</asrwt>
<pdfrwt beam="1">  1       21 0.10146840E+00 0.29421336E+03</pdfrwt>
<pdfrwt beam="2">  1       21 0.26303294E-01 0.29421336E+03</pdfrwt>
<totfact> 0.10273160E+04</totfact>
</mgrwt>
</event>
<event>
 4    1  0.4151607E+000  0.2711054E+03  0.7546771E-02  0.1100649E+00
         21   -1    0    0  501  502  0.00000000000E+00  0.00000000000E+00  0.57956246284E+02  0.57956246284E+02  0.00000000000E+00 0.  1.
         21   -1    0    0  502  503 -0.00000000000E+00 -0.00000000000E+00 -0.21888349888E+04  0.21888349888E+04  0.00000000000E+00 0. -1.
          6    1    1    2  501    0  0.43580297893E+02 -0.20413210273E+03 -0.33685826701E+03  0.43240218522E+03  0.17300000000E+03 0.  1.
         -6    1    1    2    0  503 -0.43580297893E+02  0.20413210273E+03 -0.17940204755E+04  0.18143890499E+04  0.17300000000E+03 0. -1.
<mgrwt>
<rscale>  2 0.27110544E+03</rscale>
<asrwt>0</asrwt>
<pdfrwt beam="1">  1       21 0.89163471E-02 0.27110544E+03</pdfrwt>
<pdfrwt beam="2">  1       21 0.33674379E+00 0.27110544E+03</pdfrwt>
<totfact> 0.18998717E+03</totfact>
</mgrwt>
</event>
<event>
 4    1  0.4151607E+000  0.2751751E+03  0.7546771E-02  0.1098354E+00
         21   -1    0    0  503  502  0.00000000000E+00  0.00000000000E+00  0.13766924241E+03  0.13766924241E+03  0.00000000000E+00 0.  1.
         21   -1    0    0  501  503 -0.00000000000E+00 -0.00000000000E+00 -0.83552279070E+03  0.83552279070E+03  0.00000000000E+00 0.  1.
          6    1    1    2  501    0 -0.14957329967E+03 -0.15303643503E+03 -0.63336757610E+03  0.69056195151E+03  0.17300000000E+03 0.  1.
         -6    1    1    2    0  502  0.14957329967E+03  0.15303643503E+03 -0.64485972193E+02  0.28263008161E+03  0.17300000000E+03 0.  1.
<mgrwt>
<rscale>  2 0.27517508E+03</rscale>
<asrwt>0</asrwt>
<pdfrwt beam="1">  1       21 0.21179884E-01 0.27517508E+03</pdfrwt>
<pdfrwt beam="2">  1       21 0.12854197E+00 0.27517508E+03</pdfrwt>
<totfact> 0.87460611E+03</totfact>
</mgrwt>
</event>
<event>
 4    1  0.4151607E+000  0.2335251E+03  0.7546771E-02  0.1124183E+00
         21   -1    0    0  503  502  0.00000000000E+00  0.00000000000E+00  0.36136988819E+02  0.36136988819E+02  0.00000000000E+00 0.  1.
         21   -1    0    0  501  503 -0.00000000000E+00 -0.00000000000E+00 -0.15118402286E+04  0.15118402286E+04  0.00000000000E+00 0.  1.
          6    1    1    2  501    0  0.42692176454E+02  0.15093819207E+03 -0.70483861700E+03  0.74251695992E+03  0.17300000000E+03 0.  1.
         -6    1    1    2    0  502 -0.42692176454E+02 -0.15093819207E+03 -0.77086462276E+03  0.80546025748E+03  0.17300000000E+03 0.  1.
<mgrwt>
<rscale>  2 0.23352507E+03</rscale>
<asrwt>0</asrwt>
<pdfrwt beam="1">  1       21 0.55595374E-02 0.23352507E+03</pdfrwt>
<pdfrwt beam="2">  1       21 0.23259078E+00 0.23352507E+03</pdfrwt>
<totfact> 0.18348827E+04</totfact>
</mgrwt>
</event>
<event>
 4    1  0.4151607E+000  0.1947366E+03  0.7546771E-02  0.1154257E+00
         21   -1    0    0  501  502  0.00000000000E+00  0.00000000000E+00  0.16139382007E+03  0.16139382007E+03  0.00000000000E+00 0. -1.
         21   -1    0    0  502  503 -0.00000000000E+00 -0.00000000000E+00 -0.44078773073E+03  0.44078773073E+03  0.00000000000E+00 0. -1.
          6    1    1    2  501    0 -0.54130242882E+02  0.71156717964E+02  0.66046649191E+02  0.20563200523E+03  0.17300000000E+03 0. -1.
         -6    1    1    2    0  503  0.54130242882E+02 -0.71156717964E+02 -0.34544055985E+03  0.39654954558E+03  0.17300000000E+03 0. -1.
<mgrwt>
<rscale>  2 0.19473665E+03</rscale>
<asrwt>0</asrwt>
<pdfrwt beam="1">  1       21 0.24829819E-01 0.19473665E+03</pdfrwt>
<pdfrwt beam="2">  1       21 0.67813495E-01 0.19473665E+03</pdfrwt>
<totfact> 0.30454788E+04</totfact>
</mgrwt>
</event>
<event>
 4    1  0.4151607E+000  0.2152517E+03  0.7546771E-02  0.1137473E+00
         21   -1    0    0  503  502  0.00000000000E+00  0.00000000000E+00  0.28093803983E+03  0.28093803983E+03  0.00000000000E+00 0. -1.
         21   -1    0    0  501  503 -0.00000000000E+00 -0.00000000000E+00 -0.16730157766E+03  0.16730157766E+03  0.00000000000E+00 0.  1.
          6    1    1    2  501    0  0.12398928893E+03  0.32108418323E+02  0.83538458975E+02  0.23089384666E+03  0.17300000000E+03 0. -1.
         -6    1    1    2    0  502 -0.12398928893E+03 -0.32108418323E+02  0.30098003194E+02  0.21734577082E+03  0.17300000000E+03 0. -1.
<mgrwt>
<rscale>  2 0.21525170E+03</rscale>
<asrwt>0</asrwt>
<pdfrwt beam="1">  1       21 0.43221237E-01 0.21525170E+03</pdfrwt>
<pdfrwt beam="2">  1       21 0.25738704E-01 0.21525170E+03</pdfrwt>
<totfact> 0.73014534E+04</totfact>
</mgrwt>
</event>
<event>
 4    1  0.4151607E+000  0.2090170E+03  0.7546771E-02  0.1142347E+00
         21   -1    0    0  503  502  0.00000000000E+00  0.00000000000E+00  0.21303228514E+04  0.21303228514E+04  0.00000000000E+00 0.  1.
         21   -1    0    0  501  503 -0.00000000000E+00 -0.00000000000E+00 -0.21939447573E+02  0.21939447573E+02  0.00000000000E+00 0.  1.
          6    1    1    2  501    0  0.10089995874E+03  0.59818997249E+02  0.77928898977E+03  0.80683297136E+03  0.17300000000E+03 0.  1.
         -6    1    1    2    0  502 -0.10089995874E+03 -0.59818997249E+02  0.13290944140E+04  0.13454293276E+04  0.17300000000E+03 0.  1.
<mgrwt>
<rscale>  2 0.20901702E+03</rscale>
<asrwt>0</asrwt>
<pdfrwt beam="1">  1       21 0.32774181E+00 0.20901702E+03</pdfrwt>
<pdfrwt beam="2">  1       21 0.33753013E-02 0.20901702E+03</pdfrwt>
<totfact> 0.12065715E+04</totfact>
</mgrwt>
</event>
<event>
 4    1  0.4151607E+000  0.1860598E+03  0.7546771E-02  0.1162064E+00
         21   -1    0    0  503  502  0.00000000000E+00  0.00000000000E+00  0.72825863791E+03  0.72825863791E+03  0.00000000000E+00 0.  1.
         21   -1    0    0  501  503 -0.00000000000E+00 -0.00000000000E+00 -0.47647024355E+02  0.47647024355E+02  0.00000000000E+00 0.  1.
          6    1    1    2  501    0 -0.54557857842E+02 -0.41384496685E+02  0.32154792072E+03  0.37149872373E+03  0.17300000000E+03 0.  1.
         -6    1    1    2    0  502  0.54557857842E+02  0.41384496685E+02  0.35906369284E+03  0.40440693853E+03  0.17300000000E+03 0.  1.
<mgrwt>
<rscale>  2 0.18605977E+03</rscale>
<asrwt>0</asrwt>
<pdfrwt beam="1">  1       21 0.11203978E+00 0.18605977E+03</pdfrwt>
<pdfrwt beam="2">  1       21 0.73303120E-02 0.18605977E+03</pdfrwt>
<totfact> 0.87499738E+04</totfact>
</mgrwt>
</event>
<event>
 4    1  0.4151607E+000  0.1760614E+03  0.7546771E-02  0.1171670E+00
         21   -1    0    0  503  502  0.00000000000E+00  0.00000000000E+00  0.23123033663E+03  0.23123033663E+03  0.00000000000E+00 0. -1.
         21   -1    0    0  501  503 -0.00000000000E+00 -0.00000000000E+00 -0.14611640117E+04  0.14611640117E+04  0.00000000000E+00 0. -1.
          6    1    1    2  501    0 -0.55840669526E+01  0.32209165878E+02 -0.14214129738E+04  0.14322752718E+04  0.17300000000E+03 0. -1.
         -6    1    1    2    0  502  0.55840669526E+01 -0.32209165878E+02  0.19147929868E+03  0.26011907657E+03  0.17300000000E+03 0. -1.
<mgrwt>
<rscale>  2 0.17606139E+03</rscale>
<asrwt>0</asrwt>
<pdfrwt beam="1">  1       21 0.35573899E-01 0.17606139E+03</pdfrwt>
<pdfrwt beam="2">  1       21 0.22479446E+00 0.17606139E+03</pdfrwt>
<totfact> 0.73178201E+02</totfact>
</mgrwt>
</event>
<event>
 4    1  0.4151607E+000  0.2413512E+03  0.7546771E-02  0.1118896E+00
         21   -1    0    0  503  502  0.00000000000E+00  0.00000000000E+00  0.76092518551E+02  0.76092518551E+02  0.00000000000E+00 0. -1.
         21   -1    0    0  501  503 -0.00000000000E+00 -0.00000000000E+00 -0.91892337625E+03  0.91892337625E+03  0.00000000000E+00 0.  1.
          6    1    1    2  501    0  0.13595031379E+02  0.16773966057E+03 -0.62468691341E+03  0.66968959854E+03  0.17300000000E+03 0. -1.
         -6    1    1    2    0  502 -0.13595031379E+02 -0.16773966057E+03 -0.21814394429E+03  0.32532629626E+03  0.17300000000E+03 0. -1.
<mgrwt>
<rscale>  2 0.24135123E+03</rscale>
<asrwt>0</asrwt>
<pdfrwt beam="1">  1       21 0.11706541E-01 0.24135123E+03</pdfrwt>
<pdfrwt beam="2">  1       21 0.14137283E+00 0.24135123E+03</pdfrwt>
<totfact> 0.20775874E+04</totfact>
</mgrwt>
</event>
<event>
 4    1  0.4151607E+000  0.2035743E+03  0.7546771E-02  0.1146758E+00
         21   -1    0    0  503  502  0.00000000000E+00  0.00000000000E+00  0.11865779511E+04  0.11865779511E+04  0.00000000000E+00 0.  1.
         21   -1    0    0  501  503 -0.00000000000E+00 -0.00000000000E+00 -0.40287499800E+02  0.40287499800E+02  0.00000000000E+00 0. -1.
          6    1    1    2  501    0 -0.84292014529E+02 -0.66395300613E+02  0.34936436203E+03  0.40434878151E+03  0.17300000000E+03 0. -1.
         -6    1    1    2    0  502  0.84292014529E+02  0.66395300613E+02  0.79692608929E+03  0.82251666941E+03  0.17300000000E+03 0.  1.
<mgrwt>
<rscale>  2 0.20357426E+03</rscale>
<asrwt>0</asrwt>
<pdfrwt beam="1">  1       21 0.18255043E+00 0.20357426E+03</pdfrwt>
<pdfrwt beam="2">  1       21 0.61980778E-02 0.20357426E+03</pdfrwt>
<totfact> 0.32375235E+04</totfact>
</mgrwt>
</event>
<event>
 4    1  0.4151607E+000  0.2419309E+03  0.7546771E-02  0.1118513E+00
         21   -1    0    0  501  502  0.00000000000E+00  0.00000000000E+00  0.87617985761E+03  0.87617985761E+03  0.00000000000E+00 0. -1.
         21   -1    0    0  502  503 -0.00000000000E+00 -0.00000000000E+00 -0.71557752702E+02  0.71557752702E+02  0.00000000000E+00 0. -1.
          6    1    1    2  501    0 -0.70687149470E+02 -0.15363878949E+03  0.52447420873E+03  0.57758440626E+03  0.17300000000E+03 0. -1.
         -6    1    1    2    0  503  0.70687149470E+02  0.15363878949E+03  0.28014789618E+03  0.37015320405E+03  0.17300000000E+03 0. -1.
<mgrwt>
<rscale>  2 0.24193088E+03</rscale>
<asrwt>0</asrwt>
<pdfrwt beam="1">  1       21 0.13479689E+00 0.24193088E+03</pdfrwt>
<pdfrwt beam="2">  1       21 0.11008886E-01 0.24193088E+03</pdfrwt>
<totfact> 0.26231976E+04</totfact>
</mgrwt>
</event>
<event>
 4    1  0.4151607E+000  0.2122436E+03  0.7546771E-02  0.1139802E+00
         21   -1    0    0  501  502  0.00000000000E+00  0.00000000000E+00  0.20832614810E+03  0.20832614810E+03  0.00000000000E+00 0.  1.
         21   -1    0    0  502  503 -0.00000000000E+00 -0.00000000000E+00 -0.21680824956E+03  0.21680824956E+03  0.00000000000E+00 0. -1.
          6    1    1    2  501    0 -0.12002275738E+03 -0.26699632706E+02 -0.15174596183E+02  0.21278534030E+03  0.17300000000E+03 0. -1.
         -6    1    1    2    0  503  0.12002275738E+03  0.26699632706E+02  0.66924947189E+01  0.21234905736E+03  0.17300000000E+03 0. -1.
<mgrwt>
<rscale>  2 0.21224357E+03</rscale>
<asrwt>0</asrwt>
<pdfrwt beam="1">  1       21 0.32050177E-01 0.21224357E+03</pdfrwt>
<pdfrwt beam="2">  1       21 0.33355115E-01 0.21224357E+03</pdfrwt>
<totfact> 0.80379513E+04</totfact>
</mgrwt>
</event>
<event>
 4    1  0.4151607E+000  0.1749586E+03  0.7546771E-02  0.1172773E+00
         21   -1    0    0  501  502  0.00000000000E+00  0.00000000000E+00  0.18096778104E+04  0.18096778104E+04  0.00000000000E+00 0.  1.
         21   -1    0    0  502  503 -0.00000000000E+00 -0.00000000000E+00 -0.28774356632E+02  0.28774356632E+02  0.00000000000E+00 0.  1.
          6    1    1    2  501    0  0.10576162915E+02 -0.23867715075E+02  0.14805874228E+04  0.14908888757E+04  0.17300000000E+03 0.  1.
         -6    1    1    2    0  503 -0.10576162915E+02  0.23867715075E+02  0.30031603095E+03  0.34756329135E+03  0.17300000000E+03 0.  1.
<mgrwt>
<rscale>  2 0.17495863E+03</rscale>
<asrwt>0</asrwt>
<pdfrwt beam="1">  1       21 0.27841188E+00 0.17495863E+03</pdfrwt>
<pdfrwt beam="2">  1       21 0.44268255E-02 0.17495863E+03</pdfrwt>
<totfact> 0.15291180E+04</totfact>
</mgrwt>
</event>
<event>
 4    1  0.4151607E+000  0.1869616E+03  0.7546771E-02  0.1161231E+00
         21   -1    0    0  501  502  0.00000000000E+00  0.00000000000E+00  0.38053078678E+02  0.38053078678E+02  0.00000000000E+00 0.  1.
         21   -1    0    0  502  503 -0.00000000000E+00 -0.00000000000E+00 -0.92559577775E+03  0.92559577775E+03  0.00000000000E+00 0.  1.
          6    1    1    2  501    0 -0.20521809116E+02 -0.67856496000E+02 -0.48573146202E+03  0.52047065422E+03  0.17300000000E+03 0.  1.
         -6    1    1    2    0  503  0.20521809116E+02  0.67856496000E+02 -0.40181123704E+03  0.44317820221E+03  0.17300000000E+03 0.  1.
<mgrwt>
<rscale>  2 0.18696162E+03</rscale>
<asrwt>0</asrwt>
<pdfrwt beam="1">  1       21 0.58543202E-02 0.18696162E+03</pdfrwt>
<pdfrwt beam="2">  1       21 0.14239934E+00 0.18696162E+03</pdfrwt>
<totfact> 0.70619257E+04</totfact>
</mgrwt>
</event>
<event>
 4    1  0.4151607E+000  0.2860279E+03  0.7546771E-02  0.1092441E+00
         21   -1    0    0  503  502  0.00000000000E+00  0.00000000000E+00  0.10221520841E+03  0.10221520841E+03  0.00000000000E+00 0. -1.
         21   -1    0    0  501  503 -0.00000000000E+00 -0.00000000000E+00 -0.82039667313E+03  0.82039667313E+03  0.00000000000E+00 0.  1.
          6    1    1    2  501    0  0.22346165318E+03  0.44134403265E+02 -0.43113052739E+03  0.51738330823E+03  0.17300000000E+03 0.  1.
         -6    1    1    2    0  502 -0.22346165318E+03 -0.44134403265E+02 -0.28705093734E+03  0.40522857331E+03  0.17300000000E+03 0. -1.
<mgrwt>
<rscale>  2 0.28602789E+03</rscale>
<asrwt>0</asrwt>
<pdfrwt beam="1">  1       21 0.15725416E-01 0.28602789E+03</pdfrwt>
<pdfrwt beam="2">  1       21 0.12621488E+00 0.28602789E+03</pdfrwt>
<totfact> 0.15894370E+04</totfact>
</mgrwt>
</event>
<event>
 4    1  0.4151607E+000  0.2339247E+03  0.7546771E-02  0.1123907E+00
         21   -1    0    0  503  502  0.00000000000E+00  0.00000000000E+00  0.65089032994E+02  0.65089032994E+02  0.00000000000E+00 0.  1.
         21   -1    0    0  501  503 -0.00000000000E+00 -0.00000000000E+00 -0.88870406491E+03  0.88870406491E+03  0.00000000000E+00 0.  1.
          6    1    1    2  501    0  0.15511740142E+03  0.27025319914E+02 -0.52263691761E+03  0.57259944445E+03  0.17300000000E+03 0.  1.
         -6    1    1    2    0  502 -0.15511740142E+03 -0.27025319914E+02 -0.30097811431E+03  0.38119365345E+03  0.17300000000E+03 0.  1.
<mgrwt>
<rscale>  2 0.23392472E+03</rscale>
<asrwt>0</asrwt>
<pdfrwt beam="1">  1       21 0.10013698E-01 0.23392472E+03</pdfrwt>
<pdfrwt beam="2">  1       21 0.13672369E+00 0.23392472E+03</pdfrwt>
<totfact> 0.30066701E+04</totfact>
</mgrwt>
</event>
<event>
 4    1  0.4151607E+000  0.2011577E+03  0.7546771E-02  0.1148766E+00
         21   -1    0    0  503  502  0.00000000000E+00  0.00000000000E+00  0.77452261127E+02  0.77452261127E+02  0.00000000000E+00 0.  1.
         21   -1    0    0  501  503 -0.00000000000E+00 -0.00000000000E+00 -0.52557377356E+03  0.52557377356E+03  0.00000000000E+00 0.  1.
          6    1    1    2  501    0 -0.94679678643E+02  0.39638271867E+02 -0.20079179454E+03  0.28422135546E+03  0.17300000000E+03 0.  1.
         -6    1    1    2    0  502  0.94679678643E+02 -0.39638271867E+02 -0.24732971789E+03  0.31880467922E+03  0.17300000000E+03 0.  1.
<mgrwt>
<rscale>  2 0.20115773E+03</rscale>
<asrwt>0</asrwt>
<pdfrwt beam="1">  1       21 0.11915732E-01 0.20115773E+03</pdfrwt>
<pdfrwt beam="2">  1       21 0.80857505E-01 0.20115773E+03</pdfrwt>
<totfact> 0.79482156E+04</totfact>
</mgrwt>
</event>
<event>
 4    1  0.4151607E+000  0.1824396E+03  0.7546771E-02  0.1165463E+00
         21   -1    0    0  501  502  0.00000000000E+00  0.00000000000E+00  0.17366753010E+03  0.17366753010E+03  0.00000000000E+00 0.  1.
         21   -1    0    0  502  503 -0.00000000000E+00 -0.00000000000E+00 -0.27559887681E+03  0.27559887681E+03  0.00000000000E+00 0.  1.
          6    1    1    2  501    0 -0.32006346287E+02  0.48278307562E+02  0.73008286851E+02  0.19650549899E+03  0.17300000000E+03 0.  1.
         -6    1    1    2    0  503  0.32006346287E+02 -0.48278307562E+02 -0.17493963356E+03  0.25276090792E+03  0.17300000000E+03 0.  1.
<mgrwt>
<rscale>  2 0.18243958E+03</rscale>
<asrwt>0</asrwt>
<pdfrwt beam="1">  1       21 0.26718082E-01 0.18243958E+03</pdfrwt>
<pdfrwt beam="2">  1       21 0.42399827E-01 0.18243958E+03</pdfrwt>
<totfact> 0.71680220E+04</totfact>
</mgrwt>
</event>
<event>
 4    1  0.4151607E+000  0.2587927E+03  0.7546771E-02  0.1107871E+00
         21   -1    0    0  501  502  0.00000000000E+00  0.00000000000E+00  0.57111186152E+03  0.57111186152E+03  0.00000000000E+00 0. -1.
         21   -1    0    0  502  503 -0.00000000000E+00 -0.00000000000E+00 -0.17456581219E+03  0.17456581219E+03  0.00000000000E+00 0. -1.
          6    1    1    2  501    0 -0.13356659335E+02 -0.19200591106E+03  0.41187589647E+03  0.48643131512E+03  0.17300000000E+03 0. -1.
         -6    1    1    2    0  503  0.13356659335E+02  0.19200591106E+03 -0.15329847148E+02  0.25924635859E+03  0.17300000000E+03 0. -1.
<mgrwt>
<rscale>  2 0.25879272E+03</rscale>
<asrwt>0</asrwt>
<pdfrwt beam="1">  1       21 0.87863363E-01 0.25879272E+03</pdfrwt>
<pdfrwt beam="2">  1       21 0.26856279E-01 0.25879272E+03</pdfrwt>
<totfact> 0.14109005E+04</totfact>
</mgrwt>
</event>
<event>
 4    1  0.4151607E+000  0.1796551E+03  0.7546771E-02  0.1168137E+00
         21   -1    0    0  501  502  0.00000000000E+00  0.00000000000E+00  0.40467495824E+03  0.40467495824E+03  0.00000000000E+00 0. -1.
         21   -1    0    0  502  503 -0.00000000000E+00 -0.00000000000E+00 -0.16666164981E+03  0.16666164981E+03  0.00000000000E+00 0. -1.
          6    1    1    2  501    0  0.47797163851E+02 -0.78988818948E+01  0.32528985866E+03  0.37160389308E+03  0.17300000000E+03 0. -1.
         -6    1    1    2    0  503 -0.47797163851E+02  0.78988818948E+01 -0.87276550226E+02  0.19973271496E+03  0.17300000000E+03 0. -1.
<mgrwt>
<rscale>  2 0.17965512E+03</rscale>
<asrwt>0</asrwt>
<pdfrwt beam="1">  1       21 0.62257686E-01 0.17965512E+03</pdfrwt>
<pdfrwt beam="2">  1       21 0.25640254E-01 0.17965512E+03</pdfrwt>
<totfact> 0.34772259E+04</totfact>
</mgrwt>
</event>
<event>
 4    1  0.4151607E+000  0.2260648E+03  0.7546771E-02  0.1129441E+00
         21   -1    0    0  501  502  0.00000000000E+00  0.00000000000E+00  0.13851074915E+04  0.13851074915E+04  0.00000000000E+00 0.  1.
         21   -1    0    0  502  503 -0.00000000000E+00 -0.00000000000E+00 -0.85882764088E+02  0.85882764088E+02  0.00000000000E+00 0.  1.
          6    1    1    2  501    0  0.90425845400E+02  0.11401508157E+03  0.12050880588E+04  0.12261086827E+04  0.17300000000E+03 0.  1.
         -6    1    1    2    0  503 -0.90425845400E+02 -0.11401508157E+03  0.94136668545E+02  0.24488157282E+03  0.17300000000E+03 0.  1.
<mgrwt>
<rscale>  2 0.22606475E+03</rscale>
<asrwt>0</asrwt>
<pdfrwt beam="1">  1       21 0.21309344E+00 0.22606475E+03</pdfrwt>
<pdfrwt beam="2">  1       21 0.13212734E-01 0.22606475E+03</pdfrwt>
<totfact> 0.53178674E+03</totfact>
</mgrwt>
</event>
<event>
 4    1  0.4151607E+000  0.2195981E+03  0.7546771E-02  0.1134183E+00
         21   -1    0    0  501  502  0.00000000000E+00  0.00000000000E+00  0.28606288629E+03  0.28606288629E+03  0.00000000000E+00 0.  1.
         21   -1    0    0  502  503 -0.00000000000E+00 -0.00000000000E+00 -0.18546830605E+03  0.18546830605E+03  0.00000000000E+00 0. -1.
          6    1    1    2  501    0  0.77135424524E+02 -0.11110560616E+03  0.12144982791E+03  0.25094499424E+03  0.17300000000E+03 0.  1.
         -6    1    1    2    0  503 -0.77135424524E+02  0.11110560616E+03 -0.20855247676E+02  0.22058619810E+03  0.17300000000E+03 0. -1.
<mgrwt>
<rscale>  2 0.21959811E+03</rscale>
<asrwt>0</asrwt>
<pdfrwt beam="1">  1       21 0.44009675E-01 0.21959811E+03</pdfrwt>
<pdfrwt beam="2">  1       21 0.28533585E-01 0.21959811E+03</pdfrwt>
<totfact> 0.57546588E+04</totfact>
</mgrwt>
</event>
<event>
 4    1  0.4151607E+000  0.2090605E+03  0.7546771E-02  0.1142312E+00
         21   -1    0    0  501  502  0.00000000000E+00  0.00000000000E+00  0.32644312887E+02  0.32644312887E+02  0.00000000000E+00 0.  1.
         21   -1    0    0  502  503 -0.00000000000E+00 -0.00000000000E+00 -0.14663001990E+04  0.14663001990E+04  0.00000000000E+00 0.  1.
          6    1    1    2  501    0  0.37886879412E+02 -0.11109397751E+03 -0.49587950854E+03  0.53814753968E+03  0.17300000000E+03 0.  1.
         -6    1    1    2    0  503 -0.37886879412E+02  0.11109397751E+03 -0.93777637752E+03  0.96079697216E+03  0.17300000000E+03 0.  1.
<mgrwt>
<rscale>  2 0.20906049E+03</rscale>
<asrwt>0</asrwt>
<pdfrwt beam="1">  1       21 0.50222020E-02 0.20906049E+03</pdfrwt>
<pdfrwt beam="2">  1       21 0.22558464E+00 0.20906049E+03</pdfrwt>
<totfact> 0.24515066E+04</totfact>
</mgrwt>
</event>
<event>
 4    1  0.4151607E+000  0.1854432E+03  0.7546771E-02  0.1162637E+00
         21   -1    0    0  501  502  0.00000000000E+00  0.00000000000E+00  0.24774006220E+02  0.24774006220E+02  0.00000000000E+00 0.  1.
         21   -1    0    0  502  503 -0.00000000000E+00 -0.00000000000E+00 -0.14967473837E+04  0.14967473837E+04  0.00000000000E+00 0.  1.
          6    1    1    2  501    0  0.25751922270E+00  0.66784013513E+02 -0.94093926218E+03  0.95903903251E+03  0.17300000000E+03 0.  1.
         -6    1    1    2    0  503 -0.25751922270E+00 -0.66784013513E+02 -0.53103411528E+03  0.56248235738E+03  0.17300000000E+03 0.  1.
<mgrwt>
<rscale>  2 0.18544317E+03</rscale>
<asrwt>0</asrwt>
<pdfrwt beam="1">  1       21 0.38113857E-02 0.18544317E+03</pdfrwt>
<pdfrwt beam="2">  1       21 0.23026882E+00 0.18544317E+03</pdfrwt>
<totfact> 0.37221380E+04</totfact>
</mgrwt>
</event>
<event>
 4    1  0.4151607E+000  0.2720432E+03  0.7546771E-02  0.1100116E+00
         21   -1    0    0  501  502  0.00000000000E+00  0.00000000000E+00  0.17639314069E+03  0.17639314069E+03  0.00000000000E+00 0. -1.
         21   -1    0    0  502  503 -0.00000000000E+00 -0.00000000000E+00 -0.43114188388E+03  0.43114188388E+03  0.00000000000E+00 0.  1.
          6    1    1    2  501    0  0.20956833479E+03  0.12634914856E+02 -0.77587081193E+02  0.28289093868E+03  0.17300000000E+03 0. -1.
         -6    1    1    2    0  503 -0.20956833479E+03 -0.12634914856E+02 -0.17716166200E+03  0.32464408589E+03  0.17300000000E+03 0.  1.
<mgrwt>
<rscale>  2 0.27204325E+03</rscale>
<asrwt>0</asrwt>
<pdfrwt beam="1">  1       21 0.27137407E-01 0.27204325E+03</pdfrwt>
<pdfrwt beam="2">  1       21 0.66329520E-01 0.27204325E+03</pdfrwt>
<totfact> 0.25946026E+04</totfact>
</mgrwt>
</event>
<event>
 4    1  0.4151607E+000  0.1935043E+03  0.7546771E-02  0.1155338E+00
         21   -1    0    0  501  502  0.00000000000E+00  0.00000000000E+00  0.12815650623E+03  0.12815650623E+03  0.00000000000E+00 0. -1.
         21   -1    0    0  502  503 -0.00000000000E+00 -0.00000000000E+00 -0.36380732282E+03  0.36380732282E+03  0.00000000000E+00 0. -1.
          6    1    1    2  501    0 -0.18715246449E+01 -0.86668307284E+02 -0.86744895076E+01  0.19369859282E+03  0.17300000000E+03 0. -1.
         -6    1    1    2    0  503  0.18715246449E+01  0.86668307284E+02 -0.22697632708E+03  0.29826523623E+03  0.17300000000E+03 0. -1.
<mgrwt>
<rscale>  2 0.19350426E+03</rscale>
<asrwt>0</asrwt>
<pdfrwt beam="1">  1       21 0.19716386E-01 0.19350426E+03</pdfrwt>
<pdfrwt beam="2">  1       21 0.55970356E-01 0.19350426E+03</pdfrwt>
<totfact> 0.71234000E+04</totfact>
</mgrwt>
</event>
<event>
 4    1  0.4151607E+000  0.2012565E+03  0.7546771E-02  0.1148683E+00
         21   -1    0    0  501  502  0.00000000000E+00  0.00000000000E+00  0.87923541547E+03  0.87923541547E+03  0.00000000000E+00 0. -1.
         21   -1    0    0  502  503 -0.00000000000E+00 -0.00000000000E+00 -0.17059143274E+03  0.17059143274E+03  0.00000000000E+00 0. -1.
          6    1    1    2  501    0  0.87847823242E+02 -0.53459705056E+02  0.80279414287E+03  0.82763676570E+03  0.17300000000E+03 0. -1.
         -6    1    1    2    0  503 -0.87847823242E+02  0.53459705056E+02 -0.94150160141E+02  0.22219008251E+03  0.17300000000E+03 0. -1.
<mgrwt>
<rscale>  2 0.20125650E+03</rscale>
<asrwt>0</asrwt>
<pdfrwt beam="1">  1       21 0.13526698E+00 0.20125650E+03</pdfrwt>
<pdfrwt beam="2">  1       21 0.26244836E-01 0.20125650E+03</pdfrwt>
<totfact> 0.53569239E+03</totfact>
</mgrwt>
</event>
<event>
 4    1  0.4151607E+000  0.1770543E+03  0.7546771E-02  0.1170685E+00
         21   -1    0    0  503  502  0.00000000000E+00  0.00000000000E+00  0.22787068384E+03  0.22787068384E+03  0.00000000000E+00 0.  1.
         21   -1    0    0  501  503 -0.00000000000E+00 -0.00000000000E+00 -0.42163622782E+03  0.42163622782E+03  0.00000000000E+00 0. -1.
          6    1    1    2  501    0 -0.32094465288E+01 -0.37535685627E+02 -0.36344243352E+03  0.40427543919E+03  0.17300000000E+03 0. -1.
         -6    1    1    2    0  502  0.32094465288E+01  0.37535685627E+02  0.16967688954E+03  0.24523147247E+03  0.17300000000E+03 0.  1.
<mgrwt>
<rscale>  2 0.17705431E+03</rscale>
<asrwt>0</asrwt>
<pdfrwt beam="1">  1       21 0.35057028E-01 0.17705431E+03</pdfrwt>
<pdfrwt beam="2">  1       21 0.64867112E-01 0.17705431E+03</pdfrwt>
<totfact> 0.17339842E+04</totfact>
</mgrwt>
</event>
<event>
 4    1  0.4151607E+000  0.3465488E+03  0.7546771E-02  0.1064041E+00
         21   -1    0    0  501  502  0.00000000000E+00  0.00000000000E+00  0.13293776976E+03  0.13293776976E+03  0.00000000000E+00 0. -1.
         21   -1    0    0  502  503 -0.00000000000E+00 -0.00000000000E+00 -0.12130386646E+04  0.12130386646E+04  0.00000000000E+00 0.  1.
          6    1    1    2  501    0  0.11264385597E+02  0.30006700025E+03 -0.20003617121E+03  0.40013817715E+03  0.17300000000E+03 0. -1.
         -6    1    1    2    0  503 -0.11264385597E+02 -0.30006700025E+03 -0.88006472365E+03  0.94583825723E+03  0.17300000000E+03 0.  1.
<mgrwt>
<rscale>  2 0.34654883E+03</rscale>
<asrwt>0</asrwt>
<pdfrwt beam="1">  1       21 0.20451964E-01 0.34654883E+03</pdfrwt>
<pdfrwt beam="2">  1       21 0.18662134E+00 0.34654883E+03</pdfrwt>
<totfact> 0.32612276E+03</totfact>
</mgrwt>
</event>
<event>
 4    1  0.4151607E+000  0.2093650E+03  0.7546771E-02  0.1142070E+00
         21   -1    0    0  503  502  0.00000000000E+00  0.00000000000E+00  0.14516999089E+03  0.14516999089E+03  0.00000000000E+00 0. -1.
         21   -1    0    0  501  503 -0.00000000000E+00 -0.00000000000E+00 -0.39398540855E+03  0.39398540855E+03  0.00000000000E+00 0.  1.
          6    1    1    2  501    0  0.98430434426E+02 -0.64932054752E+02 -0.25470253237E+03  0.32970760099E+03  0.17300000000E+03 0.  1.
         -6    1    1    2    0  502 -0.98430434426E+02  0.64932054752E+02  0.58871147013E+01  0.20944779845E+03  0.17300000000E+03 0. -1.
<mgrwt>
<rscale>  2 0.20936505E+03</rscale>
<asrwt>0</asrwt>
<pdfrwt beam="1">  1       21 0.22333845E-01 0.20936505E+03</pdfrwt>
<pdfrwt beam="2">  1       21 0.60613140E-01 0.20936505E+03</pdfrwt>
<totfact> 0.47175408E+04</totfact>
</mgrwt>
</event>
<event>
 4    1  0.4151607E+000  0.2319472E+03  0.7546771E-02  0.1125277E+00
         21   -1    0    0  503  502  0.00000000000E+00  0.00000000000E+00  0.43299622539E+02  0.43299622539E+02  0.00000000000E+00 0. -1.
         21   -1    0    0  501  503 -0.00000000000E+00 -0.00000000000E+00 -0.17973168044E+04  0.17973168044E+04  0.00000000000E+00 0. -1.
          6    1    1    2  501    0  0.10508420264E+03  0.11325987842E+03 -0.13883352274E+04  0.14075774200E+04  0.17300000000E+03 0. -1.
         -6    1    1    2    0  502 -0.10508420264E+03 -0.11325987842E+03 -0.36568195450E+03  0.43303900696E+03  0.17300000000E+03 0. -1.
<mgrwt>
<rscale>  2 0.23194717E+03</rscale>
<asrwt>0</asrwt>
<pdfrwt beam="1">  1       21 0.66614788E-02 0.23194717E+03</pdfrwt>
<pdfrwt beam="2">  1       21 0.27651034E+00 0.23194717E+03</pdfrwt>
<totfact> 0.73899040E+03</totfact>
</mgrwt>
</event>
<event>
 4    1  0.4151607E+000  0.2063705E+03  0.7546771E-02  0.1144473E+00
         21   -1    0    0  503  502  0.00000000000E+00  0.00000000000E+00  0.14498193904E+03  0.14498193904E+03  0.00000000000E+00 0.  1.
         21   -1    0    0  501  503 -0.00000000000E+00 -0.00000000000E+00 -0.35230109843E+03  0.35230109843E+03  0.00000000000E+00 0. -1.
          6    1    1    2  501    0  0.59096046575E+02 -0.95746646907E+02 -0.20502177937E+03  0.29089979913E+03  0.17300000000E+03 0. -1.
         -6    1    1    2    0  502 -0.59096046575E+02  0.95746646907E+02 -0.22973800094E+01  0.20638323834E+03  0.17300000000E+03 0.  1.
<mgrwt>
<rscale>  2 0.20637045E+03</rscale>
<asrwt>0</asrwt>
<pdfrwt beam="1">  1       21 0.22304914E-01 0.20637045E+03</pdfrwt>
<pdfrwt beam="2">  1       21 0.54200168E-01 0.20637045E+03</pdfrwt>
<totfact> 0.60125976E+04</totfact>
</mgrwt>
</event>
<event>
 4    1  0.4151607E+000  0.2344836E+03  0.7546771E-02  0.1123523E+00
         21   -1    0    0  503  502  0.00000000000E+00  0.00000000000E+00  0.17535089198E+04  0.17535089198E+04  0.00000000000E+00 0.  1.
         21   -1    0    0  501  503 -0.00000000000E+00 -0.00000000000E+00 -0.65076427951E+02  0.65076427951E+02  0.00000000000E+00 0. -1.
          6    1    1    2  501    0  0.28079827761E+02  0.15577249847E+03  0.18967030820E+03  0.30159140210E+03  0.17300000000E+03 0. -1.
         -6    1    1    2    0  502 -0.28079827761E+02 -0.15577249847E+03  0.14987621836E+04  0.15169939456E+04  0.17300000000E+03 0.  1.
<mgrwt>
<rscale>  2 0.23448358E+03</rscale>
<asrwt>0</asrwt>
<pdfrwt beam="1">  1       21 0.26977057E+00 0.23448358E+03</pdfrwt>
<pdfrwt beam="2">  1       21 0.10011759E-01 0.23448358E+03</pdfrwt>
<totfact> 0.39555022E+03</totfact>
</mgrwt>
</event>
<event>
 4    1  0.4151607E+000  0.1914325E+03  0.7546771E-02  0.1157176E+00
         21   -1    0    0  501  502  0.00000000000E+00  0.00000000000E+00  0.22199032545E+03  0.22199032545E+03  0.00000000000E+00 0. -1.
         21   -1    0    0  502  503 -0.00000000000E+00 -0.00000000000E+00 -0.17659551863E+03  0.17659551863E+03  0.00000000000E+00 0. -1.
          6    1    1    2  501    0 -0.55521865970E+02  0.60288526974E+02  0.73586530278E+02  0.20508866747E+03  0.17300000000E+03 0. -1.
         -6    1    1    2    0  503  0.55521865970E+02 -0.60288526974E+02 -0.28191723462E+02  0.19349717661E+03  0.17300000000E+03 0. -1.
<mgrwt>
<rscale>  2 0.19143245E+03</rscale>
<asrwt>0</asrwt>
<pdfrwt beam="1">  1       21 0.34152358E-01 0.19143245E+03</pdfrwt>
<pdfrwt beam="2">  1       21 0.27168541E-01 0.19143245E+03</pdfrwt>
<totfact> 0.10673451E+05</totfact>
</mgrwt>
</event>
<event>
 4    1  0.4151607E+000  0.1779290E+03  0.7546771E-02  0.1169823E+00
         21   -1    0    0  501  502  0.00000000000E+00  0.00000000000E+00  0.46170949188E+02  0.46170949188E+02  0.00000000000E+00 0. -1.
         21   -1    0    0  502  503 -0.00000000000E+00 -0.00000000000E+00 -0.85607751793E+03  0.85607751793E+03  0.00000000000E+00 0. -1.
          6    1    1    2  501    0  0.33926657273E+02  0.24056662509E+02 -0.20369002994E+03  0.27045955221E+03  0.17300000000E+03 0. -1.
         -6    1    1    2    0  503 -0.33926657273E+02 -0.24056662509E+02 -0.60621653880E+03  0.63178891490E+03  0.17300000000E+03 0. -1.
<mgrwt>
<rscale>  2 0.17792903E+03</rscale>
<asrwt>0</asrwt>
<pdfrwt beam="1">  1       21 0.71032232E-02 0.17792903E+03</pdfrwt>
<pdfrwt beam="2">  1       21 0.13170423E+00 0.17792903E+03</pdfrwt>
<totfact> 0.62152729E+04</totfact>
</mgrwt>
</event>
<event>
 4    1  0.4151607E+000  0.2188760E+03  0.7546771E-02  0.1134724E+00
         21   -1    0    0  503  502  0.00000000000E+00  0.00000000000E+00  0.27007706462E+03  0.27007706462E+03  0.00000000000E+00 0.  1.
         21   -1    0    0  501  503 -0.00000000000E+00 -0.00000000000E+00 -0.17738162057E+03  0.17738162057E+03  0.00000000000E+00 0.  1.
          6    1    1    2  501    0 -0.12893107574E+03 -0.36803193275E+02  0.46245132783E+02  0.22370809023E+03  0.17300000000E+03 0.  1.
         -6    1    1    2    0  502  0.12893107574E+03  0.36803193275E+02  0.46450311264E+02  0.22375059496E+03  0.17300000000E+03 0.  1.
<mgrwt>
<rscale>  2 0.21887599E+03</rscale>
<asrwt>0</asrwt>
<pdfrwt beam="1">  1       21 0.41550317E-01 0.21887599E+03</pdfrwt>
<pdfrwt beam="2">  1       21 0.27289480E-01 0.21887599E+03</pdfrwt>
<totfact> 0.70596695E+04</totfact>
</mgrwt>
</event>
<event>
 4    1  0.4151607E+000  0.2665789E+03  0.7546771E-02  0.1103254E+00
         21   -1    0    0  501  502  0.00000000000E+00  0.00000000000E+00  0.44746240286E+03  0.44746240286E+03  0.00000000000E+00 0.  1.
         21   -1    0    0  502  503 -0.00000000000E+00 -0.00000000000E+00 -0.16500770100E+03  0.16500770100E+03  0.00000000000E+00 0. -1.
          6    1    1    2  501    0  0.73680855595E+02 -0.18896149205E+03  0.20054691952E+03  0.33359163791E+03  0.17300000000E+03 0.  1.
         -6    1    1    2    0  503 -0.73680855595E+02  0.18896149205E+03  0.81907782347E+02  0.27887846595E+03  0.17300000000E+03 0. -1.
<mgrwt>
<rscale>  2 0.26657891E+03</rscale>
<asrwt>0</asrwt>
<pdfrwt beam="1">  1       21 0.68840369E-01 0.26657891E+03</pdfrwt>
<pdfrwt beam="2">  1       21 0.25385800E-01 0.26657891E+03</pdfrwt>
<totfact> 0.27255884E+04</totfact>
</mgrwt>
</event>
<event>
 4    1  0.4151607E+000  0.2115698E+03  0.7546771E-02  0.1140329E+00
         21   -1    0    0  503  502  0.00000000000E+00  0.00000000000E+00  0.25229562560E+03  0.25229562560E+03  0.00000000000E+00 0. -1.
         21   -1    0    0  501  503 -0.00000000000E+00 -0.00000000000E+00 -0.27442897003E+03  0.27442897003E+03  0.00000000000E+00 0.  1.
          6    1    1    2  501    0  0.31204205051E+02  0.11772457082E+03 -0.16765129927E+03  0.26994209589E+03  0.17300000000E+03 0.  1.
         -6    1    1    2    0  502 -0.31204205051E+02 -0.11772457082E+03  0.14551795484E+03  0.25678249973E+03  0.17300000000E+03 0. -1.
<mgrwt>
<rscale>  2 0.21156979E+03</rscale>
<asrwt>0</asrwt>
<pdfrwt beam="1">  1       21 0.38814712E-01 0.21156979E+03</pdfrwt>
<pdfrwt beam="2">  1       21 0.42219841E-01 0.21156979E+03</pdfrwt>
<totfact> 0.34208529E+04</totfact>
</mgrwt>
</event>
<event>
 4    1  0.4151607E+000  0.2550460E+03  0.7546771E-02  0.1110157E+00
         21   -1    0    0  503  502  0.00000000000E+00  0.00000000000E+00  0.46269659170E+03  0.46269659170E+03  0.00000000000E+00 0.  1.
         21   -1    0    0  501  503 -0.00000000000E+00 -0.00000000000E+00 -0.22203305551E+03  0.22203305551E+03  0.00000000000E+00 0.  1.
          6    1    1    2  501    0  0.18735263116E+03  0.42986517090E+01 -0.87025388241E+02  0.26948451720E+03  0.17300000000E+03 0.  1.
         -6    1    1    2    0  502 -0.18735263116E+03 -0.42986517090E+01  0.32768892443E+03  0.41524513002E+03  0.17300000000E+03 0.  1.
<mgrwt>
<rscale>  2 0.25504605E+03</rscale>
<asrwt>0</asrwt>
<pdfrwt beam="1">  1       21 0.71184091E-01 0.25504605E+03</pdfrwt>
<pdfrwt beam="2">  1       21 0.34158932E-01 0.25504605E+03</pdfrwt>
<totfact> 0.14221065E+04</totfact>
</mgrwt>
</event>
<event>
 4    1  0.4151607E+000  0.2154073E+03  0.7546771E-02  0.1137354E+00
         21   -1    0    0  503  502  0.00000000000E+00  0.00000000000E+00  0.56572365659E+03  0.56572365659E+03  0.00000000000E+00 0. -1.
         21   -1    0    0  501  503 -0.00000000000E+00 -0.00000000000E+00 -0.82966356826E+02  0.82966356826E+02  0.00000000000E+00 0. -1.
          6    1    1    2  501    0 -0.11022570065E+03  0.65739027999E+02  0.20672753280E+03  0.29855752829E+03  0.17300000000E+03 0. -1.
         -6    1    1    2    0  502  0.11022570065E+03 -0.65739027999E+02  0.27602976697E+03  0.35013248513E+03  0.17300000000E+03 0. -1.
<mgrwt>
<rscale>  2 0.21540735E+03</rscale>
<asrwt>0</asrwt>
<pdfrwt beam="1">  1       21 0.87034406E-01 0.21540735E+03</pdfrwt>
<pdfrwt beam="2">  1       21 0.12764055E-01 0.21540735E+03</pdfrwt>
<totfact> 0.58984318E+04</totfact>
</mgrwt>
</event>
<event>
 4    1  0.4151607E+000  0.1824772E+03  0.7546771E-02  0.1165427E+00
         21   -1    0    0  503  502  0.00000000000E+00  0.00000000000E+00  0.14905196633E+04  0.14905196633E+04  0.00000000000E+00 0.  1.
         21   -1    0    0  501  503 -0.00000000000E+00 -0.00000000000E+00 -0.31270385734E+02  0.31270385734E+02  0.00000000000E+00 0.  1.
          6    1    1    2  501    0  0.25937663420E+00  0.58041910171E+02  0.32299617106E+03  0.37097770436E+03  0.17300000000E+03 0.  1.
         -6    1    1    2    0  502 -0.25937663420E+00 -0.58041910171E+02  0.11362531065E+04  0.11508123447E+04  0.17300000000E+03 0.  1.
<mgrwt>
<rscale>  2 0.18247721E+03</rscale>
<asrwt>0</asrwt>
<pdfrwt beam="1">  1       21 0.22931066E+00 0.18247721E+03</pdfrwt>
<pdfrwt beam="2">  1       21 0.48108297E-02 0.18247721E+03</pdfrwt>
<totfact> 0.25563546E+04</totfact>
</mgrwt>
</event>
<event>
 4    1  0.4151607E+000  0.2878667E+03  0.7546771E-02  0.1091468E+00
         21   -1    0    0  501  502  0.00000000000E+00  0.00000000000E+00  0.69618063091E+03  0.69618063091E+03  0.00000000000E+00 0.  1.
         21   -1    0    0  502  503 -0.00000000000E+00 -0.00000000000E+00 -0.17883316959E+03  0.17883316959E+03  0.00000000000E+00 0.  1.
          6    1    1    2  501    0 -0.18610403694E+03  0.13529046889E+03  0.51167259643E+03  0.58709119349E+03  0.17300000000E+03 0.  1.
         -6    1    1    2    0  503  0.18610403694E+03 -0.13529046889E+03  0.56748648917E+01  0.28792260701E+03  0.17300000000E+03 0.  1.
<mgrwt>
<rscale>  2 0.28786668E+03</rscale>
<asrwt>0</asrwt>
<pdfrwt beam="1">  1       21 0.10710471E+00 0.28786668E+03</pdfrwt>
<pdfrwt beam="2">  1       21 0.27512796E-01 0.28786668E+03</pdfrwt>
<totfact> 0.82813633E+03</totfact>
</mgrwt>
</event>
<event>
 4    1  0.4151607E+000  0.1855382E+03  0.7546771E-02  0.1162548E+00
         21   -1    0    0  501  502  0.00000000000E+00  0.00000000000E+00  0.28628243127E+02  0.28628243127E+02  0.00000000000E+00 0.  1.
         21   -1    0    0  502  503 -0.00000000000E+00 -0.00000000000E+00 -0.16040298168E+04  0.16040298168E+04  0.00000000000E+00 0.  1.
          6    1    1    2  501    0 -0.36807413117E+02 -0.56041397007E+02 -0.37925206625E+03  0.42220439788E+03  0.17300000000E+03 0.  1.
         -6    1    1    2    0  503  0.36807413117E+02  0.56041397007E+02 -0.11961495074E+04  0.12104536620E+04  0.17300000000E+03 0.  1.
<mgrwt>
<rscale>  2 0.18553820E+03</rscale>
<asrwt>0</asrwt>
<pdfrwt beam="1">  1       21 0.44043462E-02 0.18553820E+03</pdfrwt>
<pdfrwt beam="2">  1       21 0.24677376E+00 0.18553820E+03</pdfrwt>
<totfact> 0.23296095E+04</totfact>
</mgrwt>
</event>
<event>
 4    1  0.4151607E+000  0.2380360E+03  0.7546771E-02  0.1121108E+00
         21   -1    0    0  503  502  0.00000000000E+00  0.00000000000E+00  0.71912196642E+02  0.71912196642E+02  0.00000000000E+00 0.  1.
         21   -1    0    0  501  503 -0.00000000000E+00 -0.00000000000E+00 -0.78809001441E+03  0.78809001441E+03  0.00000000000E+00 0. -1.
          6    1    1    2  501    0 -0.11225271083E+03  0.11887581604E+03 -0.36438583486E+03  0.43524495100E+03  0.17300000000E+03 0. -1.
         -6    1    1    2    0  502  0.11225271083E+03 -0.11887581604E+03 -0.35179198291E+03  0.42475726006E+03  0.17300000000E+03 0.  1.
<mgrwt>
<rscale>  2 0.23803599E+03</rscale>
<asrwt>0</asrwt>
<pdfrwt beam="1">  1       21 0.11063415E-01 0.23803599E+03</pdfrwt>
<pdfrwt beam="2">  1       21 0.12124461E+00 0.23803599E+03</pdfrwt>
<totfact> 0.34073984E+04</totfact>
</mgrwt>
</event>
<event>
 4    1  0.4151607E+000  0.1743954E+03  0.7546771E-02  0.1173340E+00
         21   -1    0    0  503  502  0.00000000000E+00  0.00000000000E+00  0.29001565098E+03  0.29001565098E+03  0.00000000000E+00 0.  1.
         21   -1    0    0  501  503 -0.00000000000E+00 -0.00000000000E+00 -0.45826254449E+03  0.45826254449E+03  0.00000000000E+00 0.  1.
          6    1    1    2  501    0 -0.22009930455E+02  0.54904723336E+00 -0.41267614236E+03  0.44801265269E+03  0.17300000000E+03 0.  1.
         -6    1    1    2    0  502  0.22009930455E+02 -0.54904723336E+00  0.24442924885E+03  0.30026554279E+03  0.17300000000E+03 0.  1.
<mgrwt>
<rscale>  2 0.17439535E+03</rscale>
<asrwt>0</asrwt>
<pdfrwt beam="1">  1       21 0.44617792E-01 0.17439535E+03</pdfrwt>
<pdfrwt beam="2">  1       21 0.70501930E-01 0.17439535E+03</pdfrwt>
<totfact> 0.89121921E+03</totfact>
</mgrwt>
</event>
<event>
 4    1  0.4151607E+000  0.1870348E+03  0.7546771E-02  0.1161163E+00
         21   -1    0    0  503  502  0.00000000000E+00  0.00000000000E+00  0.10915874495E+03  0.10915874495E+03  0.00000000000E+00 0. -1.
         21   -1    0    0  501  503 -0.00000000000E+00 -0.00000000000E+00 -0.39653406699E+03  0.39653406699E+03  0.00000000000E+00 0. -1.
          6    1    1    2  501    0  0.50345691849E+02  0.50183050950E+02 -0.25442862095E+03  0.31577832486E+03  0.17300000000E+03 0. -1.
         -6    1    1    2    0  502 -0.50345691849E+02 -0.50183050950E+02 -0.32946701095E+02  0.18991448708E+03  0.17300000000E+03 0. -1.
<mgrwt>
<rscale>  2 0.18703483E+03</rscale>
<asrwt>0</asrwt>
<pdfrwt beam="1">  1       21 0.16793653E-01 0.18703483E+03</pdfrwt>
<pdfrwt beam="2">  1       21 0.61005242E-01 0.18703483E+03</pdfrwt>
<totfact> 0.79956577E+04</totfact>
</mgrwt>
</event>
<event>
 4    1  0.4151607E+000  0.2344554E+03  0.7546771E-02  0.1123543E+00
         21   -1    0    0  503  502  0.00000000000E+00  0.00000000000E+00  0.15945543170E+04  0.15945543170E+04  0.00000000000E+00 0.  1.
         21   -1    0    0  501  503 -0.00000000000E+00 -0.00000000000E+00 -0.36046743997E+02  0.36046743997E+02  0.00000000000E+00 0. -1.
          6    1    1    2  501    0  0.15692952811E+03 -0.20333323532E+02  0.60890849877E+03  0.65248669007E+03  0.17300000000E+03 0. -1.
         -6    1    1    2    0  502 -0.15692952811E+03  0.20333323532E+02  0.94959907425E+03  0.97811437095E+03  0.17300000000E+03 0.  1.
<mgrwt>
<rscale>  2 0.23445537E+03</rscale>
<asrwt>0</asrwt>
<pdfrwt beam="1">  1       21 0.24531599E+00 0.23445537E+03</pdfrwt>
<pdfrwt beam="2">  1       21 0.55456542E-02 0.23445537E+03</pdfrwt>
<totfact> 0.15437636E+04</totfact>
</mgrwt>
</event>
<event>
 4    1  0.4151607E+000  0.1979317E+03  0.7546771E-02  0.1151496E+00
         21   -1    0    0  503  502  0.00000000000E+00  0.00000000000E+00  0.87881254376E+03  0.87881254376E+03  0.00000000000E+00 0.  1.
         21   -1    0    0  501  503 -0.00000000000E+00 -0.00000000000E+00 -0.57419042583E+02  0.57419042583E+02  0.00000000000E+00 0.  1.
          6    1    1    2  501    0 -0.20881883134E+02  0.93871645427E+02  0.18933543324E+03  0.27390663580E+03  0.17300000000E+03 0.  1.
         -6    1    1    2    0  502  0.20881883134E+02 -0.93871645427E+02  0.63205806794E+03  0.66232495054E+03  0.17300000000E+03 0.  1.
<mgrwt>
<rscale>  2 0.19793165E+03</rscale>
<asrwt>0</asrwt>
<pdfrwt beam="1">  1       21 0.13520192E+00 0.19793165E+03</pdfrwt>
<pdfrwt beam="2">  1       21 0.88336995E-02 0.19793165E+03</pdfrwt>
<totfact> 0.39378108E+04</totfact>
</mgrwt>
</event>
<event>
 4    1  0.4151607E+000  0.2424148E+03  0.7546771E-02  0.1118195E+00
         21   -1    0    0  501  502  0.00000000000E+00  0.00000000000E+00  0.25809037527E+03  0.25809037527E+03  0.00000000000E+00 0. -1.
         21   -1    0    0  502  503 -0.00000000000E+00 -0.00000000000E+00 -0.27052606860E+03  0.27052606860E+03  0.00000000000E+00 0.  1.
          6    1    1    2  501    0 -0.67144509183E+02  0.15597293376E+03  0.98955129967E+02  0.26183402935E+03  0.17300000000E+03 0. -1.
         -6    1    1    2    0  503  0.67144509183E+02 -0.15597293376E+03 -0.11139082329E+03  0.26678241451E+03  0.17300000000E+03 0.  1.
<mgrwt>
<rscale>  2 0.24241481E+03</rscale>
<asrwt>0</asrwt>
<pdfrwt beam="1">  1       21 0.39706211E-01 0.24241481E+03</pdfrwt>
<pdfrwt beam="2">  1       21 0.41619396E-01 0.24241481E+03</pdfrwt>
<totfact> 0.33152075E+04</totfact>
</mgrwt>
</event>
<event>
 4    1  0.4151607E+000  0.1793664E+03  0.7546771E-02  0.1168418E+00
         21   -1    0    0  503  502  0.00000000000E+00  0.00000000000E+00  0.13730171945E+03  0.13730171945E+03  0.00000000000E+00 0. -1.
         21   -1    0    0  501  503 -0.00000000000E+00 -0.00000000000E+00 -0.25120717790E+03  0.25120717790E+03  0.00000000000E+00 0. -1.
          6    1    1    2  501    0 -0.13988376396E+02  0.45250843748E+02 -0.10732071639E+03  0.20902164888E+03  0.17300000000E+03 0.  1.
         -6    1    1    2    0  502  0.13988376396E+02 -0.45250843748E+02 -0.65847420572E+01  0.17948724847E+03  0.17300000000E+03 0.  1.
<mgrwt>
<rscale>  2 0.17936642E+03</rscale>
<asrwt>0</asrwt>
<pdfrwt beam="1">  1       21 0.21123342E-01 0.17936642E+03</pdfrwt>
<pdfrwt beam="2">  1       21 0.38647258E-01 0.17936642E+03</pdfrwt>
<totfact> 0.13512869E+05</totfact>
</mgrwt>
</event>
<event>
 4    1  0.4151607E+000  0.3109903E+03  0.7546771E-02  0.1079872E+00
         21   -1    0    0  501  502  0.00000000000E+00  0.00000000000E+00  0.35925771387E+03  0.35925771387E+03  0.00000000000E+00 0. -1.
         21   -1    0    0  502  503 -0.00000000000E+00 -0.00000000000E+00 -0.26956789576E+03  0.26956789576E+03  0.00000000000E+00 0.  1.
          6    1    1    2  501    0 -0.13055409583E+03  0.22302830010E+03  0.56335665490E+02  0.31605173910E+03  0.17300000000E+03 0. -1.
         -6    1    1    2    0  503  0.13055409583E+03 -0.22302830010E+03  0.33354152616E+02  0.31277387052E+03  0.17300000000E+03 0.  1.
<mgrwt>
<rscale>  2 0.31099034E+03</rscale>
<asrwt>0</asrwt>
<pdfrwt beam="1">  1       21 0.55270417E-01 0.31099034E+03</pdfrwt>
<pdfrwt beam="2">  1       21 0.41471984E-01 0.31099034E+03</pdfrwt>
<totfact> 0.16283610E+04</totfact>
</mgrwt>
</event>
<event>
 4    1  0.4151607E+000  0.1802262E+03  0.7546771E-02  0.1167584E+00
         21   -1    0    0  503  502  0.00000000000E+00  0.00000000000E+00  0.48797066250E+03  0.48797066250E+03  0.00000000000E+00 0.  1.
         21   -1    0    0  501  503 -0.00000000000E+00 -0.00000000000E+00 -0.30084546422E+03  0.30084546422E+03  0.00000000000E+00 0.  1.
          6    1    1    2  501    0 -0.44676212028E+02 -0.23590997708E+02 -0.25448817031E+03  0.31184247293E+03  0.17300000000E+03 0.  1.
         -6    1    1    2    0  502  0.44676212028E+02  0.23590997708E+02  0.44161336859E+03  0.47697365380E+03  0.17300000000E+03 0.  1.
<mgrwt>
<rscale>  2 0.18022624E+03</rscale>
<asrwt>0</asrwt>
<pdfrwt beam="1">  1       21 0.75072409E-01 0.18022624E+03</pdfrwt>
<pdfrwt beam="2">  1       21 0.46283918E-01 0.18022624E+03</pdfrwt>
<totfact> 0.71608709E+03</totfact>
</mgrwt>
</event>
<event>
 4    1  0.4151607E+000  0.2251045E+03  0.7546771E-02  0.1130134E+00
         21   -1    0    0  503  502  0.00000000000E+00  0.00000000000E+00  0.11218498863E+03  0.11218498863E+03  0.00000000000E+00 0.  1.
         21   -1    0    0  501  503 -0.00000000000E+00 -0.00000000000E+00 -0.54590057445E+03  0.54590057445E+03  0.00000000000E+00 0.  1.
          6    1    1    2  501    0  0.14383634604E+03 -0.73585297947E+01 -0.35355566480E+03  0.41913440626E+03  0.17300000000E+03 0.  1.
         -6    1    1    2    0  502 -0.14383634604E+03  0.73585297947E+01 -0.80159921028E+02  0.23895115681E+03  0.17300000000E+03 0.  1.
<mgrwt>
<rscale>  2 0.22510451E+03</rscale>
<asrwt>0</asrwt>
<pdfrwt beam="1">  1       21 0.17259228E-01 0.22510451E+03</pdfrwt>
<pdfrwt beam="2">  1       21 0.83984706E-01 0.22510451E+03</pdfrwt>
<totfact> 0.36745113E+04</totfact>
</mgrwt>
</event>
<event>
 4    1  0.4151607E+000  0.1747918E+03  0.7546771E-02  0.1172941E+00
         21   -1    0    0  501  502  0.00000000000E+00  0.00000000000E+00  0.18911312618E+03  0.18911312618E+03  0.00000000000E+00 0. -1.
         21   -1    0    0  502  503 -0.00000000000E+00 -0.00000000000E+00 -0.34750907755E+03  0.34750907755E+03  0.00000000000E+00 0. -1.
          6    1    1    2  501    0  0.21343426226E+02 -0.12947822773E+02  0.11707400935E+03  0.21037707010E+03  0.17300000000E+03 0. -1.
         -6    1    1    2    0  503 -0.21343426226E+02  0.12947822773E+02 -0.27546996072E+03  0.32624513363E+03  0.17300000000E+03 0. -1.
<mgrwt>
<rscale>  2 0.17479184E+03</rscale>
<asrwt>0</asrwt>
<pdfrwt beam="1">  1       21 0.29094328E-01 0.17479184E+03</pdfrwt>
<pdfrwt beam="2">  1       21 0.53462934E-01 0.17479184E+03</pdfrwt>
<totfact> 0.37803305E+04</totfact>
</mgrwt>
</event>
<event>
 4    1  0.4151607E+000  0.1768813E+03  0.7546771E-02  0.1170856E+00
         21   -1    0    0  501  502  0.00000000000E+00  0.00000000000E+00  0.27128938316E+03  0.27128938316E+03  0.00000000000E+00 0. -1.
         21   -1    0    0  502  503 -0.00000000000E+00 -0.00000000000E+00 -0.11972178334E+03  0.11972178334E+03  0.00000000000E+00 0. -1.
          6    1    1    2  501    0  0.11499300952E+01 -0.36833209742E+02  0.11324125062E+03  0.21002520925E+03  0.17300000000E+03 0.  1.
         -6    1    1    2    0  503 -0.11499300952E+01  0.36833209742E+02  0.38326349197E+02  0.18098595725E+03  0.17300000000E+03 0.  1.
<mgrwt>
<rscale>  2 0.17688134E+03</rscale>
<asrwt>0</asrwt>
<pdfrwt beam="1">  1       21 0.41736828E-01 0.17688134E+03</pdfrwt>
<pdfrwt beam="2">  1       21 0.18418736E-01 0.17688134E+03</pdfrwt>
<totfact> 0.14945659E+05</totfact>
</mgrwt>
</event>
<event>
 4    1  0.4151607E+000  0.2159833E+03  0.7546771E-02  0.1136914E+00
         21   -1    0    0  501  502  0.00000000000E+00  0.00000000000E+00  0.11899668897E+04  0.11899668897E+04  0.00000000000E+00 0. -1.
         21   -1    0    0  502  503 -0.00000000000E+00 -0.00000000000E+00 -0.39660308368E+02  0.39660308368E+02  0.00000000000E+00 0. -1.
          6    1    1    2  501    0 -0.12017079943E+03 -0.47736379011E+02  0.64126271412E+03  0.67665844519E+03  0.17300000000E+03 0. -1.
         -6    1    1    2    0  503  0.12017079943E+03  0.47736379011E+02  0.50904386716E+03  0.55296875283E+03  0.17300000000E+03 0. -1.
<mgrwt>
<rscale>  2 0.21598329E+03</rscale>
<asrwt>0</asrwt>
<pdfrwt beam="1">  1       21 0.18307180E+00 0.21598329E+03</pdfrwt>
<pdfrwt beam="2">  1       21 0.61015868E-02 0.21598329E+03</pdfrwt>
<totfact> 0.32728323E+04</totfact>
</mgrwt>
</event>
<event>
 4    1  0.4151607E+000  0.1934517E+03  0.7546771E-02  0.1155384E+00
         21   -1    0    0  501  502  0.00000000000E+00  0.00000000000E+00  0.20360658158E+03  0.20360658158E+03  0.00000000000E+00 0. -1.
         21   -1    0    0  502  503 -0.00000000000E+00 -0.00000000000E+00 -0.60796681077E+03  0.60796681077E+03  0.00000000000E+00 0. -1.
          6    1    1    2  501    0  0.10062874149E+02  0.85984271839E+02  0.13676121922E+03  0.23691177160E+03  0.17300000000E+03 0. -1.
         -6    1    1    2    0  503 -0.10062874149E+02 -0.85984271839E+02 -0.54112144841E+03  0.57466162076E+03  0.17300000000E+03 0. -1.
<mgrwt>
<rscale>  2 0.19345169E+03</rscale>
<asrwt>0</asrwt>
<pdfrwt beam="1">  1       21 0.31324090E-01 0.19345169E+03</pdfrwt>
<pdfrwt beam="2">  1       21 0.93533355E-01 0.19345169E+03</pdfrwt>
<totfact> 0.94037623E+03</totfact>
</mgrwt>
</event>
<event>
 4    1  0.4151607E+000  0.2104918E+03  0.7546771E-02  0.1141177E+00
         21   -1    0    0  503  502  0.00000000000E+00  0.00000000000E+00  0.53303377004E+02  0.53303377004E+02  0.00000000000E+00 0. -1.
         21   -1    0    0  501  503 -0.00000000000E+00 -0.00000000000E+00 -0.17912971536E+04  0.17912971536E+04  0.00000000000E+00 0. -1.
          6    1    1    2  501    0  0.11981215884E+03 -0.47778260880E+01 -0.15442114565E+04  0.15584915154E+04  0.17300000000E+03 0. -1.
         -6    1    1    2    0  502 -0.11981215884E+03  0.47778260880E+01 -0.19378232009E+03  0.28610901525E+03  0.17300000000E+03 0. -1.
<mgrwt>
<rscale>  2 0.21049176E+03</rscale>
<asrwt>0</asrwt>
<pdfrwt beam="1">  1       21 0.82005195E-02 0.21049176E+03</pdfrwt>
<pdfrwt beam="2">  1       21 0.27558418E+00 0.21049176E+03</pdfrwt>
<totfact> 0.53228186E+03</totfact>
</mgrwt>
</event>
<event>
 4    1  0.4151607E+000  0.2652432E+03  0.7546771E-02  0.1104033E+00
         21   -1    0    0  501  502  0.00000000000E+00  0.00000000000E+00  0.82767349394E+03  0.82767349394E+03  0.00000000000E+00 0.  1.
         21   -1    0    0  502  503 -0.00000000000E+00 -0.00000000000E+00 -0.86828175175E+02  0.86828175175E+02  0.00000000000E+00 0.  1.
          6    1    1    2  501    0 -0.20105917081E+03 -0.39253517954E+00  0.43673423769E+03  0.51097038919E+03  0.17300000000E+03 0.  1.
         -6    1    1    2    0  503  0.20105917081E+03  0.39253517954E+00  0.30411108107E+03  0.40353127993E+03  0.17300000000E+03 0.  1.
<mgrwt>
<rscale>  2 0.26524318E+03</rscale>
<asrwt>0</asrwt>
<pdfrwt beam="1">  1       21 0.12733438E+00 0.26524318E+03</pdfrwt>
<pdfrwt beam="2">  1       21 0.13358181E-01 0.26524318E+03</pdfrwt>
<totfact> 0.21160597E+04</totfact>
</mgrwt>
</event>
<event>
 4    1  0.4151607E+000  0.1803039E+03  0.7546771E-02  0.1167509E+00
         21   -1    0    0  501  502  0.00000000000E+00  0.00000000000E+00  0.24902349682E+03  0.24902349682E+03  0.00000000000E+00 0.  1.
         21   -1    0    0  502  503 -0.00000000000E+00 -0.00000000000E+00 -0.13314722235E+03  0.13314722235E+03  0.00000000000E+00 0.  1.
          6    1    1    2  501    0  0.13696699962E+02 -0.48917406905E+02  0.84636552384E+02  0.19918046663E+03  0.17300000000E+03 0.  1.
         -6    1    1    2    0  503 -0.13696699962E+02  0.48917406905E+02  0.31239722093E+02  0.18299025254E+03  0.17300000000E+03 0.  1.
<mgrwt>
<rscale>  2 0.18030394E+03</rscale>
<asrwt>0</asrwt>
<pdfrwt beam="1">  1       21 0.38311307E-01 0.18030394E+03</pdfrwt>
<pdfrwt beam="2">  1       21 0.20484188E-01 0.18030394E+03</pdfrwt>
<totfact> 0.14560899E+05</totfact>
</mgrwt>
</event>
<event>
 4    1  0.4151607E+000  0.1801627E+03  0.7546771E-02  0.1167646E+00
         21   -1    0    0  501  502  0.00000000000E+00  0.00000000000E+00  0.46745404401E+03  0.46745404401E+03  0.00000000000E+00 0.  1.
         21   -1    0    0  502  503 -0.00000000000E+00 -0.00000000000E+00 -0.73386051821E+02  0.73386051821E+02  0.00000000000E+00 0.  1.
          6    1    1    2  501    0  0.42778721016E+02 -0.26449348258E+02  0.25976479654E+03  0.31612708919E+03  0.17300000000E+03 0.  1.
         -6    1    1    2    0  503 -0.42778721016E+02  0.26449348258E+02  0.13430319565E+03  0.22471300665E+03  0.17300000000E+03 0.  1.
<mgrwt>
<rscale>  2 0.18016267E+03</rscale>
<asrwt>0</asrwt>
<pdfrwt beam="1">  1       21 0.71916005E-01 0.18016267E+03</pdfrwt>
<pdfrwt beam="2">  1       21 0.11290162E-01 0.18016267E+03</pdfrwt>
<totfact> 0.11474287E+05</totfact>
</mgrwt>
</event>
<event>
 4    1  0.4151607E+000  0.2894353E+03  0.7546771E-02  0.1090644E+00
         21   -1    0    0  501  502  0.00000000000E+00  0.00000000000E+00  0.88558501634E+02  0.88558501634E+02  0.00000000000E+00 0.  1.
         21   -1    0    0  502  503 -0.00000000000E+00 -0.00000000000E+00 -0.11977087831E+04  0.11977087831E+04  0.00000000000E+00 0. -1.
          6    1    1    2  501    0  0.21830242564E+03 -0.78662923988E+02 -0.25971962413E+03  0.38887927151E+03  0.17300000000E+03 0.  1.
         -6    1    1    2    0  503 -0.21830242564E+03  0.78662923988E+02 -0.84943065734E+03  0.89738801322E+03  0.17300000000E+03 0. -1.
<mgrwt>
<rscale>  2 0.28943532E+03</rscale>
<asrwt>0</asrwt>
<pdfrwt beam="1">  1       21 0.13624385E-01 0.28943532E+03</pdfrwt>
<pdfrwt beam="2">  1       21 0.18426289E+00 0.28943532E+03</pdfrwt>
<totfact> 0.74307504E+03</totfact>
</mgrwt>
</event>
<event>
 4    1  0.4151607E+000  0.1737911E+03  0.7546771E-02  0.1173951E+00
         21   -1    0    0  503  502  0.00000000000E+00  0.00000000000E+00  0.43250535742E+03  0.43250535742E+03  0.00000000000E+00 0. -1.
         21   -1    0    0  501  503 -0.00000000000E+00 -0.00000000000E+00 -0.76359200427E+02  0.76359200427E+02  0.00000000000E+00 0. -1.
          6    1    1    2  501    0 -0.73168183990E+01 -0.14859671985E+02  0.10369303789E+03  0.20237487934E+03  0.17300000000E+03 0.  1.
         -6    1    1    2    0  502  0.73168183990E+01  0.14859671985E+02  0.25245311911E+03  0.30648967850E+03  0.17300000000E+03 0.  1.
<mgrwt>
<rscale>  2 0.17379110E+03</rscale>
<asrwt>0</asrwt>
<pdfrwt beam="1">  1       21 0.66539285E-01 0.17379110E+03</pdfrwt>
<pdfrwt beam="2">  1       21 0.11747570E-01 0.17379110E+03</pdfrwt>
<totfact> 0.12709906E+05</totfact>
</mgrwt>
</event>
<event>
 4    1  0.4151607E+000  0.2098817E+03  0.7546771E-02  0.1141660E+00
         21   -1    0    0  503  502  0.00000000000E+00  0.00000000000E+00  0.15996733970E+04  0.15996733970E+04  0.00000000000E+00 0. -1.
         21   -1    0    0  501  503 -0.00000000000E+00 -0.00000000000E+00 -0.66493596832E+02  0.66493596832E+02  0.00000000000E+00 0. -1.
          6    1    1    2  501    0  0.98990184581E+02 -0.65744067665E+02  0.12893065413E+03  0.24631981782E+03  0.17300000000E+03 0. -1.
         -6    1    1    2    0  502 -0.98990184581E+02  0.65744067665E+02  0.14042491461E+04  0.14198471761E+04  0.17300000000E+03 0. -1.
<mgrwt>
<rscale>  2 0.20988173E+03</rscale>
<asrwt>0</asrwt>
<pdfrwt beam="1">  1       21 0.24610357E+00 0.20988173E+03</pdfrwt>
<pdfrwt beam="2">  1       21 0.10229785E-01 0.20988173E+03</pdfrwt>
<totfact> 0.53721845E+03</totfact>
</mgrwt>
</event>
<event>
 4    1  0.4151607E+000  0.1938493E+03  0.7546771E-02  0.1155035E+00
         21   -1    0    0  503  502  0.00000000000E+00  0.00000000000E+00  0.57494984883E+03  0.57494984883E+03  0.00000000000E+00 0. -1.
         21   -1    0    0  501  503 -0.00000000000E+00 -0.00000000000E+00 -0.47954723433E+03  0.47954723433E+03  0.00000000000E+00 0. -1.
          6    1    1    2  501    0 -0.49775055960E+02 -0.71909516331E+02 -0.44230213304E+03  0.48291687859E+03  0.17300000000E+03 0. -1.
         -6    1    1    2    0  502  0.49775055960E+02  0.71909516331E+02  0.53770474753E+03  0.57158020457E+03  0.17300000000E+03 0. -1.
<mgrwt>
<rscale>  2 0.19384926E+03</rscale>
<asrwt>0</asrwt>
<pdfrwt beam="1">  1       21 0.88453823E-01 0.19384926E+03</pdfrwt>
<pdfrwt beam="2">  1       21 0.73776497E-01 0.19384926E+03</pdfrwt>
<totfact> 0.18016147E+03</totfact>
</mgrwt>
</event>
<event>
 4    1  0.4151607E+000  0.2061782E+03  0.7546771E-02  0.1144629E+00
         21   -1    0    0  501  502  0.00000000000E+00  0.00000000000E+00  0.20810740535E+03  0.20810740535E+03  0.00000000000E+00 0.  1.
         21   -1    0    0  502  503 -0.00000000000E+00 -0.00000000000E+00 -0.20426683847E+03  0.20426683847E+03  0.00000000000E+00 0. -1.
          6    1    1    2  501    0 -0.93394061035E+02  0.62112695381E+02  0.19850104256E+01  0.20618772473E+03  0.17300000000E+03 0.  1.
         -6    1    1    2    0  503  0.93394061035E+02 -0.62112695381E+02  0.18555564545E+01  0.20618651909E+03  0.17300000000E+03 0. -1.
<mgrwt>
<rscale>  2 0.20617817E+03</rscale>
<asrwt>0</asrwt>
<pdfrwt beam="1">  1       21 0.32016524E-01 0.20617817E+03</pdfrwt>
<pdfrwt beam="2">  1       21 0.31425667E-01 0.20617817E+03</pdfrwt>
<totfact> 0.90803758E+04</totfact>
</mgrwt>
</event>
<event>
 4    1  0.4151607E+000  0.2268687E+03  0.7546771E-02  0.1128863E+00
         21   -1    0    0  503  502  0.00000000000E+00  0.00000000000E+00  0.21943379841E+03  0.21943379841E+03  0.00000000000E+00 0. -1.
         21   -1    0    0  501  503 -0.00000000000E+00 -0.00000000000E+00 -0.24128493003E+03  0.24128493003E+03  0.00000000000E+00 0.  1.
          6    1    1    2  501    0  0.11522937615E+02  0.14631349669E+03 -0.49396079621E+02  0.23218395743E+03  0.17300000000E+03 0.  1.
         -6    1    1    2    0  502 -0.11522937615E+02 -0.14631349669E+03  0.27544947999E+02  0.22853477102E+03  0.17300000000E+03 0. -1.
<mgrwt>
<rscale>  2 0.22686872E+03</rscale>
<asrwt>0</asrwt>
<pdfrwt beam="1">  1       21 0.33759046E-01 0.22686872E+03</pdfrwt>
<pdfrwt beam="2">  1       21 0.37120758E-01 0.22686872E+03</pdfrwt>
<totfact> 0.58260115E+04</totfact>
</mgrwt>
</event>
<event>
 4    1  0.4151607E+000  0.1858140E+03  0.7546771E-02  0.1162292E+00
         21   -1    0    0  501  502  0.00000000000E+00  0.00000000000E+00  0.49327937614E+02  0.49327937614E+02  0.00000000000E+00 0. -1.
         21   -1    0    0  502  503 -0.00000000000E+00 -0.00000000000E+00 -0.78664556274E+03  0.78664556274E+03  0.00000000000E+00 0. -1.
          6    1    1    2  501    0 -0.56635719548E+02  0.37285811038E+02 -0.22989242806E+03  0.29559662534E+03  0.17300000000E+03 0. -1.
         -6    1    1    2    0  503  0.56635719548E+02 -0.37285811038E+02 -0.50742519707E+03  0.54037687501E+03  0.17300000000E+03 0. -1.
<mgrwt>
<rscale>  2 0.18581398E+03</rscale>
<asrwt>0</asrwt>
<pdfrwt beam="1">  1       21 0.75889138E-02 0.18581398E+03</pdfrwt>
<pdfrwt beam="2">  1       21 0.12102239E+00 0.18581398E+03</pdfrwt>
<totfact> 0.68233486E+04</totfact>
</mgrwt>
</event>
<event>
 4    1  0.4151607E+000  0.3625126E+03  0.7546771E-02  0.1057593E+00
         21   -1    0    0  503  502  0.00000000000E+00  0.00000000000E+00  0.54518979939E+03  0.54518979939E+03  0.00000000000E+00 0.  1.
         21   -1    0    0  501  503 -0.00000000000E+00 -0.00000000000E+00 -0.51426340985E+03  0.51426340985E+03  0.00000000000E+00 0. -1.
          6    1    1    2  501    0 -0.18670980961E+03 -0.25811980493E+03 -0.37064924128E+03  0.51845563626E+03  0.17300000000E+03 0. -1.
         -6    1    1    2    0  502  0.18670980961E+03  0.25811980493E+03  0.40157563082E+03  0.54099757298E+03  0.17300000000E+03 0.  1.
<mgrwt>
<rscale>  2 0.36251260E+03</rscale>
<asrwt>0</asrwt>
<pdfrwt beam="1">  1       21 0.83875354E-01 0.36251260E+03</pdfrwt>
<pdfrwt beam="2">  1       21 0.79117448E-01 0.36251260E+03</pdfrwt>
<totfact> 0.15530435E+03</totfact>
</mgrwt>
</event>
<event>
 4    1  0.4151607E+000  0.2000035E+03  0.7546771E-02  0.1149736E+00
         21   -1    0    0  503  502  0.00000000000E+00  0.00000000000E+00  0.95247307835E+02  0.95247307835E+02  0.00000000000E+00 0.  1.
         21   -1    0    0  501  503 -0.00000000000E+00 -0.00000000000E+00 -0.42007291545E+03  0.42007291545E+03  0.00000000000E+00 0.  1.
          6    1    1    2  501    0 -0.10010721293E+03 -0.71381875056E+01 -0.15846211982E+03  0.25516984779E+03  0.17300000000E+03 0.  1.
         -6    1    1    2    0  502  0.10010721293E+03  0.71381875056E+01 -0.16636348780E+03  0.26015037550E+03  0.17300000000E+03 0.  1.
<mgrwt>
<rscale>  2 0.20000352E+03</rscale>
<asrwt>0</asrwt>
<pdfrwt beam="1">  1       21 0.14653432E-01 0.20000352E+03</pdfrwt>
<pdfrwt beam="2">  1       21 0.64626602E-01 0.20000352E+03</pdfrwt>
<totfact> 0.90056715E+04</totfact>
</mgrwt>
</event>
<event>
 4    1  0.4151607E+000  0.2339624E+03  0.7546771E-02  0.1123882E+00
         21   -1    0    0  501  502  0.00000000000E+00  0.00000000000E+00  0.48814650684E+02  0.48814650684E+02  0.00000000000E+00 0.  1.
         21   -1    0    0  502  503 -0.00000000000E+00 -0.00000000000E+00 -0.23016795998E+04  0.23016795998E+04  0.00000000000E+00 0.  1.
          6    1    1    2  501    0  0.11144559302E+03  0.11130712495E+03 -0.28482791085E+03  0.36859915229E+03  0.17300000000E+03 0.  1.
         -6    1    1    2    0  503 -0.11144559302E+03 -0.11130712495E+03 -0.19680370382E+04  0.19818950982E+04  0.17300000000E+03 0.  1.
<mgrwt>
<rscale>  2 0.23396238E+03</rscale>
<asrwt>0</asrwt>
<pdfrwt beam="1">  1       21 0.75099458E-02 0.23396238E+03</pdfrwt>
<pdfrwt beam="2">  1       21 0.35410458E+00 0.23396238E+03</pdfrwt>
<totfact> 0.21019337E+03</totfact>
</mgrwt>
</event>
<event>
 4    1  0.4151607E+000  0.2081781E+03  0.7546771E-02  0.1143017E+00
         21   -1    0    0  501  502  0.00000000000E+00  0.00000000000E+00  0.11479227510E+04  0.11479227510E+04  0.00000000000E+00 0. -1.
         21   -1    0    0  502  503 -0.00000000000E+00 -0.00000000000E+00 -0.72798227557E+02  0.72798227557E+02  0.00000000000E+00 0.  1.
          6    1    1    2  501    0  0.12454846291E+02  0.11512600286E+03  0.96104650477E+03  0.98333539754E+03  0.17300000000E+03 0.  1.
         -6    1    1    2    0  503 -0.12454846291E+02 -0.11512600286E+03  0.11407801869E+03  0.23738558103E+03  0.17300000000E+03 0.  1.
<mgrwt>
<rscale>  2 0.20817810E+03</rscale>
<asrwt>0</asrwt>
<pdfrwt beam="1">  1       21 0.17660349E+00 0.20817810E+03</pdfrwt>
<pdfrwt beam="2">  1       21 0.11199728E-01 0.20817810E+03</pdfrwt>
<totfact> 0.12591927E+04</totfact>
</mgrwt>
</event>
<event>
 4    1  0.4151607E+000  0.3179603E+03  0.7546771E-02  0.1076592E+00
         21   -1    0    0  501  502  0.00000000000E+00  0.00000000000E+00  0.11145959965E+03  0.11145959965E+03  0.00000000000E+00 0.  1.
         21   -1    0    0  502  503 -0.00000000000E+00 -0.00000000000E+00 -0.17680501403E+04  0.17680501403E+04  0.00000000000E+00 0.  1.
          6    1    1    2  501    0  0.15129526595E+03  0.21972599835E+03 -0.17249680431E+03  0.36173736239E+03  0.17300000000E+03 0.  1.
         -6    1    1    2    0  503 -0.15129526595E+03 -0.21972599835E+03 -0.14840937364E+04  0.15177723776E+04  0.17300000000E+03 0.  1.
<mgrwt>
<rscale>  2 0.31796033E+03</rscale>
<asrwt>0</asrwt>
<pdfrwt beam="1">  1       21 0.17147632E-01 0.31796033E+03</pdfrwt>
<pdfrwt beam="2">  1       21 0.27200769E+00 0.31796033E+03</pdfrwt>
<totfact> 0.13479323E+03</totfact>
</mgrwt>
</event>
<event>
 4    1  0.4151607E+000  0.1771797E+03  0.7546771E-02  0.1170561E+00
         21   -1    0    0  501  502  0.00000000000E+00  0.00000000000E+00  0.95209538931E+02  0.95209538931E+02  0.00000000000E+00 0.  1.
         21   -1    0    0  502  503 -0.00000000000E+00 -0.00000000000E+00 -0.34303968035E+03  0.34303968035E+03  0.00000000000E+00 0.  1.
          6    1    1    2  501    0  0.38499286684E+00 -0.38255902845E+02 -0.80739684852E+02  0.19470890846E+03  0.17300000000E+03 0.  1.
         -6    1    1    2    0  503 -0.38499286684E+00  0.38255902845E+02 -0.16709045657E+03  0.24354031083E+03  0.17300000000E+03 0.  1.
<mgrwt>
<rscale>  2 0.17717975E+03</rscale>
<asrwt>0</asrwt>
<pdfrwt beam="1">  1       21 0.14647621E-01 0.17717975E+03</pdfrwt>
<pdfrwt beam="2">  1       21 0.52775335E-01 0.17717975E+03</pdfrwt>
<totfact> 0.14012091E+05</totfact>
</mgrwt>
</event>
<event>
 4    1  0.4151607E+000  0.2256770E+03  0.7546771E-02  0.1129720E+00
         21   -1    0    0  501  502  0.00000000000E+00  0.00000000000E+00  0.35884589035E+03  0.35884589035E+03  0.00000000000E+00 0. -1.
         21   -1    0    0  502  503 -0.00000000000E+00 -0.00000000000E+00 -0.14889453741E+03  0.14889453741E+03  0.00000000000E+00 0.  1.
          6    1    1    2  501    0  0.97521758327E+01 -0.14458910560E+03  0.15989120865E+03  0.27657786064E+03  0.17300000000E+03 0. -1.
         -6    1    1    2    0  503 -0.97521758327E+01  0.14458910560E+03  0.50060144286E+02  0.23116256712E+03  0.17300000000E+03 0.  1.
<mgrwt>
<rscale>  2 0.22567701E+03</rscale>
<asrwt>0</asrwt>
<pdfrwt beam="1">  1       21 0.55207060E-01 0.22567701E+03</pdfrwt>
<pdfrwt beam="2">  1       21 0.22906852E-01 0.22567701E+03</pdfrwt>
<totfact> 0.54510867E+04</totfact>
</mgrwt>
</event>
<event>
 4    1  0.4151607E+000  0.2305293E+03  0.7546771E-02  0.1126268E+00
         21   -1    0    0  501  502  0.00000000000E+00  0.00000000000E+00  0.59134736328E+03  0.59134736328E+03  0.00000000000E+00 0. -1.
         21   -1    0    0  502  503 -0.00000000000E+00 -0.00000000000E+00 -0.17780170530E+03  0.17780170530E+03  0.00000000000E+00 0.  1.
          6    1    1    2  501    0  0.11954613917E+03  0.94464237761E+02  0.47722338698E+03  0.52998672879E+03  0.17300000000E+03 0. -1.
         -6    1    1    2    0  503 -0.11954613917E+03 -0.94464237761E+02 -0.63677729001E+02  0.23916233980E+03  0.17300000000E+03 0.  1.
<mgrwt>
<rscale>  2 0.23052933E+03</rscale>
<asrwt>0</asrwt>
<pdfrwt beam="1">  1       21 0.90976516E-01 0.23052933E+03</pdfrwt>
<pdfrwt beam="2">  1       21 0.27354109E-01 0.23052933E+03</pdfrwt>
<totfact> 0.12749228E+04</totfact>
</mgrwt>
</event>
<event>
 4    1  0.4151607E+000  0.2953868E+03  0.7546771E-02  0.1087570E+00
         21   -1    0    0  501  502  0.00000000000E+00  0.00000000000E+00  0.20057689177E+03  0.20057689177E+03  0.00000000000E+00 0.  1.
         21   -1    0    0  502  503 -0.00000000000E+00 -0.00000000000E+00 -0.53280846225E+03  0.53280846225E+03  0.00000000000E+00 0. -1.
          6    1    1    2  501    0  0.19943692158E+03 -0.13247360503E+03 -0.90149848433E+01  0.29552429963E+03  0.17300000000E+03 0.  1.
         -6    1    1    2    0  503 -0.19943692158E+03  0.13247360503E+03 -0.32321658564E+03  0.43786105439E+03  0.17300000000E+03 0. -1.
<mgrwt>
<rscale>  2 0.29538677E+03</rscale>
<asrwt>0</asrwt>
<pdfrwt beam="1">  1       21 0.30857984E-01 0.29538677E+03</pdfrwt>
<pdfrwt beam="2">  1       21 0.81970531E-01 0.29538677E+03</pdfrwt>
<totfact> 0.12404229E+04</totfact>
</mgrwt>
</event>
<event>
 4    1  0.4151607E+000  0.1741265E+03  0.7546771E-02  0.1173612E+00
         21   -1    0    0  501  502  0.00000000000E+00  0.00000000000E+00  0.79106153970E+02  0.79106153970E+02  0.00000000000E+00 0.  1.
         21   -1    0    0  502  503 -0.00000000000E+00 -0.00000000000E+00 -0.76147162596E+03  0.76147162596E+03  0.00000000000E+00 0.  1.
          6    1    1    2  501    0  0.99454242529E+01 -0.17091272767E+02 -0.44989299231E+02  0.17984454430E+03  0.17300000000E+03 0.  1.
         -6    1    1    2    0  503 -0.99454242529E+01  0.17091272767E+02 -0.63737617275E+03  0.66073323563E+03  0.17300000000E+03 0.  1.
<mgrwt>
<rscale>  2 0.17412646E+03</rscale>
<asrwt>0</asrwt>
<pdfrwt beam="1">  1       21 0.12170177E-01 0.17412646E+03</pdfrwt>
<pdfrwt beam="2">  1       21 0.11714948E+00 0.17412646E+03</pdfrwt>
<totfact> 0.32409330E+04</totfact>
</mgrwt>
</event>
<event>
 4    1  0.4151607E+000  0.2711372E+03  0.7546771E-02  0.1100630E+00
         21   -1    0    0  501  502  0.00000000000E+00  0.00000000000E+00  0.58393093287E+03  0.58393093287E+03  0.00000000000E+00 0.  1.
         21   -1    0    0  502  503 -0.00000000000E+00 -0.00000000000E+00 -0.12861274901E+03  0.12861274901E+03  0.00000000000E+00 0. -1.
          6    1    1    2  501    0  0.74083226158E+02 -0.19518728196E+03  0.27942579516E+03  0.38935096563E+03  0.17300000000E+03 0.  1.
         -6    1    1    2    0  503 -0.74083226158E+02  0.19518728196E+03  0.17589238870E+03  0.32319271625E+03  0.17300000000E+03 0. -1.
<mgrwt>
<rscale>  2 0.27113723E+03</rscale>
<asrwt>0</asrwt>
<pdfrwt beam="1">  1       21 0.89835527E-01 0.27113723E+03</pdfrwt>
<pdfrwt beam="2">  1       21 0.19786577E-01 0.27113723E+03</pdfrwt>
<totfact> 0.23860609E+04</totfact>
</mgrwt>
</event>
<event>
 4    1  0.4151607E+000  0.2153700E+03  0.7546771E-02  0.1137383E+00
         21   -1    0    0  503  502  0.00000000000E+00  0.00000000000E+00  0.30507543871E+03  0.30507543871E+03  0.00000000000E+00 0. -1.
         21   -1    0    0  501  503 -0.00000000000E+00 -0.00000000000E+00 -0.15479258389E+03  0.15479258389E+03  0.00000000000E+00 0. -1.
          6    1    1    2  501    0 -0.56597798676E+02 -0.11511696394E+03  0.44489734083E+02  0.21991717223E+03  0.17300000000E+03 0. -1.
         -6    1    1    2    0  502  0.56597798676E+02  0.11511696394E+03  0.10579312073E+03  0.23995085038E+03  0.17300000000E+03 0. -1.
<mgrwt>
<rscale>  2 0.21536998E+03</rscale>
<asrwt>0</asrwt>
<pdfrwt beam="1">  1       21 0.46934683E-01 0.21536998E+03</pdfrwt>
<pdfrwt beam="2">  1       21 0.23814244E-01 0.21536998E+03</pdfrwt>
<totfact> 0.71482758E+04</totfact>
</mgrwt>
</event>
<event>
 4    1  0.4151607E+000  0.3077609E+03  0.7546771E-02  0.1081424E+00
         21   -1    0    0  503  502  0.00000000000E+00  0.00000000000E+00  0.51434248163E+03  0.51434248163E+03  0.00000000000E+00 0.  1.
         21   -1    0    0  501  503 -0.00000000000E+00 -0.00000000000E+00 -0.38977394539E+03  0.38977394539E+03  0.00000000000E+00 0. -1.
          6    1    1    2  501    0  0.16533620482E+03 -0.19352450425E+03 -0.26605552462E+03  0.40681978387E+03  0.17300000000E+03 0. -1.
         -6    1    1    2    0  502 -0.16533620482E+03  0.19352450425E+03  0.39062406086E+03  0.49729664315E+03  0.17300000000E+03 0.  1.
<mgrwt>
<rscale>  2 0.30776094E+03</rscale>
<asrwt>0</asrwt>
<pdfrwt beam="1">  1       21 0.79129613E-01 0.30776094E+03</pdfrwt>
<pdfrwt beam="2">  1       21 0.59965222E-01 0.30776094E+03</pdfrwt>
<totfact> 0.33883045E+03</totfact>
</mgrwt>
</event>
<event>
 4    1  0.4151607E+000  0.1937744E+03  0.7546771E-02  0.1155100E+00
         21   -1    0    0  501  502  0.00000000000E+00  0.00000000000E+00  0.12014570609E+03  0.12014570609E+03  0.00000000000E+00 0. -1.
         21   -1    0    0  502  503 -0.00000000000E+00 -0.00000000000E+00 -0.51654861074E+03  0.51654861074E+03  0.00000000000E+00 0. -1.
          6    1    1    2  501    0  0.77514867514E+02  0.40136955054E+02  0.18702442781E+01  0.19378345559E+03  0.17300000000E+03 0. -1.
         -6    1    1    2    0  503 -0.77514867514E+02 -0.40136955054E+02 -0.39827314893E+03  0.44291086124E+03  0.17300000000E+03 0. -1.
<mgrwt>
<rscale>  2 0.19377443E+03</rscale>
<asrwt>0</asrwt>
<pdfrwt beam="1">  1       21 0.18483955E-01 0.19377443E+03</pdfrwt>
<pdfrwt beam="2">  1       21 0.79469017E-01 0.19377443E+03</pdfrwt>
<totfact> 0.37300598E+04</totfact>
</mgrwt>
</event>
<event>
 4    1  0.4151607E+000  0.2525955E+03  0.7546771E-02  0.1111675E+00
         21   -1    0    0  501  502  0.00000000000E+00  0.00000000000E+00  0.31769382053E+03  0.31769382053E+03  0.00000000000E+00 0. -1.
         21   -1    0    0  502  503 -0.00000000000E+00 -0.00000000000E+00 -0.30137662610E+03  0.30137662610E+03  0.00000000000E+00 0.  1.
          6    1    1    2  501    0 -0.77765872238E+02 -0.16681713907E+03  0.18694117054E+03  0.31424749802E+03  0.17300000000E+03 0. -1.
         -6    1    1    2    0  503  0.77765872238E+02  0.16681713907E+03 -0.17062397611E+03  0.30482294861E+03  0.17300000000E+03 0.  1.
<mgrwt>
<rscale>  2 0.25259550E+03</rscale>
<asrwt>0</asrwt>
<pdfrwt beam="1">  1       21 0.48875972E-01 0.25259550E+03</pdfrwt>
<pdfrwt beam="2">  1       21 0.46365635E-01 0.25259550E+03</pdfrwt>
<totfact> 0.17215844E+04</totfact>
</mgrwt>
</event>
<event>
 4    1  0.4151607E+000  0.1915325E+03  0.7546771E-02  0.1157086E+00
         21   -1    0    0  501  502  0.00000000000E+00  0.00000000000E+00  0.52945272037E+02  0.52945272037E+02  0.00000000000E+00 0. -1.
         21   -1    0    0  502  503 -0.00000000000E+00 -0.00000000000E+00 -0.75228508204E+03  0.75228508204E+03  0.00000000000E+00 0.  1.
          6    1    1    2  501    0  0.69477818218E+02  0.43915174085E+02 -0.23653114052E+03  0.30435454683E+03  0.17300000000E+03 0.  1.
         -6    1    1    2    0  503 -0.69477818218E+02 -0.43915174085E+02 -0.46280866949E+03  0.50087580725E+03  0.17300000000E+03 0.  1.
<mgrwt>
<rscale>  2 0.19153253E+03</rscale>
<asrwt>0</asrwt>
<pdfrwt beam="1">  1       21 0.81454274E-02 0.19153253E+03</pdfrwt>
<pdfrwt beam="2">  1       21 0.11573615E+00 0.19153253E+03</pdfrwt>
<totfact> 0.67164373E+04</totfact>
</mgrwt>
</event>
<event>
 4    1  0.4151607E+000  0.1818737E+03  0.7546771E-02  0.1166002E+00
         21   -1    0    0  501  502  0.00000000000E+00  0.00000000000E+00  0.92582201589E+02  0.92582201589E+02  0.00000000000E+00 0. -1.
         21   -1    0    0  502  503 -0.00000000000E+00 -0.00000000000E+00 -0.65249212440E+03  0.65249212440E+03  0.00000000000E+00 0. -1.
          6    1    1    2  501    0 -0.35002038875E+02 -0.43862211021E+02 -0.29374654262E+02  0.18423057996E+03  0.17300000000E+03 0. -1.
         -6    1    1    2    0  503  0.35002038875E+02  0.43862211021E+02 -0.53053526855E+03  0.56084374603E+03  0.17300000000E+03 0. -1.
<mgrwt>
<rscale>  2 0.18187368E+03</rscale>
<asrwt>0</asrwt>
<pdfrwt beam="1">  1       21 0.14243415E-01 0.18187368E+03</pdfrwt>
<pdfrwt beam="2">  1       21 0.10038341E+00 0.18187368E+03</pdfrwt>
<totfact> 0.35266407E+04</totfact>
</mgrwt>
</event>
<event>
 4    1  0.4151607E+000  0.2159341E+03  0.7546771E-02  0.1136951E+00
         21   -1    0    0  501  502  0.00000000000E+00  0.00000000000E+00  0.54194307108E+03  0.54194307108E+03  0.00000000000E+00 0. -1.
         21   -1    0    0  502  503 -0.00000000000E+00 -0.00000000000E+00 -0.17392006679E+03  0.17392006679E+03  0.00000000000E+00 0. -1.
          6    1    1    2  501    0 -0.11527455770E+03  0.58397954614E+02  0.43844599496E+03  0.48873554736E+03  0.17300000000E+03 0. -1.
         -6    1    1    2    0  503  0.11527455770E+03 -0.58397954614E+02 -0.70422990679E+02  0.22712759051E+03  0.17300000000E+03 0. -1.
<mgrwt>
<rscale>  2 0.21593412E+03</rscale>
<asrwt>0</asrwt>
<pdfrwt beam="1">  1       21 0.83375856E-01 0.21593412E+03</pdfrwt>
<pdfrwt beam="2">  1       21 0.26756934E-01 0.21593412E+03</pdfrwt>
<totfact> 0.16414083E+04</totfact>
</mgrwt>
</event>
<event>
 4    1  0.4151607E+000  0.2233433E+03  0.7546771E-02  0.1131415E+00
         21   -1    0    0  503  502  0.00000000000E+00  0.00000000000E+00  0.20932887785E+03  0.20932887785E+03  0.00000000000E+00 0. -1.
         21   -1    0    0  501  503 -0.00000000000E+00 -0.00000000000E+00 -0.25243974766E+03  0.25243974766E+03  0.00000000000E+00 0. -1.
          6    1    1    2  501    0 -0.83221992483E+01 -0.14101045709E+03 -0.76206638830E+02  0.23598656701E+03  0.17300000000E+03 0.  1.
         -6    1    1    2    0  502  0.83221992483E+01  0.14101045709E+03  0.33095769021E+02  0.22578205849E+03  0.17300000000E+03 0.  1.
<mgrwt>
<rscale>  2 0.22334325E+03</rscale>
<asrwt>0</asrwt>
<pdfrwt beam="1">  1       21 0.32204443E-01 0.22334325E+03</pdfrwt>
<pdfrwt beam="2">  1       21 0.38836884E-01 0.22334325E+03</pdfrwt>
<totfact> 0.58479871E+04</totfact>
</mgrwt>
</event>
<event>
 4    1  0.4151607E+000  0.2437053E+03  0.7546771E-02  0.1117349E+00
         21   -1    0    0  503  502  0.00000000000E+00  0.00000000000E+00  0.16495926060E+03  0.16495926060E+03  0.00000000000E+00 0. -1.
         21   -1    0    0  501  503 -0.00000000000E+00 -0.00000000000E+00 -0.56862420324E+03  0.56862420324E+03  0.00000000000E+00 0. -1.
          6    1    1    2  501    0  0.52598924849E+02 -0.16339100272E+03 -0.42398203432E+03  0.48903275155E+03  0.17300000000E+03 0. -1.
         -6    1    1    2    0  502 -0.52598924849E+02  0.16339100272E+03  0.20317091678E+02  0.24455071228E+03  0.17300000000E+03 0. -1.
<mgrwt>
<rscale>  2 0.24370529E+03</rscale>
<asrwt>0</asrwt>
<pdfrwt beam="1">  1       21 0.25378348E-01 0.24370529E+03</pdfrwt>
<pdfrwt beam="2">  1       21 0.87480647E-01 0.24370529E+03</pdfrwt>
<totfact> 0.16021400E+04</totfact>
</mgrwt>
</event>
<event>
 4    1  0.4151607E+000  0.2077262E+03  0.7546771E-02  0.1143379E+00
         21   -1    0    0  501  502  0.00000000000E+00  0.00000000000E+00  0.12764101088E+03  0.12764101088E+03  0.00000000000E+00 0. -1.
         21   -1    0    0  502  503 -0.00000000000E+00 -0.00000000000E+00 -0.11745976839E+04  0.11745976839E+04  0.00000000000E+00 0.  1.
          6    1    1    2  501    0 -0.69234029632E+02 -0.91803076124E+02  0.26010810957E+02  0.20934831724E+03  0.17300000000E+03 0. -1.
         -6    1    1    2    0  503  0.69234029632E+02  0.91803076124E+02 -0.10729674840E+04  0.10928903775E+04  0.17300000000E+03 0.  1.
<mgrwt>
<rscale>  2 0.20772616E+03</rscale>
<asrwt>0</asrwt>
<pdfrwt beam="1">  1       21 0.19637079E-01 0.20772616E+03</pdfrwt>
<pdfrwt beam="2">  1       21 0.18070733E+00 0.20772616E+03</pdfrwt>
<totfact> 0.42407673E+03</totfact>
</mgrwt>
</event>
<event>
 4    1  0.4151607E+000  0.1769571E+03  0.7546771E-02  0.1170781E+00
         21   -1    0    0  501  502  0.00000000000E+00  0.00000000000E+00  0.92882523148E+03  0.92882523148E+03  0.00000000000E+00 0. -1.
         21   -1    0    0  502  503 -0.00000000000E+00 -0.00000000000E+00 -0.75798644185E+02  0.75798644185E+02  0.00000000000E+00 0. -1.
          6    1    1    2  501    0 -0.35281884700E+02 -0.11832479063E+02  0.80080302769E+03  0.82012152032E+03  0.17300000000E+03 0. -1.
         -6    1    1    2    0  503  0.35281884700E+02  0.11832479063E+02  0.52223559611E+02  0.18450235534E+03  0.17300000000E+03 0. -1.
<mgrwt>
<rscale>  2 0.17695711E+03</rscale>
<asrwt>0</asrwt>
<pdfrwt beam="1">  1       21 0.14289618E+00 0.17695711E+03</pdfrwt>
<pdfrwt beam="2">  1       21 0.11661331E-01 0.17695711E+03</pdfrwt>
<totfact> 0.21177944E+04</totfact>
</mgrwt>
</event>
<event>
 4    1  0.4151607E+000  0.2411780E+03  0.7546771E-02  0.1119011E+00
         21   -1    0    0  503  502  0.00000000000E+00  0.00000000000E+00  0.47111483354E+03  0.47111483354E+03  0.00000000000E+00 0. -1.
         21   -1    0    0  501  503 -0.00000000000E+00 -0.00000000000E+00 -0.13907993103E+03  0.13907993103E+03  0.00000000000E+00 0.  1.
          6    1    1    2  501    0 -0.16688278365E+03 -0.19696212489E+02  0.63792188162E+02  0.24947193737E+03  0.17300000000E+03 0.  1.
         -6    1    1    2    0  502  0.16688278365E+03  0.19696212489E+02  0.26824271435E+03  0.36072282720E+03  0.17300000000E+03 0.  1.
<mgrwt>
<rscale>  2 0.24117795E+03</rscale>
<asrwt>0</asrwt>
<pdfrwt beam="1">  1       21 0.72479205E-01 0.24117795E+03</pdfrwt>
<pdfrwt beam="2">  1       21 0.21396913E-01 0.24117795E+03</pdfrwt>
<totfact> 0.34055697E+04</totfact>
</mgrwt>
</event>
<event>
 4    1  0.4151607E+000  0.2832511E+03  0.7546771E-02  0.1093926E+00
         21   -1    0    0  501  502  0.00000000000E+00  0.00000000000E+00  0.37564454713E+03  0.37564454713E+03  0.00000000000E+00 0.  1.
         21   -1    0    0  502  503 -0.00000000000E+00 -0.00000000000E+00 -0.21592355323E+03  0.21592355323E+03  0.00000000000E+00 0.  1.
          6    1    1    2  501    0  0.18114007170E+03  0.13225153606E+03  0.11065742875E+03  0.30409909718E+03  0.17300000000E+03 0.  1.
         -6    1    1    2    0  503 -0.18114007170E+03 -0.13225153606E+03  0.49063565145E+02  0.28746900318E+03  0.17300000000E+03 0.  1.
<mgrwt>
<rscale>  2 0.28325112E+03</rscale>
<asrwt>0</asrwt>
<pdfrwt beam="1">  1       21 0.57791469E-01 0.28325112E+03</pdfrwt>
<pdfrwt beam="2">  1       21 0.33219008E-01 0.28325112E+03</pdfrwt>
<totfact> 0.23428664E+04</totfact>
</mgrwt>
</event>
<event>
 4    1  0.4151607E+000  0.2200993E+03  0.7546771E-02  0.1133809E+00
         21   -1    0    0  501  502  0.00000000000E+00  0.00000000000E+00  0.13045221228E+04  0.13045221228E+04  0.00000000000E+00 0. -1.
         21   -1    0    0  502  503 -0.00000000000E+00 -0.00000000000E+00 -0.43605131579E+02  0.43605131579E+02  0.00000000000E+00 0.  1.
          6    1    1    2  501    0  0.11659668890E+03 -0.70142240100E+02  0.89010418615E+03  0.91691285513E+03  0.17300000000E+03 0. -1.
         -6    1    1    2    0  503 -0.11659668890E+03  0.70142240100E+02  0.37081280504E+03  0.43121439921E+03  0.17300000000E+03 0. -1.
<mgrwt>
<rscale>  2 0.22009935E+03</rscale>
<asrwt>0</asrwt>
<pdfrwt beam="1">  1       21 0.20069568E+00 0.22009935E+03</pdfrwt>
<pdfrwt beam="2">  1       21 0.67084828E-02 0.22009935E+03</pdfrwt>
<totfact> 0.21205369E+04</totfact>
</mgrwt>
</event>
<event>
 4    1  0.4151607E+000  0.2625744E+03  0.7546771E-02  0.1105606E+00
         21   -1    0    0  501  502  0.00000000000E+00  0.00000000000E+00  0.48822200490E+03  0.48822200490E+03  0.00000000000E+00 0.  1.
         21   -1    0    0  502  503 -0.00000000000E+00 -0.00000000000E+00 -0.14121841067E+03  0.14121841067E+03  0.00000000000E+00 0.  1.
          6    1    1    2  501    0 -0.10704763433E+03  0.16600334883E+03  0.17255214736E+03  0.31419667630E+03  0.17300000000E+03 0.  1.
         -6    1    1    2    0  503  0.10704763433E+03 -0.16600334883E+03  0.17445144688E+03  0.31524373928E+03  0.17300000000E+03 0.  1.
<mgrwt>
<rscale>  2 0.26257439E+03</rscale>
<asrwt>0</asrwt>
<pdfrwt beam="1">  1       21 0.75111077E-01 0.26257439E+03</pdfrwt>
<pdfrwt beam="2">  1       21 0.21725910E-01 0.26257439E+03</pdfrwt>
<totfact> 0.30258677E+04</totfact>
</mgrwt>
</event>
<event>
 4    1  0.4151607E+000  0.1878344E+03  0.7546771E-02  0.1160429E+00
         21   -1    0    0  501  502  0.00000000000E+00  0.00000000000E+00  0.23402140367E+04  0.23402140367E+04  0.00000000000E+00 0.  1.
         21   -1    0    0  502  503 -0.00000000000E+00 -0.00000000000E+00 -0.70449508978E+02  0.70449508978E+02  0.00000000000E+00 0.  1.
          6    1    1    2  501    0  0.60534784621E+02 -0.41088744761E+02  0.22034880111E+04  0.22114794053E+04  0.17300000000E+03 0.  1.
         -6    1    1    2    0  503 -0.60534784621E+02  0.41088744761E+02  0.66276516549E+02  0.19918414028E+03  0.17300000000E+03 0.  1.
<mgrwt>
<rscale>  2 0.18783436E+03</rscale>
<asrwt>0</asrwt>
<pdfrwt beam="1">  1       21 0.36003287E+00 0.18783436E+03</pdfrwt>
<pdfrwt beam="2">  1       21 0.10838388E-01 0.18783436E+03</pdfrwt>
<totfact> 0.10807097E+03</totfact>
</mgrwt>
</event>
<event>
 4    1  0.4151607E+000  0.1744355E+03  0.7546771E-02  0.1173300E+00
         21   -1    0    0  503  502  0.00000000000E+00  0.00000000000E+00  0.33286853470E+02  0.33286853470E+02  0.00000000000E+00 0. -1.
         21   -1    0    0  501  503 -0.00000000000E+00 -0.00000000000E+00 -0.95010068344E+03  0.95010068344E+03  0.00000000000E+00 0. -1.
          6    1    1    2  501    0 -0.11721510368E+02  0.19009545753E+02 -0.55410892630E+03  0.58091691217E+03  0.17300000000E+03 0.  1.
         -6    1    1    2    0  502  0.11721510368E+02 -0.19009545753E+02 -0.36270490366E+03  0.40247062474E+03  0.17300000000E+03 0.  1.
<mgrwt>
<rscale>  2 0.17443554E+03</rscale>
<asrwt>0</asrwt>
<pdfrwt beam="1">  1       21 0.51210546E-02 0.17443554E+03</pdfrwt>
<pdfrwt beam="2">  1       21 0.14616933E+00 0.17443554E+03</pdfrwt>
<totfact> 0.83377509E+04</totfact>
</mgrwt>
</event>
<event>
 4    1  0.4151607E+000  0.2918840E+03  0.7546771E-02  0.1089370E+00
         21   -1    0    0  501  502  0.00000000000E+00  0.00000000000E+00  0.29215031411E+04  0.29215031411E+04  0.00000000000E+00 0. -1.
         21   -1    0    0  502  503 -0.00000000000E+00 -0.00000000000E+00 -0.39340868559E+02  0.39340868559E+02  0.00000000000E+00 0.  1.
          6    1    1    2  501    0  0.17531425049E+03  0.15662761265E+03  0.21941202626E+04  0.22134498011E+04  0.17300000000E+03 0. -1.
         -6    1    1    2    0  503 -0.17531425049E+03 -0.15662761265E+03  0.68804200998E+03  0.74739420854E+03  0.17300000000E+03 0.  1.
<mgrwt>
<rscale>  2 0.29188404E+03</rscale>
<asrwt>0</asrwt>
<pdfrwt beam="1">  1       21 0.44946185E+00 0.29188404E+03</pdfrwt>
<pdfrwt beam="2">  1       21 0.60524436E-02 0.29188404E+03</pdfrwt>
<totfact> 0.71650751E+02</totfact>
</mgrwt>
</event>
<event>
 4    1  0.4151607E+000  0.2530262E+03  0.7546771E-02  0.1111407E+00
         21   -1    0    0  503  502  0.00000000000E+00  0.00000000000E+00  0.22366987158E+03  0.22366987158E+03  0.00000000000E+00 0.  1.
         21   -1    0    0  501  503 -0.00000000000E+00 -0.00000000000E+00 -0.50532739920E+03  0.50532739920E+03  0.00000000000E+00 0. -1.
          6    1    1    2  501    0  0.18397061730E+03  0.15749579033E+02 -0.38083511434E+03  0.45722819421E+03  0.17300000000E+03 0. -1.
         -6    1    1    2    0  502 -0.18397061730E+03 -0.15749579033E+02  0.99177586724E+02  0.27176907657E+03  0.17300000000E+03 0.  1.
<mgrwt>
<rscale>  2 0.25302616E+03</rscale>
<asrwt>0</asrwt>
<pdfrwt beam="1">  1       21 0.34410750E-01 0.25302616E+03</pdfrwt>
<pdfrwt beam="2">  1       21 0.77742676E-01 0.25302616E+03</pdfrwt>
<totfact> 0.11509797E+04</totfact>
</mgrwt>
</event>
<event>
 4    1  0.4151607E+000  0.2280293E+03  0.7546771E-02  0.1128035E+00
         21   -1    0    0  503  502  0.00000000000E+00  0.00000000000E+00  0.87333252423E+02  0.87333252423E+02  0.00000000000E+00 0.  1.
         21   -1    0    0  501  503 -0.00000000000E+00 -0.00000000000E+00 -0.67329984860E+03  0.67329984860E+03  0.00000000000E+00 0.  1.
          6    1    1    2  501    0  0.79859979033E+02 -0.12526265914E+03 -0.42235431497E+03  0.47997970519E+03  0.17300000000E+03 0.  1.
         -6    1    1    2    0  502 -0.79859979033E+02  0.12526265914E+03 -0.16361228121E+03  0.28065339582E+03  0.17300000000E+03 0.  1.
<mgrwt>
<rscale>  2 0.22802927E+03</rscale>
<asrwt>0</asrwt>
<pdfrwt beam="1">  1       21 0.13435886E-01 0.22802927E+03</pdfrwt>
<pdfrwt beam="2">  1       21 0.10358459E+00 0.22802927E+03</pdfrwt>
<totfact> 0.35478399E+04</totfact>
</mgrwt>
</event>
<event>
 4    1  0.4151607E+000  0.1848976E+03  0.7546771E-02  0.1163146E+00
         21   -1    0    0  501  502  0.00000000000E+00  0.00000000000E+00  0.12579539635E+04  0.12579539635E+04  0.00000000000E+00 0.  1.
         21   -1    0    0  502  503 -0.00000000000E+00 -0.00000000000E+00 -0.76088427630E+02  0.76088427630E+02  0.00000000000E+00 0.  1.
          6    1    1    2  501    0 -0.43125077900E+01 -0.65111680120E+02  0.11257267475E+04  0.11408101677E+04  0.17300000000E+03 0.  1.
         -6    1    1    2    0  503  0.43125077900E+01  0.65111680120E+02  0.56138788318E+02  0.19323222341E+03  0.17300000000E+03 0.  1.
<mgrwt>
<rscale>  2 0.18489762E+03</rscale>
<asrwt>0</asrwt>
<pdfrwt beam="1">  1       21 0.19353136E+00 0.18489762E+03</pdfrwt>
<pdfrwt beam="2">  1       21 0.11705913E-01 0.18489762E+03</pdfrwt>
<totfact> 0.91306298E+03</totfact>
</mgrwt>
</event>
<event>
 4    1  0.4151607E+000  0.2367158E+03  0.7546771E-02  0.1122000E+00
         21   -1    0    0  503  502  0.00000000000E+00  0.00000000000E+00  0.71004843590E+02  0.71004843590E+02  0.00000000000E+00 0.  1.
         21   -1    0    0  501  503 -0.00000000000E+00 -0.00000000000E+00 -0.90993703733E+03  0.90993703733E+03  0.00000000000E+00 0.  1.
          6    1    1    2  501    0 -0.16156843802E+03  0.99311983202E+00 -0.59815420111E+03  0.64329059900E+03  0.17300000000E+03 0.  1.
         -6    1    1    2    0  502  0.16156843802E+03 -0.99311983202E+00 -0.24077799263E+03  0.33765128193E+03  0.17300000000E+03 0.  1.
<mgrwt>
<rscale>  2 0.23671575E+03</rscale>
<asrwt>0</asrwt>
<pdfrwt beam="1">  1       21 0.10923822E-01 0.23671575E+03</pdfrwt>
<pdfrwt beam="2">  1       21 0.13999031E+00 0.23671575E+03</pdfrwt>
<totfact> 0.24187102E+04</totfact>
</mgrwt>
</event>
<event>
 4    1  0.4151607E+000  0.2532813E+03  0.7546771E-02  0.1111248E+00
         21   -1    0    0  503  502  0.00000000000E+00  0.00000000000E+00  0.53957740731E+02  0.53957740731E+02  0.00000000000E+00 0.  1.
         21   -1    0    0  501  503 -0.00000000000E+00 -0.00000000000E+00 -0.13450057111E+04  0.13450057111E+04  0.00000000000E+00 0. -1.
          6    1    1    2  501    0 -0.18000520436E+03  0.42667891797E+02 -0.88380873958E+03  0.91938528961E+03  0.17300000000E+03 0.  1.
         -6    1    1    2    0  502  0.18000520436E+03 -0.42667891797E+02 -0.40723923076E+03  0.47957816220E+03  0.17300000000E+03 0.  1.
<mgrwt>
<rscale>  2 0.25328131E+03</rscale>
<asrwt>0</asrwt>
<pdfrwt beam="1">  1       21 0.83011913E-02 0.25328131E+03</pdfrwt>
<pdfrwt beam="2">  1       21 0.20692395E+00 0.25328131E+03</pdfrwt>
<totfact> 0.13054951E+04</totfact>
</mgrwt>
</event>
<event>
 4    1  0.4151607E+000  0.1856550E+03  0.7546771E-02  0.1162440E+00
         21   -1    0    0  501  502  0.00000000000E+00  0.00000000000E+00  0.11853029138E+04  0.11853029138E+04  0.00000000000E+00 0.  1.
         21   -1    0    0  502  503 -0.00000000000E+00 -0.00000000000E+00 -0.48096427332E+02  0.48096427332E+02  0.00000000000E+00 0.  1.
          6    1    1    2  501    0 -0.31445152736E+02  0.59581774930E+02  0.95638707894E+03  0.97424023233E+03  0.17300000000E+03 0.  1.
         -6    1    1    2    0  503  0.31445152736E+02 -0.59581774930E+02  0.18081940753E+03  0.25915910880E+03  0.17300000000E+03 0.  1.
<mgrwt>
<rscale>  2 0.18565502E+03</rscale>
<asrwt>0</asrwt>
<pdfrwt beam="1">  1       21 0.18235427E+00 0.18565502E+03</pdfrwt>
<pdfrwt beam="2">  1       21 0.73994513E-02 0.18565502E+03</pdfrwt>
<totfact> 0.24221871E+04</totfact>
</mgrwt>
</event>
<event>
 4    1  0.4151607E+000  0.1914202E+03  0.7546771E-02  0.1157187E+00
         21   -1    0    0  501  502  0.00000000000E+00  0.00000000000E+00  0.24429234035E+03  0.24429234035E+03  0.00000000000E+00 0. -1.
         21   -1    0    0  502  503 -0.00000000000E+00 -0.00000000000E+00 -0.15210841628E+03  0.15210841628E+03  0.00000000000E+00 0.  1.
          6    1    1    2  501    0  0.81078963461E+02 -0.11784819189E+02  0.69475988078E+02  0.20363838832E+03  0.17300000000E+03 0. -1.
         -6    1    1    2    0  503 -0.81078963461E+02  0.11784819189E+02  0.22707935993E+02  0.19276236831E+03  0.17300000000E+03 0.  1.
<mgrwt>
<rscale>  2 0.19142017E+03</rscale>
<asrwt>0</asrwt>
<pdfrwt beam="1">  1       21 0.37583437E-01 0.19142017E+03</pdfrwt>
<pdfrwt beam="2">  1       21 0.23401295E-01 0.19142017E+03</pdfrwt>
<totfact> 0.11733179E+05</totfact>
</mgrwt>
</event>
<event>
 4    1  0.4151607E+000  0.1760074E+03  0.7546771E-02  0.1171724E+00
         21   -1    0    0  501  502  0.00000000000E+00  0.00000000000E+00  0.42791742385E+03  0.42791742385E+03  0.00000000000E+00 0.  1.
         21   -1    0    0  502  503 -0.00000000000E+00 -0.00000000000E+00 -0.77626515623E+02  0.77626515623E+02  0.00000000000E+00 0.  1.
          6    1    1    2  501    0  0.15838111028E+02 -0.28262571658E+02  0.24077245430E+03  0.29824485489E+03  0.17300000000E+03 0.  1.
         -6    1    1    2    0  503 -0.15838111028E+02  0.28262571658E+02  0.10951845392E+03  0.20729908458E+03  0.17300000000E+03 0.  1.
<mgrwt>
<rscale>  2 0.17600744E+03</rscale>
<asrwt>0</asrwt>
<pdfrwt beam="1">  1       21 0.65833449E-01 0.17600744E+03</pdfrwt>
<pdfrwt beam="2">  1       21 0.11942541E-01 0.17600744E+03</pdfrwt>
<totfact> 0.12621821E+05</totfact>
</mgrwt>
</event>
<event>
 4    1  0.4151607E+000  0.1944726E+03  0.7546771E-02  0.1154488E+00
         21   -1    0    0  501  502  0.00000000000E+00  0.00000000000E+00  0.20177232060E+03  0.20177232060E+03  0.00000000000E+00 0.  1.
         21   -1    0    0  502  503 -0.00000000000E+00 -0.00000000000E+00 -0.22092867134E+03  0.22092867134E+03  0.00000000000E+00 0.  1.
          6    1    1    2  501    0  0.24223729190E+02  0.85462292472E+02  0.72711591701E+02  0.20762121293E+03  0.17300000000E+03 0.  1.
         -6    1    1    2    0  503 -0.24223729190E+02 -0.85462292472E+02 -0.91867942446E+02  0.21507977901E+03  0.17300000000E+03 0.  1.
<mgrwt>
<rscale>  2 0.19447260E+03</rscale>
<asrwt>0</asrwt>
<pdfrwt beam="1">  1       21 0.31041896E-01 0.19447260E+03</pdfrwt>
<pdfrwt beam="2">  1       21 0.33989026E-01 0.19447260E+03</pdfrwt>
<totfact> 0.83080531E+04</totfact>
</mgrwt>
</event>
<event>
 4    1  0.4151607E+000  0.1768585E+03  0.7546771E-02  0.1170878E+00
         21   -1    0    0  503  502  0.00000000000E+00  0.00000000000E+00  0.17383604232E+03  0.17383604232E+03  0.00000000000E+00 0.  1.
         21   -1    0    0  501  503 -0.00000000000E+00 -0.00000000000E+00 -0.18069864628E+03  0.18069864628E+03  0.00000000000E+00 0.  1.
          6    1    1    2  501    0 -0.35652952094E+02  0.88776620204E+01 -0.14965663399E+02  0.17749061090E+03  0.17300000000E+03 0.  1.
         -6    1    1    2    0  502  0.35652952094E+02 -0.88776620204E+01  0.81030594450E+01  0.17704407770E+03  0.17300000000E+03 0.  1.
<mgrwt>
<rscale>  2 0.17685855E+03</rscale>
<asrwt>0</asrwt>
<pdfrwt beam="1">  1       21 0.26744007E-01 0.17685855E+03</pdfrwt>
<pdfrwt beam="2">  1       21 0.27799792E-01 0.17685855E+03</pdfrwt>
<totfact> 0.16524459E+05</totfact>
</mgrwt>
</event>
<event>
 4    1  0.4151607E+000  0.1981127E+03  0.7546771E-02  0.1151341E+00
         21   -1    0    0  503  502  0.00000000000E+00  0.00000000000E+00  0.19942964112E+02  0.19942964112E+02  0.00000000000E+00 0.  1.
         21   -1    0    0  501  503 -0.00000000000E+00 -0.00000000000E+00 -0.19823941945E+04  0.19823941945E+04  0.00000000000E+00 0. -1.
          6    1    1    2  501    0  0.91078074269E+02 -0.32006662076E+02 -0.10664046319E+04  0.10846508567E+04  0.17300000000E+03 0.  1.
         -6    1    1    2    0  502 -0.91078074269E+02  0.32006662076E+02 -0.89604659843E+03  0.91768630185E+03  0.17300000000E+03 0. -1.
<mgrwt>
<rscale>  2 0.19811270E+03</rscale>
<asrwt>0</asrwt>
<pdfrwt beam="1">  1       21 0.30681483E-02 0.19811270E+03</pdfrwt>
<pdfrwt beam="2">  1       21 0.30498372E+00 0.19811270E+03</pdfrwt>
<totfact> 0.19373251E+04</totfact>
</mgrwt>
</event>
<event>
 4    1  0.4151607E+000  0.1757095E+03  0.7546771E-02  0.1172021E+00
         21   -1    0    0  501  502  0.00000000000E+00  0.00000000000E+00  0.78674258685E+03  0.78674258685E+03  0.00000000000E+00 0.  1.
         21   -1    0    0  502  503 -0.00000000000E+00 -0.00000000000E+00 -0.51568165148E+02  0.51568165148E+02  0.00000000000E+00 0.  1.
          6    1    1    2  501    0  0.10232605601E+02  0.28984916642E+02  0.57250868239E+03  0.59886561349E+03  0.17300000000E+03 0.  1.
         -6    1    1    2    0  503 -0.10232605601E+02 -0.28984916642E+02  0.16266573932E+03  0.23944513852E+03  0.17300000000E+03 0.  1.
<mgrwt>
<rscale>  2 0.17570951E+03</rscale>
<asrwt>0</asrwt>
<pdfrwt beam="1">  1       21 0.12103731E+00 0.17570951E+03</pdfrwt>
<pdfrwt beam="2">  1       21 0.79335644E-02 0.17570951E+03</pdfrwt>
<totfact> 0.63470335E+04</totfact>
</mgrwt>
</event>
<event>
 4    1  0.4151607E+000  0.2178966E+03  0.7546771E-02  0.1135461E+00
         21   -1    0    0  501  502  0.00000000000E+00  0.00000000000E+00  0.12260183931E+03  0.12260183931E+03  0.00000000000E+00 0.  1.
         21   -1    0    0  502  503 -0.00000000000E+00 -0.00000000000E+00 -0.39066663788E+03  0.39066663788E+03  0.00000000000E+00 0.  1.
          6    1    1    2  501    0  0.13048128317E+03 -0.22903407763E+02 -0.11007167007E+03  0.24412026523E+03  0.17300000000E+03 0.  1.
         -6    1    1    2    0  503 -0.13048128317E+03  0.22903407763E+02 -0.15799312850E+03  0.26914821196E+03  0.17300000000E+03 0.  1.
<mgrwt>
<rscale>  2 0.21789661E+03</rscale>
<asrwt>0</asrwt>
<pdfrwt beam="1">  1       21 0.18861821E-01 0.21789661E+03</pdfrwt>
<pdfrwt beam="2">  1       21 0.60102559E-01 0.21789661E+03</pdfrwt>
<totfact> 0.65720202E+04</totfact>
</mgrwt>
</event>
<event>
 4    1  0.4151607E+000  0.2645505E+03  0.7546771E-02  0.1104440E+00
         21   -1    0    0  503  502  0.00000000000E+00  0.00000000000E+00  0.38161276715E+03  0.38161276715E+03  0.00000000000E+00 0.  1.
         21   -1    0    0  501  503 -0.00000000000E+00 -0.00000000000E+00 -0.26966810032E+03  0.26966810032E+03  0.00000000000E+00 0.  1.
          6    1    1    2  501    0  0.15569276184E+03  0.12576852187E+03 -0.12821259563E+03  0.29398201792E+03  0.17300000000E+03 0.  1.
         -6    1    1    2    0  502 -0.15569276184E+03 -0.12576852187E+03  0.24015726246E+03  0.35729884956E+03  0.17300000000E+03 0.  1.
<mgrwt>
<rscale>  2 0.26455048E+03</rscale>
<asrwt>0</asrwt>
<pdfrwt beam="1">  1       21 0.58709656E-01 0.26455048E+03</pdfrwt>
<pdfrwt beam="2">  1       21 0.41487400E-01 0.26455048E+03</pdfrwt>
<totfact> 0.14584557E+04</totfact>
</mgrwt>
</event>
<event>
 4    1  0.4151607E+000  0.1807217E+03  0.7546771E-02  0.1167106E+00
         21   -1    0    0  501  502  0.00000000000E+00  0.00000000000E+00  0.19948916996E+03  0.19948916996E+03  0.00000000000E+00 0.  1.
         21   -1    0    0  502  503 -0.00000000000E+00 -0.00000000000E+00 -0.17744624469E+03  0.17744624469E+03  0.00000000000E+00 0.  1.
          6    1    1    2  501    0 -0.13000916886E+02  0.50619088251E+02  0.63439825307E+02  0.19153309732E+03  0.17300000000E+03 0.  1.
         -6    1    1    2    0  503  0.13000916886E+02 -0.50619088251E+02 -0.41396900034E+02  0.18540231732E+03  0.17300000000E+03 0.  1.
<mgrwt>
<rscale>  2 0.18072165E+03</rscale>
<asrwt>0</asrwt>
<pdfrwt beam="1">  1       21 0.30690642E-01 0.18072165E+03</pdfrwt>
<pdfrwt beam="2">  1       21 0.27299422E-01 0.18072165E+03</pdfrwt>
<totfact> 0.13094534E+05</totfact>
</mgrwt>
</event>
<event>
 4    1  0.4151607E+000  0.2053539E+03  0.7546771E-02  0.1145299E+00
         21   -1    0    0  501  502  0.00000000000E+00  0.00000000000E+00  0.22047111319E+03  0.22047111319E+03  0.00000000000E+00 0. -1.
         21   -1    0    0  502  503 -0.00000000000E+00 -0.00000000000E+00 -0.22322874294E+03  0.22322874294E+03  0.00000000000E+00 0.  1.
          6    1    1    2  501    0 -0.53935645829E+02 -0.96603239385E+02  0.82558792014E+02  0.22132824919E+03  0.17300000000E+03 0. -1.
         -6    1    1    2    0  503  0.53935645829E+02  0.96603239385E+02 -0.85316421761E+02  0.22237160694E+03  0.17300000000E+03 0.  1.
<mgrwt>
<rscale>  2 0.20535394E+03</rscale>
<asrwt>0</asrwt>
<pdfrwt beam="1">  1       21 0.33918633E-01 0.20535394E+03</pdfrwt>
<pdfrwt beam="2">  1       21 0.34342883E-01 0.20535394E+03</pdfrwt>
<totfact> 0.68034344E+04</totfact>
</mgrwt>
</event>
<event>
 4    1  0.4151607E+000  0.3527453E+03  0.7546771E-02  0.1061494E+00
         21   -1    0    0  501  502  0.00000000000E+00  0.00000000000E+00  0.37527616037E+03  0.37527616037E+03  0.00000000000E+00 0. -1.
         21   -1    0    0  502  503 -0.00000000000E+00 -0.00000000000E+00 -0.33167475047E+03  0.33167475047E+03  0.00000000000E+00 0.  1.
          6    1    1    2  501    0 -0.94889168473E+02 -0.29239747214E+03  0.15433204125E+02  0.35308273789E+03  0.17300000000E+03 0. -1.
         -6    1    1    2    0  503  0.94889168473E+02  0.29239747214E+03  0.28168205770E+02  0.35386817294E+03  0.17300000000E+03 0.  1.
<mgrwt>
<rscale>  2 0.35274528E+03</rscale>
<asrwt>0</asrwt>
<pdfrwt beam="1">  1       21 0.57734794E-01 0.35274528E+03</pdfrwt>
<pdfrwt beam="2">  1       21 0.51026885E-01 0.35274528E+03</pdfrwt>
<totfact> 0.94601647E+03</totfact>
</mgrwt>
</event>
<event>
 4    1  0.4151607E+000  0.2468809E+03  0.7546771E-02  0.1115292E+00
         21   -1    0    0  503  502  0.00000000000E+00  0.00000000000E+00  0.24764225734E+03  0.24764225734E+03  0.00000000000E+00 0.  1.
         21   -1    0    0  501  503 -0.00000000000E+00 -0.00000000000E+00 -0.54584476469E+03  0.54584476469E+03  0.00000000000E+00 0.  1.
          6    1    1    2  501    0  0.13777880268E+03  0.10971856891E+03 -0.44309307842E+03  0.50722937511E+03  0.17300000000E+03 0.  1.
         -6    1    1    2    0  502 -0.13777880268E+03 -0.10971856891E+03  0.14489057107E+03  0.28625764692E+03  0.17300000000E+03 0.  1.
<mgrwt>
<rscale>  2 0.24688087E+03</rscale>
<asrwt>0</asrwt>
<pdfrwt beam="1">  1       21 0.38098810E-01 0.24688087E+03</pdfrwt>
<pdfrwt beam="2">  1       21 0.83976116E-01 0.24688087E+03</pdfrwt>
<totfact> 0.78970019E+03</totfact>
</mgrwt>
</event>
<event>
 4    1  0.4151607E+000  0.2743228E+03  0.7546771E-02  0.1098831E+00
         21   -1    0    0  503  502  0.00000000000E+00  0.00000000000E+00  0.76505250516E+02  0.76505250516E+02  0.00000000000E+00 0. -1.
         21   -1    0    0  501  503 -0.00000000000E+00 -0.00000000000E+00 -0.17043810821E+04  0.17043810821E+04  0.00000000000E+00 0.  1.
          6    1    1    2  501    0 -0.92121332549E+02 -0.19193142740E+03 -0.13929863626E+04  0.14197408282E+04  0.17300000000E+03 0.  1.
         -6    1    1    2    0  502  0.92121332549E+02  0.19193142740E+03 -0.23488946890E+03  0.36114550438E+03  0.17300000000E+03 0. -1.
<mgrwt>
<rscale>  2 0.27432283E+03</rscale>
<asrwt>0</asrwt>
<pdfrwt beam="1">  1       21 0.11770038E-01 0.27432283E+03</pdfrwt>
<pdfrwt beam="2">  1       21 0.26221249E+00 0.27432283E+03</pdfrwt>
<totfact> 0.31728037E+03</totfact>
</mgrwt>
</event>
<event>
 4    1  0.4151607E+000  0.2458290E+03  0.7546771E-02  0.1115970E+00
         21   -1    0    0  501  502  0.00000000000E+00  0.00000000000E+00  0.99547340243E+03  0.99547340243E+03  0.00000000000E+00 0.  1.
         21   -1    0    0  502  503 -0.00000000000E+00 -0.00000000000E+00 -0.63649197361E+02  0.63649197361E+02  0.00000000000E+00 0. -1.
          6    1    1    2  501    0 -0.86778241921E+02  0.15156663628E+03  0.57977377792E+03  0.62973767719E+03  0.17300000000E+03 0.  1.
         -6    1    1    2    0  503  0.86778241921E+02 -0.15156663628E+03  0.35205042715E+03  0.42938492261E+03  0.17300000000E+03 0. -1.
<mgrwt>
<rscale>  2 0.24582902E+03</rscale>
<asrwt>0</asrwt>
<pdfrwt beam="1">  1       21 0.15314974E+00 0.24582902E+03</pdfrwt>
<pdfrwt beam="2">  1       21 0.97921849E-02 0.24582902E+03</pdfrwt>
<totfact> 0.23071163E+04</totfact>
</mgrwt>
</event>
<event>
 4    1  0.4151607E+000  0.1861205E+03  0.7546771E-02  0.1162008E+00
         21   -1    0    0  503  502  0.00000000000E+00  0.00000000000E+00  0.18785487777E+04  0.18785487777E+04  0.00000000000E+00 0. -1.
         21   -1    0    0  501  503 -0.00000000000E+00 -0.00000000000E+00 -0.24849064878E+02  0.24849064878E+02  0.00000000000E+00 0. -1.
          6    1    1    2  501    0 -0.64303780947E+02  0.24017864858E+02  0.44352985436E+03  0.48099850913E+03  0.17300000000E+03 0. -1.
         -6    1    1    2    0  502  0.64303780947E+02 -0.24017864858E+02  0.14101698585E+04  0.14223993334E+04  0.17300000000E+03 0. -1.
<mgrwt>
<rscale>  2 0.18612048E+03</rscale>
<asrwt>0</asrwt>
<pdfrwt beam="1">  1       21 0.28900739E+00 0.18612048E+03</pdfrwt>
<pdfrwt beam="2">  1       21 0.38229346E-02 0.18612048E+03</pdfrwt>
<totfact> 0.16802938E+04</totfact>
</mgrwt>
</event>
<event>
 4    1  0.4151607E+000  0.1787958E+03  0.7546771E-02  0.1168974E+00
         21   -1    0    0  503  502  0.00000000000E+00  0.00000000000E+00  0.61097229800E+02  0.61097229800E+02  0.00000000000E+00 0.  1.
         21   -1    0    0  501  503 -0.00000000000E+00 -0.00000000000E+00 -0.77240617270E+03  0.77240617270E+03  0.00000000000E+00 0.  1.
          6    1    1    2  501    0 -0.41716583242E+02 -0.17282331605E+02 -0.59235927617E+03  0.61875476917E+03  0.17300000000E+03 0.  1.
         -6    1    1    2    0  502  0.41716583242E+02  0.17282331605E+02 -0.11894966673E+03  0.21474863333E+03  0.17300000000E+03 0.  1.
<mgrwt>
<rscale>  2 0.17879584E+03</rscale>
<asrwt>0</asrwt>
<pdfrwt beam="1">  1       21 0.93995739E-02 0.17879584E+03</pdfrwt>
<pdfrwt beam="2">  1       21 0.11883172E+00 0.17879584E+03</pdfrwt>
<totfact> 0.49323408E+04</totfact>
</mgrwt>
</event>
<event>
 4    1  0.4151607E+000  0.1896842E+03  0.7546771E-02  0.1158746E+00
         21   -1    0    0  503  502  0.00000000000E+00  0.00000000000E+00  0.36358481735E+03  0.36358481735E+03  0.00000000000E+00 0. -1.
         21   -1    0    0  501  503 -0.00000000000E+00 -0.00000000000E+00 -0.10057584710E+03  0.10057584710E+03  0.00000000000E+00 0. -1.
          6    1    1    2  501    0 -0.29093234099E+02  0.72143482391E+02  0.10208155468E+03  0.21540831490E+03  0.17300000000E+03 0.  1.
         -6    1    1    2    0  502  0.29093234099E+02 -0.72143482391E+02  0.16092741558E+03  0.24875234955E+03  0.17300000000E+03 0.  1.
<mgrwt>
<rscale>  2 0.18968421E+03</rscale>
<asrwt>0</asrwt>
<pdfrwt beam="1">  1       21 0.55936125E-01 0.18968421E+03</pdfrwt>
<pdfrwt beam="2">  1       21 0.15473207E-01 0.18968421E+03</pdfrwt>
<totfact> 0.11168665E+05</totfact>
</mgrwt>
</event>
<event>
 4    1  0.4151607E+000  0.2372298E+03  0.7546771E-02  0.1121652E+00
         21   -1    0    0  503  502  0.00000000000E+00  0.00000000000E+00  0.28898438902E+03  0.28898438902E+03  0.00000000000E+00 0.  1.
         21   -1    0    0  501  503 -0.00000000000E+00 -0.00000000000E+00 -0.21295191344E+03  0.21295191344E+03  0.00000000000E+00 0. -1.
          6    1    1    2  501    0  0.15802344049E+03 -0.37115358718E+02 -0.35368995917E+02  0.23985187819E+03  0.17300000000E+03 0. -1.
         -6    1    1    2    0  502 -0.15802344049E+03  0.37115358718E+02  0.11140147149E+03  0.26208442428E+03  0.17300000000E+03 0.  1.
<mgrwt>
<rscale>  2 0.23722976E+03</rscale>
<asrwt>0</asrwt>
<pdfrwt beam="1">  1       21 0.44459137E-01 0.23722976E+03</pdfrwt>
<pdfrwt beam="2">  1       21 0.32761833E-01 0.23722976E+03</pdfrwt>
<totfact> 0.42650603E+04</totfact>
</mgrwt>
</event>
<event>
 4    1  0.4151607E+000  0.1821418E+03  0.7546771E-02  0.1165746E+00
         21   -1    0    0  501  502  0.00000000000E+00  0.00000000000E+00  0.28228324225E+03  0.28228324225E+03  0.00000000000E+00 0.  1.
         21   -1    0    0  502  503 -0.00000000000E+00 -0.00000000000E+00 -0.12742532692E+03  0.12742532692E+03  0.00000000000E+00 0.  1.
          6    1    1    2  501    0 -0.42785096901E+02  0.37630870032E+02  0.13452656932E+03  0.22643552007E+03  0.17300000000E+03 0.  1.
         -6    1    1    2    0  503  0.42785096901E+02 -0.37630870032E+02  0.20331346016E+02  0.18327304910E+03  0.17300000000E+03 0.  1.
<mgrwt>
<rscale>  2 0.18214183E+03</rscale>
<asrwt>0</asrwt>
<pdfrwt beam="1">  1       21 0.43428191E-01 0.18214183E+03</pdfrwt>
<pdfrwt beam="2">  1       21 0.19603897E-01 0.18214183E+03</pdfrwt>
<totfact> 0.12257000E+05</totfact>
</mgrwt>
</event>
<event>
 4    1  0.4151607E+000  0.1760975E+03  0.7546771E-02  0.1171634E+00
         21   -1    0    0  501  502  0.00000000000E+00  0.00000000000E+00  0.75405182233E+02  0.75405182233E+02  0.00000000000E+00 0. -1.
         21   -1    0    0  502  503 -0.00000000000E+00 -0.00000000000E+00 -0.45814842675E+03  0.45814842675E+03  0.00000000000E+00 0. -1.
          6    1    1    2  501    0 -0.27089712995E+02  0.18640600469E+02 -0.10601689432E+03  0.20554782027E+03  0.17300000000E+03 0. -1.
         -6    1    1    2    0  503  0.27089712995E+02 -0.18640600469E+02 -0.27672635020E+03  0.32800578871E+03  0.17300000000E+03 0. -1.
<mgrwt>
<rscale>  2 0.17609749E+03</rscale>
<asrwt>0</asrwt>
<pdfrwt beam="1">  1       21 0.11600797E-01 0.17609749E+03</pdfrwt>
<pdfrwt beam="2">  1       21 0.70484374E-01 0.17609749E+03</pdfrwt>
<totfact> 0.11447027E+05</totfact>
</mgrwt>
</event>
<event>
 4    1  0.4151607E+000  0.2520795E+03  0.7546771E-02  0.1111998E+00
         21   -1    0    0  503  502  0.00000000000E+00  0.00000000000E+00  0.54115079920E+03  0.54115079920E+03  0.00000000000E+00 0.  1.
         21   -1    0    0  501  503 -0.00000000000E+00 -0.00000000000E+00 -0.14668461352E+03  0.14668461352E+03  0.00000000000E+00 0.  1.
          6    1    1    2  501    0  0.17705878604E+03  0.47594575641E+02  0.43628416739E+02  0.25582708240E+03  0.17300000000E+03 0.  1.
         -6    1    1    2    0  502 -0.17705878604E+03 -0.47594575641E+02  0.35083776895E+03  0.43200833032E+03  0.17300000000E+03 0.  1.
<mgrwt>
<rscale>  2 0.25207947E+03</rscale>
<asrwt>0</asrwt>
<pdfrwt beam="1">  1       21 0.83253968E-01 0.25207947E+03</pdfrwt>
<pdfrwt beam="2">  1       21 0.22566864E-01 0.25207947E+03</pdfrwt>
<totfact> 0.22386139E+04</totfact>
</mgrwt>
</event>
<event>
 4    1  0.4151607E+000  0.2910749E+03  0.7546771E-02  0.1089789E+00
         21   -1    0    0  501  502  0.00000000000E+00  0.00000000000E+00  0.12527561031E+04  0.12527561031E+04  0.00000000000E+00 0. -1.
         21   -1    0    0  502  503 -0.00000000000E+00 -0.00000000000E+00 -0.67636119307E+02  0.67636119307E+02  0.00000000000E+00 0.  1.
          6    1    1    2  501    0 -0.42123331619E+02  0.23026343699E+03  0.58658692052E+03  0.65483497219E+03  0.17300000000E+03 0.  1.
         -6    1    1    2    0  503  0.42123331619E+02 -0.23026343699E+03  0.59853306327E+03  0.66555725021E+03  0.17300000000E+03 0.  1.
<mgrwt>
<rscale>  2 0.29107495E+03</rscale>
<asrwt>0</asrwt>
<pdfrwt beam="1">  1       21 0.19273169E+00 0.29107495E+03</pdfrwt>
<pdfrwt beam="2">  1       21 0.10405558E-01 0.29107495E+03</pdfrwt>
<totfact> 0.10587891E+04</totfact>
</mgrwt>
</event>
<event>
 4    1  0.4151607E+000  0.1802950E+03  0.7546771E-02  0.1167518E+00
         21   -1    0    0  501  502  0.00000000000E+00  0.00000000000E+00  0.10764518651E+04  0.10764518651E+04  0.00000000000E+00 0.  1.
         21   -1    0    0  502  503 -0.00000000000E+00 -0.00000000000E+00 -0.32592193088E+02  0.32592193088E+02  0.00000000000E+00 0. -1.
          6    1    1    2  501    0 -0.37360312248E+02 -0.34372726077E+02  0.67223595517E+03  0.69599386251E+03  0.17300000000E+03 0.  1.
         -6    1    1    2    0  503  0.37360312248E+02  0.34372726077E+02  0.37162371683E+03  0.41305019567E+03  0.17300000000E+03 0. -1.
<mgrwt>
<rscale>  2 0.18029497E+03</rscale>
<asrwt>0</asrwt>
<pdfrwt beam="1">  1       21 0.16560795E+00 0.18029497E+03</pdfrwt>
<pdfrwt beam="2">  1       21 0.50141844E-02 0.18029497E+03</pdfrwt>
<totfact> 0.61796911E+04</totfact>
</mgrwt>
</event>
<event>
 4    1  0.4151607E+000  0.2438919E+03  0.7546771E-02  0.1117227E+00
         21   -1    0    0  503  502  0.00000000000E+00  0.00000000000E+00  0.18140938943E+03  0.18140938943E+03  0.00000000000E+00 0. -1.
         21   -1    0    0  501  503 -0.00000000000E+00 -0.00000000000E+00 -0.43856303693E+03  0.43856303693E+03  0.00000000000E+00 0.  1.
          6    1    1    2  501    0 -0.12802014671E+03 -0.11473932301E+03 -0.28429419127E+03  0.37457503574E+03  0.17300000000E+03 0.  1.
         -6    1    1    2    0  502  0.12802014671E+03  0.11473932301E+03  0.27140543768E+02  0.24539739062E+03  0.17300000000E+03 0. -1.
<mgrwt>
<rscale>  2 0.24389192E+03</rscale>
<asrwt>0</asrwt>
<pdfrwt beam="1">  1       21 0.27909137E-01 0.24389192E+03</pdfrwt>
<pdfrwt beam="2">  1       21 0.67471235E-01 0.24389192E+03</pdfrwt>
<totfact> 0.23963681E+04</totfact>
</mgrwt>
</event>
<event>
 4    1  0.4151607E+000  0.2560252E+03  0.7546771E-02  0.1109555E+00
         21   -1    0    0  501  502  0.00000000000E+00  0.00000000000E+00  0.25282625009E+03  0.25282625009E+03  0.00000000000E+00 0.  1.
         21   -1    0    0  502  503 -0.00000000000E+00 -0.00000000000E+00 -0.26957718133E+03  0.26957718133E+03  0.00000000000E+00 0.  1.
          6    1    1    2  501    0  0.18110435646E+03  0.53114402921E+02  0.42712141587E+02  0.25956358521E+03  0.17300000000E+03 0.  1.
         -6    1    1    2    0  503 -0.18110435646E+03 -0.53114402921E+02 -0.59463072831E+02  0.26283984621E+03  0.17300000000E+03 0.  1.
<mgrwt>
<rscale>  2 0.25602525E+03</rscale>
<asrwt>0</asrwt>
<pdfrwt beam="1">  1       21 0.38896346E-01 0.25602525E+03</pdfrwt>
<pdfrwt beam="2">  1       21 0.41473413E-01 0.25602525E+03</pdfrwt>
<totfact> 0.34612152E+04</totfact>
</mgrwt>
</event>
<event>
 4    1  0.4151607E+000  0.2182047E+03  0.7546771E-02  0.1135229E+00
         21   -1    0    0  503  502  0.00000000000E+00  0.00000000000E+00  0.97938329967E+03  0.97938329967E+03  0.00000000000E+00 0. -1.
         21   -1    0    0  501  503 -0.00000000000E+00 -0.00000000000E+00 -0.50827053900E+02  0.50827053900E+02  0.00000000000E+00 0. -1.
          6    1    1    2  501    0  0.86370723129E+02  0.10111576804E+03  0.35683267237E+03  0.41826170806E+03  0.17300000000E+03 0. -1.
         -6    1    1    2    0  502 -0.86370723129E+02 -0.10111576804E+03  0.57172357340E+03  0.61194864551E+03  0.17300000000E+03 0. -1.
<mgrwt>
<rscale>  2 0.21820472E+03</rscale>
<asrwt>0</asrwt>
<pdfrwt beam="1">  1       21 0.15067434E+00 0.21820472E+03</pdfrwt>
<pdfrwt beam="2">  1       21 0.78195475E-02 0.21820472E+03</pdfrwt>
<totfact> 0.36330920E+04</totfact>
</mgrwt>
</event>
<event>
 4    1  0.4151607E+000  0.1905623E+03  0.7546771E-02  0.1157955E+00
         21   -1    0    0  501  502  0.00000000000E+00  0.00000000000E+00  0.67095217431E+02  0.67095217431E+02  0.00000000000E+00 0. -1.
         21   -1    0    0  502  503 -0.00000000000E+00 -0.00000000000E+00 -0.61641265720E+03  0.61641265720E+03  0.00000000000E+00 0.  1.
          6    1    1    2  501    0 -0.78552614983E+02 -0.14644695156E+02 -0.15530525164E+03  0.24583266993E+03  0.17300000000E+03 0. -1.
         -6    1    1    2    0  503  0.78552614983E+02  0.14644695156E+02 -0.39401218813E+03  0.43767520471E+03  0.17300000000E+03 0.  1.
<mgrwt>
<rscale>  2 0.19056227E+03</rscale>
<asrwt>0</asrwt>
<pdfrwt beam="1">  1       21 0.10322341E-01 0.19056227E+03</pdfrwt>
<pdfrwt beam="2">  1       21 0.94832716E-01 0.19056227E+03</pdfrwt>
<totfact> 0.71429647E+04</totfact>
</mgrwt>
</event>
<event>
 4    1  0.4151607E+000  0.1908089E+03  0.7546771E-02  0.1157734E+00
         21   -1    0    0  503  502  0.00000000000E+00  0.00000000000E+00  0.63673924453E+03  0.63673924453E+03  0.00000000000E+00 0. -1.
         21   -1    0    0  501  503 -0.00000000000E+00 -0.00000000000E+00 -0.61358763130E+02  0.61358763130E+02  0.00000000000E+00 0. -1.
          6    1    1    2  501    0 -0.72642828531E+02 -0.34670559315E+02  0.19658761826E+03  0.27396116490E+03  0.17300000000E+03 0. -1.
         -6    1    1    2    0  502  0.72642828531E+02  0.34670559315E+02  0.37879286314E+03  0.42413684276E+03  0.17300000000E+03 0. -1.
<mgrwt>
<rscale>  2 0.19080888E+03</rscale>
<asrwt>0</asrwt>
<pdfrwt beam="1">  1       21 0.97959879E-01 0.19080888E+03</pdfrwt>
<pdfrwt beam="2">  1       21 0.94398102E-02 0.19080888E+03</pdfrwt>
<totfact> 0.77490299E+04</totfact>
</mgrwt>
</event>
<event>
 4    1  0.4151607E+000  0.2122085E+03  0.7546771E-02  0.1139829E+00
         21   -1    0    0  503  502  0.00000000000E+00  0.00000000000E+00  0.48179243178E+03  0.48179243178E+03  0.00000000000E+00 0.  1.
         21   -1    0    0  501  503 -0.00000000000E+00 -0.00000000000E+00 -0.12103540358E+03  0.12103540358E+03  0.00000000000E+00 0.  1.
          6    1    1    2  501    0 -0.12105407074E+03  0.21197641037E+02  0.36531488556E+02  0.21532992752E+03  0.17300000000E+03 0.  1.
         -6    1    1    2    0  502  0.12105407074E+03 -0.21197641037E+02  0.32422553964E+03  0.38749790784E+03  0.17300000000E+03 0.  1.
<mgrwt>
<rscale>  2 0.21220845E+03</rscale>
<asrwt>0</asrwt>
<pdfrwt beam="1">  1       21 0.74121911E-01 0.21220845E+03</pdfrwt>
<pdfrwt beam="2">  1       21 0.18620832E-01 0.21220845E+03</pdfrwt>
<totfact> 0.42611492E+04</totfact>
</mgrwt>
</event>
<event>
 4    1  0.4151607E+000  0.1758279E+03  0.7546771E-02  0.1171903E+00
         21   -1    0    0  503  502  0.00000000000E+00  0.00000000000E+00  0.58912794239E+02  0.58912794239E+02  0.00000000000E+00 0. -1.
         21   -1    0    0  501  503 -0.00000000000E+00 -0.00000000000E+00 -0.89793157144E+03  0.89793157144E+03  0.00000000000E+00 0. -1.
          6    1    1    2  501    0 -0.47886585403E+01 -0.31040883085E+02 -0.72792767027E+03  0.74886191038E+03  0.17300000000E+03 0. -1.
         -6    1    1    2    0  502  0.47886585403E+01  0.31040883085E+02 -0.11109110693E+03  0.20798245530E+03  0.17300000000E+03 0. -1.
<mgrwt>
<rscale>  2 0.17582795E+03</rscale>
<asrwt>0</asrwt>
<pdfrwt beam="1">  1       21 0.90635073E-02 0.17582795E+03</pdfrwt>
<pdfrwt beam="2">  1       21 0.13814331E+00 0.17582795E+03</pdfrwt>
<totfact> 0.36091365E+04</totfact>
</mgrwt>
</event>
<event>
 4    1  0.4151607E+000  0.2442344E+03  0.7546771E-02  0.1117004E+00
         21   -1    0    0  503  502  0.00000000000E+00  0.00000000000E+00  0.48835528354E+03  0.48835528354E+03  0.00000000000E+00 0. -1.
         21   -1    0    0  501  503 -0.00000000000E+00 -0.00000000000E+00 -0.16874682363E+03  0.16874682363E+03  0.00000000000E+00 0.  1.
          6    1    1    2  501    0  0.14886290415E+03 -0.86955680473E+02 -0.12852562588E+02  0.24457236754E+03  0.17300000000E+03 0.  1.
         -6    1    1    2    0  502 -0.14886290415E+03  0.86955680473E+02  0.33246102250E+03  0.41252973963E+03  0.17300000000E+03 0. -1.
<mgrwt>
<rscale>  2 0.24423443E+03</rscale>
<asrwt>0</asrwt>
<pdfrwt beam="1">  1       21 0.75131581E-01 0.24423443E+03</pdfrwt>
<pdfrwt beam="2">  1       21 0.25961050E-01 0.24423443E+03</pdfrwt>
<totfact> 0.21695229E+04</totfact>
</mgrwt>
</event>
<event>
 4    1  0.4151607E+000  0.1846564E+03  0.7546771E-02  0.1163371E+00
         21   -1    0    0  503  502  0.00000000000E+00  0.00000000000E+00  0.80381237920E+02  0.80381237920E+02  0.00000000000E+00 0. -1.
         21   -1    0    0  501  503 -0.00000000000E+00 -0.00000000000E+00 -0.51952833734E+03  0.51952833734E+03  0.00000000000E+00 0. -1.
          6    1    1    2  501    0 -0.31539250093E+02 -0.56340544334E+02 -0.34805925587E+03  0.39400917100E+03  0.17300000000E+03 0. -1.
         -6    1    1    2    0  502  0.31539250093E+02  0.56340544334E+02 -0.91087843545E+02  0.20590040426E+03  0.17300000000E+03 0. -1.
<mgrwt>
<rscale>  2 0.18465639E+03</rscale>
<asrwt>0</asrwt>
<pdfrwt beam="1">  1       21 0.12366344E-01 0.18465639E+03</pdfrwt>
<pdfrwt beam="2">  1       21 0.79927438E-01 0.18465639E+03</pdfrwt>
<totfact> 0.76894918E+04</totfact>
</mgrwt>
</event>
<event>
 4    1  0.4151607E+000  0.2019086E+03  0.7546771E-02  0.1148139E+00
         21   -1    0    0  501  502  0.00000000000E+00  0.00000000000E+00  0.16078167209E+04  0.16078167209E+04  0.00000000000E+00 0. -1.
         21   -1    0    0  502  503 -0.00000000000E+00 -0.00000000000E+00 -0.36938521062E+02  0.36938521062E+02  0.00000000000E+00 0. -1.
          6    1    1    2  501    0  0.74358165310E+02  0.72862568854E+02  0.12459515341E+04  0.12622053383E+04  0.17300000000E+03 0. -1.
         -6    1    1    2    0  503 -0.74358165310E+02 -0.72862568854E+02  0.32492666573E+03  0.38254990366E+03  0.17300000000E+03 0. -1.
<mgrwt>
<rscale>  2 0.20190862E+03</rscale>
<asrwt>0</asrwt>
<pdfrwt beam="1">  1       21 0.24735636E+00 0.20190862E+03</pdfrwt>
<pdfrwt beam="2">  1       21 0.56828506E-02 0.20190862E+03</pdfrwt>
<totfact> 0.14788815E+04</totfact>
</mgrwt>
</event>
<event>
 4    1  0.4151607E+000  0.1780320E+03  0.7546771E-02  0.1169721E+00
         21   -1    0    0  503  502  0.00000000000E+00  0.00000000000E+00  0.96190153090E+02  0.96190153090E+02  0.00000000000E+00 0.  1.
         21   -1    0    0  501  503 -0.00000000000E+00 -0.00000000000E+00 -0.41525037659E+03  0.41525037659E+03  0.00000000000E+00 0.  1.
          6    1    1    2  501    0  0.23448741756E+02 -0.34879183332E+02 -0.27573075164E+03  0.32821159077E+03  0.17300000000E+03 0.  1.
         -6    1    1    2    0  502 -0.23448741756E+02  0.34879183332E+02 -0.43329471861E+02  0.18322893890E+03  0.17300000000E+03 0.  1.
<mgrwt>
<rscale>  2 0.17803202E+03</rscale>
<asrwt>0</asrwt>
<pdfrwt beam="1">  1       21 0.14798485E-01 0.17803202E+03</pdfrwt>
<pdfrwt beam="2">  1       21 0.63884674E-01 0.17803202E+03</pdfrwt>
<totfact> 0.91517763E+04</totfact>
</mgrwt>
</event>
<event>
 4    1  0.4151607E+000  0.1851168E+03  0.7546771E-02  0.1162941E+00
         21   -1    0    0  501  502  0.00000000000E+00  0.00000000000E+00  0.73337621072E+02  0.73337621072E+02  0.00000000000E+00 0. -1.
         21   -1    0    0  502  503 -0.00000000000E+00 -0.00000000000E+00 -0.14219978146E+04  0.14219978146E+04  0.00000000000E+00 0. -1.
          6    1    1    2  501    0 -0.57720441563E+02 -0.31742635168E+02 -0.61698131355E+02  0.19512791618E+03  0.17300000000E+03 0. -1.
         -6    1    1    2    0  503  0.57720441563E+02  0.31742635168E+02 -0.12869620622E+04  0.13002075195E+04  0.17300000000E+03 0. -1.
<mgrwt>
<rscale>  2 0.18511684E+03</rscale>
<asrwt>0</asrwt>
<pdfrwt beam="1">  1       21 0.11282711E-01 0.18511684E+03</pdfrwt>
<pdfrwt beam="2">  1       21 0.21876889E+00 0.18511684E+03</pdfrwt>
<totfact> 0.67534499E+03</totfact>
</mgrwt>
</event>
<event>
 4    1  0.4151607E+000  0.1957940E+03  0.7546771E-02  0.1153337E+00
         21   -1    0    0  501  502  0.00000000000E+00  0.00000000000E+00  0.25982941201E+03  0.25982941201E+03  0.00000000000E+00 0.  1.
         21   -1    0    0  502  503 -0.00000000000E+00 -0.00000000000E+00 -0.21650441977E+03  0.21650441977E+03  0.00000000000E+00 0.  1.
          6    1    1    2  501    0 -0.82659614565E+02  0.39669675989E+02  0.15608123666E+03  0.25039298614E+03  0.17300000000E+03 0.  1.
         -6    1    1    2    0  503  0.82659614565E+02 -0.39669675989E+02 -0.11275624442E+03  0.22594084564E+03  0.17300000000E+03 0.  1.
<mgrwt>
<rscale>  2 0.19579401E+03</rscale>
<asrwt>0</asrwt>
<pdfrwt beam="1">  1       21 0.39973756E-01 0.19579401E+03</pdfrwt>
<pdfrwt beam="2">  1       21 0.33308372E-01 0.19579401E+03</pdfrwt>
<totfact> 0.52275771E+04</totfact>
</mgrwt>
</event>
<event>
 4    1  0.4151607E+000  0.1824234E+03  0.7546771E-02  0.1165478E+00
         21   -1    0    0  501  502  0.00000000000E+00  0.00000000000E+00  0.27794403347E+03  0.27794403347E+03  0.00000000000E+00 0. -1.
         21   -1    0    0  502  503 -0.00000000000E+00 -0.00000000000E+00 -0.14502075980E+03  0.14502075980E+03  0.00000000000E+00 0.  1.
          6    1    1    2  501    0 -0.43859500498E+02  0.37757548647E+02  0.15477746705E+03  0.23923702174E+03  0.17300000000E+03 0. -1.
         -6    1    1    2    0  503  0.43859500498E+02 -0.37757548647E+02 -0.21854193380E+02  0.18372777153E+03  0.17300000000E+03 0.  1.
<mgrwt>
<rscale>  2 0.18242338E+03</rscale>
<asrwt>0</asrwt>
<pdfrwt beam="1">  1       21 0.42760620E-01 0.18242338E+03</pdfrwt>
<pdfrwt beam="2">  1       21 0.22310886E-01 0.18242338E+03</pdfrwt>
<totfact> 0.99271400E+04</totfact>
</mgrwt>
</event>
<event>
 4    1  0.4151607E+000  0.2227579E+03  0.7546771E-02  0.1131843E+00
         21   -1    0    0  501  502  0.00000000000E+00  0.00000000000E+00  0.49556690491E+03  0.49556690491E+03  0.00000000000E+00 0.  1.
         21   -1    0    0  502  503 -0.00000000000E+00 -0.00000000000E+00 -0.10488381216E+03  0.10488381216E+03  0.00000000000E+00 0.  1.
          6    1    1    2  501    0  0.95054706870E+01 -0.14000623141E+03  0.25925842624E+03  0.34181285872E+03  0.17300000000E+03 0.  1.
         -6    1    1    2    0  503 -0.95054706870E+01  0.14000623141E+03  0.13142466651E+03  0.25863785835E+03  0.17300000000E+03 0.  1.
<mgrwt>
<rscale>  2 0.22275794E+03</rscale>
<asrwt>0</asrwt>
<pdfrwt beam="1">  1       21 0.76241061E-01 0.22275794E+03</pdfrwt>
<pdfrwt beam="2">  1       21 0.16135971E-01 0.22275794E+03</pdfrwt>
<totfact> 0.51868780E+04</totfact>
</mgrwt>
</event>
<event>
 4    1  0.4151607E+000  0.2599323E+03  0.7546771E-02  0.1107184E+00
         21   -1    0    0  501  502  0.00000000000E+00  0.00000000000E+00  0.62338749517E+02  0.62338749517E+02  0.00000000000E+00 0.  1.
         21   -1    0    0  502  503 -0.00000000000E+00 -0.00000000000E+00 -0.14137611459E+04  0.14137611459E+04  0.00000000000E+00 0.  1.
          6    1    1    2  501    0 -0.15106722460E+03  0.12171472853E+03 -0.31917178352E+03  0.41162532585E+03  0.17300000000E+03 0.  1.
         -6    1    1    2    0  503  0.15106722460E+03 -0.12171472853E+03 -0.10322506128E+04  0.10644745695E+04  0.17300000000E+03 0.  1.
<mgrwt>
<rscale>  2 0.25993226E+03</rscale>
<asrwt>0</asrwt>
<pdfrwt beam="1">  1       21 0.95905772E-02 0.25993226E+03</pdfrwt>
<pdfrwt beam="2">  1       21 0.21750171E+00 0.25993226E+03</pdfrwt>
<totfact> 0.86357986E+03</totfact>
</mgrwt>
</event>
<event>
 4    1  0.4151607E+000  0.1731468E+03  0.7546771E-02  0.1174605E+00
         21   -1    0    0  503  502  0.00000000000E+00  0.00000000000E+00  0.78954954706E+02  0.78954954706E+02  0.00000000000E+00 0. -1.
         21   -1    0    0  501  503 -0.00000000000E+00 -0.00000000000E+00 -0.44450792633E+03  0.44450792633E+03  0.00000000000E+00 0. -1.
          6    1    1    2  501    0 -0.22024608084E+01 -0.67797951966E+01 -0.28270832586E+03  0.33151744142E+03  0.17300000000E+03 0.  1.
         -6    1    1    2    0  502  0.22024608084E+01  0.67797951966E+01 -0.82844645762E+02  0.19194543961E+03  0.17300000000E+03 0.  1.
<mgrwt>
<rscale>  2 0.17314681E+03</rscale>
<asrwt>0</asrwt>
<pdfrwt beam="1">  1       21 0.12146916E-01 0.17314681E+03</pdfrwt>
<pdfrwt beam="2">  1       21 0.68385836E-01 0.17314681E+03</pdfrwt>
<totfact> 0.11281931E+05</totfact>
</mgrwt>
</event>
<event>
 4    1  0.4151607E+000  0.2171346E+03  0.7546771E-02  0.1136038E+00
         21   -1    0    0  501  502  0.00000000000E+00  0.00000000000E+00  0.29123834844E+03  0.29123834844E+03  0.00000000000E+00 0. -1.
         21   -1    0    0  502  503 -0.00000000000E+00 -0.00000000000E+00 -0.16736993781E+03  0.16736993781E+03  0.00000000000E+00 0. -1.
          6    1    1    2  501    0  0.28678515537E+02  0.12804671198E+03  0.10344093924E+03  0.24051495923E+03  0.17300000000E+03 0. -1.
         -6    1    1    2    0  503 -0.28678515537E+02 -0.12804671198E+03  0.20427471387E+02  0.21809332702E+03  0.17300000000E+03 0. -1.
<mgrwt>
<rscale>  2 0.21713456E+03</rscale>
<asrwt>0</asrwt>
<pdfrwt beam="1">  1       21 0.44805900E-01 0.21713456E+03</pdfrwt>
<pdfrwt beam="2">  1       21 0.25749221E-01 0.21713456E+03</pdfrwt>
<totfact> 0.67705075E+04</totfact>
</mgrwt>
</event>
<event>
 4    1  0.4151607E+000  0.2305630E+03  0.7546771E-02  0.1126244E+00
         21   -1    0    0  501  502  0.00000000000E+00  0.00000000000E+00  0.60357524479E+03  0.60357524479E+03  0.00000000000E+00 0. -1.
         21   -1    0    0  502  503 -0.00000000000E+00 -0.00000000000E+00 -0.12396085027E+03  0.12396085027E+03  0.00000000000E+00 0.  1.
          6    1    1    2  501    0 -0.41766522712E+02  0.14658058172E+03  0.43553373513E+03  0.49279706147E+03  0.17300000000E+03 0.  1.
         -6    1    1    2    0  503  0.41766522712E+02 -0.14658058172E+03  0.44080659388E+02  0.23473903359E+03  0.17300000000E+03 0.  1.
<mgrwt>
<rscale>  2 0.23056303E+03</rscale>
<asrwt>0</asrwt>
<pdfrwt beam="1">  1       21 0.92857728E-01 0.23056303E+03</pdfrwt>
<pdfrwt beam="2">  1       21 0.19070900E-01 0.23056303E+03</pdfrwt>
<totfact> 0.24122670E+04</totfact>
</mgrwt>
</event>
<event>
 4    1  0.4151607E+000  0.1875133E+03  0.7546771E-02  0.1160724E+00
         21   -1    0    0  501  502  0.00000000000E+00  0.00000000000E+00  0.31890279409E+03  0.31890279409E+03  0.00000000000E+00 0.  1.
         21   -1    0    0  502  503 -0.00000000000E+00 -0.00000000000E+00 -0.11334155117E+03  0.11334155117E+03  0.00000000000E+00 0. -1.
          6    1    1    2  501    0 -0.59905593560E+02 -0.40540613928E+02  0.13843479865E+03  0.23307813067E+03  0.17300000000E+03 0.  1.
         -6    1    1    2    0  503  0.59905593560E+02  0.40540613928E+02  0.67126444271E+02  0.19916621460E+03  0.17300000000E+03 0.  1.
<mgrwt>
<rscale>  2 0.18751326E+03</rscale>
<asrwt>0</asrwt>
<pdfrwt beam="1">  1       21 0.49061968E-01 0.18751326E+03</pdfrwt>
<pdfrwt beam="2">  1       21 0.17437162E-01 0.18751326E+03</pdfrwt>
<totfact> 0.11822235E+05</totfact>
</mgrwt>
</event>
<event>
 4    1  0.4151607E+000  0.1872064E+03  0.7546771E-02  0.1161005E+00
         21   -1    0    0  503  502  0.00000000000E+00  0.00000000000E+00  0.45011536889E+03  0.45011536889E+03  0.00000000000E+00 0.  1.
         21   -1    0    0  501  503 -0.00000000000E+00 -0.00000000000E+00 -0.10482518813E+03  0.10482518813E+03  0.00000000000E+00 0.  1.
          6    1    1    2  501    0 -0.70874351413E+02 -0.96981775862E+01  0.31916941162E+02  0.18990766038E+03  0.17300000000E+03 0.  1.
         -6    1    1    2    0  502  0.70874351413E+02  0.96981775862E+01  0.31337323959E+03  0.36503289664E+03  0.17300000000E+03 0.  1.
<mgrwt>
<rscale>  2 0.18720638E+03</rscale>
<asrwt>0</asrwt>
<pdfrwt beam="1">  1       21 0.69248517E-01 0.18720638E+03</pdfrwt>
<pdfrwt beam="2">  1       21 0.16126952E-01 0.18720638E+03</pdfrwt>
<totfact> 0.65368353E+04</totfact>
</mgrwt>
</event>
<event>
 4    1  0.4151607E+000  0.1824303E+03  0.7546771E-02  0.1165471E+00
         21   -1    0    0  503  502  0.00000000000E+00  0.00000000000E+00  0.51580428636E+03  0.51580428636E+03  0.00000000000E+00 0.  1.
         21   -1    0    0  501  503 -0.00000000000E+00 -0.00000000000E+00 -0.70952848795E+02  0.70952848795E+02  0.00000000000E+00 0.  1.
          6    1    1    2  501    0 -0.19077882962E+02  0.54661301161E+02  0.13410326752E+03  0.22641667302E+03  0.17300000000E+03 0.  1.
         -6    1    1    2    0  502  0.19077882962E+02 -0.54661301161E+02  0.31074817005E+03  0.36034046214E+03  0.17300000000E+03 0.  1.
<mgrwt>
<rscale>  2 0.18243032E+03</rscale>
<asrwt>0</asrwt>
<pdfrwt beam="1">  1       21 0.79354503E-01 0.18243032E+03</pdfrwt>
<pdfrwt beam="2">  1       21 0.10915823E-01 0.18243032E+03</pdfrwt>
<totfact> 0.97712038E+04</totfact>
</mgrwt>
</event>
<event>
 4    1  0.4151607E+000  0.1747712E+03  0.7546771E-02  0.1172962E+00
         21   -1    0    0  503  502  0.00000000000E+00  0.00000000000E+00  0.11376756984E+03  0.11376756984E+03  0.00000000000E+00 0. -1.
         21   -1    0    0  501  503 -0.00000000000E+00 -0.00000000000E+00 -0.31710612239E+03  0.31710612239E+03  0.00000000000E+00 0. -1.
          6    1    1    2  501    0 -0.14539264358E+02  0.20114231206E+02 -0.18602737107E+03  0.25524724345E+03  0.17300000000E+03 0. -1.
         -6    1    1    2    0  502  0.14539264358E+02 -0.20114231206E+02 -0.17311181487E+02  0.17562644878E+03  0.17300000000E+03 0. -1.
<mgrwt>
<rscale>  2 0.17477120E+03</rscale>
<asrwt>0</asrwt>
<pdfrwt beam="1">  1       21 0.17502703E-01 0.17477120E+03</pdfrwt>
<pdfrwt beam="2">  1       21 0.48785558E-01 0.17477120E+03</pdfrwt>
<totfact> 0.11933975E+05</totfact>
</mgrwt>
</event>
<event>
 4    1  0.4151607E+000  0.1837942E+03  0.7546771E-02  0.1164181E+00
         21   -1    0    0  503  502  0.00000000000E+00  0.00000000000E+00  0.61945538002E+02  0.61945538002E+02  0.00000000000E+00 0.  1.
         21   -1    0    0  501  503 -0.00000000000E+00 -0.00000000000E+00 -0.54593103391E+03  0.54593103391E+03  0.00000000000E+00 0. -1.
          6    1    1    2  501    0 -0.42320045830E+02 -0.45390769202E+02 -0.23184694223E+03  0.29586029276E+03  0.17300000000E+03 0.  1.
         -6    1    1    2    0  502  0.42320045830E+02  0.45390769202E+02 -0.25213855367E+03  0.31201627915E+03  0.17300000000E+03 0. -1.
<mgrwt>
<rscale>  2 0.18379420E+03</rscale>
<asrwt>0</asrwt>
<pdfrwt beam="1">  1       21 0.95300829E-02 0.18379420E+03</pdfrwt>
<pdfrwt beam="2">  1       21 0.83989388E-01 0.18379420E+03</pdfrwt>
<totfact> 0.10915090E+05</totfact>
</mgrwt>
</event>
<event>
 4    1  0.4151607E+000  0.2124671E+03  0.7546771E-02  0.1139627E+00
         21   -1    0    0  503  502  0.00000000000E+00  0.00000000000E+00  0.89788828034E+03  0.89788828034E+03  0.00000000000E+00 0.  1.
         21   -1    0    0  501  503 -0.00000000000E+00 -0.00000000000E+00 -0.50858964843E+02  0.50858964843E+02  0.00000000000E+00 0.  1.
          6    1    1    2  501    0  0.10298305815E+03 -0.67880504246E+02  0.47430025412E+03  0.51971434864E+03  0.17300000000E+03 0.  1.
         -6    1    1    2    0  502 -0.10298305815E+03  0.67880504246E+02  0.37272906137E+03  0.42903289654E+03  0.17300000000E+03 0.  1.
<mgrwt>
<rscale>  2 0.21246711E+03</rscale>
<asrwt>0</asrwt>
<pdfrwt beam="1">  1       21 0.13813665E+00 0.21246711E+03</pdfrwt>
<pdfrwt beam="2">  1       21 0.78244568E-02 0.21246711E+03</pdfrwt>
<totfact> 0.45695409E+04</totfact>
</mgrwt>
</event>
<event>
 4    1  0.4151607E+000  0.2669194E+03  0.7546771E-02  0.1103056E+00
         21   -1    0    0  501  502  0.00000000000E+00  0.00000000000E+00  0.79544108991E+02  0.79544108991E+02  0.00000000000E+00 0. -1.
         21   -1    0    0  502  503 -0.00000000000E+00 -0.00000000000E+00 -0.92255647180E+03  0.92255647180E+03  0.00000000000E+00 0.  1.
          6    1    1    2  501    0  0.11700904918E+03 -0.16621023371E+03 -0.33598337334E+03  0.42910463356E+03  0.17300000000E+03 0. -1.
         -6    1    1    2    0  503 -0.11700904918E+03  0.16621023371E+03 -0.50702898947E+03  0.57299594723E+03  0.17300000000E+03 0.  1.
<mgrwt>
<rscale>  2 0.26691939E+03</rscale>
<asrwt>0</asrwt>
<pdfrwt beam="1">  1       21 0.12237556E-01 0.26691939E+03</pdfrwt>
<pdfrwt beam="2">  1       21 0.14193176E+00 0.26691939E+03</pdfrwt>
<totfact> 0.18732287E+04</totfact>
</mgrwt>
</event>
<event>
 4    1  0.4151607E+000  0.1754250E+03  0.7546771E-02  0.1172306E+00
         21   -1    0    0  501  502  0.00000000000E+00  0.00000000000E+00  0.44870033477E+02  0.44870033477E+02  0.00000000000E+00 0.  1.
         21   -1    0    0  502  503 -0.00000000000E+00 -0.00000000000E+00 -0.68702040820E+03  0.68702040820E+03  0.00000000000E+00 0.  1.
          6    1    1    2  501    0 -0.17022025149E+02 -0.23561922114E+02 -0.30594232785E+03  0.35266786285E+03  0.17300000000E+03 0.  1.
         -6    1    1    2    0  503  0.17022025149E+02  0.23561922114E+02 -0.33620804687E+03  0.37922257883E+03  0.17300000000E+03 0.  1.
<mgrwt>
<rscale>  2 0.17542495E+03</rscale>
<asrwt>0</asrwt>
<pdfrwt beam="1">  1       21 0.69030831E-02 0.17542495E+03</pdfrwt>
<pdfrwt beam="2">  1       21 0.10569543E+00 0.17542495E+03</pdfrwt>
<totfact> 0.11221042E+05</totfact>
</mgrwt>
</event>
<event>
 4    1  0.4151607E+000  0.1983373E+03  0.7546771E-02  0.1151149E+00
         21   -1    0    0  503  502  0.00000000000E+00  0.00000000000E+00  0.39475911295E+02  0.39475911295E+02  0.00000000000E+00 0. -1.
         21   -1    0    0  501  503 -0.00000000000E+00 -0.00000000000E+00 -0.11427857370E+04  0.11427857370E+04  0.00000000000E+00 0.  1.
          6    1    1    2  501    0 -0.82670114533E+02  0.50738079503E+02 -0.76315175461E+03  0.78850383710E+03  0.17300000000E+03 0.  1.
         -6    1    1    2    0  502  0.82670114533E+02 -0.50738079503E+02 -0.34015807108E+03  0.39375781119E+03  0.17300000000E+03 0. -1.
<mgrwt>
<rscale>  2 0.19833734E+03</rscale>
<asrwt>0</asrwt>
<pdfrwt beam="1">  1       21 0.60732173E-02 0.19833734E+03</pdfrwt>
<pdfrwt beam="2">  1       21 0.17581318E+00 0.19833734E+03</pdfrwt>
<totfact> 0.37404722E+04</totfact>
</mgrwt>
</event>
<event>
 4    1  0.4151607E+000  0.2064056E+03  0.7546771E-02  0.1144444E+00
         21   -1    0    0  501  502  0.00000000000E+00  0.00000000000E+00  0.54739440843E+03  0.54739440843E+03  0.00000000000E+00 0. -1.
         21   -1    0    0  502  503 -0.00000000000E+00 -0.00000000000E+00 -0.92317886650E+02  0.92317886650E+02  0.00000000000E+00 0. -1.
          6    1    1    2  501    0  0.56358373755E+02 -0.97457737335E+02  0.35425268875E+03  0.40999785895E+03  0.17300000000E+03 0. -1.
         -6    1    1    2    0  503 -0.56358373755E+02  0.97457737335E+02  0.10082383303E+03  0.22971443613E+03  0.17300000000E+03 0. -1.
<mgrwt>
<rscale>  2 0.20640561E+03</rscale>
<asrwt>0</asrwt>
<pdfrwt beam="1">  1       21 0.84214523E-01 0.20640561E+03</pdfrwt>
<pdfrwt beam="2">  1       21 0.14202752E-01 0.20640561E+03</pdfrwt>
<totfact> 0.52663302E+04</totfact>
</mgrwt>
</event>
<event>
 4    1  0.4151607E+000  0.2051743E+03  0.7546771E-02  0.1145445E+00
         21   -1    0    0  501  502  0.00000000000E+00  0.00000000000E+00  0.37697011906E+03  0.37697011906E+03  0.00000000000E+00 0.  1.
         21   -1    0    0  502  503 -0.00000000000E+00 -0.00000000000E+00 -0.17451731385E+03  0.17451731385E+03  0.00000000000E+00 0.  1.
          6    1    1    2  501    0  0.11010069520E+03  0.67327621458E+01  0.26669954921E+03  0.33648943924E+03  0.17300000000E+03 0.  1.
         -6    1    1    2    0  503 -0.11010069520E+03 -0.67327621458E+01 -0.64246743995E+02  0.21499799367E+03  0.17300000000E+03 0.  1.
<mgrwt>
<rscale>  2 0.20517430E+03</rscale>
<asrwt>0</asrwt>
<pdfrwt beam="1">  1       21 0.57995403E-01 0.20517430E+03</pdfrwt>
<pdfrwt beam="2">  1       21 0.26848818E-01 0.20517430E+03</pdfrwt>
<totfact> 0.36574495E+04</totfact>
</mgrwt>
</event>
<event>
 4    1  0.4151607E+000  0.3006318E+03  0.7546771E-02  0.1084925E+00
         21   -1    0    0  501  502  0.00000000000E+00  0.00000000000E+00  0.34680614677E+02  0.34680614677E+02  0.00000000000E+00 0.  1.
         21   -1    0    0  502  503 -0.00000000000E+00 -0.00000000000E+00 -0.26120370024E+04  0.26120370024E+04  0.00000000000E+00 0.  1.
          6    1    1    2  501    0 -0.10931889261E+03  0.22022685120E+03 -0.12253322170E+04  0.12616729086E+04  0.17300000000E+03 0.  1.
         -6    1    1    2    0  503  0.10931889261E+03 -0.22022685120E+03 -0.13520241707E+04  0.13850447085E+04  0.17300000000E+03 0.  1.
<mgrwt>
<rscale>  2 0.30063181E+03</rscale>
<asrwt>0</asrwt>
<pdfrwt beam="1">  1       21 0.53354794E-02 0.30063181E+03</pdfrwt>
<pdfrwt beam="2">  1       21 0.40185183E+00 0.30063181E+03</pdfrwt>
<totfact> 0.18035226E+03</totfact>
</mgrwt>
</event>
<event>
 4    1  0.4151607E+000  0.1765474E+03  0.7546771E-02  0.1171187E+00
         21   -1    0    0  501  502  0.00000000000E+00  0.00000000000E+00  0.92681784579E+03  0.92681784579E+03  0.00000000000E+00 0. -1.
         21   -1    0    0  502  503 -0.00000000000E+00 -0.00000000000E+00 -0.33630241129E+02  0.33630241129E+02  0.00000000000E+00 0. -1.
          6    1    1    2  501    0  0.19916754874E+02 -0.29039518495E+02  0.44760014933E+03  0.48115991567E+03  0.17300000000E+03 0. -1.
         -6    1    1    2    0  503 -0.19916754874E+02  0.29039518495E+02  0.44558745533E+03  0.47928817126E+03  0.17300000000E+03 0. -1.
<mgrwt>
<rscale>  2 0.17654736E+03</rscale>
<asrwt>0</asrwt>
<pdfrwt beam="1">  1       21 0.14258734E+00 0.17654736E+03</pdfrwt>
<pdfrwt beam="2">  1       21 0.51738840E-02 0.17654736E+03</pdfrwt>
<totfact> 0.87297935E+04</totfact>
</mgrwt>
</event>
<event>
 4    1  0.4151607E+000  0.2061136E+03  0.7546771E-02  0.1144681E+00
         21   -1    0    0  503  502  0.00000000000E+00  0.00000000000E+00  0.89991587601E+02  0.89991587601E+02  0.00000000000E+00 0.  1.
         21   -1    0    0  501  503 -0.00000000000E+00 -0.00000000000E+00 -0.49586313143E+03  0.49586313143E+03  0.00000000000E+00 0. -1.
          6    1    1    2  501    0  0.11197309872E+03 -0.39793686049E+01 -0.26709453718E+03  0.33737560968E+03  0.17300000000E+03 0. -1.
         -6    1    1    2    0  502 -0.11197309872E+03  0.39793686049E+01 -0.13877700664E+03  0.24847910935E+03  0.17300000000E+03 0.  1.
<mgrwt>
<rscale>  2 0.20611359E+03</rscale>
<asrwt>0</asrwt>
<pdfrwt beam="1">  1       21 0.13844860E-01 0.20611359E+03</pdfrwt>
<pdfrwt beam="2">  1       21 0.76286634E-01 0.20611359E+03</pdfrwt>
<totfact> 0.69015586E+04</totfact>
</mgrwt>
</event>
<event>
 4    1  0.4151607E+000  0.1984472E+03  0.7546771E-02  0.1151056E+00
         21   -1    0    0  501  502  0.00000000000E+00  0.00000000000E+00  0.25227257224E+02  0.25227257224E+02  0.00000000000E+00 0. -1.
         21   -1    0    0  502  503 -0.00000000000E+00 -0.00000000000E+00 -0.17131789069E+04  0.17131789069E+04  0.00000000000E+00 0. -1.
          6    1    1    2  501    0 -0.64850090892E+02  0.72434405557E+02 -0.58496934214E+03  0.61771385660E+03  0.17300000000E+03 0. -1.
         -6    1    1    2    0  503  0.64850090892E+02 -0.72434405557E+02 -0.11029823076E+04  0.11206923076E+04  0.17300000000E+03 0. -1.
<mgrwt>
<rscale>  2 0.19844717E+03</rscale>
<asrwt>0</asrwt>
<pdfrwt beam="1">  1       21 0.38811154E-02 0.19844717E+03</pdfrwt>
<pdfrwt beam="2">  1       21 0.26356606E+00 0.19844717E+03</pdfrwt>
<totfact> 0.22715941E+04</totfact>
</mgrwt>
</event>
<event>
 4    1  0.4151607E+000  0.1816986E+03  0.7546771E-02  0.1166169E+00
         21   -1    0    0  501  502  0.00000000000E+00  0.00000000000E+00  0.39177116232E+02  0.39177116232E+02  0.00000000000E+00 0. -1.
         21   -1    0    0  502  503 -0.00000000000E+00 -0.00000000000E+00 -0.14202572782E+04  0.14202572782E+04  0.00000000000E+00 0. -1.
          6    1    1    2  501    0  0.41096539605E+02 -0.37369374578E+02 -0.22520034744E+03  0.28936066113E+03  0.17300000000E+03 0. -1.
         -6    1    1    2    0  503 -0.41096539605E+02  0.37369374578E+02 -0.11558798146E+04  0.11700737333E+04  0.17300000000E+03 0. -1.
<mgrwt>
<rscale>  2 0.18169864E+03</rscale>
<asrwt>0</asrwt>
<pdfrwt beam="1">  1       21 0.60272487E-02 0.18169864E+03</pdfrwt>
<pdfrwt beam="2">  1       21 0.21850112E+00 0.18169864E+03</pdfrwt>
<totfact> 0.20283697E+04</totfact>
</mgrwt>
</event>
<event>
 4    1  0.4151607E+000  0.1982394E+03  0.7546771E-02  0.1151233E+00
         21   -1    0    0  501  502  0.00000000000E+00  0.00000000000E+00  0.33859191969E+03  0.33859191969E+03  0.00000000000E+00 0.  1.
         21   -1    0    0  502  503 -0.00000000000E+00 -0.00000000000E+00 -0.24313843725E+03  0.24313843725E+03  0.00000000000E+00 0. -1.
          6    1    1    2  501    0  0.88494470206E+02  0.39224800832E+02  0.25800354929E+03  0.32536854135E+03  0.17300000000E+03 0.  1.
         -6    1    1    2    0  503 -0.88494470206E+02 -0.39224800832E+02 -0.16255006685E+03  0.25636181558E+03  0.17300000000E+03 0. -1.
<mgrwt>
<rscale>  2 0.19823939E+03</rscale>
<asrwt>0</asrwt>
<pdfrwt beam="1">  1       21 0.52091065E-01 0.19823939E+03</pdfrwt>
<pdfrwt beam="2">  1       21 0.37405913E-01 0.19823939E+03</pdfrwt>
<totfact> 0.24029840E+04</totfact>
</mgrwt>
</event>
<event>
 4    1  0.4151607E+000  0.1905021E+03  0.7546771E-02  0.1158009E+00
         21   -1    0    0  503  502  0.00000000000E+00  0.00000000000E+00  0.12970816758E+04  0.12970816758E+04  0.00000000000E+00 0.  1.
         21   -1    0    0  501  503 -0.00000000000E+00 -0.00000000000E+00 -0.39608768905E+02  0.39608768905E+02  0.00000000000E+00 0.  1.
          6    1    1    2  501    0 -0.62427720480E+02 -0.49647147495E+02  0.26658473098E+03  0.32765603662E+03  0.17300000000E+03 0.  1.
         -6    1    1    2    0  502  0.62427720480E+02  0.49647147495E+02  0.99088817587E+03  0.10090344080E+04  0.17300000000E+03 0.  1.
<mgrwt>
<rscale>  2 0.19050212E+03</rscale>
<asrwt>0</asrwt>
<pdfrwt beam="1">  1       21 0.19955099E+00 0.19050212E+03</pdfrwt>
<pdfrwt beam="2">  1       21 0.60936577E-02 0.19050212E+03</pdfrwt>
<totfact> 0.25994738E+04</totfact>
</mgrwt>
</event>
<event>
 4    1  0.4151607E+000  0.1854752E+03  0.7546771E-02  0.1162607E+00
         21   -1    0    0  501  502  0.00000000000E+00  0.00000000000E+00  0.66397663845E+03  0.66397663845E+03  0.00000000000E+00 0.  1.
         21   -1    0    0  502  503 -0.00000000000E+00 -0.00000000000E+00 -0.61078444022E+02  0.61078444022E+02  0.00000000000E+00 0.  1.
          6    1    1    2  501    0  0.53413753361E+02 -0.40237010362E+02  0.44266569525E+03  0.47995204323E+03  0.17300000000E+03 0.  1.
         -6    1    1    2    0  503 -0.53413753361E+02  0.40237010362E+02  0.16023249917E+03  0.24510303923E+03  0.17300000000E+03 0.  1.
<mgrwt>
<rscale>  2 0.18547519E+03</rscale>
<asrwt>0</asrwt>
<pdfrwt beam="1">  1       21 0.10215025E+00 0.18547519E+03</pdfrwt>
<pdfrwt beam="2">  1       21 0.93966841E-02 0.18547519E+03</pdfrwt>
<totfact> 0.70897065E+04</totfact>
</mgrwt>
</event>
<event>
 4    1  0.4151607E+000  0.2265427E+03  0.7546771E-02  0.1129097E+00
         21   -1    0    0  501  502  0.00000000000E+00  0.00000000000E+00  0.12884440788E+03  0.12884440788E+03  0.00000000000E+00 0.  1.
         21   -1    0    0  502  503 -0.00000000000E+00 -0.00000000000E+00 -0.67142219772E+03  0.67142219772E+03  0.00000000000E+00 0.  1.
          6    1    1    2  501    0 -0.80835600237E+02  0.12189418657E+03 -0.16096512855E+02  0.22711381444E+03  0.17300000000E+03 0.  1.
         -6    1    1    2    0  503  0.80835600237E+02 -0.12189418657E+03 -0.52648127699E+03  0.57315279115E+03  0.17300000000E+03 0.  1.
<mgrwt>
<rscale>  2 0.22654268E+03</rscale>
<asrwt>0</asrwt>
<pdfrwt beam="1">  1       21 0.19822217E-01 0.22654268E+03</pdfrwt>
<pdfrwt beam="2">  1       21 0.10329572E+00 0.22654268E+03</pdfrwt>
<totfact> 0.17468343E+04</totfact>
</mgrwt>
</event>
<event>
 4    1  0.4151607E+000  0.5577689E+03  0.7546771E-02  0.9997116E-01
         21   -1    0    0  503  502  0.00000000000E+00  0.00000000000E+00  0.93509984332E+03  0.93509984332E+03  0.00000000000E+00 0. -1.
         21   -1    0    0  501  503 -0.00000000000E+00 -0.00000000000E+00 -0.43313972778E+03  0.43313972778E+03  0.00000000000E+00 0.  1.
          6    1    1    2  501    0 -0.52586461602E+03 -0.68143446877E+02 -0.78458623212E+02  0.56326004588E+03  0.17300000000E+03 0.  1.
         -6    1    1    2    0  502  0.52586461602E+03  0.68143446877E+02  0.58041873874E+03  0.80497952522E+03  0.17300000000E+03 0. -1.
<mgrwt>
<rscale>  2 0.55776888E+03</rscale>
<asrwt>0</asrwt>
<pdfrwt beam="1">  1       21 0.14386151E+00 0.55776888E+03</pdfrwt>
<pdfrwt beam="2">  1       21 0.66636881E-01 0.55776888E+03</pdfrwt>
<totfact> 0.55110673E+02</totfact>
</mgrwt>
</event>
<event>
 4    1  0.4151607E+000  0.1907789E+03  0.7546771E-02  0.1157761E+00
         21   -1    0    0  501  502  0.00000000000E+00  0.00000000000E+00  0.14245218941E+03  0.14245218941E+03  0.00000000000E+00 0. -1.
         21   -1    0    0  502  503 -0.00000000000E+00 -0.00000000000E+00 -0.28613705370E+03  0.28613705370E+03  0.00000000000E+00 0.  1.
          6    1    1    2  501    0 -0.43124598893E+02  0.67881145375E+02 -0.17218675601E+01  0.19078664983E+03  0.17300000000E+03 0. -1.
         -6    1    1    2    0  503  0.43124598893E+02 -0.67881145375E+02 -0.14196299673E+03  0.23780259328E+03  0.17300000000E+03 0.  1.
<mgrwt>
<rscale>  2 0.19077888E+03</rscale>
<asrwt>0</asrwt>
<pdfrwt beam="1">  1       21 0.21915721E-01 0.19077888E+03</pdfrwt>
<pdfrwt beam="2">  1       21 0.44021085E-01 0.19077888E+03</pdfrwt>
<totfact> 0.96457289E+04</totfact>
</mgrwt>
</event>
<event>
 4    1  0.4151607E+000  0.1894474E+03  0.7546771E-02  0.1158961E+00
         21   -1    0    0  503  502  0.00000000000E+00  0.00000000000E+00  0.11047665346E+04  0.11047665346E+04  0.00000000000E+00 0.  1.
         21   -1    0    0  501  503 -0.00000000000E+00 -0.00000000000E+00 -0.39368989982E+02  0.39368989982E+02  0.00000000000E+00 0.  1.
          6    1    1    2  501    0 -0.69209331552E+02 -0.34225513528E+02  0.29351373256E+03  0.34934313869E+03  0.17300000000E+03 0.  1.
         -6    1    1    2    0  502  0.69209331552E+02  0.34225513528E+02  0.77188381202E+03  0.79479238585E+03  0.17300000000E+03 0.  1.
<mgrwt>
<rscale>  2 0.18944740E+03</rscale>
<asrwt>0</asrwt>
<pdfrwt beam="1">  1       21 0.16996406E+00 0.18944740E+03</pdfrwt>
<pdfrwt beam="2">  1       21 0.60567685E-02 0.18944740E+03</pdfrwt>
<totfact> 0.41507172E+04</totfact>
</mgrwt>
</event>
<event>
 4    1  0.4151607E+000  0.2837527E+03  0.7546771E-02  0.1093657E+00
         21   -1    0    0  503  502  0.00000000000E+00  0.00000000000E+00  0.31215399501E+03  0.31215399501E+03  0.00000000000E+00 0.  1.
         21   -1    0    0  501  503 -0.00000000000E+00 -0.00000000000E+00 -0.26566247327E+03  0.26566247327E+03  0.00000000000E+00 0.  1.
          6    1    1    2  501    0 -0.20925363679E+03 -0.82459249125E+02 -0.26026004575E+02  0.28494379304E+03  0.17300000000E+03 0.  1.
         -6    1    1    2    0  502  0.20925363679E+03  0.82459249125E+02  0.72517526310E+02  0.29287267524E+03  0.17300000000E+03 0.  1.
<mgrwt>
<rscale>  2 0.28375273E+03</rscale>
<asrwt>0</asrwt>
<pdfrwt beam="1">  1       21 0.48023691E-01 0.28375273E+03</pdfrwt>
<pdfrwt beam="2">  1       21 0.40871150E-01 0.28375273E+03</pdfrwt>
<totfact> 0.22841416E+04</totfact>
</mgrwt>
</event>
<event>
 4    1  0.4151607E+000  0.1840210E+03  0.7546771E-02  0.1163967E+00
         21   -1    0    0  501  502  0.00000000000E+00  0.00000000000E+00  0.60210857465E+03  0.60210857465E+03  0.00000000000E+00 0.  1.
         21   -1    0    0  502  503 -0.00000000000E+00 -0.00000000000E+00 -0.69792678234E+02  0.69792678234E+02  0.00000000000E+00 0.  1.
          6    1    1    2  501    0  0.48075016465E+02  0.40293114592E+02  0.41418882837E+03  0.45322856026E+03  0.17300000000E+03 0.  1.
         -6    1    1    2    0  503 -0.48075016465E+02 -0.40293114592E+02  0.11812706804E+03  0.21867269261E+03  0.17300000000E+03 0.  1.
<mgrwt>
<rscale>  2 0.18402104E+03</rscale>
<asrwt>0</asrwt>
<pdfrwt beam="1">  1       21 0.92632085E-01 0.18402104E+03</pdfrwt>
<pdfrwt beam="2">  1       21 0.10737335E-01 0.18402104E+03</pdfrwt>
<totfact> 0.70565226E+04</totfact>
</mgrwt>
</event>
<event>
 4    1  0.4151607E+000  0.1736918E+03  0.7546771E-02  0.1174052E+00
         21   -1    0    0  501  502  0.00000000000E+00  0.00000000000E+00  0.16908122250E+03  0.16908122250E+03  0.00000000000E+00 0.  1.
         21   -1    0    0  502  503 -0.00000000000E+00 -0.00000000000E+00 -0.18669340058E+03  0.18669340058E+03  0.00000000000E+00 0.  1.
          6    1    1    2  501    0  0.68999170112E+00 -0.15471331017E+02  0.28623089578E+02  0.17603442683E+03  0.17300000000E+03 0.  1.
         -6    1    1    2    0  503 -0.68999170112E+00  0.15471331017E+02 -0.46235267667E+02  0.17974019625E+03  0.17300000000E+03 0.  1.
<mgrwt>
<rscale>  2 0.17369179E+03</rscale>
<asrwt>0</asrwt>
<pdfrwt beam="1">  1       21 0.26012496E-01 0.17369179E+03</pdfrwt>
<pdfrwt beam="2">  1       21 0.28722062E-01 0.17369179E+03</pdfrwt>
<totfact> 0.16378160E+05</totfact>
</mgrwt>
</event>
<event>
 4    1  0.4151607E+000  0.1746389E+03  0.7546771E-02  0.1173095E+00
         21   -1    0    0  501  502  0.00000000000E+00  0.00000000000E+00  0.67026167074E+02  0.67026167074E+02  0.00000000000E+00 0.  1.
         21   -1    0    0  502  503 -0.00000000000E+00 -0.00000000000E+00 -0.45821285908E+03  0.45821285908E+03  0.00000000000E+00 0.  1.
          6    1    1    2  501    0 -0.23397063423E+02 -0.47265030206E+01 -0.17369762959E+03  0.24631205601E+03  0.17300000000E+03 0.  1.
         -6    1    1    2    0  503  0.23397063423E+02  0.47265030206E+01 -0.21748906242E+03  0.27892697015E+03  0.17300000000E+03 0.  1.
<mgrwt>
<rscale>  2 0.17463895E+03</rscale>
<asrwt>0</asrwt>
<pdfrwt beam="1">  1       21 0.10311718E-01 0.17463895E+03</pdfrwt>
<pdfrwt beam="2">  1       21 0.70494284E-01 0.17463895E+03</pdfrwt>
<totfact> 0.14109685E+05</totfact>
</mgrwt>
</event>
<event>
 4    1  0.4151607E+000  0.1971403E+03  0.7546771E-02  0.1152174E+00
         21   -1    0    0  503  502  0.00000000000E+00  0.00000000000E+00  0.14226122041E+04  0.14226122041E+04  0.00000000000E+00 0. -1.
         21   -1    0    0  501  503 -0.00000000000E+00 -0.00000000000E+00 -0.28026099120E+02  0.28026099120E+02  0.00000000000E+00 0. -1.
          6    1    1    2  501    0  0.65134396074E+02 -0.68504211116E+02  0.81250397294E+03  0.83607835909E+03  0.17300000000E+03 0. -1.
         -6    1    1    2    0  502 -0.65134396074E+02  0.68504211116E+02  0.58208213207E+03  0.61455994416E+03  0.17300000000E+03 0. -1.
<mgrwt>
<rscale>  2 0.19714035E+03</rscale>
<asrwt>0</asrwt>
<pdfrwt beam="1">  1       21 0.21886336E+00 0.19714035E+03</pdfrwt>
<pdfrwt beam="2">  1       21 0.43117087E-02 0.19714035E+03</pdfrwt>
<totfact> 0.35198255E+04</totfact>
</mgrwt>
</event>
<event>
 4    1  0.4151607E+000  0.2481064E+03  0.7546771E-02  0.1114507E+00
         21   -1    0    0  501  502  0.00000000000E+00  0.00000000000E+00  0.47453549039E+03  0.47453549039E+03  0.00000000000E+00 0. -1.
         21   -1    0    0  502  503 -0.00000000000E+00 -0.00000000000E+00 -0.13256583651E+03  0.13256583651E+03  0.00000000000E+00 0. -1.
          6    1    1    2  501    0  0.37668204806E+02 -0.17380710910E+03  0.21545927231E+03  0.32860234760E+03  0.17300000000E+03 0. -1.
         -6    1    1    2    0  503 -0.37668204806E+02  0.17380710910E+03  0.12651038158E+03  0.27849897930E+03  0.17300000000E+03 0. -1.
<mgrwt>
<rscale>  2 0.24810644E+03</rscale>
<asrwt>0</asrwt>
<pdfrwt beam="1">  1       21 0.73005459E-01 0.24810644E+03</pdfrwt>
<pdfrwt beam="2">  1       21 0.20394744E-01 0.24810644E+03</pdfrwt>
<totfact> 0.36571113E+04</totfact>
</mgrwt>
</event>
<event>
 4    1  0.4151607E+000  0.1743177E+03  0.7546771E-02  0.1173419E+00
         21   -1    0    0  503  502  0.00000000000E+00  0.00000000000E+00  0.33692571108E+03  0.33692571108E+03  0.00000000000E+00 0.  1.
         21   -1    0    0  501  503 -0.00000000000E+00 -0.00000000000E+00 -0.13841752209E+03  0.13841752209E+03  0.00000000000E+00 0.  1.
          6    1    1    2  501    0  0.16625059849E+02 -0.13463062637E+02 -0.41039676632E+02  0.17908350490E+03  0.17300000000E+03 0.  1.
         -6    1    1    2    0  502 -0.16625059849E+02  0.13463062637E+02  0.23954786562E+03  0.29625972827E+03  0.17300000000E+03 0.  1.
<mgrwt>
<rscale>  2 0.17431766E+03</rscale>
<asrwt>0</asrwt>
<pdfrwt beam="1">  1       21 0.51834725E-01 0.17431766E+03</pdfrwt>
<pdfrwt beam="2">  1       21 0.21295003E-01 0.17431766E+03</pdfrwt>
<totfact> 0.73095686E+04</totfact>
</mgrwt>
</event>
<event>
 4    1  0.4151607E+000  0.2121438E+03  0.7546771E-02  0.1139879E+00
         21   -1    0    0  503  502  0.00000000000E+00  0.00000000000E+00  0.12102960100E+04  0.12102960100E+04  0.00000000000E+00 0.  1.
         21   -1    0    0  501  503 -0.00000000000E+00 -0.00000000000E+00 -0.10081319259E+03  0.10081319259E+03  0.00000000000E+00 0.  1.
          6    1    1    2  501    0  0.97156649777E+02  0.75077170273E+02  0.33937077341E+02  0.21484115367E+03  0.17300000000E+03 0.  1.
         -6    1    1    2    0  502 -0.97156649777E+02 -0.75077170273E+02  0.10755457401E+04  0.10962680489E+04  0.17300000000E+03 0.  1.
<mgrwt>
<rscale>  2 0.21214381E+03</rscale>
<asrwt>0</asrwt>
<pdfrwt beam="1">  1       21 0.18619938E+00 0.21214381E+03</pdfrwt>
<pdfrwt beam="2">  1       21 0.15509723E-01 0.21214381E+03</pdfrwt>
<totfact> 0.59995016E+03</totfact>
</mgrwt>
</event>
<event>
 4    1  0.4151607E+000  0.1895002E+03  0.7546771E-02  0.1158913E+00
         21   -1    0    0  501  502  0.00000000000E+00  0.00000000000E+00  0.15569710678E+04  0.15569710678E+04  0.00000000000E+00 0. -1.
         21   -1    0    0  502  503 -0.00000000000E+00 -0.00000000000E+00 -0.25053981423E+02  0.25053981423E+02  0.00000000000E+00 0.  1.
          6    1    1    2  501    0  0.68713119782E+02  0.35493898667E+02  0.98887721097E+03  0.10068706213E+04  0.17300000000E+03 0. -1.
         -6    1    1    2    0  503 -0.68713119782E+02 -0.35493898667E+02  0.54303987544E+03  0.57515442795E+03  0.17300000000E+03 0. -1.
<mgrwt>
<rscale>  2 0.18950016E+03</rscale>
<asrwt>0</asrwt>
<pdfrwt beam="1">  1       21 0.23953393E+00 0.18950016E+03</pdfrwt>
<pdfrwt beam="2">  1       21 0.38544599E-02 0.18950016E+03</pdfrwt>
<totfact> 0.32050341E+04</totfact>
</mgrwt>
</event>
<event>
 4    1  0.4151607E+000  0.1908521E+03  0.7546771E-02  0.1157695E+00
         21   -1    0    0  501  502  0.00000000000E+00  0.00000000000E+00  0.25278003551E+03  0.25278003551E+03  0.00000000000E+00 0.  1.
         21   -1    0    0  502  503 -0.00000000000E+00 -0.00000000000E+00 -0.14472874735E+03  0.14472874735E+03  0.00000000000E+00 0.  1.
          6    1    1    2  501    0  0.80594555504E+02  0.16553129939E+00  0.67170810631E+02  0.20232752551E+03  0.17300000000E+03 0. -1.
         -6    1    1    2    0  503 -0.80594555504E+02 -0.16553129939E+00  0.40880477534E+02  0.19518125735E+03  0.17300000000E+03 0. -1.
<mgrwt>
<rscale>  2 0.19085206E+03</rscale>
<asrwt>0</asrwt>
<pdfrwt beam="1">  1       21 0.38889236E-01 0.19085206E+03</pdfrwt>
<pdfrwt beam="2">  1       21 0.22265961E-01 0.19085206E+03</pdfrwt>
<totfact> 0.12038828E+05</totfact>
</mgrwt>
</event>
<event>
 4    1  0.4151607E+000  0.1879798E+03  0.7546771E-02  0.1160296E+00
         21   -1    0    0  501  502  0.00000000000E+00  0.00000000000E+00  0.12501041674E+04  0.12501041674E+04  0.00000000000E+00 0. -1.
         21   -1    0    0  502  503 -0.00000000000E+00 -0.00000000000E+00 -0.28269606280E+02  0.28269606280E+02  0.00000000000E+00 0. -1.
          6    1    1    2  501    0 -0.71344276744E+02 -0.17815926466E+02  0.61731418195E+03  0.64530086960E+03  0.17300000000E+03 0. -1.
         -6    1    1    2    0  503  0.71344276744E+02  0.17815926466E+02  0.60452037921E+03  0.63307290413E+03  0.17300000000E+03 0. -1.
<mgrwt>
<rscale>  2 0.18797982E+03</rscale>
<asrwt>0</asrwt>
<pdfrwt beam="1">  1       21 0.19232368E+00 0.18797982E+03</pdfrwt>
<pdfrwt beam="2">  1       21 0.43491712E-02 0.18797982E+03</pdfrwt>
<totfact> 0.51419046E+04</totfact>
</mgrwt>
</event>
<event>
 4    1  0.4151607E+000  0.2159393E+03  0.7546771E-02  0.1136947E+00
         21   -1    0    0  503  502  0.00000000000E+00  0.00000000000E+00  0.48436275595E+03  0.48436275595E+03  0.00000000000E+00 0.  1.
         21   -1    0    0  501  503 -0.00000000000E+00 -0.00000000000E+00 -0.18646985121E+03  0.18646985121E+03  0.00000000000E+00 0.  1.
          6    1    1    2  501    0  0.22155313229E+02 -0.12731817255E+03 -0.84335912815E+02  0.23182390117E+03  0.17300000000E+03 0.  1.
         -6    1    1    2    0  502 -0.22155313229E+02  0.12731817255E+03  0.38222881755E+03  0.43900870598E+03  0.17300000000E+03 0.  1.
<mgrwt>
<rscale>  2 0.21593929E+03</rscale>
<asrwt>0</asrwt>
<pdfrwt beam="1">  1       21 0.74517347E-01 0.21593929E+03</pdfrwt>
<pdfrwt beam="2">  1       21 0.28687670E-01 0.21593929E+03</pdfrwt>
<totfact> 0.18488776E+04</totfact>
</mgrwt>
</event>
<event>
 4    1  0.4151607E+000  0.2343097E+03  0.7546771E-02  0.1123643E+00
         21   -1    0    0  501  502  0.00000000000E+00  0.00000000000E+00  0.36912538726E+03  0.36912538726E+03  0.00000000000E+00 0. -1.
         21   -1    0    0  502  503 -0.00000000000E+00 -0.00000000000E+00 -0.15601274337E+03  0.15601274337E+03  0.00000000000E+00 0. -1.
          6    1    1    2  501    0  0.12507140782E+03  0.96587597903E+02  0.16327551572E+03  0.28558696602E+03  0.17300000000E+03 0. -1.
         -6    1    1    2    0  503 -0.12507140782E+03 -0.96587597903E+02  0.49837128173E+02  0.23955116461E+03  0.17300000000E+03 0. -1.
<mgrwt>
<rscale>  2 0.23430967E+03</rscale>
<asrwt>0</asrwt>
<pdfrwt beam="1">  1       21 0.56788521E-01 0.23430967E+03</pdfrwt>
<pdfrwt beam="2">  1       21 0.24001961E-01 0.23430967E+03</pdfrwt>
<totfact> 0.46784296E+04</totfact>
</mgrwt>
</event>
<event>
 4    1  0.4151607E+000  0.4219959E+03  0.7546771E-02  0.1036419E+00
         21   -1    0    0  503  502  0.00000000000E+00  0.00000000000E+00  0.87279259274E+03  0.87279259274E+03  0.00000000000E+00 0.  1.
         21   -1    0    0  501  503 -0.00000000000E+00 -0.00000000000E+00 -0.21947520994E+03  0.21947520994E+03  0.00000000000E+00 0.  1.
          6    1    1    2  501    0  0.38378599920E+03  0.29322543271E+02  0.18180529564E+03  0.45949284025E+03  0.17300000000E+03 0.  1.
         -6    1    1    2    0  502 -0.38378599920E+03 -0.29322543271E+02  0.47151208717E+03  0.63277496242E+03  0.17300000000E+03 0.  1.
<mgrwt>
<rscale>  2 0.42199586E+03</rscale>
<asrwt>0</asrwt>
<pdfrwt beam="1">  1       21 0.13427578E+00 0.42199586E+03</pdfrwt>
<pdfrwt beam="2">  1       21 0.33765417E-01 0.42199586E+03</pdfrwt>
<totfact> 0.29418144E+03</totfact>
</mgrwt>
</event>
<event>
 4    1  0.4151607E+000  0.2684967E+03  0.7546771E-02  0.1102143E+00
         21   -1    0    0  501  502  0.00000000000E+00  0.00000000000E+00  0.55845208231E+03  0.55845208231E+03  0.00000000000E+00 0.  1.
         21   -1    0    0  502  503 -0.00000000000E+00 -0.00000000000E+00 -0.12930525080E+03  0.12930525080E+03  0.00000000000E+00 0. -1.
          6    1    1    2  501    0 -0.30866553937E+02  0.20299939788E+03  0.22860844461E+03  0.35263624408E+03  0.17300000000E+03 0.  1.
         -6    1    1    2    0  503  0.30866553937E+02 -0.20299939788E+03  0.20053838690E+03  0.33512108903E+03  0.17300000000E+03 0.  1.
<mgrwt>
<rscale>  2 0.26849674E+03</rscale>
<asrwt>0</asrwt>
<pdfrwt beam="1">  1       21 0.85915703E-01 0.26849674E+03</pdfrwt>
<pdfrwt beam="2">  1       21 0.19893116E-01 0.26849674E+03</pdfrwt>
<totfact> 0.26232604E+04</totfact>
</mgrwt>
</event>
<event>
 4    1  0.4151607E+000  0.2759440E+03  0.7546771E-02  0.1097925E+00
         21   -1    0    0  501  502  0.00000000000E+00  0.00000000000E+00  0.63463868553E+03  0.63463868553E+03  0.00000000000E+00 0. -1.
         21   -1    0    0  502  503 -0.00000000000E+00 -0.00000000000E+00 -0.14181979083E+03  0.14181979083E+03  0.00000000000E+00 0.  1.
          6    1    1    2  501    0  0.79026144519E+02  0.19992743285E+03  0.39875363023E+03  0.48492222835E+03  0.17300000000E+03 0. -1.
         -6    1    1    2    0  503 -0.79026144519E+02 -0.19992743285E+03  0.94065264471E+02  0.29153624801E+03  0.17300000000E+03 0.  1.
<mgrwt>
<rscale>  2 0.27594403E+03</rscale>
<asrwt>0</asrwt>
<pdfrwt beam="1">  1       21 0.97636719E-01 0.27594403E+03</pdfrwt>
<pdfrwt beam="2">  1       21 0.21818430E-01 0.27594403E+03</pdfrwt>
<totfact> 0.16264021E+04</totfact>
</mgrwt>
</event>
<event>
 4    1  0.4151607E+000  0.1765912E+03  0.7546771E-02  0.1171143E+00
         21   -1    0    0  503  502  0.00000000000E+00  0.00000000000E+00  0.50215027997E+03  0.50215027997E+03  0.00000000000E+00 0. -1.
         21   -1    0    0  501  503 -0.00000000000E+00 -0.00000000000E+00 -0.67493883781E+02  0.67493883781E+02  0.00000000000E+00 0. -1.
          6    1    1    2  501    0 -0.36341489112E+01  0.35245444345E+02  0.13682395151E+03  0.22339481214E+03  0.17300000000E+03 0. -1.
         -6    1    1    2    0  502  0.36341489112E+01 -0.35245444345E+02  0.29783244468E+03  0.34624935161E+03  0.17300000000E+03 0. -1.
<mgrwt>
<rscale>  2 0.17659119E+03</rscale>
<asrwt>0</asrwt>
<pdfrwt beam="1">  1       21 0.77253887E-01 0.17659119E+03</pdfrwt>
<pdfrwt beam="2">  1       21 0.10383675E-01 0.17659119E+03</pdfrwt>
<totfact> 0.11364869E+05</totfact>
</mgrwt>
</event>
<event>
 4    1  0.4151607E+000  0.1795523E+03  0.7546771E-02  0.1168237E+00
         21   -1    0    0  501  502  0.00000000000E+00  0.00000000000E+00  0.25628401777E+03  0.25628401777E+03  0.00000000000E+00 0. -1.
         21   -1    0    0  502  503 -0.00000000000E+00 -0.00000000000E+00 -0.12764013867E+03  0.12764013867E+03  0.00000000000E+00 0. -1.
          6    1    1    2  501    0 -0.47076409977E+02 -0.96872143678E+01  0.87407274247E+02  0.19969742635E+03  0.17300000000E+03 0. -1.
         -6    1    1    2    0  503  0.47076409977E+02  0.96872143678E+01  0.41236604851E+02  0.18422673009E+03  0.17300000000E+03 0. -1.
<mgrwt>
<rscale>  2 0.17955231E+03</rscale>
<asrwt>0</asrwt>
<pdfrwt beam="1">  1       21 0.39428310E-01 0.17955231E+03</pdfrwt>
<pdfrwt beam="2">  1       21 0.19636944E-01 0.17955231E+03</pdfrwt>
<totfact> 0.14874854E+05</totfact>
</mgrwt>
</event>
<event>
 4    1  0.4151607E+000  0.2031769E+03  0.7546771E-02  0.1147086E+00
         21   -1    0    0  503  502  0.00000000000E+00  0.00000000000E+00  0.50406433512E+03  0.50406433512E+03  0.00000000000E+00 0. -1.
         21   -1    0    0  501  503 -0.00000000000E+00 -0.00000000000E+00 -0.85345975989E+02  0.85345975989E+02  0.00000000000E+00 0. -1.
          6    1    1    2  501    0  0.78086676037E+02 -0.72486809941E+02  0.15010724675E+03  0.25261245440E+03  0.17300000000E+03 0. -1.
         -6    1    1    2    0  502 -0.78086676037E+02  0.72486809941E+02  0.26861111238E+03  0.33679785671E+03  0.17300000000E+03 0. -1.
<mgrwt>
<rscale>  2 0.20317693E+03</rscale>
<asrwt>0</asrwt>
<pdfrwt beam="1">  1       21 0.77548357E-01 0.20317693E+03</pdfrwt>
<pdfrwt beam="2">  1       21 0.13130150E-01 0.20317693E+03</pdfrwt>
<totfact> 0.73305740E+04</totfact>
</mgrwt>
</event>
<event>
 4    1  0.4151607E+000  0.3390225E+03  0.7546771E-02  0.1067213E+00
         21   -1    0    0  503  502  0.00000000000E+00  0.00000000000E+00  0.33287933043E+03  0.33287933043E+03  0.00000000000E+00 0.  1.
         21   -1    0    0  501  503 -0.00000000000E+00 -0.00000000000E+00 -0.36655718546E+03  0.36655718546E+03  0.00000000000E+00 0.  1.
          6    1    1    2  501    0  0.55183510911E+02  0.28629012620E+03 -0.10109754064E+03  0.35377530858E+03  0.17300000000E+03 0.  1.
         -6    1    1    2    0  502 -0.55183510911E+02 -0.28629012620E+03  0.67419685609E+02  0.34566120732E+03  0.17300000000E+03 0.  1.
<mgrwt>
<rscale>  2 0.33902250E+03</rscale>
<asrwt>0</asrwt>
<pdfrwt beam="1">  1       21 0.51212205E-01 0.33902250E+03</pdfrwt>
<pdfrwt beam="2">  1       21 0.56393413E-01 0.33902250E+03</pdfrwt>
<totfact> 0.99291270E+03</totfact>
</mgrwt>
</event>
<event>
 4    1  0.4151607E+000  0.2064767E+03  0.7546771E-02  0.1144387E+00
         21   -1    0    0  501  502  0.00000000000E+00  0.00000000000E+00  0.82306820272E+02  0.82306820272E+02  0.00000000000E+00 0. -1.
         21   -1    0    0  502  503 -0.00000000000E+00 -0.00000000000E+00 -0.11093052133E+04  0.11093052133E+04  0.00000000000E+00 0.  1.
          6    1    1    2  501    0  0.63281183477E+02  0.93269053345E+02 -0.78492932280E+02  0.22089310743E+03  0.17300000000E+03 0. -1.
         -6    1    1    2    0  503 -0.63281183477E+02 -0.93269053345E+02 -0.94850546078E+03  0.97071892617E+03  0.17300000000E+03 0.  1.
<mgrwt>
<rscale>  2 0.20647669E+03</rscale>
<asrwt>0</asrwt>
<pdfrwt beam="1">  1       21 0.12662589E-01 0.20647669E+03</pdfrwt>
<pdfrwt beam="2">  1       21 0.17066233E+00 0.20647669E+03</pdfrwt>
<totfact> 0.11131583E+04</totfact>
</mgrwt>
</event>
<event>
 4    1  0.4151607E+000  0.2682408E+03  0.7546771E-02  0.1102291E+00
         21   -1    0    0  501  502  0.00000000000E+00  0.00000000000E+00  0.36613431863E+03  0.36613431863E+03  0.00000000000E+00 0. -1.
         21   -1    0    0  502  503 -0.00000000000E+00 -0.00000000000E+00 -0.20316911034E+03  0.20316911034E+03  0.00000000000E+00 0. -1.
          6    1    1    2  501    0 -0.50223876391E+02  0.19875038371E+03  0.13297318580E+03  0.29939108357E+03  0.17300000000E+03 0. -1.
         -6    1    1    2    0  503  0.50223876391E+02 -0.19875038371E+03  0.29992022498E+02  0.26991234539E+03  0.17300000000E+03 0. -1.
<mgrwt>
<rscale>  2 0.26824085E+03</rscale>
<asrwt>0</asrwt>
<pdfrwt beam="1">  1       21 0.56328357E-01 0.26824085E+03</pdfrwt>
<pdfrwt beam="2">  1       21 0.31256786E-01 0.26824085E+03</pdfrwt>
<totfact> 0.28105019E+04</totfact>
</mgrwt>
</event>
<event>
 4    1  0.4151607E+000  0.1793379E+03  0.7546771E-02  0.1168445E+00
         21   -1    0    0  501  502  0.00000000000E+00  0.00000000000E+00  0.29883675082E+03  0.29883675082E+03  0.00000000000E+00 0. -1.
         21   -1    0    0  502  503 -0.00000000000E+00 -0.00000000000E+00 -0.14140526538E+03  0.14140526538E+03  0.00000000000E+00 0. -1.
          6    1    1    2  501    0  0.42809088088E+01 -0.47061263854E+02  0.18630400415E+03  0.25859480022E+03  0.17300000000E+03 0. -1.
         -6    1    1    2    0  503 -0.42809088088E+01  0.47061263854E+02 -0.28872518715E+02  0.18164721598E+03  0.17300000000E+03 0. -1.
<mgrwt>
<rscale>  2 0.17933792E+03</rscale>
<asrwt>0</asrwt>
<pdfrwt beam="1">  1       21 0.45974885E-01 0.17933792E+03</pdfrwt>
<pdfrwt beam="2">  1       21 0.21754656E-01 0.17933792E+03</pdfrwt>
<totfact> 0.89863218E+04</totfact>
</mgrwt>
</event>
<event>
 4    1  0.4151607E+000  0.2863487E+03  0.7546771E-02  0.1092271E+00
         21   -1    0    0  501  502  0.00000000000E+00  0.00000000000E+00  0.13414171751E+03  0.13414171751E+03  0.00000000000E+00 0.  1.
         21   -1    0    0  502  503 -0.00000000000E+00 -0.00000000000E+00 -0.80901955651E+03  0.80901955651E+03  0.00000000000E+00 0. -1.
          6    1    1    2  501    0 -0.21273880219E+03 -0.82515391603E+02 -0.10428420614E+03  0.30474708114E+03  0.17300000000E+03 0.  1.
         -6    1    1    2    0  503  0.21273880219E+03  0.82515391603E+02 -0.57059363286E+03  0.63841419288E+03  0.17300000000E+03 0. -1.
<mgrwt>
<rscale>  2 0.28634872E+03</rscale>
<asrwt>0</asrwt>
<pdfrwt beam="1">  1       21 0.20637188E-01 0.28634872E+03</pdfrwt>
<pdfrwt beam="2">  1       21 0.12446454E+00 0.28634872E+03</pdfrwt>
<totfact> 0.99127721E+03</totfact>
</mgrwt>
</event>
<event>
 4    1  0.4151607E+000  0.2685567E+03  0.7546771E-02  0.1102109E+00
         21   -1    0    0  503  502  0.00000000000E+00  0.00000000000E+00  0.31369564640E+03  0.31369564640E+03  0.00000000000E+00 0.  1.
         21   -1    0    0  501  503 -0.00000000000E+00 -0.00000000000E+00 -0.12979594866E+04  0.12979594866E+04  0.00000000000E+00 0. -1.
          6    1    1    2  501    0  0.43138965733E+02  0.20083007607E+03 -0.12231138491E+04  0.12522500460E+04  0.17300000000E+03 0. -1.
         -6    1    1    2    0  502 -0.43138965733E+02 -0.20083007607E+03  0.23885000889E+03  0.35940508701E+03  0.17300000000E+03 0.  1.
<mgrwt>
<rscale>  2 0.26855668E+03</rscale>
<asrwt>0</asrwt>
<pdfrwt beam="1">  1       21 0.48260869E-01 0.26855668E+03</pdfrwt>
<pdfrwt beam="2">  1       21 0.19968607E+00 0.26855668E+03</pdfrwt>
<totfact> 0.51160956E+02</totfact>
</mgrwt>
</event>
<event>
 4    1  0.4151607E+000  0.3438965E+03  0.7546771E-02  0.1065148E+00
         21   -1    0    0  503  502  0.00000000000E+00  0.00000000000E+00  0.18364273521E+03  0.18364273521E+03  0.00000000000E+00 0. -1.
         21   -1    0    0  501  503 -0.00000000000E+00 -0.00000000000E+00 -0.10367968406E+04  0.10367968406E+04  0.00000000000E+00 0.  1.
          6    1    1    2  501    0 -0.18473035152E+03  0.23283141241E+03 -0.80217820435E+03  0.87278556411E+03  0.17300000000E+03 0.  1.
         -6    1    1    2    0  502  0.18473035152E+03 -0.23283141241E+03 -0.50975901058E+02  0.34765401172E+03  0.17300000000E+03 0. -1.
<mgrwt>
<rscale>  2 0.34389645E+03</rscale>
<asrwt>0</asrwt>
<pdfrwt beam="1">  1       21 0.28252728E-01 0.34389645E+03</pdfrwt>
<pdfrwt beam="2">  1       21 0.15950721E+00 0.34389645E+03</pdfrwt>
<totfact> 0.27363218E+03</totfact>
</mgrwt>
</event>
<event>
 4    1  0.4151607E+000  0.1923332E+03  0.7546771E-02  0.1156374E+00
         21   -1    0    0  501  502  0.00000000000E+00  0.00000000000E+00  0.61946221390E+03  0.61946221390E+03  0.00000000000E+00 0. -1.
         21   -1    0    0  502  503 -0.00000000000E+00 -0.00000000000E+00 -0.65558181850E+02  0.65558181850E+02  0.00000000000E+00 0. -1.
          6    1    1    2  501    0 -0.47386670822E+02  0.69408744956E+02  0.37919457200E+03  0.42518301222E+03  0.17300000000E+03 0. -1.
         -6    1    1    2    0  503  0.47386670822E+02 -0.69408744956E+02  0.17470946005E+03  0.25983738353E+03  0.17300000000E+03 0. -1.
<mgrwt>
<rscale>  2 0.19233323E+03</rscale>
<asrwt>0</asrwt>
<pdfrwt beam="1">  1       21 0.95301875E-01 0.19233323E+03</pdfrwt>
<pdfrwt beam="2">  1       21 0.10085875E-01 0.19233323E+03</pdfrwt>
<totfact> 0.73507298E+04</totfact>
</mgrwt>
</event>
<event>
 4    1  0.4151607E+000  0.2287127E+03  0.7546771E-02  0.1127549E+00
         21   -1    0    0  503  502  0.00000000000E+00  0.00000000000E+00  0.12390972190E+03  0.12390972190E+03  0.00000000000E+00 0. -1.
         21   -1    0    0  501  503 -0.00000000000E+00 -0.00000000000E+00 -0.66048596112E+03  0.66048596112E+03  0.00000000000E+00 0. -1.
          6    1    1    2  501    0 -0.14953015429E+03 -0.46066254127E+01 -0.50388028623E+03  0.55335777838E+03  0.17300000000E+03 0. -1.
         -6    1    1    2    0  502  0.14953015429E+03  0.46066254127E+01 -0.32695952985E+02  0.23103790464E+03  0.17300000000E+03 0. -1.
<mgrwt>
<rscale>  2 0.22871268E+03</rscale>
<asrwt>0</asrwt>
<pdfrwt beam="1">  1       21 0.19063034E-01 0.22871268E+03</pdfrwt>
<pdfrwt beam="2">  1       21 0.10161323E+00 0.22871268E+03</pdfrwt>
<totfact> 0.19524321E+04</totfact>
</mgrwt>
</event>
<event>
 4    1  0.4151607E+000  0.2190800E+03  0.7546771E-02  0.1134571E+00
         21   -1    0    0  503  502  0.00000000000E+00  0.00000000000E+00  0.43683601499E+02  0.43683601499E+02  0.00000000000E+00 0.  1.
         21   -1    0    0  501  503 -0.00000000000E+00 -0.00000000000E+00 -0.19408817642E+04  0.19408817642E+04  0.00000000000E+00 0.  1.
          6    1    1    2  501    0 -0.11398904644E+03 -0.71228799101E+02 -0.16022315913E+04  0.16171401042E+04  0.17300000000E+03 0.  1.
         -6    1    1    2    0  502  0.11398904644E+03  0.71228799101E+02 -0.29496657142E+03  0.36742526149E+03  0.17300000000E+03 0.  1.
<mgrwt>
<rscale>  2 0.21908000E+03</rscale>
<asrwt>0</asrwt>
<pdfrwt beam="1">  1       21 0.67205535E-02 0.21908000E+03</pdfrwt>
<pdfrwt beam="2">  1       21 0.29859722E+00 0.21908000E+03</pdfrwt>
<totfact> 0.54840177E+03</totfact>
</mgrwt>
</event>
<event>
 4    1  0.4151607E+000  0.1881862E+03  0.7546771E-02  0.1160108E+00
         21   -1    0    0  501  502  0.00000000000E+00  0.00000000000E+00  0.39839058389E+03  0.39839058389E+03  0.00000000000E+00 0.  1.
         21   -1    0    0  502  503 -0.00000000000E+00 -0.00000000000E+00 -0.88917129469E+02  0.88917129469E+02  0.00000000000E+00 0. -1.
          6    1    1    2  501    0 -0.47279874794E+02 -0.57005668736E+02  0.15070183675E+03  0.24109142753E+03  0.17300000000E+03 0. -1.
         -6    1    1    2    0  503  0.47279874794E+02  0.57005668736E+02  0.15877161767E+03  0.24621628583E+03  0.17300000000E+03 0. -1.
<mgrwt>
<rscale>  2 0.18818617E+03</rscale>
<asrwt>0</asrwt>
<pdfrwt beam="1">  1       21 0.61290858E-01 0.18818617E+03</pdfrwt>
<pdfrwt beam="2">  1       21 0.13679559E-01 0.18818617E+03</pdfrwt>
<totfact> 0.11495584E+05</totfact>
</mgrwt>
</event>
<event>
 4    1  0.4151607E+000  0.1778331E+03  0.7546771E-02  0.1169917E+00
         21   -1    0    0  501  502  0.00000000000E+00  0.00000000000E+00  0.17255626953E+03  0.17255626953E+03  0.00000000000E+00 0. -1.
         21   -1    0    0  502  503 -0.00000000000E+00 -0.00000000000E+00 -0.19640693272E+03  0.19640693272E+03  0.00000000000E+00 0. -1.
          6    1    1    2  501    0  0.40559466975E+02 -0.71101903821E+01  0.35783510268E+02  0.18139758757E+03  0.17300000000E+03 0. -1.
         -6    1    1    2    0  503 -0.40559466975E+02  0.71101903821E+01 -0.59634173460E+02  0.18756561469E+03  0.17300000000E+03 0. -1.
<mgrwt>
<rscale>  2 0.17783314E+03</rscale>
<asrwt>0</asrwt>
<pdfrwt beam="1">  1       21 0.26547118E-01 0.17783314E+03</pdfrwt>
<pdfrwt beam="2">  1       21 0.30216451E-01 0.17783314E+03</pdfrwt>
<totfact> 0.14256321E+05</totfact>
</mgrwt>
</event>
<event>
 4    1  0.4151607E+000  0.1824358E+03  0.7546771E-02  0.1165466E+00
         21   -1    0    0  501  502  0.00000000000E+00  0.00000000000E+00  0.28460194965E+03  0.28460194965E+03  0.00000000000E+00 0.  1.
         21   -1    0    0  502  503 -0.00000000000E+00 -0.00000000000E+00 -0.21952638687E+03  0.21952638687E+03  0.00000000000E+00 0.  1.
          6    1    1    2  501    0  0.39076931090E+02  0.42741320892E+02  0.20484427507E+03  0.27430640547E+03  0.17300000000E+03 0.  1.
         -6    1    1    2    0  503 -0.39076931090E+02 -0.42741320892E+02 -0.13976871229E+03  0.22982193105E+03  0.17300000000E+03 0.  1.
<mgrwt>
<rscale>  2 0.18243582E+03</rscale>
<asrwt>0</asrwt>
<pdfrwt beam="1">  1       21 0.43784915E-01 0.18243582E+03</pdfrwt>
<pdfrwt beam="2">  1       21 0.33773290E-01 0.18243582E+03</pdfrwt>
<totfact> 0.42542697E+04</totfact>
</mgrwt>
</event>
<event>
 4    1  0.4151607E+000  0.2058568E+03  0.7546771E-02  0.1144890E+00
         21   -1    0    0  503  502  0.00000000000E+00  0.00000000000E+00  0.29231219540E+03  0.29231219540E+03  0.00000000000E+00 0. -1.
         21   -1    0    0  501  503 -0.00000000000E+00 -0.00000000000E+00 -0.34239640887E+03  0.34239640887E+03  0.00000000000E+00 0.  1.
          6    1    1    2  501    0 -0.20503759418E+02  0.10967049984E+03 -0.26602179703E+03  0.33636976556E+03  0.17300000000E+03 0.  1.
         -6    1    1    2    0  502  0.20503759418E+02 -0.10967049984E+03  0.21593758357E+03  0.29833883871E+03  0.17300000000E+03 0. -1.
<mgrwt>
<rscale>  2 0.20585680E+03</rscale>
<asrwt>0</asrwt>
<pdfrwt beam="1">  1       21 0.44971107E-01 0.20585680E+03</pdfrwt>
<pdfrwt beam="2">  1       21 0.52676370E-01 0.20585680E+03</pdfrwt>
<totfact> 0.16077070E+04</totfact>
</mgrwt>
</event>
<event>
 4    1  0.4151607E+000  0.1890841E+03  0.7546771E-02  0.1159290E+00
         21   -1    0    0  501  502  0.00000000000E+00  0.00000000000E+00  0.25111893312E+03  0.25111893312E+03  0.00000000000E+00 0.  1.
         21   -1    0    0  502  503 -0.00000000000E+00 -0.00000000000E+00 -0.14573615853E+03  0.14573615853E+03  0.00000000000E+00 0.  1.
          6    1    1    2  501    0  0.69335120779E+02 -0.31881597481E+02  0.82830496917E+02  0.20643082728E+03  0.17300000000E+03 0.  1.
         -6    1    1    2    0  503 -0.69335120779E+02  0.31881597481E+02  0.22552277674E+02  0.19042426437E+03  0.17300000000E+03 0.  1.
<mgrwt>
<rscale>  2 0.18908410E+03</rscale>
<asrwt>0</asrwt>
<pdfrwt beam="1">  1       21 0.38633682E-01 0.18908410E+03</pdfrwt>
<pdfrwt beam="2">  1       21 0.22420948E-01 0.18908410E+03</pdfrwt>
<totfact> 0.12047995E+05</totfact>
</mgrwt>
</event>
<event>
 4    1  0.4151607E+000  0.6251949E+03  0.7546771E-02  0.9854471E-01
         21   -1    0    0  503  502  0.00000000000E+00  0.00000000000E+00  0.47872955344E+03  0.47872955344E+03  0.00000000000E+00 0.  1.
         21   -1    0    0  501  503 -0.00000000000E+00 -0.00000000000E+00 -0.91932599395E+03  0.91932599395E+03  0.00000000000E+00 0. -1.
          6    1    1    2  501    0 -0.14327095262E+03  0.58344927968E+03 -0.45411361374E+03  0.77271456697E+03  0.17300000000E+03 0. -1.
         -6    1    1    2    0  502  0.14327095262E+03 -0.58344927968E+03  0.13517173235E+02  0.62534098042E+03  0.17300000000E+03 0.  1.
<mgrwt>
<rscale>  2 0.62519487E+03</rscale>
<asrwt>0</asrwt>
<pdfrwt beam="1">  1       21 0.73650701E-01 0.62519487E+03</pdfrwt>
<pdfrwt beam="2">  1       21 0.14143477E+00 0.62519487E+03</pdfrwt>
<totfact> 0.44942087E+02</totfact>
</mgrwt>
</event>
<event>
 4    1  0.4151607E+000  0.2042645E+03  0.7546771E-02  0.1146190E+00
         21   -1    0    0  503  502  0.00000000000E+00  0.00000000000E+00  0.83885455180E+03  0.83885455180E+03  0.00000000000E+00 0. -1.
         21   -1    0    0  501  503 -0.00000000000E+00 -0.00000000000E+00 -0.51540472355E+02  0.51540472355E+02  0.00000000000E+00 0.  1.
          6    1    1    2  501    0  0.78384895876E+02 -0.75171752909E+02  0.47688397640E+03  0.51878927445E+03  0.17300000000E+03 0. -1.
         -6    1    1    2    0  502 -0.78384895876E+02  0.75171752909E+02  0.31043010304E+03  0.37160574970E+03  0.17300000000E+03 0.  1.
<mgrwt>
<rscale>  2 0.20426450E+03</rscale>
<asrwt>0</asrwt>
<pdfrwt beam="1">  1       21 0.12905454E+00 0.20426450E+03</pdfrwt>
<pdfrwt beam="2">  1       21 0.79293041E-02 0.20426450E+03</pdfrwt>
<totfact> 0.53325971E+04</totfact>
</mgrwt>
</event>
<event>
 4    1  0.4151607E+000  0.2463232E+03  0.7546771E-02  0.1115651E+00
         21   -1    0    0  503  502  0.00000000000E+00  0.00000000000E+00  0.42294581646E+03  0.42294581646E+03  0.00000000000E+00 0. -1.
         21   -1    0    0  501  503 -0.00000000000E+00 -0.00000000000E+00 -0.25023866569E+03  0.25023866569E+03  0.00000000000E+00 0. -1.
          6    1    1    2  501    0 -0.84500650071E+02  0.15364173262E+03 -0.13351964375E+03  0.28018322065E+03  0.17300000000E+03 0. -1.
         -6    1    1    2    0  502  0.84500650071E+02 -0.15364173262E+03  0.30622679452E+03  0.39300126150E+03  0.17300000000E+03 0. -1.
<mgrwt>
<rscale>  2 0.24632325E+03</rscale>
<asrwt>0</asrwt>
<pdfrwt beam="1">  1       21 0.65068587E-01 0.24632325E+03</pdfrwt>
<pdfrwt beam="2">  1       21 0.38498257E-01 0.24632325E+03</pdfrwt>
<totfact> 0.13704210E+04</totfact>
</mgrwt>
</event>
<event>
 4    1  0.4151607E+000  0.1802767E+03  0.7546771E-02  0.1167535E+00
         21   -1    0    0  503  502  0.00000000000E+00  0.00000000000E+00  0.11259620573E+03  0.11259620573E+03  0.00000000000E+00 0.  1.
         21   -1    0    0  501  503 -0.00000000000E+00 -0.00000000000E+00 -0.57792221099E+03  0.57792221099E+03  0.00000000000E+00 0.  1.
          6    1    1    2  501    0 -0.50334254635E+02 -0.60964481820E+01 -0.47693398252E+03  0.50986834335E+03  0.17300000000E+03 0.  1.
         -6    1    1    2    0  502  0.50334254635E+02  0.60964481820E+01  0.11607977258E+02  0.18065007336E+03  0.17300000000E+03 0.  1.
<mgrwt>
<rscale>  2 0.18027674E+03</rscale>
<asrwt>0</asrwt>
<pdfrwt beam="1">  1       21 0.17322493E-01 0.18027674E+03</pdfrwt>
<pdfrwt beam="2">  1       21 0.88911110E-01 0.18027674E+03</pdfrwt>
<totfact> 0.32784355E+04</totfact>
</mgrwt>
</event>
<event>
 4    1  0.4151607E+000  0.3825871E+03  0.7546771E-02  0.1049982E+00
         21   -1    0    0  503  502  0.00000000000E+00  0.00000000000E+00  0.20497236575E+03  0.20497236575E+03  0.00000000000E+00 0. -1.
         21   -1    0    0  501  503 -0.00000000000E+00 -0.00000000000E+00 -0.15602311311E+04  0.15602311311E+04  0.00000000000E+00 0.  1.
          6    1    1    2  501    0 -0.30609967347E+03 -0.15082072760E+03 -0.13275891537E+04  0.13816171188E+04  0.17300000000E+03 0.  1.
         -6    1    1    2    0  502  0.30609967347E+03  0.15082072760E+03 -0.27669611585E+02  0.38358637798E+03  0.17300000000E+03 0. -1.
<mgrwt>
<rscale>  2 0.38258712E+03</rscale>
<asrwt>0</asrwt>
<pdfrwt beam="1">  1       21 0.31534210E-01 0.38258712E+03</pdfrwt>
<pdfrwt beam="2">  1       21 0.24003556E+00 0.38258712E+03</pdfrwt>
<totfact> 0.62392825E+02</totfact>
</mgrwt>
</event>
<event>
 4    1  0.4151607E+000  0.2045229E+03  0.7546771E-02  0.1145978E+00
         21   -1    0    0  501  502  0.00000000000E+00  0.00000000000E+00  0.19535652902E+03  0.19535652902E+03  0.00000000000E+00 0.  1.
         21   -1    0    0  502  503 -0.00000000000E+00 -0.00000000000E+00 -0.36857824737E+03  0.36857824737E+03  0.00000000000E+00 0.  1.
          6    1    1    2  501    0  0.10894731923E+03 -0.55762588453E+01  0.95921764491E+02  0.22589953062E+03  0.17300000000E+03 0.  1.
         -6    1    1    2    0  503 -0.10894731923E+03  0.55762588453E+01 -0.26914348284E+03  0.33803524577E+03  0.17300000000E+03 0.  1.
<mgrwt>
<rscale>  2 0.20452289E+03</rscale>
<asrwt>0</asrwt>
<pdfrwt beam="1">  1       21 0.30054851E-01 0.20452289E+03</pdfrwt>
<pdfrwt beam="2">  1       21 0.56704344E-01 0.20452289E+03</pdfrwt>
<totfact> 0.30843596E+04</totfact>
</mgrwt>
</event>
<event>
 4    1  0.4151607E+000  0.1927882E+03  0.7546771E-02  0.1155970E+00
         21   -1    0    0  501  502  0.00000000000E+00  0.00000000000E+00  0.92983213416E+02  0.92983213416E+02  0.00000000000E+00 0. -1.
         21   -1    0    0  502  503 -0.00000000000E+00 -0.00000000000E+00 -0.45930206668E+03  0.45930206668E+03  0.00000000000E+00 0. -1.
          6    1    1    2  501    0  0.83571376297E+02  0.15941216173E+02 -0.83701316494E+02  0.21017423175E+03  0.17300000000E+03 0. -1.
         -6    1    1    2    0  503 -0.83571376297E+02 -0.15941216173E+02 -0.28261753677E+03  0.34211104834E+03  0.17300000000E+03 0. -1.
<mgrwt>
<rscale>  2 0.19278822E+03</rscale>
<asrwt>0</asrwt>
<pdfrwt beam="1">  1       21 0.14305110E-01 0.19278822E+03</pdfrwt>
<pdfrwt beam="2">  1       21 0.70661856E-01 0.19278822E+03</pdfrwt>
<totfact> 0.77602784E+04</totfact>
</mgrwt>
</event>
<event>
 4    1  0.4151607E+000  0.1831351E+03  0.7546771E-02  0.1164803E+00
         21   -1    0    0  503  502  0.00000000000E+00  0.00000000000E+00  0.20890184993E+02  0.20890184993E+02  0.00000000000E+00 0.  1.
         21   -1    0    0  501  503 -0.00000000000E+00 -0.00000000000E+00 -0.16181967065E+04  0.16181967065E+04  0.00000000000E+00 0. -1.
          6    1    1    2  501    0 -0.56993458540E+02  0.19005665573E+02 -0.87134623814E+03  0.89038347714E+03  0.17300000000E+03 0. -1.
         -6    1    1    2    0  502  0.56993458540E+02 -0.19005665573E+02 -0.72596028337E+03  0.74870341436E+03  0.17300000000E+03 0.  1.
<mgrwt>
<rscale>  2 0.18313511E+03</rscale>
<asrwt>0</asrwt>
<pdfrwt beam="1">  1       21 0.32138734E-02 0.18313511E+03</pdfrwt>
<pdfrwt beam="2">  1       21 0.24895344E+00 0.18313511E+03</pdfrwt>
<totfact> 0.38365032E+04</totfact>
</mgrwt>
</event>
<event>
 4    1  0.4151607E+000  0.2621614E+03  0.7546771E-02  0.1105852E+00
         21   -1    0    0  501  502  0.00000000000E+00  0.00000000000E+00  0.45532051389E+03  0.45532051389E+03  0.00000000000E+00 0. -1.
         21   -1    0    0  502  503 -0.00000000000E+00 -0.00000000000E+00 -0.22827414122E+03  0.22827414122E+03  0.00000000000E+00 0. -1.
          6    1    1    2  501    0 -0.12735910996E+03 -0.15026394421E+03  0.31245782622E+03  0.40787067679E+03  0.17300000000E+03 0. -1.
         -6    1    1    2    0  503  0.12735910996E+03  0.15026394421E+03 -0.85411453554E+02  0.27572397831E+03  0.17300000000E+03 0. -1.
<mgrwt>
<rscale>  2 0.26216139E+03</rscale>
<asrwt>0</asrwt>
<pdfrwt beam="1">  1       21 0.70049310E-01 0.26216139E+03</pdfrwt>
<pdfrwt beam="2">  1       21 0.35119099E-01 0.26216139E+03</pdfrwt>
<totfact> 0.13895796E+04</totfact>
</mgrwt>
</event>
<event>
 4    1  0.4151607E+000  0.2161855E+03  0.7546771E-02  0.1136759E+00
         21   -1    0    0  503  502  0.00000000000E+00  0.00000000000E+00  0.87799705626E+02  0.87799705626E+02  0.00000000000E+00 0. -1.
         21   -1    0    0  501  503 -0.00000000000E+00 -0.00000000000E+00 -0.56738787810E+03  0.56738787810E+03  0.00000000000E+00 0.  1.
          6    1    1    2  501    0  0.26936913696E+02 -0.12681315280E+03 -0.32125451963E+03  0.38722169287E+03  0.17300000000E+03 0. -1.
         -6    1    1    2    0  502 -0.26936913696E+02  0.12681315280E+03 -0.15833365285E+03  0.26796589086E+03  0.17300000000E+03 0.  1.
<mgrwt>
<rscale>  2 0.21618551E+03</rscale>
<asrwt>0</asrwt>
<pdfrwt beam="1">  1       21 0.13507647E-01 0.21618551E+03</pdfrwt>
<pdfrwt beam="2">  1       21 0.87290443E-01 0.21618551E+03</pdfrwt>
<totfact> 0.52870390E+04</totfact>
</mgrwt>
</event>
<event>
 4    1  0.4151607E+000  0.1953960E+03  0.7546771E-02  0.1153683E+00
         21   -1    0    0  503  502  0.00000000000E+00  0.00000000000E+00  0.58258896164E+02  0.58258896164E+02  0.00000000000E+00 0. -1.
         21   -1    0    0  501  503 -0.00000000000E+00 -0.00000000000E+00 -0.68117437894E+03  0.68117437894E+03  0.00000000000E+00 0.  1.
          6    1    1    2  501    0 -0.13970893082E+02  0.89752024345E+02 -0.38345337252E+03  0.43036740191E+03  0.17300000000E+03 0.  1.
         -6    1    1    2    0  502  0.13970893082E+02 -0.89752024345E+02 -0.23946211026E+03  0.30906587320E+03  0.17300000000E+03 0. -1.
<mgrwt>
<rscale>  2 0.19539604E+03</rscale>
<asrwt>0</asrwt>
<pdfrwt beam="1">  1       21 0.89629077E-02 0.19539604E+03</pdfrwt>
<pdfrwt beam="2">  1       21 0.10479605E+00 0.19539604E+03</pdfrwt>
<totfact> 0.72131603E+04</totfact>
</mgrwt>
</event>
<event>
 4    1  0.4151607E+000  0.1928678E+03  0.7546771E-02  0.1155900E+00
         21   -1    0    0  501  502  0.00000000000E+00  0.00000000000E+00  0.15514017111E+04  0.15514017111E+04  0.00000000000E+00 0. -1.
         21   -1    0    0  502  503 -0.00000000000E+00 -0.00000000000E+00 -0.24701389602E+02  0.24701389602E+02  0.00000000000E+00 0. -1.
          6    1    1    2  501    0 -0.80192287235E+02 -0.28951605411E+02  0.89830000713E+03  0.91877140856E+03  0.17300000000E+03 0. -1.
         -6    1    1    2    0  503  0.80192287235E+02  0.28951605411E+02  0.62840031433E+03  0.65733169210E+03  0.17300000000E+03 0. -1.
<mgrwt>
<rscale>  2 0.19286783E+03</rscale>
<asrwt>0</asrwt>
<pdfrwt beam="1">  1       21 0.23867711E+00 0.19286783E+03</pdfrwt>
<pdfrwt beam="2">  1       21 0.38002150E-02 0.19286783E+03</pdfrwt>
<totfact> 0.33118467E+04</totfact>
</mgrwt>
</event>
<event>
 4    1  0.4151607E+000  0.1826972E+03  0.7546771E-02  0.1165218E+00
         21   -1    0    0  503  502  0.00000000000E+00  0.00000000000E+00  0.12123885338E+04  0.12123885338E+04  0.00000000000E+00 0.  1.
         21   -1    0    0  501  503 -0.00000000000E+00 -0.00000000000E+00 -0.28488898035E+02  0.28488898035E+02  0.00000000000E+00 0.  1.
          6    1    1    2  501    0  0.12780077722E+02  0.57323111465E+02  0.47818170292E+03  0.51189453065E+03  0.17300000000E+03 0.  1.
         -6    1    1    2    0  502 -0.12780077722E+02 -0.57323111465E+02  0.70571793288E+03  0.72898290123E+03  0.17300000000E+03 0.  1.
<mgrwt>
<rscale>  2 0.18269721E+03</rscale>
<asrwt>0</asrwt>
<pdfrwt beam="1">  1       21 0.18652127E+00 0.18269721E+03</pdfrwt>
<pdfrwt beam="2">  1       21 0.43829083E-02 0.18269721E+03</pdfrwt>
<totfact> 0.55609287E+04</totfact>
</mgrwt>
</event>
<event>
 4    1  0.4151607E+000  0.2270406E+03  0.7546771E-02  0.1128740E+00
         21   -1    0    0  503  502  0.00000000000E+00  0.00000000000E+00  0.28687812352E+03  0.28687812352E+03  0.00000000000E+00 0. -1.
         21   -1    0    0  501  503 -0.00000000000E+00 -0.00000000000E+00 -0.20921920358E+03  0.20921920358E+03  0.00000000000E+00 0.  1.
          6    1    1    2  501    0  0.92564904431E+02  0.11423741457E+03 -0.54368216883E+02  0.23345952846E+03  0.17300000000E+03 0. -1.
         -6    1    1    2    0  502 -0.92564904431E+02 -0.11423741457E+03  0.13202713682E+03  0.26263779865E+03  0.17300000000E+03 0. -1.
<mgrwt>
<rscale>  2 0.22704063E+03</rscale>
<asrwt>0</asrwt>
<pdfrwt beam="1">  1       21 0.44135096E-01 0.22704063E+03</pdfrwt>
<pdfrwt beam="2">  1       21 0.32187570E-01 0.22704063E+03</pdfrwt>
<totfact> 0.45037795E+04</totfact>
</mgrwt>
</event>
<event>
 4    1  0.4151607E+000  0.2373462E+03  0.7546771E-02  0.1121573E+00
         21   -1    0    0  501  502  0.00000000000E+00  0.00000000000E+00  0.33019763200E+03  0.33019763200E+03  0.00000000000E+00 0. -1.
         21   -1    0    0  502  503 -0.00000000000E+00 -0.00000000000E+00 -0.33513481652E+03  0.33513481652E+03  0.00000000000E+00 0.  1.
          6    1    1    2  501    0 -0.11154476969E+03 -0.11816079208E+03  0.23062045968E+03  0.33093655714E+03  0.17300000000E+03 0. -1.
         -6    1    1    2    0  503  0.11154476969E+03  0.11816079208E+03 -0.23555764420E+03  0.33439589138E+03  0.17300000000E+03 0. -1.
<mgrwt>
<rscale>  2 0.23734618E+03</rscale>
<asrwt>0</asrwt>
<pdfrwt beam="1">  1       21 0.50799636E-01 0.23734618E+03</pdfrwt>
<pdfrwt beam="2">  1       21 0.51559203E-01 0.23734618E+03</pdfrwt>
<totfact> 0.12817654E+04</totfact>
</mgrwt>
</event>
<event>
 4    1  0.4151607E+000  0.2687456E+03  0.7546771E-02  0.1102000E+00
         21   -1    0    0  501  502  0.00000000000E+00  0.00000000000E+00  0.77541249133E+03  0.77541249133E+03  0.00000000000E+00 0. -1.
         21   -1    0    0  502  503 -0.00000000000E+00 -0.00000000000E+00 -0.99721573783E+02  0.99721573783E+02  0.00000000000E+00 0. -1.
          6    1    1    2  501    0 -0.19543789511E+03 -0.64025150490E+02  0.45023301952E+03  0.52434145612E+03  0.17300000000E+03 0. -1.
         -6    1    1    2    0  503  0.19543789511E+03  0.64025150490E+02  0.22545789803E+03  0.35079260900E+03  0.17300000000E+03 0. -1.
<mgrwt>
<rscale>  2 0.26874559E+03</rscale>
<asrwt>0</asrwt>
<pdfrwt beam="1">  1       21 0.11929423E+00 0.26874559E+03</pdfrwt>
<pdfrwt beam="2">  1       21 0.15341781E-01 0.26874559E+03</pdfrwt>
<totfact> 0.19334520E+04</totfact>
</mgrwt>
</event>
<event>
 4    1  0.4151607E+000  0.1829473E+03  0.7546771E-02  0.1164981E+00
         21   -1    0    0  501  502  0.00000000000E+00  0.00000000000E+00  0.69603873623E+02  0.69603873623E+02  0.00000000000E+00 0. -1.
         21   -1    0    0  502  503 -0.00000000000E+00 -0.00000000000E+00 -0.54713730216E+03  0.54713730216E+03  0.00000000000E+00 0.  1.
          6    1    1    2  501    0  0.29396629672E+02  0.51735324770E+02 -0.13144000602E+03  0.22526912981E+03  0.17300000000E+03 0. -1.
         -6    1    1    2    0  503 -0.29396629672E+02 -0.51735324770E+02 -0.34609342252E+03  0.39147204597E+03  0.17300000000E+03 0.  1.
<mgrwt>
<rscale>  2 0.18294728E+03</rscale>
<asrwt>0</asrwt>
<pdfrwt beam="1">  1       21 0.10708288E-01 0.18294728E+03</pdfrwt>
<pdfrwt beam="2">  1       21 0.84174971E-01 0.18294728E+03</pdfrwt>
<totfact> 0.88430280E+04</totfact>
</mgrwt>
</event>
<event>
 4    1  0.4151607E+000  0.1846523E+03  0.7546771E-02  0.1163375E+00
         21   -1    0    0  501  502  0.00000000000E+00  0.00000000000E+00  0.30682523694E+02  0.30682523694E+02  0.00000000000E+00 0. -1.
         21   -1    0    0  502  503 -0.00000000000E+00 -0.00000000000E+00 -0.13047333332E+04  0.13047333332E+04  0.00000000000E+00 0. -1.
          6    1    1    2  501    0 -0.45029171714E+02  0.46258509323E+02 -0.37990984648E+03  0.42240734776E+03  0.17300000000E+03 0. -1.
         -6    1    1    2    0  503  0.45029171714E+02 -0.46258509323E+02 -0.89414096306E+03  0.91300850917E+03  0.17300000000E+03 0. -1.
<mgrwt>
<rscale>  2 0.18465231E+03</rscale>
<asrwt>0</asrwt>
<pdfrwt beam="1">  1       21 0.47203883E-02 0.18465231E+03</pdfrwt>
<pdfrwt beam="2">  1       21 0.20072820E+00 0.18465231E+03</pdfrwt>
<totfact> 0.39603133E+04</totfact>
</mgrwt>
</event>
<event>
 4    1  0.4151607E+000  0.4501440E+03  0.7546771E-02  0.1027679E+00
         21   -1    0    0  503  502  0.00000000000E+00  0.00000000000E+00  0.13483993260E+03  0.13483993260E+03  0.00000000000E+00 0.  1.
         21   -1    0    0  501  503 -0.00000000000E+00 -0.00000000000E+00 -0.17058040393E+04  0.17058040393E+04  0.00000000000E+00 0. -1.
          6    1    1    2  501    0 -0.24381473026E+03  0.33653376742E+03 -0.11030157673E+04  0.11913326077E+04  0.17300000000E+03 0.  1.
         -6    1    1    2    0  502  0.24381473026E+03 -0.33653376742E+03 -0.46794833944E+03  0.64931136421E+03  0.17300000000E+03 0. -1.
<mgrwt>
<rscale>  2 0.45014398E+03</rscale>
<asrwt>0</asrwt>
<pdfrwt beam="1">  1       21 0.20744604E-01 0.45014398E+03</pdfrwt>
<pdfrwt beam="2">  1       21 0.26243140E+00 0.45014398E+03</pdfrwt>
<totfact> 0.99149629E+02</totfact>
</mgrwt>
</event>
<event>
 4    1  0.4151607E+000  0.2128822E+03  0.7546771E-02  0.1139304E+00
         21   -1    0    0  503  502  0.00000000000E+00  0.00000000000E+00  0.89249071246E+03  0.89249071246E+03  0.00000000000E+00 0. -1.
         21   -1    0    0  501  503 -0.00000000000E+00 -0.00000000000E+00 -0.68666818589E+02  0.68666818589E+02  0.00000000000E+00 0.  1.
          6    1    1    2  501    0 -0.11503139078E+03  0.46450071071E+02  0.16662027304E+03  0.27033524623E+03  0.17300000000E+03 0.  1.
         -6    1    1    2    0  502  0.11503139078E+03 -0.46450071071E+02  0.65720362083E+03  0.69082228482E+03  0.17300000000E+03 0. -1.
<mgrwt>
<rscale>  2 0.21288220E+03</rscale>
<asrwt>0</asrwt>
<pdfrwt beam="1">  1       21 0.13730625E+00 0.21288220E+03</pdfrwt>
<pdfrwt beam="2">  1       21 0.10564127E-01 0.21288220E+03</pdfrwt>
<totfact> 0.27361825E+04</totfact>
</mgrwt>
</event>
<event>
 4    1  0.4151607E+000  0.2219964E+03  0.7546771E-02  0.1132403E+00
         21   -1    0    0  501  502  0.00000000000E+00  0.00000000000E+00  0.62884525205E+03  0.62884525205E+03  0.00000000000E+00 0. -1.
         21   -1    0    0  502  503 -0.00000000000E+00 -0.00000000000E+00 -0.14119294837E+03  0.14119294837E+03  0.00000000000E+00 0.  1.
          6    1    1    2  501    0 -0.12093601975E+03  0.68759612916E+02  0.50065039214E+03  0.54766159295E+03  0.17300000000E+03 0. -1.
         -6    1    1    2    0  503  0.12093601975E+03 -0.68759612916E+02 -0.12998088463E+02  0.22237660746E+03  0.17300000000E+03 0.  1.
<mgrwt>
<rscale>  2 0.22199641E+03</rscale>
<asrwt>0</asrwt>
<pdfrwt beam="1">  1       21 0.96745422E-01 0.22199641E+03</pdfrwt>
<pdfrwt beam="2">  1       21 0.21721992E-01 0.22199641E+03</pdfrwt>
<totfact> 0.17235533E+04</totfact>
</mgrwt>
</event>
<event>
 4    1  0.4151607E+000  0.1925490E+03  0.7546771E-02  0.1156182E+00
         21   -1    0    0  501  502  0.00000000000E+00  0.00000000000E+00  0.38291964963E+03  0.38291964963E+03  0.00000000000E+00 0. -1.
         21   -1    0    0  502  503 -0.00000000000E+00 -0.00000000000E+00 -0.19576849211E+03  0.19576849211E+03  0.00000000000E+00 0. -1.
          6    1    1    2  501    0 -0.59386854916E+02  0.60160620614E+02  0.29927974590E+03  0.35587001155E+03  0.17300000000E+03 0. -1.
         -6    1    1    2    0  503  0.59386854916E+02 -0.60160620614E+02 -0.11212858838E+03  0.22281813019E+03  0.17300000000E+03 0. -1.
<mgrwt>
<rscale>  2 0.19254895E+03</rscale>
<asrwt>0</asrwt>
<pdfrwt beam="1">  1       21 0.58910716E-01 0.19254895E+03</pdfrwt>
<pdfrwt beam="2">  1       21 0.30118229E-01 0.19254895E+03</pdfrwt>
<totfact> 0.28502645E+04</totfact>
</mgrwt>
</event>
<event>
 4    1  0.4151607E+000  0.2942189E+03  0.7546771E-02  0.1088167E+00
         21   -1    0    0  501  502  0.00000000000E+00  0.00000000000E+00  0.18585611267E+04  0.18585611267E+04  0.00000000000E+00 0.  1.
         21   -1    0    0  502  503 -0.00000000000E+00 -0.00000000000E+00 -0.28206135331E+03  0.28206135331E+03  0.00000000000E+00 0.  1.
          6    1    1    2  501    0 -0.21842933451E+03 -0.94468946994E+02  0.17662075152E+04  0.17905456550E+04  0.17300000000E+03 0.  1.
         -6    1    1    2    0  503  0.21842933451E+03  0.94468946994E+02 -0.18970774176E+03  0.35007682500E+03  0.17300000000E+03 0.  1.
<mgrwt>
<rscale>  2 0.29421889E+03</rscale>
<asrwt>0</asrwt>
<pdfrwt beam="1">  1       21 0.28593247E+00 0.29421889E+03</pdfrwt>
<pdfrwt beam="2">  1       21 0.43394055E-01 0.29421889E+03</pdfrwt>
<totfact> 0.18549667E+02</totfact>
</mgrwt>
</event>
<event>
 4    1  0.4151607E+000  0.1818653E+03  0.7546771E-02  0.1166010E+00
         21   -1    0    0  503  502  0.00000000000E+00  0.00000000000E+00  0.14336048201E+03  0.14336048201E+03  0.00000000000E+00 0. -1.
         21   -1    0    0  501  503 -0.00000000000E+00 -0.00000000000E+00 -0.24724367809E+03  0.24724367809E+03  0.00000000000E+00 0. -1.
          6    1    1    2  501    0  0.52891776844E+02 -0.18667109256E+02 -0.10244273287E+03  0.20873311799E+03  0.17300000000E+03 0.  1.
         -6    1    1    2    0  502 -0.52891776844E+02  0.18667109256E+02 -0.14404632016E+01  0.18187104211E+03  0.17300000000E+03 0.  1.
<mgrwt>
<rscale>  2 0.18186534E+03</rscale>
<asrwt>0</asrwt>
<pdfrwt beam="1">  1       21 0.22055459E-01 0.18186534E+03</pdfrwt>
<pdfrwt beam="2">  1       21 0.38037489E-01 0.18186534E+03</pdfrwt>
<totfact> 0.12852641E+05</totfact>
</mgrwt>
</event>
<event>
 4    1  0.4151607E+000  0.2116357E+03  0.7546771E-02  0.1140277E+00
         21   -1    0    0  503  502  0.00000000000E+00  0.00000000000E+00  0.16499952634E+03  0.16499952634E+03  0.00000000000E+00 0. -1.
         21   -1    0    0  501  503 -0.00000000000E+00 -0.00000000000E+00 -0.27914525883E+03  0.27914525883E+03  0.00000000000E+00 0. -1.
          6    1    1    2  501    0 -0.87879716717E+02 -0.84485664221E+02 -0.93936391787E+02  0.23154636203E+03  0.17300000000E+03 0. -1.
         -6    1    1    2    0  502  0.87879716717E+02  0.84485664221E+02 -0.20209340708E+02  0.21259842314E+03  0.17300000000E+03 0. -1.
<mgrwt>
<rscale>  2 0.21163571E+03</rscale>
<asrwt>0</asrwt>
<pdfrwt beam="1">  1       21 0.25384542E-01 0.21163571E+03</pdfrwt>
<pdfrwt beam="2">  1       21 0.42945425E-01 0.21163571E+03</pdfrwt>
<totfact> 0.76084284E+04</totfact>
</mgrwt>
</event>
<event>
 4    1  0.4151607E+000  0.2004594E+03  0.7546771E-02  0.1149352E+00
         21   -1    0    0  503  502  0.00000000000E+00  0.00000000000E+00  0.81212833778E+02  0.81212833778E+02  0.00000000000E+00 0.  1.
         21   -1    0    0  501  503 -0.00000000000E+00 -0.00000000000E+00 -0.62903515174E+03  0.62903515174E+03  0.00000000000E+00 0.  1.
          6    1    1    2  501    0  0.99457451707E+02 -0.19057462364E+02 -0.43796199451E+03  0.48165826081E+03  0.17300000000E+03 0.  1.
         -6    1    1    2    0  502 -0.99457451707E+02  0.19057462364E+02 -0.10986032345E+03  0.22858972470E+03  0.17300000000E+03 0.  1.
<mgrwt>
<rscale>  2 0.20045940E+03</rscale>
<asrwt>0</asrwt>
<pdfrwt beam="1">  1       21 0.12494282E-01 0.20045940E+03</pdfrwt>
<pdfrwt beam="2">  1       21 0.96774637E-01 0.20045940E+03</pdfrwt>
<totfact> 0.48224339E+04</totfact>
</mgrwt>
</event>
<event>
 4    1  0.4151607E+000  0.1774017E+03  0.7546771E-02  0.1170342E+00
         21   -1    0    0  503  502  0.00000000000E+00  0.00000000000E+00  0.21781304774E+04  0.21781304774E+04  0.00000000000E+00 0.  1.
         21   -1    0    0  501  503 -0.00000000000E+00 -0.00000000000E+00 -0.17386252678E+02  0.17386252678E+02  0.00000000000E+00 0.  1.
          6    1    1    2  501    0  0.87137712852E+01 -0.38294224935E+02  0.62915142455E+03  0.65368409227E+03  0.17300000000E+03 0.  1.
         -6    1    1    2    0  502 -0.87137712852E+01  0.38294224935E+02  0.15315928002E+04  0.15418326378E+04  0.17300000000E+03 0.  1.
<mgrwt>
<rscale>  2 0.17740174E+03</rscale>
<asrwt>0</asrwt>
<pdfrwt beam="1">  1       21 0.33509678E+00 0.17740174E+03</pdfrwt>
<pdfrwt beam="2">  1       21 0.26748098E-02 0.17740174E+03</pdfrwt>
<totfact> 0.16643603E+04</totfact>
</mgrwt>
</event>
<event>
 4    1  0.4151607E+000  0.1736795E+03  0.7546771E-02  0.1174064E+00
         21   -1    0    0  501  502  0.00000000000E+00  0.00000000000E+00  0.13634457402E+02  0.13634457402E+02  0.00000000000E+00 0.  1.
         21   -1    0    0  502  503 -0.00000000000E+00 -0.00000000000E+00 -0.23125999487E+04  0.23125999487E+04  0.00000000000E+00 0.  1.
          6    1    1    2  501    0  0.72435007765E+01  0.13531314661E+02 -0.90734859543E+03  0.92382143210E+03  0.17300000000E+03 0. -1.
         -6    1    1    2    0  503 -0.72435007765E+01 -0.13531314661E+02 -0.13916168958E+04  0.14024129740E+04  0.17300000000E+03 0. -1.
<mgrwt>
<rscale>  2 0.17367949E+03</rscale>
<asrwt>0</asrwt>
<pdfrwt beam="1">  1       21 0.20976103E-02 0.17367949E+03</pdfrwt>
<pdfrwt beam="2">  1       21 0.35578435E+00 0.17367949E+03</pdfrwt>
<totfact> 0.18828805E+04</totfact>
</mgrwt>
</event>
<event>
 4    1  0.4151607E+000  0.1772466E+03  0.7546771E-02  0.1170495E+00
         21   -1    0    0  501  502  0.00000000000E+00  0.00000000000E+00  0.88459333734E+02  0.88459333734E+02  0.00000000000E+00 0. -1.
         21   -1    0    0  502  503 -0.00000000000E+00 -0.00000000000E+00 -0.35710986952E+03  0.35710986952E+03  0.00000000000E+00 0. -1.
          6    1    1    2  501    0  0.25747652493E+02  0.28712779315E+02 -0.15082802755E+03  0.23273473999E+03  0.17300000000E+03 0. -1.
         -6    1    1    2    0  503 -0.25747652493E+02 -0.28712779315E+02 -0.11782250824E+03  0.21283446326E+03  0.17300000000E+03 0. -1.
<mgrwt>
<rscale>  2 0.17724662E+03</rscale>
<asrwt>0</asrwt>
<pdfrwt beam="1">  1       21 0.13609128E-01 0.17724662E+03</pdfrwt>
<pdfrwt beam="2">  1       21 0.54939981E-01 0.17724662E+03</pdfrwt>
<totfact> 0.14706846E+05</totfact>
</mgrwt>
</event>
<event>
 4    1  0.4151607E+000  0.1850116E+03  0.7546771E-02  0.1163039E+00
         21   -1    0    0  503  502  0.00000000000E+00  0.00000000000E+00  0.33775044104E+03  0.33775044104E+03  0.00000000000E+00 0.  1.
         21   -1    0    0  501  503 -0.00000000000E+00 -0.00000000000E+00 -0.10217505085E+03  0.10217505085E+03  0.00000000000E+00 0. -1.
          6    1    1    2  501    0 -0.10177606083E+02 -0.64781947419E+02  0.97960766751E+02  0.20934563812E+03  0.17300000000E+03 0. -1.
         -6    1    1    2    0  502  0.10177606083E+02  0.64781947419E+02  0.13761462344E+03  0.23057985376E+03  0.17300000000E+03 0. -1.
<mgrwt>
<rscale>  2 0.18501158E+03</rscale>
<asrwt>0</asrwt>
<pdfrwt beam="1">  1       21 0.51961606E-01 0.18501158E+03</pdfrwt>
<pdfrwt beam="2">  1       21 0.15719239E-01 0.18501158E+03</pdfrwt>
<totfact> 0.12696041E+05</totfact>
</mgrwt>
</event>
<event>
 4    1  0.4151607E+000  0.2020101E+03  0.7546771E-02  0.1148054E+00
         21   -1    0    0  501  502  0.00000000000E+00  0.00000000000E+00  0.23158587220E+03  0.23158587220E+03  0.00000000000E+00 0.  1.
         21   -1    0    0  502  503 -0.00000000000E+00 -0.00000000000E+00 -0.17680258485E+03  0.17680258485E+03  0.00000000000E+00 0. -1.
          6    1    1    2  501    0 -0.10323062775E+03  0.14916807473E+02  0.15584190844E+02  0.20261031725E+03  0.17300000000E+03 0.  1.
         -6    1    1    2    0  503  0.10323062775E+03 -0.14916807473E+02  0.39199096507E+02  0.20577813979E+03  0.17300000000E+03 0. -1.
<mgrwt>
<rscale>  2 0.20201008E+03</rscale>
<asrwt>0</asrwt>
<pdfrwt beam="1">  1       21 0.35628596E-01 0.20201008E+03</pdfrwt>
<pdfrwt beam="2">  1       21 0.27200398E-01 0.20201008E+03</pdfrwt>
<totfact> 0.97498519E+04</totfact>
</mgrwt>
</event>
<event>
 4    1  0.4151607E+000  0.1813558E+03  0.7546771E-02  0.1166497E+00
         21   -1    0    0  501  502  0.00000000000E+00  0.00000000000E+00  0.62651228609E+03  0.62651228609E+03  0.00000000000E+00 0.  1.
         21   -1    0    0  502  503 -0.00000000000E+00 -0.00000000000E+00 -0.52574552425E+02  0.52574552425E+02  0.00000000000E+00 0. -1.
          6    1    1    2  501    0 -0.18694876986E+02 -0.51102089559E+02  0.30002223793E+03  0.35057561985E+03  0.17300000000E+03 0. -1.
         -6    1    1    2    0  503  0.18694876986E+02  0.51102089559E+02  0.27391549574E+03  0.32851121866E+03  0.17300000000E+03 0. -1.
<mgrwt>
<rscale>  2 0.18135579E+03</rscale>
<asrwt>0</asrwt>
<pdfrwt beam="1">  1       21 0.96386500E-01 0.18135579E+03</pdfrwt>
<pdfrwt beam="2">  1       21 0.80883931E-02 0.18135579E+03</pdfrwt>
<totfact> 0.10589106E+05</totfact>
</mgrwt>
</event>
<event>
 4    1  0.4151607E+000  0.2895212E+03  0.7546771E-02  0.1090599E+00
         21   -1    0    0  501  502  0.00000000000E+00  0.00000000000E+00  0.13968053395E+03  0.13968053395E+03  0.00000000000E+00 0.  1.
         21   -1    0    0  502  503 -0.00000000000E+00 -0.00000000000E+00 -0.61177170906E+03  0.61177170906E+03  0.00000000000E+00 0.  1.
          6    1    1    2  501    0  0.14997548029E+03 -0.17720294901E+03 -0.18415223064E+03  0.34312472058E+03  0.17300000000E+03 0.  1.
         -6    1    1    2    0  503 -0.14997548029E+03  0.17720294901E+03 -0.28793894448E+03  0.40832752243E+03  0.17300000000E+03 0.  1.
<mgrwt>
<rscale>  2 0.28952121E+03</rscale>
<asrwt>0</asrwt>
<pdfrwt beam="1">  1       21 0.21489313E-01 0.28952121E+03</pdfrwt>
<pdfrwt beam="2">  1       21 0.94118724E-01 0.28952121E+03</pdfrwt>
<totfact> 0.18152117E+04</totfact>
</mgrwt>
</event>
<event>
 4    1  0.4151607E+000  0.4040850E+03  0.7546771E-02  0.1042374E+00
         21   -1    0    0  501  502  0.00000000000E+00  0.00000000000E+00  0.77687013318E+03  0.77687013318E+03  0.00000000000E+00 0. -1.
         21   -1    0    0  502  503 -0.00000000000E+00 -0.00000000000E+00 -0.62995725013E+03  0.62995725013E+03  0.00000000000E+00 0.  1.
          6    1    1    2  501    0 -0.14543518240E+03 -0.33496913794E+03  0.64765658271E+03  0.76337655504E+03  0.17300000000E+03 0. -1.
         -6    1    1    2    0  503  0.14543518240E+03  0.33496913794E+03 -0.50074369966E+03  0.64345082827E+03  0.17300000000E+03 0.  1.
<mgrwt>
<rscale>  2 0.40408504E+03</rscale>
<asrwt>0</asrwt>
<pdfrwt beam="1">  1       21 0.11951848E+00 0.40408504E+03</pdfrwt>
<pdfrwt beam="2">  1       21 0.96916500E-01 0.40408504E+03</pdfrwt>
<totfact> 0.40106441E+02</totfact>
</mgrwt>
</event>
<event>
 4    1  0.4151607E+000  0.1776463E+03  0.7546771E-02  0.1170101E+00
         21   -1    0    0  503  502  0.00000000000E+00  0.00000000000E+00  0.16200592521E+04  0.16200592521E+04  0.00000000000E+00 0. -1.
         21   -1    0    0  501  503 -0.00000000000E+00 -0.00000000000E+00 -0.21481862706E+02  0.21481862706E+02  0.00000000000E+00 0. -1.
          6    1    1    2  501    0  0.35044949961E+02  0.20026654305E+02  0.54871295558E+03  0.57675308670E+03  0.17300000000E+03 0.  1.
         -6    1    1    2    0  502 -0.35044949961E+02 -0.20026654305E+02  0.10498644338E+04  0.10647880281E+04  0.17300000000E+03 0.  1.
<mgrwt>
<rscale>  2 0.17764632E+03</rscale>
<asrwt>0</asrwt>
<pdfrwt beam="1">  1       21 0.24923979E+00 0.17764632E+03</pdfrwt>
<pdfrwt beam="2">  1       21 0.33049032E-02 0.17764632E+03</pdfrwt>
<totfact> 0.36654415E+04</totfact>
</mgrwt>
</event>
<event>
 4    1  0.4151607E+000  0.2130527E+03  0.7546771E-02  0.1139171E+00
         21   -1    0    0  501  502  0.00000000000E+00  0.00000000000E+00  0.12451083583E+03  0.12451083583E+03  0.00000000000E+00 0.  1.
         21   -1    0    0  502  503 -0.00000000000E+00 -0.00000000000E+00 -0.49044791412E+03  0.49044791412E+03  0.00000000000E+00 0.  1.
          6    1    1    2  501    0  0.12381416948E+03  0.11510555988E+02 -0.27187451093E+02  0.21478035050E+03  0.17300000000E+03 0.  1.
         -6    1    1    2    0  503 -0.12381416948E+03 -0.11510555988E+02 -0.33874962719E+03  0.40017839945E+03  0.17300000000E+03 0.  1.
<mgrwt>
<rscale>  2 0.21305267E+03</rscale>
<asrwt>0</asrwt>
<pdfrwt beam="1">  1       21 0.19155513E-01 0.21305267E+03</pdfrwt>
<pdfrwt beam="2">  1       21 0.75453524E-01 0.21305267E+03</pdfrwt>
<totfact> 0.38828377E+04</totfact>
</mgrwt>
</event>
<event>
 4    1  0.4151607E+000  0.1910574E+03  0.7546771E-02  0.1157511E+00
         21   -1    0    0  501  502  0.00000000000E+00  0.00000000000E+00  0.98720961645E+02  0.98720961645E+02  0.00000000000E+00 0.  1.
         21   -1    0    0  502  503 -0.00000000000E+00 -0.00000000000E+00 -0.39648164005E+03  0.39648164005E+03  0.00000000000E+00 0. -1.
          6    1    1    2  501    0 -0.27000898699E+02 -0.76451715772E+02 -0.84598952928E+02  0.20894950637E+03  0.17300000000E+03 0. -1.
         -6    1    1    2    0  503  0.27000898699E+02  0.76451715772E+02 -0.21316172547E+03  0.28625309532E+03  0.17300000000E+03 0. -1.
<mgrwt>
<rscale>  2 0.19105736E+03</rscale>
<asrwt>0</asrwt>
<pdfrwt beam="1">  1       21 0.15187840E-01 0.19105736E+03</pdfrwt>
<pdfrwt beam="2">  1       21 0.60997176E-01 0.19105736E+03</pdfrwt>
<totfact> 0.95972619E+04</totfact>
</mgrwt>
</event>
<event>
 4    1  0.4151607E+000  0.1793954E+03  0.7546771E-02  0.1168390E+00
         21   -1    0    0  501  502  0.00000000000E+00  0.00000000000E+00  0.14717146460E+03  0.14717146460E+03  0.00000000000E+00 0.  1.
         21   -1    0    0  502  503 -0.00000000000E+00 -0.00000000000E+00 -0.22517559101E+03  0.22517559101E+03  0.00000000000E+00 0. -1.
          6    1    1    2  501    0  0.41127106234E+02 -0.23711946558E+02 -0.73691412097E+01  0.17954664998E+03  0.17300000000E+03 0. -1.
         -6    1    1    2    0  503 -0.41127106234E+02  0.23711946558E+02 -0.70634985197E+02  0.19280040563E+03  0.17300000000E+03 0. -1.
<mgrwt>
<rscale>  2 0.17939536E+03</rscale>
<asrwt>0</asrwt>
<pdfrwt beam="1">  1       21 0.22641764E-01 0.17939536E+03</pdfrwt>
<pdfrwt beam="2">  1       21 0.34642398E-01 0.17939536E+03</pdfrwt>
<totfact> 0.14747174E+05</totfact>
</mgrwt>
</event>
<event>
 4    1  0.4151607E+000  0.1885046E+03  0.7546771E-02  0.1159817E+00
         21   -1    0    0  503  502  0.00000000000E+00  0.00000000000E+00  0.95938109126E+02  0.95938109126E+02  0.00000000000E+00 0.  1.
         21   -1    0    0  501  503 -0.00000000000E+00 -0.00000000000E+00 -0.84394588349E+03  0.84394588349E+03  0.00000000000E+00 0.  1.
          6    1    1    2  501    0  0.13003547304E+02  0.73728500147E+02 -0.72603019464E+03  0.75010254466E+03  0.17300000000E+03 0.  1.
         -6    1    1    2    0  502 -0.13003547304E+02 -0.73728500147E+02 -0.21977579719E+02  0.18978144795E+03  0.17300000000E+03 0.  1.
<mgrwt>
<rscale>  2 0.18850460E+03</rscale>
<asrwt>0</asrwt>
<pdfrwt beam="1">  1       21 0.14759709E-01 0.18850460E+03</pdfrwt>
<pdfrwt beam="2">  1       21 0.12983783E+00 0.18850460E+03</pdfrwt>
<totfact> 0.17565416E+04</totfact>
</mgrwt>
</event>
<event>
 4    1  0.4151607E+000  0.2497910E+03  0.7546771E-02  0.1113437E+00
         21   -1    0    0  503  502  0.00000000000E+00  0.00000000000E+00  0.22039836291E+03  0.22039836291E+03  0.00000000000E+00 0. -1.
         21   -1    0    0  501  503 -0.00000000000E+00 -0.00000000000E+00 -0.47329199065E+03  0.47329199065E+03  0.00000000000E+00 0.  1.
          6    1    1    2  501    0  0.68659177621E+02  0.16659065082E+03 -0.34631546053E+03  0.42700108409E+03  0.17300000000E+03 0.  1.
         -6    1    1    2    0  502 -0.68659177621E+02 -0.16659065082E+03  0.93421832784E+02  0.26668926947E+03  0.17300000000E+03 0. -1.
<mgrwt>
<rscale>  2 0.24979097E+03</rscale>
<asrwt>0</asrwt>
<pdfrwt beam="1">  1       21 0.33907440E-01 0.24979097E+03</pdfrwt>
<pdfrwt beam="2">  1       21 0.72814153E-01 0.24979097E+03</pdfrwt>
<totfact> 0.13757715E+04</totfact>
</mgrwt>
</event>
<event>
 4    1  0.4151607E+000  0.1739514E+03  0.7546771E-02  0.1173789E+00
         21   -1    0    0  503  502  0.00000000000E+00  0.00000000000E+00  0.27503741589E+02  0.27503741589E+02  0.00000000000E+00 0.  1.
         21   -1    0    0  501  503 -0.00000000000E+00 -0.00000000000E+00 -0.19566906592E+04  0.19566906592E+04  0.00000000000E+00 0.  1.
          6    1    1    2  501    0  0.27670585168E+01 -0.17955965027E+02 -0.16209796878E+04  0.16302865458E+04  0.17300000000E+03 0.  1.
         -6    1    1    2    0  502 -0.27670585168E+01  0.17955965027E+02 -0.30820722989E+03  0.35390785503E+03  0.17300000000E+03 0.  1.
<mgrwt>
<rscale>  2 0.17395135E+03</rscale>
<asrwt>0</asrwt>
<pdfrwt beam="1">  1       21 0.42313448E-02 0.17395135E+03</pdfrwt>
<pdfrwt beam="2">  1       21 0.30102934E+00 0.17395135E+03</pdfrwt>
<totfact> 0.12257269E+04</totfact>
</mgrwt>
</event>
<event>
 4    1  0.4151607E+000  0.2057772E+03  0.7546771E-02  0.1144954E+00
         21   -1    0    0  503  502  0.00000000000E+00  0.00000000000E+00  0.18575323552E+03  0.18575323552E+03  0.00000000000E+00 0. -1.
         21   -1    0    0  501  503 -0.00000000000E+00 -0.00000000000E+00 -0.23460572685E+03  0.23460572685E+03  0.00000000000E+00 0. -1.
          6    1    1    2  501    0  0.11051769886E+03  0.14180156936E+02 -0.59801892063E+02  0.21429070187E+03  0.17300000000E+03 0. -1.
         -6    1    1    2    0  502 -0.11051769886E+03 -0.14180156936E+02  0.10949400725E+02  0.20606826051E+03  0.17300000000E+03 0. -1.
<mgrwt>
<rscale>  2 0.20577716E+03</rscale>
<asrwt>0</asrwt>
<pdfrwt beam="1">  1       21 0.28577421E-01 0.20577716E+03</pdfrwt>
<pdfrwt beam="2">  1       21 0.36093188E-01 0.20577716E+03</pdfrwt>
<totfact> 0.86217545E+04</totfact>
</mgrwt>
</event>
<event>
 4    1  0.4151607E+000  0.1942623E+03  0.7546771E-02  0.1154672E+00
         21   -1    0    0  503  502  0.00000000000E+00  0.00000000000E+00  0.35389157654E+03  0.35389157654E+03  0.00000000000E+00 0. -1.
         21   -1    0    0  501  503 -0.00000000000E+00 -0.00000000000E+00 -0.10695122309E+03  0.10695122309E+03  0.00000000000E+00 0.  1.
          6    1    1    2  501    0  0.20416541732E+02  0.85976792295E+02  0.13596495836E+03  0.23711666726E+03  0.17300000000E+03 0.  1.
         -6    1    1    2    0  502 -0.20416541732E+02 -0.85976792295E+02  0.11097539509E+03  0.22372613237E+03  0.17300000000E+03 0.  1.
<mgrwt>
<rscale>  2 0.19426231E+03</rscale>
<asrwt>0</asrwt>
<pdfrwt beam="1">  1       21 0.54444857E-01 0.19426231E+03</pdfrwt>
<pdfrwt beam="2">  1       21 0.16454034E-01 0.19426231E+03</pdfrwt>
<totfact> 0.10550158E+05</totfact>
</mgrwt>
</event>
<event>
 4    1  0.4151607E+000  0.2071282E+03  0.7546771E-02  0.1143861E+00
         21   -1    0    0  503  502  0.00000000000E+00  0.00000000000E+00  0.31912819464E+03  0.31912819464E+03  0.00000000000E+00 0. -1.
         21   -1    0    0  501  503 -0.00000000000E+00 -0.00000000000E+00 -0.17306589866E+03  0.17306589866E+03  0.00000000000E+00 0. -1.
          6    1    1    2  501    0 -0.10153852577E+03  0.51604561821E+02 -0.43238463602E+02  0.21159316565E+03  0.17300000000E+03 0. -1.
         -6    1    1    2    0  502  0.10153852577E+03 -0.51604561821E+02  0.18930075959E+03  0.28060092765E+03  0.17300000000E+03 0. -1.
<mgrwt>
<rscale>  2 0.20712823E+03</rscale>
<asrwt>0</asrwt>
<pdfrwt beam="1">  1       21 0.49096645E-01 0.20712823E+03</pdfrwt>
<pdfrwt beam="2">  1       21 0.26625523E-01 0.20712823E+03</pdfrwt>
<totfact> 0.52767085E+04</totfact>
</mgrwt>
</event>
<event>
 4    1  0.4151607E+000  0.1949696E+03  0.7546771E-02  0.1154054E+00
         21   -1    0    0  501  502  0.00000000000E+00  0.00000000000E+00  0.17100864383E+04  0.17100864383E+04  0.00000000000E+00 0. -1.
         21   -1    0    0  502  503 -0.00000000000E+00 -0.00000000000E+00 -0.22236809201E+02  0.22236809201E+02  0.00000000000E+00 0. -1.
          6    1    1    2  501    0 -0.11404547553E+02 -0.89185763948E+02  0.86036626425E+03  0.88218097511E+03  0.17300000000E+03 0. -1.
         -6    1    1    2    0  503  0.11404547553E+02  0.89185763948E+02  0.82748336488E+03  0.85014227242E+03  0.17300000000E+03 0. -1.
<mgrwt>
<rscale>  2 0.19496965E+03</rscale>
<asrwt>0</asrwt>
<pdfrwt beam="1">  1       21 0.26309012E+00 0.19496965E+03</pdfrwt>
<pdfrwt beam="2">  1       21 0.34210489E-02 0.19496965E+03</pdfrwt>
<totfact> 0.28309533E+04</totfact>
</mgrwt>
</event>
<event>
 4    1  0.4151607E+000  0.2465616E+03  0.7546771E-02  0.1115497E+00
         21   -1    0    0  501  502  0.00000000000E+00  0.00000000000E+00  0.12247603476E+04  0.12247603476E+04  0.00000000000E+00 0.  1.
         21   -1    0    0  502  503 -0.00000000000E+00 -0.00000000000E+00 -0.58393850579E+02  0.58393850579E+02  0.00000000000E+00 0.  1.
          6    1    1    2  501    0 -0.15828054105E+03 -0.76229313549E+02  0.83164256710E+03  0.86742261749E+03  0.17300000000E+03 0.  1.
         -6    1    1    2    0  503  0.15828054105E+03  0.76229313549E+02  0.33472392990E+03  0.41573158067E+03  0.17300000000E+03 0.  1.
<mgrwt>
<rscale>  2 0.24656163E+03</rscale>
<asrwt>0</asrwt>
<pdfrwt beam="1">  1       21 0.18842465E+00 0.24656163E+03</pdfrwt>
<pdfrwt beam="2">  1       21 0.89836702E-02 0.24656163E+03</pdfrwt>
<totfact> 0.15074289E+04</totfact>
</mgrwt>
</event>
<event>
 4    1  0.4151607E+000  0.2114528E+03  0.7546771E-02  0.1140421E+00
         21   -1    0    0  503  502  0.00000000000E+00  0.00000000000E+00  0.59223150233E+02  0.59223150233E+02  0.00000000000E+00 0.  1.
         21   -1    0    0  501  503 -0.00000000000E+00 -0.00000000000E+00 -0.75979629351E+03  0.75979629351E+03  0.00000000000E+00 0.  1.
          6    1    1    2  501    0 -0.12127064245E+03 -0.87585821586E+01 -0.31768176680E+03  0.38162021231E+03  0.17300000000E+03 0.  1.
         -6    1    1    2    0  502  0.12127064245E+03  0.87585821586E+01 -0.38289137647E+03  0.43739923143E+03  0.17300000000E+03 0.  1.
<mgrwt>
<rscale>  2 0.21145279E+03</rscale>
<asrwt>0</asrwt>
<pdfrwt beam="1">  1       21 0.91112538E-02 0.21145279E+03</pdfrwt>
<pdfrwt beam="2">  1       21 0.11689174E+00 0.21145279E+03</pdfrwt>
<totfact> 0.53338730E+04</totfact>
</mgrwt>
</event>
<event>
 4    1  0.4151607E+000  0.2331272E+03  0.7546771E-02  0.1124458E+00
         21   -1    0    0  503  502  0.00000000000E+00  0.00000000000E+00  0.90419525541E+02  0.90419525541E+02  0.00000000000E+00 0. -1.
         21   -1    0    0  501  503 -0.00000000000E+00 -0.00000000000E+00 -0.92656495784E+03  0.92656495784E+03  0.00000000000E+00 0. -1.
          6    1    1    2  501    0 -0.15550374755E+03  0.15423522632E+02 -0.71945639903E+03  0.75628421289E+03  0.17300000000E+03 0. -1.
         -6    1    1    2    0  502  0.15550374755E+03 -0.15423522632E+02 -0.11668903327E+03  0.26070027049E+03  0.17300000000E+03 0. -1.
<mgrwt>
<rscale>  2 0.23312722E+03</rscale>
<asrwt>0</asrwt>
<pdfrwt beam="1">  1       21 0.13910696E-01 0.23312722E+03</pdfrwt>
<pdfrwt beam="2">  1       21 0.14254846E+00 0.23312722E+03</pdfrwt>
<totfact> 0.14957091E+04</totfact>
</mgrwt>
</event>
<event>
 4    1  0.4151607E+000  0.2426856E+03  0.7546771E-02  0.1118017E+00
         21   -1    0    0  501  502  0.00000000000E+00  0.00000000000E+00  0.16972374149E+03  0.16972374149E+03  0.00000000000E+00 0. -1.
         21   -1    0    0  502  503 -0.00000000000E+00 -0.00000000000E+00 -0.50025728955E+03  0.50025728955E+03  0.00000000000E+00 0.  1.
          6    1    1    2  501    0  0.68358491351E+02  0.15586665407E+03  0.20141172970E+02  0.24351994588E+03  0.17300000000E+03 0. -1.
         -6    1    1    2    0  503 -0.68358491351E+02 -0.15586665407E+03 -0.35067472103E+03  0.42646108516E+03  0.17300000000E+03 0.  1.
<mgrwt>
<rscale>  2 0.24268559E+03</rscale>
<asrwt>0</asrwt>
<pdfrwt beam="1">  1       21 0.26111346E-01 0.24268559E+03</pdfrwt>
<pdfrwt beam="2">  1       21 0.76962657E-01 0.24268559E+03</pdfrwt>
<totfact> 0.20337936E+04</totfact>
</mgrwt>
</event>
<event>
 4    1  0.4151607E+000  0.1752333E+03  0.7546771E-02  0.1172498E+00
         21   -1    0    0  501  502  0.00000000000E+00  0.00000000000E+00  0.15621229207E+04  0.15621229207E+04  0.00000000000E+00 0.  1.
         21   -1    0    0  502  503 -0.00000000000E+00 -0.00000000000E+00 -0.24250669321E+02  0.24250669321E+02  0.00000000000E+00 0.  1.
          6    1    1    2  501    0  0.26564820799E+02 -0.84869016322E+01  0.11141525493E+04  0.11278486691E+04  0.17300000000E+03 0.  1.
         -6    1    1    2    0  503 -0.26564820799E+02  0.84869016322E+01  0.42371970203E+03  0.45852492091E+03  0.17300000000E+03 0.  1.
<mgrwt>
<rscale>  2 0.17523332E+03</rscale>
<asrwt>0</asrwt>
<pdfrwt beam="1">  1       21 0.24032652E+00 0.17523332E+03</pdfrwt>
<pdfrwt beam="2">  1       21 0.37308734E-02 0.17523332E+03</pdfrwt>
<totfact> 0.33873044E+04</totfact>
</mgrwt>
</event>
<event>
 4    1  0.4151607E+000  0.3309105E+03  0.7546771E-02  0.1070735E+00
         21   -1    0    0  503  502  0.00000000000E+00  0.00000000000E+00  0.13718987591E+03  0.13718987591E+03  0.00000000000E+00 0.  1.
         21   -1    0    0  501  503 -0.00000000000E+00 -0.00000000000E+00 -0.11321682723E+04  0.11321682723E+04  0.00000000000E+00 0.  1.
          6    1    1    2  501    0  0.22565927819E+03 -0.16926499937E+03 -0.84220921578E+03  0.90488569056E+03  0.17300000000E+03 0.  1.
         -6    1    1    2    0  502 -0.22565927819E+03  0.16926499937E+03 -0.15276918064E+03  0.36447245767E+03  0.17300000000E+03 0.  1.
<mgrwt>
<rscale>  2 0.33091049E+03</rscale>
<asrwt>0</asrwt>
<pdfrwt beam="1">  1       21 0.21106135E-01 0.33091049E+03</pdfrwt>
<pdfrwt beam="2">  1       21 0.17417973E+00 0.33091049E+03</pdfrwt>
<totfact> 0.37814809E+03</totfact>
</mgrwt>
</event>
<event>
 4    1  0.4151607E+000  0.2713900E+03  0.7546771E-02  0.1100487E+00
         21   -1    0    0  501  502  0.00000000000E+00  0.00000000000E+00  0.17277920024E+03  0.17277920024E+03  0.00000000000E+00 0. -1.
         21   -1    0    0  502  503 -0.00000000000E+00 -0.00000000000E+00 -0.14079718846E+04  0.14079718846E+04  0.00000000000E+00 0.  1.
          6    1    1    2  501    0  0.16129095952E+03 -0.13307416120E+03  0.42373150556E+02  0.27467797489E+03  0.17300000000E+03 0. -1.
         -6    1    1    2    0  503 -0.16129095952E+03  0.13307416120E+03 -0.12775658349E+04  0.13060731100E+04  0.17300000000E+03 0.  1.
<mgrwt>
<rscale>  2 0.27138995E+03</rscale>
<asrwt>0</asrwt>
<pdfrwt beam="1">  1       21 0.26581414E-01 0.27138995E+03</pdfrwt>
<pdfrwt beam="2">  1       21 0.21661107E+00 0.27138995E+03</pdfrwt>
<totfact> 0.13187028E+03</totfact>
</mgrwt>
</event>
<event>
 4    1  0.4151607E+000  0.1907969E+03  0.7546771E-02  0.1157745E+00
         21   -1    0    0  503  502  0.00000000000E+00  0.00000000000E+00  0.35626110006E+02  0.35626110006E+02  0.00000000000E+00 0. -1.
         21   -1    0    0  501  503 -0.00000000000E+00 -0.00000000000E+00 -0.10909780875E+04  0.10909780875E+04  0.00000000000E+00 0.  1.
          6    1    1    2  501    0 -0.31849852881E+01  0.80400978858E+02 -0.66950195171E+03  0.69615826137E+03  0.17300000000E+03 0.  1.
         -6    1    1    2    0  502  0.31849852881E+01 -0.80400978858E+02 -0.38585002574E+03  0.43044593609E+03  0.17300000000E+03 0.  1.
<mgrwt>
<rscale>  2 0.19079691E+03</rscale>
<asrwt>0</asrwt>
<pdfrwt beam="1">  1       21 0.54809413E-02 0.19079691E+03</pdfrwt>
<pdfrwt beam="2">  1       21 0.16784274E+00 0.19079691E+03</pdfrwt>
<totfact> 0.50911666E+04</totfact>
</mgrwt>
</event>
<event>
 4    1  0.4151607E+000  0.2473390E+03  0.7546771E-02  0.1114998E+00
         21   -1    0    0  501  502  0.00000000000E+00  0.00000000000E+00  0.10251478038E+03  0.10251478038E+03  0.00000000000E+00 0.  1.
         21   -1    0    0  502  503 -0.00000000000E+00 -0.00000000000E+00 -0.60040860256E+03  0.60040860256E+03  0.00000000000E+00 0. -1.
          6    1    1    2  501    0  0.43187047447E+02 -0.17141312218E+03 -0.22154381984E+03  0.33205156773E+03  0.17300000000E+03 0.  1.
         -6    1    1    2    0  503 -0.43187047447E+02  0.17141312218E+03 -0.27635000234E+03  0.37087181521E+03  0.17300000000E+03 0.  1.
<mgrwt>
<rscale>  2 0.24733900E+03</rscale>
<asrwt>0</asrwt>
<pdfrwt beam="1">  1       21 0.15771504E-01 0.24733900E+03</pdfrwt>
<pdfrwt beam="2">  1       21 0.92370555E-01 0.24733900E+03</pdfrwt>
<totfact> 0.34443294E+04</totfact>
</mgrwt>
</event>
<event>
 4    1  0.4151607E+000  0.2716985E+03  0.7546771E-02  0.1100311E+00
         21   -1    0    0  501  502  0.00000000000E+00  0.00000000000E+00  0.13566970428E+03  0.13566970428E+03  0.00000000000E+00 0.  1.
         21   -1    0    0  502  503 -0.00000000000E+00 -0.00000000000E+00 -0.59078891207E+03  0.59078891207E+03  0.00000000000E+00 0.  1.
          6    1    1    2  501    0  0.19194400684E+03 -0.83955673784E+02 -0.12546632285E+03  0.29926886756E+03  0.17300000000E+03 0.  1.
         -6    1    1    2    0  503 -0.19194400684E+03  0.83955673784E+02 -0.32965288493E+03  0.42718974879E+03  0.17300000000E+03 0.  1.
<mgrwt>
<rscale>  2 0.27169847E+03</rscale>
<asrwt>0</asrwt>
<pdfrwt beam="1">  1       21 0.20872262E-01 0.27169847E+03</pdfrwt>
<pdfrwt beam="2">  1       21 0.90890604E-01 0.27169847E+03</pdfrwt>
<totfact> 0.20987703E+04</totfact>
</mgrwt>
</event>
<event>
 4    1  0.4151607E+000  0.1821952E+03  0.7546771E-02  0.1165695E+00
         21   -1    0    0  503  502  0.00000000000E+00  0.00000000000E+00  0.90877402662E+03  0.90877402662E+03  0.00000000000E+00 0.  1.
         21   -1    0    0  501  503 -0.00000000000E+00 -0.00000000000E+00 -0.36944041900E+02  0.36944041900E+02  0.00000000000E+00 0. -1.
          6    1    1    2  501    0 -0.21695053144E+02 -0.52871858233E+02  0.48613375339E+03  0.51915424963E+03  0.17300000000E+03 0. -1.
         -6    1    1    2    0  502  0.21695053144E+02  0.52871858233E+02  0.38569623133E+03  0.42656381889E+03  0.17300000000E+03 0.  1.
<mgrwt>
<rscale>  2 0.18219525E+03</rscale>
<asrwt>0</asrwt>
<pdfrwt beam="1">  1       21 0.13981137E+00 0.18219525E+03</pdfrwt>
<pdfrwt beam="2">  1       21 0.56836995E-02 0.18219525E+03</pdfrwt>
<totfact> 0.78067306E+04</totfact>
</mgrwt>
</event>
<event>
 4    1  0.4151607E+000  0.2583745E+03  0.7546771E-02  0.1108124E+00
         21   -1    0    0  503  502  0.00000000000E+00  0.00000000000E+00  0.15365355222E+04  0.15365355222E+04  0.00000000000E+00 0.  1.
         21   -1    0    0  501  503 -0.00000000000E+00 -0.00000000000E+00 -0.51678772713E+02  0.51678772713E+02  0.00000000000E+00 0.  1.
          6    1    1    2  501    0  0.95956639436E+02  0.16619475590E+03  0.42548766515E+03  0.49779225259E+03  0.17300000000E+03 0.  1.
         -6    1    1    2    0  502 -0.95956639436E+02 -0.16619475590E+03  0.10593690843E+04  0.10904220423E+04  0.17300000000E+03 0.  1.
<mgrwt>
<rscale>  2 0.25837448E+03</rscale>
<asrwt>0</asrwt>
<pdfrwt beam="1">  1       21 0.23639005E+00 0.25837448E+03</pdfrwt>
<pdfrwt beam="2">  1       21 0.79505816E-02 0.25837448E+03</pdfrwt>
<totfact> 0.92036276E+03</totfact>
</mgrwt>
</event>
<event>
 4    1  0.4151607E+000  0.2033102E+03  0.7546771E-02  0.1146976E+00
         21   -1    0    0  503  502  0.00000000000E+00  0.00000000000E+00  0.65316965767E+02  0.65316965767E+02  0.00000000000E+00 0.  1.
         21   -1    0    0  501  503 -0.00000000000E+00 -0.00000000000E+00 -0.12630848685E+04  0.12630848685E+04  0.00000000000E+00 0.  1.
          6    1    1    2  501    0  0.32231085925E+02  0.10181934397E+03 -0.10680631449E+04  0.10872414190E+04  0.17300000000E+03 0.  1.
         -6    1    1    2    0  502 -0.32231085925E+02 -0.10181934397E+03 -0.12970475793E+03  0.24116041535E+03  0.17300000000E+03 0.  1.
<mgrwt>
<rscale>  2 0.20331016E+03</rscale>
<asrwt>0</asrwt>
<pdfrwt beam="1">  1       21 0.10048764E-01 0.20331016E+03</pdfrwt>
<pdfrwt beam="2">  1       21 0.19432074E+00 0.20331016E+03</pdfrwt>
<totfact> 0.11654943E+04</totfact>
</mgrwt>
</event>
<event>
 4    1  0.4151607E+000  0.1933105E+03  0.7546771E-02  0.1155509E+00
         21   -1    0    0  503  502  0.00000000000E+00  0.00000000000E+00  0.11908665962E+03  0.11908665962E+03  0.00000000000E+00 0.  1.
         21   -1    0    0  501  503 -0.00000000000E+00 -0.00000000000E+00 -0.44156281602E+03  0.44156281602E+03  0.00000000000E+00 0.  1.
          6    1    1    2  501    0  0.80034343985E+02 -0.32162637364E+02 -0.31202858940E+03  0.36705690575E+03  0.17300000000E+03 0.  1.
         -6    1    1    2    0  502 -0.80034343985E+02  0.32162637364E+02 -0.10447566997E+02  0.19359256989E+03  0.17300000000E+03 0.  1.
<mgrwt>
<rscale>  2 0.19331045E+03</rscale>
<asrwt>0</asrwt>
<pdfrwt beam="1">  1       21 0.18321024E-01 0.19331045E+03</pdfrwt>
<pdfrwt beam="2">  1       21 0.67932743E-01 0.19331045E+03</pdfrwt>
<totfact> 0.53765208E+04</totfact>
</mgrwt>
</event>
<event>
 4    1  0.4151607E+000  0.2513156E+03  0.7546771E-02  0.1112476E+00
         21   -1    0    0  501  502  0.00000000000E+00  0.00000000000E+00  0.15734558452E+03  0.15734558452E+03  0.00000000000E+00 0.  1.
         21   -1    0    0  502  503 -0.00000000000E+00 -0.00000000000E+00 -0.49814196344E+03  0.49814196344E+03  0.00000000000E+00 0. -1.
          6    1    1    2  501    0  0.18176674335E+03  0.13833973005E+02 -0.25970346877E+02  0.25265388720E+03  0.17300000000E+03 0.  1.
         -6    1    1    2    0  503 -0.18176674335E+03 -0.13833973005E+02 -0.31482603203E+03  0.40283366076E+03  0.17300000000E+03 0. -1.
<mgrwt>
<rscale>  2 0.25131559E+03</rscale>
<asrwt>0</asrwt>
<pdfrwt beam="1">  1       21 0.24207013E-01 0.25131559E+03</pdfrwt>
<pdfrwt beam="2">  1       21 0.76637225E-01 0.25131559E+03</pdfrwt>
<totfact> 0.23650989E+04</totfact>
</mgrwt>
</event>
<event>
 4    1  0.4151607E+000  0.2363312E+03  0.7546771E-02  0.1122261E+00
         21   -1    0    0  501  502  0.00000000000E+00  0.00000000000E+00  0.16937647810E+04  0.16937647810E+04  0.00000000000E+00 0. -1.
         21   -1    0    0  502  503 -0.00000000000E+00 -0.00000000000E+00 -0.56670474504E+02  0.56670474504E+02  0.00000000000E+00 0.  1.
          6    1    1    2  501    0 -0.16023662839E+03  0.15737847490E+02  0.13844831118E+04  0.14045091469E+04  0.17300000000E+03 0. -1.
         -6    1    1    2    0  503  0.16023662839E+03 -0.15737847490E+02  0.25261119474E+03  0.34592610863E+03  0.17300000000E+03 0.  1.
<mgrwt>
<rscale>  2 0.23633124E+03</rscale>
<asrwt>0</asrwt>
<pdfrwt beam="1">  1       21 0.26057916E+00 0.23633124E+03</pdfrwt>
<pdfrwt beam="2">  1       21 0.87185358E-02 0.23633124E+03</pdfrwt>
<totfact> 0.57096173E+03</totfact>
</mgrwt>
</event>
<event>
 4    1  0.4151607E+000  0.2634770E+03  0.7546771E-02  0.1105072E+00
         21   -1    0    0  501  502  0.00000000000E+00  0.00000000000E+00  0.39788491814E+03  0.39788491814E+03  0.00000000000E+00 0.  1.
         21   -1    0    0  502  503 -0.00000000000E+00 -0.00000000000E+00 -0.19134377743E+03  0.19134377743E+03  0.00000000000E+00 0.  1.
          6    1    1    2  501    0 -0.13150765373E+03 -0.14898605344E+03  0.15789018969E+02  0.26394961684E+03  0.17300000000E+03 0. -1.
         -6    1    1    2    0  503  0.13150765373E+03  0.14898605344E+03  0.19075212174E+03  0.32527907873E+03  0.17300000000E+03 0. -1.
<mgrwt>
<rscale>  2 0.26347696E+03</rscale>
<asrwt>0</asrwt>
<pdfrwt beam="1">  1       21 0.61213064E-01 0.26347696E+03</pdfrwt>
<pdfrwt beam="2">  1       21 0.29437504E-01 0.26347696E+03</pdfrwt>
<totfact> 0.26483888E+04</totfact>
</mgrwt>
</event>
<event>
 4    1  0.4151607E+000  0.2024299E+03  0.7546771E-02  0.1147705E+00
         21   -1    0    0  503  502  0.00000000000E+00  0.00000000000E+00  0.11137658705E+04  0.11137658705E+04  0.00000000000E+00 0. -1.
         21   -1    0    0  501  503 -0.00000000000E+00 -0.00000000000E+00 -0.38052554411E+02  0.38052554411E+02  0.00000000000E+00 0. -1.
          6    1    1    2  501    0  0.11083015564E+02  0.10452774538E+03  0.43304475490E+03  0.47802263810E+03  0.17300000000E+03 0. -1.
         -6    1    1    2    0  502 -0.11083015564E+02 -0.10452774538E+03  0.64266856122E+03  0.67379578684E+03  0.17300000000E+03 0. -1.
<mgrwt>
<rscale>  2 0.20242995E+03</rscale>
<asrwt>0</asrwt>
<pdfrwt beam="1">  1       21 0.17134857E+00 0.20242995E+03</pdfrwt>
<pdfrwt beam="2">  1       21 0.58542400E-02 0.20242995E+03</pdfrwt>
<totfact> 0.42677161E+04</totfact>
</mgrwt>
</event>
<event>
 4    1  0.4151607E+000  0.3160676E+03  0.7546771E-02  0.1077473E+00
         21   -1    0    0  503  502  0.00000000000E+00  0.00000000000E+00  0.43649239481E+03  0.43649239481E+03  0.00000000000E+00 0.  1.
         21   -1    0    0  501  503 -0.00000000000E+00 -0.00000000000E+00 -0.24628811519E+03  0.24628811519E+03  0.00000000000E+00 0. -1.
          6    1    1    2  501    0  0.23641498748E+03 -0.11864945901E+03  0.43062153866E+01  0.31609695336E+03  0.17300000000E+03 0.  1.
         -6    1    1    2    0  502 -0.23641498748E+03  0.11864945901E+03  0.18589806423E+03  0.36668355665E+03  0.17300000000E+03 0.  1.
<mgrwt>
<rscale>  2 0.31606762E+03</rscale>
<asrwt>0</asrwt>
<pdfrwt beam="1">  1       21 0.67152676E-01 0.31606762E+03</pdfrwt>
<pdfrwt beam="2">  1       21 0.37890479E-01 0.31606762E+03</pdfrwt>
<totfact> 0.12782951E+04</totfact>
</mgrwt>
</event>
<event>
 4    1  0.4151607E+000  0.2161725E+03  0.7546771E-02  0.1136769E+00
         21   -1    0    0  501  502  0.00000000000E+00  0.00000000000E+00  0.11048674259E+04  0.11048674259E+04  0.00000000000E+00 0. -1.
         21   -1    0    0  502  503 -0.00000000000E+00 -0.00000000000E+00 -0.70992145477E+02  0.70992145477E+02  0.00000000000E+00 0. -1.
          6    1    1    2  501    0  0.10345325332E+02 -0.12920722520E+03  0.89073698161E+03  0.91659309576E+03  0.17300000000E+03 0. -1.
         -6    1    1    2    0  503 -0.10345325332E+02  0.12920722520E+03  0.14313829886E+03  0.25926647566E+03  0.17300000000E+03 0. -1.
<mgrwt>
<rscale>  2 0.21617246E+03</rscale>
<asrwt>0</asrwt>
<pdfrwt beam="1">  1       21 0.16997959E+00 0.21617246E+03</pdfrwt>
<pdfrwt beam="2">  1       21 0.10921869E-01 0.21617246E+03</pdfrwt>
<totfact> 0.14565382E+04</totfact>
</mgrwt>
</event>
<event>
 4    1  0.4151607E+000  0.2131278E+03  0.7546771E-02  0.1139113E+00
         21   -1    0    0  503  502  0.00000000000E+00  0.00000000000E+00  0.13351628939E+03  0.13351628939E+03  0.00000000000E+00 0. -1.
         21   -1    0    0  501  503 -0.00000000000E+00 -0.00000000000E+00 -0.66495424607E+03  0.66495424607E+03  0.00000000000E+00 0. -1.
          6    1    1    2  501    0 -0.11894782478E+03 -0.36686073091E+02 -0.54471908541E+03  0.58492934187E+03  0.17300000000E+03 0. -1.
         -6    1    1    2    0  502  0.11894782478E+03  0.36686073091E+02  0.13281128726E+02  0.21354119359E+03  0.17300000000E+03 0. -1.
<mgrwt>
<rscale>  2 0.21312779E+03</rscale>
<asrwt>0</asrwt>
<pdfrwt beam="1">  1       21 0.20540968E-01 0.21312779E+03</pdfrwt>
<pdfrwt beam="2">  1       21 0.10230065E+00 0.21312779E+03</pdfrwt>
<totfact> 0.16856669E+04</totfact>
</mgrwt>
</event>
<event>
 4    1  0.4151607E+000  0.2388132E+03  0.7546771E-02  0.1120586E+00
         21   -1    0    0  501  502  0.00000000000E+00  0.00000000000E+00  0.62352247162E+03  0.62352247162E+03  0.00000000000E+00 0. -1.
         21   -1    0    0  502  503 -0.00000000000E+00 -0.00000000000E+00 -0.14342300374E+03  0.14342300374E+03  0.00000000000E+00 0. -1.
          6    1    1    2  501    0 -0.45920529180E+02  0.15809507586E+03  0.47085347049E+03  0.52795334897E+03  0.17300000000E+03 0. -1.
         -6    1    1    2    0  503  0.45920529180E+02 -0.15809507586E+03  0.92459973880E+01  0.23899212639E+03  0.17300000000E+03 0. -1.
<mgrwt>
<rscale>  2 0.23881321E+03</rscale>
<asrwt>0</asrwt>
<pdfrwt beam="1">  1       21 0.95926532E-01 0.23881321E+03</pdfrwt>
<pdfrwt beam="2">  1       21 0.22065078E-01 0.23881321E+03</pdfrwt>
<totfact> 0.16912080E+04</totfact>
</mgrwt>
</event>
<event>
 4    1  0.4151607E+000  0.2172385E+03  0.7546771E-02  0.1135959E+00
         21   -1    0    0  501  502  0.00000000000E+00  0.00000000000E+00  0.40547246536E+03  0.40547246536E+03  0.00000000000E+00 0.  1.
         21   -1    0    0  502  503 -0.00000000000E+00 -0.00000000000E+00 -0.18466585163E+03  0.18466585163E+03  0.00000000000E+00 0.  1.
          6    1    1    2  501    0 -0.11755295905E+03  0.58692961334E+02  0.28982173691E+03  0.36220049845E+03  0.17300000000E+03 0. -1.
         -6    1    1    2    0  503  0.11755295905E+03 -0.58692961334E+02 -0.69015123176E+02  0.22793781854E+03  0.17300000000E+03 0. -1.
<mgrwt>
<rscale>  2 0.21723849E+03</rscale>
<asrwt>0</asrwt>
<pdfrwt beam="1">  1       21 0.62380379E-01 0.21723849E+03</pdfrwt>
<pdfrwt beam="2">  1       21 0.28410131E-01 0.21723849E+03</pdfrwt>
<totfact> 0.27847973E+04</totfact>
</mgrwt>
</event>
<event>
 4    1  0.4151607E+000  0.2135013E+03  0.7546771E-02  0.1138823E+00
         21   -1    0    0  503  502  0.00000000000E+00  0.00000000000E+00  0.21900495104E+03  0.21900495104E+03  0.00000000000E+00 0. -1.
         21   -1    0    0  501  503 -0.00000000000E+00 -0.00000000000E+00 -0.28547772678E+03  0.28547772678E+03  0.00000000000E+00 0.  1.
          6    1    1    2  501    0  0.11310116630E+03 -0.53496889283E+02 -0.16452812107E+03  0.26954089412E+03  0.17300000000E+03 0.  1.
         -6    1    1    2    0  502 -0.11310116630E+03  0.53496889283E+02  0.98055345327E+02  0.23494178370E+03  0.17300000000E+03 0. -1.
<mgrwt>
<rscale>  2 0.21350127E+03</rscale>
<asrwt>0</asrwt>
<pdfrwt beam="1">  1       21 0.33693070E-01 0.21350127E+03</pdfrwt>
<pdfrwt beam="2">  1       21 0.43919650E-01 0.21350127E+03</pdfrwt>
<totfact> 0.41823870E+04</totfact>
</mgrwt>
</event>
<event>
 4    1  0.4151607E+000  0.1847849E+03  0.7546771E-02  0.1163251E+00
         21   -1    0    0  501  502  0.00000000000E+00  0.00000000000E+00  0.57820483334E+03  0.57820483334E+03  0.00000000000E+00 0.  1.
         21   -1    0    0  502  503 -0.00000000000E+00 -0.00000000000E+00 -0.62335890623E+02  0.62335890623E+02  0.00000000000E+00 0.  1.
          6    1    1    2  501    0 -0.29043118829E+02 -0.58077291853E+02  0.33141811475E+03  0.37945150068E+03  0.17300000000E+03 0.  1.
         -6    1    1    2    0  503  0.29043118829E+02  0.58077291853E+02  0.18445082797E+03  0.26108922329E+03  0.17300000000E+03 0.  1.
<mgrwt>
<rscale>  2 0.18478494E+03</rscale>
<asrwt>0</asrwt>
<pdfrwt beam="1">  1       21 0.88954586E-01 0.18478494E+03</pdfrwt>
<pdfrwt beam="2">  1       21 0.95901374E-02 0.18478494E+03</pdfrwt>
<totfact> 0.94596277E+04</totfact>
</mgrwt>
</event>
<event>
 4    1  0.4151607E+000  0.1868954E+03  0.7546771E-02  0.1161292E+00
         21   -1    0    0  501  502  0.00000000000E+00  0.00000000000E+00  0.53925740581E+02  0.53925740581E+02  0.00000000000E+00 0. -1.
         21   -1    0    0  502  503 -0.00000000000E+00 -0.00000000000E+00 -0.21385733128E+04  0.21385733128E+04  0.00000000000E+00 0. -1.
          6    1    1    2  501    0 -0.47819841566E+02 -0.52097474246E+02 -0.12702723802E+03  0.22597743974E+03  0.17300000000E+03 0. -1.
         -6    1    1    2    0  503  0.47819841566E+02  0.52097474246E+02 -0.19576203342E+04  0.19665216136E+04  0.17300000000E+03 0. -1.
<mgrwt>
<rscale>  2 0.18689538E+03</rscale>
<asrwt>0</asrwt>
<pdfrwt beam="1">  1       21 0.82962691E-02 0.18689538E+03</pdfrwt>
<pdfrwt beam="2">  1       21 0.32901123E+00 0.18689538E+03</pdfrwt>
<totfact> 0.26337729E+03</totfact>
</mgrwt>
</event>
<event>
 4    1  0.4151607E+000  0.2413549E+03  0.7546771E-02  0.1118894E+00
         21   -1    0    0  501  502  0.00000000000E+00  0.00000000000E+00  0.49965877330E+02  0.49965877330E+02  0.00000000000E+00 0. -1.
         21   -1    0    0  502  503 -0.00000000000E+00 -0.00000000000E+00 -0.17562255022E+04  0.17562255022E+04  0.00000000000E+00 0. -1.
          6    1    1    2  501    0  0.13584011389E+03  0.99351094380E+02 -0.32951517252E+03  0.40845125219E+03  0.17300000000E+03 0. -1.
         -6    1    1    2    0  503 -0.13584011389E+03 -0.99351094380E+02 -0.13767444523E+04  0.13977401273E+04  0.17300000000E+03 0. -1.
<mgrwt>
<rscale>  2 0.24135488E+03</rscale>
<asrwt>0</asrwt>
<pdfrwt beam="1">  1       21 0.76870591E-02 0.24135488E+03</pdfrwt>
<pdfrwt beam="2">  1       21 0.27018850E+00 0.24135488E+03</pdfrwt>
<totfact> 0.62240764E+03</totfact>
</mgrwt>
</event>
<event>
 4    1  0.4151607E+000  0.1847784E+03  0.7546771E-02  0.1163257E+00
         21   -1    0    0  501  502  0.00000000000E+00  0.00000000000E+00  0.94331703898E+03  0.94331703898E+03  0.00000000000E+00 0. -1.
         21   -1    0    0  502  503 -0.00000000000E+00 -0.00000000000E+00 -0.42948574025E+02  0.42948574025E+02  0.00000000000E+00 0. -1.
          6    1    1    2  501    0 -0.23903036807E+02 -0.60354821870E+02  0.64573818435E+03  0.67165531519E+03  0.17300000000E+03 0. -1.
         -6    1    1    2    0  503  0.23903036807E+02  0.60354821870E+02  0.25463028061E+03  0.31461029782E+03  0.17300000000E+03 0. -1.
<mgrwt>
<rscale>  2 0.18477841E+03</rscale>
<asrwt>0</asrwt>
<pdfrwt beam="1">  1       21 0.14512568E+00 0.18477841E+03</pdfrwt>
<pdfrwt beam="2">  1       21 0.66074736E-02 0.18477841E+03</pdfrwt>
<totfact> 0.54692279E+04</totfact>
</mgrwt>
</event>
<event>
 4    1  0.4151607E+000  0.1983139E+03  0.7546771E-02  0.1151169E+00
         21   -1    0    0  501  502  0.00000000000E+00  0.00000000000E+00  0.15738286044E+04  0.15738286044E+04  0.00000000000E+00 0. -1.
         21   -1    0    0  502  503 -0.00000000000E+00 -0.00000000000E+00 -0.51121173997E+02  0.51121173997E+02  0.00000000000E+00 0. -1.
          6    1    1    2  501    0 -0.48176575114E+02  0.84133292232E+02  0.13422483429E+04  0.13568194453E+04  0.17300000000E+03 0. -1.
         -6    1    1    2    0  503  0.48176575114E+02 -0.84133292232E+02  0.18045908757E+03  0.26813033312E+03  0.17300000000E+03 0. -1.
<mgrwt>
<rscale>  2 0.19831388E+03</rscale>
<asrwt>0</asrwt>
<pdfrwt beam="1">  1       21 0.24212744E+00 0.19831388E+03</pdfrwt>
<pdfrwt beam="2">  1       21 0.78647972E-02 0.19831388E+03</pdfrwt>
<totfact> 0.90992670E+03</totfact>
</mgrwt>
</event>
<event>
 4    1  0.4151607E+000  0.1767699E+03  0.7546771E-02  0.1170966E+00
         21   -1    0    0  501  502  0.00000000000E+00  0.00000000000E+00  0.70053023973E+02  0.70053023973E+02  0.00000000000E+00 0.  1.
         21   -1    0    0  502  503 -0.00000000000E+00 -0.00000000000E+00 -0.18185259478E+04  0.18185259478E+04  0.00000000000E+00 0.  1.
          6    1    1    2  501    0  0.31118694208E+02 -0.18714267588E+02 -0.53891023027E+02  0.18480216260E+03  0.17300000000E+03 0.  1.
         -6    1    1    2    0  503 -0.31118694208E+02  0.18714267588E+02 -0.16945819008E+04  0.17037768092E+04  0.17300000000E+03 0.  1.
<mgrwt>
<rscale>  2 0.17676990E+03</rscale>
<asrwt>0</asrwt>
<pdfrwt beam="1">  1       21 0.10777389E-01 0.17676990E+03</pdfrwt>
<pdfrwt beam="2">  1       21 0.27977319E+00 0.17676990E+03</pdfrwt>
<totfact> 0.32337282E+03</totfact>
</mgrwt>
</event>
<event>
 4    1  0.4151607E+000  0.2670628E+03  0.7546771E-02  0.1102973E+00
         21   -1    0    0  503  502  0.00000000000E+00  0.00000000000E+00  0.93318723066E+03  0.93318723066E+03  0.00000000000E+00 0.  1.
         21   -1    0    0  501  503 -0.00000000000E+00 -0.00000000000E+00 -0.36753236016E+03  0.36753236016E+03  0.00000000000E+00 0. -1.
          6    1    1    2  501    0  0.11414953694E+03 -0.16841438375E+03 -0.29597392029E+03  0.39865158087E+03  0.17300000000E+03 0. -1.
         -6    1    1    2    0  502 -0.11414953694E+03  0.16841438375E+03  0.86162879080E+03  0.90206800995E+03  0.17300000000E+03 0.  1.
<mgrwt>
<rscale>  2 0.26706277E+03</rscale>
<asrwt>0</asrwt>
<pdfrwt beam="1">  1       21 0.14356727E+00 0.26706277E+03</pdfrwt>
<pdfrwt beam="2">  1       21 0.56543440E-01 0.26706277E+03</pdfrwt>
<totfact> 0.92209072E+02</totfact>
</mgrwt>
</event>
<event>
 4    1  0.4151607E+000  0.1949348E+03  0.7546771E-02  0.1154084E+00
         21   -1    0    0  503  502  0.00000000000E+00  0.00000000000E+00  0.60133148771E+03  0.60133148771E+03  0.00000000000E+00 0.  1.
         21   -1    0    0  501  503 -0.00000000000E+00 -0.00000000000E+00 -0.16690866043E+03  0.16690866043E+03  0.00000000000E+00 0.  1.
          6    1    1    2  501    0  0.74546985156E+02 -0.50133022240E+02 -0.85585202357E+02  0.21289527890E+03  0.17300000000E+03 0.  1.
         -6    1    1    2    0  502 -0.74546985156E+02  0.50133022240E+02  0.52000802963E+03  0.55534486925E+03  0.17300000000E+03 0.  1.
<mgrwt>
<rscale>  2 0.19493479E+03</rscale>
<asrwt>0</asrwt>
<pdfrwt beam="1">  1       21 0.92512535E-01 0.19493479E+03</pdfrwt>
<pdfrwt beam="2">  1       21 0.25678256E-01 0.19493479E+03</pdfrwt>
<totfact> 0.14162209E+04</totfact>
</mgrwt>
</event>
<event>
 4    1  0.4151607E+000  0.1772178E+03  0.7546771E-02  0.1170523E+00
         21   -1    0    0  503  502  0.00000000000E+00  0.00000000000E+00  0.35216222923E+02  0.35216222923E+02  0.00000000000E+00 0.  1.
         21   -1    0    0  501  503 -0.00000000000E+00 -0.00000000000E+00 -0.17966507718E+04  0.17966507718E+04  0.00000000000E+00 0.  1.
          6    1    1    2  501    0 -0.66322453828E+00  0.38427936455E+02 -0.15307248495E+04  0.15409492889E+04  0.17300000000E+03 0.  1.
         -6    1    1    2    0  502  0.66322453828E+00 -0.38427936455E+02 -0.23070969944E+03  0.29091770586E+03  0.17300000000E+03 0.  1.
<mgrwt>
<rscale>  2 0.17721779E+03</rscale>
<asrwt>0</asrwt>
<pdfrwt beam="1">  1       21 0.54178789E-02 0.17721779E+03</pdfrwt>
<pdfrwt beam="2">  1       21 0.27640789E+00 0.17721779E+03</pdfrwt>
<totfact> 0.11132823E+04</totfact>
</mgrwt>
</event>
<event>
 4    1  0.4151607E+000  0.1772177E+03  0.7546771E-02  0.1170523E+00
         21   -1    0    0  503  502  0.00000000000E+00  0.00000000000E+00  0.42444341559E+03  0.42444341559E+03  0.00000000000E+00 0.  1.
         21   -1    0    0  501  503 -0.00000000000E+00 -0.00000000000E+00 -0.11859777164E+03  0.11859777164E+03  0.00000000000E+00 0.  1.
          6    1    1    2  501    0 -0.37912619289E+02  0.63043839100E+01 -0.13591682653E+02  0.17773813827E+03  0.17300000000E+03 0.  1.
         -6    1    1    2    0  502  0.37912619289E+02 -0.63043839100E+01  0.31943732660E+03  0.36530304897E+03  0.17300000000E+03 0.  1.
<mgrwt>
<rscale>  2 0.17721770E+03</rscale>
<asrwt>0</asrwt>
<pdfrwt beam="1">  1       21 0.65298986E-01 0.17721770E+03</pdfrwt>
<pdfrwt beam="2">  1       21 0.18245811E-01 0.17721770E+03</pdfrwt>
<totfact> 0.59498350E+04</totfact>
</mgrwt>
</event>
<event>
 4    1  0.4151607E+000  0.2001448E+03  0.7546771E-02  0.1149617E+00
         21   -1    0    0  503  502  0.00000000000E+00  0.00000000000E+00  0.51500601951E+03  0.51500601951E+03  0.00000000000E+00 0.  1.
         21   -1    0    0  501  503 -0.00000000000E+00 -0.00000000000E+00 -0.93561642275E+02  0.93561642275E+02  0.00000000000E+00 0. -1.
          6    1    1    2  501    0 -0.91307317201E+02 -0.42330847004E+02  0.85757938776E+02  0.21774377338E+03  0.17300000000E+03 0. -1.
         -6    1    1    2    0  502  0.91307317201E+02  0.42330847004E+02  0.33568643846E+03  0.39082388840E+03  0.17300000000E+03 0.  1.
<mgrwt>
<rscale>  2 0.20014476E+03</rscale>
<asrwt>0</asrwt>
<pdfrwt beam="1">  1       21 0.79231693E-01 0.20014476E+03</pdfrwt>
<pdfrwt beam="2">  1       21 0.14394099E-01 0.20014476E+03</pdfrwt>
<totfact> 0.59220158E+04</totfact>
</mgrwt>
</event>
<event>
 4    1  0.4151607E+000  0.1924174E+03  0.7546771E-02  0.1156299E+00
         21   -1    0    0  503  502  0.00000000000E+00  0.00000000000E+00  0.14497140299E+03  0.14497140299E+03  0.00000000000E+00 0.  1.
         21   -1    0    0  501  503 -0.00000000000E+00 -0.00000000000E+00 -0.25591573644E+03  0.25591573644E+03  0.00000000000E+00 0. -1.
          6    1    1    2  501    0 -0.69456458619E+02 -0.47657757852E+02 -0.46399927494E+02  0.19793285427E+03  0.17300000000E+03 0.  1.
         -6    1    1    2    0  502  0.69456458619E+02  0.47657757852E+02 -0.64544405950E+02  0.20295428517E+03  0.17300000000E+03 0. -1.
<mgrwt>
<rscale>  2 0.19241741E+03</rscale>
<asrwt>0</asrwt>
<pdfrwt beam="1">  1       21 0.22303293E-01 0.19241741E+03</pdfrwt>
<pdfrwt beam="2">  1       21 0.39371652E-01 0.19241741E+03</pdfrwt>
<totfact> 0.11700493E+05</totfact>
</mgrwt>
</event>
<event>
 4    1  0.4151607E+000  0.2333535E+03  0.7546771E-02  0.1124301E+00
         21   -1    0    0  501  502  0.00000000000E+00  0.00000000000E+00  0.55509511875E+02  0.55509511875E+02  0.00000000000E+00 0.  1.
         21   -1    0    0  502  503 -0.00000000000E+00 -0.00000000000E+00 -0.13352963226E+04  0.13352963226E+04  0.00000000000E+00 0. -1.
          6    1    1    2  501    0 -0.14647473335E+03  0.55407492549E+02 -0.28167988620E+03  0.36578326374E+03  0.17300000000E+03 0.  1.
         -6    1    1    2    0  503  0.14647473335E+03 -0.55407492549E+02 -0.99810692454E+03  0.10250225708E+04  0.17300000000E+03 0. -1.
<mgrwt>
<rscale>  2 0.23335346E+03</rscale>
<asrwt>0</asrwt>
<pdfrwt beam="1">  1       21 0.85399261E-02 0.23335346E+03</pdfrwt>
<pdfrwt beam="2">  1       21 0.20543018E+00 0.23335346E+03</pdfrwt>
<totfact> 0.12866024E+04</totfact>
</mgrwt>
</event>
<event>
 4    1  0.4151607E+000  0.1894777E+03  0.7546771E-02  0.1158933E+00
         21   -1    0    0  501  502  0.00000000000E+00  0.00000000000E+00  0.53456491586E+02  0.53456491586E+02  0.00000000000E+00 0.  1.
         21   -1    0    0  502  503 -0.00000000000E+00 -0.00000000000E+00 -0.73235669797E+03  0.73235669797E+03  0.00000000000E+00 0. -1.
          6    1    1    2  501    0 -0.49678309969E+02 -0.59201894963E+02 -0.22628903240E+03  0.29514153390E+03  0.17300000000E+03 0.  1.
         -6    1    1    2    0  503  0.49678309969E+02  0.59201894963E+02 -0.45261117398E+03  0.49067165565E+03  0.17300000000E+03 0. -1.
<mgrwt>
<rscale>  2 0.18947770E+03</rscale>
<asrwt>0</asrwt>
<pdfrwt beam="1">  1       21 0.82240759E-02 0.18947770E+03</pdfrwt>
<pdfrwt beam="2">  1       21 0.11267026E+00 0.18947770E+03</pdfrwt>
<totfact> 0.70576431E+04</totfact>
</mgrwt>
</event>
<event>
 4    1  0.4151607E+000  0.2095394E+03  0.7546771E-02  0.1141931E+00
         21   -1    0    0  503  502  0.00000000000E+00  0.00000000000E+00  0.87539361608E+03  0.87539361608E+03  0.00000000000E+00 0.  1.
         21   -1    0    0  501  503 -0.00000000000E+00 -0.00000000000E+00 -0.67376109963E+02  0.67376109963E+02  0.00000000000E+00 0.  1.
          6    1    1    2  501    0  0.62347611765E+02  0.10045175793E+03  0.16570390706E+03  0.26714147035E+03  0.17300000000E+03 0. -1.
         -6    1    1    2    0  502 -0.62347611765E+02 -0.10045175793E+03  0.64231359906E+03  0.67562825570E+03  0.17300000000E+03 0. -1.
<mgrwt>
<rscale>  2 0.20953945E+03</rscale>
<asrwt>0</asrwt>
<pdfrwt beam="1">  1       21 0.13467593E+00 0.20953945E+03</pdfrwt>
<pdfrwt beam="2">  1       21 0.10365556E-01 0.20953945E+03</pdfrwt>
<totfact> 0.29794739E+04</totfact>
</mgrwt>
</event>
<event>
 4    1  0.4151607E+000  0.1855085E+03  0.7546771E-02  0.1162576E+00
         21   -1    0    0  501  502  0.00000000000E+00  0.00000000000E+00  0.57447177809E+03  0.57447177809E+03  0.00000000000E+00 0.  1.
         21   -1    0    0  502  503 -0.00000000000E+00 -0.00000000000E+00 -0.60489180848E+02  0.60489180848E+02  0.00000000000E+00 0.  1.
          6    1    1    2  501    0 -0.65605212592E+02 -0.13429818182E+02  0.28820634020E+03  0.34274815604E+03  0.17300000000E+03 0.  1.
         -6    1    1    2    0  503  0.65605212592E+02  0.13429818182E+02  0.22577625704E+03  0.29221280290E+03  0.17300000000E+03 0.  1.
<mgrwt>
<rscale>  2 0.18550850E+03</rscale>
<asrwt>0</asrwt>
<pdfrwt beam="1">  1       21 0.88380270E-01 0.18550850E+03</pdfrwt>
<pdfrwt beam="2">  1       21 0.93060282E-02 0.18550850E+03</pdfrwt>
<totfact> 0.10120347E+05</totfact>
</mgrwt>
</event>
<event>
 4    1  0.4151607E+000  0.2563226E+03  0.7546771E-02  0.1109373E+00
         21   -1    0    0  503  502  0.00000000000E+00  0.00000000000E+00  0.11219281088E+04  0.11219281088E+04  0.00000000000E+00 0.  1.
         21   -1    0    0  501  503 -0.00000000000E+00 -0.00000000000E+00 -0.75313681690E+02  0.75313681690E+02  0.00000000000E+00 0. -1.
          6    1    1    2  501    0 -0.17082242543E+03  0.81190872190E+02  0.24097736716E+03  0.35181152658E+03  0.17300000000E+03 0.  1.
         -6    1    1    2    0  502  0.17082242543E+03 -0.81190872190E+02  0.80563705991E+03  0.84543026387E+03  0.17300000000E+03 0.  1.
<mgrwt>
<rscale>  2 0.25632257E+03</rscale>
<asrwt>0</asrwt>
<pdfrwt beam="1">  1       21 0.17260431E+00 0.25632257E+03</pdfrwt>
<pdfrwt beam="2">  1       21 0.11586721E-01 0.25632257E+03</pdfrwt>
<totfact> 0.12239203E+04</totfact>
</mgrwt>
</event>
<event>
 4    1  0.4151607E+000  0.1802652E+03  0.7546771E-02  0.1167547E+00
         21   -1    0    0  503  502  0.00000000000E+00  0.00000000000E+00  0.29500604581E+02  0.29500604581E+02  0.00000000000E+00 0. -1.
         21   -1    0    0  501  503 -0.00000000000E+00 -0.00000000000E+00 -0.15945923094E+04  0.15945923094E+04  0.00000000000E+00 0. -1.
          6    1    1    2  501    0  0.44185354679E+02 -0.24782744204E+02 -0.12341012016E+04  0.12471973805E+04  0.17300000000E+03 0.  1.
         -6    1    1    2    0  502 -0.44185354679E+02  0.24782744204E+02 -0.33099050314E+03  0.37689553347E+03  0.17300000000E+03 0.  1.
<mgrwt>
<rscale>  2 0.18026517E+03</rscale>
<asrwt>0</asrwt>
<pdfrwt beam="1">  1       21 0.45385531E-02 0.18026517E+03</pdfrwt>
<pdfrwt beam="2">  1       21 0.24532197E+00 0.18026517E+03</pdfrwt>
<totfact> 0.22692379E+04</totfact>
</mgrwt>
</event>
<event>
 4    1  0.4151607E+000  0.1765351E+03  0.7546771E-02  0.1171199E+00
         21   -1    0    0  503  502  0.00000000000E+00  0.00000000000E+00  0.18351210695E+03  0.18351210695E+03  0.00000000000E+00 0. -1.
         21   -1    0    0  501  503 -0.00000000000E+00 -0.00000000000E+00 -0.16982431117E+03  0.16982431117E+03  0.00000000000E+00 0. -1.
          6    1    1    2  501    0  0.17818718802E+02 -0.30300577095E+02  0.72748528508E+01  0.17668490370E+03  0.17300000000E+03 0. -1.
         -6    1    1    2    0  502 -0.17818718802E+02  0.30300577095E+02  0.64129429280E+01  0.17665151443E+03  0.17300000000E+03 0. -1.
<mgrwt>
<rscale>  2 0.17653507E+03</rscale>
<asrwt>0</asrwt>
<pdfrwt beam="1">  1       21 0.28232632E-01 0.17653507E+03</pdfrwt>
<pdfrwt beam="2">  1       21 0.26126817E-01 0.17653507E+03</pdfrwt>
<totfact> 0.16774646E+05</totfact>
</mgrwt>
</event>
<event>
 4    1  0.4151607E+000  0.2079062E+03  0.7546771E-02  0.1143235E+00
         21   -1    0    0  501  502  0.00000000000E+00  0.00000000000E+00  0.56580469567E+03  0.56580469567E+03  0.00000000000E+00 0. -1.
         21   -1    0    0  502  503 -0.00000000000E+00 -0.00000000000E+00 -0.72670245002E+03  0.72670245002E+03  0.00000000000E+00 0. -1.
          6    1    1    2  501    0  0.11095520687E+03 -0.31383557419E+02  0.53089252877E+03  0.57015073683E+03  0.17300000000E+03 0. -1.
         -6    1    1    2    0  503 -0.11095520687E+03  0.31383557419E+02 -0.69179028312E+03  0.72235640886E+03  0.17300000000E+03 0. -1.
<mgrwt>
<rscale>  2 0.20790619E+03</rscale>
<asrwt>0</asrwt>
<pdfrwt beam="1">  1       21 0.87046876E-01 0.20790619E+03</pdfrwt>
<pdfrwt beam="2">  1       21 0.11180038E+00 0.20790619E+03</pdfrwt>
<totfact> 0.70120788E+02</totfact>
</mgrwt>
</event>
<event>
 4    1  0.4151607E+000  0.2488812E+03  0.7546771E-02  0.1114014E+00
         21   -1    0    0  503  502  0.00000000000E+00  0.00000000000E+00  0.88781180408E+02  0.88781180408E+02  0.00000000000E+00 0. -1.
         21   -1    0    0  501  503 -0.00000000000E+00 -0.00000000000E+00 -0.77588373312E+03  0.77588373312E+03  0.00000000000E+00 0. -1.
          6    1    1    2  501    0  0.16059684911E+03 -0.78876443356E+02 -0.48079812423E+03  0.54139512145E+03  0.17300000000E+03 0. -1.
         -6    1    1    2    0  502 -0.16059684911E+03  0.78876443356E+02 -0.20630442848E+03  0.32326979208E+03  0.17300000000E+03 0. -1.
<mgrwt>
<rscale>  2 0.24888118E+03</rscale>
<asrwt>0</asrwt>
<pdfrwt beam="1">  1       21 0.13658643E-01 0.24888118E+03</pdfrwt>
<pdfrwt beam="2">  1       21 0.11936673E+00 0.24888118E+03</pdfrwt>
<totfact> 0.24106552E+04</totfact>
</mgrwt>
</event>
<event>
 4    1  0.4151607E+000  0.2071811E+03  0.7546771E-02  0.1143818E+00
         21   -1    0    0  501  502  0.00000000000E+00  0.00000000000E+00  0.79625176321E+02  0.79625176321E+02  0.00000000000E+00 0.  1.
         21   -1    0    0  502  503 -0.00000000000E+00 -0.00000000000E+00 -0.10462850905E+04  0.10462850905E+04  0.00000000000E+00 0.  1.
          6    1    1    2  501    0  0.98807195242E+02 -0.56851846860E+02 -0.91369346041E+02  0.22643398976E+03  0.17300000000E+03 0.  1.
         -6    1    1    2    0  503 -0.98807195242E+02  0.56851846860E+02 -0.87529056811E+03  0.89947627703E+03  0.17300000000E+03 0.  1.
<mgrwt>
<rscale>  2 0.20718107E+03</rscale>
<asrwt>0</asrwt>
<pdfrwt beam="1">  1       21 0.12250028E-01 0.20718107E+03</pdfrwt>
<pdfrwt beam="2">  1       21 0.16096693E+00 0.20718107E+03</pdfrwt>
<totfact> 0.13857736E+04</totfact>
</mgrwt>
</event>
<event>
 4    1  0.4151607E+000  0.2850260E+03  0.7546771E-02  0.1092975E+00
         21   -1    0    0  503  502  0.00000000000E+00  0.00000000000E+00  0.16727065125E+03  0.16727065125E+03  0.00000000000E+00 0.  1.
         21   -1    0    0  501  503 -0.00000000000E+00 -0.00000000000E+00 -0.48733467724E+03  0.48733467724E+03  0.00000000000E+00 0. -1.
          6    1    1    2  501    0 -0.22514937706E+03 -0.24871292859E+02 -0.17911028136E+03  0.33663083057E+03  0.17300000000E+03 0. -1.
         -6    1    1    2    0  502  0.22514937706E+03  0.24871292859E+02 -0.14095374463E+03  0.31797449792E+03  0.17300000000E+03 0. -1.
<mgrwt>
<rscale>  2 0.28502600E+03</rscale>
<asrwt>0</asrwt>
<pdfrwt beam="1">  1       21 0.25733947E-01 0.28502600E+03</pdfrwt>
<pdfrwt beam="2">  1       21 0.74974564E-01 0.28502600E+03</pdfrwt>
<totfact> 0.21765379E+04</totfact>
</mgrwt>
</event>
<event>
 4    1  0.4151607E+000  0.1770936E+03  0.7546771E-02  0.1170646E+00
         21   -1    0    0  503  502  0.00000000000E+00  0.00000000000E+00  0.10330360417E+03  0.10330360417E+03  0.00000000000E+00 0. -1.
         21   -1    0    0  501  503 -0.00000000000E+00 -0.00000000000E+00 -0.30481469250E+03  0.30481469250E+03  0.00000000000E+00 0. -1.
          6    1    1    2  501    0 -0.20424951923E+02 -0.31873983377E+02 -0.11368047527E+03  0.21044091792E+03  0.17300000000E+03 0. -1.
         -6    1    1    2    0  502  0.20424951923E+02  0.31873983377E+02 -0.87830613057E+02  0.19767737874E+03  0.17300000000E+03 0. -1.
<mgrwt>
<rscale>  2 0.17709356E+03</rscale>
<asrwt>0</asrwt>
<pdfrwt beam="1">  1       21 0.15892862E-01 0.17709356E+03</pdfrwt>
<pdfrwt beam="2">  1       21 0.46894568E-01 0.17709356E+03</pdfrwt>
<totfact> 0.15442326E+05</totfact>
</mgrwt>
</event>
<event>
 4    1  0.4151607E+000  0.3010038E+03  0.7546771E-02  0.1084740E+00
         21   -1    0    0  503  502  0.00000000000E+00  0.00000000000E+00  0.27677869526E+03  0.27677869526E+03  0.00000000000E+00 0. -1.
         21   -1    0    0  501  503 -0.00000000000E+00 -0.00000000000E+00 -0.53666843721E+03  0.53666843721E+03  0.00000000000E+00 0.  1.
          6    1    1    2  501    0 -0.12684649539E+03 -0.21114976773E+03 -0.38395496865E+03  0.48787772623E+03  0.17300000000E+03 0.  1.
         -6    1    1    2    0  502  0.12684649539E+03  0.21114976773E+03  0.12406522669E+03  0.32556940624E+03  0.17300000000E+03 0. -1.
<mgrwt>
<rscale>  2 0.30100375E+03</rscale>
<asrwt>0</asrwt>
<pdfrwt beam="1">  1       21 0.42581338E-01 0.30100375E+03</pdfrwt>
<pdfrwt beam="2">  1       21 0.82564374E-01 0.30100375E+03</pdfrwt>
<totfact> 0.63584377E+03</totfact>
</mgrwt>
</event>
<event>
 4    1  0.4151607E+000  0.2206526E+03  0.7546771E-02  0.1133397E+00
         21   -1    0    0  503  502  0.00000000000E+00  0.00000000000E+00  0.42217548435E+03  0.42217548435E+03  0.00000000000E+00 0.  1.
         21   -1    0    0  501  503 -0.00000000000E+00 -0.00000000000E+00 -0.13282357087E+03  0.13282357087E+03  0.00000000000E+00 0.  1.
          6    1    1    2  501    0  0.94128868558E+02 -0.99490235678E+02  0.43954692866E+02  0.22498792393E+03  0.17300000000E+03 0.  1.
         -6    1    1    2    0  502 -0.94128868558E+02  0.99490235678E+02  0.24539722061E+03  0.33001113129E+03  0.17300000000E+03 0.  1.
<mgrwt>
<rscale>  2 0.22065256E+03</rscale>
<asrwt>0</asrwt>
<pdfrwt beam="1">  1       21 0.64950074E-01 0.22065256E+03</pdfrwt>
<pdfrwt beam="2">  1       21 0.20434396E-01 0.22065256E+03</pdfrwt>
<totfact> 0.47758454E+04</totfact>
</mgrwt>
</event>
<event>
 4    1  0.4151607E+000  0.1910990E+03  0.7546771E-02  0.1157474E+00
         21   -1    0    0  501  502  0.00000000000E+00  0.00000000000E+00  0.15585375471E+03  0.15585375471E+03  0.00000000000E+00 0.  1.
         21   -1    0    0  502  503 -0.00000000000E+00 -0.00000000000E+00 -0.37350532046E+03  0.37350532046E+03  0.00000000000E+00 0. -1.
          6    1    1    2  501    0  0.31504515462E+02 -0.74815069245E+02  0.52750243462E+02  0.19824585056E+03  0.17300000000E+03 0.  1.
         -6    1    1    2    0  503 -0.31504515462E+02  0.74815069245E+02 -0.27040180921E+03  0.33111322460E+03  0.17300000000E+03 0. -1.
<mgrwt>
<rscale>  2 0.19109900E+03</rscale>
<asrwt>0</asrwt>
<pdfrwt beam="1">  1       21 0.23977501E-01 0.19109900E+03</pdfrwt>
<pdfrwt beam="2">  1       21 0.57462356E-01 0.19109900E+03</pdfrwt>
<totfact> 0.46651743E+04</totfact>
</mgrwt>
</event>
<event>
 4    1  0.4151607E+000  0.3097287E+03  0.7546771E-02  0.1080476E+00
         21   -1    0    0  501  502  0.00000000000E+00  0.00000000000E+00  0.63149845206E+03  0.63149845206E+03  0.00000000000E+00 0. -1.
         21   -1    0    0  502  503 -0.00000000000E+00 -0.00000000000E+00 -0.36793976367E+03  0.36793976367E+03  0.00000000000E+00 0.  1.
          6    1    1    2  501    0 -0.10085038427E+03 -0.23628804813E+03  0.51468601925E+03  0.60069421515E+03  0.17300000000E+03 0. -1.
         -6    1    1    2    0  503  0.10085038427E+03  0.23628804813E+03 -0.25112733086E+03  0.39874400058E+03  0.17300000000E+03 0.  1.
<mgrwt>
<rscale>  2 0.30972866E+03</rscale>
<asrwt>0</asrwt>
<pdfrwt beam="1">  1       21 0.97153608E-01 0.30972866E+03</pdfrwt>
<pdfrwt beam="2">  1       21 0.56606118E-01 0.30972866E+03</pdfrwt>
<totfact> 0.23753841E+03</totfact>
</mgrwt>
</event>
<event>
 4    1  0.4151607E+000  0.2036121E+03  0.7546771E-02  0.1146727E+00
         21   -1    0    0  501  502  0.00000000000E+00  0.00000000000E+00  0.82149624930E+03  0.82149624930E+03  0.00000000000E+00 0.  1.
         21   -1    0    0  502  503 -0.00000000000E+00 -0.00000000000E+00 -0.50490391302E+02  0.50490391302E+02  0.00000000000E+00 0.  1.
          6    1    1    2  501    0  0.10230593907E+03 -0.32594048826E+02  0.37597947703E+03  0.42757273572E+03  0.17300000000E+03 0.  1.
         -6    1    1    2    0  503 -0.10230593907E+03  0.32594048826E+02  0.39502638097E+03  0.44441390488E+03  0.17300000000E+03 0.  1.
<mgrwt>
<rscale>  2 0.20361208E+03</rscale>
<asrwt>0</asrwt>
<pdfrwt beam="1">  1       21 0.12638403E+00 0.20361208E+03</pdfrwt>
<pdfrwt beam="2">  1       21 0.77677531E-02 0.20361208E+03</pdfrwt>
<totfact> 0.58280513E+04</totfact>
</mgrwt>
</event>
<event>
 4    1  0.4151607E+000  0.1743047E+03  0.7546771E-02  0.1173432E+00
         21   -1    0    0  503  502  0.00000000000E+00  0.00000000000E+00  0.15456646998E+04  0.15456646998E+04  0.00000000000E+00 0. -1.
         21   -1    0    0  501  503 -0.00000000000E+00 -0.00000000000E+00 -0.12080871762E+03  0.12080871762E+03  0.00000000000E+00 0. -1.
          6    1    1    2  501    0 -0.10550255963E+02  0.18487970991E+02 -0.50014870059E+02  0.18133835832E+03  0.17300000000E+03 0. -1.
         -6    1    1    2    0  502  0.10550255963E+02 -0.18487970991E+02  0.14748708522E+04  0.14851350590E+04  0.17300000000E+03 0. -1.
<mgrwt>
<rscale>  2 0.17430466E+03</rscale>
<asrwt>0</asrwt>
<pdfrwt beam="1">  1       21 0.23779456E+00 0.17430466E+03</pdfrwt>
<pdfrwt beam="2">  1       21 0.18585958E-01 0.17430466E+03</pdfrwt>
<totfact> 0.21225993E+03</totfact>
</mgrwt>
</event>
<event>
 4    1  0.4151607E+000  0.2143597E+03  0.7546771E-02  0.1138159E+00
         21   -1    0    0  501  502  0.00000000000E+00  0.00000000000E+00  0.29139883683E+03  0.29139883683E+03  0.00000000000E+00 0.  1.
         21   -1    0    0  502  503 -0.00000000000E+00 -0.00000000000E+00 -0.16775567392E+03  0.16775567392E+03  0.00000000000E+00 0.  1.
          6    1    1    2  501    0  0.11312271021E+02 -0.12606797466E+03  0.11806279436E+03  0.24472213860E+03  0.17300000000E+03 0.  1.
         -6    1    1    2    0  503 -0.11312271021E+02  0.12606797466E+03  0.55803685504E+01  0.21443237214E+03  0.17300000000E+03 0.  1.
<mgrwt>
<rscale>  2 0.21435975E+03</rscale>
<asrwt>0</asrwt>
<pdfrwt beam="1">  1       21 0.44830590E-01 0.21435975E+03</pdfrwt>
<pdfrwt beam="2">  1       21 0.25808565E-01 0.21435975E+03</pdfrwt>
<totfact> 0.67409124E+04</totfact>
</mgrwt>
</event>
<event>
 4    1  0.4151607E+000  0.2165956E+03  0.7546771E-02  0.1136447E+00
         21   -1    0    0  503  502  0.00000000000E+00  0.00000000000E+00  0.71052118192E+02  0.71052118192E+02  0.00000000000E+00 0.  1.
         21   -1    0    0  501  503 -0.00000000000E+00 -0.00000000000E+00 -0.66065308385E+03  0.66065308385E+03  0.00000000000E+00 0.  1.
          6    1    1    2  501    0 -0.10236386319E+03 -0.80661565026E+02 -0.28600144230E+03  0.35876241938E+03  0.17300000000E+03 0.  1.
         -6    1    1    2    0  502  0.10236386319E+03  0.80661565026E+02 -0.30359952336E+03  0.37294278266E+03  0.17300000000E+03 0.  1.
<mgrwt>
<rscale>  2 0.21659559E+03</rscale>
<asrwt>0</asrwt>
<pdfrwt beam="1">  1       21 0.10931095E-01 0.21659559E+03</pdfrwt>
<pdfrwt beam="2">  1       21 0.10163894E+00 0.21659559E+03</pdfrwt>
<totfact> 0.54090480E+04</totfact>
</mgrwt>
</event>
<event>
 4    1  0.4151607E+000  0.1812982E+03  0.7546771E-02  0.1166553E+00
         21   -1    0    0  501  502  0.00000000000E+00  0.00000000000E+00  0.56768186397E+03  0.56768186397E+03  0.00000000000E+00 0.  1.
         21   -1    0    0  502  503 -0.00000000000E+00 -0.00000000000E+00 -0.59782868097E+02  0.59782868097E+02  0.00000000000E+00 0.  1.
          6    1    1    2  501    0  0.47555477782E+02  0.26048144457E+02  0.30962065305E+03  0.35879517568E+03  0.17300000000E+03 0.  1.
         -6    1    1    2    0  503 -0.47555477782E+02 -0.26048144457E+02  0.19827834283E+03  0.26866955639E+03  0.17300000000E+03 0.  1.
<mgrwt>
<rscale>  2 0.18129818E+03</rscale>
<asrwt>0</asrwt>
<pdfrwt beam="1">  1       21 0.87335668E-01 0.18129818E+03</pdfrwt>
<pdfrwt beam="2">  1       21 0.91973647E-02 0.18129818E+03</pdfrwt>
<totfact> 0.10635295E+05</totfact>
</mgrwt>
</event>
<event>
 4    1  0.4151607E+000  0.2744642E+03  0.7546771E-02  0.1098751E+00
         21   -1    0    0  503  502  0.00000000000E+00  0.00000000000E+00  0.88606369425E+03  0.88606369425E+03  0.00000000000E+00 0. -1.
         21   -1    0    0  501  503 -0.00000000000E+00 -0.00000000000E+00 -0.16436636635E+03  0.16436636635E+03  0.00000000000E+00 0. -1.
          6    1    1    2  501    0 -0.18750984932E+03 -0.10120115657E+03 -0.40749491278E+01  0.27449448609E+03  0.17300000000E+03 0. -1.
         -6    1    1    2    0  502  0.18750984932E+03  0.10120115657E+03  0.72577227703E+03  0.77593557451E+03  0.17300000000E+03 0. -1.
<mgrwt>
<rscale>  2 0.27446424E+03</rscale>
<asrwt>0</asrwt>
<pdfrwt beam="1">  1       21 0.13631749E+00 0.27446424E+03</pdfrwt>
<pdfrwt beam="2">  1       21 0.25287134E-01 0.27446424E+03</pdfrwt>
<totfact> 0.53645266E+03</totfact>
</mgrwt>
</event>
<event>
 4    1  0.4151607E+000  0.1942365E+03  0.7546771E-02  0.1154695E+00
         21   -1    0    0  503  502  0.00000000000E+00  0.00000000000E+00  0.29570461570E+03  0.29570461570E+03  0.00000000000E+00 0. -1.
         21   -1    0    0  501  503 -0.00000000000E+00 -0.00000000000E+00 -0.22701462885E+03  0.22701462885E+03  0.00000000000E+00 0. -1.
          6    1    1    2  501    0  0.11168940564E+02 -0.87601817452E+02 -0.13862345674E+03  0.23863001993E+03  0.17300000000E+03 0. -1.
         -6    1    1    2    0  502 -0.11168940564E+02  0.87601817452E+02  0.20731344358E+03  0.28408922462E+03  0.17300000000E+03 0. -1.
<mgrwt>
<rscale>  2 0.19423651E+03</rscale>
<asrwt>0</asrwt>
<pdfrwt beam="1">  1       21 0.45493018E-01 0.19423651E+03</pdfrwt>
<pdfrwt beam="2">  1       21 0.34925327E-01 0.19423651E+03</pdfrwt>
<totfact> 0.36590959E+04</totfact>
</mgrwt>
</event>
<event>
 4    1  0.4151607E+000  0.2078654E+03  0.7546771E-02  0.1143268E+00
         21   -1    0    0  503  502  0.00000000000E+00  0.00000000000E+00  0.86056541250E+02  0.86056541250E+02  0.00000000000E+00 0. -1.
         21   -1    0    0  501  503 -0.00000000000E+00 -0.00000000000E+00 -0.69901061996E+03  0.69901061996E+03  0.00000000000E+00 0. -1.
          6    1    1    2  501    0  0.11071118343E+03  0.31969869378E+02 -0.51482136692E+03  0.55520183584E+03  0.17300000000E+03 0. -1.
         -6    1    1    2    0  502 -0.11071118343E+03 -0.31969869378E+02 -0.98132711791E+02  0.22986532537E+03  0.17300000000E+03 0. -1.
<mgrwt>
<rscale>  2 0.20786543E+03</rscale>
<asrwt>0</asrwt>
<pdfrwt beam="1">  1       21 0.13239468E-01 0.20786543E+03</pdfrwt>
<pdfrwt beam="2">  1       21 0.10754009E+00 0.20786543E+03</pdfrwt>
<totfact> 0.33638744E+04</totfact>
</mgrwt>
</event>
<event>
 4    1  0.4151607E+000  0.2003044E+03  0.7546771E-02  0.1149482E+00
         21   -1    0    0  503  502  0.00000000000E+00  0.00000000000E+00  0.67011806929E+02  0.67011806929E+02  0.00000000000E+00 0.  1.
         21   -1    0    0  501  503 -0.00000000000E+00 -0.00000000000E+00 -0.60818680914E+03  0.60818680914E+03  0.00000000000E+00 0.  1.
          6    1    1    2  501    0 -0.95842192801E+02  0.31735095057E+02 -0.31268945919E+03  0.37134423392E+03  0.17300000000E+03 0.  1.
         -6    1    1    2    0  502  0.95842192801E+02 -0.31735095057E+02 -0.22848554302E+03  0.30385438214E+03  0.17300000000E+03 0.  1.
<mgrwt>
<rscale>  2 0.20030437E+03</rscale>
<asrwt>0</asrwt>
<pdfrwt beam="1">  1       21 0.10309509E-01 0.20030437E+03</pdfrwt>
<pdfrwt beam="2">  1       21 0.93567201E-01 0.20030437E+03</pdfrwt>
<totfact> 0.73537745E+04</totfact>
</mgrwt>
</event>
<event>
 4    1  0.4151607E+000  0.1910400E+03  0.7546771E-02  0.1157527E+00
         21   -1    0    0  501  502  0.00000000000E+00  0.00000000000E+00  0.33004034326E+03  0.33004034326E+03  0.00000000000E+00 0.  1.
         21   -1    0    0  502  503 -0.00000000000E+00 -0.00000000000E+00 -0.14140602997E+03  0.14140602997E+03  0.00000000000E+00 0. -1.
          6    1    1    2  501    0 -0.62754944920E+02  0.51274885730E+02  0.20437419806E+03  0.27975902104E+03  0.17300000000E+03 0.  1.
         -6    1    1    2    0  503  0.62754944920E+02 -0.51274885730E+02 -0.15739884769E+02  0.19168735219E+03  0.17300000000E+03 0. -1.
<mgrwt>
<rscale>  2 0.19104004E+03</rscale>
<asrwt>0</asrwt>
<pdfrwt beam="1">  1       21 0.50775437E-01 0.19104004E+03</pdfrwt>
<pdfrwt beam="2">  1       21 0.21754774E-01 0.19104004E+03</pdfrwt>
<totfact> 0.72799819E+04</totfact>
</mgrwt>
</event>
<event>
 4    1  0.4151607E+000  0.2184055E+03  0.7546771E-02  0.1135077E+00
         21   -1    0    0  503  502  0.00000000000E+00  0.00000000000E+00  0.48434439152E+02  0.48434439152E+02  0.00000000000E+00 0. -1.
         21   -1    0    0  501  503 -0.00000000000E+00 -0.00000000000E+00 -0.99853452974E+03  0.99853452974E+03  0.00000000000E+00 0.  1.
          6    1    1    2  501    0 -0.12850846771E+03 -0.35461941846E+02 -0.53631793725E+03  0.57908367738E+03  0.17300000000E+03 0. -1.
         -6    1    1    2    0  502  0.12850846771E+03  0.35461941846E+02 -0.41378215335E+03  0.46788529152E+03  0.17300000000E+03 0.  1.
<mgrwt>
<rscale>  2 0.21840553E+03</rscale>
<asrwt>0</asrwt>
<pdfrwt beam="1">  1       21 0.74514520E-02 0.21840553E+03</pdfrwt>
<pdfrwt beam="2">  1       21 0.15362070E+00 0.21840553E+03</pdfrwt>
<totfact> 0.37527291E+04</totfact>
</mgrwt>
</event>
<event>
 4    1  0.4151607E+000  0.2201774E+03  0.7546771E-02  0.1133751E+00
         21   -1    0    0  501  502  0.00000000000E+00  0.00000000000E+00  0.34097587647E+03  0.34097587647E+03  0.00000000000E+00 0.  1.
         21   -1    0    0  502  503 -0.00000000000E+00 -0.00000000000E+00 -0.20290228673E+03  0.20290228673E+03  0.00000000000E+00 0. -1.
          6    1    1    2  501    0  0.88616559464E+01 -0.13590646225E+03  0.21780895382E+03  0.30970766182E+03  0.17300000000E+03 0.  1.
         -6    1    1    2    0  503 -0.88616559464E+01  0.13590646225E+03 -0.79735364078E+02  0.23417050137E+03  0.17300000000E+03 0. -1.
<mgrwt>
<rscale>  2 0.22017742E+03</rscale>
<asrwt>0</asrwt>
<pdfrwt beam="1">  1       21 0.52457827E-01 0.22017742E+03</pdfrwt>
<pdfrwt beam="2">  1       21 0.31215736E-01 0.22017742E+03</pdfrwt>
<totfact> 0.33498790E+04</totfact>
</mgrwt>
</event>
<event>
 4    1  0.4151607E+000  0.1766403E+03  0.7546771E-02  0.1171095E+00
         21   -1    0    0  501  502  0.00000000000E+00  0.00000000000E+00  0.43074773745E+03  0.43074773745E+03  0.00000000000E+00 0. -1.
         21   -1    0    0  502  503 -0.00000000000E+00 -0.00000000000E+00 -0.73520767878E+02  0.73520767878E+02  0.00000000000E+00 0. -1.
          6    1    1    2  501    0  0.34305462852E+02 -0.97940341671E+01  0.20923508968E+03  0.27382678949E+03  0.17300000000E+03 0. -1.
         -6    1    1    2    0  503 -0.34305462852E+02  0.97940341671E+01  0.14799187989E+03  0.23044171584E+03  0.17300000000E+03 0. -1.
<mgrwt>
<rscale>  2 0.17664028E+03</rscale>
<asrwt>0</asrwt>
<pdfrwt beam="1">  1       21 0.66268881E-01 0.17664028E+03</pdfrwt>
<pdfrwt beam="2">  1       21 0.11310888E-01 0.17664028E+03</pdfrwt>
<totfact> 0.13703287E+05</totfact>
</mgrwt>
</event>
<event>
 4    1  0.4151607E+000  0.2239228E+03  0.7546771E-02  0.1130992E+00
         21   -1    0    0  501  502  0.00000000000E+00  0.00000000000E+00  0.84643511814E+03  0.84643511814E+03  0.00000000000E+00 0. -1.
         21   -1    0    0  502  503 -0.00000000000E+00 -0.00000000000E+00 -0.10348950526E+03  0.10348950526E+03  0.00000000000E+00 0. -1.
          6    1    1    2  501    0 -0.14151144589E+03 -0.13672453578E+02  0.68205265146E+03  0.71786993576E+03  0.17300000000E+03 0. -1.
         -6    1    1    2    0  503  0.14151144589E+03  0.13672453578E+02  0.60892961423E+02  0.23205468764E+03  0.17300000000E+03 0. -1.
<mgrwt>
<rscale>  2 0.22392281E+03</rscale>
<asrwt>0</asrwt>
<pdfrwt beam="1">  1       21 0.13022078E+00 0.22392281E+03</pdfrwt>
<pdfrwt beam="2">  1       21 0.15921463E-01 0.22392281E+03</pdfrwt>
<totfact> 0.14834973E+04</totfact>
</mgrwt>
</event>
<event>
 4    1  0.4151607E+000  0.1903415E+03  0.7546771E-02  0.1158154E+00
         21   -1    0    0  503  502  0.00000000000E+00  0.00000000000E+00  0.56661617296E+03  0.56661617296E+03  0.00000000000E+00 0.  1.
         21   -1    0    0  501  503 -0.00000000000E+00 -0.00000000000E+00 -0.70926176120E+02  0.70926176120E+02  0.00000000000E+00 0.  1.
          6    1    1    2  501    0 -0.85046373532E+01  0.78921170191E+02  0.14780554867E+03  0.24099037362E+03  0.17300000000E+03 0.  1.
         -6    1    1    2    0  502  0.85046373532E+01 -0.78921170191E+02  0.34788444817E+03  0.39655197546E+03  0.17300000000E+03 0.  1.
<mgrwt>
<rscale>  2 0.19034148E+03</rscale>
<asrwt>0</asrwt>
<pdfrwt beam="1">  1       21 0.87171716E-01 0.19034148E+03</pdfrwt>
<pdfrwt beam="2">  1       21 0.10911720E-01 0.19034148E+03</pdfrwt>
<totfact> 0.78701611E+04</totfact>
</mgrwt>
</event>
<event>
 4    1  0.4151607E+000  0.2176954E+03  0.7546771E-02  0.1135613E+00
         21   -1    0    0  501  502  0.00000000000E+00  0.00000000000E+00  0.43910694828E+03  0.43910694828E+03  0.00000000000E+00 0. -1.
         21   -1    0    0  502  503 -0.00000000000E+00 -0.00000000000E+00 -0.18797058960E+03  0.18797058960E+03  0.00000000000E+00 0. -1.
          6    1    1    2  501    0 -0.76992142646E+01 -0.13192045491E+03  0.33017065325E+03  0.39547938580E+03  0.17300000000E+03 0. -1.
         -6    1    1    2    0  503  0.76992142646E+01  0.13192045491E+03 -0.79034294574E+02  0.23159815207E+03  0.17300000000E+03 0. -1.
<mgrwt>
<rscale>  2 0.21769539E+03</rscale>
<asrwt>0</asrwt>
<pdfrwt beam="1">  1       21 0.67554915E-01 0.21769539E+03</pdfrwt>
<pdfrwt beam="2">  1       21 0.28918552E-01 0.21769539E+03</pdfrwt>
<totfact> 0.22602754E+04</totfact>
</mgrwt>
</event>
<event>
 4    1  0.4151607E+000  0.1771581E+03  0.7546771E-02  0.1170582E+00
         21   -1    0    0  503  502  0.00000000000E+00  0.00000000000E+00  0.45545017029E+03  0.45545017029E+03  0.00000000000E+00 0.  1.
         21   -1    0    0  501  503 -0.00000000000E+00 -0.00000000000E+00 -0.98356063967E+02  0.98356063967E+02  0.00000000000E+00 0.  1.
          6    1    1    2  501    0  0.36893613034E+02 -0.97387565212E+01  0.27036688405E+02  0.17920927594E+03  0.17300000000E+03 0.  1.
         -6    1    1    2    0  502 -0.36893613034E+02  0.97387565212E+01  0.33005741791E+03  0.37459695832E+03  0.17300000000E+03 0.  1.
<mgrwt>
<rscale>  2 0.17715807E+03</rscale>
<asrwt>0</asrwt>
<pdfrwt beam="1">  1       21 0.70069256E-01 0.17715807E+03</pdfrwt>
<pdfrwt beam="2">  1       21 0.15131702E-01 0.17715807E+03</pdfrwt>
<totfact> 0.71863378E+04</totfact>
</mgrwt>
</event>
<event>
 4    1  0.4151607E+000  0.2572341E+03  0.7546771E-02  0.1108816E+00
         21   -1    0    0  501  502  0.00000000000E+00  0.00000000000E+00  0.68852376450E+03  0.68852376450E+03  0.00000000000E+00 0. -1.
         21   -1    0    0  502  503 -0.00000000000E+00 -0.00000000000E+00 -0.16566898640E+03  0.16566898640E+03  0.00000000000E+00 0.  1.
          6    1    1    2  501    0 -0.57385765369E+02 -0.18151383938E+03  0.53818708353E+03  0.59650208452E+03  0.17300000000E+03 0. -1.
         -6    1    1    2    0  503  0.57385765369E+02  0.18151383938E+03 -0.15332305439E+02  0.25769066638E+03  0.17300000000E+03 0.  1.
<mgrwt>
<rscale>  2 0.25723413E+03</rscale>
<asrwt>0</asrwt>
<pdfrwt beam="1">  1       21 0.10592673E+00 0.25723413E+03</pdfrwt>
<pdfrwt beam="2">  1       21 0.25487537E-01 0.25723413E+03</pdfrwt>
<totfact> 0.10025164E+04</totfact>
</mgrwt>
</event>
<event>
 4    1  0.4151607E+000  0.1739519E+03  0.7546771E-02  0.1173788E+00
         21   -1    0    0  501  502  0.00000000000E+00  0.00000000000E+00  0.51410166280E+03  0.51410166280E+03  0.00000000000E+00 0. -1.
         21   -1    0    0  502  503 -0.00000000000E+00 -0.00000000000E+00 -0.66579684593E+02  0.66579684593E+02  0.00000000000E+00 0. -1.
          6    1    1    2  501    0 -0.16985637154E+02 -0.64607337504E+01  0.32263427526E+03  0.36654075970E+03  0.17300000000E+03 0. -1.
         -6    1    1    2    0  503  0.16985637154E+02  0.64607337504E+01  0.12488770295E+03  0.21414058769E+03  0.17300000000E+03 0. -1.
<mgrwt>
<rscale>  2 0.17395187E+03</rscale>
<asrwt>0</asrwt>
<pdfrwt beam="1">  1       21 0.79092561E-01 0.17395187E+03</pdfrwt>
<pdfrwt beam="2">  1       21 0.10243029E-01 0.17395187E+03</pdfrwt>
<totfact> 0.11054865E+05</totfact>
</mgrwt>
</event>
<event>
 4    1  0.4151607E+000  0.1881684E+03  0.7546771E-02  0.1160124E+00
         21   -1    0    0  501  502  0.00000000000E+00  0.00000000000E+00  0.65941529422E+03  0.65941529422E+03  0.00000000000E+00 0.  1.
         21   -1    0    0  502  503 -0.00000000000E+00 -0.00000000000E+00 -0.53777836011E+02  0.53777836011E+02  0.00000000000E+00 0.  1.
          6    1    1    2  501    0  0.68851427259E+02 -0.27162878703E+02  0.28882805069E+03  0.34471580161E+03  0.17300000000E+03 0.  1.
         -6    1    1    2    0  503 -0.68851427259E+02  0.27162878703E+02  0.31680940752E+03  0.36847732862E+03  0.17300000000E+03 0.  1.
<mgrwt>
<rscale>  2 0.18816838E+03</rscale>
<asrwt>0</asrwt>
<pdfrwt beam="1">  1       21 0.10144850E+00 0.18816838E+03</pdfrwt>
<pdfrwt beam="2">  1       21 0.82735137E-02 0.18816838E+03</pdfrwt>
<totfact> 0.89955784E+04</totfact>
</mgrwt>
</event>
<event>
 4    1  0.4151607E+000  0.1784048E+03  0.7546771E-02  0.1169356E+00
         21   -1    0    0  501  502  0.00000000000E+00  0.00000000000E+00  0.21068305523E+03  0.21068305523E+03  0.00000000000E+00 0. -1.
         21   -1    0    0  502  503 -0.00000000000E+00 -0.00000000000E+00 -0.18293113064E+03  0.18293113064E+03  0.00000000000E+00 0. -1.
          6    1    1    2  501    0 -0.29828019711E+02  0.31773428438E+02  0.96008545596E+02  0.20259788336E+03  0.17300000000E+03 0. -1.
         -6    1    1    2    0  503  0.29828019711E+02 -0.31773428438E+02 -0.68256621003E+02  0.19101630251E+03  0.17300000000E+03 0. -1.
<mgrwt>
<rscale>  2 0.17840477E+03</rscale>
<asrwt>0</asrwt>
<pdfrwt beam="1">  1       21 0.32412778E-01 0.17840477E+03</pdfrwt>
<pdfrwt beam="2">  1       21 0.28143251E-01 0.17840477E+03</pdfrwt>
<totfact> 0.11106033E+05</totfact>
</mgrwt>
</event>
<event>
 4    1  0.4151607E+000  0.2775330E+03  0.7546771E-02  0.1097044E+00
         21   -1    0    0  501  502  0.00000000000E+00  0.00000000000E+00  0.86475410221E+03  0.86475410221E+03  0.00000000000E+00 0.  1.
         21   -1    0    0  502  503 -0.00000000000E+00 -0.00000000000E+00 -0.10151098844E+03  0.10151098844E+03  0.00000000000E+00 0.  1.
          6    1    1    2  501    0 -0.21451025161E+03 -0.32877327382E+02  0.55075078337E+03  0.61672602676E+03  0.17300000000E+03 0.  1.
         -6    1    1    2    0  503  0.21451025161E+03  0.32877327382E+02  0.21249233041E+03  0.34953906389E+03  0.17300000000E+03 0.  1.
<mgrwt>
<rscale>  2 0.27753300E+03</rscale>
<asrwt>0</asrwt>
<pdfrwt beam="1">  1       21 0.13303909E+00 0.27753300E+03</pdfrwt>
<pdfrwt beam="2">  1       21 0.15617076E-01 0.27753300E+03</pdfrwt>
<totfact> 0.14129708E+04</totfact>
</mgrwt>
</event>
<event>
 4    1  0.4151607E+000  0.1910802E+03  0.7546771E-02  0.1157491E+00
         21   -1    0    0  501  502  0.00000000000E+00  0.00000000000E+00  0.19519128730E+03  0.19519128730E+03  0.00000000000E+00 0. -1.
         21   -1    0    0  502  503 -0.00000000000E+00 -0.00000000000E+00 -0.18940504572E+03  0.18940504572E+03  0.00000000000E+00 0.  1.
          6    1    1    2  501    0  0.71878123308E+02 -0.37632377774E+02  0.24309424054E+02  0.19262037422E+03  0.17300000000E+03 0.  1.
         -6    1    1    2    0  503 -0.71878123308E+02  0.37632377774E+02 -0.18523182469E+02  0.19197595880E+03  0.17300000000E+03 0. -1.
<mgrwt>
<rscale>  2 0.19108025E+03</rscale>
<asrwt>0</asrwt>
<pdfrwt beam="1">  1       21 0.30029429E-01 0.19108025E+03</pdfrwt>
<pdfrwt beam="2">  1       21 0.29139238E-01 0.19108025E+03</pdfrwt>
<totfact> 0.12001408E+05</totfact>
</mgrwt>
</event>
<event>
 4    1  0.4151607E+000  0.1897513E+03  0.7546771E-02  0.1158686E+00
         21   -1    0    0  503  502  0.00000000000E+00  0.00000000000E+00  0.12667790356E+03  0.12667790356E+03  0.00000000000E+00 0.  1.
         21   -1    0    0  501  503 -0.00000000000E+00 -0.00000000000E+00 -0.31128632179E+03  0.31128632179E+03  0.00000000000E+00 0.  1.
          6    1    1    2  501    0  0.13050378076E+02 -0.76852045588E+02 -0.15686517934E+03  0.24619551939E+03  0.17300000000E+03 0.  1.
         -6    1    1    2    0  502 -0.13050378076E+02  0.76852045588E+02 -0.27743238892E+02  0.19176870595E+03  0.17300000000E+03 0.  1.
<mgrwt>
<rscale>  2 0.18975128E+03</rscale>
<asrwt>0</asrwt>
<pdfrwt beam="1">  1       21 0.19488909E-01 0.18975128E+03</pdfrwt>
<pdfrwt beam="2">  1       21 0.47890202E-01 0.18975128E+03</pdfrwt>
<totfact> 0.10107467E+05</totfact>
</mgrwt>
</event>
<event>
 4    1  0.4151607E+000  0.1944183E+03  0.7546771E-02  0.1154536E+00
         21   -1    0    0  503  502  0.00000000000E+00  0.00000000000E+00  0.16819201389E+03  0.16819201389E+03  0.00000000000E+00 0.  1.
         21   -1    0    0  501  503 -0.00000000000E+00 -0.00000000000E+00 -0.24042869704E+03  0.24042869704E+03  0.00000000000E+00 0.  1.
          6    1    1    2  501    0 -0.65191369852E+02 -0.60162660076E+02 -0.88318761780E+02  0.21353843695E+03  0.17300000000E+03 0.  1.
         -6    1    1    2    0  502  0.65191369852E+02  0.60162660076E+02  0.16082078624E+02  0.19508227399E+03  0.17300000000E+03 0.  1.
<mgrwt>
<rscale>  2 0.19441826E+03</rscale>
<asrwt>0</asrwt>
<pdfrwt beam="1">  1       21 0.25875694E-01 0.19441826E+03</pdfrwt>
<pdfrwt beam="2">  1       21 0.36989030E-01 0.19441826E+03</pdfrwt>
<totfact> 0.99901262E+04</totfact>
</mgrwt>
</event>
<event>
 4    1  0.4151607E+000  0.2129901E+03  0.7546771E-02  0.1139220E+00
         21   -1    0    0  501  502  0.00000000000E+00  0.00000000000E+00  0.96625838675E+02  0.96625838675E+02  0.00000000000E+00 0.  1.
         21   -1    0    0  502  503 -0.00000000000E+00 -0.00000000000E+00 -0.47582270647E+03  0.47582270647E+03  0.00000000000E+00 0.  1.
          6    1    1    2  501    0 -0.59828368441E+01  0.12409669464E+03 -0.22262073368E+03  0.30809864495E+03  0.17300000000E+03 0.  1.
         -6    1    1    2    0  503  0.59828368441E+01 -0.12409669464E+03 -0.15657613412E+03  0.26434990019E+03  0.17300000000E+03 0.  1.
<mgrwt>
<rscale>  2 0.21299010E+03</rscale>
<asrwt>0</asrwt>
<pdfrwt beam="1">  1       21 0.14865514E-01 0.21299010E+03</pdfrwt>
<pdfrwt beam="2">  1       21 0.73203493E-01 0.21299010E+03</pdfrwt>
<totfact> 0.66301376E+04</totfact>
</mgrwt>
</event>
<event>
 4    1  0.4151607E+000  0.1856062E+03  0.7546771E-02  0.1162485E+00
         21   -1    0    0  503  502  0.00000000000E+00  0.00000000000E+00  0.15618709878E+03  0.15618709878E+03  0.00000000000E+00 0.  1.
         21   -1    0    0  501  503 -0.00000000000E+00 -0.00000000000E+00 -0.40870360337E+03  0.40870360337E+03  0.00000000000E+00 0.  1.
          6    1    1    2  501    0  0.25347091128E+02 -0.62275066117E+02 -0.31788992798E+03  0.36810822484E+03  0.17300000000E+03 0.  1.
         -6    1    1    2    0  502 -0.25347091128E+02  0.62275066117E+02  0.65373423382E+02  0.19678247730E+03  0.17300000000E+03 0.  1.
<mgrwt>
<rscale>  2 0.18560619E+03</rscale>
<asrwt>0</asrwt>
<pdfrwt beam="1">  1       21 0.24028785E-01 0.18560619E+03</pdfrwt>
<pdfrwt beam="2">  1       21 0.62877477E-01 0.18560619E+03</pdfrwt>
<totfact> 0.38397618E+04</totfact>
</mgrwt>
</event>
<event>
 4    1  0.4151607E+000  0.2331656E+03  0.7546771E-02  0.1124431E+00
         21   -1    0    0  501  502  0.00000000000E+00  0.00000000000E+00  0.16393927429E+03  0.16393927429E+03  0.00000000000E+00 0.  1.
         21   -1    0    0  502  503 -0.00000000000E+00 -0.00000000000E+00 -0.33209097286E+03  0.33209097286E+03  0.00000000000E+00 0. -1.
          6    1    1    2  501    0  0.14952088753E+03 -0.45614878333E+02 -0.74776494920E+02  0.24486269035E+03  0.17300000000E+03 0. -1.
         -6    1    1    2    0  503 -0.14952088753E+03  0.45614878333E+02 -0.93375203646E+02  0.25116755680E+03  0.17300000000E+03 0.  1.
<mgrwt>
<rscale>  2 0.23316563E+03</rscale>
<asrwt>0</asrwt>
<pdfrwt beam="1">  1       21 0.25221427E-01 0.23316563E+03</pdfrwt>
<pdfrwt beam="2">  1       21 0.51090918E-01 0.23316563E+03</pdfrwt>
<totfact> 0.53260066E+04</totfact>
</mgrwt>
</event>
<event>
 4    1  0.4151607E+000  0.2183018E+03  0.7546771E-02  0.1135156E+00
         21   -1    0    0  501  502  0.00000000000E+00  0.00000000000E+00  0.57585440553E+03  0.57585440553E+03  0.00000000000E+00 0.  1.
         21   -1    0    0  502  503 -0.00000000000E+00 -0.00000000000E+00 -0.10381548609E+03  0.10381548609E+03  0.00000000000E+00 0.  1.
          6    1    1    2  501    0 -0.61419560402E+02 -0.11812830742E+03  0.38907756514E+03  0.44613564205E+03  0.17300000000E+03 0.  1.
         -6    1    1    2    0  503  0.61419560402E+02  0.11812830742E+03  0.82961354299E+02  0.23353424957E+03  0.17300000000E+03 0.  1.
<mgrwt>
<rscale>  2 0.21830176E+03</rscale>
<asrwt>0</asrwt>
<pdfrwt beam="1">  1       21 0.88592983E-01 0.21830176E+03</pdfrwt>
<pdfrwt beam="2">  1       21 0.15971614E-01 0.21830176E+03</pdfrwt>
<totfact> 0.37604664E+04</totfact>
</mgrwt>
</event>
<event>
 4    1  0.4151607E+000  0.1789275E+03  0.7546771E-02  0.1168845E+00
         21   -1    0    0  501  502  0.00000000000E+00  0.00000000000E+00  0.10938543224E+03  0.10938543224E+03  0.00000000000E+00 0. -1.
         21   -1    0    0  502  503 -0.00000000000E+00 -0.00000000000E+00 -0.51111478520E+03  0.51111478520E+03  0.00000000000E+00 0. -1.
          6    1    1    2  501    0  0.38599067776E+02  0.24416759595E+02  0.19560655191E+01  0.17893823620E+03  0.17300000000E+03 0. -1.
         -6    1    1    2    0  503 -0.38599067776E+02 -0.24416759595E+02 -0.40368541848E+03  0.44156198124E+03  0.17300000000E+03 0. -1.
<mgrwt>
<rscale>  2 0.17892754E+03</rscale>
<asrwt>0</asrwt>
<pdfrwt beam="1">  1       21 0.16828528E-01 0.17892754E+03</pdfrwt>
<pdfrwt beam="2">  1       21 0.78633044E-01 0.17892754E+03</pdfrwt>
<totfact> 0.45758222E+04</totfact>
</mgrwt>
</event>
<event>
 4    1  0.4151607E+000  0.2471143E+03  0.7546771E-02  0.1115142E+00
         21   -1    0    0  503  502  0.00000000000E+00  0.00000000000E+00  0.13104518813E+03  0.13104518813E+03  0.00000000000E+00 0. -1.
         21   -1    0    0  501  503 -0.00000000000E+00 -0.00000000000E+00 -0.73046848143E+03  0.73046848143E+03  0.00000000000E+00 0. -1.
          6    1    1    2  501    0  0.10641798497E+03 -0.14075392323E+03 -0.55890773435E+03  0.61110008178E+03  0.17300000000E+03 0. -1.
         -6    1    1    2    0  502 -0.10641798497E+03  0.14075392323E+03 -0.40515558956E+02  0.25041358778E+03  0.17300000000E+03 0. -1.
<mgrwt>
<rscale>  2 0.24711425E+03</rscale>
<asrwt>0</asrwt>
<pdfrwt beam="1">  1       21 0.20160798E-01 0.24711425E+03</pdfrwt>
<pdfrwt beam="2">  1       21 0.11237977E+00 0.24711425E+03</pdfrwt>
<totfact> 0.13634501E+04</totfact>
</mgrwt>
</event>
<event>
 4    1  0.4151607E+000  0.1822591E+03  0.7546771E-02  0.1165634E+00
         21   -1    0    0  503  502  0.00000000000E+00  0.00000000000E+00  0.25026338767E+03  0.25026338767E+03  0.00000000000E+00 0.  1.
         21   -1    0    0  501  503 -0.00000000000E+00 -0.00000000000E+00 -0.14383742962E+03  0.14383742962E+03  0.00000000000E+00 0. -1.
          6    1    1    2  501    0  0.53839936357E+02  0.19765041105E+02 -0.15358741925E+01  0.18226561526E+03  0.17300000000E+03 0. -1.
         -6    1    1    2    0  502 -0.53839936357E+02 -0.19765041105E+02  0.10796183224E+03  0.21183520203E+03  0.17300000000E+03 0.  1.
<mgrwt>
<rscale>  2 0.18225914E+03</rscale>
<asrwt>0</asrwt>
<pdfrwt beam="1">  1       21 0.38502059E-01 0.18225914E+03</pdfrwt>
<pdfrwt beam="2">  1       21 0.22128835E-01 0.18225914E+03</pdfrwt>
<totfact> 0.12463766E+05</totfact>
</mgrwt>
</event>
<event>
 4    1  0.4151607E+000  0.2220145E+03  0.7546771E-02  0.1132390E+00
         21   -1    0    0  501  502  0.00000000000E+00  0.00000000000E+00  0.55916630909E+02  0.55916630909E+02  0.00000000000E+00 0.  1.
         21   -1    0    0  502  503 -0.00000000000E+00 -0.00000000000E+00 -0.18783186295E+04  0.18783186295E+04  0.00000000000E+00 0.  1.
          6    1    1    2  501    0  0.96437435641E+01  0.13881086488E+03 -0.20666539809E+03  0.30331674000E+03  0.17300000000E+03 0.  1.
         -6    1    1    2    0  503 -0.96437435641E+01 -0.13881086488E+03 -0.16157366005E+04  0.16309185205E+04  0.17300000000E+03 0.  1.
<mgrwt>
<rscale>  2 0.22201454E+03</rscale>
<asrwt>0</asrwt>
<pdfrwt beam="1">  1       21 0.86025564E-02 0.22201454E+03</pdfrwt>
<pdfrwt beam="2">  1       21 0.28897217E+00 0.22201454E+03</pdfrwt>
<totfact> 0.40451321E+03</totfact>
</mgrwt>
</event>
<event>
 4    1  0.4151607E+000  0.2366540E+03  0.7546771E-02  0.1122042E+00
         21   -1    0    0  501  502  0.00000000000E+00  0.00000000000E+00  0.56384905542E+03  0.56384905542E+03  0.00000000000E+00 0. -1.
         21   -1    0    0  502  503 -0.00000000000E+00 -0.00000000000E+00 -0.17950166353E+03  0.17950166353E+03  0.00000000000E+00 0. -1.
          6    1    1    2  501    0 -0.11101476583E+03 -0.11726814422E+03  0.44057263342E+03  0.50010932925E+03  0.17300000000E+03 0. -1.
         -6    1    1    2    0  503  0.11101476583E+03  0.11726814422E+03 -0.56225241528E+02  0.24324138971E+03  0.17300000000E+03 0. -1.
<mgrwt>
<rscale>  2 0.23665396E+03</rscale>
<asrwt>0</asrwt>
<pdfrwt beam="1">  1       21 0.86746008E-01 0.23665396E+03</pdfrwt>
<pdfrwt beam="2">  1       21 0.27615641E-01 0.23665396E+03</pdfrwt>
<totfact> 0.13930312E+04</totfact>
</mgrwt>
</event>
<event>
 4    1  0.4151607E+000  0.4921901E+03  0.7546771E-02  0.1015838E+00
         21   -1    0    0  501  502  0.00000000000E+00  0.00000000000E+00  0.82068864772E+03  0.82068864772E+03  0.00000000000E+00 0.  1.
         21   -1    0    0  502  503 -0.00000000000E+00 -0.00000000000E+00 -0.30122166733E+03  0.30122166733E+03  0.00000000000E+00 0. -1.
          6    1    1    2  501    0 -0.26927003406E+03  0.37391948589E+03  0.33917585076E+03  0.59773856401E+03  0.17300000000E+03 0.  1.
         -6    1    1    2    0  503  0.26927003406E+03 -0.37391948589E+03  0.18029112963E+03  0.52417175105E+03  0.17300000000E+03 0.  1.
<mgrwt>
<rscale>  2 0.49219014E+03</rscale>
<asrwt>0</asrwt>
<pdfrwt beam="1">  1       21 0.12625979E+00 0.49219014E+03</pdfrwt>
<pdfrwt beam="2">  1       21 0.46341795E-01 0.49219014E+03</pdfrwt>
<totfact> 0.17520173E+03</totfact>
</mgrwt>
</event>
<event>
 4    1  0.4151607E+000  0.1808615E+03  0.7546771E-02  0.1166972E+00
         21   -1    0    0  503  502  0.00000000000E+00  0.00000000000E+00  0.19310787589E+03  0.19310787589E+03  0.00000000000E+00 0. -1.
         21   -1    0    0  501  503 -0.00000000000E+00 -0.00000000000E+00 -0.21037928287E+03  0.21037928287E+03  0.00000000000E+00 0. -1.
          6    1    1    2  501    0  0.26291313788E+02 -0.45723419878E+02 -0.97683788566E+02  0.20555531337E+03  0.17300000000E+03 0. -1.
         -6    1    1    2    0  502 -0.26291313788E+02  0.45723419878E+02  0.80412381588E+02  0.19793184539E+03  0.17300000000E+03 0. -1.
<mgrwt>
<rscale>  2 0.18086145E+03</rscale>
<asrwt>0</asrwt>
<pdfrwt beam="1">  1       21 0.29708904E-01 0.18086145E+03</pdfrwt>
<pdfrwt beam="2">  1       21 0.32366044E-01 0.18086145E+03</pdfrwt>
<totfact> 0.10019217E+05</totfact>
</mgrwt>
</event>
<event>
 4    1  0.4151607E+000  0.2122069E+03  0.7546771E-02  0.1139830E+00
         21   -1    0    0  501  502  0.00000000000E+00  0.00000000000E+00  0.15307817887E+03  0.15307817887E+03  0.00000000000E+00 0.  1.
         21   -1    0    0  502  503 -0.00000000000E+00 -0.00000000000E+00 -0.30271543431E+03  0.30271543431E+03  0.00000000000E+00 0. -1.
          6    1    1    2  501    0 -0.98893283259E+02  0.72958097615E+02 -0.36539482711E+02  0.21532974546E+03  0.17300000000E+03 0.  1.
         -6    1    1    2    0  503  0.98893283259E+02 -0.72958097615E+02 -0.11309777273E+03  0.24046386772E+03  0.17300000000E+03 0. -1.
<mgrwt>
<rscale>  2 0.21220689E+03</rscale>
<asrwt>0</asrwt>
<pdfrwt beam="1">  1       21 0.23550489E-01 0.21220689E+03</pdfrwt>
<pdfrwt beam="2">  1       21 0.46571605E-01 0.21220689E+03</pdfrwt>
<totfact> 0.74295890E+04</totfact>
</mgrwt>
</event>
<event>
 4    1  0.4151607E+000  0.1841115E+03  0.7546771E-02  0.1163882E+00
         21   -1    0    0  503  502  0.00000000000E+00  0.00000000000E+00  0.21522236939E+03  0.21522236939E+03  0.00000000000E+00 0.  1.
         21   -1    0    0  501  503 -0.00000000000E+00 -0.00000000000E+00 -0.52916221265E+03  0.52916221265E+03  0.00000000000E+00 0.  1.
          6    1    1    2  501    0 -0.62644437180E+02 -0.66123312921E+01 -0.46889367967E+03  0.50374431140E+03  0.17300000000E+03 0.  1.
         -6    1    1    2    0  502  0.62644437180E+02  0.66123312921E+01  0.15495383641E+03  0.24064027064E+03  0.17300000000E+03 0.  1.
<mgrwt>
<rscale>  2 0.18411151E+03</rscale>
<asrwt>0</asrwt>
<pdfrwt beam="1">  1       21 0.33111134E-01 0.18411151E+03</pdfrwt>
<pdfrwt beam="2">  1       21 0.81409571E-01 0.18411151E+03</pdfrwt>
<totfact> 0.11677368E+04</totfact>
</mgrwt>
</event>
<event>
 4    1  0.4151607E+000  0.2245514E+03  0.7546771E-02  0.1130535E+00
         21   -1    0    0  501  502  0.00000000000E+00  0.00000000000E+00  0.71445848757E+02  0.71445848757E+02  0.00000000000E+00 0.  1.
         21   -1    0    0  502  503 -0.00000000000E+00 -0.00000000000E+00 -0.84452855357E+03  0.84452855357E+03  0.00000000000E+00 0.  1.
          6    1    1    2  501    0 -0.12143993640E+03 -0.75806795721E+02 -0.20088999120E+03  0.30129738963E+03  0.17300000000E+03 0.  1.
         -6    1    1    2    0  503  0.12143993640E+03  0.75806795721E+02 -0.57219271361E+03  0.61467701270E+03  0.17300000000E+03 0.  1.
<mgrwt>
<rscale>  2 0.22455139E+03</rscale>
<asrwt>0</asrwt>
<pdfrwt beam="1">  1       21 0.10991669E-01 0.22455139E+03</pdfrwt>
<pdfrwt beam="2">  1       21 0.12992747E+00 0.22455139E+03</pdfrwt>
<totfact> 0.29159734E+04</totfact>
</mgrwt>
</event>
<event>
 4    1  0.4151607E+000  0.2096463E+03  0.7546771E-02  0.1141846E+00
         21   -1    0    0  503  502  0.00000000000E+00  0.00000000000E+00  0.40084889840E+03  0.40084889840E+03  0.00000000000E+00 0. -1.
         21   -1    0    0  501  503 -0.00000000000E+00 -0.00000000000E+00 -0.12169519610E+03  0.12169519610E+03  0.00000000000E+00 0.  1.
          6    1    1    2  501    0  0.77005088150E+02 -0.89959935716E+02  0.57365652249E+02  0.21735314972E+03  0.17300000000E+03 0.  1.
         -6    1    1    2    0  502 -0.77005088150E+02  0.89959935716E+02  0.22178805005E+03  0.30519094479E+03  0.17300000000E+03 0. -1.
<mgrwt>
<rscale>  2 0.20964631E+03</rscale>
<asrwt>0</asrwt>
<pdfrwt beam="1">  1       21 0.61669061E-01 0.20964631E+03</pdfrwt>
<pdfrwt beam="2">  1       21 0.18722338E-01 0.20964631E+03</pdfrwt>
<totfact> 0.63262550E+04</totfact>
</mgrwt>
</event>
<event>
 4    1  0.4151607E+000  0.1986997E+03  0.7546771E-02  0.1150841E+00
         21   -1    0    0  501  502  0.00000000000E+00  0.00000000000E+00  0.36582272339E+03  0.36582272339E+03  0.00000000000E+00 0. -1.
         21   -1    0    0  502  503 -0.00000000000E+00 -0.00000000000E+00 -0.14647870097E+03  0.14647870097E+03  0.00000000000E+00 0. -1.
          6    1    1    2  501    0  0.76042750654E+02  0.61400828597E+02  0.24108525757E+03  0.31241584963E+03  0.17300000000E+03 0. -1.
         -6    1    1    2    0  503 -0.76042750654E+02 -0.61400828597E+02 -0.21741235150E+02  0.19988557473E+03  0.17300000000E+03 0. -1.
<mgrwt>
<rscale>  2 0.19869968E+03</rscale>
<asrwt>0</asrwt>
<pdfrwt beam="1">  1       21 0.56280419E-01 0.19869968E+03</pdfrwt>
<pdfrwt beam="2">  1       21 0.22535185E-01 0.19869968E+03</pdfrwt>
<totfact> 0.54642376E+04</totfact>
</mgrwt>
</event>
<event>
 4    1  0.4151607E+000  0.1871153E+03  0.7546771E-02  0.1161089E+00
         21   -1    0    0  503  502  0.00000000000E+00  0.00000000000E+00  0.24436587723E+04  0.24436587723E+04  0.00000000000E+00 0. -1.
         21   -1    0    0  501  503 -0.00000000000E+00 -0.00000000000E+00 -0.16080603537E+02  0.16080603537E+02  0.00000000000E+00 0. -1.
          6    1    1    2  501    0  0.43625099023E+02  0.56391490996E+02  0.80773877049E+03  0.82912850083E+03  0.17300000000E+03 0. -1.
         -6    1    1    2    0  502 -0.43625099023E+02 -0.56391490996E+02  0.16198393983E+04  0.16306108750E+04  0.17300000000E+03 0. -1.
<mgrwt>
<rscale>  2 0.18711534E+03</rscale>
<asrwt>0</asrwt>
<pdfrwt beam="1">  1       21 0.37594721E+00 0.18711534E+03</pdfrwt>
<pdfrwt beam="2">  1       21 0.24739409E-02 0.18711534E+03</pdfrwt>
<totfact> 0.10714372E+04</totfact>
</mgrwt>
</event>
<event>
 4    1  0.4151607E+000  0.1872583E+03  0.7546771E-02  0.1160958E+00
         21   -1    0    0  503  502  0.00000000000E+00  0.00000000000E+00  0.21885197863E+03  0.21885197863E+03  0.00000000000E+00 0.  1.
         21   -1    0    0  501  503 -0.00000000000E+00 -0.00000000000E+00 -0.21232469227E+03  0.21232469227E+03  0.00000000000E+00 0.  1.
          6    1    1    2  501    0 -0.71391712075E+02 -0.63159937523E+01 -0.10352879225E+03  0.21397167839E+03  0.17300000000E+03 0.  1.
         -6    1    1    2    0  502  0.71391712075E+02  0.63159937523E+01  0.11005607861E+03  0.21720499250E+03  0.17300000000E+03 0.  1.
<mgrwt>
<rscale>  2 0.18725829E+03</rscale>
<asrwt>0</asrwt>
<pdfrwt beam="1">  1       21 0.33669535E-01 0.18725829E+03</pdfrwt>
<pdfrwt beam="2">  1       21 0.32665337E-01 0.18725829E+03</pdfrwt>
<totfact> 0.76812258E+04</totfact>
</mgrwt>
</event>
<event>
 4    1  0.4151607E+000  0.1971326E+03  0.7546771E-02  0.1152181E+00
         21   -1    0    0  503  502  0.00000000000E+00  0.00000000000E+00  0.54416733726E+03  0.54416733726E+03  0.00000000000E+00 0.  1.
         21   -1    0    0  501  503 -0.00000000000E+00 -0.00000000000E+00 -0.82690489054E+02  0.82690489054E+02  0.00000000000E+00 0.  1.
          6    1    1    2  501    0  0.82992723983E+02 -0.45215687886E+02  0.11499528958E+03  0.22822175026E+03  0.17300000000E+03 0.  1.
         -6    1    1    2    0  502 -0.82992723983E+02  0.45215687886E+02  0.34648155862E+03  0.39863607605E+03  0.17300000000E+03 0.  1.
<mgrwt>
<rscale>  2 0.19713257E+03</rscale>
<asrwt>0</asrwt>
<pdfrwt beam="1">  1       21 0.83718049E-01 0.19713257E+03</pdfrwt>
<pdfrwt beam="2">  1       21 0.12721614E-01 0.19713257E+03</pdfrwt>
<totfact> 0.65426355E+04</totfact>
</mgrwt>
</event>
<event>
 4    1  0.4151607E+000  0.1882717E+03  0.7546771E-02  0.1160029E+00
         21   -1    0    0  503  502  0.00000000000E+00  0.00000000000E+00  0.74828493952E+02  0.74828493952E+02  0.00000000000E+00 0.  1.
         21   -1    0    0  501  503 -0.00000000000E+00 -0.00000000000E+00 -0.62173905418E+03  0.62173905418E+03  0.00000000000E+00 0.  1.
          6    1    1    2  501    0  0.67850537121E+02  0.30224756194E+02 -0.44340397525E+03  0.48171912620E+03  0.17300000000E+03 0.  1.
         -6    1    1    2    0  502 -0.67850537121E+02 -0.30224756194E+02 -0.10350658498E+03  0.21484842194E+03  0.17300000000E+03 0.  1.
<mgrwt>
<rscale>  2 0.18827170E+03</rscale>
<asrwt>0</asrwt>
<pdfrwt beam="1">  1       21 0.11512076E-01 0.18827170E+03</pdfrwt>
<pdfrwt beam="2">  1       21 0.95652164E-01 0.18827170E+03</pdfrwt>
<totfact> 0.57733429E+04</totfact>
</mgrwt>
</event>
