<event>
 4    1  0.3980289E+000  0.1825494E+03  0.7546771E-02  0.1165358E+00
         21   -1    0    0  501  502  0.00000000000E+00  0.00000000000E+00  0.10214158322E+04  0.10214158322E+04  0.00000000000E+00 0.  1.
         21   -1    0    0  502  503 -0.00000000000E+00 -0.00000000000E+00 -0.38353539344E+03  0.38353539344E+03  0.00000000000E+00 0.  1.
          6    1    1    2  501    0 -0.21916742437E+02  0.53990148991E+02  0.99087370933E+03  0.10075490001E+04  0.17300000000E+03 0.  1.
         -6    1    1    2    0  503  0.21916742437E+02 -0.53990148991E+02 -0.35299327057E+03  0.39740222553E+03  0.17300000000E+03 0.  1.
<mgrwt>
<rscale>  2 0.18254939E+03</rscale>
<asrwt>0</asrwt>
<pdfrwt beam="1">  1       21 0.15714090E+00 0.18254939E+03</pdfrwt>
<pdfrwt beam="2">  1       21 0.59005445E-01 0.18254939E+03</pdfrwt>
<totfact> 0.71773431E+02</totfact>
</mgrwt>
</event>
<event>
 4    1  0.3980289E+000  0.2160836E+03  0.7546771E-02  0.1136837E+00
         21   -1    0    0  503  502  0.00000000000E+00  0.00000000000E+00  0.10254577539E+03  0.10254577539E+03  0.00000000000E+00 0. -1.
         21   -1    0    0  501  503 -0.00000000000E+00 -0.00000000000E+00 -0.45542319202E+03  0.45542319202E+03  0.00000000000E+00 0. -1.
          6    1    1    2  501    0  0.18112876326E+02 -0.12819922057E+03 -0.18044025742E+03  0.28151519132E+03  0.17300000000E+03 0. -1.
         -6    1    1    2    0  502 -0.18112876326E+02  0.12819922057E+03 -0.17243715920E+03  0.27645377609E+03  0.17300000000E+03 0. -1.
<mgrwt>
<rscale>  2 0.21608359E+03</rscale>
<asrwt>0</asrwt>
<pdfrwt beam="1">  1       21 0.15776273E-01 0.21608359E+03</pdfrwt>
<pdfrwt beam="2">  1       21 0.70065107E-01 0.21608359E+03</pdfrwt>
<totfact> 0.65458474E+04</totfact>
</mgrwt>
</event>
<event>
 4    1  0.3980289E+000  0.1818471E+03  0.7546771E-02  0.1166027E+00
         21   -1    0    0  501  502  0.00000000000E+00  0.00000000000E+00  0.59630600210E+02  0.59630600210E+02  0.00000000000E+00 0. -1.
         21   -1    0    0  502  503 -0.00000000000E+00 -0.00000000000E+00 -0.64101951370E+03  0.64101951370E+03  0.00000000000E+00 0. -1.
          6    1    1    2  501    0  0.42978719575E+02 -0.35947249888E+02 -0.16203030047E+03  0.24356147762E+03  0.17300000000E+03 0. -1.
         -6    1    1    2    0  503 -0.42978719575E+02  0.35947249888E+02 -0.41935861302E+03  0.45708863629E+03  0.17300000000E+03 0. -1.
<mgrwt>
<rscale>  2 0.18184712E+03</rscale>
<asrwt>0</asrwt>
<pdfrwt beam="1">  1       21 0.91739385E-02 0.18184712E+03</pdfrwt>
<pdfrwt beam="2">  1       21 0.98618387E-01 0.18184712E+03</pdfrwt>
<totfact> 0.80515800E+04</totfact>
</mgrwt>
</event>
<event>
 4    1  0.3980289E+000  0.2017899E+03  0.7546771E-02  0.1148238E+00
         21   -1    0    0  501  502  0.00000000000E+00  0.00000000000E+00  0.29515789326E+03  0.29515789326E+03  0.00000000000E+00 0.  1.
         21   -1    0    0  502  503 -0.00000000000E+00 -0.00000000000E+00 -0.32685958460E+03  0.32685958460E+03  0.00000000000E+00 0.  1.
          6    1    1    2  501    0  0.97081858442E+02  0.36949735064E+02  0.22058354486E+03  0.29895864333E+03  0.17300000000E+03 0.  1.
         -6    1    1    2    0  503 -0.97081858442E+02 -0.36949735064E+02 -0.25228523620E+03  0.32305883452E+03  0.17300000000E+03 0.  1.
<mgrwt>
<rscale>  2 0.20178992E+03</rscale>
<asrwt>0</asrwt>
<pdfrwt beam="1">  1       21 0.45408907E-01 0.20178992E+03</pdfrwt>
<pdfrwt beam="2">  1       21 0.50286090E-01 0.20178992E+03</pdfrwt>
<totfact> 0.17415225E+04</totfact>
</mgrwt>
</event>
<event>
 4    1  0.3980289E+000  0.3643880E+03  0.7546771E-02  0.1056860E+00
         21   -1    0    0  501  502  0.00000000000E+00  0.00000000000E+00  0.37116582375E+03  0.37116582375E+03  0.00000000000E+00 0. -1.
         21   -1    0    0  502  503 -0.00000000000E+00 -0.00000000000E+00 -0.59446006142E+03  0.59446006142E+03  0.00000000000E+00 0.  1.
          6    1    1    2  501    0  0.11737966102E+03 -0.29844865160E+03  0.19303062302E+03  0.41235834402E+03  0.17300000000E+03 0. -1.
         -6    1    1    2    0  503 -0.11737966102E+03  0.29844865160E+03 -0.41632486068E+03  0.55326754115E+03  0.17300000000E+03 0.  1.
<mgrwt>
<rscale>  2 0.36438796E+03</rscale>
<asrwt>0</asrwt>
<pdfrwt beam="1">  1       21 0.57102435E-01 0.36438796E+03</pdfrwt>
<pdfrwt beam="2">  1       21 0.91455394E-01 0.36438796E+03</pdfrwt>
<totfact> 0.26180543E+03</totfact>
</mgrwt>
</event>
<event>
 4    1  0.3980289E+000  0.1755117E+03  0.7546771E-02  0.1172219E+00
         21   -1    0    0  501  502  0.00000000000E+00  0.00000000000E+00  0.14364847793E+03  0.14364847793E+03  0.00000000000E+00 0. -1.
         21   -1    0    0  502  503 -0.00000000000E+00 -0.00000000000E+00 -0.31897094158E+03  0.31897094158E+03  0.00000000000E+00 0. -1.
          6    1    1    2  501    0  0.27580244539E+02 -0.10708981818E+02  0.44753207716E+02  0.18112758426E+03  0.17300000000E+03 0. -1.
         -6    1    1    2    0  503 -0.27580244539E+02  0.10708981818E+02 -0.22007567137E+03  0.28149183524E+03  0.17300000000E+03 0. -1.
<mgrwt>
<rscale>  2 0.17551169E+03</rscale>
<asrwt>0</asrwt>
<pdfrwt beam="1">  1       21 0.22099766E-01 0.17551169E+03</pdfrwt>
<pdfrwt beam="2">  1       21 0.49072453E-01 0.17551169E+03</pdfrwt>
<totfact> 0.76373540E+04</totfact>
</mgrwt>
</event>
<event>
 4    1  0.3980289E+000  0.2116825E+03  0.7546771E-02  0.1140240E+00
         21   -1    0    0  503  502  0.00000000000E+00  0.00000000000E+00  0.41434659183E+03  0.41434659183E+03  0.00000000000E+00 0.  1.
         21   -1    0    0  501  503 -0.00000000000E+00 -0.00000000000E+00 -0.10814688058E+03  0.10814688058E+03  0.00000000000E+00 0. -1.
          6    1    1    2  501    0 -0.37038546348E+02  0.11622666676E+03  0.15199642584E+03  0.26060008720E+03  0.17300000000E+03 0.  1.
         -6    1    1    2    0  502  0.37038546348E+02 -0.11622666676E+03  0.15420328540E+03  0.26189338520E+03  0.17300000000E+03 0. -1.
<mgrwt>
<rscale>  2 0.21168253E+03</rscale>
<asrwt>0</asrwt>
<pdfrwt beam="1">  1       21 0.63745629E-01 0.21168253E+03</pdfrwt>
<pdfrwt beam="2">  1       21 0.16637982E-01 0.21168253E+03</pdfrwt>
<totfact> 0.73179345E+04</totfact>
</mgrwt>
</event>
<event>
 4    1  0.3980289E+000  0.2091922E+03  0.7546771E-02  0.1142207E+00
         21   -1    0    0  503  502  0.00000000000E+00  0.00000000000E+00  0.30695201209E+03  0.30695201209E+03  0.00000000000E+00 0.  1.
         21   -1    0    0  501  503 -0.00000000000E+00 -0.00000000000E+00 -0.66249331273E+03  0.66249331273E+03  0.00000000000E+00 0.  1.
          6    1    1    2  501    0  0.49476833661E+02  0.10669773376E+03 -0.60718177263E+03  0.64220796357E+03  0.17300000000E+03 0.  1.
         -6    1    1    2    0  502 -0.49476833661E+02 -0.10669773376E+03  0.25164047199E+03  0.32723736126E+03  0.17300000000E+03 0.  1.
<mgrwt>
<rscale>  2 0.20919217E+03</rscale>
<asrwt>0</asrwt>
<pdfrwt beam="1">  1       21 0.47223386E-01 0.20919217E+03</pdfrwt>
<pdfrwt beam="2">  1       21 0.10192205E+00 0.20919217E+03</pdfrwt>
<totfact> 0.33200132E+03</totfact>
</mgrwt>
</event>
<event>
 4    1  0.3980289E+000  0.2016471E+03  0.7546771E-02  0.1148357E+00
         21   -1    0    0  501  502  0.00000000000E+00  0.00000000000E+00  0.12662443799E+03  0.12662443799E+03  0.00000000000E+00 0.  1.
         21   -1    0    0  502  503 -0.00000000000E+00 -0.00000000000E+00 -0.43878168810E+03  0.43878168810E+03  0.00000000000E+00 0.  1.
          6    1    1    2  501    0  0.92936441830E+02  0.45775150037E+02 -0.96839908496E+01  0.20187948449E+03  0.17300000000E+03 0.  1.
         -6    1    1    2    0  503 -0.92936441830E+02 -0.45775150037E+02 -0.30247325927E+03  0.36352664160E+03  0.17300000000E+03 0.  1.
<mgrwt>
<rscale>  2 0.20164708E+03</rscale>
<asrwt>0</asrwt>
<pdfrwt beam="1">  1       21 0.19480682E-01 0.20164708E+03</pdfrwt>
<pdfrwt beam="2">  1       21 0.67504876E-01 0.20164708E+03</pdfrwt>
<totfact> 0.48435216E+04</totfact>
</mgrwt>
</event>
<event>
 4    1  0.3980289E+000  0.1794617E+03  0.7546771E-02  0.1168325E+00
         21   -1    0    0  501  502  0.00000000000E+00  0.00000000000E+00  0.11345856910E+03  0.11345856910E+03  0.00000000000E+00 0.  1.
         21   -1    0    0  502  503 -0.00000000000E+00 -0.00000000000E+00 -0.60340729118E+03  0.60340729118E+03  0.00000000000E+00 0.  1.
          6    1    1    2  501    0  0.19772975094E+02  0.43434183352E+02  0.15862701757E+02  0.18016138358E+03  0.17300000000E+03 0.  1.
         -6    1    1    2    0  503 -0.19772975094E+02 -0.43434183352E+02 -0.50581142383E+03  0.53670447670E+03  0.17300000000E+03 0.  1.
<mgrwt>
<rscale>  2 0.17946169E+03</rscale>
<asrwt>0</asrwt>
<pdfrwt beam="1">  1       21 0.17455165E-01 0.17946169E+03</pdfrwt>
<pdfrwt beam="2">  1       21 0.92831889E-01 0.17946169E+03</pdfrwt>
<totfact> 0.29268271E+04</totfact>
</mgrwt>
</event>
<event>
 4    1  0.3980289E+000  0.1912766E+03  0.7546771E-02  0.1157315E+00
         21   -1    0    0  501  502  0.00000000000E+00  0.00000000000E+00  0.39977222572E+02  0.39977222572E+02  0.00000000000E+00 0. -1.
         21   -1    0    0  502  503 -0.00000000000E+00 -0.00000000000E+00 -0.97424788820E+03  0.97424788820E+03  0.00000000000E+00 0. -1.
          6    1    1    2  501    0 -0.31874953373E+02 -0.75111541030E+02 -0.34227962343E+03  0.39209960069E+03  0.17300000000E+03 0. -1.
         -6    1    1    2    0  503  0.31874953373E+02  0.75111541030E+02 -0.59199104220E+03  0.62212551008E+03  0.17300000000E+03 0. -1.
<mgrwt>
<rscale>  2 0.19127665E+03</rscale>
<asrwt>0</asrwt>
<pdfrwt beam="1">  1       21 0.61503424E-02 0.19127665E+03</pdfrwt>
<pdfrwt beam="2">  1       21 0.14988428E+00 0.19127665E+03</pdfrwt>
<totfact> 0.56649520E+04</totfact>
</mgrwt>
</event>
<event>
 4    1  0.3980289E+000  0.1943370E+03  0.7546771E-02  0.1154607E+00
         21   -1    0    0  503  502  0.00000000000E+00  0.00000000000E+00  0.10381666883E+03  0.10381666883E+03  0.00000000000E+00 0.  1.
         21   -1    0    0  501  503 -0.00000000000E+00 -0.00000000000E+00 -0.53393410920E+03  0.53393410920E+03  0.00000000000E+00 0.  1.
          6    1    1    2  501    0  0.10959163838E+02 -0.87850732229E+02 -0.39506727487E+03  0.44027832799E+03  0.17300000000E+03 0.  1.
         -6    1    1    2    0  502 -0.10959163838E+02  0.87850732229E+02 -0.35050165498E+02  0.19747245004E+03  0.17300000000E+03 0.  1.
<mgrwt>
<rscale>  2 0.19433696E+03</rscale>
<asrwt>0</asrwt>
<pdfrwt beam="1">  1       21 0.15971795E-01 0.19433696E+03</pdfrwt>
<pdfrwt beam="2">  1       21 0.82143710E-01 0.19433696E+03</pdfrwt>
<totfact> 0.45276246E+04</totfact>
</mgrwt>
</event>
<event>
 4    1  0.3980289E+000  0.1838596E+03  0.7546771E-02  0.1164119E+00
         21   -1    0    0  503  502  0.00000000000E+00  0.00000000000E+00  0.17971617289E+04  0.17971617289E+04  0.00000000000E+00 0.  1.
         21   -1    0    0  501  503 -0.00000000000E+00 -0.00000000000E+00 -0.43810744443E+02  0.43810744443E+02  0.00000000000E+00 0.  1.
          6    1    1    2  501    0 -0.57441708680E+02 -0.23995813626E+02  0.18132346526E+03  0.25822964203E+03  0.17300000000E+03 0.  1.
         -6    1    1    2    0  502  0.57441708680E+02  0.23995813626E+02  0.15720275192E+04  0.15827428314E+04  0.17300000000E+03 0.  1.
<mgrwt>
<rscale>  2 0.18385959E+03</rscale>
<asrwt>0</asrwt>
<pdfrwt beam="1">  1       21 0.27648636E+00 0.18385959E+03</pdfrwt>
<pdfrwt beam="2">  1       21 0.67401159E-02 0.18385959E+03</pdfrwt>
<totfact> 0.76004710E+03</totfact>
</mgrwt>
</event>
<event>
 4    1  0.3980289E+000  0.2012719E+03  0.7546771E-02  0.1148670E+00
         21   -1    0    0  501  502  0.00000000000E+00  0.00000000000E+00  0.11361347261E+03  0.11361347261E+03  0.00000000000E+00 0. -1.
         21   -1    0    0  502  503 -0.00000000000E+00 -0.00000000000E+00 -0.43094309340E+03  0.43094309340E+03  0.00000000000E+00 0. -1.
          6    1    1    2  501    0  0.26529361929E+02  0.99386066091E+02 -0.45547137636E+02  0.20636118560E+03  0.17300000000E+03 0. -1.
         -6    1    1    2    0  503 -0.26529361929E+02 -0.99386066091E+02 -0.27178248315E+03  0.33819538040E+03  0.17300000000E+03 0. -1.
<mgrwt>
<rscale>  2 0.20127195E+03</rscale>
<asrwt>0</asrwt>
<pdfrwt beam="1">  1       21 0.17478996E-01 0.20127195E+03</pdfrwt>
<pdfrwt beam="2">  1       21 0.66298937E-01 0.20127195E+03</pdfrwt>
<totfact> 0.61624053E+04</totfact>
</mgrwt>
</event>
<event>
 4    1  0.3980289E+000  0.2087195E+03  0.7546771E-02  0.1142584E+00
         21   -1    0    0  503  502  0.00000000000E+00  0.00000000000E+00  0.31209099340E+03  0.31209099340E+03  0.00000000000E+00 0.  1.
         21   -1    0    0  501  503 -0.00000000000E+00 -0.00000000000E+00 -0.13970302385E+03  0.13970302385E+03  0.00000000000E+00 0.  1.
          6    1    1    2  501    0  0.81970313466E+02 -0.83160779475E+02  0.79684164562E+02  0.22341310081E+03  0.17300000000E+03 0.  1.
         -6    1    1    2    0  502 -0.81970313466E+02  0.83160779475E+02  0.92703804996E+02  0.22838091644E+03  0.17300000000E+03 0.  1.
<mgrwt>
<rscale>  2 0.20871954E+03</rscale>
<asrwt>0</asrwt>
<pdfrwt beam="1">  1       21 0.48013999E-01 0.20871954E+03</pdfrwt>
<pdfrwt beam="2">  1       21 0.21492773E-01 0.20871954E+03</pdfrwt>
<totfact> 0.83043584E+04</totfact>
</mgrwt>
</event>
<event>
 4    1  0.3980289E+000  0.1860276E+03  0.7546771E-02  0.1162094E+00
         21   -1    0    0  503  502  0.00000000000E+00  0.00000000000E+00  0.11968721346E+03  0.11968721346E+03  0.00000000000E+00 0. -1.
         21   -1    0    0  501  503 -0.00000000000E+00 -0.00000000000E+00 -0.32042476520E+03  0.32042476520E+03  0.00000000000E+00 0. -1.
          6    1    1    2  501    0  0.67480075442E+02 -0.11122163188E+02 -0.16912979070E+03  0.25141827539E+03  0.17300000000E+03 0. -1.
         -6    1    1    2    0  502 -0.67480075442E+02  0.11122163188E+02 -0.31607761044E+02  0.18869370327E+03  0.17300000000E+03 0. -1.
<mgrwt>
<rscale>  2 0.18602759E+03</rscale>
<asrwt>0</asrwt>
<pdfrwt beam="1">  1       21 0.18413417E-01 0.18602759E+03</pdfrwt>
<pdfrwt beam="2">  1       21 0.49296118E-01 0.18602759E+03</pdfrwt>
<totfact> 0.10591098E+05</totfact>
</mgrwt>
</event>
<event>
 4    1  0.3980289E+000  0.3516537E+03  0.7546771E-02  0.1061938E+00
         21   -1    0    0  503  502  0.00000000000E+00  0.00000000000E+00  0.29447309727E+03  0.29447309727E+03  0.00000000000E+00 0.  1.
         21   -1    0    0  501  503 -0.00000000000E+00 -0.00000000000E+00 -0.42219868114E+03  0.42219868114E+03  0.00000000000E+00 0. -1.
          6    1    1    2  501    0  0.30551007736E+03 -0.19872430887E+02 -0.37639239297E+02  0.35366231523E+03  0.17300000000E+03 0.  1.
         -6    1    1    2    0  502 -0.30551007736E+03  0.19872430887E+02 -0.90086344571E+02  0.36300946318E+03  0.17300000000E+03 0. -1.
<mgrwt>
<rscale>  2 0.35165369E+03</rscale>
<asrwt>0</asrwt>
<pdfrwt beam="1">  1       21 0.45303553E-01 0.35165369E+03</pdfrwt>
<pdfrwt beam="2">  1       21 0.64953643E-01 0.35165369E+03</pdfrwt>
<totfact> 0.93940568E+03</totfact>
</mgrwt>
</event>
<event>
 4    1  0.3980289E+000  0.1989695E+03  0.7546771E-02  0.1150611E+00
         21   -1    0    0  503  502  0.00000000000E+00  0.00000000000E+00  0.16147334557E+03  0.16147334557E+03  0.00000000000E+00 0.  1.
         21   -1    0    0  501  503 -0.00000000000E+00 -0.00000000000E+00 -0.51710682751E+03  0.51710682751E+03  0.00000000000E+00 0.  1.
          6    1    1    2  501    0  0.97705123285E+02 -0.10656428114E+02 -0.42386082050E+03  0.46823802251E+03  0.17300000000E+03 0.  1.
         -6    1    1    2    0  502 -0.97705123285E+02  0.10656428114E+02  0.68227338558E+02  0.21034215056E+03  0.17300000000E+03 0.  1.
<mgrwt>
<rscale>  2 0.19896947E+03</rscale>
<asrwt>0</asrwt>
<pdfrwt beam="1">  1       21 0.24842053E-01 0.19896947E+03</pdfrwt>
<pdfrwt beam="2">  1       21 0.79554897E-01 0.19896947E+03</pdfrwt>
<totfact> 0.21271993E+04</totfact>
</mgrwt>
</event>
<event>
 4    1  0.3980289E+000  0.2381263E+03  0.7546771E-02  0.1121047E+00
         21   -1    0    0  501  502  0.00000000000E+00  0.00000000000E+00  0.65675375667E+03  0.65675375667E+03  0.00000000000E+00 0. -1.
         21   -1    0    0  502  503 -0.00000000000E+00 -0.00000000000E+00 -0.10961400501E+03  0.10961400501E+03  0.00000000000E+00 0. -1.
          6    1    1    2  501    0  0.11494804615E+03 -0.11645629532E+03  0.45013695475E+03  0.50924198576E+03  0.17300000000E+03 0. -1.
         -6    1    1    2    0  503 -0.11494804615E+03  0.11645629532E+03  0.97002796909E+02  0.25712577592E+03  0.17300000000E+03 0. -1.
<mgrwt>
<rscale>  2 0.23812627E+03</rscale>
<asrwt>0</asrwt>
<pdfrwt beam="1">  1       21 0.10103904E+00 0.23812627E+03</pdfrwt>
<pdfrwt beam="2">  1       21 0.16863693E-01 0.23812627E+03</pdfrwt>
<totfact> 0.24727893E+04</totfact>
</mgrwt>
</event>
<event>
 4    1  0.3980289E+000  0.1980459E+03  0.7546771E-02  0.1151398E+00
         21   -1    0    0  501  502  0.00000000000E+00  0.00000000000E+00  0.33037866085E+02  0.33037866085E+02  0.00000000000E+00 0. -1.
         21   -1    0    0  502  503 -0.00000000000E+00 -0.00000000000E+00 -0.12105338998E+04  0.12105338998E+04  0.00000000000E+00 0. -1.
          6    1    1    2  501    0  0.31319328100E+02  0.91171646849E+02 -0.50239957690E+03  0.54002546641E+03  0.17300000000E+03 0. -1.
         -6    1    1    2    0  503 -0.31319328100E+02 -0.91171646849E+02 -0.67509645686E+03  0.70354629952E+03  0.17300000000E+03 0. -1.
<mgrwt>
<rscale>  2 0.19804588E+03</rscale>
<asrwt>0</asrwt>
<pdfrwt beam="1">  1       21 0.50827490E-02 0.19804588E+03</pdfrwt>
<pdfrwt beam="2">  1       21 0.18623597E+00 0.19804588E+03</pdfrwt>
<totfact> 0.43063545E+04</totfact>
</mgrwt>
</event>
<event>
 4    1  0.3980289E+000  0.2364040E+03  0.7546771E-02  0.1122212E+00
         21   -1    0    0  503  502  0.00000000000E+00  0.00000000000E+00  0.19595442806E+03  0.19595442806E+03  0.00000000000E+00 0. -1.
         21   -1    0    0  501  503 -0.00000000000E+00 -0.00000000000E+00 -0.39790461322E+03  0.39790461322E+03  0.00000000000E+00 0.  1.
          6    1    1    2  501    0  0.13956115114E+03 -0.80501828861E+02 -0.25900099595E+03  0.35066846916E+03  0.17300000000E+03 0.  1.
         -6    1    1    2    0  502 -0.13956115114E+03  0.80501828861E+02  0.57050810787E+02  0.24319057212E+03  0.17300000000E+03 0. -1.
<mgrwt>
<rscale>  2 0.23640402E+03</rscale>
<asrwt>0</asrwt>
<pdfrwt beam="1">  1       21 0.30146835E-01 0.23640402E+03</pdfrwt>
<pdfrwt beam="2">  1       21 0.61216094E-01 0.23640402E+03</pdfrwt>
<totfact> 0.25588532E+04</totfact>
</mgrwt>
</event>
<event>
 4    1  0.3980289E+000  0.1763564E+03  0.7546771E-02  0.1171377E+00
         21   -1    0    0  501  502  0.00000000000E+00  0.00000000000E+00  0.68876012549E+02  0.68876012549E+02  0.00000000000E+00 0.  1.
         21   -1    0    0  502  503 -0.00000000000E+00 -0.00000000000E+00 -0.49363204340E+03  0.49363204340E+03  0.00000000000E+00 0.  1.
          6    1    1    2  501    0 -0.15555695236E+02 -0.30505992254E+02 -0.13026761802E+03  0.21925156219E+03  0.17300000000E+03 0.  1.
         -6    1    1    2    0  503  0.15555695236E+02  0.30505992254E+02 -0.29448841283E+03  0.34325649376E+03  0.17300000000E+03 0.  1.
<mgrwt>
<rscale>  2 0.17635644E+03</rscale>
<asrwt>0</asrwt>
<pdfrwt beam="1">  1       21 0.10596310E-01 0.17635644E+03</pdfrwt>
<pdfrwt beam="2">  1       21 0.75943390E-01 0.17635644E+03</pdfrwt>
<totfact> 0.11393274E+05</totfact>
</mgrwt>
</event>
<event>
 4    1  0.3980289E+000  0.1808458E+03  0.7546771E-02  0.1166987E+00
         21   -1    0    0  501  502  0.00000000000E+00  0.00000000000E+00  0.15438530590E+03  0.15438530590E+03  0.00000000000E+00 0.  1.
         21   -1    0    0  502  503 -0.00000000000E+00 -0.00000000000E+00 -0.42577218351E+03  0.42577218351E+03  0.00000000000E+00 0. -1.
          6    1    1    2  501    0 -0.21517654086E+02  0.48095758552E+02  0.69925837567E+02  0.19389387352E+03  0.17300000000E+03 0.  1.
         -6    1    1    2    0  503  0.21517654086E+02 -0.48095758552E+02 -0.34131271517E+03  0.38626361589E+03  0.17300000000E+03 0. -1.
<mgrwt>
<rscale>  2 0.18084582E+03</rscale>
<asrwt>0</asrwt>
<pdfrwt beam="1">  1       21 0.23751586E-01 0.18084582E+03</pdfrwt>
<pdfrwt beam="2">  1       21 0.65503413E-01 0.18084582E+03</pdfrwt>
<totfact> 0.36008363E+04</totfact>
</mgrwt>
</event>
<event>
 4    1  0.3980289E+000  0.1734770E+03  0.7546771E-02  0.1174270E+00
         21   -1    0    0  503  502  0.00000000000E+00  0.00000000000E+00  0.25589183191E+02  0.25589183191E+02  0.00000000000E+00 0.  1.
         21   -1    0    0  501  503 -0.00000000000E+00 -0.00000000000E+00 -0.14354323130E+04  0.14354323130E+04  0.00000000000E+00 0.  1.
          6    1    1    2  501    0 -0.12784311908E+02  0.13569818654E+01 -0.10154500661E+04  0.10301616945E+04  0.17300000000E+03 0.  1.
         -6    1    1    2    0  502  0.12784311908E+02 -0.13569818654E+01 -0.39439306372E+03  0.43085980173E+03  0.17300000000E+03 0.  1.
<mgrwt>
<rscale>  2 0.17347703E+03</rscale>
<asrwt>0</asrwt>
<pdfrwt beam="1">  1       21 0.39367978E-02 0.17347703E+03</pdfrwt>
<pdfrwt beam="2">  1       21 0.22083572E+00 0.17347703E+03</pdfrwt>
<totfact> 0.40585760E+04</totfact>
</mgrwt>
</event>
<event>
 4    1  0.3980289E+000  0.1853982E+03  0.7546771E-02  0.1162679E+00
         21   -1    0    0  503  502  0.00000000000E+00  0.00000000000E+00  0.42159449151E+03  0.42159449151E+03  0.00000000000E+00 0. -1.
         21   -1    0    0  501  503 -0.00000000000E+00 -0.00000000000E+00 -0.93065623178E+02  0.93065623178E+02  0.00000000000E+00 0. -1.
          6    1    1    2  501    0  0.62331824178E+02  0.23627113939E+02  0.73665944053E+02  0.19949728853E+03  0.17300000000E+03 0. -1.
         -6    1    1    2    0  502 -0.62331824178E+02 -0.23627113939E+02  0.25486292428E+03  0.31516282616E+03  0.17300000000E+03 0. -1.
<mgrwt>
<rscale>  2 0.18539821E+03</rscale>
<asrwt>0</asrwt>
<pdfrwt beam="1">  1       21 0.64860690E-01 0.18539821E+03</pdfrwt>
<pdfrwt beam="2">  1       21 0.14317788E-01 0.18539821E+03</pdfrwt>
<totfact> 0.93747178E+04</totfact>
</mgrwt>
</event>
<event>
 4    1  0.3980289E+000  0.1744806E+03  0.7546771E-02  0.1173254E+00
         21   -1    0    0  503  502  0.00000000000E+00  0.00000000000E+00  0.53635669341E+03  0.53635669341E+03  0.00000000000E+00 0. -1.
         21   -1    0    0  501  503 -0.00000000000E+00 -0.00000000000E+00 -0.67013825584E+02  0.67013825584E+02  0.00000000000E+00 0. -1.
          6    1    1    2  501    0  0.79187920839E+01  0.21255051978E+02  0.11666120790E+03  0.20988883232E+03  0.17300000000E+03 0. -1.
         -6    1    1    2    0  502 -0.79187920839E+01 -0.21255051978E+02  0.35268165993E+03  0.39348168668E+03  0.17300000000E+03 0. -1.
<mgrwt>
<rscale>  2 0.17448061E+03</rscale>
<asrwt>0</asrwt>
<pdfrwt beam="1">  1       21 0.82516411E-01 0.17448061E+03</pdfrwt>
<pdfrwt beam="2">  1       21 0.10309820E-01 0.17448061E+03</pdfrwt>
<totfact> 0.99292880E+04</totfact>
</mgrwt>
</event>
<event>
 4    1  0.3980289E+000  0.1803251E+03  0.7546771E-02  0.1167489E+00
         21   -1    0    0  501  502  0.00000000000E+00  0.00000000000E+00  0.79514637361E+03  0.79514637361E+03  0.00000000000E+00 0. -1.
         21   -1    0    0  502  503 -0.00000000000E+00 -0.00000000000E+00 -0.40950101852E+02  0.40950101852E+02  0.00000000000E+00 0. -1.
          6    1    1    2  501    0  0.47333783748E+02  0.18645241352E+02  0.39249922751E+03  0.43194070855E+03  0.17300000000E+03 0. -1.
         -6    1    1    2    0  503 -0.47333783748E+02 -0.18645241352E+02  0.36169704425E+03  0.40415576691E+03  0.17300000000E+03 0. -1.
<mgrwt>
<rscale>  2 0.18032507E+03</rscale>
<asrwt>0</asrwt>
<pdfrwt beam="1">  1       21 0.12233020E+00 0.18032507E+03</pdfrwt>
<pdfrwt beam="2">  1       21 0.63000163E-02 0.18032507E+03</pdfrwt>
<totfact> 0.91807226E+04</totfact>
</mgrwt>
</event>
<event>
 4    1  0.3980289E+000  0.1854830E+03  0.7546771E-02  0.1162600E+00
         21   -1    0    0  501  502  0.00000000000E+00  0.00000000000E+00  0.17064718454E+03  0.17064718454E+03  0.00000000000E+00 0. -1.
         21   -1    0    0  502  503 -0.00000000000E+00 -0.00000000000E+00 -0.24076740252E+03  0.24076740252E+03  0.00000000000E+00 0. -1.
          6    1    1    2  501    0  0.32212391122E+02 -0.58628481707E+02  0.47899298955E+02  0.19156795100E+03  0.17300000000E+03 0. -1.
         -6    1    1    2    0  503 -0.32212391122E+02  0.58628481707E+02 -0.11801951693E+03  0.21984663606E+03  0.17300000000E+03 0. -1.
<mgrwt>
<rscale>  2 0.18548298E+03</rscale>
<asrwt>0</asrwt>
<pdfrwt beam="1">  1       21 0.26253413E-01 0.18548298E+03</pdfrwt>
<pdfrwt beam="2">  1       21 0.37041139E-01 0.18548298E+03</pdfrwt>
<totfact> 0.97216505E+04</totfact>
</mgrwt>
</event>
<event>
 4    1  0.3980289E+000  0.2056131E+03  0.7546771E-02  0.1145088E+00
         21   -1    0    0  501  502  0.00000000000E+00  0.00000000000E+00  0.49966963583E+03  0.49966963583E+03  0.00000000000E+00 0.  1.
         21   -1    0    0  502  503 -0.00000000000E+00 -0.00000000000E+00 -0.87552778221E+02  0.87552778221E+02  0.00000000000E+00 0.  1.
          6    1    1    2  501    0 -0.65547751697E+02  0.89728805807E+02  0.25989259648E+03  0.33139240795E+03  0.17300000000E+03 0.  1.
         -6    1    1    2    0  503  0.65547751697E+02 -0.89728805807E+02  0.15222426113E+03  0.25583000610E+03  0.17300000000E+03 0.  1.
<mgrwt>
<rscale>  2 0.20561315E+03</rscale>
<asrwt>0</asrwt>
<pdfrwt beam="1">  1       21 0.76872250E-01 0.20561315E+03</pdfrwt>
<pdfrwt beam="2">  1       21 0.13469658E-01 0.20561315E+03</pdfrwt>
<totfact> 0.71316109E+04</totfact>
</mgrwt>
</event>
<event>
 4    1  0.3980289E+000  0.2245965E+03  0.7546771E-02  0.1130502E+00
         21   -1    0    0  503  502  0.00000000000E+00  0.00000000000E+00  0.21533265581E+03  0.21533265581E+03  0.00000000000E+00 0. -1.
         21   -1    0    0  501  503 -0.00000000000E+00 -0.00000000000E+00 -0.23465327927E+03  0.23465327927E+03  0.00000000000E+00 0. -1.
          6    1    1    2  501    0  0.13802534528E+03 -0.38257202808E+02 -0.18883170521E+02  0.22538896077E+03  0.17300000000E+03 0. -1.
         -6    1    1    2    0  502 -0.13802534528E+03  0.38257202808E+02 -0.43745293580E+00  0.22459697431E+03  0.17300000000E+03 0. -1.
<mgrwt>
<rscale>  2 0.22459655E+03</rscale>
<asrwt>0</asrwt>
<pdfrwt beam="1">  1       21 0.33128101E-01 0.22459655E+03</pdfrwt>
<pdfrwt beam="2">  1       21 0.36100504E-01 0.22459655E+03</pdfrwt>
<totfact> 0.64013052E+04</totfact>
</mgrwt>
</event>
<event>
 4    1  0.3980289E+000  0.2151312E+03  0.7546771E-02  0.1137566E+00
         21   -1    0    0  503  502  0.00000000000E+00  0.00000000000E+00  0.15749613625E+03  0.15749613625E+03  0.00000000000E+00 0. -1.
         21   -1    0    0  501  503 -0.00000000000E+00 -0.00000000000E+00 -0.29477239681E+03  0.29477239681E+03  0.00000000000E+00 0. -1.
          6    1    1    2  501    0 -0.63743154072E+02 -0.11085695283E+03 -0.81234910683E+02  0.22995774480E+03  0.17300000000E+03 0. -1.
         -6    1    1    2    0  502  0.63743154072E+02  0.11085695283E+03 -0.56041349883E+02  0.22231078826E+03  0.17300000000E+03 0. -1.
<mgrwt>
<rscale>  2 0.21513125E+03</rscale>
<asrwt>0</asrwt>
<pdfrwt beam="1">  1       21 0.24230175E-01 0.21513125E+03</pdfrwt>
<pdfrwt beam="2">  1       21 0.45349599E-01 0.21513125E+03</pdfrwt>
<totfact> 0.74257981E+04</totfact>
</mgrwt>
</event>
<event>
 4    1  0.3980289E+000  0.2253941E+03  0.7546771E-02  0.1129924E+00
         21   -1    0    0  501  502  0.00000000000E+00  0.00000000000E+00  0.19517766839E+03  0.19517766839E+03  0.00000000000E+00 0.  1.
         21   -1    0    0  502  503 -0.00000000000E+00 -0.00000000000E+00 -0.38911100973E+03  0.38911100973E+03  0.00000000000E+00 0.  1.
          6    1    1    2  501    0 -0.84517269484E+02 -0.11717648434E+03  0.71129042749E+02  0.23635109064E+03  0.17300000000E+03 0.  1.
         -6    1    1    2    0  503  0.84517269484E+02  0.11717648434E+03 -0.26506238408E+03  0.34793758748E+03  0.17300000000E+03 0.  1.
<mgrwt>
<rscale>  2 0.22539409E+03</rscale>
<asrwt>0</asrwt>
<pdfrwt beam="1">  1       21 0.30027334E-01 0.22539409E+03</pdfrwt>
<pdfrwt beam="2">  1       21 0.59863232E-01 0.22539409E+03</pdfrwt>
<totfact> 0.27212102E+04</totfact>
</mgrwt>
</event>
<event>
 4    1  0.3980289E+000  0.3150333E+03  0.7546771E-02  0.1077958E+00
         21   -1    0    0  503  502  0.00000000000E+00  0.00000000000E+00  0.13531344846E+03  0.13531344846E+03  0.00000000000E+00 0.  1.
         21   -1    0    0  501  503 -0.00000000000E+00 -0.00000000000E+00 -0.73626944917E+03  0.73626944917E+03  0.00000000000E+00 0. -1.
          6    1    1    2  501    0  0.20632739343E+03  0.16354204891E+03 -0.32743336849E+03  0.45437716255E+03  0.17300000000E+03 0. -1.
         -6    1    1    2    0  502 -0.20632739343E+03 -0.16354204891E+03 -0.27352263222E+03  0.41720573508E+03  0.17300000000E+03 0.  1.
<mgrwt>
<rscale>  2 0.31503332E+03</rscale>
<asrwt>0</asrwt>
<pdfrwt beam="1">  1       21 0.20817454E-01 0.31503332E+03</pdfrwt>
<pdfrwt beam="2">  1       21 0.11327222E+00 0.31503332E+03</pdfrwt>
<totfact> 0.12178648E+04</totfact>
</mgrwt>
</event>
<event>
 4    1  0.3980289E+000  0.1807223E+03  0.7546771E-02  0.1167106E+00
         21   -1    0    0  501  502  0.00000000000E+00  0.00000000000E+00  0.82455737366E+03  0.82455737366E+03  0.00000000000E+00 0.  1.
         21   -1    0    0  502  503 -0.00000000000E+00 -0.00000000000E+00 -0.44611178725E+02  0.44611178725E+02  0.00000000000E+00 0.  1.
          6    1    1    2  501    0 -0.35736313218E+02  0.38137607503E+02  0.53548435093E+03  0.56515843025E+03  0.17300000000E+03 0.  1.
         -6    1    1    2    0  503  0.35736313218E+02 -0.38137607503E+02  0.24446184400E+03  0.30401012214E+03  0.17300000000E+03 0.  1.
<mgrwt>
<rscale>  2 0.18072233E+03</rscale>
<asrwt>0</asrwt>
<pdfrwt beam="1">  1       21 0.12685497E+00 0.18072233E+03</pdfrwt>
<pdfrwt beam="2">  1       21 0.68632589E-02 0.18072233E+03</pdfrwt>
<totfact> 0.72365429E+04</totfact>
</mgrwt>
</event>
<event>
 4    1  0.3980289E+000  0.2777627E+03  0.7546771E-02  0.1096917E+00
         21   -1    0    0  503  502  0.00000000000E+00  0.00000000000E+00  0.22659855894E+04  0.22659855894E+04  0.00000000000E+00 0. -1.
         21   -1    0    0  501  503 -0.00000000000E+00 -0.00000000000E+00 -0.57266086581E+02  0.57266086581E+02  0.00000000000E+00 0. -1.
          6    1    1    2  501    0  0.74065537940E+02  0.20429733854E+03  0.36470095029E+03  0.45843089947E+03  0.17300000000E+03 0. -1.
         -6    1    1    2    0  502 -0.74065537940E+02 -0.20429733854E+03  0.18440185526E+04  0.18648207765E+04  0.17300000000E+03 0. -1.
<mgrwt>
<rscale>  2 0.27776268E+03</rscale>
<asrwt>0</asrwt>
<pdfrwt beam="1">  1       21 0.34861310E+00 0.27776268E+03</pdfrwt>
<pdfrwt beam="2">  1       21 0.88101689E-02 0.27776268E+03</pdfrwt>
<totfact> 0.16375139E+03</totfact>
</mgrwt>
</event>
<event>
 4    1  0.3980289E+000  0.1821612E+03  0.7546771E-02  0.1165728E+00
         21   -1    0    0  501  502  0.00000000000E+00  0.00000000000E+00  0.79941734462E+02  0.79941734462E+02  0.00000000000E+00 0.  1.
         21   -1    0    0  502  503 -0.00000000000E+00 -0.00000000000E+00 -0.44325037124E+03  0.44325037124E+03  0.00000000000E+00 0.  1.
          6    1    1    2  501    0 -0.21991472046E+02 -0.52631679575E+02 -0.11571349397E+03  0.21580623537E+03  0.17300000000E+03 0.  1.
         -6    1    1    2    0  503  0.21991472046E+02  0.52631679575E+02 -0.24759514281E+03  0.30738587033E+03  0.17300000000E+03 0.  1.
<mgrwt>
<rscale>  2 0.18216124E+03</rscale>
<asrwt>0</asrwt>
<pdfrwt beam="1">  1       21 0.12298728E-01 0.18216124E+03</pdfrwt>
<pdfrwt beam="2">  1       21 0.68192365E-01 0.18216124E+03</pdfrwt>
<totfact> 0.11064437E+05</totfact>
</mgrwt>
</event>
<event>
 4    1  0.3980289E+000  0.2239217E+03  0.7546771E-02  0.1130993E+00
         21   -1    0    0  503  502  0.00000000000E+00  0.00000000000E+00  0.56516486422E+02  0.56516486422E+02  0.00000000000E+00 0. -1.
         21   -1    0    0  501  503 -0.00000000000E+00 -0.00000000000E+00 -0.11519154157E+04  0.11519154157E+04  0.00000000000E+00 0. -1.
          6    1    1    2  501    0  0.12467916977E+03 -0.68315722984E+02 -0.83735288989E+03  0.86677609311E+03  0.17300000000E+03 0. -1.
         -6    1    1    2    0  502 -0.12467916977E+03  0.68315722984E+02 -0.25804603936E+03  0.34165580898E+03  0.17300000000E+03 0. -1.
<mgrwt>
<rscale>  2 0.22392171E+03</rscale>
<asrwt>0</asrwt>
<pdfrwt beam="1">  1       21 0.86948440E-02 0.22392171E+03</pdfrwt>
<pdfrwt beam="2">  1       21 0.17721776E+00 0.22392171E+03</pdfrwt>
<totfact> 0.19304771E+04</totfact>
</mgrwt>
</event>
<event>
 4    1  0.3980289E+000  0.2135388E+03  0.7546771E-02  0.1138794E+00
         21   -1    0    0  501  502  0.00000000000E+00  0.00000000000E+00  0.67180579730E+03  0.67180579730E+03  0.00000000000E+00 0. -1.
         21   -1    0    0  502  503 -0.00000000000E+00 -0.00000000000E+00 -0.98424552652E+02  0.98424552652E+02  0.00000000000E+00 0. -1.
          6    1    1    2  501    0  0.90631327389E+02 -0.86346933409E+02  0.50124689130E+03  0.54483692647E+03  0.17300000000E+03 0. -1.
         -6    1    1    2    0  503 -0.90631327389E+02  0.86346933409E+02  0.72134353348E+02  0.22539342348E+03  0.17300000000E+03 0. -1.
<mgrwt>
<rscale>  2 0.21353883E+03</rscale>
<asrwt>0</asrwt>
<pdfrwt beam="1">  1       21 0.10335474E+00 0.21353883E+03</pdfrwt>
<pdfrwt beam="2">  1       21 0.15142239E-01 0.21353883E+03</pdfrwt>
<totfact> 0.28912948E+04</totfact>
</mgrwt>
</event>
<event>
 4    1  0.3980289E+000  0.1916605E+03  0.7546771E-02  0.1156972E+00
         21   -1    0    0  501  502  0.00000000000E+00  0.00000000000E+00  0.95511511138E+02  0.95511511138E+02  0.00000000000E+00 0.  1.
         21   -1    0    0  502  503 -0.00000000000E+00 -0.00000000000E+00 -0.70771229854E+03  0.70771229854E+03  0.00000000000E+00 0.  1.
          6    1    1    2  501    0  0.30347611495E+02  0.76705678881E+02 -0.34734745573E+02  0.19478254862E+03  0.17300000000E+03 0.  1.
         -6    1    1    2    0  503 -0.30347611495E+02 -0.76705678881E+02 -0.57746604183E+03  0.60844126106E+03  0.17300000000E+03 0.  1.
<mgrwt>
<rscale>  2 0.19166048E+03</rscale>
<asrwt>0</asrwt>
<pdfrwt beam="1">  1       21 0.14694078E-01 0.19166048E+03</pdfrwt>
<pdfrwt beam="2">  1       21 0.10887882E+00 0.19166048E+03</pdfrwt>
<totfact> 0.27282898E+04</totfact>
</mgrwt>
</event>
<event>
 4    1  0.3980289E+000  0.2309427E+03  0.7546771E-02  0.1125978E+00
         21   -1    0    0  501  502  0.00000000000E+00  0.00000000000E+00  0.67094285429E+03  0.67094285429E+03  0.00000000000E+00 0. -1.
         21   -1    0    0  502  503 -0.00000000000E+00 -0.00000000000E+00 -0.81724333635E+02  0.81724333635E+02  0.00000000000E+00 0.  1.
          6    1    1    2  501    0 -0.99461002294E+02  0.11624556728E+03  0.23240981897E+03  0.32764133873E+03  0.17300000000E+03 0. -1.
         -6    1    1    2    0  503  0.99461002294E+02 -0.11624556728E+03  0.35680870168E+03  0.42502584920E+03  0.17300000000E+03 0. -1.
<mgrwt>
<rscale>  2 0.23094268E+03</rscale>
<asrwt>0</asrwt>
<pdfrwt beam="1">  1       21 0.10322197E+00 0.23094268E+03</pdfrwt>
<pdfrwt beam="2">  1       21 0.12572975E-01 0.23094268E+03</pdfrwt>
<totfact> 0.40283198E+04</totfact>
</mgrwt>
</event>
<event>
 4    1  0.3980289E+000  0.1731080E+03  0.7546771E-02  0.1174645E+00
         21   -1    0    0  503  502  0.00000000000E+00  0.00000000000E+00  0.27647938855E+02  0.27647938855E+02  0.00000000000E+00 0.  1.
         21   -1    0    0  501  503 -0.00000000000E+00 -0.00000000000E+00 -0.18122045082E+04  0.18122045082E+04  0.00000000000E+00 0.  1.
          6    1    1    2  501    0 -0.56094007805E+01 -0.24290930311E+01 -0.14754805649E+04  0.14856006406E+04  0.17300000000E+03 0.  1.
         -6    1    1    2    0  502  0.56094007805E+01  0.24290930311E+01 -0.30907600441E+03  0.35425180645E+03  0.17300000000E+03 0.  1.
<mgrwt>
<rscale>  2 0.17310796E+03</rscale>
<asrwt>0</asrwt>
<pdfrwt beam="1">  1       21 0.42535290E-02 0.17310796E+03</pdfrwt>
<pdfrwt beam="2">  1       21 0.27880070E+00 0.17310796E+03</pdfrwt>
<totfact> 0.16299999E+04</totfact>
</mgrwt>
</event>
<event>
 4    1  0.3980289E+000  0.2067210E+03  0.7546771E-02  0.1144189E+00
         21   -1    0    0  503  502  0.00000000000E+00  0.00000000000E+00  0.20510058728E+03  0.20510058728E+03  0.00000000000E+00 0.  1.
         21   -1    0    0  501  503 -0.00000000000E+00 -0.00000000000E+00 -0.20842378393E+03  0.20842378393E+03  0.00000000000E+00 0. -1.
          6    1    1    2  501    0 -0.31709264629E+02 -0.10862361774E+03  0.21164453186E+01  0.20673182420E+03  0.17300000000E+03 0. -1.
         -6    1    1    2    0  502  0.31709264629E+02  0.10862361774E+03 -0.54396419593E+01  0.20679254701E+03  0.17300000000E+03 0. -1.
<mgrwt>
<rscale>  2 0.20672099E+03</rscale>
<asrwt>0</asrwt>
<pdfrwt beam="1">  1       21 0.31553937E-01 0.20672099E+03</pdfrwt>
<pdfrwt beam="2">  1       21 0.32065197E-01 0.20672099E+03</pdfrwt>
<totfact> 0.89791895E+04</totfact>
</mgrwt>
</event>
<event>
 4    1  0.3980289E+000  0.1811434E+03  0.7546771E-02  0.1166701E+00
         21   -1    0    0  501  502  0.00000000000E+00  0.00000000000E+00  0.59236712098E+03  0.59236712098E+03  0.00000000000E+00 0.  1.
         21   -1    0    0  502  503 -0.00000000000E+00 -0.00000000000E+00 -0.14471659856E+03  0.14471659856E+03  0.00000000000E+00 0.  1.
          6    1    1    2  501    0  0.49498522208E+02 -0.20828259951E+02  0.51336691472E+03  0.54438819719E+03  0.17300000000E+03 0.  1.
         -6    1    1    2    0  503 -0.49498522208E+02  0.20828259951E+02 -0.65716392300E+02  0.19269552234E+03  0.17300000000E+03 0.  1.
<mgrwt>
<rscale>  2 0.18114337E+03</rscale>
<asrwt>0</asrwt>
<pdfrwt beam="1">  1       21 0.91133402E-01 0.18114337E+03</pdfrwt>
<pdfrwt beam="2">  1       21 0.22264092E-01 0.18114337E+03</pdfrwt>
<totfact> 0.19398321E+04</totfact>
</mgrwt>
</event>
<event>
 4    1  0.3980289E+000  0.1778040E+03  0.7546771E-02  0.1169945E+00
         21   -1    0    0  501  502  0.00000000000E+00  0.00000000000E+00  0.11888362980E+04  0.11888362980E+04  0.00000000000E+00 0. -1.
         21   -1    0    0  502  503 -0.00000000000E+00 -0.00000000000E+00 -0.43601713718E+02  0.43601713718E+02  0.00000000000E+00 0. -1.
          6    1    1    2  501    0 -0.15432278147E+02  0.38040923167E+02  0.95749605574E+03  0.97386496179E+03  0.17300000000E+03 0. -1.
         -6    1    1    2    0  503  0.15432278147E+02 -0.38040923167E+02  0.18773852850E+03  0.25857304989E+03  0.17300000000E+03 0. -1.
<mgrwt>
<rscale>  2 0.17780401E+03</rscale>
<asrwt>0</asrwt>
<pdfrwt beam="1">  1       21 0.18289787E+00 0.17780401E+03</pdfrwt>
<pdfrwt beam="2">  1       21 0.67079569E-02 0.17780401E+03</pdfrwt>
<totfact> 0.28608949E+04</totfact>
</mgrwt>
</event>
<event>
 4    1  0.3980289E+000  0.1745132E+03  0.7546771E-02  0.1173221E+00
         21   -1    0    0  501  502  0.00000000000E+00  0.00000000000E+00  0.59481139324E+03  0.59481139324E+03  0.00000000000E+00 0. -1.
         21   -1    0    0  502  503 -0.00000000000E+00 -0.00000000000E+00 -0.68207951396E+02  0.68207951396E+02  0.00000000000E+00 0. -1.
          6    1    1    2  501    0  0.11298329972E+02  0.19954645622E+02  0.42883832449E+03  0.46298720144E+03  0.17300000000E+03 0. -1.
         -6    1    1    2    0  503 -0.11298329972E+02 -0.19954645622E+02  0.97765117354E+02  0.20003214320E+03  0.17300000000E+03 0. -1.
<mgrwt>
<rscale>  2 0.17451315E+03</rscale>
<asrwt>0</asrwt>
<pdfrwt beam="1">  1       21 0.91509442E-01 0.17451315E+03</pdfrwt>
<pdfrwt beam="2">  1       21 0.10493531E-01 0.17451315E+03</pdfrwt>
<totfact> 0.75930708E+04</totfact>
</mgrwt>
</event>
<event>
 4    1  0.3980289E+000  0.1865100E+03  0.7546771E-02  0.1161647E+00
         21   -1    0    0  503  502  0.00000000000E+00  0.00000000000E+00  0.37347881596E+03  0.37347881596E+03  0.00000000000E+00 0. -1.
         21   -1    0    0  501  503 -0.00000000000E+00 -0.00000000000E+00 -0.14607290764E+03  0.14607290764E+03  0.00000000000E+00 0. -1.
          6    1    1    2  501    0 -0.65439884235E+02  0.23971085435E+02 -0.42674780029E+02  0.19132989373E+03  0.17300000000E+03 0. -1.
         -6    1    1    2    0  502  0.65439884235E+02 -0.23971085435E+02  0.27008068834E+03  0.32822182987E+03  0.17300000000E+03 0. -1.
<mgrwt>
<rscale>  2 0.18651003E+03</rscale>
<asrwt>0</asrwt>
<pdfrwt beam="1">  1       21 0.57458279E-01 0.18651003E+03</pdfrwt>
<pdfrwt beam="2">  1       21 0.22472755E-01 0.18651003E+03</pdfrwt>
<totfact> 0.52864538E+04</totfact>
</mgrwt>
</event>
<event>
 4    1  0.3980289E+000  0.2150228E+03  0.7546771E-02  0.1137649E+00
         21   -1    0    0  501  502  0.00000000000E+00  0.00000000000E+00  0.27714103541E+02  0.27714103541E+02  0.00000000000E+00 0.  1.
         21   -1    0    0  502  503 -0.00000000000E+00 -0.00000000000E+00 -0.17927829789E+04  0.17927829789E+04  0.00000000000E+00 0. -1.
          6    1    1    2  501    0 -0.24073414806E+02 -0.12540444521E+03 -0.64265607970E+03  0.67767369799E+03  0.17300000000E+03 0.  1.
         -6    1    1    2    0  503  0.24073414806E+02  0.12540444521E+03 -0.11224127957E+04  0.11428233845E+04  0.17300000000E+03 0. -1.
<mgrwt>
<rscale>  2 0.21502280E+03</rscale>
<asrwt>0</asrwt>
<pdfrwt beam="1">  1       21 0.42637092E-02 0.21502280E+03</pdfrwt>
<pdfrwt beam="2">  1       21 0.27581270E+00 0.21502280E+03</pdfrwt>
<totfact> 0.16222580E+04</totfact>
</mgrwt>
</event>
<event>
 4    1  0.3980289E+000  0.1951482E+03  0.7546771E-02  0.1153898E+00
         21   -1    0    0  501  502  0.00000000000E+00  0.00000000000E+00  0.90305068984E+02  0.90305068984E+02  0.00000000000E+00 0.  1.
         21   -1    0    0  502  503 -0.00000000000E+00 -0.00000000000E+00 -0.43386670231E+03  0.43386670231E+03  0.00000000000E+00 0.  1.
          6    1    1    2  501    0  0.97168156229E+01  0.89774158274E+02 -0.12791554035E+03  0.23333495551E+03  0.17300000000E+03 0.  1.
         -6    1    1    2    0  503 -0.97168156229E+01 -0.89774158274E+02 -0.21564609298E+03  0.29083681578E+03  0.17300000000E+03 0.  1.
<mgrwt>
<rscale>  2 0.19514819E+03</rscale>
<asrwt>0</asrwt>
<pdfrwt beam="1">  1       21 0.13893087E-01 0.19514819E+03</pdfrwt>
<pdfrwt beam="2">  1       21 0.66748724E-01 0.19514819E+03</pdfrwt>
<totfact> 0.92641445E+04</totfact>
</mgrwt>
</event>
<event>
 4    1  0.3980289E+000  0.1812688E+03  0.7546771E-02  0.1166581E+00
         21   -1    0    0  503  502  0.00000000000E+00  0.00000000000E+00  0.28591000653E+03  0.28591000653E+03  0.00000000000E+00 0.  1.
         21   -1    0    0  501  503 -0.00000000000E+00 -0.00000000000E+00 -0.14229253060E+03  0.14229253060E+03  0.00000000000E+00 0.  1.
          6    1    1    2  501    0  0.30662911861E+02  0.44600068150E+02 -0.22085988513E+02  0.18260934021E+03  0.17300000000E+03 0.  1.
         -6    1    1    2    0  502 -0.30662911861E+02 -0.44600068150E+02  0.16570346444E+03  0.24559319691E+03  0.17300000000E+03 0.  1.
<mgrwt>
<rscale>  2 0.18126881E+03</rscale>
<asrwt>0</asrwt>
<pdfrwt beam="1">  1       21 0.43986155E-01 0.18126881E+03</pdfrwt>
<pdfrwt beam="2">  1       21 0.21891159E-01 0.18126881E+03</pdfrwt>
<totfact> 0.97165540E+04</totfact>
</mgrwt>
</event>
<event>
 4    1  0.3980289E+000  0.2932316E+03  0.7546771E-02  0.1088674E+00
         21   -1    0    0  501  502  0.00000000000E+00  0.00000000000E+00  0.34533572306E+03  0.34533572306E+03  0.00000000000E+00 0. -1.
         21   -1    0    0  502  503 -0.00000000000E+00 -0.00000000000E+00 -0.27447191796E+03  0.27447191796E+03  0.00000000000E+00 0. -1.
          6    1    1    2  501    0  0.22865363935E+03 -0.61426845505E+02  0.12986056500E+03  0.32070003193E+03  0.17300000000E+03 0. -1.
         -6    1    1    2    0  503 -0.22865363935E+03  0.61426845505E+02 -0.58996759897E+02  0.29910760909E+03  0.17300000000E+03 0. -1.
<mgrwt>
<rscale>  2 0.29323155E+03</rscale>
<asrwt>0</asrwt>
<pdfrwt beam="1">  1       21 0.53128573E-01 0.29323155E+03</pdfrwt>
<pdfrwt beam="2">  1       21 0.42226449E-01 0.29323155E+03</pdfrwt>
<totfact> 0.17196250E+04</totfact>
</mgrwt>
</event>
<event>
 4    1  0.3980289E+000  0.2464386E+03  0.7546771E-02  0.1115576E+00
         21   -1    0    0  503  502  0.00000000000E+00  0.00000000000E+00  0.55041417766E+03  0.55041417766E+03  0.00000000000E+00 0.  1.
         21   -1    0    0  501  503 -0.00000000000E+00 -0.00000000000E+00 -0.12538641906E+03  0.12538641906E+03  0.00000000000E+00 0. -1.
          6    1    1    2  501    0 -0.28609921636E+02 -0.17316016427E+03  0.95456432146E+02  0.26427996622E+03  0.17300000000E+03 0.  1.
         -6    1    1    2    0  502  0.28609921636E+02  0.17316016427E+03  0.32957132646E+03  0.41152063050E+03  0.17300000000E+03 0. -1.
<mgrwt>
<rscale>  2 0.24643857E+03</rscale>
<asrwt>0</asrwt>
<pdfrwt beam="1">  1       21 0.84679103E-01 0.24643857E+03</pdfrwt>
<pdfrwt beam="2">  1       21 0.19290219E-01 0.24643857E+03</pdfrwt>
<totfact> 0.29022774E+04</totfact>
</mgrwt>
</event>
<event>
 4    1  0.3980289E+000  0.2156944E+03  0.7546771E-02  0.1137134E+00
         21   -1    0    0  501  502  0.00000000000E+00  0.00000000000E+00  0.48238520822E+02  0.48238520822E+02  0.00000000000E+00 0. -1.
         21   -1    0    0  502  503 -0.00000000000E+00 -0.00000000000E+00 -0.11678103809E+04  0.11678103809E+04  0.00000000000E+00 0. -1.
          6    1    1    2  501    0  0.11627964908E+02 -0.12829606558E+03 -0.30606393282E+03  0.37443186428E+03  0.17300000000E+03 0. -1.
         -6    1    1    2    0  503 -0.11627964908E+02  0.12829606558E+03 -0.81350792728E+03  0.84161703747E+03  0.17300000000E+03 0. -1.
<mgrwt>
<rscale>  2 0.21569444E+03</rscale>
<asrwt>0</asrwt>
<pdfrwt beam="1">  1       21 0.74213112E-02 0.21569444E+03</pdfrwt>
<pdfrwt beam="2">  1       21 0.17966313E+00 0.21569444E+03</pdfrwt>
<totfact> 0.24620104E+04</totfact>
</mgrwt>
</event>
<event>
 4    1  0.3980289E+000  0.2762452E+03  0.7546771E-02  0.1097758E+00
         21   -1    0    0  501  502  0.00000000000E+00  0.00000000000E+00  0.63606778724E+03  0.63606778724E+03  0.00000000000E+00 0.  1.
         21   -1    0    0  502  503 -0.00000000000E+00 -0.00000000000E+00 -0.16968704180E+03  0.16968704180E+03  0.00000000000E+00 0. -1.
          6    1    1    2  501    0  0.20508552640E+03  0.65744479325E+02  0.45125490529E+03  0.52909583182E+03  0.17300000000E+03 0.  1.
         -6    1    1    2    0  503 -0.20508552640E+03 -0.65744479325E+02  0.15125840153E+02  0.27665899722E+03  0.17300000000E+03 0.  1.
<mgrwt>
<rscale>  2 0.27624520E+03</rscale>
<asrwt>0</asrwt>
<pdfrwt beam="1">  1       21 0.97856581E-01 0.27624520E+03</pdfrwt>
<pdfrwt beam="2">  1       21 0.26105699E-01 0.27624520E+03</pdfrwt>
<totfact> 0.11469148E+04</totfact>
</mgrwt>
</event>
<event>
 4    1  0.3980289E+000  0.1993467E+03  0.7546771E-02  0.1150291E+00
         21   -1    0    0  503  502  0.00000000000E+00  0.00000000000E+00  0.50224568342E+03  0.50224568342E+03  0.00000000000E+00 0. -1.
         21   -1    0    0  501  503 -0.00000000000E+00 -0.00000000000E+00 -0.17326439237E+03  0.17326439237E+03  0.00000000000E+00 0. -1.
          6    1    1    2  501    0  0.17422324347E+02 -0.97501728295E+02 -0.84474048451E+02  0.21650632616E+03  0.17300000000E+03 0. -1.
         -6    1    1    2    0  502 -0.17422324347E+02  0.97501728295E+02  0.41345533950E+03  0.45900374963E+03  0.17300000000E+03 0. -1.
<mgrwt>
<rscale>  2 0.19934674E+03</rscale>
<asrwt>0</asrwt>
<pdfrwt beam="1">  1       21 0.77268566E-01 0.19934674E+03</pdfrwt>
<pdfrwt beam="2">  1       21 0.26656061E-01 0.19934674E+03</pdfrwt>
<totfact> 0.19842086E+04</totfact>
</mgrwt>
</event>
<event>
 4    1  0.3980289E+000  0.1898190E+03  0.7546771E-02  0.1158625E+00
         21   -1    0    0  503  502  0.00000000000E+00  0.00000000000E+00  0.48484628915E+03  0.48484628915E+03  0.00000000000E+00 0. -1.
         21   -1    0    0  501  503 -0.00000000000E+00 -0.00000000000E+00 -0.94025798470E+02  0.94025798470E+02  0.00000000000E+00 0. -1.
          6    1    1    2  501    0 -0.72796259676E+01  0.77777032151E+02  0.62889672611E+02  0.19996592361E+03  0.17300000000E+03 0.  1.
         -6    1    1    2    0  502  0.72796259676E+01 -0.77777032151E+02  0.32793081807E+03  0.37890616401E+03  0.17300000000E+03 0.  1.
<mgrwt>
<rscale>  2 0.18981902E+03</rscale>
<asrwt>0</asrwt>
<pdfrwt beam="1">  1       21 0.74591735E-01 0.18981902E+03</pdfrwt>
<pdfrwt beam="2">  1       21 0.14465508E-01 0.18981902E+03</pdfrwt>
<totfact> 0.67525410E+04</totfact>
</mgrwt>
</event>
<event>
 4    1  0.3980289E+000  0.2169383E+03  0.7546771E-02  0.1136186E+00
         21   -1    0    0  503  502  0.00000000000E+00  0.00000000000E+00  0.56906722648E+03  0.56906722648E+03  0.00000000000E+00 0. -1.
         21   -1    0    0  501  503 -0.00000000000E+00 -0.00000000000E+00 -0.96889105988E+02  0.96889105988E+02  0.00000000000E+00 0. -1.
          6    1    1    2  501    0  0.11953407002E+03  0.53336831806E+02  0.10866649741E+03  0.24263268366E+03  0.17300000000E+03 0. -1.
         -6    1    1    2    0  502 -0.11953407002E+03 -0.53336831806E+02  0.36351162309E+03  0.42332364881E+03  0.17300000000E+03 0. -1.
<mgrwt>
<rscale>  2 0.21693827E+03</rscale>
<asrwt>0</asrwt>
<pdfrwt beam="1">  1       21 0.87548802E-01 0.21693827E+03</pdfrwt>
<pdfrwt beam="2">  1       21 0.14906017E-01 0.21693827E+03</pdfrwt>
<totfact> 0.43885680E+04</totfact>
</mgrwt>
</event>
<event>
 4    1  0.3980289E+000  0.1906837E+03  0.7546771E-02  0.1157846E+00
         21   -1    0    0  501  502  0.00000000000E+00  0.00000000000E+00  0.54773296393E+02  0.54773296393E+02  0.00000000000E+00 0. -1.
         21   -1    0    0  502  503 -0.00000000000E+00 -0.00000000000E+00 -0.66490114515E+03  0.66490114515E+03  0.00000000000E+00 0.  1.
          6    1    1    2  501    0 -0.89544994265E+01 -0.79693631961E+02 -0.29063351293E+03  0.34760336142E+03  0.17300000000E+03 0. -1.
         -6    1    1    2    0  503  0.89544994265E+01  0.79693631961E+02 -0.31949433583E+03  0.37207108012E+03  0.17300000000E+03 0.  1.
<mgrwt>
<rscale>  2 0.19068366E+03</rscale>
<asrwt>0</asrwt>
<pdfrwt beam="1">  1       21 0.84266604E-02 0.19068366E+03</pdfrwt>
<pdfrwt beam="2">  1       21 0.10229249E+00 0.19068366E+03</pdfrwt>
<totfact> 0.85327554E+04</totfact>
</mgrwt>
</event>
<event>
 4    1  0.3980289E+000  0.2873136E+03  0.7546771E-02  0.1091760E+00
         21   -1    0    0  503  502  0.00000000000E+00  0.00000000000E+00  0.19254637375E+03  0.19254637375E+03  0.00000000000E+00 0. -1.
         21   -1    0    0  501  503 -0.00000000000E+00 -0.00000000000E+00 -0.46769360526E+03  0.46769360526E+03  0.00000000000E+00 0.  1.
          6    1    1    2  501    0 -0.22938667407E+03 -0.13570764326E+01 -0.23286614316E+03  0.36983202745E+03  0.17300000000E+03 0. -1.
         -6    1    1    2    0  502  0.22938667407E+03  0.13570764326E+01 -0.42281088352E+02  0.29040795156E+03  0.17300000000E+03 0.  1.
<mgrwt>
<rscale>  2 0.28731357E+03</rscale>
<asrwt>0</asrwt>
<pdfrwt beam="1">  1       21 0.29622519E-01 0.28731357E+03</pdfrwt>
<pdfrwt beam="2">  1       21 0.71952862E-01 0.28731357E+03</pdfrwt>
<totfact> 0.18130652E+04</totfact>
</mgrwt>
</event>
<event>
 4    1  0.3980289E+000  0.3592651E+03  0.7546771E-02  0.1058875E+00
         21   -1    0    0  501  502  0.00000000000E+00  0.00000000000E+00  0.35581067058E+03  0.35581067058E+03  0.00000000000E+00 0.  1.
         21   -1    0    0  502  503 -0.00000000000E+00 -0.00000000000E+00 -0.36388199285E+03  0.36388199285E+03  0.00000000000E+00 0. -1.
          6    1    1    2  501    0 -0.31357058482E+03  0.28563714391E+02  0.16008015476E+02  0.35962154274E+03  0.17300000000E+03 0.  1.
         -6    1    1    2    0  503  0.31357058482E+03 -0.28563714391E+02 -0.24079337743E+02  0.36007112068E+03  0.17300000000E+03 0. -1.
<mgrwt>
<rscale>  2 0.35926508E+03</rscale>
<asrwt>0</asrwt>
<pdfrwt beam="1">  1       21 0.54740103E-01 0.35926508E+03</pdfrwt>
<pdfrwt beam="2">  1       21 0.55981845E-01 0.35926508E+03</pdfrwt>
<totfact> 0.86822337E+03</totfact>
</mgrwt>
</event>
<event>
 4    1  0.3980289E+000  0.2038535E+03  0.7546771E-02  0.1146528E+00
         21   -1    0    0  501  502  0.00000000000E+00  0.00000000000E+00  0.29218411381E+03  0.29218411381E+03  0.00000000000E+00 0.  1.
         21   -1    0    0  502  503 -0.00000000000E+00 -0.00000000000E+00 -0.15519187633E+03  0.15519187633E+03  0.00000000000E+00 0.  1.
          6    1    1    2  501    0 -0.23253722827E+02  0.10529249251E+03  0.13315159147E+03  0.24348632593E+03  0.17300000000E+03 0. -1.
         -6    1    1    2    0  503  0.23253722827E+02 -0.10529249251E+03  0.38406460083E+01  0.20388966420E+03  0.17300000000E+03 0. -1.
<mgrwt>
<rscale>  2 0.20385349E+03</rscale>
<asrwt>0</asrwt>
<pdfrwt beam="1">  1       21 0.44951402E-01 0.20385349E+03</pdfrwt>
<pdfrwt beam="2">  1       21 0.23875673E-01 0.20385349E+03</pdfrwt>
<totfact> 0.78143235E+04</totfact>
</mgrwt>
</event>
<event>
 4    1  0.3980289E+000  0.2062983E+03  0.7546771E-02  0.1144531E+00
         21   -1    0    0  503  502  0.00000000000E+00  0.00000000000E+00  0.33415872680E+03  0.33415872680E+03  0.00000000000E+00 0. -1.
         21   -1    0    0  501  503 -0.00000000000E+00 -0.00000000000E+00 -0.14490326132E+03  0.14490326132E+03  0.00000000000E+00 0.  1.
          6    1    1    2  501    0 -0.58919314616E+02  0.95700115332E+02  0.11286923016E+02  0.20660685453E+03  0.17300000000E+03 0. -1.
         -6    1    1    2    0  502  0.58919314616E+02 -0.95700115332E+02  0.17796854247E+03  0.27245513359E+03  0.17300000000E+03 0. -1.
<mgrwt>
<rscale>  2 0.20629832E+03</rscale>
<asrwt>0</asrwt>
<pdfrwt beam="1">  1       21 0.51409035E-01 0.20629832E+03</pdfrwt>
<pdfrwt beam="2">  1       21 0.22292810E-01 0.20629832E+03</pdfrwt>
<totfact> 0.67278268E+04</totfact>
</mgrwt>
</event>
<event>
 4    1  0.3980289E+000  0.1872338E+03  0.7546771E-02  0.1160980E+00
         21   -1    0    0  501  502  0.00000000000E+00  0.00000000000E+00  0.72758410441E+03  0.72758410441E+03  0.00000000000E+00 0.  1.
         21   -1    0    0  502  503 -0.00000000000E+00 -0.00000000000E+00 -0.10525917772E+03  0.10525917772E+03  0.00000000000E+00 0. -1.
          6    1    1    2  501    0  0.27009497556E+02 -0.66317297226E+02  0.61780637287E+03  0.64555496376E+03  0.17300000000E+03 0.  1.
         -6    1    1    2    0  503 -0.27009497556E+02  0.66317297226E+02  0.45185538237E+01  0.18728831837E+03  0.17300000000E+03 0. -1.
<mgrwt>
<rscale>  2 0.18723380E+03</rscale>
<asrwt>0</asrwt>
<pdfrwt beam="1">  1       21 0.11193601E+00 0.18723380E+03</pdfrwt>
<pdfrwt beam="2">  1       21 0.16193720E-01 0.18723380E+03</pdfrwt>
<totfact> 0.21425218E+04</totfact>
</mgrwt>
</event>
<event>
 4    1  0.3980289E+000  0.2466255E+03  0.7546771E-02  0.1115456E+00
         21   -1    0    0  503  502  0.00000000000E+00  0.00000000000E+00  0.79970463341E+03  0.79970463341E+03  0.00000000000E+00 0. -1.
         21   -1    0    0  501  503 -0.00000000000E+00 -0.00000000000E+00 -0.11934571791E+03  0.11934571791E+03  0.00000000000E+00 0. -1.
          6    1    1    2  501    0  0.16833562467E+03 -0.50579023887E+02  0.63429812481E+02  0.25465164696E+03  0.17300000000E+03 0. -1.
         -6    1    1    2    0  502 -0.16833562467E+03  0.50579023887E+02  0.61692910303E+03  0.66439870436E+03  0.17300000000E+03 0. -1.
<mgrwt>
<rscale>  2 0.24662547E+03</rscale>
<asrwt>0</asrwt>
<pdfrwt beam="1">  1       21 0.12303148E+00 0.24662547E+03</pdfrwt>
<pdfrwt beam="2">  1       21 0.18360880E-01 0.24662547E+03</pdfrwt>
<totfact> 0.12981520E+04</totfact>
</mgrwt>
</event>
<event>
 4    1  0.3980289E+000  0.2067675E+03  0.7546771E-02  0.1144152E+00
         21   -1    0    0  501  502  0.00000000000E+00  0.00000000000E+00  0.74632114566E+03  0.74632114566E+03  0.00000000000E+00 0.  1.
         21   -1    0    0  502  503 -0.00000000000E+00 -0.00000000000E+00 -0.27545351291E+03  0.27545351291E+03  0.00000000000E+00 0.  1.
          6    1    1    2  501    0  0.31880899232E+02 -0.10866196520E+03  0.69010482848E+03  0.72041480323E+03  0.17300000000E+03 0.  1.
         -6    1    1    2    0  503 -0.31880899232E+02  0.10866196520E+03 -0.21923719573E+03  0.30135985534E+03  0.17300000000E+03 0.  1.
<mgrwt>
<rscale>  2 0.20676754E+03</rscale>
<asrwt>0</asrwt>
<pdfrwt beam="1">  1       21 0.11481864E+00 0.20676754E+03</pdfrwt>
<pdfrwt beam="2">  1       21 0.42377464E-01 0.20676754E+03</pdfrwt>
<totfact> 0.31154153E+03</totfact>
</mgrwt>
</event>
<event>
 4    1  0.3980289E+000  0.1752528E+03  0.7546771E-02  0.1172478E+00
         21   -1    0    0  501  502  0.00000000000E+00  0.00000000000E+00  0.14706519689E+03  0.14706519689E+03  0.00000000000E+00 0. -1.
         21   -1    0    0  502  503 -0.00000000000E+00 -0.00000000000E+00 -0.21903258698E+03  0.21903258698E+03  0.00000000000E+00 0. -1.
          6    1    1    2  501    0  0.22755773686E+00 -0.28008474798E+02  0.34977050952E+01  0.17528765040E+03  0.17300000000E+03 0. -1.
         -6    1    1    2    0  503 -0.22755773686E+00  0.28008474798E+02 -0.75465095181E+02  0.19081013347E+03  0.17300000000E+03 0. -1.
<mgrwt>
<rscale>  2 0.17525275E+03</rscale>
<asrwt>0</asrwt>
<pdfrwt beam="1">  1       21 0.22625415E-01 0.17525275E+03</pdfrwt>
<pdfrwt beam="2">  1       21 0.33697321E-01 0.17525275E+03</pdfrwt>
<totfact> 0.15617715E+05</totfact>
</mgrwt>
</event>
<event>
 4    1  0.3980289E+000  0.1769879E+03  0.7546771E-02  0.1170750E+00
         21   -1    0    0  501  502  0.00000000000E+00  0.00000000000E+00  0.84511210487E+03  0.84511210487E+03  0.00000000000E+00 0.  1.
         21   -1    0    0  502  503 -0.00000000000E+00 -0.00000000000E+00 -0.45244291785E+02  0.45244291785E+02  0.00000000000E+00 0.  1.
          6    1    1    2  501    0 -0.35155632946E+02  0.12640555627E+02  0.58920761887E+03  0.61521566975E+03  0.17300000000E+03 0.  1.
         -6    1    1    2    0  503  0.35155632946E+02 -0.12640555627E+02  0.21066019422E+03  0.27514072691E+03  0.17300000000E+03 0.  1.
<mgrwt>
<rscale>  2 0.17698786E+03</rscale>
<asrwt>0</asrwt>
<pdfrwt beam="1">  1       21 0.13001723E+00 0.17698786E+03</pdfrwt>
<pdfrwt beam="2">  1       21 0.69606609E-02 0.17698786E+03</pdfrwt>
<totfact> 0.66521101E+04</totfact>
</mgrwt>
</event>
<event>
 4    1  0.3980289E+000  0.1768241E+03  0.7546771E-02  0.1170913E+00
         21   -1    0    0  501  502  0.00000000000E+00  0.00000000000E+00  0.10234651029E+04  0.10234651029E+04  0.00000000000E+00 0.  1.
         21   -1    0    0  502  503 -0.00000000000E+00 -0.00000000000E+00 -0.32318552853E+02  0.32318552853E+02  0.00000000000E+00 0.  1.
          6    1    1    2  501    0 -0.10889469459E+02  0.34916569640E+02  0.61906600317E+03  0.64382409373E+03  0.17300000000E+03 0.  1.
         -6    1    1    2    0  503  0.10889469459E+02 -0.34916569640E+02  0.37208054686E+03  0.41195956201E+03  0.17300000000E+03 0.  1.
<mgrwt>
<rscale>  2 0.17682406E+03</rscale>
<asrwt>0</asrwt>
<pdfrwt beam="1">  1       21 0.15745615E+00 0.17682406E+03</pdfrwt>
<pdfrwt beam="2">  1       21 0.49720858E-02 0.17682406E+03</pdfrwt>
<totfact> 0.71965159E+04</totfact>
</mgrwt>
</event>
<event>
 4    1  0.3980289E+000  0.2484685E+03  0.7546771E-02  0.1114277E+00
         21   -1    0    0  501  502  0.00000000000E+00  0.00000000000E+00  0.31311822297E+03  0.31311822297E+03  0.00000000000E+00 0. -1.
         21   -1    0    0  502  503 -0.00000000000E+00 -0.00000000000E+00 -0.24552471902E+03  0.24552471902E+03  0.00000000000E+00 0. -1.
          6    1    1    2  501    0 -0.16793176236E+03 -0.60054254936E+02  0.15775900874E+03  0.29432039546E+03  0.17300000000E+03 0.  1.
         -6    1    1    2    0  503  0.16793176236E+03  0.60054254936E+02 -0.90165504795E+02  0.26432254652E+03  0.17300000000E+03 0.  1.
<mgrwt>
<rscale>  2 0.24846849E+03</rscale>
<asrwt>0</asrwt>
<pdfrwt beam="1">  1       21 0.48172034E-01 0.24846849E+03</pdfrwt>
<pdfrwt beam="2">  1       21 0.37773034E-01 0.24846849E+03</pdfrwt>
<totfact> 0.27043913E+04</totfact>
</mgrwt>
</event>
<event>
 4    1  0.3980289E+000  0.2007004E+03  0.7546771E-02  0.1149149E+00
         21   -1    0    0  501  502  0.00000000000E+00  0.00000000000E+00  0.13559629204E+03  0.13559629204E+03  0.00000000000E+00 0.  1.
         21   -1    0    0  502  503 -0.00000000000E+00 -0.00000000000E+00 -0.53793999772E+03  0.53793999772E+03  0.00000000000E+00 0. -1.
          6    1    1    2  501    0  0.89445014675E+02  0.48489559885E+02  0.24180297197E+02  0.20215176190E+03  0.17300000000E+03 0.  1.
         -6    1    1    2    0  503 -0.89445014675E+02 -0.48489559885E+02 -0.42652400287E+03  0.47138452785E+03  0.17300000000E+03 0. -1.
<mgrwt>
<rscale>  2 0.20070039E+03</rscale>
<asrwt>0</asrwt>
<pdfrwt beam="1">  1       21 0.20860969E-01 0.20070039E+03</pdfrwt>
<pdfrwt beam="2">  1       21 0.82759998E-01 0.20070039E+03</pdfrwt>
<totfact> 0.27041810E+04</totfact>
</mgrwt>
</event>
<event>
 4    1  0.3980289E+000  0.1745883E+03  0.7546771E-02  0.1173146E+00
         21   -1    0    0  501  502  0.00000000000E+00  0.00000000000E+00  0.30553575444E+03  0.30553575444E+03  0.00000000000E+00 0. -1.
         21   -1    0    0  502  503 -0.00000000000E+00 -0.00000000000E+00 -0.23355303721E+03  0.23355303721E+03  0.00000000000E+00 0. -1.
          6    1    1    2  501    0  0.19958750990E+02 -0.12398376478E+02  0.24000063854E+03  0.29678507034E+03  0.17300000000E+03 0. -1.
         -6    1    1    2    0  503 -0.19958750990E+02  0.12398376478E+02 -0.16801792131E+03  0.24230372131E+03  0.17300000000E+03 0. -1.
<mgrwt>
<rscale>  2 0.17458829E+03</rscale>
<asrwt>0</asrwt>
<pdfrwt beam="1">  1       21 0.47005501E-01 0.17458829E+03</pdfrwt>
<pdfrwt beam="2">  1       21 0.35931237E-01 0.17458829E+03</pdfrwt>
<totfact> 0.32667156E+04</totfact>
</mgrwt>
</event>
<event>
 4    1  0.3980289E+000  0.1842866E+03  0.7546771E-02  0.1163718E+00
         21   -1    0    0  501  502  0.00000000000E+00  0.00000000000E+00  0.16757080091E+04  0.16757080091E+04  0.00000000000E+00 0.  1.
         21   -1    0    0  502  503 -0.00000000000E+00 -0.00000000000E+00 -0.26652232565E+02  0.26652232565E+02  0.00000000000E+00 0. -1.
          6    1    1    2  501    0  0.63449704207E+02  0.25881603325E+01  0.12411508978E+04  0.12547577913E+04  0.17300000000E+03 0.  1.
         -6    1    1    2    0  503 -0.63449704207E+02 -0.25881603325E+01  0.40790487869E+03  0.44760245039E+03  0.17300000000E+03 0. -1.
<mgrwt>
<rscale>  2 0.18428663E+03</rscale>
<asrwt>0</asrwt>
<pdfrwt beam="1">  1       21 0.25780115E+00 0.18428663E+03</pdfrwt>
<pdfrwt beam="2">  1       21 0.41003448E-02 0.18428663E+03</pdfrwt>
<totfact> 0.22666410E+04</totfact>
</mgrwt>
</event>
<event>
 4    1  0.3980289E+000  0.1835209E+03  0.7546771E-02  0.1164438E+00
         21   -1    0    0  501  502  0.00000000000E+00  0.00000000000E+00  0.51789028260E+02  0.51789028260E+02  0.00000000000E+00 0. -1.
         21   -1    0    0  502  503 -0.00000000000E+00 -0.00000000000E+00 -0.10353163819E+04  0.10353163819E+04  0.00000000000E+00 0. -1.
          6    1    1    2  501    0  0.22752428118E+02  0.56861522119E+02 -0.16030577251E+03  0.24367569920E+03  0.17300000000E+03 0. -1.
         -6    1    1    2    0  503 -0.22752428118E+02 -0.56861522119E+02 -0.82322158113E+03  0.84342971095E+03  0.17300000000E+03 0. -1.
<mgrwt>
<rscale>  2 0.18352086E+03</rscale>
<asrwt>0</asrwt>
<pdfrwt beam="1">  1       21 0.79675434E-02 0.18352086E+03</pdfrwt>
<pdfrwt beam="2">  1       21 0.15927943E+00 0.18352086E+03</pdfrwt>
<totfact> 0.30969463E+04</totfact>
</mgrwt>
</event>
<event>
 4    1  0.3980289E+000  0.2173596E+03  0.7546771E-02  0.1135867E+00
         21   -1    0    0  503  502  0.00000000000E+00  0.00000000000E+00  0.68157579207E+02  0.68157579207E+02  0.00000000000E+00 0. -1.
         21   -1    0    0  501  503 -0.00000000000E+00 -0.00000000000E+00 -0.69385454130E+03  0.69385454130E+03  0.00000000000E+00 0.  1.
          6    1    1    2  501    0 -0.94511645134E+02 -0.91562887042E+02 -0.32476129364E+03  0.39078780841E+03  0.17300000000E+03 0. -1.
         -6    1    1    2    0  502  0.94511645134E+02  0.91562887042E+02 -0.30093566845E+03  0.37122431210E+03  0.17300000000E+03 0.  1.
<mgrwt>
<rscale>  2 0.21735964E+03</rscale>
<asrwt>0</asrwt>
<pdfrwt beam="1">  1       21 0.10485781E-01 0.21735964E+03</pdfrwt>
<pdfrwt beam="2">  1       21 0.10674685E+00 0.21735964E+03</pdfrwt>
<totfact> 0.51745177E+04</totfact>
</mgrwt>
</event>
<event>
 4    1  0.3980289E+000  0.2050425E+03  0.7546771E-02  0.1145553E+00
         21   -1    0    0  503  502  0.00000000000E+00  0.00000000000E+00  0.17414527202E+03  0.17414527202E+03  0.00000000000E+00 0. -1.
         21   -1    0    0  501  503 -0.00000000000E+00 -0.00000000000E+00 -0.24147499400E+03  0.24147499400E+03  0.00000000000E+00 0.  1.
          6    1    1    2  501    0  0.10862691469E+03 -0.17709700238E+02 -0.36753350724E+02  0.20831046269E+03  0.17300000000E+03 0.  1.
         -6    1    1    2    0  502 -0.10862691469E+03  0.17709700238E+02 -0.30576371254E+02  0.20730980333E+03  0.17300000000E+03 0. -1.
<mgrwt>
<rscale>  2 0.20504253E+03</rscale>
<asrwt>0</asrwt>
<pdfrwt beam="1">  1       21 0.26791580E-01 0.20504253E+03</pdfrwt>
<pdfrwt beam="2">  1       21 0.37149999E-01 0.20504253E+03</pdfrwt>
<totfact> 0.92229563E+04</totfact>
</mgrwt>
</event>
<event>
 4    1  0.3980289E+000  0.1912698E+03  0.7546771E-02  0.1157321E+00
         21   -1    0    0  501  502  0.00000000000E+00  0.00000000000E+00  0.41983035018E+03  0.41983035018E+03  0.00000000000E+00 0. -1.
         21   -1    0    0  502  503 -0.00000000000E+00 -0.00000000000E+00 -0.94586394387E+02  0.94586394387E+02  0.00000000000E+00 0.  1.
          6    1    1    2  501    0  0.27978973107E+01  0.81531120588E+02  0.23478827067E+03  0.30283606769E+03  0.17300000000E+03 0. -1.
         -6    1    1    2    0  503 -0.27978973107E+01 -0.81531120588E+02  0.90455685125E+02  0.21158067687E+03  0.17300000000E+03 0.  1.
<mgrwt>
<rscale>  2 0.19126984E+03</rscale>
<asrwt>0</asrwt>
<pdfrwt beam="1">  1       21 0.64589284E-01 0.19126984E+03</pdfrwt>
<pdfrwt beam="2">  1       21 0.14551753E-01 0.19126984E+03</pdfrwt>
<totfact> 0.91656021E+04</totfact>
</mgrwt>
</event>
<event>
 4    1  0.3980289E+000  0.2104037E+03  0.7546771E-02  0.1141247E+00
         21   -1    0    0  501  502  0.00000000000E+00  0.00000000000E+00  0.29636286757E+03  0.29636286757E+03  0.00000000000E+00 0. -1.
         21   -1    0    0  502  503 -0.00000000000E+00 -0.00000000000E+00 -0.14953612530E+03  0.14953612530E+03  0.00000000000E+00 0. -1.
          6    1    1    2  501    0 -0.11645543401E+03 -0.27908222879E+02  0.66135995278E+02  0.22055318381E+03  0.17300000000E+03 0. -1.
         -6    1    1    2    0  503  0.11645543401E+03  0.27908222879E+02  0.80690746989E+02  0.22534580907E+03  0.17300000000E+03 0. -1.
<mgrwt>
<rscale>  2 0.21040375E+03</rscale>
<asrwt>0</asrwt>
<pdfrwt beam="1">  1       21 0.45594287E-01 0.21040375E+03</pdfrwt>
<pdfrwt beam="2">  1       21 0.23005558E-01 0.21040375E+03</pdfrwt>
<totfact> 0.81213146E+04</totfact>
</mgrwt>
</event>
<event>
 4    1  0.3980289E+000  0.2878330E+03  0.7546771E-02  0.1091486E+00
         21   -1    0    0  501  502  0.00000000000E+00  0.00000000000E+00  0.83104060900E+03  0.83104060900E+03  0.00000000000E+00 0.  1.
         21   -1    0    0  502  503 -0.00000000000E+00 -0.00000000000E+00 -0.13724409992E+03  0.13724409992E+03  0.00000000000E+00 0.  1.
          6    1    1    2  501    0 -0.12874060439E+03  0.19064277714E+03  0.60014586658E+03  0.66559963406E+03  0.17300000000E+03 0.  1.
         -6    1    1    2    0  503  0.12874060439E+03 -0.19064277714E+03  0.93650642507E+02  0.30268507485E+03  0.17300000000E+03 0.  1.
<mgrwt>
<rscale>  2 0.28783296E+03</rscale>
<asrwt>0</asrwt>
<pdfrwt beam="1">  1       21 0.12785240E+00 0.28783296E+03</pdfrwt>
<pdfrwt beam="2">  1       21 0.21114477E-01 0.28783296E+03</pdfrwt>
<totfact> 0.88600858E+03</totfact>
</mgrwt>
</event>
<event>
 4    1  0.3980289E+000  0.1918505E+03  0.7546771E-02  0.1156803E+00
         21   -1    0    0  503  502  0.00000000000E+00  0.00000000000E+00  0.76617212009E+02  0.76617212009E+02  0.00000000000E+00 0.  1.
         21   -1    0    0  501  503 -0.00000000000E+00 -0.00000000000E+00 -0.10764501990E+04  0.10764501990E+04  0.00000000000E+00 0.  1.
          6    1    1    2  501    0  0.82085354926E+02  0.11816393224E+02 -0.92892950304E+03  0.94853394997E+03  0.17300000000E+03 0.  1.
         -6    1    1    2    0  502 -0.82085354926E+02 -0.11816393224E+02 -0.70903483939E+02  0.20453346102E+03  0.17300000000E+03 0.  1.
<mgrwt>
<rscale>  2 0.19185055E+03</rscale>
<asrwt>0</asrwt>
<pdfrwt beam="1">  1       21 0.11787264E-01 0.19185055E+03</pdfrwt>
<pdfrwt beam="2">  1       21 0.16560772E+00 0.19185055E+03</pdfrwt>
<totfact> 0.13898303E+04</totfact>
</mgrwt>
</event>
<event>
 4    1  0.3980289E+000  0.1811519E+03  0.7546771E-02  0.1166693E+00
         21   -1    0    0  503  502  0.00000000000E+00  0.00000000000E+00  0.13977846373E+04  0.13977846373E+04  0.00000000000E+00 0. -1.
         21   -1    0    0  501  503 -0.00000000000E+00 -0.00000000000E+00 -0.23628244839E+02  0.23628244839E+02  0.00000000000E+00 0. -1.
          6    1    1    2  501    0 -0.32371432896E+02  0.42884743539E+02  0.63024687945E+03  0.65576454613E+03  0.17300000000E+03 0. -1.
         -6    1    1    2    0  502  0.32371432896E+02 -0.42884743539E+02  0.74390951302E+03  0.76564833603E+03  0.17300000000E+03 0. -1.
<mgrwt>
<rscale>  2 0.18115190E+03</rscale>
<asrwt>0</asrwt>
<pdfrwt beam="1">  1       21 0.21504373E+00 0.18115190E+03</pdfrwt>
<pdfrwt beam="2">  1       21 0.36351157E-02 0.18115190E+03</pdfrwt>
<totfact> 0.50030926E+04</totfact>
</mgrwt>
</event>
<event>
 4    1  0.3980289E+000  0.1897039E+03  0.7546771E-02  0.1158729E+00
         21   -1    0    0  501  502  0.00000000000E+00  0.00000000000E+00  0.22449503336E+03  0.22449503336E+03  0.00000000000E+00 0.  1.
         21   -1    0    0  502  503 -0.00000000000E+00 -0.00000000000E+00 -0.16048692683E+03  0.16048692683E+03  0.00000000000E+00 0.  1.
          6    1    1    2  501    0 -0.60789116263E+02 -0.48613304733E+02  0.38493433306E+02  0.19356992137E+03  0.17300000000E+03 0.  1.
         -6    1    1    2    0  503  0.60789116263E+02  0.48613304733E+02  0.25514673224E+02  0.19141203881E+03  0.17300000000E+03 0.  1.
<mgrwt>
<rscale>  2 0.18970390E+03</rscale>
<asrwt>0</asrwt>
<pdfrwt beam="1">  1       21 0.34537698E-01 0.18970390E+03</pdfrwt>
<pdfrwt beam="2">  1       21 0.24690296E-01 0.18970390E+03</pdfrwt>
<totfact> 0.12545674E+05</totfact>
</mgrwt>
</event>
<event>
 4    1  0.3980289E+000  0.1772694E+03  0.7546771E-02  0.1170472E+00
         21   -1    0    0  503  502  0.00000000000E+00  0.00000000000E+00  0.34577731412E+03  0.34577731412E+03  0.00000000000E+00 0. -1.
         21   -1    0    0  501  503 -0.00000000000E+00 -0.00000000000E+00 -0.12481802026E+03  0.12481802026E+03  0.00000000000E+00 0. -1.
          6    1    1    2  501    0 -0.28569581289E+02 -0.26061975449E+02 -0.12212970400E+02  0.17768962881E+03  0.17300000000E+03 0. -1.
         -6    1    1    2    0  502  0.28569581289E+02  0.26061975449E+02  0.23317226426E+03  0.29290570557E+03  0.17300000000E+03 0. -1.
<mgrwt>
<rscale>  2 0.17726942E+03</rscale>
<asrwt>0</asrwt>
<pdfrwt beam="1">  1       21 0.53196509E-01 0.17726942E+03</pdfrwt>
<pdfrwt beam="2">  1       21 0.19202772E-01 0.17726942E+03</pdfrwt>
<totfact> 0.83855598E+04</totfact>
</mgrwt>
</event>
<event>
 4    1  0.3980289E+000  0.2362008E+03  0.7546771E-02  0.1122350E+00
         21   -1    0    0  501  502  0.00000000000E+00  0.00000000000E+00  0.34771381129E+03  0.34771381129E+03  0.00000000000E+00 0.  1.
         21   -1    0    0  502  503 -0.00000000000E+00 -0.00000000000E+00 -0.16907632859E+03  0.16907632859E+03  0.00000000000E+00 0.  1.
          6    1    1    2  501    0  0.15972944031E+03 -0.18663623080E+02  0.14768278842E+03  0.27856961593E+03  0.17300000000E+03 0.  1.
         -6    1    1    2    0  503 -0.15972944031E+03  0.18663623080E+02  0.30954694280E+02  0.23822052394E+03  0.17300000000E+03 0.  1.
<mgrwt>
<rscale>  2 0.23620081E+03</rscale>
<asrwt>0</asrwt>
<pdfrwt beam="1">  1       21 0.53494432E-01 0.23620081E+03</pdfrwt>
<pdfrwt beam="2">  1       21 0.26011743E-01 0.23620081E+03</pdfrwt>
<totfact> 0.45494872E+04</totfact>
</mgrwt>
</event>
<event>
 4    1  0.3980289E+000  0.1868717E+03  0.7546771E-02  0.1161313E+00
         21   -1    0    0  503  502  0.00000000000E+00  0.00000000000E+00  0.11921421637E+04  0.11921421637E+04  0.00000000000E+00 0. -1.
         21   -1    0    0  501  503 -0.00000000000E+00 -0.00000000000E+00 -0.34981583093E+02  0.34981583093E+02  0.00000000000E+00 0.  1.
          6    1    1    2  501    0  0.67123569820E+02 -0.22055816539E+02  0.33114986423E+03  0.38023843211E+03  0.17300000000E+03 0.  1.
         -6    1    1    2    0  502 -0.67123569820E+02  0.22055816539E+02  0.82601071641E+03  0.84688531472E+03  0.17300000000E+03 0. -1.
<mgrwt>
<rscale>  2 0.18687170E+03</rscale>
<asrwt>0</asrwt>
<pdfrwt beam="1">  1       21 0.18340646E+00 0.18687170E+03</pdfrwt>
<pdfrwt beam="2">  1       21 0.53817829E-02 0.18687170E+03</pdfrwt>
<totfact> 0.41114394E+04</totfact>
</mgrwt>
</event>
<event>
 4    1  0.3980289E+000  0.2176714E+03  0.7546771E-02  0.1135631E+00
         21   -1    0    0  503  502  0.00000000000E+00  0.00000000000E+00  0.29838311671E+03  0.29838311671E+03  0.00000000000E+00 0.  1.
         21   -1    0    0  501  503 -0.00000000000E+00 -0.00000000000E+00 -0.17694969203E+03  0.17694969203E+03  0.00000000000E+00 0.  1.
          6    1    1    2  501    0  0.13121068448E+03 -0.15349081513E+02 -0.15416432231E+02  0.21821664558E+03  0.17300000000E+03 0.  1.
         -6    1    1    2    0  502 -0.13121068448E+03  0.15349081513E+02  0.13684985691E+03  0.25711616317E+03  0.17300000000E+03 0.  1.
<mgrwt>
<rscale>  2 0.21767140E+03</rscale>
<asrwt>0</asrwt>
<pdfrwt beam="1">  1       21 0.45905095E-01 0.21767140E+03</pdfrwt>
<pdfrwt beam="2">  1       21 0.27223030E-01 0.21767140E+03</pdfrwt>
<totfact> 0.57843447E+04</totfact>
</mgrwt>
</event>
<event>
 4    1  0.3980289E+000  0.1907527E+03  0.7546771E-02  0.1157784E+00
         21   -1    0    0  503  502  0.00000000000E+00  0.00000000000E+00  0.64633073496E+02  0.64633073496E+02  0.00000000000E+00 0. -1.
         21   -1    0    0  501  503 -0.00000000000E+00 -0.00000000000E+00 -0.56726142132E+03  0.56726142132E+03  0.00000000000E+00 0. -1.
          6    1    1    2  501    0  0.74492305800E+02 -0.30141428207E+02 -0.22384008180E+03  0.29409350815E+03  0.17300000000E+03 0.  1.
         -6    1    1    2    0  502 -0.74492305800E+02  0.30141428207E+02 -0.27878826602E+03  0.33780098666E+03  0.17300000000E+03 0.  1.
<mgrwt>
<rscale>  2 0.19075274E+03</rscale>
<asrwt>0</asrwt>
<pdfrwt beam="1">  1       21 0.99435501E-02 0.19075274E+03</pdfrwt>
<pdfrwt beam="2">  1       21 0.87270985E-01 0.19075274E+03</pdfrwt>
<totfact> 0.92520508E+04</totfact>
</mgrwt>
</event>
<event>
 4    1  0.3980289E+000  0.2659075E+03  0.7546771E-02  0.1103645E+00
         21   -1    0    0  503  502  0.00000000000E+00  0.00000000000E+00  0.81725491011E+03  0.81725491011E+03  0.00000000000E+00 0. -1.
         21   -1    0    0  501  503 -0.00000000000E+00 -0.00000000000E+00 -0.12280710365E+03  0.12280710365E+03  0.00000000000E+00 0.  1.
          6    1    1    2  501    0  0.14480464894E+03 -0.14074593482E+03  0.91714891819E+02  0.28127997779E+03  0.17300000000E+03 0.  1.
         -6    1    1    2    0  502 -0.14480464894E+03  0.14074593482E+03  0.60273291464E+03  0.65878203597E+03  0.17300000000E+03 0. -1.
<mgrwt>
<rscale>  2 0.26590751E+03</rscale>
<asrwt>0</asrwt>
<pdfrwt beam="1">  1       21 0.12573152E+00 0.26590751E+03</pdfrwt>
<pdfrwt beam="2">  1       21 0.18893401E-01 0.26590751E+03</pdfrwt>
<totfact> 0.11528709E+04</totfact>
</mgrwt>
</event>
<event>
 4    1  0.3980289E+000  0.1771768E+03  0.7546771E-02  0.1170564E+00
         21   -1    0    0  503  502  0.00000000000E+00  0.00000000000E+00  0.11299737240E+03  0.11299737240E+03  0.00000000000E+00 0. -1.
         21   -1    0    0  501  503 -0.00000000000E+00 -0.00000000000E+00 -0.29852883008E+03  0.29852883008E+03  0.00000000000E+00 0.  1.
          6    1    1    2  501    0  0.35417765264E+02  0.14428830170E+02 -0.14697513715E+03  0.23020273712E+03  0.17300000000E+03 0.  1.
         -6    1    1    2    0  502 -0.35417765264E+02 -0.14428830170E+02 -0.38556320521E+02  0.18132346536E+03  0.17300000000E+03 0. -1.
<mgrwt>
<rscale>  2 0.17717677E+03</rscale>
<asrwt>0</asrwt>
<pdfrwt beam="1">  1       21 0.17384211E-01 0.17717677E+03</pdfrwt>
<pdfrwt beam="2">  1       21 0.45927511E-01 0.17717677E+03</pdfrwt>
<totfact> 0.13675481E+05</totfact>
</mgrwt>
</event>
<event>
 4    1  0.3980289E+000  0.1733899E+03  0.7546771E-02  0.1174358E+00
         21   -1    0    0  501  502  0.00000000000E+00  0.00000000000E+00  0.81174357861E+02  0.81174357861E+02  0.00000000000E+00 0.  1.
         21   -1    0    0  502  503 -0.00000000000E+00 -0.00000000000E+00 -0.51611445367E+03  0.51611445367E+03  0.00000000000E+00 0.  1.
          6    1    1    2  501    0  0.78926476101E+01  0.85306625069E+01 -0.58766653132E+02  0.18307808610E+03  0.17300000000E+03 0.  1.
         -6    1    1    2    0  503 -0.78926476101E+01 -0.85306625069E+01 -0.37617344268E+03  0.41421072544E+03  0.17300000000E+03 0.  1.
<mgrwt>
<rscale>  2 0.17338992E+03</rscale>
<asrwt>0</asrwt>
<pdfrwt beam="1">  1       21 0.12488363E-01 0.17338992E+03</pdfrwt>
<pdfrwt beam="2">  1       21 0.79402222E-01 0.17338992E+03</pdfrwt>
<totfact> 0.77065774E+04</totfact>
</mgrwt>
</event>
<event>
 4    1  0.3980289E+000  0.2209350E+03  0.7546771E-02  0.1133188E+00
         21   -1    0    0  503  502  0.00000000000E+00  0.00000000000E+00  0.18456525117E+03  0.18456525117E+03  0.00000000000E+00 0. -1.
         21   -1    0    0  501  503 -0.00000000000E+00 -0.00000000000E+00 -0.26465919223E+03  0.26465919223E+03  0.00000000000E+00 0. -1.
          6    1    1    2  501    0 -0.10613910897E+03  0.87279739837E+02 -0.46027249264E+02  0.22567846843E+03  0.17300000000E+03 0. -1.
         -6    1    1    2    0  502  0.10613910897E+03 -0.87279739837E+02 -0.34066691794E+02  0.22354597498E+03  0.17300000000E+03 0. -1.
<mgrwt>
<rscale>  2 0.22093498E+03</rscale>
<asrwt>0</asrwt>
<pdfrwt beam="1">  1       21 0.28394654E-01 0.22093498E+03</pdfrwt>
<pdfrwt beam="2">  1       21 0.40716799E-01 0.22093498E+03</pdfrwt>
<totfact> 0.68060808E+04</totfact>
</mgrwt>
</event>
<event>
 4    1  0.3980289E+000  0.2338688E+03  0.7546771E-02  0.1123946E+00
         21   -1    0    0  501  502  0.00000000000E+00  0.00000000000E+00  0.69145118604E+02  0.69145118604E+02  0.00000000000E+00 0. -1.
         21   -1    0    0  502  503 -0.00000000000E+00 -0.00000000000E+00 -0.80577675095E+03  0.80577675095E+03  0.00000000000E+00 0.  1.
          6    1    1    2  501    0 -0.15407720381E+03  0.32028760079E+02 -0.30909923279E+03  0.38760413042E+03  0.17300000000E+03 0. -1.
         -6    1    1    2    0  503  0.15407720381E+03 -0.32028760079E+02 -0.42753239955E+03  0.48731773913E+03  0.17300000000E+03 0.  1.
<mgrwt>
<rscale>  2 0.23386882E+03</rscale>
<asrwt>0</asrwt>
<pdfrwt beam="1">  1       21 0.10637711E-01 0.23386882E+03</pdfrwt>
<pdfrwt beam="2">  1       21 0.12396565E+00 0.23386882E+03</pdfrwt>
<totfact> 0.34636318E+04</totfact>
</mgrwt>
</event>
<event>
 4    1  0.3980289E+000  0.1898376E+03  0.7546771E-02  0.1158608E+00
         21   -1    0    0  503  502  0.00000000000E+00  0.00000000000E+00  0.50981008478E+02  0.50981008478E+02  0.00000000000E+00 0. -1.
         21   -1    0    0  501  503 -0.00000000000E+00 -0.00000000000E+00 -0.86315603874E+03  0.86315603874E+03  0.00000000000E+00 0. -1.
          6    1    1    2  501    0  0.46001595722E+01 -0.78026620875E+02 -0.60056056284E+03  0.62985022400E+03  0.17300000000E+03 0. -1.
         -6    1    1    2    0  502 -0.46001595722E+01  0.78026620875E+02 -0.21161446742E+03  0.28428682322E+03  0.17300000000E+03 0. -1.
<mgrwt>
<rscale>  2 0.18983760E+03</rscale>
<asrwt>0</asrwt>
<pdfrwt beam="1">  1       21 0.78432321E-02 0.18983760E+03</pdfrwt>
<pdfrwt beam="2">  1       21 0.13279324E+00 0.18983760E+03</pdfrwt>
<totfact> 0.50954799E+04</totfact>
</mgrwt>
</event>
<event>
 4    1  0.3980289E+000  0.1761577E+03  0.7546771E-02  0.1171574E+00
         21   -1    0    0  503  502  0.00000000000E+00  0.00000000000E+00  0.43556159643E+03  0.43556159643E+03  0.00000000000E+00 0. -1.
         21   -1    0    0  501  503 -0.00000000000E+00 -0.00000000000E+00 -0.71585068755E+02  0.71585068755E+02  0.00000000000E+00 0. -1.
          6    1    1    2  501    0  0.83497088298E+01 -0.32137290656E+02  0.19946932687E+03  0.26611940074E+03  0.17300000000E+03 0. -1.
         -6    1    1    2    0  502 -0.83497088298E+01  0.32137290656E+02  0.16450720080E+03  0.24102726444E+03  0.17300000000E+03 0. -1.
<mgrwt>
<rscale>  2 0.17615767E+03</rscale>
<asrwt>0</asrwt>
<pdfrwt beam="1">  1       21 0.67009475E-01 0.17615767E+03</pdfrwt>
<pdfrwt beam="2">  1       21 0.11013088E-01 0.17615767E+03</pdfrwt>
<totfact> 0.14026712E+05</totfact>
</mgrwt>
</event>
<event>
 4    1  0.3980289E+000  0.2120470E+03  0.7546771E-02  0.1139955E+00
         21   -1    0    0  501  502  0.00000000000E+00  0.00000000000E+00  0.16160879426E+03  0.16160879426E+03  0.00000000000E+00 0. -1.
         21   -1    0    0  502  503 -0.00000000000E+00 -0.00000000000E+00 -0.28209078703E+03  0.28209078703E+03  0.00000000000E+00 0. -1.
          6    1    1    2  501    0 -0.10535784071E+03  0.62726864799E+02 -0.34277109199E+02  0.21479956793E+03  0.17300000000E+03 0. -1.
         -6    1    1    2    0  503  0.10535784071E+03 -0.62726864799E+02 -0.86204883567E+02  0.22890001336E+03  0.17300000000E+03 0. -1.
<mgrwt>
<rscale>  2 0.21204701E+03</rscale>
<asrwt>0</asrwt>
<pdfrwt beam="1">  1       21 0.24862892E-01 0.21204701E+03</pdfrwt>
<pdfrwt beam="2">  1       21 0.43398582E-01 0.21204701E+03</pdfrwt>
<totfact> 0.77473791E+04</totfact>
</mgrwt>
</event>
<event>
 4    1  0.3980289E+000  0.1993287E+03  0.7546771E-02  0.1150307E+00
         21   -1    0    0  501  502  0.00000000000E+00  0.00000000000E+00  0.15420149553E+03  0.15420149553E+03  0.00000000000E+00 0.  1.
         21   -1    0    0  502  503 -0.00000000000E+00 -0.00000000000E+00 -0.36462355090E+03  0.36462355090E+03  0.00000000000E+00 0. -1.
          6    1    1    2  501    0  0.67139365053E+02 -0.72768320291E+02  0.35290703261E+02  0.20242864549E+03  0.17300000000E+03 0.  1.
         -6    1    1    2    0  503 -0.67139365053E+02  0.72768320291E+02 -0.24571275863E+03  0.31639640094E+03  0.17300000000E+03 0. -1.
<mgrwt>
<rscale>  2 0.19932868E+03</rscale>
<asrwt>0</asrwt>
<pdfrwt beam="1">  1       21 0.23723307E-01 0.19932868E+03</pdfrwt>
<pdfrwt beam="2">  1       21 0.56095930E-01 0.19932868E+03</pdfrwt>
<totfact> 0.49903025E+04</totfact>
</mgrwt>
</event>
<event>
 4    1  0.3980289E+000  0.1895748E+03  0.7546771E-02  0.1158845E+00
         21   -1    0    0  503  502  0.00000000000E+00  0.00000000000E+00  0.63938962081E+03  0.63938962081E+03  0.00000000000E+00 0.  1.
         21   -1    0    0  501  503 -0.00000000000E+00 -0.00000000000E+00 -0.56997206064E+02  0.56997206064E+02  0.00000000000E+00 0.  1.
          6    1    1    2  501    0  0.53620750747E+02  0.55986024885E+02  0.25021624605E+03  0.31392162984E+03  0.17300000000E+03 0.  1.
         -6    1    1    2    0  502 -0.53620750747E+02 -0.55986024885E+02  0.33217616870E+03  0.38246519703E+03  0.17300000000E+03 0.  1.
<mgrwt>
<rscale>  2 0.18957484E+03</rscale>
<asrwt>0</asrwt>
<pdfrwt beam="1">  1       21 0.98367629E-01 0.18957484E+03</pdfrwt>
<pdfrwt beam="2">  1       21 0.87688014E-02 0.18957484E+03</pdfrwt>
<totfact> 0.87381677E+04</totfact>
</mgrwt>
</event>
<event>
 4    1  0.3980289E+000  0.2134815E+03  0.7546771E-02  0.1138838E+00
         21   -1    0    0  501  502  0.00000000000E+00  0.00000000000E+00  0.35014198175E+02  0.35014198175E+02  0.00000000000E+00 0. -1.
         21   -1    0    0  502  503 -0.00000000000E+00 -0.00000000000E+00 -0.19896235420E+04  0.19896235420E+04  0.00000000000E+00 0.  1.
          6    1    1    2  501    0  0.48349511860E+01 -0.12498785069E+03 -0.38200616254E+03  0.43761061207E+03  0.17300000000E+03 0. -1.
         -6    1    1    2    0  503 -0.48349511860E+01  0.12498785069E+03 -0.15726031813E+04  0.15870271281E+04  0.17300000000E+03 0. -1.
<mgrwt>
<rscale>  2 0.21348147E+03</rscale>
<asrwt>0</asrwt>
<pdfrwt beam="1">  1       21 0.53867978E-02 0.21348147E+03</pdfrwt>
<pdfrwt beam="2">  1       21 0.30609604E+00 0.21348147E+03</pdfrwt>
<totfact> 0.72961482E+03</totfact>
</mgrwt>
</event>
<event>
 4    1  0.3980289E+000  0.2984834E+03  0.7546771E-02  0.1086001E+00
         21   -1    0    0  503  502  0.00000000000E+00  0.00000000000E+00  0.13430198666E+03  0.13430198666E+03  0.00000000000E+00 0. -1.
         21   -1    0    0  501  503 -0.00000000000E+00 -0.00000000000E+00 -0.11581864197E+04  0.11581864197E+04  0.00000000000E+00 0.  1.
          6    1    1    2  501    0 -0.23946852676E+03 -0.42639641314E+02 -0.93434634366E+03  0.98086462074E+03  0.17300000000E+03 0.  1.
         -6    1    1    2    0  502  0.23946852676E+03  0.42639641314E+02 -0.89538089405E+02  0.31162378564E+03  0.17300000000E+03 0. -1.
<mgrwt>
<rscale>  2 0.29848336E+03</rscale>
<asrwt>0</asrwt>
<pdfrwt beam="1">  1       21 0.20661844E-01 0.29848336E+03</pdfrwt>
<pdfrwt beam="2">  1       21 0.17818253E+00 0.29848336E+03</pdfrwt>
<totfact> 0.37580180E+03</totfact>
</mgrwt>
</event>
<event>
 4    1  0.3980289E+000  0.2343358E+03  0.7546771E-02  0.1123625E+00
         21   -1    0    0  503  502  0.00000000000E+00  0.00000000000E+00  0.58458054665E+02  0.58458054665E+02  0.00000000000E+00 0. -1.
         21   -1    0    0  501  503 -0.00000000000E+00 -0.00000000000E+00 -0.93939346049E+03  0.93939346049E+03  0.00000000000E+00 0. -1.
          6    1    1    2  501    0 -0.15786536282E+02  0.15727377503E+03 -0.43756464331E+03  0.49636284320E+03  0.17300000000E+03 0. -1.
         -6    1    1    2    0  502  0.15786536282E+02 -0.15727377503E+03 -0.44337076252E+03  0.50148867195E+03  0.17300000000E+03 0. -1.
<mgrwt>
<rscale>  2 0.23433577E+03</rscale>
<asrwt>0</asrwt>
<pdfrwt beam="1">  1       21 0.89935466E-02 0.23433577E+03</pdfrwt>
<pdfrwt beam="2">  1       21 0.14452208E+00 0.23433577E+03</pdfrwt>
<totfact> 0.31458044E+04</totfact>
</mgrwt>
</event>
<event>
 4    1  0.3980289E+000  0.1806422E+03  0.7546771E-02  0.1167183E+00
         21   -1    0    0  501  502  0.00000000000E+00  0.00000000000E+00  0.20962052820E+03  0.20962052820E+03  0.00000000000E+00 0. -1.
         21   -1    0    0  502  503 -0.00000000000E+00 -0.00000000000E+00 -0.19601711017E+03  0.19601711017E+03  0.00000000000E+00 0.  1.
          6    1    1    2  501    0  0.50712857532E+02  0.11437123655E+02  0.98818724068E+02  0.20590469141E+03  0.17300000000E+03 0. -1.
         -6    1    1    2    0  503 -0.50712857532E+02 -0.11437123655E+02 -0.85215306039E+02  0.19973294696E+03  0.17300000000E+03 0.  1.
<mgrwt>
<rscale>  2 0.18064219E+03</rscale>
<asrwt>0</asrwt>
<pdfrwt beam="1">  1       21 0.32249312E-01 0.18064219E+03</pdfrwt>
<pdfrwt beam="2">  1       21 0.30156478E-01 0.18064219E+03</pdfrwt>
<totfact> 0.98020480E+04</totfact>
</mgrwt>
</event>
<event>
 4    1  0.3980289E+000  0.2017629E+03  0.7546771E-02  0.1148260E+00
         21   -1    0    0  501  502  0.00000000000E+00  0.00000000000E+00  0.10881444685E+03  0.10881444685E+03  0.00000000000E+00 0.  1.
         21   -1    0    0  502  503 -0.00000000000E+00 -0.00000000000E+00 -0.41305187540E+03  0.41305187540E+03  0.00000000000E+00 0.  1.
          6    1    1    2  501    0 -0.10350349547E+03  0.81427659100E+01 -0.71996950908E+02  0.21422380622E+03  0.17300000000E+03 0.  1.
         -6    1    1    2    0  503  0.10350349547E+03 -0.81427659100E+01 -0.23224047764E+03  0.30764251602E+03  0.17300000000E+03 0.  1.
<mgrwt>
<rscale>  2 0.20176293E+03</rscale>
<asrwt>0</asrwt>
<pdfrwt beam="1">  1       21 0.16740684E-01 0.20176293E+03</pdfrwt>
<pdfrwt beam="2">  1       21 0.63546442E-01 0.20176293E+03</pdfrwt>
<totfact> 0.73165709E+04</totfact>
</mgrwt>
</event>
<event>
 4    1  0.3980289E+000  0.2408307E+03  0.7546771E-02  0.1119241E+00
         21   -1    0    0  501  502  0.00000000000E+00  0.00000000000E+00  0.75561374324E+03  0.75561374324E+03  0.00000000000E+00 0.  1.
         21   -1    0    0  502  503 -0.00000000000E+00 -0.00000000000E+00 -0.10903081082E+03  0.10903081082E+03  0.00000000000E+00 0. -1.
          6    1    1    2  501    0 -0.54618430080E+01  0.16745326640E+03  0.55849895036E+03  0.60821090562E+03  0.17300000000E+03 0.  1.
         -6    1    1    2    0  503  0.54618430080E+01 -0.16745326640E+03  0.88083982064E+02  0.25643364844E+03  0.17300000000E+03 0. -1.
<mgrwt>
<rscale>  2 0.24083070E+03</rscale>
<asrwt>0</asrwt>
<pdfrwt beam="1">  1       21 0.11624827E+00 0.24083070E+03</pdfrwt>
<pdfrwt beam="2">  1       21 0.16773971E-01 0.24083070E+03</pdfrwt>
<totfact> 0.17736819E+04</totfact>
</mgrwt>
</event>
<event>
 4    1  0.3980289E+000  0.2299660E+03  0.7546771E-02  0.1126664E+00
         21   -1    0    0  503  502  0.00000000000E+00  0.00000000000E+00  0.97784449223E+02  0.97784449223E+02  0.00000000000E+00 0.  1.
         21   -1    0    0  501  503 -0.00000000000E+00 -0.00000000000E+00 -0.82337547331E+03  0.82337547331E+03  0.00000000000E+00 0.  1.
          6    1    1    2  501    0 -0.53584918944E+01 -0.15141546728E+03 -0.63260265784E+03  0.67310510314E+03  0.17300000000E+03 0.  1.
         -6    1    1    2    0  502  0.53584918944E+01  0.15141546728E+03 -0.92988366241E+02  0.24805481939E+03  0.17300000000E+03 0.  1.
<mgrwt>
<rscale>  2 0.22996599E+03</rscale>
<asrwt>0</asrwt>
<pdfrwt beam="1">  1       21 0.15043761E-01 0.22996599E+03</pdfrwt>
<pdfrwt beam="2">  1       21 0.12667315E+00 0.22996599E+03</pdfrwt>
<totfact> 0.17587411E+04</totfact>
</mgrwt>
</event>
<event>
 4    1  0.3980289E+000  0.1776822E+03  0.7546771E-02  0.1170065E+00
         21   -1    0    0  503  502  0.00000000000E+00  0.00000000000E+00  0.57911381106E+02  0.57911381106E+02  0.00000000000E+00 0. -1.
         21   -1    0    0  501  503 -0.00000000000E+00 -0.00000000000E+00 -0.58844801759E+03  0.58844801759E+03  0.00000000000E+00 0. -1.
          6    1    1    2  501    0  0.14726012105E+02  0.37750779794E+02 -0.35292260327E+03  0.39512699314E+03  0.17300000000E+03 0. -1.
         -6    1    1    2    0  502 -0.14726012105E+02 -0.37750779794E+02 -0.17761403321E+03  0.25123240556E+03  0.17300000000E+03 0. -1.
<mgrwt>
<rscale>  2 0.17768224E+03</rscale>
<asrwt>0</asrwt>
<pdfrwt beam="1">  1       21 0.89094431E-02 0.17768224E+03</pdfrwt>
<pdfrwt beam="2">  1       21 0.90530465E-01 0.17768224E+03</pdfrwt>
<totfact> 0.10366629E+05</totfact>
</mgrwt>
</event>
<event>
 4    1  0.3980289E+000  0.1867270E+03  0.7546771E-02  0.1161447E+00
         21   -1    0    0  501  502  0.00000000000E+00  0.00000000000E+00  0.33027397138E+04  0.33027397138E+04  0.00000000000E+00 0. -1.
         21   -1    0    0  502  503 -0.00000000000E+00 -0.00000000000E+00 -0.11526474996E+02  0.11526474996E+02  0.00000000000E+00 0. -1.
          6    1    1    2  501    0  0.36581932669E+01 -0.70175323145E+02  0.21262044823E+04  0.21343880760E+04  0.17300000000E+03 0. -1.
         -6    1    1    2    0  503 -0.36581932669E+01  0.70175323145E+02  0.11650087564E+04  0.11798781127E+04  0.17300000000E+03 0. -1.
<mgrwt>
<rscale>  2 0.18672696E+03</rscale>
<asrwt>0</asrwt>
<pdfrwt beam="1">  1       21 0.50811305E+00 0.18672696E+03</pdfrwt>
<pdfrwt beam="2">  1       21 0.17733065E-02 0.18672696E+03</pdfrwt>
<totfact> 0.25048796E+03</totfact>
</mgrwt>
</event>
<event>
 4    1  0.3980289E+000  0.1772457E+03  0.7546771E-02  0.1170496E+00
         21   -1    0    0  501  502  0.00000000000E+00  0.00000000000E+00  0.14848731155E+03  0.14848731155E+03  0.00000000000E+00 0.  1.
         21   -1    0    0  502  503 -0.00000000000E+00 -0.00000000000E+00 -0.25914297851E+03  0.25914297851E+03  0.00000000000E+00 0.  1.
          6    1    1    2  501    0  0.36740211363E+02  0.11713685201E+02  0.31995170978E+02  0.18011036760E+03  0.17300000000E+03 0.  1.
         -6    1    1    2    0  503 -0.36740211363E+02 -0.11713685201E+02 -0.14265083794E+03  0.22751992246E+03  0.17300000000E+03 0.  1.
<mgrwt>
<rscale>  2 0.17724574E+03</rscale>
<asrwt>0</asrwt>
<pdfrwt beam="1">  1       21 0.22844202E-01 0.17724574E+03</pdfrwt>
<pdfrwt beam="2">  1       21 0.39868150E-01 0.17724574E+03</pdfrwt>
<totfact> 0.10963297E+05</totfact>
</mgrwt>
</event>
<event>
 4    1  0.3980289E+000  0.2787723E+03  0.7546771E-02  0.1096361E+00
         21   -1    0    0  501  502  0.00000000000E+00  0.00000000000E+00  0.14800217216E+03  0.14800217216E+03  0.00000000000E+00 0. -1.
         21   -1    0    0  502  503 -0.00000000000E+00 -0.00000000000E+00 -0.72528953238E+03  0.72528953238E+03  0.00000000000E+00 0.  1.
          6    1    1    2  501    0  0.27344734519E+02 -0.21688076126E+03 -0.59235687029E+02  0.28499625564E+03  0.17300000000E+03 0. -1.
         -6    1    1    2    0  503 -0.27344734519E+02  0.21688076126E+03 -0.51805167318E+03  0.58829544890E+03  0.17300000000E+03 0.  1.
<mgrwt>
<rscale>  2 0.27877231E+03</rscale>
<asrwt>0</asrwt>
<pdfrwt beam="1">  1       21 0.22769565E-01 0.27877231E+03</pdfrwt>
<pdfrwt beam="2">  1       21 0.11158300E+00 0.27877231E+03</pdfrwt>
<totfact> 0.10837106E+04</totfact>
</mgrwt>
</event>
<event>
 4    1  0.3980289E+000  0.2101205E+03  0.7546771E-02  0.1141471E+00
         21   -1    0    0  503  502  0.00000000000E+00  0.00000000000E+00  0.83335888860E+03  0.83335888860E+03  0.00000000000E+00 0. -1.
         21   -1    0    0  501  503 -0.00000000000E+00 -0.00000000000E+00 -0.59694833306E+02  0.59694833306E+02  0.00000000000E+00 0. -1.
          6    1    1    2  501    0  0.42095854212E+02 -0.11157759416E+03  0.23706186719E+03  0.31677902288E+03  0.17300000000E+03 0. -1.
         -6    1    1    2    0  502 -0.42095854212E+02  0.11157759416E+03  0.53660218810E+03  0.57627469902E+03  0.17300000000E+03 0. -1.
<mgrwt>
<rscale>  2 0.21012049E+03</rscale>
<asrwt>0</asrwt>
<pdfrwt beam="1">  1       21 0.12820905E+00 0.21012049E+03</pdfrwt>
<pdfrwt beam="2">  1       21 0.91838211E-02 0.21012049E+03</pdfrwt>
<totfact> 0.41793492E+04</totfact>
</mgrwt>
</event>
<event>
 4    1  0.3980289E+000  0.2327356E+03  0.7546771E-02  0.1124729E+00
         21   -1    0    0  501  502  0.00000000000E+00  0.00000000000E+00  0.30866435667E+03  0.30866435667E+03  0.00000000000E+00 0. -1.
         21   -1    0    0  502  503 -0.00000000000E+00 -0.00000000000E+00 -0.24417891716E+03  0.24417891716E+03  0.00000000000E+00 0. -1.
          6    1    1    2  501    0 -0.37269368027E+02  0.15115511417E+03  0.17885758937E+03  0.29352327269E+03  0.17300000000E+03 0. -1.
         -6    1    1    2    0  503  0.37269368027E+02 -0.15115511417E+03 -0.11437214986E+03  0.25932000115E+03  0.17300000000E+03 0. -1.
<mgrwt>
<rscale>  2 0.23273563E+03</rscale>
<asrwt>0</asrwt>
<pdfrwt beam="1">  1       21 0.47486824E-01 0.23273563E+03</pdfrwt>
<pdfrwt beam="2">  1       21 0.37565987E-01 0.23273563E+03</pdfrwt>
<totfact> 0.28380529E+04</totfact>
</mgrwt>
</event>
<event>
 4    1  0.3980289E+000  0.1751488E+03  0.7546771E-02  0.1172582E+00
         21   -1    0    0  503  502  0.00000000000E+00  0.00000000000E+00  0.16395144262E+03  0.16395144262E+03  0.00000000000E+00 0.  1.
         21   -1    0    0  501  503 -0.00000000000E+00 -0.00000000000E+00 -0.37017767115E+03  0.37017767115E+03  0.00000000000E+00 0.  1.
          6    1    1    2  501    0  0.29392776240E+01 -0.27193147849E+02 -0.29092188614E+03  0.33957716425E+03  0.17300000000E+03 0.  1.
         -6    1    1    2    0  502 -0.29392776240E+01  0.27193147849E+02  0.84695657619E+02  0.19455194952E+03  0.17300000000E+03 0.  1.
<mgrwt>
<rscale>  2 0.17514881E+03</rscale>
<asrwt>0</asrwt>
<pdfrwt beam="1">  1       21 0.25223299E-01 0.17514881E+03</pdfrwt>
<pdfrwt beam="2">  1       21 0.56950410E-01 0.17514881E+03</pdfrwt>
<totfact> 0.43516650E+04</totfact>
</mgrwt>
</event>
<event>
 4    1  0.3980289E+000  0.2004866E+03  0.7546771E-02  0.1149329E+00
         21   -1    0    0  501  502  0.00000000000E+00  0.00000000000E+00  0.18704977621E+03  0.18704977621E+03  0.00000000000E+00 0. -1.
         21   -1    0    0  502  503 -0.00000000000E+00 -0.00000000000E+00 -0.24826486932E+03  0.24826486932E+03  0.00000000000E+00 0.  1.
          6    1    1    2  501    0 -0.26075866558E+02  0.97907772254E+02  0.49198153737E+02  0.20643483479E+03  0.17300000000E+03 0. -1.
         -6    1    1    2    0  503  0.26075866558E+02 -0.97907772254E+02 -0.11041324685E+03  0.22887981074E+03  0.17300000000E+03 0.  1.
<mgrwt>
<rscale>  2 0.20048661E+03</rscale>
<asrwt>0</asrwt>
<pdfrwt beam="1">  1       21 0.28776889E-01 0.20048661E+03</pdfrwt>
<pdfrwt beam="2">  1       21 0.38194595E-01 0.20048661E+03</pdfrwt>
<totfact> 0.76120852E+04</totfact>
</mgrwt>
</event>
<event>
 4    1  0.3980289E+000  0.1783723E+03  0.7546771E-02  0.1169388E+00
         21   -1    0    0  501  502  0.00000000000E+00  0.00000000000E+00  0.94537800088E+03  0.94537800088E+03  0.00000000000E+00 0.  1.
         21   -1    0    0  502  503 -0.00000000000E+00 -0.00000000000E+00 -0.33872527902E+02  0.33872527902E+02  0.00000000000E+00 0.  1.
          6    1    1    2  501    0 -0.22950422099E+02 -0.36891345668E+02  0.41651526183E+03  0.45310225843E+03  0.17300000000E+03 0.  1.
         -6    1    1    2    0  503  0.22950422099E+02  0.36891345668E+02  0.49499021115E+03  0.52614827035E+03  0.17300000000E+03 0.  1.
<mgrwt>
<rscale>  2 0.17837234E+03</rscale>
<asrwt>0</asrwt>
<pdfrwt beam="1">  1       21 0.14544275E+00 0.17837234E+03</pdfrwt>
<pdfrwt beam="2">  1       21 0.52111589E-02 0.17837234E+03</pdfrwt>
<totfact> 0.81840823E+04</totfact>
</mgrwt>
</event>
<event>
 4    1  0.3980289E+000  0.2305307E+03  0.7546771E-02  0.1126267E+00
         21   -1    0    0  501  502  0.00000000000E+00  0.00000000000E+00  0.86334201375E+03  0.86334201375E+03  0.00000000000E+00 0.  1.
         21   -1    0    0  502  503 -0.00000000000E+00 -0.00000000000E+00 -0.10934938388E+03  0.10934938388E+03  0.00000000000E+00 0.  1.
          6    1    1    2  501    0 -0.13762913778E+03  0.65373137468E+02  0.69852366990E+03  0.73558122874E+03  0.17300000000E+03 0.  1.
         -6    1    1    2    0  503  0.13762913778E+03 -0.65373137468E+02  0.55468959978E+02  0.23711016889E+03  0.17300000000E+03 0.  1.
<mgrwt>
<rscale>  2 0.23053075E+03</rscale>
<asrwt>0</asrwt>
<pdfrwt beam="1">  1       21 0.13282184E+00 0.23053075E+03</pdfrwt>
<pdfrwt beam="2">  1       21 0.16822983E-01 0.23053075E+03</pdfrwt>
<totfact> 0.12694649E+04</totfact>
</mgrwt>
</event>
<event>
 4    1  0.3980289E+000  0.1989465E+03  0.7546771E-02  0.1150631E+00
         21   -1    0    0  501  502  0.00000000000E+00  0.00000000000E+00  0.13508136707E+03  0.13508136707E+03  0.00000000000E+00 0. -1.
         21   -1    0    0  502  503 -0.00000000000E+00 -0.00000000000E+00 -0.79441742957E+03  0.79441742957E+03  0.00000000000E+00 0.  1.
          6    1    1    2  501    0  0.87724487391E+02  0.44216988671E+02  0.39557158925E+02  0.20284106240E+03  0.17300000000E+03 0. -1.
         -6    1    1    2    0  503 -0.87724487391E+02 -0.44216988671E+02 -0.69889322142E+03  0.72665773423E+03  0.17300000000E+03 0.  1.
<mgrwt>
<rscale>  2 0.19894655E+03</rscale>
<asrwt>0</asrwt>
<pdfrwt beam="1">  1       21 0.20781749E-01 0.19894655E+03</pdfrwt>
<pdfrwt beam="2">  1       21 0.12221807E+00 0.19894655E+03</pdfrwt>
<totfact> 0.10792464E+04</totfact>
</mgrwt>
</event>
<event>
 4    1  0.3980289E+000  0.1736280E+03  0.7546771E-02  0.1174116E+00
         21   -1    0    0  503  502  0.00000000000E+00  0.00000000000E+00  0.81766537458E+02  0.81766537458E+02  0.00000000000E+00 0. -1.
         21   -1    0    0  501  503 -0.00000000000E+00 -0.00000000000E+00 -0.42954403178E+03  0.42954403178E+03  0.00000000000E+00 0. -1.
          6    1    1    2  501    0  0.64970340960E+01  0.13246202227E+02 -0.27011382013E+03  0.32110457666E+03  0.17300000000E+03 0. -1.
         -6    1    1    2    0  502 -0.64970340960E+01 -0.13246202227E+02 -0.77663674196E+02  0.19020599258E+03  0.17300000000E+03 0. -1.
<mgrwt>
<rscale>  2 0.17362797E+03</rscale>
<asrwt>0</asrwt>
<pdfrwt beam="1">  1       21 0.12579467E-01 0.17362797E+03</pdfrwt>
<pdfrwt beam="2">  1       21 0.66083697E-01 0.17362797E+03</pdfrwt>
<totfact> 0.11417971E+05</totfact>
</mgrwt>
</event>
<event>
 4    1  0.3980289E+000  0.1746893E+03  0.7546771E-02  0.1173044E+00
         21   -1    0    0  503  502  0.00000000000E+00  0.00000000000E+00  0.67032039654E+02  0.67032039654E+02  0.00000000000E+00 0. -1.
         21   -1    0    0  501  503 -0.00000000000E+00 -0.00000000000E+00 -0.53173464035E+03  0.53173464035E+03  0.00000000000E+00 0. -1.
          6    1    1    2  501    0 -0.19430273310E+02 -0.14484859902E+02 -0.34589598705E+03  0.38750532970E+03  0.17300000000E+03 0. -1.
         -6    1    1    2    0  502  0.19430273310E+02  0.14484859902E+02 -0.11880661365E+03  0.21126135031E+03  0.17300000000E+03 0. -1.
<mgrwt>
<rscale>  2 0.17468929E+03</rscale>
<asrwt>0</asrwt>
<pdfrwt beam="1">  1       21 0.10312621E-01 0.17468929E+03</pdfrwt>
<pdfrwt beam="2">  1       21 0.81805330E-01 0.17468929E+03</pdfrwt>
<totfact> 0.10120167E+05</totfact>
</mgrwt>
</event>
<event>
 4    1  0.3980289E+000  0.2726432E+03  0.7546771E-02  0.1099776E+00
         21   -1    0    0  501  502  0.00000000000E+00  0.00000000000E+00  0.22891849649E+03  0.22891849649E+03  0.00000000000E+00 0.  1.
         21   -1    0    0  502  503 -0.00000000000E+00 -0.00000000000E+00 -0.37524014672E+03  0.37524014672E+03  0.00000000000E+00 0. -1.
          6    1    1    2  501    0 -0.24393304260E+02  0.20930907871E+03  0.37680152806E+02  0.27523465922E+03  0.17300000000E+03 0.  1.
         -6    1    1    2    0  503  0.24393304260E+02 -0.20930907871E+03 -0.18400180304E+03  0.32892398399E+03  0.17300000000E+03 0. -1.
<mgrwt>
<rscale>  2 0.27264322E+03</rscale>
<asrwt>0</asrwt>
<pdfrwt beam="1">  1       21 0.35218231E-01 0.27264322E+03</pdfrwt>
<pdfrwt beam="2">  1       21 0.57729253E-01 0.27264322E+03</pdfrwt>
<totfact> 0.20990847E+04</totfact>
</mgrwt>
</event>
<event>
 4    1  0.3980289E+000  0.1860836E+03  0.7546771E-02  0.1162042E+00
         21   -1    0    0  501  502  0.00000000000E+00  0.00000000000E+00  0.76316353448E+03  0.76316353448E+03  0.00000000000E+00 0. -1.
         21   -1    0    0  502  503 -0.00000000000E+00 -0.00000000000E+00 -0.45462692019E+02  0.45462692019E+02  0.00000000000E+00 0. -1.
          6    1    1    2  501    0 -0.67884193380E+02 -0.94780246604E+01  0.37679861700E+03  0.42024313729E+03  0.17300000000E+03 0.  1.
         -6    1    1    2    0  503  0.67884193380E+02  0.94780246604E+01  0.34090222546E+03  0.38838308921E+03  0.17300000000E+03 0.  1.
<mgrwt>
<rscale>  2 0.18608357E+03</rscale>
<asrwt>0</asrwt>
<pdfrwt beam="1">  1       21 0.11740977E+00 0.18608357E+03</pdfrwt>
<pdfrwt beam="2">  1       21 0.69942609E-02 0.18608357E+03</pdfrwt>
<totfact> 0.84669126E+04</totfact>
</mgrwt>
</event>
<event>
 4    1  0.3980289E+000  0.1732305E+03  0.7546771E-02  0.1174520E+00
         21   -1    0    0  503  502  0.00000000000E+00  0.00000000000E+00  0.53897533376E+03  0.53897533376E+03  0.00000000000E+00 0. -1.
         21   -1    0    0  501  503 -0.00000000000E+00 -0.00000000000E+00 -0.58464200554E+02  0.58464200554E+02  0.00000000000E+00 0. -1.
          6    1    1    2  501    0 -0.13531045112E+01 -0.88305637735E+01  0.17503830289E+03  0.24626655727E+03  0.17300000000E+03 0. -1.
         -6    1    1    2    0  502  0.13531045112E+01  0.88305637735E+01  0.30547283031E+03  0.35117297704E+03  0.17300000000E+03 0. -1.
<mgrwt>
<rscale>  2 0.17323051E+03</rscale>
<asrwt>0</asrwt>
<pdfrwt beam="1">  1       21 0.82919279E-01 0.17323051E+03</pdfrwt>
<pdfrwt beam="2">  1       21 0.89944928E-02 0.17323051E+03</pdfrwt>
<totfact> 0.12489327E+05</totfact>
</mgrwt>
</event>
<event>
 4    1  0.3980289E+000  0.1844514E+03  0.7546771E-02  0.1163563E+00
         21   -1    0    0  501  502  0.00000000000E+00  0.00000000000E+00  0.11338000560E+04  0.11338000560E+04  0.00000000000E+00 0. -1.
         21   -1    0    0  502  503 -0.00000000000E+00 -0.00000000000E+00 -0.42426014698E+02  0.42426014698E+02  0.00000000000E+00 0. -1.
          6    1    1    2  501    0  0.69320054270E+01 -0.63602404390E+02  0.86387399183E+03  0.88334624712E+03  0.17300000000E+03 0. -1.
         -6    1    1    2    0  503 -0.69320054270E+01  0.63602404390E+02  0.22750004944E+03  0.29287982354E+03  0.17300000000E+03 0. -1.
<mgrwt>
<rscale>  2 0.18445140E+03</rscale>
<asrwt>0</asrwt>
<pdfrwt beam="1">  1       21 0.17443075E+00 0.18445140E+03</pdfrwt>
<pdfrwt beam="2">  1       21 0.65270801E-02 0.18445140E+03</pdfrwt>
<totfact> 0.34092595E+04</totfact>
</mgrwt>
</event>
<event>
 4    1  0.3980289E+000  0.1929426E+03  0.7546771E-02  0.1155834E+00
         21   -1    0    0  501  502  0.00000000000E+00  0.00000000000E+00  0.17157559407E+04  0.17157559407E+04  0.00000000000E+00 0. -1.
         21   -1    0    0  502  503 -0.00000000000E+00 -0.00000000000E+00 -0.22624065129E+02  0.22624065129E+02  0.00000000000E+00 0. -1.
          6    1    1    2  501    0 -0.33288888230E+02 -0.78674509993E+02  0.10225100349E+04  0.10405544676E+04  0.17300000000E+03 0. -1.
         -6    1    1    2    0  503  0.33288888230E+02  0.78674509993E+02  0.67062184076E+03  0.69782553830E+03  0.17300000000E+03 0. -1.
<mgrwt>
<rscale>  2 0.19294255E+03</rscale>
<asrwt>0</asrwt>
<pdfrwt beam="1">  1       21 0.26396235E+00 0.19294255E+03</pdfrwt>
<pdfrwt beam="2">  1       21 0.34806267E-02 0.19294255E+03</pdfrwt>
<totfact> 0.27235789E+04</totfact>
</mgrwt>
</event>
<event>
 4    1  0.3980289E+000  0.1763905E+03  0.7546771E-02  0.1171343E+00
         21   -1    0    0  501  502  0.00000000000E+00  0.00000000000E+00  0.12153119340E+03  0.12153119340E+03  0.00000000000E+00 0.  1.
         21   -1    0    0  502  503 -0.00000000000E+00 -0.00000000000E+00 -0.26234517010E+03  0.26234517010E+03  0.00000000000E+00 0.  1.
          6    1    1    2  501    0  0.34417117799E+02  0.28267353263E+00 -0.40588452468E+02  0.18100011153E+03  0.17300000000E+03 0.  1.
         -6    1    1    2    0  503 -0.34417117799E+02 -0.28267353263E+00 -0.10022552423E+03  0.20287625196E+03  0.17300000000E+03 0.  1.
<mgrwt>
<rscale>  2 0.17639053E+03</rscale>
<asrwt>0</asrwt>
<pdfrwt beam="1">  1       21 0.18697107E-01 0.17639053E+03</pdfrwt>
<pdfrwt beam="2">  1       21 0.40360796E-01 0.17639053E+03</pdfrwt>
<totfact> 0.15559332E+05</totfact>
</mgrwt>
</event>
<event>
 4    1  0.3980289E+000  0.1900866E+03  0.7546771E-02  0.1158383E+00
         21   -1    0    0  503  502  0.00000000000E+00  0.00000000000E+00  0.71342298529E+02  0.71342298529E+02  0.00000000000E+00 0.  1.
         21   -1    0    0  501  503 -0.00000000000E+00 -0.00000000000E+00 -0.78726379855E+03  0.78726379855E+03  0.00000000000E+00 0.  1.
          6    1    1    2  501    0  0.70165826429E+02 -0.35786390073E+02 -0.61434756724E+03  0.64308307573E+03  0.17300000000E+03 0.  1.
         -6    1    1    2    0  502 -0.70165826429E+02  0.35786390073E+02 -0.10157393279E+03  0.21552302136E+03  0.17300000000E+03 0.  1.
<mgrwt>
<rscale>  2 0.19008658E+03</rscale>
<asrwt>0</asrwt>
<pdfrwt beam="1">  1       21 0.10975739E-01 0.19008658E+03</pdfrwt>
<pdfrwt beam="2">  1       21 0.12111750E+00 0.19008658E+03</pdfrwt>
<totfact> 0.35559732E+04</totfact>
</mgrwt>
</event>
<event>
 4    1  0.3980289E+000  0.2246899E+03  0.7546771E-02  0.1130434E+00
         21   -1    0    0  503  502  0.00000000000E+00  0.00000000000E+00  0.29432601893E+02  0.29432601893E+02  0.00000000000E+00 0.  1.
         21   -1    0    0  501  503 -0.00000000000E+00 -0.00000000000E+00 -0.18070772771E+04  0.18070772771E+04  0.00000000000E+00 0. -1.
          6    1    1    2  501    0 -0.63184654553E+02 -0.12870218088E+03 -0.10957686899E+04  0.11185680908E+04  0.17300000000E+03 0. -1.
         -6    1    1    2    0  502  0.63184654553E+02  0.12870218088E+03 -0.68187598529E+03  0.71794178820E+03  0.17300000000E+03 0.  1.
<mgrwt>
<rscale>  2 0.22468990E+03</rscale>
<asrwt>0</asrwt>
<pdfrwt beam="1">  1       21 0.45280918E-02 0.22468990E+03</pdfrwt>
<pdfrwt beam="2">  1       21 0.27801194E+00 0.22468990E+03</pdfrwt>
<totfact> 0.14108321E+04</totfact>
</mgrwt>
</event>
<event>
 4    1  0.3980289E+000  0.2081019E+03  0.7546771E-02  0.1143078E+00
         21   -1    0    0  503  502  0.00000000000E+00  0.00000000000E+00  0.74158713897E+02  0.74158713897E+02  0.00000000000E+00 0. -1.
         21   -1    0    0  501  503 -0.00000000000E+00 -0.00000000000E+00 -0.74644791121E+03  0.74644791121E+03  0.00000000000E+00 0. -1.
          6    1    1    2  501    0  0.11562540253E+03  0.28603288049E+01 -0.52757165263E+03  0.56713161070E+03  0.17300000000E+03 0. -1.
         -6    1    1    2    0  502 -0.11562540253E+03 -0.28603288049E+01 -0.14471754468E+03  0.25347501441E+03  0.17300000000E+03 0. -1.
<mgrwt>
<rscale>  2 0.20810193E+03</rscale>
<asrwt>0</asrwt>
<pdfrwt beam="1">  1       21 0.11409033E-01 0.20810193E+03</pdfrwt>
<pdfrwt beam="2">  1       21 0.11483814E+00 0.20810193E+03</pdfrwt>
<totfact> 0.37456272E+04</totfact>
</mgrwt>
</event>
<event>
 4    1  0.3980289E+000  0.2767214E+03  0.7546771E-02  0.1097493E+00
         21   -1    0    0  503  502  0.00000000000E+00  0.00000000000E+00  0.13967320482E+04  0.13967320482E+04  0.00000000000E+00 0.  1.
         21   -1    0    0  501  503 -0.00000000000E+00 -0.00000000000E+00 -0.57835908838E+02  0.57835908838E+02  0.00000000000E+00 0. -1.
          6    1    1    2  501    0  0.20382910191E+03 -0.71410333453E+02  0.50348531770E+03  0.57451910642E+03  0.17300000000E+03 0. -1.
         -6    1    1    2    0  502 -0.20382910191E+03  0.71410333453E+02  0.83541082164E+03  0.88004885059E+03  0.17300000000E+03 0.  1.
<mgrwt>
<rscale>  2 0.27672141E+03</rscale>
<asrwt>0</asrwt>
<pdfrwt beam="1">  1       21 0.21488183E+00 0.27672141E+03</pdfrwt>
<pdfrwt beam="2">  1       21 0.88978332E-02 0.27672141E+03</pdfrwt>
<totfact> 0.10131450E+04</totfact>
</mgrwt>
</event>
<event>
 4    1  0.3980289E+000  0.2707367E+03  0.7546771E-02  0.1100859E+00
         21   -1    0    0  501  502  0.00000000000E+00  0.00000000000E+00  0.94498370992E+03  0.94498370992E+03  0.00000000000E+00 0. -1.
         21   -1    0    0  502  503 -0.00000000000E+00 -0.00000000000E+00 -0.78289549901E+02  0.78289549901E+02  0.00000000000E+00 0.  1.
          6    1    1    2  501    0 -0.16405662849E+03  0.12827629107E+03  0.48254135286E+03  0.55330329967E+03  0.17300000000E+03 0. -1.
         -6    1    1    2    0  503  0.16405662849E+03 -0.12827629107E+03  0.38415280715E+03  0.46996996015E+03  0.17300000000E+03 0.  1.
<mgrwt>
<rscale>  2 0.27073674E+03</rscale>
<asrwt>0</asrwt>
<pdfrwt beam="1">  1       21 0.14538210E+00 0.27073674E+03</pdfrwt>
<pdfrwt beam="2">  1       21 0.12044547E-01 0.27073674E+03</pdfrwt>
<totfact> 0.18060521E+04</totfact>
</mgrwt>
</event>
<event>
 4    1  0.3980289E+000  0.1731480E+03  0.7546771E-02  0.1174604E+00
         21   -1    0    0  501  502  0.00000000000E+00  0.00000000000E+00  0.25739118927E+02  0.25739118927E+02  0.00000000000E+00 0.  1.
         21   -1    0    0  502  503 -0.00000000000E+00 -0.00000000000E+00 -0.15223965587E+04  0.15223965587E+04  0.00000000000E+00 0.  1.
          6    1    1    2  501    0  0.27069942470E+01  0.66252492196E+01 -0.37315846355E+03  0.41137265425E+03  0.17300000000E+03 0.  1.
         -6    1    1    2    0  503 -0.27069942470E+01 -0.66252492196E+01 -0.11234989762E+04  0.11367630233E+04  0.17300000000E+03 0.  1.
<mgrwt>
<rscale>  2 0.17314798E+03</rscale>
<asrwt>0</asrwt>
<pdfrwt beam="1">  1       21 0.39598649E-02 0.17314798E+03</pdfrwt>
<pdfrwt beam="2">  1       21 0.23421483E+00 0.17314798E+03</pdfrwt>
<totfact> 0.33395642E+04</totfact>
</mgrwt>
</event>
<event>
 4    1  0.3980289E+000  0.2362318E+03  0.7546771E-02  0.1122329E+00
         21   -1    0    0  503  502  0.00000000000E+00  0.00000000000E+00  0.10026182102E+03  0.10026182102E+03  0.00000000000E+00 0.  1.
         21   -1    0    0  501  503 -0.00000000000E+00 -0.00000000000E+00 -0.55706041244E+03  0.55706041244E+03  0.00000000000E+00 0. -1.
          6    1    1    2  501    0 -0.48827846741E+01 -0.16078743434E+03 -0.23787749242E+03  0.33524788147E+03  0.17300000000E+03 0.  1.
         -6    1    1    2    0  502  0.48827846741E+01  0.16078743434E+03 -0.21892109900E+03  0.32207435200E+03  0.17300000000E+03 0. -1.
<mgrwt>
<rscale>  2 0.23623175E+03</rscale>
<asrwt>0</asrwt>
<pdfrwt beam="1">  1       21 0.15424895E-01 0.23623175E+03</pdfrwt>
<pdfrwt beam="2">  1       21 0.85701602E-01 0.23623175E+03</pdfrwt>
<totfact> 0.42914758E+04</totfact>
</mgrwt>
</event>
<event>
 4    1  0.3980289E+000  0.2430967E+03  0.7546771E-02  0.1117747E+00
         21   -1    0    0  501  502  0.00000000000E+00  0.00000000000E+00  0.71643008034E+02  0.71643008034E+02  0.00000000000E+00 0. -1.
         21   -1    0    0  502  503 -0.00000000000E+00 -0.00000000000E+00 -0.82580117199E+03  0.82580117199E+03  0.00000000000E+00 0. -1.
          6    1    1    2  501    0 -0.16923757219E+03 -0.22926603096E+02 -0.36199045504E+03  0.43604251457E+03  0.17300000000E+03 0. -1.
         -6    1    1    2    0  503  0.16923757219E+03  0.22926603096E+02 -0.39216770891E+03  0.46140166545E+03  0.17300000000E+03 0. -1.
<mgrwt>
<rscale>  2 0.24309666E+03</rscale>
<asrwt>0</asrwt>
<pdfrwt beam="1">  1       21 0.11022001E-01 0.24309666E+03</pdfrwt>
<pdfrwt beam="2">  1       21 0.12704634E+00 0.24309666E+03</pdfrwt>
<totfact> 0.30419972E+04</totfact>
</mgrwt>
</event>
<event>
 4    1  0.3980289E+000  0.2864401E+03  0.7546771E-02  0.1092223E+00
         21   -1    0    0  503  502  0.00000000000E+00  0.00000000000E+00  0.47115502013E+03  0.47115502013E+03  0.00000000000E+00 0. -1.
         21   -1    0    0  501  503 -0.00000000000E+00 -0.00000000000E+00 -0.18139311784E+03  0.18139311784E+03  0.00000000000E+00 0. -1.
          6    1    1    2  501    0  0.20429724941E+03 -0.10189006141E+03  0.79647555736E+02  0.29730738952E+03  0.17300000000E+03 0. -1.
         -6    1    1    2    0  502 -0.20429724941E+03  0.10189006141E+03  0.21011434655E+03  0.35524074845E+03  0.17300000000E+03 0. -1.
<mgrwt>
<rscale>  2 0.28644013E+03</rscale>
<asrwt>0</asrwt>
<pdfrwt beam="1">  1       21 0.72485387E-01 0.28644013E+03</pdfrwt>
<pdfrwt beam="2">  1       21 0.27906634E-01 0.28644013E+03</pdfrwt>
<totfact> 0.20051157E+04</totfact>
</mgrwt>
</event>
<event>
 4    1  0.3980289E+000  0.2417407E+03  0.7546771E-02  0.1118639E+00
         21   -1    0    0  501  502  0.00000000000E+00  0.00000000000E+00  0.12590530027E+03  0.12590530027E+03  0.00000000000E+00 0. -1.
         21   -1    0    0  502  503 -0.00000000000E+00 -0.00000000000E+00 -0.82470202439E+03  0.82470202439E+03  0.00000000000E+00 0.  1.
          6    1    1    2  501    0 -0.11154722440E+03 -0.12675480074E+03 -0.35124379987E+02  0.24427911260E+03  0.17300000000E+03 0. -1.
         -6    1    1    2    0  503  0.11154722440E+03  0.12675480074E+03 -0.66367234414E+03  0.70632821206E+03  0.17300000000E+03 0.  1.
<mgrwt>
<rscale>  2 0.24174069E+03</rscale>
<asrwt>0</asrwt>
<pdfrwt beam="1">  1       21 0.19370046E-01 0.24174069E+03</pdfrwt>
<pdfrwt beam="2">  1       21 0.12687723E+00 0.24174069E+03</pdfrwt>
<totfact> 0.10899877E+04</totfact>
</mgrwt>
</event>
<event>
 4    1  0.3980289E+000  0.3018685E+03  0.7546771E-02  0.1084310E+00
         21   -1    0    0  503  502  0.00000000000E+00  0.00000000000E+00  0.23129840966E+03  0.23129840966E+03  0.00000000000E+00 0.  1.
         21   -1    0    0  501  503 -0.00000000000E+00 -0.00000000000E+00 -0.54012794598E+03  0.54012794598E+03  0.00000000000E+00 0. -1.
          6    1    1    2  501    0  0.24371963639E+03 -0.42382815593E+02 -0.35505952682E+03  0.46603844456E+03  0.17300000000E+03 0. -1.
         -6    1    1    2    0  502 -0.24371963639E+03  0.42382815593E+02  0.46229990499E+02  0.30538791109E+03  0.17300000000E+03 0. -1.
<mgrwt>
<rscale>  2 0.30186846E+03</rscale>
<asrwt>0</asrwt>
<pdfrwt beam="1">  1       21 0.35584371E-01 0.30186846E+03</pdfrwt>
<pdfrwt beam="2">  1       21 0.83096607E-01 0.30186846E+03</pdfrwt>
<totfact> 0.90229030E+03</totfact>
</mgrwt>
</event>
<event>
 4    1  0.3980289E+000  0.1839489E+03  0.7546771E-02  0.1164035E+00
         21   -1    0    0  501  502  0.00000000000E+00  0.00000000000E+00  0.11180917710E+04  0.11180917710E+04  0.00000000000E+00 0. -1.
         21   -1    0    0  502  503 -0.00000000000E+00 -0.00000000000E+00 -0.69232261202E+02  0.69232261202E+02  0.00000000000E+00 0. -1.
          6    1    1    2  501    0 -0.32704313369E+02 -0.53278856858E+02  0.96982349604E+03  0.98711439163E+03  0.17300000000E+03 0. -1.
         -6    1    1    2    0  503  0.32704313369E+02  0.53278856858E+02  0.79036013739E+02  0.20020964055E+03  0.17300000000E+03 0. -1.
<mgrwt>
<rscale>  2 0.18394893E+03</rscale>
<asrwt>0</asrwt>
<pdfrwt beam="1">  1       21 0.17201411E+00 0.18394893E+03</pdfrwt>
<pdfrwt beam="2">  1       21 0.10651118E-01 0.18394893E+03</pdfrwt>
<totfact> 0.15088060E+04</totfact>
</mgrwt>
</event>
<event>
 4    1  0.3980289E+000  0.1850262E+03  0.7546771E-02  0.1163025E+00
         21   -1    0    0  501  502  0.00000000000E+00  0.00000000000E+00  0.33374802398E+03  0.33374802398E+03  0.00000000000E+00 0. -1.
         21   -1    0    0  502  503 -0.00000000000E+00 -0.00000000000E+00 -0.11344531140E+03  0.11344531140E+03  0.00000000000E+00 0. -1.
          6    1    1    2  501    0  0.83457239380E+01  0.65084839910E+02  0.17936059569E+03  0.25769150312E+03  0.17300000000E+03 0. -1.
         -6    1    1    2    0  503 -0.83457239380E+01 -0.65084839910E+02  0.40942116900E+02  0.18950183226E+03  0.17300000000E+03 0. -1.
<mgrwt>
<rscale>  2 0.18502618E+03</rscale>
<asrwt>0</asrwt>
<pdfrwt beam="1">  1       21 0.51345849E-01 0.18502618E+03</pdfrwt>
<pdfrwt beam="2">  1       21 0.17453125E-01 0.18502618E+03</pdfrwt>
<totfact> 0.10743943E+05</totfact>
</mgrwt>
</event>
<event>
 4    1  0.3980289E+000  0.2922205E+03  0.7546771E-02  0.1089195E+00
         21   -1    0    0  501  502  0.00000000000E+00  0.00000000000E+00  0.22614770035E+04  0.22614770035E+04  0.00000000000E+00 0. -1.
         21   -1    0    0  502  503 -0.00000000000E+00 -0.00000000000E+00 -0.46646845159E+02  0.46646845159E+02  0.00000000000E+00 0.  1.
          6    1    1    2  501    0 -0.21379875552E+03  0.98761886261E+02  0.16111450168E+04  0.16374312453E+04  0.17300000000E+03 0.  1.
         -6    1    1    2    0  503  0.21379875552E+03 -0.98761886261E+02  0.60368514160E+03  0.67069260338E+03  0.17300000000E+03 0.  1.
<mgrwt>
<rscale>  2 0.29222050E+03</rscale>
<asrwt>0</asrwt>
<pdfrwt beam="1">  1       21 0.34791945E+00 0.29222050E+03</pdfrwt>
<pdfrwt beam="2">  1       21 0.71764395E-02 0.29222050E+03</pdfrwt>
<totfact> 0.23392191E+03</totfact>
</mgrwt>
</event>
<event>
 4    1  0.3980289E+000  0.2232662E+03  0.7546771E-02  0.1131471E+00
         21   -1    0    0  503  502  0.00000000000E+00  0.00000000000E+00  0.35627865444E+03  0.35627865444E+03  0.00000000000E+00 0.  1.
         21   -1    0    0  501  503 -0.00000000000E+00 -0.00000000000E+00 -0.14464587787E+03  0.14464587787E+03  0.00000000000E+00 0. -1.
          6    1    1    2  501    0  0.13993153507E+03 -0.18383262789E+02  0.60507607060E+02  0.23132001507E+03  0.17300000000E+03 0.  1.
         -6    1    1    2    0  502 -0.13993153507E+03  0.18383262789E+02  0.15112516951E+03  0.26960451724E+03  0.17300000000E+03 0. -1.
<mgrwt>
<rscale>  2 0.22326616E+03</rscale>
<asrwt>0</asrwt>
<pdfrwt beam="1">  1       21 0.54812100E-01 0.22326616E+03</pdfrwt>
<pdfrwt beam="2">  1       21 0.22253212E-01 0.22326616E+03</pdfrwt>
<totfact> 0.58532756E+04</totfact>
</mgrwt>
</event>
<event>
 4    1  0.3980289E+000  0.2305226E+03  0.7546771E-02  0.1126272E+00
         21   -1    0    0  503  502  0.00000000000E+00  0.00000000000E+00  0.13260539664E+03  0.13260539664E+03  0.00000000000E+00 0. -1.
         21   -1    0    0  501  503 -0.00000000000E+00 -0.00000000000E+00 -0.45457231900E+03  0.45457231900E+03  0.00000000000E+00 0. -1.
          6    1    1    2  501    0 -0.84817245042E+02 -0.12656100430E+03 -0.26201302556E+03  0.34898635852E+03  0.17300000000E+03 0. -1.
         -6    1    1    2    0  502  0.84817245042E+02  0.12656100430E+03 -0.59953896794E+02  0.23819135712E+03  0.17300000000E+03 0. -1.
<mgrwt>
<rscale>  2 0.23052256E+03</rscale>
<asrwt>0</asrwt>
<pdfrwt beam="1">  1       21 0.20400831E-01 0.23052256E+03</pdfrwt>
<pdfrwt beam="2">  1       21 0.69934201E-01 0.23052256E+03</pdfrwt>
<totfact> 0.40533606E+04</totfact>
</mgrwt>
</event>
<event>
 4    1  0.3980289E+000  0.1796244E+03  0.7546771E-02  0.1168167E+00
         21   -1    0    0  503  502  0.00000000000E+00  0.00000000000E+00  0.45523158873E+03  0.45523158873E+03  0.00000000000E+00 0.  1.
         21   -1    0    0  501  503 -0.00000000000E+00 -0.00000000000E+00 -0.14023729804E+03  0.14023729804E+03  0.00000000000E+00 0.  1.
          6    1    1    2  501    0  0.45321615298E+01 -0.48118412423E+02 -0.51893083764E+02  0.18697008917E+03  0.17300000000E+03 0.  1.
         -6    1    1    2    0  502 -0.45321615298E+01  0.48118412423E+02  0.36688737446E+03  0.40849879760E+03  0.17300000000E+03 0.  1.
<mgrwt>
<rscale>  2 0.17962439E+03</rscale>
<asrwt>0</asrwt>
<pdfrwt beam="1">  1       21 0.70035628E-01 0.17962439E+03</pdfrwt>
<pdfrwt beam="2">  1       21 0.21574969E-01 0.17962439E+03</pdfrwt>
<totfact> 0.37314630E+04</totfact>
</mgrwt>
</event>
<event>
 4    1  0.3980289E+000  0.2948138E+03  0.7546771E-02  0.1087862E+00
         21   -1    0    0  501  502  0.00000000000E+00  0.00000000000E+00  0.20682304908E+03  0.20682304908E+03  0.00000000000E+00 0.  1.
         21   -1    0    0  502  503 -0.00000000000E+00 -0.00000000000E+00 -0.46336870560E+03  0.46336870560E+03  0.00000000000E+00 0. -1.
          6    1    1    2  501    0  0.18052114211E+03 -0.15619949261E+03 -0.26039454357E+02  0.29596151342E+03  0.17300000000E+03 0. -1.
         -6    1    1    2    0  503 -0.18052114211E+03  0.15619949261E+03 -0.23050620216E+03  0.37423024127E+03  0.17300000000E+03 0.  1.
<mgrwt>
<rscale>  2 0.29481378E+03</rscale>
<asrwt>0</asrwt>
<pdfrwt beam="1">  1       21 0.31818931E-01 0.29481378E+03</pdfrwt>
<pdfrwt beam="2">  1       21 0.71287493E-01 0.29481378E+03</pdfrwt>
<totfact> 0.16023664E+04</totfact>
</mgrwt>
</event>
<event>
 4    1  0.3980289E+000  0.1927659E+03  0.7546771E-02  0.1155990E+00
         21   -1    0    0  503  502  0.00000000000E+00  0.00000000000E+00  0.40339718677E+03  0.40339718677E+03  0.00000000000E+00 0.  1.
         21   -1    0    0  501  503 -0.00000000000E+00 -0.00000000000E+00 -0.95489991645E+02  0.95489991645E+02  0.00000000000E+00 0. -1.
          6    1    1    2  501    0 -0.30018324751E+01  0.84974547982E+02  0.10705399406E+03  0.22049771529E+03  0.17300000000E+03 0. -1.
         -6    1    1    2    0  502  0.30018324751E+01 -0.84974547982E+02  0.20085320106E+03  0.27838946313E+03  0.17300000000E+03 0.  1.
<mgrwt>
<rscale>  2 0.19276588E+03</rscale>
<asrwt>0</asrwt>
<pdfrwt beam="1">  1       21 0.62061105E-01 0.19276588E+03</pdfrwt>
<pdfrwt beam="2">  1       21 0.14690768E-01 0.19276588E+03</pdfrwt>
<totfact> 0.98171086E+04</totfact>
</mgrwt>
</event>
<event>
 4    1  0.3980289E+000  0.1956770E+03  0.7546771E-02  0.1153438E+00
         21   -1    0    0  503  502  0.00000000000E+00  0.00000000000E+00  0.94571586663E+03  0.94571586663E+03  0.00000000000E+00 0.  1.
         21   -1    0    0  501  503 -0.00000000000E+00 -0.00000000000E+00 -0.12889036926E+03  0.12889036926E+03  0.00000000000E+00 0.  1.
          6    1    1    2  501    0  0.90581601891E+02  0.12467931201E+02 -0.36569631188E+02  0.19906484832E+03  0.17300000000E+03 0.  1.
         -6    1    1    2    0  502 -0.90581601891E+02 -0.12467931201E+02  0.85339512856E+03  0.87554138758E+03  0.17300000000E+03 0.  1.
<mgrwt>
<rscale>  2 0.19567697E+03</rscale>
<asrwt>0</asrwt>
<pdfrwt beam="1">  1       21 0.14549474E+00 0.19567697E+03</pdfrwt>
<pdfrwt beam="2">  1       21 0.19829288E-01 0.19567697E+03</pdfrwt>
<totfact> 0.75764393E+03</totfact>
</mgrwt>
</event>
<event>
 4    1  0.3980289E+000  0.1791586E+03  0.7546771E-02  0.1168620E+00
         21   -1    0    0  503  502  0.00000000000E+00  0.00000000000E+00  0.47329980295E+03  0.47329980295E+03  0.00000000000E+00 0.  1.
         21   -1    0    0  501  503 -0.00000000000E+00 -0.00000000000E+00 -0.78212653743E+02  0.78212653743E+02  0.00000000000E+00 0.  1.
          6    1    1    2  501    0  0.32689557953E+02  0.33169348932E+02  0.97010040571E+02  0.20373698947E+03  0.17300000000E+03 0.  1.
         -6    1    1    2    0  502 -0.32689557953E+02 -0.33169348932E+02  0.29807710864E+03  0.34777546722E+03  0.17300000000E+03 0.  1.
<mgrwt>
<rscale>  2 0.17915862E+03</rscale>
<asrwt>0</asrwt>
<pdfrwt beam="1">  1       21 0.72815352E-01 0.17915862E+03</pdfrwt>
<pdfrwt beam="2">  1       21 0.12032716E-01 0.17915862E+03</pdfrwt>
<totfact> 0.99687405E+04</totfact>
</mgrwt>
</event>
<event>
 4    1  0.3980289E+000  0.2077476E+03  0.7546771E-02  0.1143362E+00
         21   -1    0    0  503  502  0.00000000000E+00  0.00000000000E+00  0.10186635715E+03  0.10186635715E+03  0.00000000000E+00 0. -1.
         21   -1    0    0  501  503 -0.00000000000E+00 -0.00000000000E+00 -0.42425889557E+03  0.42425889557E+03  0.00000000000E+00 0.  1.
          6    1    1    2  501    0 -0.50396773599E+02 -0.10339366698E+03 -0.15150763899E+03  0.25712574712E+03  0.17300000000E+03 0. -1.
         -6    1    1    2    0  502  0.50396773599E+02  0.10339366698E+03 -0.17088489944E+03  0.26899950560E+03  0.17300000000E+03 0.  1.
<mgrwt>
<rscale>  2 0.20774765E+03</rscale>
<asrwt>0</asrwt>
<pdfrwt beam="1">  1       21 0.15671747E-01 0.20774765E+03</pdfrwt>
<pdfrwt beam="2">  1       21 0.65270600E-01 0.20774765E+03</pdfrwt>
<totfact> 0.77704706E+04</totfact>
</mgrwt>
</event>
<event>
 4    1  0.3980289E+000  0.2568751E+03  0.7546771E-02  0.1109035E+00
         21   -1    0    0  503  502  0.00000000000E+00  0.00000000000E+00  0.31962908594E+03  0.31962908594E+03  0.00000000000E+00 0. -1.
         21   -1    0    0  501  503 -0.00000000000E+00 -0.00000000000E+00 -0.35625801913E+03  0.35625801913E+03  0.00000000000E+00 0. -1.
          6    1    1    2  501    0  0.15735259783E+03  0.10628252573E+03 -0.23746433037E+03  0.34982013023E+03  0.17300000000E+03 0. -1.
         -6    1    1    2    0  502 -0.15735259783E+03 -0.10628252573E+03  0.20083539718E+03  0.32606697483E+03  0.17300000000E+03 0. -1.
<mgrwt>
<rscale>  2 0.25687510E+03</rscale>
<asrwt>0</asrwt>
<pdfrwt beam="1">  1       21 0.49173706E-01 0.25687510E+03</pdfrwt>
<pdfrwt beam="2">  1       21 0.54808926E-01 0.25687510E+03</pdfrwt>
<totfact> 0.11932283E+04</totfact>
</mgrwt>
</event>
<event>
 4    1  0.3980289E+000  0.1846585E+03  0.7546771E-02  0.1163369E+00
         21   -1    0    0  501  502  0.00000000000E+00  0.00000000000E+00  0.21052573844E+03  0.21052573844E+03  0.00000000000E+00 0. -1.
         21   -1    0    0  502  503 -0.00000000000E+00 -0.00000000000E+00 -0.21392836317E+03  0.21392836317E+03  0.00000000000E+00 0.  1.
          6    1    1    2  501    0  0.29114063015E+02 -0.57637936387E+02  0.10289012734E+03  0.21138859638E+03  0.17300000000E+03 0. -1.
         -6    1    1    2    0  503 -0.29114063015E+02  0.57637936387E+02 -0.10629275206E+03  0.21306550523E+03  0.17300000000E+03 0.  1.
<mgrwt>
<rscale>  2 0.18465850E+03</rscale>
<asrwt>0</asrwt>
<pdfrwt beam="1">  1       21 0.32388575E-01 0.18465850E+03</pdfrwt>
<pdfrwt beam="2">  1       21 0.32912056E-01 0.18465850E+03</pdfrwt>
<totfact> 0.81776100E+04</totfact>
</mgrwt>
</event>
<event>
 4    1  0.3980289E+000  0.2494085E+03  0.7546771E-02  0.1113679E+00
         21   -1    0    0  503  502  0.00000000000E+00  0.00000000000E+00  0.10994580246E+03  0.10994580246E+03  0.00000000000E+00 0. -1.
         21   -1    0    0  501  503 -0.00000000000E+00 -0.00000000000E+00 -0.57992855660E+03  0.57992855660E+03  0.00000000000E+00 0.  1.
          6    1    1    2  501    0  0.14823277116E+03  0.10150203635E+03 -0.28887802467E+03  0.38164791493E+03  0.17300000000E+03 0.  1.
         -6    1    1    2    0  502 -0.14823277116E+03 -0.10150203635E+03 -0.18110472946E+03  0.30822644413E+03  0.17300000000E+03 0. -1.
<mgrwt>
<rscale>  2 0.24940854E+03</rscale>
<asrwt>0</asrwt>
<pdfrwt beam="1">  1       21 0.16914739E-01 0.24940854E+03</pdfrwt>
<pdfrwt beam="2">  1       21 0.89219779E-01 0.24940854E+03</pdfrwt>
<totfact> 0.32798058E+04</totfact>
</mgrwt>
</event>
<event>
 4    1  0.3980289E+000  0.1842066E+03  0.7546771E-02  0.1163793E+00
         21   -1    0    0  503  502  0.00000000000E+00  0.00000000000E+00  0.43361367663E+02  0.43361367663E+02  0.00000000000E+00 0. -1.
         21   -1    0    0  501  503 -0.00000000000E+00 -0.00000000000E+00 -0.78264698752E+03  0.78264698752E+03  0.00000000000E+00 0. -1.
          6    1    1    2  501    0  0.36907352769E+02  0.51389788059E+02 -0.37444113068E+03  0.41729872196E+03  0.17300000000E+03 0. -1.
         -6    1    1    2    0  502 -0.36907352769E+02 -0.51389788059E+02 -0.36484448918E+03  0.40870963322E+03  0.17300000000E+03 0. -1.
<mgrwt>
<rscale>  2 0.18420658E+03</rscale>
<asrwt>0</asrwt>
<pdfrwt beam="1">  1       21 0.66709793E-02 0.18420658E+03</pdfrwt>
<pdfrwt beam="2">  1       21 0.12040724E+00 0.18420658E+03</pdfrwt>
<totfact> 0.86400594E+04</totfact>
</mgrwt>
</event>
<event>
 4    1  0.3980289E+000  0.2325708E+03  0.7546771E-02  0.1124843E+00
         21   -1    0    0  501  502  0.00000000000E+00  0.00000000000E+00  0.14153774973E+04  0.14153774973E+04  0.00000000000E+00 0.  1.
         21   -1    0    0  502  503 -0.00000000000E+00 -0.00000000000E+00 -0.55085491882E+02  0.55085491882E+02  0.00000000000E+00 0. -1.
          6    1    1    2  501    0 -0.10332804295E+03  0.11611851603E+03  0.10870242008E+04  0.11116252999E+04  0.17300000000E+03 0.  1.
         -6    1    1    2    0  503  0.10332804295E+03 -0.11611851603E+03  0.27326780466E+03  0.35883768934E+03  0.17300000000E+03 0. -1.
<mgrwt>
<rscale>  2 0.23257084E+03</rscale>
<asrwt>0</asrwt>
<pdfrwt beam="1">  1       21 0.21775036E+00 0.23257084E+03</pdfrwt>
<pdfrwt beam="2">  1       21 0.84746921E-02 0.23257084E+03</pdfrwt>
<totfact> 0.10910460E+04</totfact>
</mgrwt>
</event>
<event>
 4    1  0.3980289E+000  0.1752050E+03  0.7546771E-02  0.1172526E+00
         21   -1    0    0  501  502  0.00000000000E+00  0.00000000000E+00  0.64444061438E+03  0.64444061438E+03  0.00000000000E+00 0. -1.
         21   -1    0    0  502  503 -0.00000000000E+00 -0.00000000000E+00 -0.18952028398E+03  0.18952028398E+03  0.00000000000E+00 0. -1.
          6    1    1    2  501    0 -0.18920803234E+02 -0.20243502382E+02  0.58825408487E+03  0.61379122228E+03  0.17300000000E+03 0. -1.
         -6    1    1    2    0  503  0.18920803234E+02  0.20243502382E+02 -0.13333375446E+03  0.22016967608E+03  0.17300000000E+03 0. -1.
<mgrwt>
<rscale>  2 0.17520501E+03</rscale>
<asrwt>0</asrwt>
<pdfrwt beam="1">  1       21 0.99144709E-01 0.17520501E+03</pdfrwt>
<pdfrwt beam="2">  1       21 0.29156967E-01 0.17520501E+03</pdfrwt>
<totfact> 0.95573528E+03</totfact>
</mgrwt>
</event>
<event>
 4    1  0.3980289E+000  0.1828767E+03  0.7546771E-02  0.1165048E+00
         21   -1    0    0  501  502  0.00000000000E+00  0.00000000000E+00  0.33560654110E+03  0.33560654110E+03  0.00000000000E+00 0.  1.
         21   -1    0    0  502  503 -0.00000000000E+00 -0.00000000000E+00 -0.11482265974E+03  0.11482265974E+03  0.00000000000E+00 0.  1.
          6    1    1    2  501    0  0.41241555017E+02 -0.42591119099E+02  0.19225438495E+03  0.26534056949E+03  0.17300000000E+03 0.  1.
         -6    1    1    2    0  503 -0.41241555017E+02  0.42591119099E+02  0.28529496414E+02  0.18508863134E+03  0.17300000000E+03 0.  1.
<mgrwt>
<rscale>  2 0.18287665E+03</rscale>
<asrwt>0</asrwt>
<pdfrwt beam="1">  1       21 0.51631775E-01 0.18287665E+03</pdfrwt>
<pdfrwt beam="2">  1       21 0.17665025E-01 0.18287665E+03</pdfrwt>
<totfact> 0.10394589E+05</totfact>
</mgrwt>
</event>
<event>
 4    1  0.3980289E+000  0.1874287E+03  0.7546771E-02  0.1160801E+00
         21   -1    0    0  503  502  0.00000000000E+00  0.00000000000E+00  0.57988103725E+02  0.57988103725E+02  0.00000000000E+00 0. -1.
         21   -1    0    0  501  503 -0.00000000000E+00 -0.00000000000E+00 -0.64743976378E+03  0.64743976378E+03  0.00000000000E+00 0. -1.
          6    1    1    2  501    0 -0.69908239550E+02  0.17701531231E+02 -0.38416935717E+03  0.42745245484E+03  0.17300000000E+03 0. -1.
         -6    1    1    2    0  502  0.69908239550E+02 -0.17701531231E+02 -0.20528230288E+03  0.27797541266E+03  0.17300000000E+03 0. -1.
<mgrwt>
<rscale>  2 0.18742867E+03</rscale>
<asrwt>0</asrwt>
<pdfrwt beam="1">  1       21 0.89212470E-02 0.18742867E+03</pdfrwt>
<pdfrwt beam="2">  1       21 0.99606115E-01 0.18742867E+03</pdfrwt>
<totfact> 0.82391115E+04</totfact>
</mgrwt>
</event>
<event>
 4    1  0.3980289E+000  0.2110365E+03  0.7546771E-02  0.1140748E+00
         21   -1    0    0  501  502  0.00000000000E+00  0.00000000000E+00  0.86571505295E+02  0.86571505295E+02  0.00000000000E+00 0. -1.
         21   -1    0    0  502  503 -0.00000000000E+00 -0.00000000000E+00 -0.10696328901E+04  0.10696328901E+04  0.00000000000E+00 0.  1.
          6    1    1    2  501    0 -0.93070446049E+02  0.77105740837E+02 -0.75038683691E+02  0.22398037246E+03  0.17300000000E+03 0. -1.
         -6    1    1    2    0  503  0.93070446049E+02 -0.77105740837E+02 -0.90802270115E+03  0.93222402297E+03  0.17300000000E+03 0.  1.
<mgrwt>
<rscale>  2 0.21103650E+03</rscale>
<asrwt>0</asrwt>
<pdfrwt beam="1">  1       21 0.13318694E-01 0.21103650E+03</pdfrwt>
<pdfrwt beam="2">  1       21 0.16455890E+00 0.21103650E+03</pdfrwt>
<totfact> 0.11193973E+04</totfact>
</mgrwt>
</event>
<event>
 4    1  0.3980289E+000  0.2269523E+03  0.7546771E-02  0.1128803E+00
         21   -1    0    0  503  502  0.00000000000E+00  0.00000000000E+00  0.38130051102E+03  0.38130051102E+03  0.00000000000E+00 0.  1.
         21   -1    0    0  501  503 -0.00000000000E+00 -0.00000000000E+00 -0.13538023812E+03  0.13538023812E+03  0.00000000000E+00 0.  1.
          6    1    1    2  501    0  0.11876218542E+03  0.86451681484E+02  0.11086218162E+03  0.25258221083E+03  0.17300000000E+03 0.  1.
         -6    1    1    2    0  502 -0.11876218542E+03 -0.86451681484E+02  0.13505809128E+03  0.26409853831E+03  0.17300000000E+03 0.  1.
<mgrwt>
<rscale>  2 0.22695231E+03</rscale>
<asrwt>0</asrwt>
<pdfrwt beam="1">  1       21 0.58661617E-01 0.22695231E+03</pdfrwt>
<pdfrwt beam="2">  1       21 0.20827729E-01 0.22695231E+03</pdfrwt>
<totfact> 0.57288278E+04</totfact>
</mgrwt>
</event>
<event>
 4    1  0.3980289E+000  0.2206561E+03  0.7546771E-02  0.1133395E+00
         21   -1    0    0  501  502  0.00000000000E+00  0.00000000000E+00  0.36709966580E+03  0.36709966580E+03  0.00000000000E+00 0.  1.
         21   -1    0    0  502  503 -0.00000000000E+00 -0.00000000000E+00 -0.13263701925E+03  0.13263701925E+03  0.00000000000E+00 0.  1.
          6    1    1    2  501    0 -0.13609970296E+03 -0.15394835210E+02  0.11878202098E+03  0.25059588704E+03  0.17300000000E+03 0.  1.
         -6    1    1    2    0  503  0.13609970296E+03  0.15394835210E+02  0.11568062558E+03  0.24914079801E+03  0.17300000000E+03 0.  1.
<mgrwt>
<rscale>  2 0.22065614E+03</rscale>
<asrwt>0</asrwt>
<pdfrwt beam="1">  1       21 0.56476871E-01 0.22065614E+03</pdfrwt>
<pdfrwt beam="2">  1       21 0.20405695E-01 0.22065614E+03</pdfrwt>
<totfact> 0.64745943E+04</totfact>
</mgrwt>
</event>
<event>
 4    1  0.3980289E+000  0.3110140E+03  0.7546771E-02  0.1079861E+00
         21   -1    0    0  503  502  0.00000000000E+00  0.00000000000E+00  0.13293425930E+03  0.13293425930E+03  0.00000000000E+00 0.  1.
         21   -1    0    0  501  503 -0.00000000000E+00 -0.00000000000E+00 -0.76095252043E+03  0.76095252043E+03  0.00000000000E+00 0.  1.
          6    1    1    2  501    0  0.11937265038E+03 -0.22923973203E+03 -0.40750853110E+03  0.51263328736E+03  0.17300000000E+03 0.  1.
         -6    1    1    2    0  502 -0.11937265038E+03  0.22923973203E+03 -0.22050973004E+03  0.38125349236E+03  0.17300000000E+03 0.  1.
<mgrwt>
<rscale>  2 0.31101396E+03</rscale>
<asrwt>0</asrwt>
<pdfrwt beam="1">  1       21 0.20451425E-01 0.31101396E+03</pdfrwt>
<pdfrwt beam="2">  1       21 0.11706962E+00 0.31101396E+03</pdfrwt>
<totfact> 0.11628091E+04</totfact>
</mgrwt>
</event>
<event>
 4    1  0.3980289E+000  0.2906966E+03  0.7546771E-02  0.1089986E+00
         21   -1    0    0  503  502  0.00000000000E+00  0.00000000000E+00  0.17415822272E+03  0.17415822272E+03  0.00000000000E+00 0.  1.
         21   -1    0    0  501  503 -0.00000000000E+00 -0.00000000000E+00 -0.48880916886E+03  0.48880916886E+03  0.00000000000E+00 0.  1.
          6    1    1    2  501    0 -0.16510214464E+03 -0.16527795321E+03 -0.18574222732E+03  0.34497057120E+03  0.17300000000E+03 0.  1.
         -6    1    1    2    0  502  0.16510214464E+03  0.16527795321E+03 -0.12890871883E+03  0.31799682038E+03  0.17300000000E+03 0.  1.
<mgrwt>
<rscale>  2 0.29069661E+03</rscale>
<asrwt>0</asrwt>
<pdfrwt beam="1">  1       21 0.26793573E-01 0.29069661E+03</pdfrwt>
<pdfrwt beam="2">  1       21 0.75201410E-01 0.29069661E+03</pdfrwt>
<totfact> 0.19945299E+04</totfact>
</mgrwt>
</event>
<event>
 4    1  0.3980289E+000  0.2246688E+03  0.7546771E-02  0.1130449E+00
         21   -1    0    0  503  502  0.00000000000E+00  0.00000000000E+00  0.10539618156E+03  0.10539618156E+03  0.00000000000E+00 0. -1.
         21   -1    0    0  501  503 -0.00000000000E+00 -0.00000000000E+00 -0.52492202293E+03  0.52492202293E+03  0.00000000000E+00 0.  1.
          6    1    1    2  501    0 -0.94397928275E+02 -0.10787078584E+03 -0.30306315730E+03  0.37725767403E+03  0.17300000000E+03 0.  1.
         -6    1    1    2    0  502  0.94397928275E+02  0.10787078584E+03 -0.11646268407E+03  0.25306053047E+03  0.17300000000E+03 0.  1.
<mgrwt>
<rscale>  2 0.22466881E+03</rscale>
<asrwt>0</asrwt>
<pdfrwt beam="1">  1       21 0.16214797E-01 0.22466881E+03</pdfrwt>
<pdfrwt beam="2">  1       21 0.80757235E-01 0.22466881E+03</pdfrwt>
<totfact> 0.45095170E+04</totfact>
</mgrwt>
</event>
<event>
 4    1  0.3980289E+000  0.1903936E+03  0.7546771E-02  0.1158107E+00
         21   -1    0    0  501  502  0.00000000000E+00  0.00000000000E+00  0.41290021791E+03  0.41290021791E+03  0.00000000000E+00 0.  1.
         21   -1    0    0  502  503 -0.00000000000E+00 -0.00000000000E+00 -0.90700019995E+02  0.90700019995E+02  0.00000000000E+00 0.  1.
          6    1    1    2  501    0  0.63921384369E+01 -0.79245500713E+02  0.20618005540E+03  0.28064198556E+03  0.17300000000E+03 0.  1.
         -6    1    1    2    0  503 -0.63921384369E+01  0.79245500713E+02  0.11602014251E+03  0.22295825234E+03  0.17300000000E+03 0.  1.
<mgrwt>
<rscale>  2 0.19039356E+03</rscale>
<asrwt>0</asrwt>
<pdfrwt beam="1">  1       21 0.63523109E-01 0.19039356E+03</pdfrwt>
<pdfrwt beam="2">  1       21 0.13953849E-01 0.19039356E+03</pdfrwt>
<totfact> 0.10257211E+05</totfact>
</mgrwt>
</event>
<event>
 4    1  0.3980289E+000  0.2086728E+03  0.7546771E-02  0.1142621E+00
         21   -1    0    0  501  502  0.00000000000E+00  0.00000000000E+00  0.25852084085E+03  0.25852084085E+03  0.00000000000E+00 0.  1.
         21   -1    0    0  502  503 -0.00000000000E+00 -0.00000000000E+00 -0.44844532748E+03  0.44844532748E+03  0.00000000000E+00 0.  1.
          6    1    1    2  501    0  0.10405598988E+03 -0.52798437718E+02  0.18435632678E+03  0.27844493042E+03  0.17300000000E+03 0.  1.
         -6    1    1    2    0  503 -0.10405598988E+03  0.52798437718E+02 -0.37428081340E+03  0.42852123790E+03  0.17300000000E+03 0.  1.
<mgrwt>
<rscale>  2 0.20867277E+03</rscale>
<asrwt>0</asrwt>
<pdfrwt beam="1">  1       21 0.39772437E-01 0.20867277E+03</pdfrwt>
<pdfrwt beam="2">  1       21 0.68991589E-01 0.20867277E+03</pdfrwt>
<totfact> 0.11533243E+04</totfact>
</mgrwt>
</event>
<event>
 4    1  0.3980289E+000  0.2313821E+03  0.7546771E-02  0.1125671E+00
         21   -1    0    0  501  502  0.00000000000E+00  0.00000000000E+00  0.13307458047E+03  0.13307458047E+03  0.00000000000E+00 0. -1.
         21   -1    0    0  502  503 -0.00000000000E+00 -0.00000000000E+00 -0.58016966040E+03  0.58016966040E+03  0.00000000000E+00 0.  1.
          6    1    1    2  501    0 -0.14703505217E+03  0.44602446708E+02 -0.26093797959E+02  0.23284881600E+03  0.17300000000E+03 0. -1.
         -6    1    1    2    0  503  0.14703505217E+03 -0.44602446708E+02 -0.42100128197E+03  0.48039542487E+03  0.17300000000E+03 0.  1.
<mgrwt>
<rscale>  2 0.23138212E+03</rscale>
<asrwt>0</asrwt>
<pdfrwt beam="1">  1       21 0.20473013E-01 0.23138212E+03</pdfrwt>
<pdfrwt beam="2">  1       21 0.89256868E-01 0.23138212E+03</pdfrwt>
<totfact> 0.23150701E+04</totfact>
</mgrwt>
</event>
<event>
 4    1  0.3980289E+000  0.2247599E+03  0.7546771E-02  0.1130383E+00
         21   -1    0    0  501  502  0.00000000000E+00  0.00000000000E+00  0.28135318656E+03  0.28135318656E+03  0.00000000000E+00 0. -1.
         21   -1    0    0  502  503 -0.00000000000E+00 -0.00000000000E+00 -0.69692270814E+03  0.69692270814E+03  0.00000000000E+00 0. -1.
          6    1    1    2  501    0 -0.13970760133E+03 -0.32707508994E+02  0.21366009915E+03  0.31010906627E+03  0.17300000000E+03 0. -1.
         -6    1    1    2    0  503  0.13970760133E+03  0.32707508994E+02 -0.62922962073E+03  0.66816682843E+03  0.17300000000E+03 0. -1.
<mgrwt>
<rscale>  2 0.22475986E+03</rscale>
<asrwt>0</asrwt>
<pdfrwt beam="1">  1       21 0.43285105E-01 0.22475986E+03</pdfrwt>
<pdfrwt beam="2">  1       21 0.10721888E+00 0.22475986E+03</pdfrwt>
<totfact> 0.34741118E+03</totfact>
</mgrwt>
</event>
<event>
 4    1  0.3980289E+000  0.2012768E+03  0.7546771E-02  0.1148666E+00
         21   -1    0    0  501  502  0.00000000000E+00  0.00000000000E+00  0.52127825997E+02  0.52127825997E+02  0.00000000000E+00 0.  1.
         21   -1    0    0  502  503 -0.00000000000E+00 -0.00000000000E+00 -0.77801775493E+03  0.77801775493E+03  0.00000000000E+00 0.  1.
          6    1    1    2  501    0  0.11141477644E+02 -0.10227040897E+03 -0.34927252209E+03  0.40311743172E+03  0.17300000000E+03 0.  1.
         -6    1    1    2    0  503 -0.11141477644E+02  0.10227040897E+03 -0.37661740685E+03  0.42702814921E+03  0.17300000000E+03 0.  1.
<mgrwt>
<rscale>  2 0.20127685E+03</rscale>
<asrwt>0</asrwt>
<pdfrwt beam="1">  1       21 0.80196658E-02 0.20127685E+03</pdfrwt>
<pdfrwt beam="2">  1       21 0.11969504E+00 0.20127685E+03</pdfrwt>
<totfact> 0.63226428E+04</totfact>
</mgrwt>
</event>
<event>
 4    1  0.3980289E+000  0.1935762E+03  0.7546771E-02  0.1155275E+00
         21   -1    0    0  501  502  0.00000000000E+00  0.00000000000E+00  0.21508778476E+04  0.21508778476E+04  0.00000000000E+00 0.  1.
         21   -1    0    0  502  503 -0.00000000000E+00 -0.00000000000E+00 -0.21786102105E+02  0.21786102105E+02  0.00000000000E+00 0. -1.
          6    1    1    2  501    0  0.81997100669E+02  0.28622302415E+02  0.15507733747E+04  0.15628083121E+04  0.17300000000E+03 0. -1.
         -6    1    1    2    0  503 -0.81997100669E+02 -0.28622302415E+02  0.57831837087E+03  0.60985563767E+03  0.17300000000E+03 0. -1.
<mgrwt>
<rscale>  2 0.19357624E+03</rscale>
<asrwt>0</asrwt>
<pdfrwt beam="1">  1       21 0.33090412E+00 0.19357624E+03</pdfrwt>
<pdfrwt beam="2">  1       21 0.33517097E-02 0.19357624E+03</pdfrwt>
<totfact> 0.11897301E+04</totfact>
</mgrwt>
</event>
<event>
 4    1  0.3980289E+000  0.1979549E+03  0.7546771E-02  0.1151476E+00
         21   -1    0    0  501  502  0.00000000000E+00  0.00000000000E+00  0.19481400141E+03  0.19481400141E+03  0.00000000000E+00 0. -1.
         21   -1    0    0  502  503 -0.00000000000E+00 -0.00000000000E+00 -0.24641310860E+03  0.24641310860E+03  0.00000000000E+00 0.  1.
          6    1    1    2  501    0 -0.95978807681E+02  0.67225256549E+01  0.68756649155E+02  0.20955572213E+03  0.17300000000E+03 0. -1.
         -6    1    1    2    0  503  0.95978807681E+02 -0.67225256549E+01 -0.12035575635E+03  0.23167138788E+03  0.17300000000E+03 0.  1.
<mgrwt>
<rscale>  2 0.19795485E+03</rscale>
<asrwt>0</asrwt>
<pdfrwt beam="1">  1       21 0.29971385E-01 0.19795485E+03</pdfrwt>
<pdfrwt beam="2">  1       21 0.37909709E-01 0.19795485E+03</pdfrwt>
<totfact> 0.71474572E+04</totfact>
</mgrwt>
</event>
<event>
 4    1  0.3980289E+000  0.2631164E+03  0.7546771E-02  0.1105285E+00
         21   -1    0    0  503  502  0.00000000000E+00  0.00000000000E+00  0.35643721782E+03  0.35643721782E+03  0.00000000000E+00 0. -1.
         21   -1    0    0  501  503 -0.00000000000E+00 -0.00000000000E+00 -0.19771330448E+03  0.19771330448E+03  0.00000000000E+00 0. -1.
          6    1    1    2  501    0 -0.18552632158E+03  0.69865889817E+02  0.42576992183E+02  0.26653903808E+03  0.17300000000E+03 0. -1.
         -6    1    1    2    0  502  0.18552632158E+03 -0.69865889817E+02  0.11614692116E+03  0.28761148421E+03  0.17300000000E+03 0. -1.
<mgrwt>
<rscale>  2 0.26311644E+03</rscale>
<asrwt>0</asrwt>
<pdfrwt beam="1">  1       21 0.54836495E-01 0.26311644E+03</pdfrwt>
<pdfrwt beam="2">  1       21 0.30417431E-01 0.26311644E+03</pdfrwt>
<totfact> 0.31470677E+04</totfact>
</mgrwt>
</event>
<event>
 4    1  0.3980289E+000  0.2286416E+03  0.7546771E-02  0.1127600E+00
         21   -1    0    0  501  502  0.00000000000E+00  0.00000000000E+00  0.69099009234E+03  0.69099009234E+03  0.00000000000E+00 0.  1.
         21   -1    0    0  502  503 -0.00000000000E+00 -0.00000000000E+00 -0.13163076182E+03  0.13163076182E+03  0.00000000000E+00 0. -1.
          6    1    1    2  501    0  0.28867349775E+02 -0.14667876061E+03  0.54789914391E+03  0.59369222211E+03  0.17300000000E+03 0.  1.
         -6    1    1    2    0  503 -0.28867349775E+02  0.14667876061E+03  0.11460186613E+02  0.22892863205E+03  0.17300000000E+03 0. -1.
<mgrwt>
<rscale>  2 0.22864160E+03</rscale>
<asrwt>0</asrwt>
<pdfrwt beam="1">  1       21 0.10630617E+00 0.22864160E+03</pdfrwt>
<pdfrwt beam="2">  1       21 0.20250887E-01 0.22864160E+03</pdfrwt>
<totfact> 0.15638714E+04</totfact>
</mgrwt>
</event>
<event>
 4    1  0.3980289E+000  0.1923138E+03  0.7546771E-02  0.1156391E+00
         21   -1    0    0  501  502  0.00000000000E+00  0.00000000000E+00  0.95643767185E+02  0.95643767185E+02  0.00000000000E+00 0. -1.
         21   -1    0    0  502  503 -0.00000000000E+00 -0.00000000000E+00 -0.61475277095E+03  0.61475277095E+03  0.00000000000E+00 0.  1.
          6    1    1    2  501    0 -0.76310481653E+02  0.35104205497E+02 -0.43209567344E+02  0.19710824834E+03  0.17300000000E+03 0. -1.
         -6    1    1    2    0  503  0.76310481653E+02 -0.35104205497E+02 -0.47589943642E+03  0.51328828979E+03  0.17300000000E+03 0.  1.
<mgrwt>
<rscale>  2 0.19231379E+03</rscale>
<asrwt>0</asrwt>
<pdfrwt beam="1">  1       21 0.14714425E-01 0.19231379E+03</pdfrwt>
<pdfrwt beam="2">  1       21 0.94577352E-01 0.19231379E+03</pdfrwt>
<totfact> 0.38035940E+04</totfact>
</mgrwt>
</event>
<event>
 4    1  0.3980289E+000  0.1995186E+03  0.7546771E-02  0.1150146E+00
         21   -1    0    0  501  502  0.00000000000E+00  0.00000000000E+00  0.10331814980E+03  0.10331814980E+03  0.00000000000E+00 0.  1.
         21   -1    0    0  502  503 -0.00000000000E+00 -0.00000000000E+00 -0.38991790761E+03  0.38991790761E+03  0.00000000000E+00 0. -1.
          6    1    1    2  501    0 -0.76182186848E+02  0.63835281492E+02 -0.11643832244E+03  0.23100985193E+03  0.17300000000E+03 0.  1.
         -6    1    1    2    0  503  0.76182186848E+02 -0.63835281492E+02 -0.17016143537E+03  0.26222620548E+03  0.17300000000E+03 0.  1.
<mgrwt>
<rscale>  2 0.19951859E+03</rscale>
<asrwt>0</asrwt>
<pdfrwt beam="1">  1       21 0.15895100E-01 0.19951859E+03</pdfrwt>
<pdfrwt beam="2">  1       21 0.59987371E-01 0.19951859E+03</pdfrwt>
<totfact> 0.91223027E+04</totfact>
</mgrwt>
</event>
<event>
 4    1  0.3980289E+000  0.1919675E+03  0.7546771E-02  0.1156699E+00
         21   -1    0    0  501  502  0.00000000000E+00  0.00000000000E+00  0.24286134888E+03  0.24286134888E+03  0.00000000000E+00 0. -1.
         21   -1    0    0  502  503 -0.00000000000E+00 -0.00000000000E+00 -0.31437572040E+03  0.31437572040E+03  0.00000000000E+00 0. -1.
          6    1    1    2  501    0 -0.83722339500E+01  0.82779292292E+02  0.16464155521E+03  0.25289987591E+03  0.17300000000E+03 0. -1.
         -6    1    1    2    0  503  0.83722339500E+01 -0.82779292292E+02 -0.23615592674E+03  0.30433719337E+03  0.17300000000E+03 0. -1.
<mgrwt>
<rscale>  2 0.19196746E+03</rscale>
<asrwt>0</asrwt>
<pdfrwt beam="1">  1       21 0.37363285E-01 0.19196746E+03</pdfrwt>
<pdfrwt beam="2">  1       21 0.48365495E-01 0.19196746E+03</pdfrwt>
<totfact> 0.28220786E+04</totfact>
</mgrwt>
</event>
<event>
 4    1  0.3980289E+000  0.2079650E+03  0.7546771E-02  0.1143188E+00
         21   -1    0    0  501  502  0.00000000000E+00  0.00000000000E+00  0.18008359988E+03  0.18008359988E+03  0.00000000000E+00 0.  1.
         21   -1    0    0  502  503 -0.00000000000E+00 -0.00000000000E+00 -0.76219374119E+03  0.76219374119E+03  0.00000000000E+00 0.  1.
          6    1    1    2  501    0  0.11541289805E+03  0.54448216827E+00  0.98854652642E+02  0.23026436078E+03  0.17300000000E+03 0.  1.
         -6    1    1    2    0  503 -0.11541289805E+03 -0.54448216827E+00 -0.68096479395E+03  0.71201298029E+03  0.17300000000E+03 0.  1.
<mgrwt>
<rscale>  2 0.20796498E+03</rscale>
<asrwt>0</asrwt>
<pdfrwt beam="1">  1       21 0.27705169E-01 0.20796498E+03</pdfrwt>
<pdfrwt beam="2">  1       21 0.11726058E+00 0.20796498E+03</pdfrwt>
<totfact> 0.68717051E+03</totfact>
</mgrwt>
</event>
<event>
 4    1  0.3980289E+000  0.2306412E+03  0.7546771E-02  0.1126189E+00
         21   -1    0    0  503  502  0.00000000000E+00  0.00000000000E+00  0.42235867050E+02  0.42235867050E+02  0.00000000000E+00 0.  1.
         21   -1    0    0  501  503 -0.00000000000E+00 -0.00000000000E+00 -0.20701846004E+04  0.20701846004E+04  0.00000000000E+00 0. -1.
          6    1    1    2  501    0 -0.12142898285E+02 -0.15204909383E+03 -0.16749359534E+04  0.16907412058E+04  0.17300000000E+03 0. -1.
         -6    1    1    2    0  502  0.12142898285E+02  0.15204909383E+03 -0.35301277991E+03  0.42167926163E+03  0.17300000000E+03 0.  1.
<mgrwt>
<rscale>  2 0.23064123E+03</rscale>
<asrwt>0</asrwt>
<pdfrwt beam="1">  1       21 0.64978239E-02 0.23064123E+03</pdfrwt>
<pdfrwt beam="2">  1       21 0.31849002E+00 0.23064123E+03</pdfrwt>
<totfact> 0.43999052E+03</totfact>
</mgrwt>
</event>
<event>
 4    1  0.3980289E+000  0.1789463E+03  0.7546771E-02  0.1168827E+00
         21   -1    0    0  503  502  0.00000000000E+00  0.00000000000E+00  0.14388308640E+04  0.14388308640E+04  0.00000000000E+00 0.  1.
         21   -1    0    0  501  503 -0.00000000000E+00 -0.00000000000E+00 -0.25124592741E+02  0.25124592741E+02  0.00000000000E+00 0.  1.
          6    1    1    2  501    0 -0.44016082255E+02 -0.12464405105E+02  0.45949446621E+03  0.49310946185E+03  0.17300000000E+03 0.  1.
         -6    1    1    2    0  502  0.44016082255E+02  0.12464405105E+02  0.95421180500E+03  0.97084599484E+03  0.17300000000E+03 0.  1.
<mgrwt>
<rscale>  2 0.17894630E+03</rscale>
<asrwt>0</asrwt>
<pdfrwt beam="1">  1       21 0.22135853E+00 0.17894630E+03</pdfrwt>
<pdfrwt beam="2">  1       21 0.38653231E-02 0.17894630E+03</pdfrwt>
<totfact> 0.41368938E+04</totfact>
</mgrwt>
</event>
<event>
 4    1  0.3980289E+000  0.1998731E+03  0.7546771E-02  0.1149846E+00
         21   -1    0    0  503  502  0.00000000000E+00  0.00000000000E+00  0.17808716153E+03  0.17808716153E+03  0.00000000000E+00 0. -1.
         21   -1    0    0  501  503 -0.00000000000E+00 -0.00000000000E+00 -0.24538802280E+03  0.24538802280E+03  0.00000000000E+00 0. -1.
          6    1    1    2  501    0  0.85753495513E+02  0.51639220753E+02 -0.95685781751E+02  0.22159657024E+03  0.17300000000E+03 0. -1.
         -6    1    1    2    0  502 -0.85753495513E+02 -0.51639220753E+02  0.28384920482E+02  0.20187861408E+03  0.17300000000E+03 0. -1.
<mgrwt>
<rscale>  2 0.19987314E+03</rscale>
<asrwt>0</asrwt>
<pdfrwt beam="1">  1       21 0.27398025E-01 0.19987314E+03</pdfrwt>
<pdfrwt beam="2">  1       21 0.37752004E-01 0.19987314E+03</pdfrwt>
<totfact> 0.85717542E+04</totfact>
</mgrwt>
</event>
<event>
 4    1  0.3980289E+000  0.2260079E+03  0.7546771E-02  0.1129482E+00
         21   -1    0    0  501  502  0.00000000000E+00  0.00000000000E+00  0.17788948846E+03  0.17788948846E+03  0.00000000000E+00 0. -1.
         21   -1    0    0  502  503 -0.00000000000E+00 -0.00000000000E+00 -0.41907575976E+03  0.41907575976E+03  0.00000000000E+00 0. -1.
          6    1    1    2  501    0  0.14440927387E+03 -0.17220093500E+02  0.46882065405E+02  0.23081918910E+03  0.17300000000E+03 0. -1.
         -6    1    1    2    0  503 -0.14440927387E+03  0.17220093500E+02 -0.28806833671E+03  0.36614605912E+03  0.17300000000E+03 0. -1.
<mgrwt>
<rscale>  2 0.22600790E+03</rscale>
<asrwt>0</asrwt>
<pdfrwt beam="1">  1       21 0.27367614E-01 0.22600790E+03</pdfrwt>
<pdfrwt beam="2">  1       21 0.64473193E-01 0.22600790E+03</pdfrwt>
<totfact> 0.27743320E+04</totfact>
</mgrwt>
</event>
<event>
 4    1  0.3980289E+000  0.1774379E+03  0.7546771E-02  0.1170306E+00
         21   -1    0    0  503  502  0.00000000000E+00  0.00000000000E+00  0.33818077597E+02  0.33818077597E+02  0.00000000000E+00 0. -1.
         21   -1    0    0  501  503 -0.00000000000E+00 -0.00000000000E+00 -0.93259838984E+03  0.93259838984E+03  0.00000000000E+00 0. -1.
          6    1    1    2  501    0  0.18428019069E+02 -0.34865876792E+02 -0.42931008890E+03  0.46453350114E+03  0.17300000000E+03 0. -1.
         -6    1    1    2    0  502 -0.18428019069E+02  0.34865876792E+02 -0.46947022334E+03  0.50188296629E+03  0.17300000000E+03 0. -1.
<mgrwt>
<rscale>  2 0.17743794E+03</rscale>
<asrwt>0</asrwt>
<pdfrwt beam="1">  1       21 0.52027817E-02 0.17743794E+03</pdfrwt>
<pdfrwt beam="2">  1       21 0.14347666E+00 0.17743794E+03</pdfrwt>
<totfact> 0.85057859E+04</totfact>
</mgrwt>
</event>
<event>
 4    1  0.3980289E+000  0.3520775E+03  0.7546771E-02  0.1061766E+00
         21   -1    0    0  503  502  0.00000000000E+00  0.00000000000E+00  0.10269699951E+04  0.10269699951E+04  0.00000000000E+00 0. -1.
         21   -1    0    0  501  503 -0.00000000000E+00 -0.00000000000E+00 -0.15485989680E+03  0.15485989680E+03  0.00000000000E+00 0.  1.
          6    1    1    2  501    0 -0.30000459895E+03 -0.63456977272E+02  0.15853553170E+03  0.38612441281E+03  0.17300000000E+03 0.  1.
         -6    1    1    2    0  502  0.30000459895E+03  0.63456977272E+02  0.71357456655E+03  0.79570547904E+03  0.17300000000E+03 0. -1.
<mgrwt>
<rscale>  2 0.35207747E+03</rscale>
<asrwt>0</asrwt>
<pdfrwt beam="1">  1       21 0.15799538E+00 0.35207747E+03</pdfrwt>
<pdfrwt beam="2">  1       21 0.23824600E-01 0.35207747E+03</pdfrwt>
<totfact> 0.38965081E+03</totfact>
</mgrwt>
</event>
<event>
 4    1  0.3980289E+000  0.1865117E+03  0.7546771E-02  0.1161646E+00
         21   -1    0    0  503  502  0.00000000000E+00  0.00000000000E+00  0.32788292617E+03  0.32788292617E+03  0.00000000000E+00 0. -1.
         21   -1    0    0  501  503 -0.00000000000E+00 -0.00000000000E+00 -0.11282443716E+03  0.11282443716E+03  0.00000000000E+00 0. -1.
          6    1    1    2  501    0 -0.46264584230E+02  0.52126689675E+02  0.53712003282E+02  0.19409168665E+03  0.17300000000E+03 0. -1.
         -6    1    1    2    0  502  0.46264584230E+02 -0.52126689675E+02  0.16134648572E+03  0.24661567668E+03  0.17300000000E+03 0. -1.
<mgrwt>
<rscale>  2 0.18651167E+03</rscale>
<asrwt>0</asrwt>
<pdfrwt beam="1">  1       21 0.50443527E-01 0.18651167E+03</pdfrwt>
<pdfrwt beam="2">  1       21 0.17357606E-01 0.18651167E+03</pdfrwt>
<totfact> 0.11256469E+05</totfact>
</mgrwt>
</event>
<event>
 4    1  0.3980289E+000  0.2210602E+03  0.7546771E-02  0.1133095E+00
         21   -1    0    0  501  502  0.00000000000E+00  0.00000000000E+00  0.21729159369E+03  0.21729159369E+03  0.00000000000E+00 0. -1.
         21   -1    0    0  502  503 -0.00000000000E+00 -0.00000000000E+00 -0.81151979888E+03  0.81151979888E+03  0.00000000000E+00 0.  1.
          6    1    1    2  501    0  0.10298784749E+03  0.91280533548E+02  0.14024351143E+03  0.26179357332E+03  0.17300000000E+03 0. -1.
         -6    1    1    2    0  503 -0.10298784749E+03 -0.91280533548E+02 -0.73447171661E+03  0.76701781925E+03  0.17300000000E+03 0.  1.
<mgrwt>
<rscale>  2 0.22106025E+03</rscale>
<asrwt>0</asrwt>
<pdfrwt beam="1">  1       21 0.33429476E-01 0.22106025E+03</pdfrwt>
<pdfrwt beam="2">  1       21 0.12484920E+00 0.22106025E+03</pdfrwt>
<totfact> 0.40300451E+03</totfact>
</mgrwt>
</event>
<event>
 4    1  0.3980289E+000  0.2199585E+03  0.7546771E-02  0.1133914E+00
         21   -1    0    0  501  502  0.00000000000E+00  0.00000000000E+00  0.47357870875E+02  0.47357870875E+02  0.00000000000E+00 0.  1.
         21   -1    0    0  502  503 -0.00000000000E+00 -0.00000000000E+00 -0.17026872047E+04  0.17026872047E+04  0.00000000000E+00 0.  1.
          6    1    1    2  501    0  0.11932320471E+03  0.64920984756E+02 -0.27425505629E+03  0.35156449955E+03  0.17300000000E+03 0.  1.
         -6    1    1    2    0  503 -0.11932320471E+03 -0.64920984756E+02 -0.13810742775E+04  0.13984805760E+04  0.17300000000E+03 0.  1.
<mgrwt>
<rscale>  2 0.21995854E+03</rscale>
<asrwt>0</asrwt>
<pdfrwt beam="1">  1       21 0.72858256E-02 0.21995854E+03</pdfrwt>
<pdfrwt beam="2">  1       21 0.26195190E+00 0.21995854E+03</pdfrwt>
<totfact> 0.77826172E+03</totfact>
</mgrwt>
</event>
<event>
 4    1  0.3980289E+000  0.1972729E+03  0.7546771E-02  0.1152060E+00
         21   -1    0    0  501  502  0.00000000000E+00  0.00000000000E+00  0.87601307291E+02  0.87601307291E+02  0.00000000000E+00 0.  1.
         21   -1    0    0  502  503 -0.00000000000E+00 -0.00000000000E+00 -0.72279247222E+03  0.72279247222E+03  0.00000000000E+00 0.  1.
          6    1    1    2  501    0  0.82630353553E+01  0.94442155482E+02 -0.66055315389E+02  0.20803822528E+03  0.17300000000E+03 0.  1.
         -6    1    1    2    0  503 -0.82630353553E+01 -0.94442155482E+02 -0.56913584954E+03  0.60235555424E+03  0.17300000000E+03 0.  1.
<mgrwt>
<rscale>  2 0.19727290E+03</rscale>
<asrwt>0</asrwt>
<pdfrwt beam="1">  1       21 0.13477124E-01 0.19727290E+03</pdfrwt>
<pdfrwt beam="2">  1       21 0.11119884E+00 0.19727290E+03</pdfrwt>
<totfact> 0.30221566E+04</totfact>
</mgrwt>
</event>
<event>
 4    1  0.3980289E+000  0.1915204E+03  0.7546771E-02  0.1157097E+00
         21   -1    0    0  501  502  0.00000000000E+00  0.00000000000E+00  0.46295859435E+03  0.46295859435E+03  0.00000000000E+00 0.  1.
         21   -1    0    0  502  503 -0.00000000000E+00 -0.00000000000E+00 -0.12013817814E+03  0.12013817814E+03  0.00000000000E+00 0.  1.
          6    1    1    2  501    0  0.74723327814E+01 -0.81824391271E+02  0.34153861140E+03  0.39157207490E+03  0.17300000000E+03 0.  1.
         -6    1    1    2    0  503 -0.74723327814E+01  0.81824391271E+02  0.12818048082E+01  0.19152469759E+03  0.17300000000E+03 0.  1.
<mgrwt>
<rscale>  2 0.19152041E+03</rscale>
<asrwt>0</asrwt>
<pdfrwt beam="1">  1       21 0.71224398E-01 0.19152041E+03</pdfrwt>
<pdfrwt beam="2">  1       21 0.18482797E-01 0.19152041E+03</pdfrwt>
<totfact> 0.47701623E+04</totfact>
</mgrwt>
</event>
<event>
 4    1  0.3980289E+000  0.2105946E+03  0.7546771E-02  0.1141096E+00
         21   -1    0    0  501  502  0.00000000000E+00  0.00000000000E+00  0.36104089574E+03  0.36104089574E+03  0.00000000000E+00 0. -1.
         21   -1    0    0  502  503 -0.00000000000E+00 -0.00000000000E+00 -0.18250165810E+03  0.18250165810E+03  0.00000000000E+00 0. -1.
          6    1    1    2  501    0  0.11709354593E+03 -0.26649498338E+02  0.24465834789E+03  0.32281233163E+03  0.17300000000E+03 0. -1.
         -6    1    1    2    0  503 -0.11709354593E+03  0.26649498338E+02 -0.66119110252E+02  0.22073022222E+03  0.17300000000E+03 0. -1.
<mgrwt>
<rscale>  2 0.21059462E+03</rscale>
<asrwt>0</asrwt>
<pdfrwt beam="1">  1       21 0.55544753E-01 0.21059462E+03</pdfrwt>
<pdfrwt beam="2">  1       21 0.28077178E-01 0.21059462E+03</pdfrwt>
<totfact> 0.36675462E+04</totfact>
</mgrwt>
</event>
<event>
 4    1  0.3980289E+000  0.2232250E+03  0.7546771E-02  0.1131501E+00
         21   -1    0    0  501  502  0.00000000000E+00  0.00000000000E+00  0.54768868718E+03  0.54768868718E+03  0.00000000000E+00 0. -1.
         21   -1    0    0  502  503 -0.00000000000E+00 -0.00000000000E+00 -0.14656168317E+03  0.14656168317E+03  0.00000000000E+00 0.  1.
          6    1    1    2  501    0 -0.12086040313E+03  0.72754251658E+02  0.41432857436E+03  0.47063530011E+03  0.17300000000E+03 0. -1.
         -6    1    1    2    0  503  0.12086040313E+03 -0.72754251658E+02 -0.13201570345E+02  0.22361507024E+03  0.17300000000E+03 0.  1.
<mgrwt>
<rscale>  2 0.22322504E+03</rscale>
<asrwt>0</asrwt>
<pdfrwt beam="1">  1       21 0.84259797E-01 0.22322504E+03</pdfrwt>
<pdfrwt beam="2">  1       21 0.22547951E-01 0.22322504E+03</pdfrwt>
<totfact> 0.22132758E+04</totfact>
</mgrwt>
</event>
<event>
 4    1  0.3980289E+000  0.2435534E+03  0.7546771E-02  0.1117448E+00
         21   -1    0    0  501  502  0.00000000000E+00  0.00000000000E+00  0.34418549734E+03  0.34418549734E+03  0.00000000000E+00 0.  1.
         21   -1    0    0  502  503 -0.00000000000E+00 -0.00000000000E+00 -0.26375296987E+03  0.26375296987E+03  0.00000000000E+00 0. -1.
          6    1    1    2  501    0 -0.38308264495E+02 -0.16709801302E+03  0.21916375200E+03  0.32764465397E+03  0.17300000000E+03 0.  1.
         -6    1    1    2    0  503  0.38308264495E+02  0.16709801302E+03 -0.13873122453E+03  0.28029381325E+03  0.17300000000E+03 0. -1.
<mgrwt>
<rscale>  2 0.24355342E+03</rscale>
<asrwt>0</asrwt>
<pdfrwt beam="1">  1       21 0.52951615E-01 0.24355342E+03</pdfrwt>
<pdfrwt beam="2">  1       21 0.40577380E-01 0.24355342E+03</pdfrwt>
<totfact> 0.19219881E+04</totfact>
</mgrwt>
</event>
<event>
 4    1  0.3980289E+000  0.2202843E+03  0.7546771E-02  0.1133671E+00
         21   -1    0    0  503  502  0.00000000000E+00  0.00000000000E+00  0.82529604820E+03  0.82529604820E+03  0.00000000000E+00 0.  1.
         21   -1    0    0  501  503 -0.00000000000E+00 -0.00000000000E+00 -0.77486447938E+02  0.77486447938E+02  0.00000000000E+00 0. -1.
          6    1    1    2  501    0 -0.21745162059E+02 -0.13462296049E+03  0.15222056563E+03  0.26776163684E+03  0.17300000000E+03 0.  1.
         -6    1    1    2    0  502  0.21745162059E+02  0.13462296049E+03  0.59558903463E+03  0.63502085930E+03  0.17300000000E+03 0.  1.
<mgrwt>
<rscale>  2 0.22028435E+03</rscale>
<asrwt>0</asrwt>
<pdfrwt beam="1">  1       21 0.12696862E+00 0.22028435E+03</pdfrwt>
<pdfrwt beam="2">  1       21 0.11920993E-01 0.22028435E+03</pdfrwt>
<totfact> 0.26795143E+04</totfact>
</mgrwt>
</event>
<event>
 4    1  0.3980289E+000  0.2370069E+03  0.7546771E-02  0.1121803E+00
         21   -1    0    0  501  502  0.00000000000E+00  0.00000000000E+00  0.37279250689E+03  0.37279250689E+03  0.00000000000E+00 0.  1.
         21   -1    0    0  502  503 -0.00000000000E+00 -0.00000000000E+00 -0.16477278076E+03  0.16477278076E+03  0.00000000000E+00 0. -1.
          6    1    1    2  501    0  0.14420213304E+03 -0.73817590503E+02  0.18261669046E+03  0.29920084806E+03  0.17300000000E+03 0.  1.
         -6    1    1    2    0  503 -0.14420213304E+03  0.73817590503E+02  0.25403035659E+02  0.23836443959E+03  0.17300000000E+03 0. -1.
<mgrwt>
<rscale>  2 0.23700694E+03</rscale>
<asrwt>0</asrwt>
<pdfrwt beam="1">  1       21 0.57352693E-01 0.23700694E+03</pdfrwt>
<pdfrwt beam="2">  1       21 0.25349659E-01 0.23700694E+03</pdfrwt>
<totfact> 0.41205991E+04</totfact>
</mgrwt>
</event>
<event>
 4    1  0.3980289E+000  0.1857180E+03  0.7546771E-02  0.1162381E+00
         21   -1    0    0  503  502  0.00000000000E+00  0.00000000000E+00  0.49414687513E+03  0.49414687513E+03  0.00000000000E+00 0.  1.
         21   -1    0    0  501  503 -0.00000000000E+00 -0.00000000000E+00 -0.88660407449E+02  0.88660407449E+02  0.00000000000E+00 0.  1.
          6    1    1    2  501    0 -0.78972928100E+01  0.67080607671E+02  0.68339264247E+02  0.19789247130E+03  0.17300000000E+03 0. -1.
         -6    1    1    2    0  502  0.78972928100E+01 -0.67080607671E+02  0.33714720343E+03  0.38491481128E+03  0.17300000000E+03 0. -1.
<mgrwt>
<rscale>  2 0.18571800E+03</rscale>
<asrwt>0</asrwt>
<pdfrwt beam="1">  1       21 0.76022595E-01 0.18571800E+03</pdfrwt>
<pdfrwt beam="2">  1       21 0.13640063E-01 0.18571800E+03</pdfrwt>
<totfact> 0.72110975E+04</totfact>
</mgrwt>
</event>
<event>
 4    1  0.3980289E+000  0.2222125E+03  0.7546771E-02  0.1132244E+00
         21   -1    0    0  501  502  0.00000000000E+00  0.00000000000E+00  0.55499871684E+03  0.55499871684E+03  0.00000000000E+00 0. -1.
         21   -1    0    0  502  503 -0.00000000000E+00 -0.00000000000E+00 -0.28624797371E+03  0.28624797371E+03  0.00000000000E+00 0. -1.
          6    1    1    2  501    0  0.71964129036E+02  0.11945947285E+03  0.48356483703E+03  0.53217793371E+03  0.17300000000E+03 0. -1.
         -6    1    1    2    0  503 -0.71964129036E+02 -0.11945947285E+03 -0.21481409389E+03  0.30906875684E+03  0.17300000000E+03 0. -1.
<mgrwt>
<rscale>  2 0.22221251E+03</rscale>
<asrwt>0</asrwt>
<pdfrwt beam="1">  1       21 0.85384418E-01 0.22221251E+03</pdfrwt>
<pdfrwt beam="2">  1       21 0.44038150E-01 0.22221251E+03</pdfrwt>
<totfact> 0.57478979E+03</totfact>
</mgrwt>
</event>
<event>
 4    1  0.3980289E+000  0.3076754E+03  0.7546771E-02  0.1081466E+00
         21   -1    0    0  501  502  0.00000000000E+00  0.00000000000E+00  0.45242265845E+03  0.45242265845E+03  0.00000000000E+00 0.  1.
         21   -1    0    0  502  503 -0.00000000000E+00 -0.00000000000E+00 -0.25032285075E+03  0.25032285075E+03  0.00000000000E+00 0. -1.
          6    1    1    2  501    0 -0.20916174818E+03 -0.14486713071E+03  0.24339988177E+03  0.39231062299E+03  0.17300000000E+03 0.  1.
         -6    1    1    2    0  503  0.20916174818E+03  0.14486713071E+03 -0.41300074062E+02  0.31043488622E+03  0.17300000000E+03 0. -1.
<mgrwt>
<rscale>  2 0.30767535E+03</rscale>
<asrwt>0</asrwt>
<pdfrwt beam="1">  1       21 0.69603486E-01 0.30767535E+03</pdfrwt>
<pdfrwt beam="2">  1       21 0.38511208E-01 0.30767535E+03</pdfrwt>
<totfact> 0.11461358E+04</totfact>
</mgrwt>
</event>
<event>
 4    1  0.3980289E+000  0.2534107E+03  0.7546771E-02  0.1111168E+00
         21   -1    0    0  503  502  0.00000000000E+00  0.00000000000E+00  0.78335310136E+02  0.78335310136E+02  0.00000000000E+00 0.  1.
         21   -1    0    0  501  503 -0.00000000000E+00 -0.00000000000E+00 -0.15051259928E+04  0.15051259928E+04  0.00000000000E+00 0. -1.
          6    1    1    2  501    0 -0.19362580735E+02  0.18415499864E+03 -0.12476508307E+04  0.12731259043E+04  0.17300000000E+03 0. -1.
         -6    1    1    2    0  502  0.19362580735E+02 -0.18415499864E+03 -0.17913985206E+03  0.31033539865E+03  0.17300000000E+03 0.  1.
<mgrwt>
<rscale>  2 0.25341068E+03</rscale>
<asrwt>0</asrwt>
<pdfrwt beam="1">  1       21 0.12051586E-01 0.25341068E+03</pdfrwt>
<pdfrwt beam="2">  1       21 0.23155784E+00 0.25341068E+03</pdfrwt>
<totfact> 0.47230971E+03</totfact>
</mgrwt>
</event>
<event>
 4    1  0.3980289E+000  0.2105817E+03  0.7546771E-02  0.1141106E+00
         21   -1    0    0  501  502  0.00000000000E+00  0.00000000000E+00  0.47321332561E+02  0.47321332561E+02  0.00000000000E+00 0.  1.
         21   -1    0    0  502  503 -0.00000000000E+00 -0.00000000000E+00 -0.95191609046E+03  0.95191609046E+03  0.00000000000E+00 0.  1.
          6    1    1    2  501    0  0.55871731427E+02  0.10627324715E+03 -0.38995864409E+03  0.44318438322E+03  0.17300000000E+03 0.  1.
         -6    1    1    2    0  503 -0.55871731427E+02 -0.10627324715E+03 -0.51463611381E+03  0.55605303980E+03  0.17300000000E+03 0.  1.
<mgrwt>
<rscale>  2 0.21058170E+03</rscale>
<asrwt>0</asrwt>
<pdfrwt beam="1">  1       21 0.72802060E-02 0.21058170E+03</pdfrwt>
<pdfrwt beam="2">  1       21 0.14644861E+00 0.21058170E+03</pdfrwt>
<totfact> 0.44530718E+04</totfact>
</mgrwt>
</event>
<event>
 4    1  0.3980289E+000  0.1807609E+03  0.7546771E-02  0.1167069E+00
         21   -1    0    0  501  502  0.00000000000E+00  0.00000000000E+00  0.79670638893E+02  0.79670638893E+02  0.00000000000E+00 0. -1.
         21   -1    0    0  502  503 -0.00000000000E+00 -0.00000000000E+00 -0.52072624884E+03  0.52072624884E+03  0.00000000000E+00 0. -1.
          6    1    1    2  501    0  0.38681521057E+02 -0.35344689179E+02 -0.82173107080E+02  0.19856214808E+03  0.17300000000E+03 0. -1.
         -6    1    1    2    0  503 -0.38681521057E+02  0.35344689179E+02 -0.35888250286E+03  0.40183473965E+03  0.17300000000E+03 0. -1.
<mgrwt>
<rscale>  2 0.18076091E+03</rscale>
<asrwt>0</asrwt>
<pdfrwt beam="1">  1       21 0.12257021E-01 0.18076091E+03</pdfrwt>
<pdfrwt beam="2">  1       21 0.80111731E-01 0.18076091E+03</pdfrwt>
<totfact> 0.77852181E+04</totfact>
</mgrwt>
</event>
<event>
 4    1  0.3980289E+000  0.1815539E+03  0.7546771E-02  0.1166308E+00
         21   -1    0    0  501  502  0.00000000000E+00  0.00000000000E+00  0.92513333237E+02  0.92513333237E+02  0.00000000000E+00 0. -1.
         21   -1    0    0  502  503 -0.00000000000E+00 -0.00000000000E+00 -0.11666012485E+04  0.11666012485E+04  0.00000000000E+00 0. -1.
          6    1    1    2  501    0  0.39432764864E+02 -0.38443054335E+02 -0.12358182627E+02  0.18197399828E+03  0.17300000000E+03 0. -1.
         -6    1    1    2    0  503 -0.39432764864E+02  0.38443054335E+02 -0.10617297326E+04  0.10771405834E+04  0.17300000000E+03 0. -1.
<mgrwt>
<rscale>  2 0.18155388E+03</rscale>
<asrwt>0</asrwt>
<pdfrwt beam="1">  1       21 0.14232820E-01 0.18155388E+03</pdfrwt>
<pdfrwt beam="2">  1       21 0.17947713E+00 0.18155388E+03</pdfrwt>
<totfact> 0.79917124E+03</totfact>
</mgrwt>
</event>
<event>
 4    1  0.3980289E+000  0.1935067E+03  0.7546771E-02  0.1155336E+00
         21   -1    0    0  501  502  0.00000000000E+00  0.00000000000E+00  0.28366504752E+02  0.28366504752E+02  0.00000000000E+00 0.  1.
         21   -1    0    0  502  503 -0.00000000000E+00 -0.00000000000E+00 -0.15591345231E+04  0.15591345231E+04  0.00000000000E+00 0.  1.
          6    1    1    2  501    0  0.63924170522E+02  0.58562146011E+02 -0.45454885761E+03  0.49402377319E+03  0.17300000000E+03 0.  1.
         -6    1    1    2    0  503 -0.63924170522E+02 -0.58562146011E+02 -0.10762191607E+04  0.10934772546E+04  0.17300000000E+03 0.  1.
<mgrwt>
<rscale>  2 0.19350665E+03</rscale>
<asrwt>0</asrwt>
<pdfrwt beam="1">  1       21 0.43640793E-02 0.19350665E+03</pdfrwt>
<pdfrwt beam="2">  1       21 0.23986676E+00 0.19350665E+03</pdfrwt>
<totfact> 0.25818711E+04</totfact>
</mgrwt>
</event>
<event>
 4    1  0.3980289E+000  0.2105008E+03  0.7546771E-02  0.1141170E+00
         21   -1    0    0  503  502  0.00000000000E+00  0.00000000000E+00  0.13714924777E+03  0.13714924777E+03  0.00000000000E+00 0. -1.
         21   -1    0    0  501  503 -0.00000000000E+00 -0.00000000000E+00 -0.35446499791E+03  0.35446499791E+03  0.00000000000E+00 0. -1.
          6    1    1    2  501    0 -0.11991184363E+03  0.16500539504E+01 -0.18179686571E+03  0.27813786744E+03  0.17300000000E+03 0. -1.
         -6    1    1    2    0  502  0.11991184363E+03 -0.16500539504E+01 -0.35518884433E+02  0.21347637825E+03  0.17300000000E+03 0. -1.
<mgrwt>
<rscale>  2 0.21050077E+03</rscale>
<asrwt>0</asrwt>
<pdfrwt beam="1">  1       21 0.21099884E-01 0.21050077E+03</pdfrwt>
<pdfrwt beam="2">  1       21 0.54533076E-01 0.21050077E+03</pdfrwt>
<totfact> 0.65783933E+04</totfact>
</mgrwt>
</event>
<event>
 4    1  0.3980289E+000  0.2220621E+03  0.7546771E-02  0.1132355E+00
         21   -1    0    0  501  502  0.00000000000E+00  0.00000000000E+00  0.88136270570E+03  0.88136270570E+03  0.00000000000E+00 0. -1.
         21   -1    0    0  502  503 -0.00000000000E+00 -0.00000000000E+00 -0.70264195328E+02  0.70264195328E+02  0.00000000000E+00 0. -1.
          6    1    1    2  501    0  0.11781662998E+03 -0.74174229742E+02  0.62031482354E+03  0.65886421587E+03  0.17300000000E+03 0. -1.
         -6    1    1    2    0  503 -0.11781662998E+03  0.74174229742E+02  0.19078368684E+03  0.29276268516E+03  0.17300000000E+03 0. -1.
<mgrwt>
<rscale>  2 0.22206210E+03</rscale>
<asrwt>0</asrwt>
<pdfrwt beam="1">  1       21 0.13559425E+00 0.22206210E+03</pdfrwt>
<pdfrwt beam="2">  1       21 0.10809877E-01 0.22206210E+03</pdfrwt>
<totfact> 0.26981270E+04</totfact>
</mgrwt>
</event>
<event>
 4    1  0.3980289E+000  0.1751383E+03  0.7546771E-02  0.1172593E+00
         21   -1    0    0  503  502  0.00000000000E+00  0.00000000000E+00  0.13991064088E+03  0.13991064088E+03  0.00000000000E+00 0.  1.
         21   -1    0    0  501  503 -0.00000000000E+00 -0.00000000000E+00 -0.42642845844E+03  0.42642845844E+03  0.00000000000E+00 0.  1.
          6    1    1    2  501    0 -0.14803038837E+02 -0.22919505702E+02 -0.34064227365E+03  0.38302818734E+03  0.17300000000E+03 0.  1.
         -6    1    1    2    0  502  0.14803038837E+02  0.22919505702E+02  0.54124456092E+02  0.18331091197E+03  0.17300000000E+03 0.  1.
<mgrwt>
<rscale>  2 0.17513833E+03</rscale>
<asrwt>0</asrwt>
<pdfrwt beam="1">  1       21 0.21524714E-01 0.17513833E+03</pdfrwt>
<pdfrwt beam="2">  1       21 0.65604378E-01 0.17513833E+03</pdfrwt>
<totfact> 0.43340786E+04</totfact>
</mgrwt>
</event>
<event>
 4    1  0.3980289E+000  0.2022051E+03  0.7546771E-02  0.1147892E+00
         21   -1    0    0  501  502  0.00000000000E+00  0.00000000000E+00  0.19404584265E+03  0.19404584265E+03  0.00000000000E+00 0.  1.
         21   -1    0    0  502  503 -0.00000000000E+00 -0.00000000000E+00 -0.21087859631E+03  0.21087859631E+03  0.00000000000E+00 0.  1.
          6    1    1    2  501    0 -0.77855468950E+01 -0.10439010623E+03 -0.26489355039E+01  0.20222246630E+03  0.17300000000E+03 0.  1.
         -6    1    1    2    0  503  0.77855468950E+01  0.10439010623E+03 -0.14183818156E+02  0.20270197265E+03  0.17300000000E+03 0.  1.
<mgrwt>
<rscale>  2 0.20220512E+03</rscale>
<asrwt>0</asrwt>
<pdfrwt beam="1">  1       21 0.29853206E-01 0.20220512E+03</pdfrwt>
<pdfrwt beam="2">  1       21 0.32442861E-01 0.20220512E+03</pdfrwt>
<totfact> 0.97974446E+04</totfact>
</mgrwt>
</event>
<event>
 4    1  0.3980289E+000  0.2068747E+03  0.7546771E-02  0.1144065E+00
         21   -1    0    0  503  502  0.00000000000E+00  0.00000000000E+00  0.16677790216E+03  0.16677790216E+03  0.00000000000E+00 0. -1.
         21   -1    0    0  501  503 -0.00000000000E+00 -0.00000000000E+00 -0.35007207825E+03  0.35007207825E+03  0.00000000000E+00 0.  1.
          6    1    1    2  501    0  0.75593153484E+02 -0.84580207412E+02 -0.22517433127E+03  0.30577870397E+03  0.17300000000E+03 0. -1.
         -6    1    1    2    0  502 -0.75593153484E+02  0.84580207412E+02  0.41880155187E+02  0.21107127644E+03  0.17300000000E+03 0. -1.
<mgrwt>
<rscale>  2 0.20687469E+03</rscale>
<asrwt>0</asrwt>
<pdfrwt beam="1">  1       21 0.25658139E-01 0.20687469E+03</pdfrwt>
<pdfrwt beam="2">  1       21 0.53857242E-01 0.20687469E+03</pdfrwt>
<totfact> 0.46664326E+04</totfact>
</mgrwt>
</event>
<event>
 4    1  0.3980289E+000  0.1920293E+03  0.7546771E-02  0.1156644E+00
         21   -1    0    0  503  502  0.00000000000E+00  0.00000000000E+00  0.18023390417E+03  0.18023390417E+03  0.00000000000E+00 0. -1.
         21   -1    0    0  501  503 -0.00000000000E+00 -0.00000000000E+00 -0.29123102598E+03  0.29123102598E+03  0.00000000000E+00 0.  1.
          6    1    1    2  501    0  0.66559925831E+02 -0.50159860981E+02 -0.18407042736E+03  0.26600217595E+03  0.17300000000E+03 0.  1.
         -6    1    1    2    0  502 -0.66559925831E+02  0.50159860981E+02  0.73073305550E+02  0.20546275420E+03  0.17300000000E+03 0. -1.
<mgrwt>
<rscale>  2 0.19202926E+03</rscale>
<asrwt>0</asrwt>
<pdfrwt beam="1">  1       21 0.27728293E-01 0.19202926E+03</pdfrwt>
<pdfrwt beam="2">  1       21 0.44804773E-01 0.19202926E+03</pdfrwt>
<totfact> 0.59379087E+04</totfact>
</mgrwt>
</event>
<event>
 4    1  0.3980289E+000  0.1956427E+03  0.7546771E-02  0.1153468E+00
         21   -1    0    0  503  502  0.00000000000E+00  0.00000000000E+00  0.40896376893E+03  0.40896376893E+03  0.00000000000E+00 0.  1.
         21   -1    0    0  501  503 -0.00000000000E+00 -0.00000000000E+00 -0.20471126099E+03  0.20471126099E+03  0.00000000000E+00 0.  1.
          6    1    1    2  501    0 -0.48309567549E+02 -0.77545216933E+02 -0.12393735029E+03  0.23159564284E+03  0.17300000000E+03 0.  1.
         -6    1    1    2    0  502  0.48309567549E+02  0.77545216933E+02  0.32818985823E+03  0.38207938708E+03  0.17300000000E+03 0.  1.
<mgrwt>
<rscale>  2 0.19564272E+03</rscale>
<asrwt>0</asrwt>
<pdfrwt beam="1">  1       21 0.62917503E-01 0.19564272E+03</pdfrwt>
<pdfrwt beam="2">  1       21 0.31494040E-01 0.19564272E+03</pdfrwt>
<totfact> 0.22628058E+04</totfact>
</mgrwt>
</event>
<event>
 4    1  0.3980289E+000  0.1873178E+03  0.7546771E-02  0.1160903E+00
         21   -1    0    0  501  502  0.00000000000E+00  0.00000000000E+00  0.10134291777E+03  0.10134291777E+03  0.00000000000E+00 0. -1.
         21   -1    0    0  502  503 -0.00000000000E+00 -0.00000000000E+00 -0.41888868716E+03  0.41888868716E+03  0.00000000000E+00 0. -1.
          6    1    1    2  501    0  0.44932669981E+02 -0.56035984666E+02 -0.50439911126E+02  0.19399010553E+03  0.17300000000E+03 0. -1.
         -6    1    1    2    0  503 -0.44932669981E+02  0.56035984666E+02 -0.26710585826E+03  0.32624149939E+03  0.17300000000E+03 0. -1.
<mgrwt>
<rscale>  2 0.18731785E+03</rscale>
<asrwt>0</asrwt>
<pdfrwt beam="1">  1       21 0.15591218E-01 0.18731785E+03</pdfrwt>
<pdfrwt beam="2">  1       21 0.64444413E-01 0.18731785E+03</pdfrwt>
<totfact> 0.81357321E+04</totfact>
</mgrwt>
</event>
<event>
 4    1  0.3980289E+000  0.1872629E+03  0.7546771E-02  0.1160953E+00
         21   -1    0    0  503  502  0.00000000000E+00  0.00000000000E+00  0.21311157863E+02  0.21311157863E+02  0.00000000000E+00 0. -1.
         21   -1    0    0  501  503 -0.00000000000E+00 -0.00000000000E+00 -0.16460873957E+04  0.16460873957E+04  0.00000000000E+00 0. -1.
          6    1    1    2  501    0  0.53111370697E+02 -0.48141120317E+02 -0.82821544923E+03  0.84912202628E+03  0.17300000000E+03 0. -1.
         -6    1    1    2    0  502 -0.53111370697E+02  0.48141120317E+02 -0.79656078856E+03  0.81827652724E+03  0.17300000000E+03 0. -1.
<mgrwt>
<rscale>  2 0.18726288E+03</rscale>
<asrwt>0</asrwt>
<pdfrwt beam="1">  1       21 0.32786389E-02 0.18726288E+03</pdfrwt>
<pdfrwt beam="2">  1       21 0.25324428E+00 0.18726288E+03</pdfrwt>
<totfact> 0.34907369E+04</totfact>
</mgrwt>
</event>
<event>
 4    1  0.3980289E+000  0.1821492E+03  0.7546771E-02  0.1165739E+00
         21   -1    0    0  501  502  0.00000000000E+00  0.00000000000E+00  0.31877271814E+03  0.31877271814E+03  0.00000000000E+00 0.  1.
         21   -1    0    0  502  503 -0.00000000000E+00 -0.00000000000E+00 -0.10823430761E+03  0.10823430761E+03  0.00000000000E+00 0.  1.
          6    1    1    2  501    0  0.30427672100E+02  0.48202706715E+02  0.14709008970E+03  0.23412355424E+03  0.17300000000E+03 0.  1.
         -6    1    1    2    0  503 -0.30427672100E+02 -0.48202706715E+02  0.63448320827E+02  0.19288347151E+03  0.17300000000E+03 0.  1.
<mgrwt>
<rscale>  2 0.18214924E+03</rscale>
<asrwt>0</asrwt>
<pdfrwt beam="1">  1       21 0.49041956E-01 0.18214924E+03</pdfrwt>
<pdfrwt beam="2">  1       21 0.16651432E-01 0.18214924E+03</pdfrwt>
<totfact> 0.12902942E+05</totfact>
</mgrwt>
</event>
<event>
 4    1  0.3980289E+000  0.2483522E+03  0.7546771E-02  0.1114351E+00
         21   -1    0    0  501  502  0.00000000000E+00  0.00000000000E+00  0.15138901179E+03  0.15138901179E+03  0.00000000000E+00 0. -1.
         21   -1    0    0  502  503 -0.00000000000E+00 -0.00000000000E+00 -0.41171567641E+03  0.41171567641E+03  0.00000000000E+00 0.  1.
          6    1    1    2  501    0 -0.17807921956E+03 -0.61312122909E+01 -0.10140171661E+03  0.26825567717E+03  0.17300000000E+03 0. -1.
         -6    1    1    2    0  503  0.17807921956E+03  0.61312122909E+01 -0.15892494802E+03  0.29484901103E+03  0.17300000000E+03 0.  1.
<mgrwt>
<rscale>  2 0.24835217E+03</rscale>
<asrwt>0</asrwt>
<pdfrwt beam="1">  1       21 0.23290617E-01 0.24835217E+03</pdfrwt>
<pdfrwt beam="2">  1       21 0.63340873E-01 0.24835217E+03</pdfrwt>
<totfact> 0.38907734E+04</totfact>
</mgrwt>
</event>
<event>
 4    1  0.3980289E+000  0.2437317E+03  0.7546771E-02  0.1117332E+00
         21   -1    0    0  503  502  0.00000000000E+00  0.00000000000E+00  0.45947522232E+02  0.45947522232E+02  0.00000000000E+00 0. -1.
         21   -1    0    0  501  503 -0.00000000000E+00 -0.00000000000E+00 -0.12961062388E+04  0.12961062388E+04  0.00000000000E+00 0. -1.
          6    1    1    2  501    0 -0.17116608882E+03  0.13353991234E+02 -0.65849849682E+03  0.70215769551E+03  0.17300000000E+03 0. -1.
         -6    1    1    2    0  502  0.17116608882E+03 -0.13353991234E+02 -0.59166021974E+03  0.63989606552E+03  0.17300000000E+03 0. -1.
<mgrwt>
<rscale>  2 0.24373174E+03</rscale>
<asrwt>0</asrwt>
<pdfrwt beam="1">  1       21 0.70688502E-02 0.24373174E+03</pdfrwt>
<pdfrwt beam="2">  1       21 0.19940094E+00 0.24373174E+03</pdfrwt>
<totfact> 0.19441926E+04</totfact>
</mgrwt>
</event>
<event>
 4    1  0.3980289E+000  0.2327507E+03  0.7546771E-02  0.1124719E+00
         21   -1    0    0  501  502  0.00000000000E+00  0.00000000000E+00  0.14533100402E+03  0.14533100402E+03  0.00000000000E+00 0.  1.
         21   -1    0    0  502  503 -0.00000000000E+00 -0.00000000000E+00 -0.41922427308E+03  0.41922427308E+03  0.00000000000E+00 0. -1.
          6    1    1    2  501    0  0.10980580491E+03  0.11039272979E+03 -0.42966546950E+02  0.23668331952E+03  0.17300000000E+03 0.  1.
         -6    1    1    2    0  503 -0.10980580491E+03 -0.11039272979E+03 -0.23092672210E+03  0.32787195758E+03  0.17300000000E+03 0.  1.
<mgrwt>
<rscale>  2 0.23275066E+03</rscale>
<asrwt>0</asrwt>
<pdfrwt beam="1">  1       21 0.22358616E-01 0.23275066E+03</pdfrwt>
<pdfrwt beam="2">  1       21 0.64496042E-01 0.23275066E+03</pdfrwt>
<totfact> 0.40697879E+04</totfact>
</mgrwt>
</event>
<event>
 4    1  0.3980289E+000  0.1901845E+03  0.7546771E-02  0.1158295E+00
         21   -1    0    0  503  502  0.00000000000E+00  0.00000000000E+00  0.38750463068E+02  0.38750463068E+02  0.00000000000E+00 0. -1.
         21   -1    0    0  501  503 -0.00000000000E+00 -0.00000000000E+00 -0.10010759228E+04  0.10010759228E+04  0.00000000000E+00 0. -1.
          6    1    1    2  501    0 -0.78302526360E+02 -0.10480829901E+02 -0.61633171694E+03  0.64500768890E+03  0.17300000000E+03 0. -1.
         -6    1    1    2    0  502  0.78302526360E+02  0.10480829901E+02 -0.34599374282E+03  0.39481869700E+03  0.17300000000E+03 0. -1.
<mgrwt>
<rscale>  2 0.19018447E+03</rscale>
<asrwt>0</asrwt>
<pdfrwt beam="1">  1       21 0.59616091E-02 0.19018447E+03</pdfrwt>
<pdfrwt beam="2">  1       21 0.15401170E+00 0.19018447E+03</pdfrwt>
<totfact> 0.55651020E+04</totfact>
</mgrwt>
</event>
<event>
 4    1  0.3980289E+000  0.2671337E+03  0.7546771E-02  0.1102931E+00
         21   -1    0    0  503  502  0.00000000000E+00  0.00000000000E+00  0.37021204664E+03  0.37021204664E+03  0.00000000000E+00 0.  1.
         21   -1    0    0  501  503 -0.00000000000E+00 -0.00000000000E+00 -0.26158016671E+03  0.26158016671E+03  0.00000000000E+00 0.  1.
          6    1    1    2  501    0 -0.12016867145E+03  0.16428904458E+03 -0.10772098666E+03  0.28803508594E+03  0.17300000000E+03 0.  1.
         -6    1    1    2    0  502  0.12016867145E+03 -0.16428904458E+03  0.21635286658E+03  0.34375712741E+03  0.17300000000E+03 0.  1.
<mgrwt>
<rscale>  2 0.26713367E+03</rscale>
<asrwt>0</asrwt>
<pdfrwt beam="1">  1       21 0.56955700E-01 0.26713367E+03</pdfrwt>
<pdfrwt beam="2">  1       21 0.40243102E-01 0.26713367E+03</pdfrwt>
<totfact> 0.16546608E+04</totfact>
</mgrwt>
</event>
<event>
 4    1  0.3980289E+000  0.1793049E+03  0.7546771E-02  0.1168478E+00
         21   -1    0    0  503  502  0.00000000000E+00  0.00000000000E+00  0.19204836367E+04  0.19204836367E+04  0.00000000000E+00 0.  1.
         21   -1    0    0  501  503 -0.00000000000E+00 -0.00000000000E+00 -0.17858926782E+02  0.17858926782E+02  0.00000000000E+00 0.  1.
          6    1    1    2  501    0 -0.40545352692E+02  0.24027193384E+02  0.70879730791E+03  0.73112506136E+03  0.17300000000E+03 0. -1.
         -6    1    1    2    0  502  0.40545352692E+02 -0.24027193384E+02  0.11938274020E+04  0.12072175021E+04  0.17300000000E+03 0. -1.
<mgrwt>
<rscale>  2 0.17930486E+03</rscale>
<asrwt>0</asrwt>
<pdfrwt beam="1">  1       21 0.29545886E+00 0.17930486E+03</pdfrwt>
<pdfrwt beam="2">  1       21 0.27475287E-02 0.17930486E+03</pdfrwt>
<totfact> 0.26874126E+04</totfact>
</mgrwt>
</event>
<event>
 4    1  0.3980289E+000  0.1900932E+03  0.7546771E-02  0.1158377E+00
         21   -1    0    0  501  502  0.00000000000E+00  0.00000000000E+00  0.45356521779E+02  0.45356521779E+02  0.00000000000E+00 0. -1.
         21   -1    0    0  502  503 -0.00000000000E+00 -0.00000000000E+00 -0.86262663810E+03  0.86262663810E+03  0.00000000000E+00 0. -1.
          6    1    1    2  501    0  0.75986858544E+02  0.20794386534E+02 -0.28312561708E+03  0.34102129586E+03  0.17300000000E+03 0. -1.
         -6    1    1    2    0  503 -0.75986858544E+02 -0.20794386534E+02 -0.53414449925E+03  0.56696186402E+03  0.17300000000E+03 0. -1.
<mgrwt>
<rscale>  2 0.19009316E+03</rscale>
<asrwt>0</asrwt>
<pdfrwt beam="1">  1       21 0.69779271E-02 0.19009316E+03</pdfrwt>
<pdfrwt beam="2">  1       21 0.13271178E+00 0.19009316E+03</pdfrwt>
<totfact> 0.62480280E+04</totfact>
</mgrwt>
</event>
<event>
 4    1  0.3980289E+000  0.1732848E+03  0.7546771E-02  0.1174465E+00
         21   -1    0    0  501  502  0.00000000000E+00  0.00000000000E+00  0.19205812906E+03  0.19205812906E+03  0.00000000000E+00 0. -1.
         21   -1    0    0  502  503 -0.00000000000E+00 -0.00000000000E+00 -0.18542678714E+03  0.18542678714E+03  0.00000000000E+00 0. -1.
          6    1    1    2  501    0 -0.95045804735E+01  0.28778095160E+01  0.78060751761E+02  0.19005551769E+03  0.17300000000E+03 0. -1.
         -6    1    1    2    0  503  0.95045804735E+01 -0.28778095160E+01 -0.71429409847E+02  0.18742939852E+03  0.17300000000E+03 0. -1.
<mgrwt>
<rscale>  2 0.17328479E+03</rscale>
<asrwt>0</asrwt>
<pdfrwt beam="1">  1       21 0.29547404E-01 0.17328479E+03</pdfrwt>
<pdfrwt beam="2">  1       21 0.28527198E-01 0.17328479E+03</pdfrwt>
<totfact> 0.12985129E+05</totfact>
</mgrwt>
</event>
<event>
 4    1  0.3980289E+000  0.1752811E+03  0.7546771E-02  0.1172450E+00
         21   -1    0    0  503  502  0.00000000000E+00  0.00000000000E+00  0.63027785473E+03  0.63027785473E+03  0.00000000000E+00 0. -1.
         21   -1    0    0  501  503 -0.00000000000E+00 -0.00000000000E+00 -0.54992437825E+02  0.54992437825E+02  0.00000000000E+00 0. -1.
          6    1    1    2  501    0  0.18528544995E+02  0.21240717298E+02  0.17216468268E+03  0.24569117407E+03  0.17300000000E+03 0. -1.
         -6    1    1    2    0  502 -0.18528544995E+02 -0.21240717298E+02  0.40312073422E+03  0.43957911849E+03  0.17300000000E+03 0. -1.
<mgrwt>
<rscale>  2 0.17528113E+03</rscale>
<asrwt>0</asrwt>
<pdfrwt beam="1">  1       21 0.96965819E-01 0.17528113E+03</pdfrwt>
<pdfrwt beam="2">  1       21 0.84603755E-02 0.17528113E+03</pdfrwt>
<totfact> 0.96796456E+04</totfact>
</mgrwt>
</event>
<event>
 4    1  0.3980289E+000  0.2183594E+03  0.7546771E-02  0.1135112E+00
         21   -1    0    0  501  502  0.00000000000E+00  0.00000000000E+00  0.14273621866E+03  0.14273621866E+03  0.00000000000E+00 0.  1.
         21   -1    0    0  502  503 -0.00000000000E+00 -0.00000000000E+00 -0.95422030681E+03  0.95422030681E+03  0.00000000000E+00 0.  1.
          6    1    1    2  501    0 -0.12544078108E+03  0.44904776339E+02  0.36429796276E+02  0.22137741202E+03  0.17300000000E+03 0.  1.
         -6    1    1    2    0  503  0.12544078108E+03 -0.44904776339E+02 -0.84791388443E+03  0.87557911345E+03  0.17300000000E+03 0.  1.
<mgrwt>
<rscale>  2 0.21835940E+03</rscale>
<asrwt>0</asrwt>
<pdfrwt beam="1">  1       21 0.21959419E-01 0.21835940E+03</pdfrwt>
<pdfrwt beam="2">  1       21 0.14680312E+00 0.21835940E+03</pdfrwt>
<totfact> 0.60037583E+03</totfact>
</mgrwt>
</event>
<event>
 4    1  0.3980289E+000  0.1740525E+03  0.7546771E-02  0.1173686E+00
         21   -1    0    0  503  502  0.00000000000E+00  0.00000000000E+00  0.59409562343E+02  0.59409562343E+02  0.00000000000E+00 0.  1.
         21   -1    0    0  501  503 -0.00000000000E+00 -0.00000000000E+00 -0.51012298020E+03  0.51012298020E+03  0.00000000000E+00 0.  1.
          6    1    1    2  501    0 -0.92094606527E+01 -0.16747108383E+02 -0.23100028795E+03  0.28923245467E+03  0.17300000000E+03 0. -1.
         -6    1    1    2    0  502  0.92094606527E+01  0.16747108383E+02 -0.21971312991E+03  0.28030008787E+03  0.17300000000E+03 0. -1.
<mgrwt>
<rscale>  2 0.17405252E+03</rscale>
<asrwt>0</asrwt>
<pdfrwt beam="1">  1       21 0.91399331E-02 0.17405252E+03</pdfrwt>
<pdfrwt beam="2">  1       21 0.78480455E-01 0.17405252E+03</pdfrwt>
<totfact> 0.13744821E+05</totfact>
</mgrwt>
</event>
<event>
 4    1  0.3980289E+000  0.1967186E+03  0.7546771E-02  0.1152537E+00
         21   -1    0    0  503  502  0.00000000000E+00  0.00000000000E+00  0.80523545726E+03  0.80523545726E+03  0.00000000000E+00 0. -1.
         21   -1    0    0  501  503 -0.00000000000E+00 -0.00000000000E+00 -0.56558363591E+02  0.56558363591E+02  0.00000000000E+00 0. -1.
          6    1    1    2  501    0 -0.90466557949E+02 -0.24186772122E+02  0.20729195928E+03  0.28577640636E+03  0.17300000000E+03 0. -1.
         -6    1    1    2    0  502  0.90466557949E+02  0.24186772122E+02  0.54138513439E+03  0.57601741449E+03  0.17300000000E+03 0. -1.
<mgrwt>
<rscale>  2 0.19671858E+03</rscale>
<asrwt>0</asrwt>
<pdfrwt beam="1">  1       21 0.12388237E+00 0.19671858E+03</pdfrwt>
<pdfrwt beam="2">  1       21 0.87012873E-02 0.19671858E+03</pdfrwt>
<totfact> 0.50449083E+04</totfact>
</mgrwt>
</event>
<event>
 4    1  0.3980289E+000  0.3787429E+03  0.7546771E-02  0.1051399E+00
         21   -1    0    0  501  502  0.00000000000E+00  0.00000000000E+00  0.36964959925E+03  0.36964959925E+03  0.00000000000E+00 0.  1.
         21   -1    0    0  502  503 -0.00000000000E+00 -0.00000000000E+00 -0.38955944441E+03  0.38955944441E+03  0.00000000000E+00 0. -1.
          6    1    1    2  501    0 -0.33113278781E+03  0.62195417535E+02 -0.33506585985E+02  0.38022215142E+03  0.17300000000E+03 0.  1.
         -6    1    1    2    0  503  0.33113278781E+03 -0.62195417535E+02  0.13596740816E+02  0.37898689224E+03  0.17300000000E+03 0. -1.
<mgrwt>
<rscale>  2 0.37874291E+03</rscale>
<asrwt>0</asrwt>
<pdfrwt beam="1">  1       21 0.56869169E-01 0.37874291E+03</pdfrwt>
<pdfrwt beam="2">  1       21 0.59932222E-01 0.37874291E+03</pdfrwt>
<totfact> 0.68473489E+03</totfact>
</mgrwt>
</event>
<event>
 4    1  0.3980289E+000  0.2113980E+03  0.7546771E-02  0.1140464E+00
         21   -1    0    0  503  502  0.00000000000E+00  0.00000000000E+00  0.68158187396E+03  0.68158187396E+03  0.00000000000E+00 0. -1.
         21   -1    0    0  501  503 -0.00000000000E+00 -0.00000000000E+00 -0.44227492448E+03  0.44227492448E+03  0.00000000000E+00 0.  1.
          6    1    1    2  501    0 -0.42329155348E+02  0.11387869568E+03 -0.39895228962E+03  0.45149977199E+03  0.17300000000E+03 0.  1.
         -6    1    1    2    0  502  0.42329155348E+02 -0.11387869568E+03  0.63825923910E+03  0.67235702645E+03  0.17300000000E+03 0. -1.
<mgrwt>
<rscale>  2 0.21139800E+03</rscale>
<asrwt>0</asrwt>
<pdfrwt beam="1">  1       21 0.10485875E+00 0.21139800E+03</pdfrwt>
<pdfrwt beam="2">  1       21 0.68042296E-01 0.21139800E+03</pdfrwt>
<totfact> 0.14203957E+03</totfact>
</mgrwt>
</event>
<event>
 4    1  0.3980289E+000  0.1769590E+03  0.7546771E-02  0.1170779E+00
         21   -1    0    0  501  502  0.00000000000E+00  0.00000000000E+00  0.36638064362E+03  0.36638064362E+03  0.00000000000E+00 0. -1.
         21   -1    0    0  502  503 -0.00000000000E+00 -0.00000000000E+00 -0.85496253382E+02  0.85496253382E+02  0.00000000000E+00 0.  1.
          6    1    1    2  501    0  0.28065395519E+02 -0.24450707506E+02  0.14441170622E+03  0.22840587649E+03  0.17300000000E+03 0. -1.
         -6    1    1    2    0  503 -0.28065395519E+02  0.24450707506E+02  0.13647268402E+03  0.22347102051E+03  0.17300000000E+03 0.  1.
<mgrwt>
<rscale>  2 0.17695904E+03</rscale>
<asrwt>0</asrwt>
<pdfrwt beam="1">  1       21 0.56366252E-01 0.17695904E+03</pdfrwt>
<pdfrwt beam="2">  1       21 0.13153270E-01 0.17695904E+03</pdfrwt>
<totfact> 0.14813938E+05</totfact>
</mgrwt>
</event>
<event>
 4    1  0.3980289E+000  0.2343970E+03  0.7546771E-02  0.1123583E+00
         21   -1    0    0  501  502  0.00000000000E+00  0.00000000000E+00  0.30655449689E+03  0.30655449689E+03  0.00000000000E+00 0.  1.
         21   -1    0    0  502  503 -0.00000000000E+00 -0.00000000000E+00 -0.35101894549E+03  0.35101894549E+03  0.00000000000E+00 0. -1.
          6    1    1    2  501    0  0.15636307185E+03 -0.23738744247E+02  0.20778169571E+03  0.31323341343E+03  0.17300000000E+03 0.  1.
         -6    1    1    2    0  503 -0.15636307185E+03  0.23738744247E+02 -0.25224614431E+03  0.34434002895E+03  0.17300000000E+03 0. -1.
<mgrwt>
<rscale>  2 0.23439697E+03</rscale>
<asrwt>0</asrwt>
<pdfrwt beam="1">  1       21 0.47162230E-01 0.23439697E+03</pdfrwt>
<pdfrwt beam="2">  1       21 0.54002915E-01 0.23439697E+03</pdfrwt>
<totfact> 0.13596610E+04</totfact>
</mgrwt>
</event>
<event>
 4    1  0.3980289E+000  0.2342738E+03  0.7546771E-02  0.1123667E+00
         21   -1    0    0  501  502  0.00000000000E+00  0.00000000000E+00  0.23211563208E+03  0.23211563208E+03  0.00000000000E+00 0.  1.
         21   -1    0    0  502  503 -0.00000000000E+00 -0.00000000000E+00 -0.27148778418E+03  0.27148778418E+03  0.00000000000E+00 0.  1.
          6    1    1    2  501    0 -0.40669456968E+02  0.15264732681E+03  0.70770323019E+02  0.24472974836E+03  0.17300000000E+03 0.  1.
         -6    1    1    2    0  503  0.40669456968E+02 -0.15264732681E+03 -0.11014247512E+03  0.25887366791E+03  0.17300000000E+03 0.  1.
<mgrwt>
<rscale>  2 0.23427380E+03</rscale>
<asrwt>0</asrwt>
<pdfrwt beam="1">  1       21 0.35710097E-01 0.23427380E+03</pdfrwt>
<pdfrwt beam="2">  1       21 0.41767351E-01 0.23427380E+03</pdfrwt>
<totfact> 0.40896908E+04</totfact>
</mgrwt>
</event>
<event>
 4    1  0.3980289E+000  0.1877648E+03  0.7546771E-02  0.1160493E+00
         21   -1    0    0  503  502  0.00000000000E+00  0.00000000000E+00  0.65351272031E+03  0.65351272031E+03  0.00000000000E+00 0.  1.
         21   -1    0    0  501  503 -0.00000000000E+00 -0.00000000000E+00 -0.56579393187E+02  0.56579393187E+02  0.00000000000E+00 0. -1.
          6    1    1    2  501    0 -0.46162707388E+02 -0.56529731477E+02  0.22189628112E+03  0.29067776948E+03  0.17300000000E+03 0. -1.
         -6    1    1    2    0  502  0.46162707388E+02  0.56529731477E+02  0.37503704600E+03  0.41941434402E+03  0.17300000000E+03 0. -1.
<mgrwt>
<rscale>  2 0.18776476E+03</rscale>
<asrwt>0</asrwt>
<pdfrwt beam="1">  1       21 0.10054041E+00 0.18776476E+03</pdfrwt>
<pdfrwt beam="2">  1       21 0.87045224E-02 0.18776476E+03</pdfrwt>
<totfact> 0.84118732E+04</totfact>
</mgrwt>
</event>
<event>
 4    1  0.3980289E+000  0.1767257E+03  0.7546771E-02  0.1171010E+00
         21   -1    0    0  501  502  0.00000000000E+00  0.00000000000E+00  0.13973243827E+03  0.13973243827E+03  0.00000000000E+00 0.  1.
         21   -1    0    0  502  503 -0.00000000000E+00 -0.00000000000E+00 -0.15478829467E+04  0.15478829467E+04  0.00000000000E+00 0.  1.
          6    1    1    2  501    0  0.22247039432E+02 -0.28425891388E+02  0.76435955522E+02  0.19254718217E+03  0.17300000000E+03 0.  1.
         -6    1    1    2    0  503 -0.22247039432E+02  0.28425891388E+02 -0.14845864640E+04  0.14950682028E+04  0.17300000000E+03 0.  1.
<mgrwt>
<rscale>  2 0.17672567E+03</rscale>
<asrwt>0</asrwt>
<pdfrwt beam="1">  1       21 0.21497299E-01 0.17672567E+03</pdfrwt>
<pdfrwt beam="2">  1       21 0.23813583E+00 0.17672567E+03</pdfrwt>
<totfact> 0.16061435E+03</totfact>
</mgrwt>
</event>
<event>
 4    1  0.3980289E+000  0.1749633E+03  0.7546771E-02  0.1172769E+00
         21   -1    0    0  501  502  0.00000000000E+00  0.00000000000E+00  0.11027872891E+03  0.11027872891E+03  0.00000000000E+00 0.  1.
         21   -1    0    0  502  503 -0.00000000000E+00 -0.00000000000E+00 -0.82183807832E+03  0.82183807832E+03  0.00000000000E+00 0.  1.
          6    1    1    2  501    0  0.10453595515E+02  0.23955817118E+02  0.23488215973E+02  0.17653287264E+03  0.17300000000E+03 0.  1.
         -6    1    1    2    0  503 -0.10453595515E+02 -0.23955817118E+02 -0.73504756539E+03  0.75558393459E+03  0.17300000000E+03 0.  1.
<mgrwt>
<rscale>  2 0.17496331E+03</rscale>
<asrwt>0</asrwt>
<pdfrwt beam="1">  1       21 0.16965958E-01 0.17496331E+03</pdfrwt>
<pdfrwt beam="2">  1       21 0.12643663E+00 0.17496331E+03</pdfrwt>
<totfact> 0.14694302E+04</totfact>
</mgrwt>
</event>
<event>
 4    1  0.3980289E+000  0.1841221E+03  0.7546771E-02  0.1163872E+00
         21   -1    0    0  501  502  0.00000000000E+00  0.00000000000E+00  0.42397608775E+03  0.42397608775E+03  0.00000000000E+00 0.  1.
         21   -1    0    0  502  503 -0.00000000000E+00 -0.00000000000E+00 -0.28012466596E+03  0.28012466596E+03  0.00000000000E+00 0.  1.
          6    1    1    2  501    0 -0.38822888737E+02 -0.49645896898E+02  0.36951914693E+03  0.41285025338E+03  0.17300000000E+03 0.  1.
         -6    1    1    2    0  503  0.38822888737E+02  0.49645896898E+02 -0.22566772514E+03  0.29125050032E+03  0.17300000000E+03 0.  1.
<mgrwt>
<rscale>  2 0.18412206E+03</rscale>
<asrwt>0</asrwt>
<pdfrwt beam="1">  1       21 0.65227091E-01 0.18412206E+03</pdfrwt>
<pdfrwt beam="2">  1       21 0.43096102E-01 0.18412206E+03</pdfrwt>
<totfact> 0.11262785E+04</totfact>
</mgrwt>
</event>
<event>
 4    1  0.3980289E+000  0.1747990E+03  0.7546771E-02  0.1172934E+00
         21   -1    0    0  501  502  0.00000000000E+00  0.00000000000E+00  0.24494670629E+03  0.24494670629E+03  0.00000000000E+00 0. -1.
         21   -1    0    0  502  503 -0.00000000000E+00 -0.00000000000E+00 -0.21177032175E+03  0.21177032175E+03  0.00000000000E+00 0. -1.
          6    1    1    2  501    0  0.44796880832E+00  0.25009866719E+02  0.16298092812E+03  0.23899262968E+03  0.17300000000E+03 0. -1.
         -6    1    1    2    0  503 -0.44796880832E+00 -0.25009866719E+02 -0.12980454358E+03  0.21772439836E+03  0.17300000000E+03 0. -1.
<mgrwt>
<rscale>  2 0.17479901E+03</rscale>
<asrwt>0</asrwt>
<pdfrwt beam="1">  1       21 0.37684109E-01 0.17479901E+03</pdfrwt>
<pdfrwt beam="2">  1       21 0.32580049E-01 0.17479901E+03</pdfrwt>
<totfact> 0.62063743E+04</totfact>
</mgrwt>
</event>
<event>
 4    1  0.3980289E+000  0.1734099E+03  0.7546771E-02  0.1174338E+00
         21   -1    0    0  501  502  0.00000000000E+00  0.00000000000E+00  0.23185748825E+02  0.23185748825E+02  0.00000000000E+00 0.  1.
         21   -1    0    0  502  503 -0.00000000000E+00 -0.00000000000E+00 -0.19885378730E+04  0.19885378730E+04  0.00000000000E+00 0.  1.
          6    1    1    2  501    0 -0.10471405331E+01 -0.11869714676E+02 -0.38948860336E+03  0.42634769704E+03  0.17300000000E+03 0.  1.
         -6    1    1    2    0  503  0.10471405331E+01  0.11869714676E+02 -0.15758635208E+04  0.15853759248E+04  0.17300000000E+03 0.  1.
<mgrwt>
<rscale>  2 0.17340988E+03</rscale>
<asrwt>0</asrwt>
<pdfrwt beam="1">  1       21 0.35670380E-02 0.17340988E+03</pdfrwt>
<pdfrwt beam="2">  1       21 0.30592893E+00 0.17340988E+03</pdfrwt>
<totfact> 0.15293496E+04</totfact>
</mgrwt>
</event>
<event>
 4    1  0.3980289E+000  0.1966180E+03  0.7546771E-02  0.1152624E+00
         21   -1    0    0  503  502  0.00000000000E+00  0.00000000000E+00  0.58851479977E+03  0.58851479977E+03  0.00000000000E+00 0. -1.
         21   -1    0    0  501  503 -0.00000000000E+00 -0.00000000000E+00 -0.67578806538E+02  0.67578806538E+02  0.00000000000E+00 0.  1.
          6    1    1    2  501    0 -0.93413314724E+02  0.18985462443E+01  0.31533322264E+03  0.37160959776E+03  0.17300000000E+03 0.  1.
         -6    1    1    2    0  502  0.93413314724E+02 -0.18985462443E+01  0.20560277060E+03  0.28448400855E+03  0.17300000000E+03 0.  1.
<mgrwt>
<rscale>  2 0.19661804E+03</rscale>
<asrwt>0</asrwt>
<pdfrwt beam="1">  1       21 0.90540735E-01 0.19661804E+03</pdfrwt>
<pdfrwt beam="2">  1       21 0.10396740E-01 0.19661804E+03</pdfrwt>
<totfact> 0.78344014E+04</totfact>
</mgrwt>
</event>
<event>
 4    1  0.3980289E+000  0.2074888E+03  0.7546771E-02  0.1143570E+00
         21   -1    0    0  503  502  0.00000000000E+00  0.00000000000E+00  0.23618642999E+04  0.23618642999E+04  0.00000000000E+00 0. -1.
         21   -1    0    0  501  503 -0.00000000000E+00 -0.00000000000E+00 -0.24452421509E+02  0.24452421509E+02  0.00000000000E+00 0.  1.
          6    1    1    2  501    0  0.10943149841E+03 -0.33872386533E+02  0.56670993727E+03  0.60349958112E+03  0.17300000000E+03 0.  1.
         -6    1    1    2    0  502 -0.10943149841E+03  0.33872386533E+02  0.17707019411E+04  0.17828171403E+04  0.17300000000E+03 0. -1.
<mgrwt>
<rscale>  2 0.20748877E+03</rscale>
<asrwt>0</asrwt>
<pdfrwt beam="1">  1       21 0.36336356E+00 0.20748877E+03</pdfrwt>
<pdfrwt beam="2">  1       21 0.37619129E-02 0.20748877E+03</pdfrwt>
<totfact> 0.62114733E+03</totfact>
</mgrwt>
</event>
<event>
 4    1  0.3980289E+000  0.1968603E+03  0.7546771E-02  0.1152415E+00
         21   -1    0    0  503  502  0.00000000000E+00  0.00000000000E+00  0.34841574001E+03  0.34841574001E+03  0.00000000000E+00 0. -1.
         21   -1    0    0  501  503 -0.00000000000E+00 -0.00000000000E+00 -0.13221173496E+03  0.13221173496E+03  0.00000000000E+00 0. -1.
          6    1    1    2  501    0  0.54668608226E+02  0.76395898913E+02  0.12366507514E+02  0.19724837288E+03  0.17300000000E+03 0. -1.
         -6    1    1    2    0  502 -0.54668608226E+02 -0.76395898913E+02  0.20383749753E+03  0.28337910208E+03  0.17300000000E+03 0. -1.
<mgrwt>
<rscale>  2 0.19686033E+03</rscale>
<asrwt>0</asrwt>
<pdfrwt beam="1">  1       21 0.53602421E-01 0.19686033E+03</pdfrwt>
<pdfrwt beam="2">  1       21 0.20340267E-01 0.19686033E+03</pdfrwt>
<totfact> 0.73525798E+04</totfact>
</mgrwt>
</event>
<event>
 4    1  0.3980289E+000  0.1895518E+03  0.7546771E-02  0.1158866E+00
         21   -1    0    0  503  502  0.00000000000E+00  0.00000000000E+00  0.40652099801E+03  0.40652099801E+03  0.00000000000E+00 0. -1.
         21   -1    0    0  501  503 -0.00000000000E+00 -0.00000000000E+00 -0.18758297058E+03  0.18758297058E+03  0.00000000000E+00 0. -1.
          6    1    1    2  501    0 -0.71891704997E+02  0.28852195496E+02 -0.10654891428E+03  0.21744548183E+03  0.17300000000E+03 0. -1.
         -6    1    1    2    0  502  0.71891704997E+02 -0.28852195496E+02  0.32548694171E+03  0.37665848677E+03  0.17300000000E+03 0. -1.
<mgrwt>
<rscale>  2 0.18955175E+03</rscale>
<asrwt>0</asrwt>
<pdfrwt beam="1">  1       21 0.62541692E-01 0.18955175E+03</pdfrwt>
<pdfrwt beam="2">  1       21 0.28858919E-01 0.18955175E+03</pdfrwt>
<totfact> 0.27276114E+04</totfact>
</mgrwt>
</event>
<event>
 4    1  0.3980289E+000  0.1983692E+03  0.7546771E-02  0.1151122E+00
         21   -1    0    0  501  502  0.00000000000E+00  0.00000000000E+00  0.22276436379E+04  0.22276436379E+04  0.00000000000E+00 0. -1.
         21   -1    0    0  502  503 -0.00000000000E+00 -0.00000000000E+00 -0.25294041426E+02  0.25294041426E+02  0.00000000000E+00 0. -1.
          6    1    1    2  501    0 -0.87968536989E+02  0.41022863760E+02  0.17198428006E+04  0.17312451004E+04  0.17300000000E+03 0. -1.
         -6    1    1    2    0  503  0.87968536989E+02 -0.41022863760E+02  0.48250679588E+03  0.52169257894E+03  0.17300000000E+03 0. -1.
<mgrwt>
<rscale>  2 0.19836920E+03</rscale>
<asrwt>0</asrwt>
<pdfrwt beam="1">  1       21 0.34271425E+00 0.19836920E+03</pdfrwt>
<pdfrwt beam="2">  1       21 0.38913927E-02 0.19836920E+03</pdfrwt>
<totfact> 0.78665224E+03</totfact>
</mgrwt>
</event>
<event>
 4    1  0.3980289E+000  0.1737285E+03  0.7546771E-02  0.1174014E+00
         21   -1    0    0  501  502  0.00000000000E+00  0.00000000000E+00  0.29157762795E+02  0.29157762795E+02  0.00000000000E+00 0.  1.
         21   -1    0    0  502  503 -0.00000000000E+00 -0.00000000000E+00 -0.11950326064E+04  0.11950326064E+04  0.00000000000E+00 0.  1.
          6    1    1    2  501    0 -0.65484760390E+01 -0.14481871002E+02 -0.35902476323E+03  0.39884882818E+03  0.17300000000E+03 0.  1.
         -6    1    1    2    0  503  0.65484760390E+01  0.14481871002E+02 -0.80685008036E+03  0.82534154100E+03  0.17300000000E+03 0.  1.
<mgrwt>
<rscale>  2 0.17372854E+03</rscale>
<asrwt>0</asrwt>
<pdfrwt beam="1">  1       21 0.44858099E-02 0.17372854E+03</pdfrwt>
<pdfrwt beam="2">  1       21 0.18385116E+00 0.17372854E+03</pdfrwt>
<totfact> 0.56033465E+04</totfact>
</mgrwt>
</event>
<event>
 4    1  0.3980289E+000  0.1915028E+03  0.7546771E-02  0.1157113E+00
         21   -1    0    0  503  502  0.00000000000E+00  0.00000000000E+00  0.11851733064E+03  0.11851733064E+03  0.00000000000E+00 0.  1.
         21   -1    0    0  501  503 -0.00000000000E+00 -0.00000000000E+00 -0.33064690690E+03  0.33064690690E+03  0.00000000000E+00 0.  1.
          6    1    1    2  501    0 -0.71361959669E+02 -0.40642115421E+02 -0.16294895242E+03  0.25144715534E+03  0.17300000000E+03 0.  1.
         -6    1    1    2    0  502  0.71361959669E+02  0.40642115421E+02 -0.49180623839E+02  0.19771708220E+03  0.17300000000E+03 0.  1.
<mgrwt>
<rscale>  2 0.19150277E+03</rscale>
<asrwt>0</asrwt>
<pdfrwt beam="1">  1       21 0.18233436E-01 0.19150277E+03</pdfrwt>
<pdfrwt beam="2">  1       21 0.50868754E-01 0.19150277E+03</pdfrwt>
<totfact> 0.10081861E+05</totfact>
</mgrwt>
</event>
<event>
 4    1  0.3980289E+000  0.2101111E+03  0.7546771E-02  0.1141478E+00
         21   -1    0    0  501  502  0.00000000000E+00  0.00000000000E+00  0.13493706185E+04  0.13493706185E+04  0.00000000000E+00 0. -1.
         21   -1    0    0  502  503 -0.00000000000E+00 -0.00000000000E+00 -0.19499215451E+03  0.19499215451E+03  0.00000000000E+00 0. -1.
          6    1    1    2  501    0  0.87747962304E+02  0.80734030784E+02  0.12816185775E+04  0.12987274028E+04  0.17300000000E+03 0. -1.
         -6    1    1    2    0  503 -0.87747962304E+02 -0.80734030784E+02 -0.12724011350E+03  0.24563537021E+03  0.17300000000E+03 0. -1.
<mgrwt>
<rscale>  2 0.21011113E+03</rscale>
<asrwt>0</asrwt>
<pdfrwt beam="1">  1       21 0.20759547E+00 0.21011113E+03</pdfrwt>
<pdfrwt beam="2">  1       21 0.29998794E-01 0.21011113E+03</pdfrwt>
<totfact> 0.12564301E+03</totfact>
</mgrwt>
</event>
<event>
 4    1  0.3980289E+000  0.2151474E+03  0.7546771E-02  0.1137553E+00
         21   -1    0    0  501  502  0.00000000000E+00  0.00000000000E+00  0.99424622906E+03  0.99424622906E+03  0.00000000000E+00 0.  1.
         21   -1    0    0  502  503 -0.00000000000E+00 -0.00000000000E+00 -0.48547393259E+02  0.48547393259E+02  0.00000000000E+00 0.  1.
          6    1    1    2  501    0 -0.12734060167E+03 -0.11991126008E+02  0.57844172683E+03  0.61715739263E+03  0.17300000000E+03 0.  1.
         -6    1    1    2    0  503  0.12734060167E+03  0.11991126008E+02  0.36725710896E+03  0.42563622969E+03  0.17300000000E+03 0.  1.
<mgrwt>
<rscale>  2 0.21514743E+03</rscale>
<asrwt>0</asrwt>
<pdfrwt beam="1">  1       21 0.15296094E+00 0.21514743E+03</pdfrwt>
<pdfrwt beam="2">  1       21 0.74688305E-02 0.21514743E+03</pdfrwt>
<totfact> 0.37875825E+04</totfact>
</mgrwt>
</event>
<event>
 4    1  0.3980289E+000  0.1922684E+03  0.7546771E-02  0.1156431E+00
         21   -1    0    0  501  502  0.00000000000E+00  0.00000000000E+00  0.17068291706E+03  0.17068291706E+03  0.00000000000E+00 0.  1.
         21   -1    0    0  502  503 -0.00000000000E+00 -0.00000000000E+00 -0.22014393351E+03  0.22014393351E+03  0.00000000000E+00 0.  1.
          6    1    1    2  501    0 -0.48479072439E+02  0.68468283289E+02  0.12051984779E+00  0.19226840824E+03  0.17300000000E+03 0.  1.
         -6    1    1    2    0  503  0.48479072439E+02 -0.68468283289E+02 -0.49581536295E+02  0.19855844233E+03  0.17300000000E+03 0.  1.
<mgrwt>
<rscale>  2 0.19226837E+03</rscale>
<asrwt>0</asrwt>
<pdfrwt beam="1">  1       21 0.26258910E-01 0.19226837E+03</pdfrwt>
<pdfrwt beam="2">  1       21 0.33868297E-01 0.19226837E+03</pdfrwt>
<totfact> 0.11581987E+05</totfact>
</mgrwt>
</event>
<event>
 4    1  0.3980289E+000  0.3681129E+03  0.7546771E-02  0.1055417E+00
         21   -1    0    0  503  502  0.00000000000E+00  0.00000000000E+00  0.91966464990E+03  0.91966464990E+03  0.00000000000E+00 0.  1.
         21   -1    0    0  501  503 -0.00000000000E+00 -0.00000000000E+00 -0.17280203332E+03  0.17280203332E+03  0.00000000000E+00 0. -1.
          6    1    1    2  501    0  0.44215736986E+02 -0.32190540812E+03  0.16377125276E+03  0.40289967288E+03  0.17300000000E+03 0. -1.
         -6    1    1    2    0  502 -0.44215736986E+02  0.32190540812E+03  0.58309136383E+03  0.68956701034E+03  0.17300000000E+03 0.  1.
<mgrwt>
<rscale>  2 0.36811292E+03</rscale>
<asrwt>0</asrwt>
<pdfrwt beam="1">  1       21 0.14148687E+00 0.36811292E+03</pdfrwt>
<pdfrwt beam="2">  1       21 0.26584929E-01 0.36811292E+03</pdfrwt>
<totfact> 0.42107835E+03</totfact>
</mgrwt>
</event>
<event>
 4    1  0.3980289E+000  0.1778237E+03  0.7546771E-02  0.1169926E+00
         21   -1    0    0  503  502  0.00000000000E+00  0.00000000000E+00  0.90819110682E+02  0.90819110682E+02  0.00000000000E+00 0.  1.
         21   -1    0    0  501  503 -0.00000000000E+00 -0.00000000000E+00 -0.56203914154E+03  0.56203914154E+03  0.00000000000E+00 0.  1.
          6    1    1    2  501    0 -0.19459828342E+02  0.36243244817E+02 -0.43696904014E+03  0.47176604345E+03  0.17300000000E+03 0.  1.
         -6    1    1    2    0  502  0.19459828342E+02 -0.36243244817E+02 -0.34250990725E+02  0.18109220878E+03  0.17300000000E+03 0.  1.
<mgrwt>
<rscale>  2 0.17782367E+03</rscale>
<asrwt>0</asrwt>
<pdfrwt beam="1">  1       21 0.13972171E-01 0.17782367E+03</pdfrwt>
<pdfrwt beam="2">  1       21 0.86467559E-01 0.17782367E+03</pdfrwt>
<totfact> 0.51786496E+04</totfact>
</mgrwt>
</event>
<event>
 4    1  0.3980289E+000  0.1836652E+03  0.7546771E-02  0.1164302E+00
         21   -1    0    0  501  502  0.00000000000E+00  0.00000000000E+00  0.32105790970E+03  0.32105790970E+03  0.00000000000E+00 0. -1.
         21   -1    0    0  502  503 -0.00000000000E+00 -0.00000000000E+00 -0.25824366200E+03  0.25824366200E+03  0.00000000000E+00 0. -1.
          6    1    1    2  501    0  0.59951887203E+02 -0.14479984839E+02  0.25448413594E+03  0.31383924896E+03  0.17300000000E+03 0. -1.
         -6    1    1    2    0  503 -0.59951887203E+02  0.14479984839E+02 -0.19166988824E+03  0.26546232275E+03  0.17300000000E+03 0. -1.
<mgrwt>
<rscale>  2 0.18366518E+03</rscale>
<asrwt>0</asrwt>
<pdfrwt beam="1">  1       21 0.49393525E-01 0.18366518E+03</pdfrwt>
<pdfrwt beam="2">  1       21 0.39729794E-01 0.18366518E+03</pdfrwt>
<totfact> 0.23989746E+04</totfact>
</mgrwt>
</event>
<event>
 4    1  0.3980289E+000  0.3834087E+03  0.7546771E-02  0.1049681E+00
         21   -1    0    0  503  502  0.00000000000E+00  0.00000000000E+00  0.24543742103E+03  0.24543742103E+03  0.00000000000E+00 0. -1.
         21   -1    0    0  501  503 -0.00000000000E+00 -0.00000000000E+00 -0.62675184619E+03  0.62675184619E+03  0.00000000000E+00 0.  1.
          6    1    1    2  501    0 -0.56793370015E+02  0.33741337047E+03 -0.28252187035E+03  0.47625715393E+03  0.17300000000E+03 0.  1.
         -6    1    1    2    0  502  0.56793370015E+02 -0.33741337047E+03 -0.98792554815E+02  0.39593211329E+03  0.17300000000E+03 0.  1.
<mgrwt>
<rscale>  2 0.38340875E+03</rscale>
<asrwt>0</asrwt>
<pdfrwt beam="1">  1       21 0.37759603E-01 0.38340875E+03</pdfrwt>
<pdfrwt beam="2">  1       21 0.96423361E-01 0.38340875E+03</pdfrwt>
<totfact> 0.54509456E+03</totfact>
</mgrwt>
</event>
<event>
 4    1  0.3980289E+000  0.2546384E+03  0.7546771E-02  0.1110408E+00
         21   -1    0    0  501  502  0.00000000000E+00  0.00000000000E+00  0.14643777908E+03  0.14643777908E+03  0.00000000000E+00 0. -1.
         21   -1    0    0  502  503 -0.00000000000E+00 -0.00000000000E+00 -0.48822815315E+03  0.48822815315E+03  0.00000000000E+00 0.  1.
          6    1    1    2  501    0  0.10788418594E+03 -0.15255390987E+03 -0.74082974176E+02  0.26519611621E+03  0.17300000000E+03 0.  1.
         -6    1    1    2    0  503 -0.10788418594E+03  0.15255390987E+03 -0.26770739990E+03  0.36946981602E+03  0.17300000000E+03 0. -1.
<mgrwt>
<rscale>  2 0.25463836E+03</rscale>
<asrwt>0</asrwt>
<pdfrwt beam="1">  1       21 0.22528889E-01 0.25463836E+03</pdfrwt>
<pdfrwt beam="2">  1       21 0.75112023E-01 0.25463836E+03</pdfrwt>
<totfact> 0.28340425E+04</totfact>
</mgrwt>
</event>
<event>
 4    1  0.3980289E+000  0.1760311E+03  0.7546771E-02  0.1171700E+00
         21   -1    0    0  501  502  0.00000000000E+00  0.00000000000E+00  0.18575106395E+02  0.18575106395E+02  0.00000000000E+00 0.  1.
         21   -1    0    0  502  503 -0.00000000000E+00 -0.00000000000E+00 -0.17027006570E+04  0.17027006570E+04  0.00000000000E+00 0.  1.
          6    1    1    2  501    0  0.35730182009E+00  0.32524198808E+02 -0.71955067436E+03  0.74076995359E+03  0.17300000000E+03 0.  1.
         -6    1    1    2    0  503 -0.35730182009E+00 -0.32524198808E+02 -0.96457487622E+03  0.98050580978E+03  0.17300000000E+03 0.  1.
<mgrwt>
<rscale>  2 0.17603111E+03</rscale>
<asrwt>0</asrwt>
<pdfrwt beam="1">  1       21 0.28577084E-02 0.17603111E+03</pdfrwt>
<pdfrwt beam="2">  1       21 0.26195398E+00 0.17603111E+03</pdfrwt>
<totfact> 0.39367503E+04</totfact>
</mgrwt>
</event>
<event>
 4    1  0.3980289E+000  0.3292356E+03  0.7546771E-02  0.1071476E+00
         21   -1    0    0  501  502  0.00000000000E+00  0.00000000000E+00  0.53889733647E+03  0.53889733647E+03  0.00000000000E+00 0. -1.
         21   -1    0    0  502  503 -0.00000000000E+00 -0.00000000000E+00 -0.74730823846E+03  0.74730823846E+03  0.00000000000E+00 0. -1.
          6    1    1    2  501    0 -0.17822311560E+03 -0.21611020440E+03  0.44557847537E+03  0.55401830033E+03  0.17300000000E+03 0. -1.
         -6    1    1    2    0  503  0.17822311560E+03  0.21611020440E+03 -0.65398937736E+03  0.73218727460E+03  0.17300000000E+03 0. -1.
<mgrwt>
<rscale>  2 0.32923563E+03</rscale>
<asrwt>0</asrwt>
<pdfrwt beam="1">  1       21 0.82907283E-01 0.32923563E+03</pdfrwt>
<pdfrwt beam="2">  1       21 0.11497050E+00 0.32923563E+03</pdfrwt>
<totfact> 0.66601203E+02</totfact>
</mgrwt>
</event>
<event>
 4    1  0.3980289E+000  0.2064641E+03  0.7546771E-02  0.1144397E+00
         21   -1    0    0  503  502  0.00000000000E+00  0.00000000000E+00  0.92688546139E+02  0.92688546139E+02  0.00000000000E+00 0. -1.
         21   -1    0    0  501  503 -0.00000000000E+00 -0.00000000000E+00 -0.47661659107E+03  0.47661659107E+03  0.00000000000E+00 0.  1.
          6    1    1    2  501    0 -0.19984191549E+02 -0.11090112181E+03 -0.24527410846E+03  0.32060382875E+03  0.17300000000E+03 0. -1.
         -6    1    1    2    0  502  0.19984191549E+02  0.11090112181E+03 -0.13865393648E+03  0.24870130846E+03  0.17300000000E+03 0.  1.
<mgrwt>
<rscale>  2 0.20646411E+03</rscale>
<asrwt>0</asrwt>
<pdfrwt beam="1">  1       21 0.14259776E-01 0.20646411E+03</pdfrwt>
<pdfrwt beam="2">  1       21 0.73325629E-01 0.20646411E+03</pdfrwt>
<totfact> 0.71457511E+04</totfact>
</mgrwt>
</event>
<event>
 4    1  0.3980289E+000  0.1976430E+03  0.7546771E-02  0.1151743E+00
         21   -1    0    0  501  502  0.00000000000E+00  0.00000000000E+00  0.16753087652E+03  0.16753087652E+03  0.00000000000E+00 0. -1.
         21   -1    0    0  502  503 -0.00000000000E+00 -0.00000000000E+00 -0.24117168464E+03  0.24117168464E+03  0.00000000000E+00 0.  1.
          6    1    1    2  501    0  0.10436721992E+02 -0.94999140909E+02  0.40776999327E+00  0.19764343707E+03  0.17300000000E+03 0. -1.
         -6    1    1    2    0  503 -0.10436721992E+02  0.94999140909E+02 -0.74048578119E+02  0.21105912409E+03  0.17300000000E+03 0.  1.
<mgrwt>
<rscale>  2 0.19764302E+03</rscale>
<asrwt>0</asrwt>
<pdfrwt beam="1">  1       21 0.25773981E-01 0.19764302E+03</pdfrwt>
<pdfrwt beam="2">  1       21 0.37103336E-01 0.19764302E+03</pdfrwt>
<totfact> 0.99904945E+04</totfact>
</mgrwt>
</event>
<event>
 4    1  0.3980289E+000  0.2805178E+03  0.7546771E-02  0.1095406E+00
         21   -1    0    0  501  502  0.00000000000E+00  0.00000000000E+00  0.18962812616E+03  0.18962812616E+03  0.00000000000E+00 0. -1.
         21   -1    0    0  502  503 -0.00000000000E+00 -0.00000000000E+00 -0.59317277190E+03  0.59317277190E+03  0.00000000000E+00 0.  1.
          6    1    1    2  501    0  0.18733723301E+03  0.11690160810E+03  0.12756866882E+02  0.28080769665E+03  0.17300000000E+03 0. -1.
         -6    1    1    2    0  503 -0.18733723301E+03 -0.11690160810E+03 -0.41630151262E+03  0.50199320141E+03  0.17300000000E+03 0.  1.
<mgrwt>
<rscale>  2 0.28051778E+03</rscale>
<asrwt>0</asrwt>
<pdfrwt beam="1">  1       21 0.29173558E-01 0.28051778E+03</pdfrwt>
<pdfrwt beam="2">  1       21 0.91257349E-01 0.28051778E+03</pdfrwt>
<totfact> 0.10872236E+04</totfact>
</mgrwt>
</event>
<event>
 4    1  0.3980289E+000  0.2182473E+03  0.7546771E-02  0.1135197E+00
         21   -1    0    0  503  502  0.00000000000E+00  0.00000000000E+00  0.34330586962E+03  0.34330586962E+03  0.00000000000E+00 0.  1.
         21   -1    0    0  501  503 -0.00000000000E+00 -0.00000000000E+00 -0.32346962000E+03  0.32346962000E+03  0.00000000000E+00 0.  1.
          6    1    1    2  501    0  0.19502180529E+02 -0.13161509867E+03 -0.24202100670E+03  0.32589267701E+03  0.17300000000E+03 0.  1.
         -6    1    1    2    0  502 -0.19502180529E+02  0.13161509867E+03  0.26185725632E+03  0.34088281261E+03  0.17300000000E+03 0.  1.
<mgrwt>
<rscale>  2 0.21824727E+03</rscale>
<asrwt>0</asrwt>
<pdfrwt beam="1">  1       21 0.52816287E-01 0.21824727E+03</pdfrwt>
<pdfrwt beam="2">  1       21 0.49764557E-01 0.21824727E+03</pdfrwt>
<totfact> 0.12861821E+04</totfact>
</mgrwt>
</event>
<event>
 4    1  0.3980289E+000  0.2297954E+03  0.7546771E-02  0.1126784E+00
         21   -1    0    0  501  502  0.00000000000E+00  0.00000000000E+00  0.15761516142E+03  0.15761516142E+03  0.00000000000E+00 0. -1.
         21   -1    0    0  502  503 -0.00000000000E+00 -0.00000000000E+00 -0.34769388223E+03  0.34769388223E+03  0.00000000000E+00 0.  1.
          6    1    1    2  501    0 -0.14820357500E+03 -0.30209778933E+02 -0.46822534653E+02  0.23451712121E+03  0.17300000000E+03 0.  1.
         -6    1    1    2    0  503  0.14820357500E+03  0.30209778933E+02 -0.14325618616E+03  0.27079192244E+03  0.17300000000E+03 0. -1.
<mgrwt>
<rscale>  2 0.22979541E+03</rscale>
<asrwt>0</asrwt>
<pdfrwt beam="1">  1       21 0.24248487E-01 0.22979541E+03</pdfrwt>
<pdfrwt beam="2">  1       21 0.53491365E-01 0.22979541E+03</pdfrwt>
<totfact> 0.52202815E+04</totfact>
</mgrwt>
</event>
<event>
 4    1  0.3980289E+000  0.1812291E+03  0.7546771E-02  0.1166619E+00
         21   -1    0    0  501  502  0.00000000000E+00  0.00000000000E+00  0.48699710336E+02  0.48699710336E+02  0.00000000000E+00 0.  1.
         21   -1    0    0  502  503 -0.00000000000E+00 -0.00000000000E+00 -0.70908478451E+03  0.70908478451E+03  0.00000000000E+00 0.  1.
          6    1    1    2  501    0  0.53588565043E+02 -0.65761612997E+01 -0.24641627516E+03  0.30588390096E+03  0.17300000000E+03 0.  1.
         -6    1    1    2    0  503 -0.53588565043E+02  0.65761612997E+01 -0.41396879902E+03  0.45190059389E+03  0.17300000000E+03 0.  1.
<mgrwt>
<rscale>  2 0.18122908E+03</rscale>
<asrwt>0</asrwt>
<pdfrwt beam="1">  1       21 0.74922631E-02 0.18122908E+03</pdfrwt>
<pdfrwt beam="2">  1       21 0.10908997E+00 0.18122908E+03</pdfrwt>
<totfact> 0.90057651E+04</totfact>
</mgrwt>
</event>
<event>
 4    1  0.3980289E+000  0.3328163E+03  0.7546771E-02  0.1069898E+00
         21   -1    0    0  501  502  0.00000000000E+00  0.00000000000E+00  0.99114642383E+02  0.99114642383E+02  0.00000000000E+00 0. -1.
         21   -1    0    0  502  503 -0.00000000000E+00 -0.00000000000E+00 -0.16398219291E+04  0.16398219291E+04  0.00000000000E+00 0. -1.
          6    1    1    2  501    0 -0.37482956512E+02 -0.28183805109E+03 -0.27967272639E+03  0.43472231707E+03  0.17300000000E+03 0. -1.
         -6    1    1    2    0  503  0.37482956512E+02  0.28183805109E+03 -0.12610345603E+04  0.13042142544E+04  0.17300000000E+03 0. -1.
<mgrwt>
<rscale>  2 0.33281625E+03</rscale>
<asrwt>0</asrwt>
<pdfrwt beam="1">  1       21 0.15248407E-01 0.33281625E+03</pdfrwt>
<pdfrwt beam="2">  1       21 0.25228029E+00 0.33281625E+03</pdfrwt>
<totfact> 0.21766852E+03</totfact>
</mgrwt>
</event>
<event>
 4    1  0.3980289E+000  0.1886137E+03  0.7546771E-02  0.1159718E+00
         21   -1    0    0  503  502  0.00000000000E+00  0.00000000000E+00  0.62288937683E+02  0.62288937683E+02  0.00000000000E+00 0.  1.
         21   -1    0    0  501  503 -0.00000000000E+00 -0.00000000000E+00 -0.59877206969E+03  0.59877206969E+03  0.00000000000E+00 0.  1.
          6    1    1    2  501    0 -0.73920134287E+02 -0.13488202634E+02 -0.33925841607E+03  0.38816412860E+03  0.17300000000E+03 0.  1.
         -6    1    1    2    0  502  0.73920134287E+02  0.13488202634E+02 -0.19722471594E+03  0.27289687877E+03  0.17300000000E+03 0.  1.
<mgrwt>
<rscale>  2 0.18861367E+03</rscale>
<asrwt>0</asrwt>
<pdfrwt beam="1">  1       21 0.95829133E-02 0.18861367E+03</pdfrwt>
<pdfrwt beam="2">  1       21 0.92118782E-01 0.18861367E+03</pdfrwt>
<totfact> 0.87222129E+04</totfact>
</mgrwt>
</event>
<event>
 4    1  0.3980289E+000  0.2420767E+03  0.7546771E-02  0.1118417E+00
         21   -1    0    0  503  502  0.00000000000E+00  0.00000000000E+00  0.23839777134E+03  0.23839777134E+03  0.00000000000E+00 0.  1.
         21   -1    0    0  501  503 -0.00000000000E+00 -0.00000000000E+00 -0.24594526727E+03  0.24594526727E+03  0.00000000000E+00 0. -1.
          6    1    1    2  501    0  0.12884102959E+03 -0.10987328746E+03 -0.94005653886E+01  0.24225920175E+03  0.17300000000E+03 0.  1.
         -6    1    1    2    0  502 -0.12884102959E+03  0.10987328746E+03  0.18530694600E+01  0.24208383686E+03  0.17300000000E+03 0. -1.
<mgrwt>
<rscale>  2 0.24207674E+03</rscale>
<asrwt>0</asrwt>
<pdfrwt beam="1">  1       21 0.36676580E-01 0.24207674E+03</pdfrwt>
<pdfrwt beam="2">  1       21 0.37837733E-01 0.24207674E+03</pdfrwt>
<totfact> 0.47215181E+04</totfact>
</mgrwt>
</event>
<event>
 4    1  0.3980289E+000  0.1941206E+03  0.7546771E-02  0.1154796E+00
         21   -1    0    0  503  502  0.00000000000E+00  0.00000000000E+00  0.55876700801E+02  0.55876700801E+02  0.00000000000E+00 0.  1.
         21   -1    0    0  501  503 -0.00000000000E+00 -0.00000000000E+00 -0.79462462620E+03  0.79462462620E+03  0.00000000000E+00 0.  1.
          6    1    1    2  501    0 -0.55289223114E+02 -0.68533890234E+02 -0.53478915932E+03  0.56893078422E+03  0.17300000000E+03 0.  1.
         -6    1    1    2    0  502  0.55289223114E+02  0.68533890234E+02 -0.20395876608E+03  0.28157054278E+03  0.17300000000E+03 0.  1.
<mgrwt>
<rscale>  2 0.19412056E+03</rscale>
<asrwt>0</asrwt>
<pdfrwt beam="1">  1       21 0.85964157E-02 0.19412056E+03</pdfrwt>
<pdfrwt beam="2">  1       21 0.12224994E+00 0.19412056E+03</pdfrwt>
<totfact> 0.53340510E+04</totfact>
</mgrwt>
</event>
<event>
 4    1  0.3980289E+000  0.1875584E+03  0.7546771E-02  0.1160682E+00
         21   -1    0    0  501  502  0.00000000000E+00  0.00000000000E+00  0.84769330071E+03  0.84769330071E+03  0.00000000000E+00 0. -1.
         21   -1    0    0  502  503 -0.00000000000E+00 -0.00000000000E+00 -0.86859322437E+02  0.86859322437E+02  0.00000000000E+00 0. -1.
          6    1    1    2  501    0  0.94642981931E+01  0.71830126948E+02  0.71809689497E+03  0.74218683002E+03  0.17300000000E+03 0. -1.
         -6    1    1    2    0  503 -0.94642981931E+01 -0.71830126948E+02  0.42737083297E+02  0.19236579313E+03  0.17300000000E+03 0. -1.
<mgrwt>
<rscale>  2 0.18755836E+03</rscale>
<asrwt>0</asrwt>
<pdfrwt beam="1">  1       21 0.13041435E+00 0.18755836E+03</pdfrwt>
<pdfrwt beam="2">  1       21 0.13362973E-01 0.18755836E+03</pdfrwt>
<totfact> 0.20808188E+04</totfact>
</mgrwt>
</event>
<event>
 4    1  0.3980289E+000  0.1961570E+03  0.7546771E-02  0.1153022E+00
         21   -1    0    0  501  502  0.00000000000E+00  0.00000000000E+00  0.49421615620E+03  0.49421615620E+03  0.00000000000E+00 0. -1.
         21   -1    0    0  502  503 -0.00000000000E+00 -0.00000000000E+00 -0.89237817096E+02  0.89237817096E+02  0.00000000000E+00 0.  1.
          6    1    1    2  501    0  0.17711950088E+02  0.90746156528E+02  0.30667589194E+03  0.36404351498E+03  0.17300000000E+03 0. -1.
         -6    1    1    2    0  503 -0.17711950088E+02 -0.90746156528E+02  0.98302447161E+02  0.21941045832E+03  0.17300000000E+03 0.  1.
<mgrwt>
<rscale>  2 0.19615702E+03</rscale>
<asrwt>0</asrwt>
<pdfrwt beam="1">  1       21 0.76033253E-01 0.19615702E+03</pdfrwt>
<pdfrwt beam="2">  1       21 0.13728895E-01 0.19615702E+03</pdfrwt>
<totfact> 0.70922982E+04</totfact>
</mgrwt>
</event>
<event>
 4    1  0.3980289E+000  0.1805913E+03  0.7546771E-02  0.1167232E+00
         21   -1    0    0  503  502  0.00000000000E+00  0.00000000000E+00  0.13968997875E+04  0.13968997875E+04  0.00000000000E+00 0. -1.
         21   -1    0    0  501  503 -0.00000000000E+00 -0.00000000000E+00 -0.57260420025E+02  0.57260420025E+02  0.00000000000E+00 0. -1.
          6    1    1    2  501    0 -0.39120107285E+02 -0.33968017338E+02  0.11026600625E+03  0.21159348083E+03  0.17300000000E+03 0. -1.
         -6    1    1    2    0  502  0.39120107285E+02  0.33968017338E+02  0.12293733612E+04  0.12425667267E+04  0.17300000000E+03 0. -1.
<mgrwt>
<rscale>  2 0.18059128E+03</rscale>
<asrwt>0</asrwt>
<pdfrwt beam="1">  1       21 0.21490763E+00 0.18059128E+03</pdfrwt>
<pdfrwt beam="2">  1       21 0.88092964E-02 0.18059128E+03</pdfrwt>
<totfact> 0.11084891E+04</totfact>
</mgrwt>
</event>
<event>
 4    1  0.3980289E+000  0.2373037E+03  0.7546771E-02  0.1121602E+00
         21   -1    0    0  503  502  0.00000000000E+00  0.00000000000E+00  0.32739622786E+03  0.32739622786E+03  0.00000000000E+00 0.  1.
         21   -1    0    0  501  503 -0.00000000000E+00 -0.00000000000E+00 -0.19606062621E+03  0.19606062621E+03  0.00000000000E+00 0.  1.
          6    1    1    2  501    0 -0.16231878776E+03  0.60534902495E+01 -0.26014359807E+02  0.23872532442E+03  0.17300000000E+03 0.  1.
         -6    1    1    2    0  502  0.16231878776E+03 -0.60534902495E+01  0.15734996146E+03  0.28473152965E+03  0.17300000000E+03 0.  1.
<mgrwt>
<rscale>  2 0.23730367E+03</rscale>
<asrwt>0</asrwt>
<pdfrwt beam="1">  1       21 0.50368650E-01 0.23730367E+03</pdfrwt>
<pdfrwt beam="2">  1       21 0.30163173E-01 0.23730367E+03</pdfrwt>
<totfact> 0.38717084E+04</totfact>
</mgrwt>
</event>
<event>
 4    1  0.3980289E+000  0.2121661E+03  0.7546771E-02  0.1139862E+00
         21   -1    0    0  501  502  0.00000000000E+00  0.00000000000E+00  0.78729565211E+02  0.78729565211E+02  0.00000000000E+00 0. -1.
         21   -1    0    0  502  503 -0.00000000000E+00 -0.00000000000E+00 -0.58937547493E+03  0.58937547493E+03  0.00000000000E+00 0.  1.
          6    1    1    2  501    0 -0.19048734879E+02 -0.12133666555E+03 -0.31307429464E+03  0.37819301246E+03  0.17300000000E+03 0. -1.
         -6    1    1    2    0  503  0.19048734879E+02  0.12133666555E+03 -0.19757161507E+03  0.28991202768E+03  0.17300000000E+03 0.  1.
<mgrwt>
<rscale>  2 0.21216607E+03</rscale>
<asrwt>0</asrwt>
<pdfrwt beam="1">  1       21 0.12112241E-01 0.21216607E+03</pdfrwt>
<pdfrwt beam="2">  1       21 0.90673146E-01 0.21216607E+03</pdfrwt>
<totfact> 0.59038177E+04</totfact>
</mgrwt>
</event>
<event>
 4    1  0.3980289E+000  0.1840892E+03  0.7546771E-02  0.1163903E+00
         21   -1    0    0  503  502  0.00000000000E+00  0.00000000000E+00  0.17847052043E+03  0.17847052043E+03  0.00000000000E+00 0. -1.
         21   -1    0    0  501  503 -0.00000000000E+00 -0.00000000000E+00 -0.35887474745E+03  0.35887474745E+03  0.00000000000E+00 0. -1.
          6    1    1    2  501    0 -0.14989626255E+02  0.61115946724E+02 -0.27456875965E+03  0.33057049417E+03  0.17300000000E+03 0. -1.
         -6    1    1    2    0  502  0.14989626255E+02 -0.61115946724E+02  0.94164532625E+02  0.20677477371E+03  0.17300000000E+03 0. -1.
<mgrwt>
<rscale>  2 0.18408924E+03</rscale>
<asrwt>0</asrwt>
<pdfrwt beam="1">  1       21 0.27457004E-01 0.18408924E+03</pdfrwt>
<pdfrwt beam="2">  1       21 0.55211499E-01 0.18408924E+03</pdfrwt>
<totfact> 0.39317121E+04</totfact>
</mgrwt>
</event>
<event>
 4    1  0.3980289E+000  0.1817697E+03  0.7546771E-02  0.1166101E+00
         21   -1    0    0  501  502  0.00000000000E+00  0.00000000000E+00  0.63726901725E+02  0.63726901725E+02  0.00000000000E+00 0.  1.
         21   -1    0    0  502  503 -0.00000000000E+00 -0.00000000000E+00 -0.59812598426E+03  0.59812598426E+03  0.00000000000E+00 0.  1.
          6    1    1    2  501    0  0.53246930474E+02  0.16613374190E+02 -0.14643069893E+03  0.23341420136E+03  0.17300000000E+03 0.  1.
         -6    1    1    2    0  503 -0.53246930474E+02 -0.16613374190E+02 -0.38796838361E+03  0.42843868463E+03  0.17300000000E+03 0.  1.
<mgrwt>
<rscale>  2 0.18176974E+03</rscale>
<asrwt>0</asrwt>
<pdfrwt beam="1">  1       21 0.98041388E-02 0.18176974E+03</pdfrwt>
<pdfrwt beam="2">  1       21 0.92019381E-01 0.18176974E+03</pdfrwt>
<totfact> 0.84238185E+04</totfact>
</mgrwt>
</event>
<event>
 4    1  0.3980289E+000  0.1945013E+03  0.7546771E-02  0.1154463E+00
         21   -1    0    0  501  502  0.00000000000E+00  0.00000000000E+00  0.68748012347E+02  0.68748012347E+02  0.00000000000E+00 0.  1.
         21   -1    0    0  502  503 -0.00000000000E+00 -0.00000000000E+00 -0.76427793618E+03  0.76427793618E+03  0.00000000000E+00 0. -1.
          6    1    1    2  501    0 -0.14175774978E+02 -0.87754161825E+02 -0.12736762239E+03  0.23249356281E+03  0.17300000000E+03 0. -1.
         -6    1    1    2    0  503  0.14175774978E+02  0.87754161825E+02 -0.56816230145E+03  0.60053238572E+03  0.17300000000E+03 0. -1.
<mgrwt>
<rscale>  2 0.19450127E+03</rscale>
<asrwt>0</asrwt>
<pdfrwt beam="1">  1       21 0.10576618E-01 0.19450127E+03</pdfrwt>
<pdfrwt beam="2">  1       21 0.11758122E+00 0.19450127E+03</pdfrwt>
<totfact> 0.40764542E+04</totfact>
</mgrwt>
</event>
<event>
 4    1  0.3980289E+000  0.1793173E+03  0.7546771E-02  0.1168465E+00
         21   -1    0    0  501  502  0.00000000000E+00  0.00000000000E+00  0.58101322694E+02  0.58101322694E+02  0.00000000000E+00 0. -1.
         21   -1    0    0  502  503 -0.00000000000E+00 -0.00000000000E+00 -0.69025960290E+03  0.69025960290E+03  0.00000000000E+00 0.  1.
          6    1    1    2  501    0  0.45954476595E+02 -0.10670781026E+02 -0.14947949304E+03  0.23344977688E+03  0.17300000000E+03 0.  1.
         -6    1    1    2    0  503 -0.45954476595E+02  0.10670781026E+02 -0.48267878717E+03  0.51491114871E+03  0.17300000000E+03 0.  1.
<mgrwt>
<rscale>  2 0.17931726E+03</rscale>
<asrwt>0</asrwt>
<pdfrwt beam="1">  1       21 0.89386656E-02 0.17931726E+03</pdfrwt>
<pdfrwt beam="2">  1       21 0.10619378E+00 0.17931726E+03</pdfrwt>
<totfact> 0.70727346E+04</totfact>
</mgrwt>
</event>
<event>
 4    1  0.3980289E+000  0.2076320E+03  0.7546771E-02  0.1143455E+00
         21   -1    0    0  501  502  0.00000000000E+00  0.00000000000E+00  0.23007136976E+02  0.23007136976E+02  0.00000000000E+00 0. -1.
         21   -1    0    0  502  503 -0.00000000000E+00 -0.00000000000E+00 -0.18757955359E+04  0.18757955359E+04  0.00000000000E+00 0. -1.
          6    1    1    2  501    0  0.45605461879E+02  0.10536697665E+03 -0.89552422006E+03  0.91927943882E+03  0.17300000000E+03 0. -1.
         -6    1    1    2    0  503 -0.45605461879E+02 -0.10536697665E+03 -0.95726417885E+03  0.97952323404E+03  0.17300000000E+03 0. -1.
<mgrwt>
<rscale>  2 0.20763203E+03</rscale>
<asrwt>0</asrwt>
<pdfrwt beam="1">  1       21 0.35395597E-02 0.20763203E+03</pdfrwt>
<pdfrwt beam="2">  1       21 0.28858392E+00 0.20763203E+03</pdfrwt>
<totfact> 0.18821022E+04</totfact>
</mgrwt>
</event>
<event>
 4    1  0.3980289E+000  0.1967648E+03  0.7546771E-02  0.1152498E+00
         21   -1    0    0  503  502  0.00000000000E+00  0.00000000000E+00  0.37580033415E+03  0.37580033415E+03  0.00000000000E+00 0.  1.
         21   -1    0    0  501  503 -0.00000000000E+00 -0.00000000000E+00 -0.12012570696E+03  0.12012570696E+03  0.00000000000E+00 0. -1.
          6    1    1    2  501    0 -0.19395770118E+02 -0.91712611645E+02  0.34277248677E+02  0.19972813725E+03  0.17300000000E+03 0. -1.
         -6    1    1    2    0  502  0.19395770118E+02  0.91712611645E+02  0.22139737851E+03  0.29619790385E+03  0.17300000000E+03 0.  1.
<mgrwt>
<rscale>  2 0.19676483E+03</rscale>
<asrwt>0</asrwt>
<pdfrwt beam="1">  1       21 0.57815436E-01 0.19676483E+03</pdfrwt>
<pdfrwt beam="2">  1       21 0.18480878E-01 0.19676483E+03</pdfrwt>
<totfact> 0.74875416E+04</totfact>
</mgrwt>
</event>
<event>
 4    1  0.3980289E+000  0.2316969E+03  0.7546771E-02  0.1125451E+00
         21   -1    0    0  501  502  0.00000000000E+00  0.00000000000E+00  0.11949440177E+03  0.11949440177E+03  0.00000000000E+00 0. -1.
         21   -1    0    0  502  503 -0.00000000000E+00 -0.00000000000E+00 -0.45784297882E+03  0.45784297882E+03  0.00000000000E+00 0. -1.
          6    1    1    2  501    0  0.95351502583E+00 -0.15412180261E+03 -0.12963846919E+03  0.26549872302E+03  0.17300000000E+03 0. -1.
         -6    1    1    2    0  503 -0.95351502583E+00  0.15412180261E+03 -0.20871010786E+03  0.31183865757E+03  0.17300000000E+03 0. -1.
<mgrwt>
<rscale>  2 0.23169687E+03</rscale>
<asrwt>0</asrwt>
<pdfrwt beam="1">  1       21 0.18383754E-01 0.23169687E+03</pdfrwt>
<pdfrwt beam="2">  1       21 0.70437382E-01 0.23169687E+03</pdfrwt>
<totfact> 0.48444488E+04</totfact>
</mgrwt>
</event>
<event>
 4    1  0.3980289E+000  0.1804375E+03  0.7546771E-02  0.1167380E+00
         21   -1    0    0  503  502  0.00000000000E+00  0.00000000000E+00  0.71689814795E+03  0.71689814795E+03  0.00000000000E+00 0. -1.
         21   -1    0    0  501  503 -0.00000000000E+00 -0.00000000000E+00 -0.59219006044E+02  0.59219006044E+02  0.00000000000E+00 0. -1.
          6    1    1    2  501    0 -0.12314341447E+02  0.49769996927E+02  0.14148062682E+03  0.22929121955E+03  0.17300000000E+03 0. -1.
         -6    1    1    2    0  502  0.12314341447E+02 -0.49769996927E+02  0.51619851509E+03  0.54682593444E+03  0.17300000000E+03 0. -1.
<mgrwt>
<rscale>  2 0.18043751E+03</rscale>
<asrwt>0</asrwt>
<pdfrwt beam="1">  1       21 0.11029202E+00 0.18043751E+03</pdfrwt>
<pdfrwt beam="2">  1       21 0.91106168E-02 0.18043751E+03</pdfrwt>
<totfact> 0.62409798E+04</totfact>
</mgrwt>
</event>
<event>
 4    1  0.3980289E+000  0.1803727E+03  0.7546771E-02  0.1167443E+00
         21   -1    0    0  501  502  0.00000000000E+00  0.00000000000E+00  0.17083120091E+03  0.17083120091E+03  0.00000000000E+00 0.  1.
         21   -1    0    0  502  503 -0.00000000000E+00 -0.00000000000E+00 -0.29459762680E+03  0.29459762680E+03  0.00000000000E+00 0.  1.
          6    1    1    2  501    0 -0.43635757678E+02 -0.26481091957E+02  0.76485895720E+02  0.19591942176E+03  0.17300000000E+03 0.  1.
         -6    1    1    2    0  503  0.43635757678E+02  0.26481091957E+02 -0.20025232162E+03  0.26950940594E+03  0.17300000000E+03 0.  1.
<mgrwt>
<rscale>  2 0.18037275E+03</rscale>
<asrwt>0</asrwt>
<pdfrwt beam="1">  1       21 0.26281723E-01 0.18037275E+03</pdfrwt>
<pdfrwt beam="2">  1       21 0.45322712E-01 0.18037275E+03</pdfrwt>
<totfact> 0.64618650E+04</totfact>
</mgrwt>
</event>
<event>
 4    1  0.3980289E+000  0.2469026E+03  0.7546771E-02  0.1115278E+00
         21   -1    0    0  501  502  0.00000000000E+00  0.00000000000E+00  0.26497730140E+03  0.26497730140E+03  0.00000000000E+00 0.  1.
         21   -1    0    0  502  503 -0.00000000000E+00 -0.00000000000E+00 -0.41741117117E+03  0.41741117117E+03  0.00000000000E+00 0. -1.
          6    1    1    2  501    0 -0.13555317699E+02 -0.17563646510E+03  0.15236758904E+03  0.29013237789E+03  0.17300000000E+03 0.  1.
         -6    1    1    2    0  503  0.13555317699E+02  0.17563646510E+03 -0.30480145881E+03  0.39225609467E+03  0.17300000000E+03 0. -1.
<mgrwt>
<rscale>  2 0.24690264E+03</rscale>
<asrwt>0</asrwt>
<pdfrwt beam="1">  1       21 0.40765738E-01 0.24690264E+03</pdfrwt>
<pdfrwt beam="2">  1       21 0.64217104E-01 0.24690264E+03</pdfrwt>
<totfact> 0.12554392E+04</totfact>
</mgrwt>
</event>
<event>
 4    1  0.3980289E+000  0.4340467E+03  0.7546771E-02  0.1032589E+00
         21   -1    0    0  501  502  0.00000000000E+00  0.00000000000E+00  0.11282733520E+03  0.11282733520E+03  0.00000000000E+00 0. -1.
         21   -1    0    0  502  503 -0.00000000000E+00 -0.00000000000E+00 -0.18539267588E+04  0.18539267588E+04  0.00000000000E+00 0.  1.
          6    1    1    2  501    0  0.21594038266E+03 -0.33442078991E+03 -0.56062293192E+03  0.70900958060E+03  0.17300000000E+03 0. -1.
         -6    1    1    2    0  503 -0.21594038266E+03  0.33442078991E+03 -0.11804764917E+04  0.12577445134E+04  0.17300000000E+03 0.  1.
<mgrwt>
<rscale>  2 0.43404667E+03</rscale>
<asrwt>0</asrwt>
<pdfrwt beam="1">  1       21 0.17358052E-01 0.43404667E+03</pdfrwt>
<pdfrwt beam="2">  1       21 0.28521950E+00 0.43404667E+03</pdfrwt>
<totfact> 0.10206390E+03</totfact>
</mgrwt>
</event>
<event>
 4    1  0.3980289E+000  0.1741520E+03  0.7546771E-02  0.1173586E+00
         21   -1    0    0  501  502  0.00000000000E+00  0.00000000000E+00  0.19074918288E+03  0.19074918288E+03  0.00000000000E+00 0. -1.
         21   -1    0    0  502  503 -0.00000000000E+00 -0.00000000000E+00 -0.18135595592E+03  0.18135595592E+03  0.00000000000E+00 0. -1.
          6    1    1    2  501    0  0.19532800116E+02  0.42869627670E+01  0.70021274557E+02  0.18770159088E+03  0.17300000000E+03 0. -1.
         -6    1    1    2    0  503 -0.19532800116E+02 -0.42869627670E+01 -0.60628047597E+02  0.18440354792E+03  0.17300000000E+03 0. -1.
<mgrwt>
<rscale>  2 0.17415197E+03</rscale>
<asrwt>0</asrwt>
<pdfrwt beam="1">  1       21 0.29346028E-01 0.17415197E+03</pdfrwt>
<pdfrwt beam="2">  1       21 0.27900916E-01 0.17415197E+03</pdfrwt>
<totfact> 0.13730463E+05</totfact>
</mgrwt>
</event>
<event>
 4    1  0.3980289E+000  0.1812841E+03  0.7546771E-02  0.1166566E+00
         21   -1    0    0  501  502  0.00000000000E+00  0.00000000000E+00  0.18259945118E+03  0.18259945118E+03  0.00000000000E+00 0. -1.
         21   -1    0    0  502  503 -0.00000000000E+00 -0.00000000000E+00 -0.18204599607E+03  0.18204599607E+03  0.00000000000E+00 0. -1.
          6    1    1    2  501    0 -0.53209323662E+02 -0.10183104302E+02  0.19707942226E+02  0.18235221612E+03  0.17300000000E+03 0. -1.
         -6    1    1    2    0  503  0.53209323662E+02  0.10183104302E+02 -0.19154487117E+02  0.18229323113E+03  0.17300000000E+03 0. -1.
<mgrwt>
<rscale>  2 0.18128411E+03</rscale>
<asrwt>0</asrwt>
<pdfrwt beam="1">  1       21 0.28092223E-01 0.18128411E+03</pdfrwt>
<pdfrwt beam="2">  1       21 0.28007077E-01 0.18128411E+03</pdfrwt>
<totfact> 0.14796502E+05</totfact>
</mgrwt>
</event>
<event>
 4    1  0.3980289E+000  0.2031972E+03  0.7546771E-02  0.1147069E+00
         21   -1    0    0  503  502  0.00000000000E+00  0.00000000000E+00  0.41133631174E+03  0.41133631174E+03  0.00000000000E+00 0.  1.
         21   -1    0    0  501  503 -0.00000000000E+00 -0.00000000000E+00 -0.15914689113E+03  0.15914689113E+03  0.00000000000E+00 0. -1.
          6    1    1    2  501    0  0.75146559693E+02  0.75585129617E+02 -0.47240793077E+02  0.20861641782E+03  0.17300000000E+03 0. -1.
         -6    1    1    2    0  502 -0.75146559693E+02 -0.75585129617E+02  0.29943021369E+03  0.36186678505E+03  0.17300000000E+03 0.  1.
<mgrwt>
<rscale>  2 0.20319724E+03</rscale>
<asrwt>0</asrwt>
<pdfrwt beam="1">  1       21 0.63282509E-01 0.20319724E+03</pdfrwt>
<pdfrwt beam="2">  1       21 0.24484137E-01 0.20319724E+03</pdfrwt>
<totfact> 0.36204677E+04</totfact>
</mgrwt>
</event>
<event>
 4    1  0.3980289E+000  0.2197915E+03  0.7546771E-02  0.1134039E+00
         21   -1    0    0  501  502  0.00000000000E+00  0.00000000000E+00  0.18946123979E+04  0.18946123979E+04  0.00000000000E+00 0. -1.
         21   -1    0    0  502  503 -0.00000000000E+00 -0.00000000000E+00 -0.27512414835E+02  0.27512414835E+02  0.00000000000E+00 0. -1.
          6    1    1    2  501    0 -0.10818411090E+03  0.81703784065E+02  0.11936204887E+04  0.12136878434E+04  0.17300000000E+03 0. -1.
         -6    1    1    2    0  503  0.10818411090E+03 -0.81703784065E+02  0.67347949431E+03  0.70843696927E+03  0.17300000000E+03 0. -1.
<mgrwt>
<rscale>  2 0.21979152E+03</rscale>
<asrwt>0</asrwt>
<pdfrwt beam="1">  1       21 0.29147873E+00 0.21979152E+03</pdfrwt>
<pdfrwt beam="2">  1       21 0.42326807E-02 0.21979152E+03</pdfrwt>
<totfact> 0.13264241E+04</totfact>
</mgrwt>
</event>
<event>
 4    1  0.3980289E+000  0.2369548E+03  0.7546771E-02  0.1121838E+00
         21   -1    0    0  501  502  0.00000000000E+00  0.00000000000E+00  0.17493587173E+03  0.17493587173E+03  0.00000000000E+00 0.  1.
         21   -1    0    0  502  503 -0.00000000000E+00 -0.00000000000E+00 -0.33933604735E+03  0.33933604735E+03  0.00000000000E+00 0. -1.
          6    1    1    2  501    0 -0.79482656651E+02 -0.14107112801E+03 -0.22363817769E+02  0.23800776502E+03  0.17300000000E+03 0. -1.
         -6    1    1    2    0  503  0.79482656651E+02  0.14107112801E+03 -0.14203635785E+03  0.27626415406E+03  0.17300000000E+03 0. -1.
<mgrwt>
<rscale>  2 0.23695475E+03</rscale>
<asrwt>0</asrwt>
<pdfrwt beam="1">  1       21 0.26913211E-01 0.23695475E+03</pdfrwt>
<pdfrwt beam="2">  1       21 0.52205545E-01 0.23695475E+03</pdfrwt>
<totfact> 0.44838644E+04</totfact>
</mgrwt>
</event>
<event>
 4    1  0.3980289E+000  0.2124939E+03  0.7546771E-02  0.1139606E+00
         21   -1    0    0  501  502  0.00000000000E+00  0.00000000000E+00  0.18977560016E+04  0.18977560016E+04  0.00000000000E+00 0.  1.
         21   -1    0    0  502  503 -0.00000000000E+00 -0.00000000000E+00 -0.74386924557E+02  0.74386924557E+02  0.00000000000E+00 0. -1.
          6    1    1    2  501    0 -0.12275557426E+03  0.12478197596E+02  0.17249054384E+04  0.17379448805E+04  0.17300000000E+03 0.  1.
         -6    1    1    2    0  503  0.12275557426E+03 -0.12478197596E+02  0.98463638641E+02  0.23419804560E+03  0.17300000000E+03 0. -1.
<mgrwt>
<rscale>  2 0.21249385E+03</rscale>
<asrwt>0</asrwt>
<pdfrwt beam="1">  1       21 0.29196243E+00 0.21249385E+03</pdfrwt>
<pdfrwt beam="2">  1       21 0.11444144E-01 0.21249385E+03</pdfrwt>
<totfact> 0.23692214E+03</totfact>
</mgrwt>
</event>
<event>
 4    1  0.3980289E+000  0.2125681E+03  0.7546771E-02  0.1139548E+00
         21   -1    0    0  501  502  0.00000000000E+00  0.00000000000E+00  0.92850038772E+02  0.92850038772E+02  0.00000000000E+00 0.  1.
         21   -1    0    0  502  503 -0.00000000000E+00 -0.00000000000E+00 -0.51047396792E+03  0.51047396792E+03  0.00000000000E+00 0. -1.
          6    1    1    2  501    0  0.54208822522E+02  0.11098466939E+03 -0.14363889805E+03  0.25654887704E+03  0.17300000000E+03 0.  1.
         -6    1    1    2    0  503 -0.54208822522E+02 -0.11098466939E+03 -0.27398503110E+03  0.34677512965E+03  0.17300000000E+03 0. -1.
<mgrwt>
<rscale>  2 0.21256809E+03</rscale>
<asrwt>0</asrwt>
<pdfrwt beam="1">  1       21 0.14284622E-01 0.21256809E+03</pdfrwt>
<pdfrwt beam="2">  1       21 0.78534456E-01 0.21256809E+03</pdfrwt>
<totfact> 0.60903603E+04</totfact>
</mgrwt>
</event>
<event>
 4    1  0.3980289E+000  0.1824099E+03  0.7546771E-02  0.1165491E+00
         21   -1    0    0  503  502  0.00000000000E+00  0.00000000000E+00  0.57099385146E+03  0.57099385146E+03  0.00000000000E+00 0. -1.
         21   -1    0    0  501  503 -0.00000000000E+00 -0.00000000000E+00 -0.58385148720E+02  0.58385148720E+02  0.00000000000E+00 0. -1.
          6    1    1    2  501    0  0.35616628447E+02 -0.45561341180E+02  0.24249674950E+03  0.30344365795E+03  0.17300000000E+03 0. -1.
         -6    1    1    2    0  502 -0.35616628447E+02  0.45561341180E+02  0.27011195325E+03  0.32593534224E+03  0.17300000000E+03 0. -1.
<mgrwt>
<rscale>  2 0.18240992E+03</rscale>
<asrwt>0</asrwt>
<pdfrwt beam="1">  1       21 0.87845204E-01 0.18240992E+03</pdfrwt>
<pdfrwt beam="2">  1       21 0.89823310E-02 0.18240992E+03</pdfrwt>
<totfact> 0.10933696E+05</totfact>
</mgrwt>
</event>
<event>
 4    1  0.3980289E+000  0.2038127E+03  0.7546771E-02  0.1146562E+00
         21   -1    0    0  501  502  0.00000000000E+00  0.00000000000E+00  0.41415306970E+02  0.41415306970E+02  0.00000000000E+00 0. -1.
         21   -1    0    0  502  503 -0.00000000000E+00 -0.00000000000E+00 -0.10204124115E+04  0.10204124115E+04  0.00000000000E+00 0. -1.
          6    1    1    2  501    0 -0.13123306863E+02 -0.10695040643E+03 -0.55884884105E+03  0.59485429961E+03  0.17300000000E+03 0. -1.
         -6    1    1    2    0  503  0.13123306863E+02  0.10695040643E+03 -0.42014826347E+03  0.46697341885E+03  0.17300000000E+03 0. -1.
<mgrwt>
<rscale>  2 0.20381269E+03</rscale>
<asrwt>0</asrwt>
<pdfrwt beam="1">  1       21 0.63715863E-02 0.20381269E+03</pdfrwt>
<pdfrwt beam="2">  1       21 0.15698651E+00 0.20381269E+03</pdfrwt>
<totfact> 0.46811202E+04</totfact>
</mgrwt>
</event>
<event>
 4    1  0.3980289E+000  0.2681546E+03  0.7546771E-02  0.1102340E+00
         21   -1    0    0  503  502  0.00000000000E+00  0.00000000000E+00  0.12107637080E+04  0.12107637080E+04  0.00000000000E+00 0.  1.
         21   -1    0    0  501  503 -0.00000000000E+00 -0.00000000000E+00 -0.10368417684E+03  0.10368417684E+03  0.00000000000E+00 0.  1.
          6    1    1    2  501    0  0.13502638240E+03  0.15409656356E+03  0.12397169062E+03  0.29542487187E+03  0.17300000000E+03 0.  1.
         -6    1    1    2    0  502 -0.13502638240E+03 -0.15409656356E+03  0.98310784049E+03  0.10190230129E+04  0.17300000000E+03 0.  1.
<mgrwt>
<rscale>  2 0.26815457E+03</rscale>
<asrwt>0</asrwt>
<pdfrwt beam="1">  1       21 0.18627133E+00 0.26815457E+03</pdfrwt>
<pdfrwt beam="2">  1       21 0.15951413E-01 0.26815457E+03</pdfrwt>
<totfact> 0.54631719E+03</totfact>
</mgrwt>
</event>
<event>
 4    1  0.3980289E+000  0.2012325E+03  0.7546771E-02  0.1148703E+00
         21   -1    0    0  501  502  0.00000000000E+00  0.00000000000E+00  0.16651848363E+03  0.16651848363E+03  0.00000000000E+00 0.  1.
         21   -1    0    0  502  503 -0.00000000000E+00 -0.00000000000E+00 -0.74686723772E+03  0.74686723772E+03  0.00000000000E+00 0.  1.
          6    1    1    2  501    0 -0.17788132882E+02  0.10123793163E+03  0.84869009462E+02  0.21839708157E+03  0.17300000000E+03 0.  1.
         -6    1    1    2    0  503  0.17788132882E+02 -0.10123793163E+03 -0.66521776355E+03  0.69498863977E+03  0.17300000000E+03 0.  1.
<mgrwt>
<rscale>  2 0.20123254E+03</rscale>
<asrwt>0</asrwt>
<pdfrwt beam="1">  1       21 0.25618228E-01 0.20123254E+03</pdfrwt>
<pdfrwt beam="2">  1       21 0.11490265E+00 0.20123254E+03</pdfrwt>
<totfact> 0.84386884E+03</totfact>
</mgrwt>
</event>
<event>
 4    1  0.3980289E+000  0.2094816E+03  0.7546771E-02  0.1141977E+00
         21   -1    0    0  503  502  0.00000000000E+00  0.00000000000E+00  0.54065732354E+03  0.54065732354E+03  0.00000000000E+00 0.  1.
         21   -1    0    0  501  503 -0.00000000000E+00 -0.00000000000E+00 -0.16662885859E+03  0.16662885859E+03  0.00000000000E+00 0.  1.
          6    1    1    2  501    0  0.71220503814E+02  0.94240123950E+02 -0.66254048245E+02  0.21970926251E+03  0.17300000000E+03 0.  1.
         -6    1    1    2    0  502 -0.71220503814E+02 -0.94240123950E+02  0.44028251320E+03  0.48757691962E+03  0.17300000000E+03 0.  1.
<mgrwt>
<rscale>  2 0.20948165E+03</rscale>
<asrwt>0</asrwt>
<pdfrwt beam="1">  1       21 0.83178049E-01 0.20948165E+03</pdfrwt>
<pdfrwt beam="2">  1       21 0.25635209E-01 0.20948165E+03</pdfrwt>
<totfact> 0.17989061E+04</totfact>
</mgrwt>
</event>
<event>
 4    1  0.3980289E+000  0.2290094E+03  0.7546771E-02  0.1127339E+00
         21   -1    0    0  503  502  0.00000000000E+00  0.00000000000E+00  0.22957146753E+03  0.22957146753E+03  0.00000000000E+00 0. -1.
         21   -1    0    0  501  503 -0.00000000000E+00 -0.00000000000E+00 -0.23717420865E+03  0.23717420865E+03  0.00000000000E+00 0. -1.
          6    1    1    2  501    0  0.81236945705E+02  0.12616197349E+03  0.40961089894E+02  0.23264370997E+03  0.17300000000E+03 0. -1.
         -6    1    1    2    0  502 -0.81236945705E+02 -0.12616197349E+03 -0.48563831009E+02  0.23410196621E+03  0.17300000000E+03 0. -1.
<mgrwt>
<rscale>  2 0.22900936E+03</rscale>
<asrwt>0</asrwt>
<pdfrwt beam="1">  1       21 0.35318687E-01 0.22900936E+03</pdfrwt>
<pdfrwt beam="2">  1       21 0.36488340E-01 0.22900936E+03</pdfrwt>
<totfact> 0.55070822E+04</totfact>
</mgrwt>
</event>
<event>
 4    1  0.3980289E+000  0.2250927E+03  0.7546771E-02  0.1130142E+00
         21   -1    0    0  501  502  0.00000000000E+00  0.00000000000E+00  0.39729903179E+03  0.39729903179E+03  0.00000000000E+00 0.  1.
         21   -1    0    0  502  503 -0.00000000000E+00 -0.00000000000E+00 -0.14686851736E+03  0.14686851736E+03  0.00000000000E+00 0. -1.
          6    1    1    2  501    0  0.10044469364E+03  0.10319189572E+03  0.22395083304E+03  0.31752272272E+03  0.17300000000E+03 0.  1.
         -6    1    1    2    0  503 -0.10044469364E+03 -0.10319189572E+03  0.26479681383E+02  0.22664482643E+03  0.17300000000E+03 0. -1.
<mgrwt>
<rscale>  2 0.22509266E+03</rscale>
<asrwt>0</asrwt>
<pdfrwt beam="1">  1       21 0.61122927E-01 0.22509266E+03</pdfrwt>
<pdfrwt beam="2">  1       21 0.22595157E-01 0.22509266E+03</pdfrwt>
<totfact> 0.44989079E+04</totfact>
</mgrwt>
</event>
<event>
 4    1  0.3980289E+000  0.1886101E+03  0.7546771E-02  0.1159721E+00
         21   -1    0    0  501  502  0.00000000000E+00  0.00000000000E+00  0.13157358951E+03  0.13157358951E+03  0.00000000000E+00 0. -1.
         21   -1    0    0  502  503 -0.00000000000E+00 -0.00000000000E+00 -0.30738708713E+03  0.30738708713E+03  0.00000000000E+00 0. -1.
          6    1    1    2  501    0 -0.75130163327E+02 -0.46557119457E+00 -0.11743631446E+02  0.18897531870E+03  0.17300000000E+03 0. -1.
         -6    1    1    2    0  503  0.75130163327E+02  0.46557119457E+00 -0.16406986618E+03  0.24998535794E+03  0.17300000000E+03 0. -1.
<mgrwt>
<rscale>  2 0.18861007E+03</rscale>
<asrwt>0</asrwt>
<pdfrwt beam="1">  1       21 0.20242091E-01 0.18861007E+03</pdfrwt>
<pdfrwt beam="2">  1       21 0.47290321E-01 0.18861007E+03</pdfrwt>
<totfact> 0.96699812E+04</totfact>
</mgrwt>
</event>
<event>
 4    1  0.3980289E+000  0.1900096E+03  0.7546771E-02  0.1158453E+00
         21   -1    0    0  503  502  0.00000000000E+00  0.00000000000E+00  0.75404228134E+03  0.75404228134E+03  0.00000000000E+00 0.  1.
         21   -1    0    0  501  503 -0.00000000000E+00 -0.00000000000E+00 -0.11735650681E+03  0.11735650681E+03  0.00000000000E+00 0.  1.
          6    1    1    2  501    0  0.69498239483E+02  0.36669382709E+02 -0.16894095439E+02  0.19075916591E+03  0.17300000000E+03 0.  1.
         -6    1    1    2    0  502 -0.69498239483E+02 -0.36669382709E+02  0.65357986998E+03  0.68063962224E+03  0.17300000000E+03 0.  1.
<mgrwt>
<rscale>  2 0.19000960E+03</rscale>
<asrwt>0</asrwt>
<pdfrwt beam="1">  1       21 0.11600650E+00 0.19000960E+03</pdfrwt>
<pdfrwt beam="2">  1       21 0.18054848E-01 0.19000960E+03</pdfrwt>
<totfact> 0.16051106E+04</totfact>
</mgrwt>
</event>
<event>
 4    1  0.3980289E+000  0.1780359E+03  0.7546771E-02  0.1169718E+00
         21   -1    0    0  501  502  0.00000000000E+00  0.00000000000E+00  0.43590395466E+03  0.43590395466E+03  0.00000000000E+00 0. -1.
         21   -1    0    0  502  503 -0.00000000000E+00 -0.00000000000E+00 -0.74469141938E+02  0.74469141938E+02  0.00000000000E+00 0. -1.
          6    1    1    2  501    0  0.27520919017E+02  0.31786665970E+02  0.14155300925E+03  0.22745119816E+03  0.17300000000E+03 0.  1.
         -6    1    1    2    0  503 -0.27520919017E+02 -0.31786665970E+02  0.21988180347E+03  0.28292189843E+03  0.17300000000E+03 0.  1.
<mgrwt>
<rscale>  2 0.17803593E+03</rscale>
<asrwt>0</asrwt>
<pdfrwt beam="1">  1       21 0.67062145E-01 0.17803593E+03</pdfrwt>
<pdfrwt beam="2">  1       21 0.11456791E-01 0.17803593E+03</pdfrwt>
<totfact> 0.13044699E+05</totfact>
</mgrwt>
</event>
<event>
 4    1  0.3980289E+000  0.1819168E+03  0.7546771E-02  0.1165961E+00
         21   -1    0    0  501  502  0.00000000000E+00  0.00000000000E+00  0.67915345389E+03  0.67915345389E+03  0.00000000000E+00 0.  1.
         21   -1    0    0  502  503 -0.00000000000E+00 -0.00000000000E+00 -0.67896937402E+03  0.67896937402E+03  0.00000000000E+00 0. -1.
          6    1    1    2  501    0  0.97344311367E+01 -0.55407333675E+02  0.65433257028E+03  0.67915008967E+03  0.17300000000E+03 0.  1.
         -6    1    1    2    0  503 -0.97344311367E+01  0.55407333675E+02 -0.65414849041E+03  0.67897273824E+03  0.17300000000E+03 0. -1.
<mgrwt>
<rscale>  2 0.18191683E+03</rscale>
<asrwt>0</asrwt>
<pdfrwt beam="1">  1       21 0.10448515E+00 0.18191683E+03</pdfrwt>
<pdfrwt beam="2">  1       21 0.10445683E+00 0.18191683E+03</pdfrwt>
<totfact> 0.55357446E+02</totfact>
</mgrwt>
</event>
<event>
 4    1  0.3980289E+000  0.2879719E+03  0.7546771E-02  0.1091413E+00
         21   -1    0    0  503  502  0.00000000000E+00  0.00000000000E+00  0.15027835707E+03  0.15027835707E+03  0.00000000000E+00 0. -1.
         21   -1    0    0  501  503 -0.00000000000E+00 -0.00000000000E+00 -0.61667611398E+03  0.61667611398E+03  0.00000000000E+00 0. -1.
          6    1    1    2  501    0 -0.35013243758E+02  0.22753660706E+03 -0.35755267258E+03  0.45909884389E+03  0.17300000000E+03 0. -1.
         -6    1    1    2    0  502  0.35013243758E+02 -0.22753660706E+03 -0.10884508434E+03  0.30785562716E+03  0.17300000000E+03 0. -1.
<mgrwt>
<rscale>  2 0.28797193E+03</rscale>
<asrwt>0</asrwt>
<pdfrwt beam="1">  1       21 0.23119747E-01 0.28797193E+03</pdfrwt>
<pdfrwt beam="2">  1       21 0.94873250E-01 0.28797193E+03</pdfrwt>
<totfact> 0.15506245E+04</totfact>
</mgrwt>
</event>
<event>
 4    1  0.3980289E+000  0.1826304E+03  0.7546771E-02  0.1165281E+00
         21   -1    0    0  501  502  0.00000000000E+00  0.00000000000E+00  0.86713942104E+02  0.86713942104E+02  0.00000000000E+00 0. -1.
         21   -1    0    0  502  503 -0.00000000000E+00 -0.00000000000E+00 -0.40103708145E+03  0.40103708145E+03  0.00000000000E+00 0. -1.
          6    1    1    2  501    0 -0.58490160382E+02 -0.19370456881E+01 -0.10785229542E+03  0.21209895953E+03  0.17300000000E+03 0. -1.
         -6    1    1    2    0  503  0.58490160382E+02  0.19370456881E+01 -0.20647084393E+03  0.27565206402E+03  0.17300000000E+03 0. -1.
<mgrwt>
<rscale>  2 0.18263037E+03</rscale>
<asrwt>0</asrwt>
<pdfrwt beam="1">  1       21 0.13340606E-01 0.18263037E+03</pdfrwt>
<pdfrwt beam="2">  1       21 0.61698013E-01 0.18263037E+03</pdfrwt>
<totfact> 0.11881351E+05</totfact>
</mgrwt>
</event>
<event>
 4    1  0.3980289E+000  0.1917575E+03  0.7546771E-02  0.1156886E+00
         21   -1    0    0  501  502  0.00000000000E+00  0.00000000000E+00  0.93676225330E+03  0.93676225330E+03  0.00000000000E+00 0. -1.
         21   -1    0    0  502  503 -0.00000000000E+00 -0.00000000000E+00 -0.51953897453E+02  0.51953897453E+02  0.00000000000E+00 0.  1.
          6    1    1    2  501    0  0.55229506359E+02 -0.61576190549E+02  0.68682948964E+03  0.71309583750E+03  0.17300000000E+03 0. -1.
         -6    1    1    2    0  503 -0.55229506359E+02  0.61576190549E+02  0.19797886621E+03  0.27562031326E+03  0.17300000000E+03 0.  1.
<mgrwt>
<rscale>  2 0.19175747E+03</rscale>
<asrwt>0</asrwt>
<pdfrwt beam="1">  1       21 0.14411726E+00 0.19175747E+03</pdfrwt>
<pdfrwt beam="2">  1       21 0.79929080E-02 0.19175747E+03</pdfrwt>
<totfact> 0.39913118E+04</totfact>
</mgrwt>
</event>
<event>
 4    1  0.3980289E+000  0.2363620E+03  0.7546771E-02  0.1122240E+00
         21   -1    0    0  503  502  0.00000000000E+00  0.00000000000E+00  0.23827961020E+03  0.23827961020E+03  0.00000000000E+00 0. -1.
         21   -1    0    0  501  503 -0.00000000000E+00 -0.00000000000E+00 -0.40916023865E+03  0.40916023865E+03  0.00000000000E+00 0. -1.
          6    1    1    2  501    0 -0.42995584650E+02  0.15520753211E+03 -0.29696919511E+03  0.37954933957E+03  0.17300000000E+03 0. -1.
         -6    1    1    2    0  502  0.42995584650E+02 -0.15520753211E+03  0.12608856666E+03  0.26789050929E+03  0.17300000000E+03 0. -1.
<mgrwt>
<rscale>  2 0.23636201E+03</rscale>
<asrwt>0</asrwt>
<pdfrwt beam="1">  1       21 0.36658402E-01 0.23636201E+03</pdfrwt>
<pdfrwt beam="2">  1       21 0.62947729E-01 0.23636201E+03</pdfrwt>
<totfact> 0.16344606E+04</totfact>
</mgrwt>
</event>
<event>
 4    1  0.3980289E+000  0.1892199E+03  0.7546771E-02  0.1159167E+00
         21   -1    0    0  503  502  0.00000000000E+00  0.00000000000E+00  0.27222550903E+03  0.27222550903E+03  0.00000000000E+00 0. -1.
         21   -1    0    0  501  503 -0.00000000000E+00 -0.00000000000E+00 -0.13898047862E+03  0.13898047862E+03  0.00000000000E+00 0. -1.
          6    1    1    2  501    0  0.48939159875E+02  0.58992572575E+02  0.18998954122E+02  0.19017130500E+03  0.17300000000E+03 0. -1.
         -6    1    1    2    0  502 -0.48939159875E+02 -0.58992572575E+02  0.11424607629E+03  0.22103468265E+03  0.17300000000E+03 0. -1.
<mgrwt>
<rscale>  2 0.18921989E+03</rscale>
<asrwt>0</asrwt>
<pdfrwt beam="1">  1       21 0.41880847E-01 0.18921989E+03</pdfrwt>
<pdfrwt beam="2">  1       21 0.21381612E-01 0.18921989E+03</pdfrwt>
<totfact> 0.11191363E+05</totfact>
</mgrwt>
</event>
<event>
 4    1  0.3980289E+000  0.2628202E+03  0.7546771E-02  0.1105461E+00
         21   -1    0    0  503  502  0.00000000000E+00  0.00000000000E+00  0.21892670520E+03  0.21892670520E+03  0.00000000000E+00 0.  1.
         21   -1    0    0  501  503 -0.00000000000E+00 -0.00000000000E+00 -0.31888561012E+03  0.31888561012E+03  0.00000000000E+00 0. -1.
          6    1    1    2  501    0 -0.14281429830E+03  0.13692884277E+03 -0.77630049633E+02  0.27404535462E+03  0.17300000000E+03 0. -1.
         -6    1    1    2    0  502  0.14281429830E+03 -0.13692884277E+03 -0.22328855287E+02  0.26376696070E+03  0.17300000000E+03 0.  1.
<mgrwt>
<rscale>  2 0.26282015E+03</rscale>
<asrwt>0</asrwt>
<pdfrwt beam="1">  1       21 0.33681032E-01 0.26282015E+03</pdfrwt>
<pdfrwt beam="2">  1       21 0.49059325E-01 0.26282015E+03</pdfrwt>
<totfact> 0.32549645E+04</totfact>
</mgrwt>
</event>
<event>
 4    1  0.3980289E+000  0.3090348E+03  0.7546771E-02  0.1080809E+00
         21   -1    0    0  501  502  0.00000000000E+00  0.00000000000E+00  0.95615928920E+02  0.95615928920E+02  0.00000000000E+00 0.  1.
         21   -1    0    0  502  503 -0.00000000000E+00 -0.00000000000E+00 -0.16836195670E+04  0.16836195670E+04  0.00000000000E+00 0.  1.
          6    1    1    2  501    0 -0.82523510992E+02  0.24241159662E+03 -0.22663340863E+03  0.38322997528E+03  0.17300000000E+03 0.  1.
         -6    1    1    2    0  503  0.82523510992E+02 -0.24241159662E+03 -0.13613702294E+04  0.13960055206E+04  0.17300000000E+03 0.  1.
<mgrwt>
<rscale>  2 0.30903481E+03</rscale>
<asrwt>0</asrwt>
<pdfrwt beam="1">  1       21 0.14710144E-01 0.30903481E+03</pdfrwt>
<pdfrwt beam="2">  1       21 0.25901837E+00 0.30903481E+03</pdfrwt>
<totfact> 0.21533363E+03</totfact>
</mgrwt>
</event>
<event>
 4    1  0.3980289E+000  0.1968484E+03  0.7546771E-02  0.1152426E+00
         21   -1    0    0  503  502  0.00000000000E+00  0.00000000000E+00  0.88306087855E+03  0.88306087855E+03  0.00000000000E+00 0.  1.
         21   -1    0    0  501  503 -0.00000000000E+00 -0.00000000000E+00 -0.11716722486E+03  0.11716722486E+03  0.00000000000E+00 0.  1.
          6    1    1    2  501    0 -0.39318213511E+02 -0.85289934980E+02 -0.12582022234E+02  0.19725010065E+03  0.17300000000E+03 0.  1.
         -6    1    1    2    0  502  0.39318213511E+02  0.85289934980E+02  0.77847567592E+03  0.80297800276E+03  0.17300000000E+03 0.  1.
<mgrwt>
<rscale>  2 0.19684841E+03</rscale>
<asrwt>0</asrwt>
<pdfrwt beam="1">  1       21 0.13585552E+00 0.19684841E+03</pdfrwt>
<pdfrwt beam="2">  1       21 0.18025728E-01 0.19684841E+03</pdfrwt>
<totfact> 0.10791494E+04</totfact>
</mgrwt>
</event>
<event>
 4    1  0.3980289E+000  0.1945806E+03  0.7546771E-02  0.1154394E+00
         21   -1    0    0  503  502  0.00000000000E+00  0.00000000000E+00  0.77350259610E+03  0.77350259610E+03  0.00000000000E+00 0. -1.
         21   -1    0    0  501  503 -0.00000000000E+00 -0.00000000000E+00 -0.30093867381E+03  0.30093867381E+03  0.00000000000E+00 0. -1.
          6    1    1    2  501    0 -0.48688519335E+02 -0.74579089319E+02 -0.25531103560E+03  0.32100675597E+03  0.17300000000E+03 0. -1.
         -6    1    1    2    0  502  0.48688519335E+02  0.74579089319E+02  0.72787495789E+03  0.75343451394E+03  0.17300000000E+03 0. -1.
<mgrwt>
<rscale>  2 0.19458061E+03</rscale>
<asrwt>0</asrwt>
<pdfrwt beam="1">  1       21 0.11900040E+00 0.19458061E+03</pdfrwt>
<pdfrwt beam="2">  1       21 0.46298258E-01 0.19458061E+03</pdfrwt>
<totfact> 0.24055638E+03</totfact>
</mgrwt>
</event>
<event>
 4    1  0.3980289E+000  0.2282737E+03  0.7546771E-02  0.1127861E+00
         21   -1    0    0  501  502  0.00000000000E+00  0.00000000000E+00  0.24311398790E+03  0.24311398790E+03  0.00000000000E+00 0. -1.
         21   -1    0    0  502  503 -0.00000000000E+00 -0.00000000000E+00 -0.23714321719E+03  0.23714321719E+03  0.00000000000E+00 0. -1.
          6    1    1    2  501    0  0.14750828788E+03  0.20522379166E+02  0.77448982057E+02  0.24105436702E+03  0.17300000000E+03 0. -1.
         -6    1    1    2    0  503 -0.14750828788E+03 -0.20522379166E+02 -0.71478211353E+02  0.23920283807E+03  0.17300000000E+03 0. -1.
<mgrwt>
<rscale>  2 0.22827366E+03</rscale>
<asrwt>0</asrwt>
<pdfrwt beam="1">  1       21 0.37402152E-01 0.22827366E+03</pdfrwt>
<pdfrwt beam="2">  1       21 0.36483572E-01 0.22827366E+03</pdfrwt>
<totfact> 0.49127453E+04</totfact>
</mgrwt>
</event>
<event>
 4    1  0.3980289E+000  0.1949636E+03  0.7546771E-02  0.1154059E+00
         21   -1    0    0  503  502  0.00000000000E+00  0.00000000000E+00  0.19274785232E+03  0.19274785232E+03  0.00000000000E+00 0.  1.
         21   -1    0    0  501  503 -0.00000000000E+00 -0.00000000000E+00 -0.35819400041E+03  0.35819400041E+03  0.00000000000E+00 0.  1.
          6    1    1    2  501    0  0.60485488905E+02 -0.66508044515E+02 -0.26740096181E+03  0.33092912947E+03  0.17300000000E+03 0.  1.
         -6    1    1    2    0  502 -0.60485488905E+02  0.66508044515E+02  0.10195481373E+03  0.22001272326E+03  0.17300000000E+03 0.  1.
<mgrwt>
<rscale>  2 0.19496362E+03</rscale>
<asrwt>0</asrwt>
<pdfrwt beam="1">  1       21 0.29653516E-01 0.19496362E+03</pdfrwt>
<pdfrwt beam="2">  1       21 0.55106769E-01 0.19496362E+03</pdfrwt>
<totfact> 0.33819445E+04</totfact>
</mgrwt>
</event>
<event>
 4    1  0.3980289E+000  0.2439814E+03  0.7546771E-02  0.1117169E+00
         21   -1    0    0  503  502  0.00000000000E+00  0.00000000000E+00  0.29953613041E+03  0.29953613041E+03  0.00000000000E+00 0. -1.
         21   -1    0    0  501  503 -0.00000000000E+00 -0.00000000000E+00 -0.24058661739E+03  0.24058661739E+03  0.00000000000E+00 0. -1.
          6    1    1    2  501    0 -0.24110486410E+02  0.17034258233E+03 -0.83169005440E+02  0.25776732604E+03  0.17300000000E+03 0. -1.
         -6    1    1    2    0  502  0.24110486410E+02 -0.17034258233E+03  0.14211851846E+03  0.28235542176E+03  0.17300000000E+03 0. -1.
<mgrwt>
<rscale>  2 0.24398137E+03</rscale>
<asrwt>0</asrwt>
<pdfrwt beam="1">  1       21 0.46082482E-01 0.24398137E+03</pdfrwt>
<pdfrwt beam="2">  1       21 0.37013326E-01 0.24398137E+03</pdfrwt>
<totfact> 0.30957513E+04</totfact>
</mgrwt>
</event>
<event>
 4    1  0.3980289E+000  0.2172173E+03  0.7546771E-02  0.1135975E+00
         21   -1    0    0  501  502  0.00000000000E+00  0.00000000000E+00  0.18240895066E+03  0.18240895066E+03  0.00000000000E+00 0. -1.
         21   -1    0    0  502  503 -0.00000000000E+00 -0.00000000000E+00 -0.27057973158E+03  0.27057973158E+03  0.00000000000E+00 0.  1.
          6    1    1    2  501    0  0.26351198497E+02 -0.12868553523E+03  0.34369427079E+01  0.21724448259E+03  0.17300000000E+03 0. -1.
         -6    1    1    2    0  503 -0.26351198497E+02  0.12868553523E+03 -0.91607723621E+02  0.23574419965E+03  0.17300000000E+03 0. -1.
<mgrwt>
<rscale>  2 0.21721729E+03</rscale>
<asrwt>0</asrwt>
<pdfrwt beam="1">  1       21 0.28062916E-01 0.21721729E+03</pdfrwt>
<pdfrwt beam="2">  1       21 0.41627651E-01 0.21721729E+03</pdfrwt>
<totfact> 0.66669429E+04</totfact>
</mgrwt>
</event>
<event>
 4    1  0.3980289E+000  0.2430607E+03  0.7546771E-02  0.1117771E+00
         21   -1    0    0  501  502  0.00000000000E+00  0.00000000000E+00  0.56372926116E+03  0.56372926116E+03  0.00000000000E+00 0.  1.
         21   -1    0    0  502  503 -0.00000000000E+00 -0.00000000000E+00 -0.23635970294E+03  0.23635970294E+03  0.00000000000E+00 0. -1.
          6    1    1    2  501    0  0.15897929671E+03  0.62250264177E+02  0.46214326353E+03  0.52216367951E+03  0.17300000000E+03 0.  1.
         -6    1    1    2    0  503 -0.15897929671E+03 -0.62250264177E+02 -0.13477370530E+03  0.27792528459E+03  0.17300000000E+03 0. -1.
<mgrwt>
<rscale>  2 0.24306072E+03</rscale>
<asrwt>0</asrwt>
<pdfrwt beam="1">  1       21 0.86727578E-01 0.24306072E+03</pdfrwt>
<pdfrwt beam="2">  1       21 0.36363031E-01 0.24306072E+03</pdfrwt>
<totfact> 0.80705509E+03</totfact>
</mgrwt>
</event>
<event>
 4    1  0.3980289E+000  0.2304734E+03  0.7546771E-02  0.1126307E+00
         21   -1    0    0  501  502  0.00000000000E+00  0.00000000000E+00  0.41951870307E+03  0.41951870307E+03  0.00000000000E+00 0.  1.
         21   -1    0    0  502  503 -0.00000000000E+00 -0.00000000000E+00 -0.55968633035E+03  0.55968633035E+03  0.00000000000E+00 0.  1.
          6    1    1    2  501    0 -0.60421283307E+02 -0.13977933761E+03  0.36059176980E+03  0.42795375818E+03  0.17300000000E+03 0.  1.
         -6    1    1    2    0  503  0.60421283307E+02  0.13977933761E+03 -0.50075939707E+03  0.55125127524E+03  0.17300000000E+03 0.  1.
<mgrwt>
<rscale>  2 0.23047341E+03</rscale>
<asrwt>0</asrwt>
<pdfrwt beam="1">  1       21 0.64541339E-01 0.23047341E+03</pdfrwt>
<pdfrwt beam="2">  1       21 0.86105589E-01 0.23047341E+03</pdfrwt>
<totfact> 0.24958201E+03</totfact>
</mgrwt>
</event>
<event>
 4    1  0.3980289E+000  0.2273665E+03  0.7546771E-02  0.1128507E+00
         21   -1    0    0  503  502  0.00000000000E+00  0.00000000000E+00  0.20678606137E+04  0.20678606137E+04  0.00000000000E+00 0. -1.
         21   -1    0    0  501  503 -0.00000000000E+00 -0.00000000000E+00 -0.27745476105E+02  0.27745476105E+02  0.00000000000E+00 0.  1.
          6    1    1    2  501    0 -0.60303682608E+02  0.13464762529E+03  0.69042464977E+03  0.72689869593E+03  0.17300000000E+03 0.  1.
         -6    1    1    2    0  502  0.60303682608E+02 -0.13464762529E+03  0.13496904878E+04  0.13687073939E+04  0.17300000000E+03 0.  1.
<mgrwt>
<rscale>  2 0.22736648E+03</rscale>
<asrwt>0</asrwt>
<pdfrwt beam="1">  1       21 0.31813228E+00 0.22736648E+03</pdfrwt>
<pdfrwt beam="2">  1       21 0.42685364E-02 0.22736648E+03</pdfrwt>
<totfact> 0.90877649E+03</totfact>
</mgrwt>
</event>
<event>
 4    1  0.3980289E+000  0.3994482E+03  0.7546771E-02  0.1043971E+00
         21   -1    0    0  501  502  0.00000000000E+00  0.00000000000E+00  0.51667407467E+03  0.51667407467E+03  0.00000000000E+00 0.  1.
         21   -1    0    0  502  503 -0.00000000000E+00 -0.00000000000E+00 -0.36435245969E+03  0.36435245969E+03  0.00000000000E+00 0. -1.
          6    1    1    2  501    0  0.34912301600E+03  0.87994297799E+02  0.24813952479E+03  0.47024685061E+03  0.17300000000E+03 0.  1.
         -6    1    1    2    0  503 -0.34912301600E+03 -0.87994297799E+02 -0.95817909809E+02  0.41077968375E+03  0.17300000000E+03 0. -1.
<mgrwt>
<rscale>  2 0.39944822E+03</rscale>
<asrwt>0</asrwt>
<pdfrwt beam="1">  1       21 0.79488319E-01 0.39944822E+03</pdfrwt>
<pdfrwt beam="2">  1       21 0.56054225E-01 0.39944822E+03</pdfrwt>
<totfact> 0.37233838E+03</totfact>
</mgrwt>
</event>
<event>
 4    1  0.3980289E+000  0.2286088E+03  0.7546771E-02  0.1127623E+00
         21   -1    0    0  501  502  0.00000000000E+00  0.00000000000E+00  0.63728977894E+02  0.63728977894E+02  0.00000000000E+00 0. -1.
         21   -1    0    0  502  503 -0.00000000000E+00 -0.00000000000E+00 -0.97056974901E+03  0.97056974901E+03  0.00000000000E+00 0.  1.
          6    1    1    2  501    0  0.85032644307E+02 -0.12289198008E+03 -0.24977442781E+03  0.33859895770E+03  0.17300000000E+03 0. -1.
         -6    1    1    2    0  503 -0.85032644307E+02  0.12289198008E+03 -0.65706634331E+03  0.69569976921E+03  0.17300000000E+03 0.  1.
<mgrwt>
<rscale>  2 0.22860881E+03</rscale>
<asrwt>0</asrwt>
<pdfrwt beam="1">  1       21 0.98044586E-02 0.22860881E+03</pdfrwt>
<pdfrwt beam="2">  1       21 0.14931842E+00 0.22860881E+03</pdfrwt>
<totfact> 0.24859524E+04</totfact>
</mgrwt>
</event>
<event>
 4    1  0.3980289E+000  0.1741190E+03  0.7546771E-02  0.1173619E+00
         21   -1    0    0  503  502  0.00000000000E+00  0.00000000000E+00  0.59944419640E+03  0.59944419640E+03  0.00000000000E+00 0. -1.
         21   -1    0    0  501  503 -0.00000000000E+00 -0.00000000000E+00 -0.88707710671E+02  0.88707710671E+02  0.00000000000E+00 0. -1.
          6    1    1    2  501    0  0.55740245671E+01  0.18903743253E+02  0.29779496413E+02  0.17664721811E+03  0.17300000000E+03 0. -1.
         -6    1    1    2    0  502 -0.55740245671E+01 -0.18903743253E+02  0.48095698931E+03  0.51150468896E+03  0.17300000000E+03 0. -1.
<mgrwt>
<rscale>  2 0.17411899E+03</rscale>
<asrwt>0</asrwt>
<pdfrwt beam="1">  1       21 0.92222181E-01 0.17411899E+03</pdfrwt>
<pdfrwt beam="2">  1       21 0.13647340E-01 0.17411899E+03</pdfrwt>
<totfact> 0.46665558E+04</totfact>
</mgrwt>
</event>
<event>
 4    1  0.3980289E+000  0.1962969E+03  0.7546771E-02  0.1152901E+00
         21   -1    0    0  501  502  0.00000000000E+00  0.00000000000E+00  0.12872393990E+03  0.12872393990E+03  0.00000000000E+00 0.  1.
         21   -1    0    0  502  503 -0.00000000000E+00 -0.00000000000E+00 -0.33817885922E+03  0.33817885922E+03  0.00000000000E+00 0.  1.
          6    1    1    2  501    0 -0.62620907030E+01 -0.92543320185E+02 -0.25614910268E+02  0.19796111618E+03  0.17300000000E+03 0.  1.
         -6    1    1    2    0  503  0.62620907030E+01  0.92543320185E+02 -0.18384000905E+03  0.26894168293E+03  0.17300000000E+03 0.  1.
<mgrwt>
<rscale>  2 0.19629692E+03</rscale>
<asrwt>0</asrwt>
<pdfrwt beam="1">  1       21 0.19803683E-01 0.19629692E+03</pdfrwt>
<pdfrwt beam="2">  1       21 0.52027516E-01 0.19629692E+03</pdfrwt>
<totfact> 0.82318325E+04</totfact>
</mgrwt>
</event>
<event>
 4    1  0.3980289E+000  0.1793851E+03  0.7546771E-02  0.1168399E+00
         21   -1    0    0  501  502  0.00000000000E+00  0.00000000000E+00  0.18808934162E+03  0.18808934162E+03  0.00000000000E+00 0. -1.
         21   -1    0    0  502  503 -0.00000000000E+00 -0.00000000000E+00 -0.92299939266E+03  0.92299939266E+03  0.00000000000E+00 0. -1.
          6    1    1    2  501    0 -0.22896176331E+02 -0.41542452548E+02  0.13396610411E+03  0.22388820269E+03  0.17300000000E+03 0. -1.
         -6    1    1    2    0  503  0.22896176331E+02  0.41542452548E+02 -0.86887615515E+03  0.88720053159E+03  0.17300000000E+03 0. -1.
<mgrwt>
<rscale>  2 0.17938509E+03</rscale>
<asrwt>0</asrwt>
<pdfrwt beam="1">  1       21 0.28936822E-01 0.17938509E+03</pdfrwt>
<pdfrwt beam="2">  1       21 0.14199991E+00 0.17938509E+03</pdfrwt>
<totfact> 0.39891351E+03</totfact>
</mgrwt>
</event>
<event>
 4    1  0.3980289E+000  0.1837585E+03  0.7546771E-02  0.1164214E+00
         21   -1    0    0  503  502  0.00000000000E+00  0.00000000000E+00  0.72174183260E+03  0.72174183260E+03  0.00000000000E+00 0.  1.
         21   -1    0    0  501  503 -0.00000000000E+00 -0.00000000000E+00 -0.46787441628E+02  0.46787441628E+02  0.00000000000E+00 0. -1.
          6    1    1    2  501    0  0.51227571015E+02  0.34841193704E+02  0.33984397776E+03  0.38634324380E+03  0.17300000000E+03 0.  1.
         -6    1    1    2    0  502 -0.51227571015E+02 -0.34841193704E+02  0.33511041322E+03  0.38218603043E+03  0.17300000000E+03 0.  1.
<mgrwt>
<rscale>  2 0.18375846E+03</rscale>
<asrwt>0</asrwt>
<pdfrwt beam="1">  1       21 0.11103720E+00 0.18375846E+03</pdfrwt>
<pdfrwt beam="2">  1       21 0.71980685E-02 0.18375846E+03</pdfrwt>
<totfact> 0.92378267E+04</totfact>
</mgrwt>
</event>
<event>
 4    1  0.3980289E+000  0.1886630E+03  0.7546771E-02  0.1159673E+00
         21   -1    0    0  501  502  0.00000000000E+00  0.00000000000E+00  0.16944972743E+03  0.16944972743E+03  0.00000000000E+00 0. -1.
         21   -1    0    0  502  503 -0.00000000000E+00 -0.00000000000E+00 -0.36232051702E+03  0.36232051702E+03  0.00000000000E+00 0. -1.
          6    1    1    2  501    0 -0.70153926285E+02  0.27260719996E+02  0.75929456705E+02  0.20336912898E+03  0.17300000000E+03 0. -1.
         -6    1    1    2    0  503  0.70153926285E+02 -0.27260719996E+02 -0.26880024630E+03  0.32840111547E+03  0.17300000000E+03 0. -1.
<mgrwt>
<rscale>  2 0.18866298E+03</rscale>
<asrwt>0</asrwt>
<pdfrwt beam="1">  1       21 0.26069189E-01 0.18866298E+03</pdfrwt>
<pdfrwt beam="2">  1       21 0.55741618E-01 0.18866298E+03</pdfrwt>
<totfact> 0.42471711E+04</totfact>
</mgrwt>
</event>
<event>
 4    1  0.3980289E+000  0.1984718E+03  0.7546771E-02  0.1151035E+00
         21   -1    0    0  501  502  0.00000000000E+00  0.00000000000E+00  0.33335480925E+03  0.33335480925E+03  0.00000000000E+00 0. -1.
         21   -1    0    0  502  503 -0.00000000000E+00 -0.00000000000E+00 -0.31154371013E+03  0.31154371013E+03  0.00000000000E+00 0. -1.
          6    1    1    2  501    0 -0.63236719642E+02 -0.73913288242E+02  0.26494759094E+03  0.33104121017E+03  0.17300000000E+03 0. -1.
         -6    1    1    2    0  503  0.63236719642E+02  0.73913288242E+02 -0.24313649182E+03  0.31385730921E+03  0.17300000000E+03 0. -1.
<mgrwt>
<rscale>  2 0.19847180E+03</rscale>
<asrwt>0</asrwt>
<pdfrwt beam="1">  1       21 0.51285355E-01 0.19847180E+03</pdfrwt>
<pdfrwt beam="2">  1       21 0.47929802E-01 0.19847180E+03</pdfrwt>
<totfact> 0.14978846E+04</totfact>
</mgrwt>
</event>
<event>
 4    1  0.3980289E+000  0.2154084E+03  0.7546771E-02  0.1137353E+00
         21   -1    0    0  501  502  0.00000000000E+00  0.00000000000E+00  0.46001736037E+03  0.46001736037E+03  0.00000000000E+00 0. -1.
         21   -1    0    0  502  503 -0.00000000000E+00 -0.00000000000E+00 -0.19220139888E+03  0.19220139888E+03  0.00000000000E+00 0. -1.
          6    1    1    2  501    0  0.10295490861E+03  0.76629384995E+02  0.35871048624E+03  0.41841843744E+03  0.17300000000E+03 0. -1.
         -6    1    1    2    0  503 -0.10295490861E+03 -0.76629384995E+02 -0.90894524744E+02  0.23380032181E+03  0.17300000000E+03 0. -1.
<mgrwt>
<rscale>  2 0.21540839E+03</rscale>
<asrwt>0</asrwt>
<pdfrwt beam="1">  1       21 0.70771901E-01 0.21540839E+03</pdfrwt>
<pdfrwt beam="2">  1       21 0.29569446E-01 0.21540839E+03</pdfrwt>
<totfact> 0.19556455E+04</totfact>
</mgrwt>
</event>
<event>
 4    1  0.3980289E+000  0.1742560E+03  0.7546771E-02  0.1173481E+00
         21   -1    0    0  501  502  0.00000000000E+00  0.00000000000E+00  0.37307033313E+03  0.37307033313E+03  0.00000000000E+00 0. -1.
         21   -1    0    0  502  503 -0.00000000000E+00 -0.00000000000E+00 -0.81534872226E+02  0.81534872226E+02  0.00000000000E+00 0. -1.
          6    1    1    2  501    0 -0.81610307409E+01 -0.19223393964E+02  0.15526474827E+03  0.23339298052E+03  0.17300000000E+03 0.  1.
         -6    1    1    2    0  503  0.81610307409E+01  0.19223393964E+02  0.13627071264E+03  0.22121222484E+03  0.17300000000E+03 0.  1.
<mgrwt>
<rscale>  2 0.17425596E+03</rscale>
<asrwt>0</asrwt>
<pdfrwt beam="1">  1       21 0.57395435E-01 0.17425596E+03</pdfrwt>
<pdfrwt beam="2">  1       21 0.12543827E-01 0.17425596E+03</pdfrwt>
<totfact> 0.15536987E+05</totfact>
</mgrwt>
</event>
<event>
 4    1  0.3980289E+000  0.2024094E+03  0.7546771E-02  0.1147722E+00
         21   -1    0    0  501  502  0.00000000000E+00  0.00000000000E+00  0.27398135557E+03  0.27398135557E+03  0.00000000000E+00 0. -1.
         21   -1    0    0  502  503 -0.00000000000E+00 -0.00000000000E+00 -0.38187863478E+03  0.38187863478E+03  0.00000000000E+00 0. -1.
          6    1    1    2  501    0  0.72862765796E+02  0.75707242868E+02  0.20184199860E+03  0.28584919391E+03  0.17300000000E+03 0. -1.
         -6    1    1    2    0  503 -0.72862765796E+02 -0.75707242868E+02 -0.30973927781E+03  0.37001079644E+03  0.17300000000E+03 0. -1.
<mgrwt>
<rscale>  2 0.20240941E+03</rscale>
<asrwt>0</asrwt>
<pdfrwt beam="1">  1       21 0.42150978E-01 0.20240941E+03</pdfrwt>
<pdfrwt beam="2">  1       21 0.58750559E-01 0.20240941E+03</pdfrwt>
<totfact> 0.14591327E+04</totfact>
</mgrwt>
</event>
<event>
 4    1  0.3980289E+000  0.1750892E+03  0.7546771E-02  0.1172642E+00
         21   -1    0    0  501  502  0.00000000000E+00  0.00000000000E+00  0.74192893911E+03  0.74192893911E+03  0.00000000000E+00 0.  1.
         21   -1    0    0  502  503 -0.00000000000E+00 -0.00000000000E+00 -0.90186440662E+02  0.90186440662E+02  0.00000000000E+00 0.  1.
          6    1    1    2  501    0 -0.18677516794E+02  0.19451593466E+02  0.63213106577E+03  0.65593132143E+03  0.17300000000E+03 0.  1.
         -6    1    1    2    0  503  0.18677516794E+02 -0.19451593466E+02  0.19611432677E+02  0.17618405834E+03  0.17300000000E+03 0.  1.
<mgrwt>
<rscale>  2 0.17508916E+03</rscale>
<asrwt>0</asrwt>
<pdfrwt beam="1">  1       21 0.11414291E+00 0.17508916E+03</pdfrwt>
<pdfrwt beam="2">  1       21 0.13874838E-01 0.17508916E+03</pdfrwt>
<totfact> 0.27267040E+04</totfact>
</mgrwt>
</event>
<event>
 4    1  0.3980289E+000  0.1745441E+03  0.7546771E-02  0.1173190E+00
         21   -1    0    0  503  502  0.00000000000E+00  0.00000000000E+00  0.15310255743E+03  0.15310255743E+03  0.00000000000E+00 0.  1.
         21   -1    0    0  501  503 -0.00000000000E+00 -0.00000000000E+00 -0.20735571794E+03  0.20735571794E+03  0.00000000000E+00 0.  1.
          6    1    1    2  501    0 -0.10068042894E+02  0.20863453594E+02 -0.63330648844E+02  0.18567827085E+03  0.17300000000E+03 0.  1.
         -6    1    1    2    0  502  0.10068042894E+02 -0.20863453594E+02  0.90774883317E+01  0.17478000451E+03  0.17300000000E+03 0.  1.
<mgrwt>
<rscale>  2 0.17454412E+03</rscale>
<asrwt>0</asrwt>
<pdfrwt beam="1">  1       21 0.23554240E-01 0.17454412E+03</pdfrwt>
<pdfrwt beam="2">  1       21 0.31900880E-01 0.17454412E+03</pdfrwt>
<totfact> 0.16123093E+05</totfact>
</mgrwt>
</event>
<event>
 4    1  0.3980289E+000  0.2207223E+03  0.7546771E-02  0.1133346E+00
         21   -1    0    0  503  502  0.00000000000E+00  0.00000000000E+00  0.41999550039E+03  0.41999550039E+03  0.00000000000E+00 0. -1.
         21   -1    0    0  501  503 -0.00000000000E+00 -0.00000000000E+00 -0.13893944406E+03  0.13893944406E+03  0.00000000000E+00 0. -1.
          6    1    1    2  501    0  0.88763347564E+02 -0.10445290363E+03  0.26965367324E+02  0.22236337824E+03  0.17300000000E+03 0. -1.
         -6    1    1    2    0  502 -0.88763347564E+02  0.10445290363E+03  0.25409068900E+03  0.33657156621E+03  0.17300000000E+03 0. -1.
<mgrwt>
<rscale>  2 0.22072232E+03</rscale>
<asrwt>0</asrwt>
<pdfrwt beam="1">  1       21 0.64614692E-01 0.22072232E+03</pdfrwt>
<pdfrwt beam="2">  1       21 0.21375299E-01 0.22072232E+03</pdfrwt>
<totfact> 0.44376791E+04</totfact>
</mgrwt>
</event>
<event>
 4    1  0.3980289E+000  0.1736883E+03  0.7546771E-02  0.1174055E+00
         21   -1    0    0  503  502  0.00000000000E+00  0.00000000000E+00  0.82926602001E+03  0.82926602001E+03  0.00000000000E+00 0.  1.
         21   -1    0    0  501  503 -0.00000000000E+00 -0.00000000000E+00 -0.87813212344E+02  0.87813212344E+02  0.00000000000E+00 0.  1.
          6    1    1    2  501    0  0.63825070652E+01  0.14067062841E+02  0.19793370934E+02  0.17481246004E+03  0.17300000000E+03 0.  1.
         -6    1    1    2    0  502 -0.63825070652E+01 -0.14067062841E+02  0.72165943674E+03  0.74226677231E+03  0.17300000000E+03 0.  1.
<mgrwt>
<rscale>  2 0.17368828E+03</rscale>
<asrwt>0</asrwt>
<pdfrwt beam="1">  1       21 0.12757938E+00 0.17368828E+03</pdfrwt>
<pdfrwt beam="2">  1       21 0.13509726E-01 0.17368828E+03</pdfrwt>
<totfact> 0.21757692E+04</totfact>
</mgrwt>
</event>
<event>
 4    1  0.3980289E+000  0.2402031E+03  0.7546771E-02  0.1119658E+00
         21   -1    0    0  503  502  0.00000000000E+00  0.00000000000E+00  0.58814800959E+03  0.58814800959E+03  0.00000000000E+00 0.  1.
         21   -1    0    0  501  503 -0.00000000000E+00 -0.00000000000E+00 -0.18929503630E+03  0.18929503630E+03  0.00000000000E+00 0.  1.
          6    1    1    2  501    0 -0.10268213089E+03 -0.13124367250E+03 -0.70380851723E+02  0.25030178958E+03  0.17300000000E+03 0.  1.
         -6    1    1    2    0  502  0.10268213089E+03  0.13124367250E+03  0.46923382501E+03  0.52714125632E+03  0.17300000000E+03 0.  1.
<mgrwt>
<rscale>  2 0.24020308E+03</rscale>
<asrwt>0</asrwt>
<pdfrwt beam="1">  1       21 0.90484309E-01 0.24020308E+03</pdfrwt>
<pdfrwt beam="2">  1       21 0.29122313E-01 0.24020308E+03</pdfrwt>
<totfact> 0.11367427E+04</totfact>
</mgrwt>
</event>
<event>
 4    1  0.3980289E+000  0.2231026E+03  0.7546771E-02  0.1131591E+00
         21   -1    0    0  503  502  0.00000000000E+00  0.00000000000E+00  0.88502580583E+02  0.88502580583E+02  0.00000000000E+00 0. -1.
         21   -1    0    0  501  503 -0.00000000000E+00 -0.00000000000E+00 -0.75214542801E+03  0.75214542801E+03  0.00000000000E+00 0. -1.
          6    1    1    2  501    0  0.46764129339E+02  0.13288666168E+03 -0.54293071097E+03  0.58698254281E+03  0.17300000000E+03 0. -1.
         -6    1    1    2    0  502 -0.46764129339E+02 -0.13288666168E+03 -0.12071213646E+03  0.25366546579E+03  0.17300000000E+03 0. -1.
<mgrwt>
<rscale>  2 0.22310255E+03</rscale>
<asrwt>0</asrwt>
<pdfrwt beam="1">  1       21 0.13615782E-01 0.22310255E+03</pdfrwt>
<pdfrwt beam="2">  1       21 0.11571468E+00 0.22310255E+03</pdfrwt>
<totfact> 0.26530160E+04</totfact>
</mgrwt>
</event>
<event>
 4    1  0.3980289E+000  0.1795048E+03  0.7546771E-02  0.1168283E+00
         21   -1    0    0  503  502  0.00000000000E+00  0.00000000000E+00  0.96892455263E+03  0.96892455263E+03  0.00000000000E+00 0. -1.
         21   -1    0    0  501  503 -0.00000000000E+00 -0.00000000000E+00 -0.44360064860E+02  0.44360064860E+02  0.00000000000E+00 0. -1.
          6    1    1    2  501    0 -0.31117090899E+02  0.36396512697E+02  0.20879391025E+03  0.27534864524E+03  0.17300000000E+03 0. -1.
         -6    1    1    2    0  502  0.31117090899E+02 -0.36396512697E+02  0.71577057753E+03  0.73793597225E+03  0.17300000000E+03 0. -1.
<mgrwt>
<rscale>  2 0.17950482E+03</rscale>
<asrwt>0</asrwt>
<pdfrwt beam="1">  1       21 0.14906530E+00 0.17950482E+03</pdfrwt>
<pdfrwt beam="2">  1       21 0.68246261E-02 0.17950482E+03</pdfrwt>
<totfact> 0.48378782E+04</totfact>
</mgrwt>
</event>
<event>
 4    1  0.3980289E+000  0.1809463E+03  0.7546771E-02  0.1166890E+00
         21   -1    0    0  501  502  0.00000000000E+00  0.00000000000E+00  0.38444907143E+03  0.38444907143E+03  0.00000000000E+00 0.  1.
         21   -1    0    0  502  503 -0.00000000000E+00 -0.00000000000E+00 -0.16792008875E+03  0.16792008875E+03  0.00000000000E+00 0.  1.
          6    1    1    2  501    0  0.50350558962E+02 -0.16654769608E+02  0.30215018360E+03  0.35218786689E+03  0.17300000000E+03 0.  1.
         -6    1    1    2    0  503 -0.50350558962E+02  0.16654769608E+02 -0.85621200915E+02  0.20018129329E+03  0.17300000000E+03 0.  1.
<mgrwt>
<rscale>  2 0.18094629E+03</rscale>
<asrwt>0</asrwt>
<pdfrwt beam="1">  1       21 0.59146011E-01 0.18094629E+03</pdfrwt>
<pdfrwt beam="2">  1       21 0.25833860E-01 0.18094629E+03</pdfrwt>
<totfact> 0.38239358E+04</totfact>
</mgrwt>
</event>
<event>
 4    1  0.3980289E+000  0.1812861E+03  0.7546771E-02  0.1166564E+00
         21   -1    0    0  503  502  0.00000000000E+00  0.00000000000E+00  0.18463535982E+03  0.18463535982E+03  0.00000000000E+00 0.  1.
         21   -1    0    0  501  503 -0.00000000000E+00 -0.00000000000E+00 -0.33874165411E+03  0.33874165411E+03  0.00000000000E+00 0.  1.
          6    1    1    2  501    0  0.75458006541E+01  0.53653709463E+02 -0.25732077435E+03  0.31476759770E+03  0.17300000000E+03 0.  1.
         -6    1    1    2    0  502 -0.75458006541E+01 -0.53653709463E+02  0.10321448007E+03  0.20860941624E+03  0.17300000000E+03 0.  1.
<mgrwt>
<rscale>  2 0.18128613E+03</rscale>
<asrwt>0</asrwt>
<pdfrwt beam="1">  1       21 0.28405440E-01 0.18128613E+03</pdfrwt>
<pdfrwt beam="2">  1       21 0.52114101E-01 0.18128613E+03</pdfrwt>
<totfact> 0.41637945E+04</totfact>
</mgrwt>
</event>
<event>
 4    1  0.3980289E+000  0.2125698E+03  0.7546771E-02  0.1139547E+00
         21   -1    0    0  501  502  0.00000000000E+00  0.00000000000E+00  0.83415134488E+03  0.83415134488E+03  0.00000000000E+00 0. -1.
         21   -1    0    0  502  503 -0.00000000000E+00 -0.00000000000E+00 -0.10035460144E+03  0.10035460144E+03  0.00000000000E+00 0. -1.
          6    1    1    2  501    0  0.65565448274E+02  0.10468092592E+03  0.68387871634E+03  0.71615363081E+03  0.17300000000E+03 0. -1.
         -6    1    1    2    0  503 -0.65565448274E+02 -0.10468092592E+03  0.49918027092E+02  0.21835231551E+03  0.17300000000E+03 0. -1.
<mgrwt>
<rscale>  2 0.21256981E+03</rscale>
<asrwt>0</asrwt>
<pdfrwt beam="1">  1       21 0.12833097E+00 0.21256981E+03</pdfrwt>
<pdfrwt beam="2">  1       21 0.15439170E-01 0.21256981E+03</pdfrwt>
<totfact> 0.16403194E+04</totfact>
</mgrwt>
</event>
<event>
 4    1  0.3980289E+000  0.1762287E+03  0.7546771E-02  0.1171504E+00
         21   -1    0    0  503  502  0.00000000000E+00  0.00000000000E+00  0.26954592505E+03  0.26954592505E+03  0.00000000000E+00 0.  1.
         21   -1    0    0  501  503 -0.00000000000E+00 -0.00000000000E+00 -0.12773921250E+03  0.12773921250E+03  0.00000000000E+00 0.  1.
          6    1    1    2  501    0 -0.31299277653E+02  0.12161550418E+02  0.87115698253E+01  0.17644387079E+03  0.17300000000E+03 0. -1.
         -6    1    1    2    0  502  0.31299277653E+02 -0.12161550418E+02  0.13309514272E+03  0.22084126677E+03  0.17300000000E+03 0. -1.
<mgrwt>
<rscale>  2 0.17622868E+03</rscale>
<asrwt>0</asrwt>
<pdfrwt beam="1">  1       21 0.41468604E-01 0.17622868E+03</pdfrwt>
<pdfrwt beam="2">  1       21 0.19652187E-01 0.17622868E+03</pdfrwt>
<totfact> 0.13429723E+05</totfact>
</mgrwt>
</event>
<event>
 4    1  0.3980289E+000  0.1820862E+03  0.7546771E-02  0.1165799E+00
         21   -1    0    0  501  502  0.00000000000E+00  0.00000000000E+00  0.90941495446E+02  0.90941495446E+02  0.00000000000E+00 0.  1.
         21   -1    0    0  502  503 -0.00000000000E+00 -0.00000000000E+00 -0.64942188462E+03  0.64942188462E+03  0.00000000000E+00 0.  1.
          6    1    1    2  501    0 -0.19399096820E+02  0.53385981231E+02 -0.34077761466E+02  0.18524762286E+03  0.17300000000E+03 0.  1.
         -6    1    1    2    0  503  0.19399096820E+02 -0.53385981231E+02 -0.52440262771E+03  0.55511575721E+03  0.17300000000E+03 0.  1.
<mgrwt>
<rscale>  2 0.18208621E+03</rscale>
<asrwt>0</asrwt>
<pdfrwt beam="1">  1       21 0.13991000E-01 0.18208621E+03</pdfrwt>
<pdfrwt beam="2">  1       21 0.99911057E-01 0.18208621E+03</pdfrwt>
<totfact> 0.36831846E+04</totfact>
</mgrwt>
</event>
<event>
 4    1  0.3980289E+000  0.1844504E+03  0.7546771E-02  0.1163564E+00
         21   -1    0    0  503  502  0.00000000000E+00  0.00000000000E+00  0.57893415984E+02  0.57893415984E+02  0.00000000000E+00 0.  1.
         21   -1    0    0  501  503 -0.00000000000E+00 -0.00000000000E+00 -0.18269863052E+04  0.18269863052E+04  0.00000000000E+00 0.  1.
          6    1    1    2  501    0 -0.23791063611E+02 -0.59387882728E+02 -0.16607541599E+04  0.16709656833E+04  0.17300000000E+03 0.  1.
         -6    1    1    2    0  502  0.23791063611E+02  0.59387882728E+02 -0.10833872937E+03  0.21391403789E+03  0.17300000000E+03 0.  1.
<mgrwt>
<rscale>  2 0.18445036E+03</rscale>
<asrwt>0</asrwt>
<pdfrwt beam="1">  1       21 0.89066786E-02 0.18445036E+03</pdfrwt>
<pdfrwt beam="2">  1       21 0.28107484E+00 0.18445036E+03</pdfrwt>
<totfact> 0.44059744E+03</totfact>
</mgrwt>
</event>
<event>
 4    1  0.3980289E+000  0.2330181E+03  0.7546771E-02  0.1124533E+00
         21   -1    0    0  503  502  0.00000000000E+00  0.00000000000E+00  0.13103850820E+04  0.13103850820E+04  0.00000000000E+00 0. -1.
         21   -1    0    0  501  503 -0.00000000000E+00 -0.00000000000E+00 -0.51407389708E+02  0.51407389708E+02  0.00000000000E+00 0. -1.
          6    1    1    2  501    0 -0.14681314624E+03 -0.53050243132E+02  0.32961346164E+03  0.40366132128E+03  0.17300000000E+03 0. -1.
         -6    1    1    2    0  502  0.14681314624E+03  0.53050243132E+02  0.92936423069E+03  0.95813115046E+03  0.17300000000E+03 0. -1.
<mgrwt>
<rscale>  2 0.23301809E+03</rscale>
<asrwt>0</asrwt>
<pdfrwt beam="1">  1       21 0.20159768E+00 0.23301809E+03</pdfrwt>
<pdfrwt beam="2">  1       21 0.79088302E-02 0.23301809E+03</pdfrwt>
<totfact> 0.15578778E+04</totfact>
</mgrwt>
</event>
<event>
 4    1  0.3980289E+000  0.2038943E+03  0.7546771E-02  0.1146494E+00
         21   -1    0    0  501  502  0.00000000000E+00  0.00000000000E+00  0.54623018848E+02  0.54623018848E+02  0.00000000000E+00 0. -1.
         21   -1    0    0  502  503 -0.00000000000E+00 -0.00000000000E+00 -0.89456964251E+03  0.89456964251E+03  0.00000000000E+00 0. -1.
          6    1    1    2  501    0 -0.10442906353E+03  0.27174391887E+02 -0.23664502613E+03  0.31236796454E+03  0.17300000000E+03 0. -1.
         -6    1    1    2    0  503  0.10442906353E+03 -0.27174391887E+02 -0.60330159754E+03  0.63682469682E+03  0.17300000000E+03 0. -1.
<mgrwt>
<rscale>  2 0.20389428E+03</rscale>
<asrwt>0</asrwt>
<pdfrwt beam="1">  1       21 0.84035420E-02 0.20389428E+03</pdfrwt>
<pdfrwt beam="2">  1       21 0.13762609E+00 0.20389428E+03</pdfrwt>
<totfact> 0.40921871E+04</totfact>
</mgrwt>
</event>
<event>
 4    1  0.3980289E+000  0.1780510E+03  0.7546771E-02  0.1169703E+00
         21   -1    0    0  503  502  0.00000000000E+00  0.00000000000E+00  0.11707031704E+03  0.11707031704E+03  0.00000000000E+00 0.  1.
         21   -1    0    0  501  503 -0.00000000000E+00 -0.00000000000E+00 -0.29026627446E+03  0.29026627446E+03  0.00000000000E+00 0.  1.
          6    1    1    2  501    0 -0.40893217439E+02 -0.10044855310E+02 -0.13934683019E+03  0.22609664623E+03  0.17300000000E+03 0.  1.
         -6    1    1    2    0  502  0.40893217439E+02  0.10044855310E+02 -0.33849127228E+02  0.18123994528E+03  0.17300000000E+03 0.  1.
<mgrwt>
<rscale>  2 0.17805099E+03</rscale>
<asrwt>0</asrwt>
<pdfrwt beam="1">  1       21 0.18010818E-01 0.17805099E+03</pdfrwt>
<pdfrwt beam="2">  1       21 0.44656350E-01 0.17805099E+03</pdfrwt>
<totfact> 0.13566868E+05</totfact>
</mgrwt>
</event>
<event>
 4    1  0.3980289E+000  0.2543171E+03  0.7546771E-02  0.1110607E+00
         21   -1    0    0  503  502  0.00000000000E+00  0.00000000000E+00  0.38574082725E+03  0.38574082725E+03  0.00000000000E+00 0.  1.
         21   -1    0    0  501  503 -0.00000000000E+00 -0.00000000000E+00 -0.17168862987E+03  0.17168862987E+03  0.00000000000E+00 0. -1.
          6    1    1    2  501    0 -0.10399220737E+03  0.15470555156E+03  0.64385330300E+02  0.26234072813E+03  0.17300000000E+03 0. -1.
         -6    1    1    2    0  502  0.10399220737E+03 -0.15470555156E+03  0.14966686707E+03  0.29508872899E+03  0.17300000000E+03 0. -1.
<mgrwt>
<rscale>  2 0.25431710E+03</rscale>
<asrwt>0</asrwt>
<pdfrwt beam="1">  1       21 0.59344742E-01 0.25431710E+03</pdfrwt>
<pdfrwt beam="2">  1       21 0.26413636E-01 0.25431710E+03</pdfrwt>
<totfact> 0.35111038E+04</totfact>
</mgrwt>
</event>
<event>
 4    1  0.3980289E+000  0.1776131E+03  0.7546771E-02  0.1170133E+00
         21   -1    0    0  503  502  0.00000000000E+00  0.00000000000E+00  0.36550202316E+03  0.36550202316E+03  0.00000000000E+00 0.  1.
         21   -1    0    0  501  503 -0.00000000000E+00 -0.00000000000E+00 -0.86678909600E+02  0.86678909600E+02  0.00000000000E+00 0.  1.
          6    1    1    2  501    0 -0.35725382503E+02  0.18469007550E+02  0.12465781725E+03  0.21699303813E+03  0.17300000000E+03 0. -1.
         -6    1    1    2    0  502  0.35725382503E+02 -0.18469007550E+02  0.15416529631E+03  0.23518789463E+03  0.17300000000E+03 0. -1.
<mgrwt>
<rscale>  2 0.17761308E+03</rscale>
<asrwt>0</asrwt>
<pdfrwt beam="1">  1       21 0.56231080E-01 0.17761308E+03</pdfrwt>
<pdfrwt beam="2">  1       21 0.13335217E-01 0.17761308E+03</pdfrwt>
<totfact> 0.14522647E+05</totfact>
</mgrwt>
</event>
<event>
 4    1  0.3980289E+000  0.2293147E+03  0.7546771E-02  0.1127123E+00
         21   -1    0    0  501  502  0.00000000000E+00  0.00000000000E+00  0.98561598101E+03  0.98561598101E+03  0.00000000000E+00 0. -1.
         21   -1    0    0  502  503 -0.00000000000E+00 -0.00000000000E+00 -0.61597014774E+02  0.61597014774E+02  0.00000000000E+00 0. -1.
          6    1    1    2  501    0  0.43544643690E+01 -0.15045684382E+03  0.65356904187E+03  0.69263100977E+03  0.17300000000E+03 0. -1.
         -6    1    1    2    0  503 -0.43544643690E+01  0.15045684382E+03  0.27044992437E+03  0.35458198601E+03  0.17300000000E+03 0. -1.
<mgrwt>
<rscale>  2 0.22931468E+03</rscale>
<asrwt>0</asrwt>
<pdfrwt beam="1">  1       21 0.15163322E+00 0.22931468E+03</pdfrwt>
<pdfrwt beam="2">  1       21 0.94764645E-02 0.22931468E+03</pdfrwt>
<totfact> 0.25336267E+04</totfact>
</mgrwt>
</event>
<event>
 4    1  0.3980289E+000  0.2058123E+03  0.7546771E-02  0.1144926E+00
         21   -1    0    0  501  502  0.00000000000E+00  0.00000000000E+00  0.12006343757E+03  0.12006343757E+03  0.00000000000E+00 0.  1.
         21   -1    0    0  502  503 -0.00000000000E+00 -0.00000000000E+00 -0.35757575984E+03  0.35757575984E+03  0.00000000000E+00 0. -1.
          6    1    1    2  501    0 -0.72298981025E+02 -0.84868007883E+02 -0.91164482243E+02  0.22509927641E+03  0.17300000000E+03 0.  1.
         -6    1    1    2    0  503  0.72298981025E+02  0.84868007883E+02 -0.14634784002E+03  0.25253992100E+03  0.17300000000E+03 0. -1.
<mgrwt>
<rscale>  2 0.20581235E+03</rscale>
<asrwt>0</asrwt>
<pdfrwt beam="1">  1       21 0.18471298E-01 0.20581235E+03</pdfrwt>
<pdfrwt beam="2">  1       21 0.55011656E-01 0.20581235E+03</pdfrwt>
<totfact> 0.82976041E+04</totfact>
</mgrwt>
</event>
<event>
 4    1  0.3980289E+000  0.1948570E+03  0.7546771E-02  0.1154152E+00
         21   -1    0    0  503  502  0.00000000000E+00  0.00000000000E+00  0.14873618839E+03  0.14873618839E+03  0.00000000000E+00 0.  1.
         21   -1    0    0  501  503 -0.00000000000E+00 -0.00000000000E+00 -0.25548215029E+03  0.25548215029E+03  0.00000000000E+00 0. -1.
          6    1    1    2  501    0  0.83862387568E+02 -0.31738858773E+02 -0.59069380134E+02  0.20361347420E+03  0.17300000000E+03 0.  1.
         -6    1    1    2    0  502 -0.83862387568E+02  0.31738858773E+02 -0.47676581766E+02  0.20060486448E+03  0.17300000000E+03 0. -1.
<mgrwt>
<rscale>  2 0.19485701E+03</rscale>
<asrwt>0</asrwt>
<pdfrwt beam="1">  1       21 0.22882491E-01 0.19485701E+03</pdfrwt>
<pdfrwt beam="2">  1       21 0.39304946E-01 0.19485701E+03</pdfrwt>
<totfact> 0.11174657E+05</totfact>
</mgrwt>
</event>
<event>
 4    1  0.3980289E+000  0.2319009E+03  0.7546771E-02  0.1125309E+00
         21   -1    0    0  501  502  0.00000000000E+00  0.00000000000E+00  0.35830135661E+02  0.35830135661E+02  0.00000000000E+00 0. -1.
         21   -1    0    0  502  503 -0.00000000000E+00 -0.00000000000E+00 -0.17992016264E+04  0.17992016264E+04  0.00000000000E+00 0.  1.
          6    1    1    2  501    0 -0.73780204991E+02  0.13566684843E+03 -0.50810019592E+03  0.55851931167E+03  0.17300000000E+03 0. -1.
         -6    1    1    2    0  503  0.73780204991E+02 -0.13566684843E+03 -0.12552712948E+04  0.12765124504E+04  0.17300000000E+03 0.  1.
<mgrwt>
<rscale>  2 0.23190087E+03</rscale>
<asrwt>0</asrwt>
<pdfrwt beam="1">  1       21 0.55123309E-02 0.23190087E+03</pdfrwt>
<pdfrwt beam="2">  1       21 0.27680013E+00 0.23190087E+03</pdfrwt>
<totfact> 0.10195503E+04</totfact>
</mgrwt>
</event>
<event>
 4    1  0.3980289E+000  0.1771461E+03  0.7546771E-02  0.1170594E+00
         21   -1    0    0  501  502  0.00000000000E+00  0.00000000000E+00  0.17775236102E+04  0.17775236102E+04  0.00000000000E+00 0. -1.
         21   -1    0    0  502  503 -0.00000000000E+00 -0.00000000000E+00 -0.23623362847E+02  0.23623362847E+02  0.00000000000E+00 0. -1.
          6    1    1    2  501    0  0.27252600646E+02  0.26628015097E+02  0.13296444473E+04  0.13413929744E+04  0.17300000000E+03 0. -1.
         -6    1    1    2    0  503 -0.27252600646E+02 -0.26628015097E+02  0.42425580006E+03  0.45975399869E+03  0.17300000000E+03 0. -1.
<mgrwt>
<rscale>  2 0.17714614E+03</rscale>
<asrwt>0</asrwt>
<pdfrwt beam="1">  1       21 0.27346507E+00 0.17714614E+03</pdfrwt>
<pdfrwt beam="2">  1       21 0.36343649E-02 0.17714614E+03</pdfrwt>
<totfact> 0.22659571E+04</totfact>
</mgrwt>
</event>
<event>
 4    1  0.3980289E+000  0.2122462E+03  0.7546771E-02  0.1139800E+00
         21   -1    0    0  501  502  0.00000000000E+00  0.00000000000E+00  0.38892853046E+03  0.38892853046E+03  0.00000000000E+00 0. -1.
         21   -1    0    0  502  503 -0.00000000000E+00 -0.00000000000E+00 -0.11946514862E+03  0.11946514862E+03  0.00000000000E+00 0.  1.
          6    1    1    2  501    0  0.10637766232E+03  0.61670301530E+02  0.17909137934E+03  0.27770875983E+03  0.17300000000E+03 0. -1.
         -6    1    1    2    0  503 -0.10637766232E+03 -0.61670301530E+02  0.90372002505E+02  0.23068491925E+03  0.17300000000E+03 0.  1.
<mgrwt>
<rscale>  2 0.21224616E+03</rscale>
<asrwt>0</asrwt>
<pdfrwt beam="1">  1       21 0.59835158E-01 0.21224616E+03</pdfrwt>
<pdfrwt beam="2">  1       21 0.18379254E-01 0.21224616E+03</pdfrwt>
<totfact> 0.69799057E+04</totfact>
</mgrwt>
</event>
<event>
 4    1  0.3980289E+000  0.1834661E+03  0.7546771E-02  0.1164490E+00
         21   -1    0    0  501  502  0.00000000000E+00  0.00000000000E+00  0.51892941068E+03  0.51892941068E+03  0.00000000000E+00 0. -1.
         21   -1    0    0  502  503 -0.00000000000E+00 -0.00000000000E+00 -0.11599910283E+03  0.11599910283E+03  0.00000000000E+00 0. -1.
          6    1    1    2  501    0  0.47396119374E+02 -0.38528178309E+02  0.41224412907E+03  0.45122614575E+03  0.17300000000E+03 0. -1.
         -6    1    1    2    0  503 -0.47396119374E+02  0.38528178309E+02 -0.93138212257E+01  0.18370236776E+03  0.17300000000E+03 0. -1.
<mgrwt>
<rscale>  2 0.18346611E+03</rscale>
<asrwt>0</asrwt>
<pdfrwt beam="1">  1       21 0.79835292E-01 0.18346611E+03</pdfrwt>
<pdfrwt beam="2">  1       21 0.17846016E-01 0.18346611E+03</pdfrwt>
<totfact> 0.39600951E+04</totfact>
</mgrwt>
</event>
<event>
 4    1  0.3980289E+000  0.2258871E+03  0.7546771E-02  0.1129569E+00
         21   -1    0    0  503  502  0.00000000000E+00  0.00000000000E+00  0.11639179908E+03  0.11639179908E+03  0.00000000000E+00 0. -1.
         21   -1    0    0  501  503 -0.00000000000E+00 -0.00000000000E+00 -0.45900401161E+03  0.45900401161E+03  0.00000000000E+00 0. -1.
          6    1    1    2  501    0 -0.14461011816E+03  0.13560439697E+02 -0.23227556536E+03  0.32400140441E+03  0.17300000000E+03 0.  1.
         -6    1    1    2    0  502  0.14461011816E+03 -0.13560439697E+02 -0.11033664718E+03  0.25139440628E+03  0.17300000000E+03 0.  1.
<mgrwt>
<rscale>  2 0.22588708E+03</rscale>
<asrwt>0</asrwt>
<pdfrwt beam="1">  1       21 0.17906431E-01 0.22588708E+03</pdfrwt>
<pdfrwt beam="2">  1       21 0.70616001E-01 0.22588708E+03</pdfrwt>
<totfact> 0.50715250E+04</totfact>
</mgrwt>
</event>
<event>
 4    1  0.3980289E+000  0.1920383E+03  0.7546771E-02  0.1156636E+00
         21   -1    0    0  501  502  0.00000000000E+00  0.00000000000E+00  0.44417458671E+02  0.44417458671E+02  0.00000000000E+00 0. -1.
         21   -1    0    0  502  503 -0.00000000000E+00 -0.00000000000E+00 -0.83292523043E+03  0.83292523043E+03  0.00000000000E+00 0. -1.
          6    1    1    2  501    0  0.15566862290E+02 -0.81898615445E+02 -0.41899783464E+03  0.46090985653E+03  0.17300000000E+03 0. -1.
         -6    1    1    2    0  503 -0.15566862290E+02  0.81898615445E+02 -0.36950993712E+03  0.41643283257E+03  0.17300000000E+03 0. -1.
<mgrwt>
<rscale>  2 0.19203830E+03</rscale>
<asrwt>0</asrwt>
<pdfrwt beam="1">  1       21 0.68334562E-02 0.19203830E+03</pdfrwt>
<pdfrwt beam="2">  1       21 0.12814232E+00 0.19203830E+03</pdfrwt>
<totfact> 0.70700593E+04</totfact>
</mgrwt>
</event>
<event>
 4    1  0.3980289E+000  0.2138982E+03  0.7546771E-02  0.1138516E+00
         21   -1    0    0  501  502  0.00000000000E+00  0.00000000000E+00  0.19278547934E+03  0.19278547934E+03  0.00000000000E+00 0. -1.
         21   -1    0    0  502  503 -0.00000000000E+00 -0.00000000000E+00 -0.28890640252E+03  0.28890640252E+03  0.00000000000E+00 0. -1.
          6    1    1    2  501    0  0.91229617669E+02  0.86605923829E+02  0.53708588760E+02  0.22053807310E+03  0.17300000000E+03 0.  1.
         -6    1    1    2    0  503 -0.91229617669E+02 -0.86605923829E+02 -0.14982951194E+03  0.26115380876E+03  0.17300000000E+03 0.  1.
<mgrwt>
<rscale>  2 0.21389817E+03</rscale>
<asrwt>0</asrwt>
<pdfrwt beam="1">  1       21 0.29659304E-01 0.21389817E+03</pdfrwt>
<pdfrwt beam="2">  1       21 0.44447139E-01 0.21389817E+03</pdfrwt>
<totfact> 0.52427870E+04</totfact>
</mgrwt>
</event>
<event>
 4    1  0.3980289E+000  0.2024893E+03  0.7546771E-02  0.1147656E+00
         21   -1    0    0  503  502  0.00000000000E+00  0.00000000000E+00  0.13200211579E+03  0.13200211579E+03  0.00000000000E+00 0.  1.
         21   -1    0    0  501  503 -0.00000000000E+00 -0.00000000000E+00 -0.31944535410E+03  0.31944535410E+03  0.00000000000E+00 0. -1.
          6    1    1    2  501    0  0.27832160752E+02 -0.10148049496E+03 -0.13124937268E+03  0.24130544515E+03  0.17300000000E+03 0. -1.
         -6    1    1    2    0  502 -0.27832160752E+02  0.10148049496E+03 -0.56193865624E+02  0.21014202474E+03  0.17300000000E+03 0.  1.
<mgrwt>
<rscale>  2 0.20248931E+03</rscale>
<asrwt>0</asrwt>
<pdfrwt beam="1">  1       21 0.20308018E-01 0.20248931E+03</pdfrwt>
<pdfrwt beam="2">  1       21 0.49145438E-01 0.20248931E+03</pdfrwt>
<totfact> 0.88237869E+04</totfact>
</mgrwt>
</event>
<event>
 4    1  0.3980289E+000  0.1927537E+03  0.7546771E-02  0.1156001E+00
         21   -1    0    0  503  502  0.00000000000E+00  0.00000000000E+00  0.27299579311E+03  0.27299579311E+03  0.00000000000E+00 0.  1.
         21   -1    0    0  501  503 -0.00000000000E+00 -0.00000000000E+00 -0.14932875003E+03  0.14932875003E+03  0.00000000000E+00 0.  1.
          6    1    1    2  501    0  0.54872904398E+01  0.84822732590E+02 -0.10225697565E+01  0.19275645766E+03  0.17300000000E+03 0.  1.
         -6    1    1    2    0  502 -0.54872904398E+01 -0.84822732590E+02  0.12468961284E+03  0.22956808548E+03  0.17300000000E+03 0.  1.
<mgrwt>
<rscale>  2 0.19275375E+03</rscale>
<asrwt>0</asrwt>
<pdfrwt beam="1">  1       21 0.41999353E-01 0.19275375E+03</pdfrwt>
<pdfrwt beam="2">  1       21 0.22973654E-01 0.19275375E+03</pdfrwt>
<totfact> 0.97055798E+04</totfact>
</mgrwt>
</event>
<event>
 4    1  0.3980289E+000  0.1806559E+03  0.7546771E-02  0.1167170E+00
         21   -1    0    0  501  502  0.00000000000E+00  0.00000000000E+00  0.44820348989E+03  0.44820348989E+03  0.00000000000E+00 0.  1.
         21   -1    0    0  502  503 -0.00000000000E+00 -0.00000000000E+00 -0.72892384060E+02  0.72892384060E+02  0.00000000000E+00 0.  1.
          6    1    1    2  501    0  0.40676136667E+02 -0.32449937577E+02  0.17924115741E+03  0.25448760098E+03  0.17300000000E+03 0.  1.
         -6    1    1    2    0  503 -0.40676136667E+02  0.32449937577E+02  0.19606994842E+03  0.26660827297E+03  0.17300000000E+03 0.  1.
<mgrwt>
<rscale>  2 0.18065588E+03</rscale>
<asrwt>0</asrwt>
<pdfrwt beam="1">  1       21 0.68954381E-01 0.18065588E+03</pdfrwt>
<pdfrwt beam="2">  1       21 0.11214213E-01 0.18065588E+03</pdfrwt>
<totfact> 0.12737915E+05</totfact>
</mgrwt>
</event>
<event>
 4    1  0.3980289E+000  0.1901417E+03  0.7546771E-02  0.1158334E+00
         21   -1    0    0  501  502  0.00000000000E+00  0.00000000000E+00  0.82174227033E+03  0.82174227033E+03  0.00000000000E+00 0.  1.
         21   -1    0    0  502  503 -0.00000000000E+00 -0.00000000000E+00 -0.64421271874E+02  0.64421271874E+02  0.00000000000E+00 0.  1.
          6    1    1    2  501    0  0.68159941814E+02 -0.39737734761E+02  0.62814684920E+03  0.65629439232E+03  0.17300000000E+03 0.  1.
         -6    1    1    2    0  503 -0.68159941814E+02  0.39737734761E+02  0.12917414926E+03  0.22986914989E+03  0.17300000000E+03 0.  1.
<mgrwt>
<rscale>  2 0.19014170E+03</rscale>
<asrwt>0</asrwt>
<pdfrwt beam="1">  1       21 0.12642188E+00 0.19014170E+03</pdfrwt>
<pdfrwt beam="2">  1       21 0.99109655E-02 0.19014170E+03</pdfrwt>
<totfact> 0.38279803E+04</totfact>
</mgrwt>
</event>
<event>
 4    1  0.3980289E+000  0.2846861E+03  0.7546771E-02  0.1093157E+00
         21   -1    0    0  501  502  0.00000000000E+00  0.00000000000E+00  0.37386098384E+03  0.37386098384E+03  0.00000000000E+00 0. -1.
         21   -1    0    0  502  503 -0.00000000000E+00 -0.00000000000E+00 -0.36021112800E+03  0.36021112800E+03  0.00000000000E+00 0. -1.
          6    1    1    2  501    0 -0.13412679560E+03  0.18200866422E+03  0.23843080594E+03  0.37134269936E+03  0.17300000000E+03 0. -1.
         -6    1    1    2    0  503  0.13412679560E+03 -0.18200866422E+03 -0.22478095011E+03  0.36272941248E+03  0.17300000000E+03 0. -1.
<mgrwt>
<rscale>  2 0.28468606E+03</rscale>
<asrwt>0</asrwt>
<pdfrwt beam="1">  1       21 0.57517074E-01 0.28468606E+03</pdfrwt>
<pdfrwt beam="2">  1       21 0.55417097E-01 0.28468606E+03</pdfrwt>
<totfact> 0.82395717E+03</totfact>
</mgrwt>
</event>
<event>
 4    1  0.3980289E+000  0.1765294E+03  0.7546771E-02  0.1171205E+00
         21   -1    0    0  501  502  0.00000000000E+00  0.00000000000E+00  0.14497360745E+03  0.14497360745E+03  0.00000000000E+00 0. -1.
         21   -1    0    0  502  503 -0.00000000000E+00 -0.00000000000E+00 -0.22572855475E+03  0.22572855475E+03  0.00000000000E+00 0. -1.
          6    1    1    2  501    0 -0.12842669774E+02  0.32691123320E+02  0.11770888393E+00  0.17652948073E+03  0.17300000000E+03 0. -1.
         -6    1    1    2    0  503  0.12842669774E+02 -0.32691123320E+02 -0.80872656185E+02  0.19417268147E+03  0.17300000000E+03 0. -1.
<mgrwt>
<rscale>  2 0.17652944E+03</rscale>
<asrwt>0</asrwt>
<pdfrwt beam="1">  1       21 0.22303632E-01 0.17652944E+03</pdfrwt>
<pdfrwt beam="2">  1       21 0.34727470E-01 0.17652944E+03</pdfrwt>
<totfact> 0.15112331E+05</totfact>
</mgrwt>
</event>
<event>
 4    1  0.3980289E+000  0.1842568E+03  0.7546771E-02  0.1163746E+00
         21   -1    0    0  503  502  0.00000000000E+00  0.00000000000E+00  0.14817908005E+03  0.14817908005E+03  0.00000000000E+00 0.  1.
         21   -1    0    0  501  503 -0.00000000000E+00 -0.00000000000E+00 -0.11105393627E+04  0.11105393627E+04  0.00000000000E+00 0.  1.
          6    1    1    2  501    0 -0.13103765891E+02  0.62047196444E+02 -0.10418707646E+04  0.10580383988E+04  0.17300000000E+03 0.  1.
         -6    1    1    2    0  502  0.13103765891E+02 -0.62047196444E+02  0.79510481983E+02  0.20068004388E+03  0.17300000000E+03 0.  1.
<mgrwt>
<rscale>  2 0.18425679E+03</rscale>
<asrwt>0</asrwt>
<pdfrwt beam="1">  1       21 0.22796782E-01 0.18425679E+03</pdfrwt>
<pdfrwt beam="2">  1       21 0.17085221E+00 0.18425679E+03</pdfrwt>
<totfact> 0.38281297E+03</totfact>
</mgrwt>
</event>
<event>
 4    1  0.3980289E+000  0.2807846E+03  0.7546771E-02  0.1095261E+00
         21   -1    0    0  503  502  0.00000000000E+00  0.00000000000E+00  0.64058722955E+03  0.64058722955E+03  0.00000000000E+00 0. -1.
         21   -1    0    0  501  503 -0.00000000000E+00 -0.00000000000E+00 -0.13148866374E+03  0.13148866374E+03  0.00000000000E+00 0. -1.
          6    1    1    2  501    0  0.34877585482E+02 -0.21839079174E+03  0.35220329153E+03  0.45042995288E+03  0.17300000000E+03 0. -1.
         -6    1    1    2    0  502 -0.34877585482E+02  0.21839079174E+03  0.15689527428E+03  0.32164594040E+03  0.17300000000E+03 0. -1.
<mgrwt>
<rscale>  2 0.28078459E+03</rscale>
<asrwt>0</asrwt>
<pdfrwt beam="1">  1       21 0.98551879E-01 0.28078459E+03</pdfrwt>
<pdfrwt beam="2">  1       21 0.20229026E-01 0.28078459E+03</pdfrwt>
<totfact> 0.18313910E+04</totfact>
</mgrwt>
</event>
<event>
 4    1  0.3980289E+000  0.2108037E+03  0.7546771E-02  0.1140931E+00
         21   -1    0    0  503  502  0.00000000000E+00  0.00000000000E+00  0.49885731491E+03  0.49885731491E+03  0.00000000000E+00 0. -1.
         21   -1    0    0  501  503 -0.00000000000E+00 -0.00000000000E+00 -0.10390097727E+03  0.10390097727E+03  0.00000000000E+00 0.  1.
          6    1    1    2  501    0 -0.30330958184E+02  0.11657290077E+03  0.83652072144E+02  0.22679479137E+03  0.17300000000E+03 0.  1.
         -6    1    1    2    0  502  0.30330958184E+02 -0.11657290077E+03  0.31130426551E+03  0.37596350081E+03  0.17300000000E+03 0. -1.
<mgrwt>
<rscale>  2 0.21080372E+03</rscale>
<asrwt>0</asrwt>
<pdfrwt beam="1">  1       21 0.76747278E-01 0.21080372E+03</pdfrwt>
<pdfrwt beam="2">  1       21 0.15984766E-01 0.21080372E+03</pdfrwt>
<totfact> 0.52280789E+04</totfact>
</mgrwt>
</event>
<event>
 4    1  0.3980289E+000  0.1886707E+03  0.7546771E-02  0.1159666E+00
         21   -1    0    0  501  502  0.00000000000E+00  0.00000000000E+00  0.17965959667E+03  0.17965959667E+03  0.00000000000E+00 0.  1.
         21   -1    0    0  502  503 -0.00000000000E+00 -0.00000000000E+00 -0.20403657794E+03  0.20403657794E+03  0.00000000000E+00 0.  1.
          6    1    1    2  501    0 -0.31309200296E+02  0.68464343729E+02  0.20442702411E+02  0.18977496270E+03  0.17300000000E+03 0.  1.
         -6    1    1    2    0  503  0.31309200296E+02 -0.68464343729E+02 -0.44819683682E+02  0.19392121192E+03  0.17300000000E+03 0.  1.
<mgrwt>
<rscale>  2 0.18867070E+03</rscale>
<asrwt>0</asrwt>
<pdfrwt beam="1">  1       21 0.27639938E-01 0.18867070E+03</pdfrwt>
<pdfrwt beam="2">  1       21 0.31390243E-01 0.18867070E+03</pdfrwt>
<totfact> 0.12201188E+05</totfact>
</mgrwt>
</event>
<event>
 4    1  0.3980289E+000  0.3276098E+03  0.7546771E-02  0.1072199E+00
         21   -1    0    0  501  502  0.00000000000E+00  0.00000000000E+00  0.41051251993E+03  0.41051251993E+03  0.00000000000E+00 0. -1.
         21   -1    0    0  502  503 -0.00000000000E+00 -0.00000000000E+00 -0.31526017254E+03  0.31526017254E+03  0.00000000000E+00 0.  1.
          6    1    1    2  501    0  0.25865698126E+03  0.10244884049E+03  0.19755019056E+03  0.38256277480E+03  0.17300000000E+03 0. -1.
         -6    1    1    2    0  503 -0.25865698126E+03 -0.10244884049E+03 -0.10229784317E+03  0.34320991767E+03  0.17300000000E+03 0.  1.
<mgrwt>
<rscale>  2 0.32760983E+03</rscale>
<asrwt>0</asrwt>
<pdfrwt beam="1">  1       21 0.63155772E-01 0.32760983E+03</pdfrwt>
<pdfrwt beam="2">  1       21 0.48501565E-01 0.32760983E+03</pdfrwt>
<totfact> 0.87473207E+03</totfact>
</mgrwt>
</event>
<event>
 4    1  0.3980289E+000  0.1960760E+03  0.7546771E-02  0.1153093E+00
         21   -1    0    0  501  502  0.00000000000E+00  0.00000000000E+00  0.21378871155E+03  0.21378871155E+03  0.00000000000E+00 0.  1.
         21   -1    0    0  502  503 -0.00000000000E+00 -0.00000000000E+00 -0.39073696685E+03  0.39073696685E+03  0.00000000000E+00 0.  1.
          6    1    1    2  501    0 -0.23349101373E+02  0.89283930486E+02  0.13359445392E+03  0.23726204690E+03  0.17300000000E+03 0.  1.
         -6    1    1    2    0  503  0.23349101373E+02 -0.89283930486E+02 -0.31054270922E+03  0.36726363151E+03  0.17300000000E+03 0.  1.
<mgrwt>
<rscale>  2 0.19607601E+03</rscale>
<asrwt>0</asrwt>
<pdfrwt beam="1">  1       21 0.32890571E-01 0.19607601E+03</pdfrwt>
<pdfrwt beam="2">  1       21 0.60113379E-01 0.19607601E+03</pdfrwt>
<totfact> 0.22919402E+04</totfact>
</mgrwt>
</event>
<event>
 4    1  0.3980289E+000  0.2230806E+03  0.7546771E-02  0.1131607E+00
         21   -1    0    0  503  502  0.00000000000E+00  0.00000000000E+00  0.11593267725E+04  0.11593267725E+04  0.00000000000E+00 0.  1.
         21   -1    0    0  501  503 -0.00000000000E+00 -0.00000000000E+00 -0.47987301056E+02  0.47987301056E+02  0.00000000000E+00 0.  1.
          6    1    1    2  501    0 -0.95804090366E+02  0.10323530182E+03  0.35961846850E+03  0.42319073023E+03  0.17300000000E+03 0.  1.
         -6    1    1    2    0  502  0.95804090366E+02 -0.10323530182E+03  0.75172100300E+03  0.78412334337E+03  0.17300000000E+03 0.  1.
<mgrwt>
<rscale>  2 0.22308059E+03</rscale>
<asrwt>0</asrwt>
<pdfrwt beam="1">  1       21 0.17835794E+00 0.22308059E+03</pdfrwt>
<pdfrwt beam="2">  1       21 0.73826625E-02 0.22308059E+03</pdfrwt>
<totfact> 0.25242898E+04</totfact>
</mgrwt>
</event>
<event>
 4    1  0.3980289E+000  0.2131732E+03  0.7546771E-02  0.1139078E+00
         21   -1    0    0  503  502  0.00000000000E+00  0.00000000000E+00  0.28069481286E+03  0.28069481286E+03  0.00000000000E+00 0.  1.
         21   -1    0    0  501  503 -0.00000000000E+00 -0.00000000000E+00 -0.17811656893E+03  0.17811656893E+03  0.00000000000E+00 0. -1.
          6    1    1    2  501    0  0.12448576334E+03 -0.41358836517E+01 -0.17943632943E+02  0.21392705479E+03  0.17300000000E+03 0. -1.
         -6    1    1    2    0  502 -0.12448576334E+03  0.41358836517E+01  0.12052187687E+03  0.24488432700E+03  0.17300000000E+03 0.  1.
<mgrwt>
<rscale>  2 0.21317319E+03</rscale>
<asrwt>0</asrwt>
<pdfrwt beam="1">  1       21 0.43183817E-01 0.21317319E+03</pdfrwt>
<pdfrwt beam="2">  1       21 0.27402549E-01 0.21317319E+03</pdfrwt>
<totfact> 0.64886747E+04</totfact>
</mgrwt>
</event>
<event>
 4    1  0.3980289E+000  0.2371375E+03  0.7546771E-02  0.1121715E+00
         21   -1    0    0  501  502  0.00000000000E+00  0.00000000000E+00  0.81707505719E+03  0.81707505719E+03  0.00000000000E+00 0.  1.
         21   -1    0    0  502  503 -0.00000000000E+00 -0.00000000000E+00 -0.13874758664E+03  0.13874758664E+03  0.00000000000E+00 0. -1.
          6    1    1    2  501    0  0.27089136302E+02 -0.15991047663E+03  0.67843507838E+03  0.71868514484E+03  0.17300000000E+03 0.  1.
         -6    1    1    2    0  503 -0.27089136302E+02  0.15991047663E+03 -0.10760782837E+00  0.23713749898E+03  0.17300000000E+03 0. -1.
<mgrwt>
<rscale>  2 0.23713747E+03</rscale>
<asrwt>0</asrwt>
<pdfrwt beam="1">  1       21 0.12570385E+00 0.23713747E+03</pdfrwt>
<pdfrwt beam="2">  1       21 0.21345783E-01 0.23713747E+03</pdfrwt>
<totfact> 0.93217063E+03</totfact>
</mgrwt>
</event>
<event>
 4    1  0.3980289E+000  0.1850512E+03  0.7546771E-02  0.1163002E+00
         21   -1    0    0  503  502  0.00000000000E+00  0.00000000000E+00  0.62363327617E+02  0.62363327617E+02  0.00000000000E+00 0.  1.
         21   -1    0    0  501  503 -0.00000000000E+00 -0.00000000000E+00 -0.57167239330E+03  0.57167239330E+03  0.00000000000E+00 0.  1.
          6    1    1    2  501    0 -0.24289850957E+02  0.61032294644E+02 -0.31764324436E+03  0.36761551727E+03  0.17300000000E+03 0.  1.
         -6    1    1    2    0  502  0.24289850957E+02 -0.61032294644E+02 -0.19166582132E+03  0.26642020365E+03  0.17300000000E+03 0.  1.
<mgrwt>
<rscale>  2 0.18505118E+03</rscale>
<asrwt>0</asrwt>
<pdfrwt beam="1">  1       21 0.95943582E-02 0.18505118E+03</pdfrwt>
<pdfrwt beam="2">  1       21 0.87949598E-01 0.18505118E+03</pdfrwt>
<totfact> 0.97019064E+04</totfact>
</mgrwt>
</event>
<event>
 4    1  0.3980289E+000  0.1776445E+03  0.7546771E-02  0.1170102E+00
         21   -1    0    0  501  502  0.00000000000E+00  0.00000000000E+00  0.83918762946E+02  0.83918762946E+02  0.00000000000E+00 0.  1.
         21   -1    0    0  502  503 -0.00000000000E+00 -0.00000000000E+00 -0.45883311044E+03  0.45883311044E+03  0.00000000000E+00 0.  1.
          6    1    1    2  501    0 -0.27142702738E+02  0.29863884468E+02 -0.72186957149E+02  0.19175123126E+03  0.17300000000E+03 0.  1.
         -6    1    1    2    0  503  0.27142702738E+02 -0.29863884468E+02 -0.30272739035E+03  0.35100064213E+03  0.17300000000E+03 0.  1.
<mgrwt>
<rscale>  2 0.17764453E+03</rscale>
<asrwt>0</asrwt>
<pdfrwt beam="1">  1       21 0.12910579E-01 0.17764453E+03</pdfrwt>
<pdfrwt beam="2">  1       21 0.70589710E-01 0.17764453E+03</pdfrwt>
<totfact> 0.94174242E+04</totfact>
</mgrwt>
</event>
<event>
 4    1  0.3980289E+000  0.2128427E+03  0.7546771E-02  0.1139334E+00
         21   -1    0    0  501  502  0.00000000000E+00  0.00000000000E+00  0.40555725540E+03  0.40555725540E+03  0.00000000000E+00 0.  1.
         21   -1    0    0  502  503 -0.00000000000E+00 -0.00000000000E+00 -0.23900131015E+03  0.23900131015E+03  0.00000000000E+00 0.  1.
          6    1    1    2  501    0 -0.24590840311E+02  0.12152496280E+03  0.31848121159E+03  0.38305653388E+03  0.17300000000E+03 0. -1.
         -6    1    1    2    0  503  0.24590840311E+02 -0.12152496280E+03 -0.15192526635E+03  0.26150203167E+03  0.17300000000E+03 0. -1.
<mgrwt>
<rscale>  2 0.21284273E+03</rscale>
<asrwt>0</asrwt>
<pdfrwt beam="1">  1       21 0.62393424E-01 0.21284273E+03</pdfrwt>
<pdfrwt beam="2">  1       21 0.36769432E-01 0.21284273E+03</pdfrwt>
<totfact> 0.16781029E+04</totfact>
</mgrwt>
</event>
<event>
 4    1  0.3980289E+000  0.1981893E+03  0.7546771E-02  0.1151276E+00
         21   -1    0    0  503  502  0.00000000000E+00  0.00000000000E+00  0.30241866068E+03  0.30241866068E+03  0.00000000000E+00 0.  1.
         21   -1    0    0  501  503 -0.00000000000E+00 -0.00000000000E+00 -0.14932798769E+03  0.14932798769E+03  0.00000000000E+00 0.  1.
          6    1    1    2  501    0  0.69197453754E+02  0.67540321701E+02 -0.49626937531E+01  0.19825138333E+03  0.17300000000E+03 0.  1.
         -6    1    1    2    0  502 -0.69197453754E+02 -0.67540321701E+02  0.15805336674E+03  0.25349526505E+03  0.17300000000E+03 0.  1.
<mgrwt>
<rscale>  2 0.19818926E+03</rscale>
<asrwt>0</asrwt>
<pdfrwt beam="1">  1       21 0.46525948E-01 0.19818926E+03</pdfrwt>
<pdfrwt beam="2">  1       21 0.22973537E-01 0.19818926E+03</pdfrwt>
<totfact> 0.78507651E+04</totfact>
</mgrwt>
</event>
<event>
 4    1  0.3980289E+000  0.2082533E+03  0.7546771E-02  0.1142957E+00
         21   -1    0    0  501  502  0.00000000000E+00  0.00000000000E+00  0.58960097819E+02  0.58960097819E+02  0.00000000000E+00 0. -1.
         21   -1    0    0  502  503 -0.00000000000E+00 -0.00000000000E+00 -0.88878131232E+03  0.88878131232E+03  0.00000000000E+00 0. -1.
          6    1    1    2  501    0  0.84143523926E+02 -0.79751438919E+02 -0.21816532682E+03  0.30160493108E+03  0.17300000000E+03 0. -1.
         -6    1    1    2    0  503 -0.84143523926E+02  0.79751438919E+02 -0.61165588768E+03  0.64613647906E+03  0.17300000000E+03 0. -1.
<mgrwt>
<rscale>  2 0.20825327E+03</rscale>
<asrwt>0</asrwt>
<pdfrwt beam="1">  1       21 0.90707845E-02 0.20825327E+03</pdfrwt>
<pdfrwt beam="2">  1       21 0.13673558E+00 0.20825327E+03</pdfrwt>
<totfact> 0.36305673E+04</totfact>
</mgrwt>
</event>
<event>
 4    1  0.3980289E+000  0.1914043E+03  0.7546771E-02  0.1157201E+00
         21   -1    0    0  501  502  0.00000000000E+00  0.00000000000E+00  0.14680913226E+03  0.14680913226E+03  0.00000000000E+00 0. -1.
         21   -1    0    0  502  503 -0.00000000000E+00 -0.00000000000E+00 -0.62088272485E+03  0.62088272485E+03  0.00000000000E+00 0.  1.
          6    1    1    2  501    0  0.80080952776E+02  0.17136522563E+02  0.59812586710E+02  0.20053220423E+03  0.17300000000E+03 0. -1.
         -6    1    1    2    0  503 -0.80080952776E+02 -0.17136522563E+02 -0.53388617931E+03  0.56715965288E+03  0.17300000000E+03 0.  1.
<mgrwt>
<rscale>  2 0.19140433E+03</rscale>
<asrwt>0</asrwt>
<pdfrwt beam="1">  1       21 0.22586020E-01 0.19140433E+03</pdfrwt>
<pdfrwt beam="2">  1       21 0.95520420E-01 0.19140433E+03</pdfrwt>
<totfact> 0.16813437E+04</totfact>
</mgrwt>
</event>
<event>
 4    1  0.3980289E+000  0.1873397E+03  0.7546771E-02  0.1160883E+00
         21   -1    0    0  501  502  0.00000000000E+00  0.00000000000E+00  0.12239633986E+03  0.12239633986E+03  0.00000000000E+00 0. -1.
         21   -1    0    0  502  503 -0.00000000000E+00 -0.00000000000E+00 -0.29739353212E+03  0.29739353212E+03  0.00000000000E+00 0.  1.
          6    1    1    2  501    0 -0.61176773478E+02  0.37743495304E+02 -0.47775543673E+02  0.19333564499E+03  0.17300000000E+03 0.  1.
         -6    1    1    2    0  503  0.61176773478E+02 -0.37743495304E+02 -0.12722164858E+03  0.22645422698E+03  0.17300000000E+03 0.  1.
<mgrwt>
<rscale>  2 0.18733972E+03</rscale>
<asrwt>0</asrwt>
<pdfrwt beam="1">  1       21 0.18830206E-01 0.18733972E+03</pdfrwt>
<pdfrwt beam="2">  1       21 0.45752851E-01 0.18733972E+03</pdfrwt>
<totfact> 0.11849737E+05</totfact>
</mgrwt>
</event>
<event>
 4    1  0.3980289E+000  0.1842860E+03  0.7546771E-02  0.1163718E+00
         21   -1    0    0  501  502  0.00000000000E+00  0.00000000000E+00  0.31257112123E+03  0.31257112123E+03  0.00000000000E+00 0.  1.
         21   -1    0    0  502  503 -0.00000000000E+00 -0.00000000000E+00 -0.11014571198E+03  0.11014571198E+03  0.00000000000E+00 0.  1.
          6    1    1    2  501    0 -0.51402367960E+01  0.63292115670E+02  0.12583027686E+03  0.22314697514E+03  0.17300000000E+03 0.  1.
         -6    1    1    2    0  503  0.51402367960E+01 -0.63292115670E+02  0.76595132388E+02  0.19956985806E+03  0.17300000000E+03 0.  1.
<mgrwt>
<rscale>  2 0.18428596E+03</rscale>
<asrwt>0</asrwt>
<pdfrwt beam="1">  1       21 0.48087864E-01 0.18428596E+03</pdfrwt>
<pdfrwt beam="2">  1       21 0.16945494E-01 0.18428596E+03</pdfrwt>
<totfact> 0.13004831E+05</totfact>
</mgrwt>
</event>
<event>
 4    1  0.3980289E+000  0.3283681E+03  0.7546771E-02  0.1071861E+00
         21   -1    0    0  503  502  0.00000000000E+00  0.00000000000E+00  0.11850519806E+04  0.11850519806E+04  0.00000000000E+00 0.  1.
         21   -1    0    0  501  503 -0.00000000000E+00 -0.00000000000E+00 -0.93964466406E+02  0.93964466406E+02  0.00000000000E+00 0. -1.
          6    1    1    2  501    0  0.27885763507E+03 -0.11620574591E+02  0.43172650313E+03  0.54241440974E+03  0.17300000000E+03 0. -1.
         -6    1    1    2    0  502 -0.27885763507E+03  0.11620574591E+02  0.65936101110E+03  0.73660203729E+03  0.17300000000E+03 0.  1.
<mgrwt>
<rscale>  2 0.32836811E+03</rscale>
<asrwt>0</asrwt>
<pdfrwt beam="1">  1       21 0.18231568E+00 0.32836811E+03</pdfrwt>
<pdfrwt beam="2">  1       21 0.14456073E-01 0.32836811E+03</pdfrwt>
<totfact> 0.67331266E+03</totfact>
</mgrwt>
</event>
<event>
 4    1  0.3980289E+000  0.2155603E+03  0.7546771E-02  0.1137237E+00
         21   -1    0    0  503  502  0.00000000000E+00  0.00000000000E+00  0.23654828819E+03  0.23654828819E+03  0.00000000000E+00 0. -1.
         21   -1    0    0  501  503 -0.00000000000E+00 -0.00000000000E+00 -0.22993910842E+03  0.22993910842E+03  0.00000000000E+00 0. -1.
          6    1    1    2  501    0 -0.12821085447E+03 -0.99607222422E+01 -0.85729417669E+02  0.23198226709E+03  0.17300000000E+03 0. -1.
         -6    1    1    2    0  502  0.12821085447E+03  0.99607222422E+01  0.92338597435E+02  0.23450512951E+03  0.17300000000E+03 0. -1.
<mgrwt>
<rscale>  2 0.21556029E+03</rscale>
<asrwt>0</asrwt>
<pdfrwt beam="1">  1       21 0.36392044E-01 0.21556029E+03</pdfrwt>
<pdfrwt beam="2">  1       21 0.35375247E-01 0.21556029E+03</pdfrwt>
<totfact> 0.55508144E+04</totfact>
</mgrwt>
</event>
<event>
 4    1  0.3980289E+000  0.1837529E+03  0.7546771E-02  0.1164220E+00
         21   -1    0    0  501  502  0.00000000000E+00  0.00000000000E+00  0.24584195211E+02  0.24584195211E+02  0.00000000000E+00 0.  1.
         21   -1    0    0  502  503 -0.00000000000E+00 -0.00000000000E+00 -0.13745824126E+04  0.13745824126E+04  0.00000000000E+00 0.  1.
          6    1    1    2  501    0  0.35007773564E+02 -0.51093793677E+02 -0.65490396361E+03  0.68019432629E+03  0.17300000000E+03 0.  1.
         -6    1    1    2    0  503 -0.35007773564E+02  0.51093793677E+02 -0.69509425380E+03  0.71897228155E+03  0.17300000000E+03 0.  1.
<mgrwt>
<rscale>  2 0.18375288E+03</rscale>
<asrwt>0</asrwt>
<pdfrwt beam="1">  1       21 0.37821831E-02 0.18375288E+03</pdfrwt>
<pdfrwt beam="2">  1       21 0.21147426E+00 0.18375288E+03</pdfrwt>
<totfact> 0.49188599E+04</totfact>
</mgrwt>
</event>
<event>
 4    1  0.3980289E+000  0.2283972E+03  0.7546771E-02  0.1127773E+00
         21   -1    0    0  501  502  0.00000000000E+00  0.00000000000E+00  0.55878424223E+02  0.55878424223E+02  0.00000000000E+00 0. -1.
         21   -1    0    0  502  503 -0.00000000000E+00 -0.00000000000E+00 -0.97123235778E+03  0.97123235778E+03  0.00000000000E+00 0.  1.
          6    1    1    2  501    0  0.14629837261E+03  0.28863226979E+02 -0.35652016527E+03  0.42340515815E+03  0.17300000000E+03 0.  1.
         -6    1    1    2    0  503 -0.14629837261E+03 -0.28863226979E+02 -0.55883376828E+03  0.60370562385E+03  0.17300000000E+03 0. -1.
<mgrwt>
<rscale>  2 0.22839724E+03</rscale>
<asrwt>0</asrwt>
<pdfrwt beam="1">  1       21 0.85966809E-02 0.22839724E+03</pdfrwt>
<pdfrwt beam="2">  1       21 0.14942036E+00 0.22839724E+03</pdfrwt>
<totfact> 0.31292098E+04</totfact>
</mgrwt>
</event>
<event>
 4    1  0.3980289E+000  0.1884840E+03  0.7546771E-02  0.1159836E+00
         21   -1    0    0  503  502  0.00000000000E+00  0.00000000000E+00  0.78737691010E+02  0.78737691010E+02  0.00000000000E+00 0. -1.
         21   -1    0    0  501  503 -0.00000000000E+00 -0.00000000000E+00 -0.53244450700E+03  0.53244450700E+03  0.00000000000E+00 0. -1.
          6    1    1    2  501    0  0.15631955134E+02 -0.73163262636E+02 -0.34622697514E+03  0.39420722892E+03  0.17300000000E+03 0. -1.
         -6    1    1    2    0  502 -0.15631955134E+02  0.73163262636E+02 -0.10747984085E+03  0.21697496908E+03  0.17300000000E+03 0. -1.
<mgrwt>
<rscale>  2 0.18848401E+03</rscale>
<asrwt>0</asrwt>
<pdfrwt beam="1">  1       21 0.12113491E-01 0.18848401E+03</pdfrwt>
<pdfrwt beam="2">  1       21 0.81914540E-01 0.18848401E+03</pdfrwt>
<totfact> 0.75356084E+04</totfact>
</mgrwt>
</event>
<event>
 4    1  0.3980289E+000  0.1834338E+03  0.7546771E-02  0.1164521E+00
         21   -1    0    0  501  502  0.00000000000E+00  0.00000000000E+00  0.10726601902E+04  0.10726601902E+04  0.00000000000E+00 0.  1.
         21   -1    0    0  502  503 -0.00000000000E+00 -0.00000000000E+00 -0.49362521747E+02  0.49362521747E+02  0.00000000000E+00 0.  1.
          6    1    1    2  501    0 -0.36143579567E+02 -0.49118307272E+02  0.85036394301E+03  0.86992344607E+03  0.17300000000E+03 0.  1.
         -6    1    1    2    0  503  0.36143579567E+02  0.49118307272E+02  0.17293372540E+03  0.25209926584E+03  0.17300000000E+03 0.  1.
<mgrwt>
<rscale>  2 0.18343382E+03</rscale>
<asrwt>0</asrwt>
<pdfrwt beam="1">  1       21 0.16502463E+00 0.18343382E+03</pdfrwt>
<pdfrwt beam="2">  1       21 0.75942349E-02 0.18343382E+03</pdfrwt>
<totfact> 0.30586940E+04</totfact>
</mgrwt>
</event>
<event>
 4    1  0.3980289E+000  0.2366634E+03  0.7546771E-02  0.1122036E+00
         21   -1    0    0  503  502  0.00000000000E+00  0.00000000000E+00  0.59950960356E+02  0.59950960356E+02  0.00000000000E+00 0.  1.
         21   -1    0    0  501  503 -0.00000000000E+00 -0.00000000000E+00 -0.99883181840E+03  0.99883181840E+03  0.00000000000E+00 0.  1.
          6    1    1    2  501    0 -0.84842948533E+02 -0.13741269964E+03 -0.60404626215E+03  0.64875377668E+03  0.17300000000E+03 0.  1.
         -6    1    1    2    0  502  0.84842948533E+02  0.13741269964E+03 -0.33483459589E+03  0.41002900208E+03  0.17300000000E+03 0.  1.
<mgrwt>
<rscale>  2 0.23666342E+03</rscale>
<asrwt>0</asrwt>
<pdfrwt beam="1">  1       21 0.92232244E-02 0.23666342E+03</pdfrwt>
<pdfrwt beam="2">  1       21 0.15366644E+00 0.23666342E+03</pdfrwt>
<totfact> 0.25545704E+04</totfact>
</mgrwt>
</event>
<event>
 4    1  0.3980289E+000  0.2164649E+03  0.7546771E-02  0.1136546E+00
         21   -1    0    0  501  502  0.00000000000E+00  0.00000000000E+00  0.16501475765E+03  0.16501475765E+03  0.00000000000E+00 0.  1.
         21   -1    0    0  502  503 -0.00000000000E+00 -0.00000000000E+00 -0.28708403870E+03  0.28708403870E+03  0.00000000000E+00 0.  1.
          6    1    1    2  501    0  0.12746426179E+03  0.26094227067E+02 -0.37441486575E+02  0.21967911061E+03  0.17300000000E+03 0.  1.
         -6    1    1    2    0  503 -0.12746426179E+03 -0.26094227067E+02 -0.84627794481E+02  0.23241968574E+03  0.17300000000E+03 0.  1.
<mgrwt>
<rscale>  2 0.21646489E+03</rscale>
<asrwt>0</asrwt>
<pdfrwt beam="1">  1       21 0.25386886E-01 0.21646489E+03</pdfrwt>
<pdfrwt beam="2">  1       21 0.44166775E-01 0.21646489E+03</pdfrwt>
<totfact> 0.71677661E+04</totfact>
</mgrwt>
</event>
<event>
 4    1  0.3980289E+000  0.1861497E+03  0.7546771E-02  0.1161981E+00
         21   -1    0    0  503  502  0.00000000000E+00  0.00000000000E+00  0.39573858782E+02  0.39573858782E+02  0.00000000000E+00 0.  1.
         21   -1    0    0  501  503 -0.00000000000E+00 -0.00000000000E+00 -0.13311524216E+04  0.13311524216E+04  0.00000000000E+00 0.  1.
          6    1    1    2  501    0  0.65992299441E+02 -0.19176644050E+02 -0.10467166589E+04  0.10631403912E+04  0.17300000000E+03 0.  1.
         -6    1    1    2    0  502 -0.65992299441E+02  0.19176644050E+02 -0.24486190387E+03  0.30758588919E+03  0.17300000000E+03 0.  1.
<mgrwt>
<rscale>  2 0.18614974E+03</rscale>
<asrwt>0</asrwt>
<pdfrwt beam="1">  1       21 0.60882864E-02 0.18614974E+03</pdfrwt>
<pdfrwt beam="2">  1       21 0.20479267E+00 0.18614974E+03</pdfrwt>
<totfact> 0.24183854E+04</totfact>
</mgrwt>
</event>
<event>
 4    1  0.3980289E+000  0.1916612E+03  0.7546771E-02  0.1156972E+00
         21   -1    0    0  503  502  0.00000000000E+00  0.00000000000E+00  0.21360017428E+03  0.21360017428E+03  0.00000000000E+00 0.  1.
         21   -1    0    0  501  503 -0.00000000000E+00 -0.00000000000E+00 -0.25142551596E+03  0.25142551596E+03  0.00000000000E+00 0.  1.
          6    1    1    2  501    0  0.81912970690E+02 -0.97613570644E+01 -0.14961670347E+03  0.24314435386E+03  0.17300000000E+03 0.  1.
         -6    1    1    2    0  502 -0.81912970690E+02  0.97613570644E+01  0.11179136179E+03  0.22188133637E+03  0.17300000000E+03 0.  1.
<mgrwt>
<rscale>  2 0.19166121E+03</rscale>
<asrwt>0</asrwt>
<pdfrwt beam="1">  1       21 0.32861566E-01 0.19166121E+03</pdfrwt>
<pdfrwt beam="2">  1       21 0.38680848E-01 0.19166121E+03</pdfrwt>
<totfact> 0.57476912E+04</totfact>
</mgrwt>
</event>
<event>
 4    1  0.3980289E+000  0.2131593E+03  0.7546771E-02  0.1139088E+00
         21   -1    0    0  501  502  0.00000000000E+00  0.00000000000E+00  0.17481552432E+03  0.17481552432E+03  0.00000000000E+00 0.  1.
         21   -1    0    0  502  503 -0.00000000000E+00 -0.00000000000E+00 -0.65583079289E+03  0.65583079289E+03  0.00000000000E+00 0. -1.
          6    1    1    2  501    0 -0.12267284198E+03 -0.21430411023E+02  0.82187609062E+02  0.22845501036E+03  0.17300000000E+03 0.  1.
         -6    1    1    2    0  503  0.12267284198E+03  0.21430411023E+02 -0.56320287763E+03  0.60219130685E+03  0.17300000000E+03 0. -1.
<mgrwt>
<rscale>  2 0.21315930E+03</rscale>
<asrwt>0</asrwt>
<pdfrwt beam="1">  1       21 0.26894696E-01 0.21315930E+03</pdfrwt>
<pdfrwt beam="2">  1       21 0.10089704E+00 0.21315930E+03</pdfrwt>
<totfact> 0.10434910E+04</totfact>
</mgrwt>
</event>
<event>
 4    1  0.3980289E+000  0.2976528E+03  0.7546771E-02  0.1086420E+00
         21   -1    0    0  503  502  0.00000000000E+00  0.00000000000E+00  0.99870123038E+02  0.99870123038E+02  0.00000000000E+00 0. -1.
         21   -1    0    0  501  503 -0.00000000000E+00 -0.00000000000E+00 -0.15102587872E+04  0.15102587872E+04  0.00000000000E+00 0.  1.
          6    1    1    2  501    0  0.32908160468E+02  0.23996926578E+03 -0.12223197935E+04  0.12580392972E+04  0.17300000000E+03 0.  1.
         -6    1    1    2    0  502 -0.32908160468E+02 -0.23996926578E+03 -0.18806887066E+03  0.35208961310E+03  0.17300000000E+03 0. -1.
<mgrwt>
<rscale>  2 0.29765281E+03</rscale>
<asrwt>0</asrwt>
<pdfrwt beam="1">  1       21 0.15364634E-01 0.29765281E+03</pdfrwt>
<pdfrwt beam="2">  1       21 0.23234750E+00 0.29765281E+03</pdfrwt>
<totfact> 0.29060203E+03</totfact>
</mgrwt>
</event>
<event>
 4    1  0.3980289E+000  0.1961729E+03  0.7546771E-02  0.1153009E+00
         21   -1    0    0  503  502  0.00000000000E+00  0.00000000000E+00  0.44686276540E+03  0.44686276540E+03  0.00000000000E+00 0.  1.
         21   -1    0    0  501  503 -0.00000000000E+00 -0.00000000000E+00 -0.90251675892E+02  0.90251675892E+02  0.00000000000E+00 0. -1.
          6    1    1    2  501    0 -0.90506656416E+02  0.19062089515E+02  0.12084460815E+03  0.23040667836E+03  0.17300000000E+03 0.  1.
         -6    1    1    2    0  502  0.90506656416E+02 -0.19062089515E+02  0.23576648135E+03  0.30670776293E+03  0.17300000000E+03 0.  1.
<mgrwt>
<rscale>  2 0.19617293E+03</rscale>
<asrwt>0</asrwt>
<pdfrwt beam="1">  1       21 0.68748116E-01 0.19617293E+03</pdfrwt>
<pdfrwt beam="2">  1       21 0.13884874E-01 0.19617293E+03</pdfrwt>
<totfact> 0.86889246E+04</totfact>
</mgrwt>
</event>
<event>
 4    1  0.3980289E+000  0.2182650E+03  0.7546771E-02  0.1135183E+00
         21   -1    0    0  503  502  0.00000000000E+00  0.00000000000E+00  0.87449247349E+02  0.87449247349E+02  0.00000000000E+00 0. -1.
         21   -1    0    0  501  503 -0.00000000000E+00 -0.00000000000E+00 -0.57930156232E+03  0.57930156232E+03  0.00000000000E+00 0. -1.
          6    1    1    2  501    0  0.44359322239E+02 -0.12547055606E+03 -0.32732115278E+03  0.39341930172E+03  0.17300000000E+03 0. -1.
         -6    1    1    2    0  502 -0.44359322239E+02  0.12547055606E+03 -0.16453116219E+03  0.27333150795E+03  0.17300000000E+03 0. -1.
<mgrwt>
<rscale>  2 0.21826500E+03</rscale>
<asrwt>0</asrwt>
<pdfrwt beam="1">  1       21 0.13453730E-01 0.21826500E+03</pdfrwt>
<pdfrwt beam="2">  1       21 0.89123319E-01 0.21826500E+03</pdfrwt>
<totfact> 0.50706628E+04</totfact>
</mgrwt>
</event>
<event>
 4    1  0.3980289E+000  0.2083089E+03  0.7546771E-02  0.1142912E+00
         21   -1    0    0  503  502  0.00000000000E+00  0.00000000000E+00  0.58851041631E+03  0.58851041631E+03  0.00000000000E+00 0.  1.
         21   -1    0    0  501  503 -0.00000000000E+00 -0.00000000000E+00 -0.86033485473E+02  0.86033485473E+02  0.00000000000E+00 0.  1.
          6    1    1    2  501    0  0.10790128674E+03 -0.42672341656E+02  0.12370967073E+03  0.24227401646E+03  0.17300000000E+03 0.  1.
         -6    1    1    2    0  502 -0.10790128674E+03  0.42672341656E+02  0.37876726011E+03  0.43226988532E+03  0.17300000000E+03 0.  1.
<mgrwt>
<rscale>  2 0.20830894E+03</rscale>
<asrwt>0</asrwt>
<pdfrwt beam="1">  1       21 0.90540062E-01 0.20830894E+03</pdfrwt>
<pdfrwt beam="2">  1       21 0.13235921E-01 0.20830894E+03</pdfrwt>
<totfact> 0.50589300E+04</totfact>
</mgrwt>
</event>
<event>
 4    1  0.3980289E+000  0.3825394E+03  0.7546771E-02  0.1049999E+00
         21   -1    0    0  503  502  0.00000000000E+00  0.00000000000E+00  0.69164486623E+03  0.69164486623E+03  0.00000000000E+00 0.  1.
         21   -1    0    0  501  503 -0.00000000000E+00 -0.00000000000E+00 -0.27379671012E+03  0.27379671012E+03  0.00000000000E+00 0. -1.
          6    1    1    2  501    0 -0.29311523313E+03  0.17461634201E+03 -0.21190728698E+02  0.38312589808E+03  0.17300000000E+03 0. -1.
         -6    1    1    2    0  502  0.29311523313E+03 -0.17461634201E+03  0.43903888480E+03  0.58231567827E+03  0.17300000000E+03 0.  1.
<mgrwt>
<rscale>  2 0.38253942E+03</rscale>
<asrwt>0</asrwt>
<pdfrwt beam="1">  1       21 0.10640690E+00 0.38253942E+03</pdfrwt>
<pdfrwt beam="2">  1       21 0.42122571E-01 0.38253942E+03</pdfrwt>
<totfact> 0.34299615E+03</totfact>
</mgrwt>
</event>
<event>
 4    1  0.3980289E+000  0.1798276E+03  0.7546771E-02  0.1167970E+00
         21   -1    0    0  501  502  0.00000000000E+00  0.00000000000E+00  0.54271320546E+02  0.54271320546E+02  0.00000000000E+00 0. -1.
         21   -1    0    0  502  503 -0.00000000000E+00 -0.00000000000E+00 -0.59750921432E+03  0.59750921432E+03  0.00000000000E+00 0. -1.
          6    1    1    2  501    0  0.36409291985E+02 -0.32913734762E+02 -0.28875544313E+03  0.34017298014E+03  0.17300000000E+03 0. -1.
         -6    1    1    2    0  503 -0.36409291985E+02  0.32913734762E+02 -0.25448245065E+03  0.31160755473E+03  0.17300000000E+03 0. -1.
<mgrwt>
<rscale>  2 0.17982756E+03</rscale>
<asrwt>0</asrwt>
<pdfrwt beam="1">  1       21 0.83494345E-02 0.17982756E+03</pdfrwt>
<pdfrwt beam="2">  1       21 0.91924488E-01 0.17982756E+03</pdfrwt>
<totfact> 0.11197280E+05</totfact>
</mgrwt>
</event>
<event>
 4    1  0.3980289E+000  0.1897988E+03  0.7546771E-02  0.1158643E+00
         21   -1    0    0  501  502  0.00000000000E+00  0.00000000000E+00  0.52062675980E+03  0.52062675980E+03  0.00000000000E+00 0. -1.
         21   -1    0    0  502  503 -0.00000000000E+00 -0.00000000000E+00 -0.70366856852E+02  0.70366856852E+02  0.00000000000E+00 0. -1.
          6    1    1    2  501    0  0.25005816538E+02 -0.73954565118E+02  0.26330087912E+03  0.32457806690E+03  0.17300000000E+03 0. -1.
         -6    1    1    2    0  503 -0.25005816538E+02  0.73954565118E+02  0.18695902383E+03  0.26641554976E+03  0.17300000000E+03 0. -1.
<mgrwt>
<rscale>  2 0.18979876E+03</rscale>
<asrwt>0</asrwt>
<pdfrwt beam="1">  1       21 0.80096422E-01 0.18979876E+03</pdfrwt>
<pdfrwt beam="2">  1       21 0.10825671E-01 0.18979876E+03</pdfrwt>
<totfact> 0.96819874E+04</totfact>
</mgrwt>
</event>
<event>
 4    1  0.3980289E+000  0.2491828E+03  0.7546771E-02  0.1113822E+00
         21   -1    0    0  503  502  0.00000000000E+00  0.00000000000E+00  0.26631501380E+04  0.26631501380E+04  0.00000000000E+00 0. -1.
         21   -1    0    0  501  503 -0.00000000000E+00 -0.00000000000E+00 -0.31672045851E+02  0.31672045851E+02  0.00000000000E+00 0. -1.
          6    1    1    2  501    0 -0.24751404456E+02  0.17762439191E+03  0.62361886427E+03  0.67155978476E+03  0.17300000000E+03 0. -1.
         -6    1    1    2    0  502  0.24751404456E+02 -0.17762439191E+03  0.20078592279E+04  0.20232623991E+04  0.17300000000E+03 0. -1.
<mgrwt>
<rscale>  2 0.24918278E+03</rscale>
<asrwt>0</asrwt>
<pdfrwt beam="1">  1       21 0.40971523E+00 0.24918278E+03</pdfrwt>
<pdfrwt beam="2">  1       21 0.48726245E-02 0.24918278E+03</pdfrwt>
<totfact> 0.19782259E+03</totfact>
</mgrwt>
</event>
<event>
 4    1  0.3980289E+000  0.2248520E+03  0.7546771E-02  0.1130317E+00
         21   -1    0    0  503  502  0.00000000000E+00  0.00000000000E+00  0.28870384596E+03  0.28870384596E+03  0.00000000000E+00 0. -1.
         21   -1    0    0  501  503 -0.00000000000E+00 -0.00000000000E+00 -0.28002606917E+03  0.28002606917E+03  0.00000000000E+00 0.  1.
          6    1    1    2  501    0 -0.82411998798E+02 -0.11763368883E+03 -0.16971062602E+03  0.28170928078E+03  0.17300000000E+03 0.  1.
         -6    1    1    2    0  502  0.82411998798E+02  0.11763368883E+03  0.17838840280E+03  0.28702063436E+03  0.17300000000E+03 0. -1.
<mgrwt>
<rscale>  2 0.22485200E+03</rscale>
<asrwt>0</asrwt>
<pdfrwt beam="1">  1       21 0.44415976E-01 0.22485200E+03</pdfrwt>
<pdfrwt beam="2">  1       21 0.43080934E-01 0.22485200E+03</pdfrwt>
<totfact> 0.24774124E+04</totfact>
</mgrwt>
</event>
<event>
 4    1  0.3980289E+000  0.2521587E+03  0.7546771E-02  0.1111948E+00
         21   -1    0    0  503  502  0.00000000000E+00  0.00000000000E+00  0.14829588412E+04  0.14829588412E+04  0.00000000000E+00 0. -1.
         21   -1    0    0  501  503 -0.00000000000E+00 -0.00000000000E+00 -0.44987383344E+02  0.44987383344E+02  0.00000000000E+00 0.  1.
          6    1    1    2  501    0 -0.18071131556E+03 -0.31598342259E+02  0.55349705007E+03  0.60822941333E+03  0.17300000000E+03 0. -1.
         -6    1    1    2    0  502  0.18071131556E+03  0.31598342259E+02  0.88447440782E+03  0.91971681125E+03  0.17300000000E+03 0. -1.
<mgrwt>
<rscale>  2 0.25215875E+03</rscale>
<asrwt>0</asrwt>
<pdfrwt beam="1">  1       21 0.22814748E+00 0.25215875E+03</pdfrwt>
<pdfrwt beam="2">  1       21 0.69211370E-02 0.25215875E+03</pdfrwt>
<totfact> 0.13218041E+04</totfact>
</mgrwt>
</event>
<event>
 4    1  0.3980289E+000  0.2017654E+03  0.7546771E-02  0.1148258E+00
         21   -1    0    0  503  502  0.00000000000E+00  0.00000000000E+00  0.27694999944E+03  0.27694999944E+03  0.00000000000E+00 0. -1.
         21   -1    0    0  501  503 -0.00000000000E+00 -0.00000000000E+00 -0.51318305477E+03  0.51318305477E+03  0.00000000000E+00 0. -1.
          6    1    1    2  501    0  0.31661339525E+02 -0.98883029182E+02 -0.45184114765E+03  0.49484312321E+03  0.17300000000E+03 0. -1.
         -6    1    1    2    0  502 -0.31661339525E+02  0.98883029182E+02  0.21560809232E+03  0.29528993101E+03  0.17300000000E+03 0. -1.
<mgrwt>
<rscale>  2 0.20176544E+03</rscale>
<asrwt>0</asrwt>
<pdfrwt beam="1">  1       21 0.42607692E-01 0.20176544E+03</pdfrwt>
<pdfrwt beam="2">  1       21 0.78951239E-01 0.20176544E+03</pdfrwt>
<totfact> 0.74584673E+03</totfact>
</mgrwt>
</event>
<event>
 4    1  0.3980289E+000  0.2833177E+03  0.7546771E-02  0.1093891E+00
         21   -1    0    0  501  502  0.00000000000E+00  0.00000000000E+00  0.19913178816E+03  0.19913178816E+03  0.00000000000E+00 0. -1.
         21   -1    0    0  502  503 -0.00000000000E+00 -0.00000000000E+00 -0.43257297483E+03  0.43257297483E+03  0.00000000000E+00 0.  1.
          6    1    1    2  501    0  0.36960303906E+02 -0.22130033673E+03 -0.34267318024E+02  0.28538246650E+03  0.17300000000E+03 0.  1.
         -6    1    1    2    0  503 -0.36960303906E+02  0.22130033673E+03 -0.19917386865E+03  0.34632229650E+03  0.17300000000E+03 0.  1.
<mgrwt>
<rscale>  2 0.28331767E+03</rscale>
<asrwt>0</asrwt>
<pdfrwt beam="1">  1       21 0.30635660E-01 0.28331767E+03</pdfrwt>
<pdfrwt beam="2">  1       21 0.66549687E-01 0.28331767E+03</pdfrwt>
<totfact> 0.20218988E+04</totfact>
</mgrwt>
</event>
<event>
 4    1  0.3980289E+000  0.1847971E+03  0.7546771E-02  0.1163240E+00
         21   -1    0    0  503  502  0.00000000000E+00  0.00000000000E+00  0.71091672264E+03  0.71091672264E+03  0.00000000000E+00 0. -1.
         21   -1    0    0  501  503 -0.00000000000E+00 -0.00000000000E+00 -0.57075787698E+02  0.57075787698E+02  0.00000000000E+00 0.  1.
          6    1    1    2  501    0 -0.35495332155E+01 -0.64871820686E+02  0.17410472440E+03  0.25389448077E+03  0.17300000000E+03 0.  1.
         -6    1    1    2    0  502  0.35495332155E+01  0.64871820686E+02  0.47973621054E+03  0.51409802957E+03  0.17300000000E+03 0. -1.
<mgrwt>
<rscale>  2 0.18479706E+03</rscale>
<asrwt>0</asrwt>
<pdfrwt beam="1">  1       21 0.10937180E+00 0.18479706E+03</pdfrwt>
<pdfrwt beam="2">  1       21 0.87808910E-02 0.18479706E+03</pdfrwt>
<totfact> 0.67790537E+04</totfact>
</mgrwt>
</event>
<event>
 4    1  0.3980289E+000  0.2279693E+03  0.7546771E-02  0.1128077E+00
         21   -1    0    0  503  502  0.00000000000E+00  0.00000000000E+00  0.10792286848E+03  0.10792286848E+03  0.00000000000E+00 0.  1.
         21   -1    0    0  501  503 -0.00000000000E+00 -0.00000000000E+00 -0.11497500158E+04  0.11497500158E+04  0.00000000000E+00 0.  1.
          6    1    1    2  501    0  0.12862583368E+03 -0.74137540973E+02 -0.10003047823E+04  0.10259530386E+04  0.17300000000E+03 0.  1.
         -6    1    1    2    0  502 -0.12862583368E+03  0.74137540973E+02 -0.41522365074E+02  0.23171984566E+03  0.17300000000E+03 0.  1.
<mgrwt>
<rscale>  2 0.22796925E+03</rscale>
<asrwt>0</asrwt>
<pdfrwt beam="1">  1       21 0.16603519E-01 0.22796925E+03</pdfrwt>
<pdfrwt beam="2">  1       21 0.17688461E+00 0.22796925E+03</pdfrwt>
<totfact> 0.60500652E+03</totfact>
</mgrwt>
</event>
<event>
 4    1  0.3980289E+000  0.2330086E+03  0.7546771E-02  0.1124540E+00
         21   -1    0    0  501  502  0.00000000000E+00  0.00000000000E+00  0.20148995559E+04  0.20148995559E+04  0.00000000000E+00 0.  1.
         21   -1    0    0  502  503 -0.00000000000E+00 -0.00000000000E+00 -0.27433308864E+02  0.27433308864E+02  0.00000000000E+00 0. -1.
          6    1    1    2  501    0 -0.76939185725E+02  0.13581011038E+03  0.11298653938E+04  0.11536415529E+04  0.17300000000E+03 0.  1.
         -6    1    1    2    0  503  0.76939185725E+02 -0.13581011038E+03  0.85760085325E+03  0.88869131191E+03  0.17300000000E+03 0.  1.
<mgrwt>
<rscale>  2 0.23300864E+03</rscale>
<asrwt>0</asrwt>
<pdfrwt beam="1">  1       21 0.30998443E+00 0.23300864E+03</pdfrwt>
<pdfrwt beam="2">  1       21 0.42205107E-02 0.23300864E+03</pdfrwt>
<totfact> 0.10276960E+04</totfact>
</mgrwt>
</event>
<event>
 4    1  0.3980289E+000  0.1836021E+03  0.7546771E-02  0.1164362E+00
         21   -1    0    0  501  502  0.00000000000E+00  0.00000000000E+00  0.67815036220E+03  0.67815036220E+03  0.00000000000E+00 0. -1.
         21   -1    0    0  502  503 -0.00000000000E+00 -0.00000000000E+00 -0.50020338534E+02  0.50020338534E+02  0.00000000000E+00 0. -1.
          6    1    1    2  501    0 -0.48178202286E+02 -0.38204554168E+02  0.34281964635E+03  0.38888949209E+03  0.17300000000E+03 0. -1.
         -6    1    1    2    0  503  0.48178202286E+02  0.38204554168E+02  0.28531037731E+03  0.33928120864E+03  0.17300000000E+03 0. -1.
<mgrwt>
<rscale>  2 0.18360209E+03</rscale>
<asrwt>0</asrwt>
<pdfrwt beam="1">  1       21 0.10433082E+00 0.18360209E+03</pdfrwt>
<pdfrwt beam="2">  1       21 0.76954372E-02 0.18360209E+03</pdfrwt>
<totfact> 0.95608650E+04</totfact>
</mgrwt>
</event>
<event>
 4    1  0.3980289E+000  0.2060484E+03  0.7546771E-02  0.1144734E+00
         21   -1    0    0  503  502  0.00000000000E+00  0.00000000000E+00  0.93933053285E+02  0.93933053285E+02  0.00000000000E+00 0. -1.
         21   -1    0    0  501  503 -0.00000000000E+00 -0.00000000000E+00 -0.49886520005E+03  0.49886520005E+03  0.00000000000E+00 0.  1.
          6    1    1    2  501    0  0.73322613788E+02 -0.84561929326E+02 -0.29333178626E+03  0.35846821674E+03  0.17300000000E+03 0. -1.
         -6    1    1    2    0  502 -0.73322613788E+02  0.84561929326E+02 -0.11160036050E+03  0.23433003659E+03  0.17300000000E+03 0. -1.
<mgrwt>
<rscale>  2 0.20604836E+03</rscale>
<asrwt>0</asrwt>
<pdfrwt beam="1">  1       21 0.14451240E-01 0.20604836E+03</pdfrwt>
<pdfrwt beam="2">  1       21 0.76748489E-01 0.20604836E+03</pdfrwt>
<totfact> 0.62991277E+04</totfact>
</mgrwt>
</event>
<event>
 4    1  0.3980289E+000  0.1862517E+03  0.7546771E-02  0.1161886E+00
         21   -1    0    0  501  502  0.00000000000E+00  0.00000000000E+00  0.44253944243E+03  0.44253944243E+03  0.00000000000E+00 0.  1.
         21   -1    0    0  502  503 -0.00000000000E+00 -0.00000000000E+00 -0.15363908310E+03  0.15363908310E+03  0.00000000000E+00 0.  1.
          6    1    1    2  501    0  0.66978744244E+02 -0.16568829412E+02  0.35306854219E+03  0.39918300787E+03  0.17300000000E+03 0.  1.
         -6    1    1    2    0  503 -0.66978744244E+02  0.16568829412E+02 -0.64168182858E+02  0.19699551766E+03  0.17300000000E+03 0.  1.
<mgrwt>
<rscale>  2 0.18625165E+03</rscale>
<asrwt>0</asrwt>
<pdfrwt beam="1">  1       21 0.68082991E-01 0.18625165E+03</pdfrwt>
<pdfrwt beam="2">  1       21 0.23636782E-01 0.18625165E+03</pdfrwt>
<totfact> 0.33306017E+04</totfact>
</mgrwt>
</event>
<event>
 4    1  0.3980289E+000  0.1960445E+03  0.7546771E-02  0.1153120E+00
         21   -1    0    0  501  502  0.00000000000E+00  0.00000000000E+00  0.93983067651E+02  0.93983067651E+02  0.00000000000E+00 0. -1.
         21   -1    0    0  502  503 -0.00000000000E+00 -0.00000000000E+00 -0.41654248922E+03  0.41654248922E+03  0.00000000000E+00 0.  1.
          6    1    1    2  501    0 -0.97733604830E+01 -0.91700240169E+02 -0.12679468165E+03  0.23347450379E+03  0.17300000000E+03 0.  1.
         -6    1    1    2    0  503  0.97733604830E+01  0.91700240169E+02 -0.19576473992E+03  0.27705105309E+03  0.17300000000E+03 0. -1.
<mgrwt>
<rscale>  2 0.19604452E+03</rscale>
<asrwt>0</asrwt>
<pdfrwt beam="1">  1       21 0.14458934E-01 0.19604452E+03</pdfrwt>
<pdfrwt beam="2">  1       21 0.64083459E-01 0.19604452E+03</pdfrwt>
<totfact> 0.94139227E+04</totfact>
</mgrwt>
</event>
<event>
 4    1  0.3980289E+000  0.2385822E+03  0.7546771E-02  0.1120741E+00
         21   -1    0    0  501  502  0.00000000000E+00  0.00000000000E+00  0.17033600922E+03  0.17033600922E+03  0.00000000000E+00 0.  1.
         21   -1    0    0  502  503 -0.00000000000E+00 -0.00000000000E+00 -0.40309553369E+03  0.40309553369E+03  0.00000000000E+00 0.  1.
          6    1    1    2  501    0 -0.11491577929E+03 -0.11741725574E+03  0.21787591583E+01  0.23859211065E+03  0.17300000000E+03 0.  1.
         -6    1    1    2    0  503  0.11491577929E+03  0.11741725574E+03 -0.23493828364E+03  0.33483943225E+03  0.17300000000E+03 0.  1.
<mgrwt>
<rscale>  2 0.23858216E+03</rscale>
<asrwt>0</asrwt>
<pdfrwt beam="1">  1       21 0.26205540E-01 0.23858216E+03</pdfrwt>
<pdfrwt beam="2">  1       21 0.62014697E-01 0.23858216E+03</pdfrwt>
<totfact> 0.32635945E+04</totfact>
</mgrwt>
</event>
<event>
 4    1  0.3980289E+000  0.2101310E+03  0.7546771E-02  0.1141462E+00
         21   -1    0    0  501  502  0.00000000000E+00  0.00000000000E+00  0.28361352424E+03  0.28361352424E+03  0.00000000000E+00 0.  1.
         21   -1    0    0  502  503 -0.00000000000E+00 -0.00000000000E+00 -0.15607751570E+03  0.15607751570E+03  0.00000000000E+00 0. -1.
          6    1    1    2  501    0  0.50881903030E+02  0.10787517943E+03  0.74760660374E+02  0.22303403044E+03  0.17300000000E+03 0.  1.
         -6    1    1    2    0  503 -0.50881903030E+02 -0.10787517943E+03  0.52775348164E+02  0.21665700950E+03  0.17300000000E+03 0. -1.
<mgrwt>
<rscale>  2 0.21013096E+03</rscale>
<asrwt>0</asrwt>
<pdfrwt beam="1">  1       21 0.43632850E-01 0.21013096E+03</pdfrwt>
<pdfrwt beam="2">  1       21 0.24011925E-01 0.21013096E+03</pdfrwt>
<totfact> 0.81955632E+04</totfact>
</mgrwt>
</event>
<event>
 4    1  0.3980289E+000  0.1828469E+03  0.7546771E-02  0.1165076E+00
         21   -1    0    0  501  502  0.00000000000E+00  0.00000000000E+00  0.48515322957E+03  0.48515322957E+03  0.00000000000E+00 0. -1.
         21   -1    0    0  502  503 -0.00000000000E+00 -0.00000000000E+00 -0.81898592572E+02  0.81898592572E+02  0.00000000000E+00 0. -1.
          6    1    1    2  501    0  0.27693832273E+02 -0.52316868969E+02  0.31452834160E+03  0.36381462422E+03  0.17300000000E+03 0. -1.
         -6    1    1    2    0  503 -0.27693832273E+02  0.52316868969E+02  0.88726295395E+02  0.20323719792E+03  0.17300000000E+03 0. -1.
<mgrwt>
<rscale>  2 0.18284694E+03</rscale>
<asrwt>0</asrwt>
<pdfrwt beam="1">  1       21 0.74638957E-01 0.18284694E+03</pdfrwt>
<pdfrwt beam="2">  1       21 0.12599784E-01 0.18284694E+03</pdfrwt>
<totfact> 0.86762116E+04</totfact>
</mgrwt>
</event>
<event>
 4    1  0.3980289E+000  0.3263438E+03  0.7546771E-02  0.1072766E+00
         21   -1    0    0  501  502  0.00000000000E+00  0.00000000000E+00  0.66427672502E+03  0.66427672502E+03  0.00000000000E+00 0.  1.
         21   -1    0    0  502  503 -0.00000000000E+00 -0.00000000000E+00 -0.26923729766E+03  0.26923729766E+03  0.00000000000E+00 0. -1.
          6    1    1    2  501    0 -0.26754179814E+03 -0.70658773648E+02  0.49438633420E+03  0.59238342607E+03  0.17300000000E+03 0.  1.
         -6    1    1    2    0  503  0.26754179814E+03  0.70658773648E+02 -0.99346906845E+02  0.34113059661E+03  0.17300000000E+03 0. -1.
<mgrwt>
<rscale>  2 0.32634380E+03</rscale>
<asrwt>0</asrwt>
<pdfrwt beam="1">  1       21 0.10219642E+00 0.32634380E+03</pdfrwt>
<pdfrwt beam="2">  1       21 0.41421123E-01 0.32634380E+03</pdfrwt>
<totfact> 0.40194271E+03</totfact>
</mgrwt>
</event>
<event>
 4    1  0.3980289E+000  0.1917889E+03  0.7546771E-02  0.1156858E+00
         21   -1    0    0  503  502  0.00000000000E+00  0.00000000000E+00  0.23964386414E+03  0.23964386414E+03  0.00000000000E+00 0. -1.
         21   -1    0    0  501  503 -0.00000000000E+00 -0.00000000000E+00 -0.61239865898E+03  0.61239865898E+03  0.00000000000E+00 0. -1.
          6    1    1    2  501    0 -0.51275803513E+02  0.64998289679E+02 -0.55516574298E+03  0.58736018581E+03  0.17300000000E+03 0. -1.
         -6    1    1    2    0  502  0.51275803513E+02 -0.64998289679E+02  0.18241094814E+03  0.26468233732E+03  0.17300000000E+03 0. -1.
<mgrwt>
<rscale>  2 0.19178891E+03</rscale>
<asrwt>0</asrwt>
<pdfrwt beam="1">  1       21 0.36868287E-01 0.19178891E+03</pdfrwt>
<pdfrwt beam="2">  1       21 0.94215179E-01 0.19178891E+03</pdfrwt>
<totfact> 0.67061194E+03</totfact>
</mgrwt>
</event>
<event>
 4    1  0.3980289E+000  0.2432225E+03  0.7546771E-02  0.1117665E+00
         21   -1    0    0  503  502  0.00000000000E+00  0.00000000000E+00  0.24155330213E+03  0.24155330213E+03  0.00000000000E+00 0.  1.
         21   -1    0    0  501  503 -0.00000000000E+00 -0.00000000000E+00 -0.25060802874E+03  0.25060802874E+03  0.00000000000E+00 0. -1.
          6    1    1    2  501    0 -0.10762901482E+03  0.13283130745E+03 -0.41655552188E+02  0.24676374551E+03  0.17300000000E+03 0. -1.
         -6    1    1    2    0  502  0.10762901482E+03 -0.13283130745E+03  0.32600825578E+02  0.24539758535E+03  0.17300000000E+03 0. -1.
<mgrwt>
<rscale>  2 0.24322245E+03</rscale>
<asrwt>0</asrwt>
<pdfrwt beam="1">  1       21 0.37162047E-01 0.24322245E+03</pdfrwt>
<pdfrwt beam="2">  1       21 0.38555081E-01 0.24322245E+03</pdfrwt>
<totfact> 0.44252836E+04</totfact>
</mgrwt>
</event>
<event>
 4    1  0.3980289E+000  0.1764246E+03  0.7546771E-02  0.1171309E+00
         21   -1    0    0  503  502  0.00000000000E+00  0.00000000000E+00  0.37356689273E+02  0.37356689273E+02  0.00000000000E+00 0. -1.
         21   -1    0    0  501  503 -0.00000000000E+00 -0.00000000000E+00 -0.10466720385E+04  0.10466720385E+04  0.00000000000E+00 0. -1.
          6    1    1    2  501    0  0.34267316878E+02 -0.47300373610E+01 -0.74943726309E+03  0.76992326472E+03  0.17300000000E+03 0. -1.
         -6    1    1    2    0  502 -0.34267316878E+02  0.47300373610E+01 -0.25987808612E+03  0.31410546303E+03  0.17300000000E+03 0. -1.
<mgrwt>
<rscale>  2 0.17642455E+03</rscale>
<asrwt>0</asrwt>
<pdfrwt beam="1">  1       21 0.57471821E-02 0.17642455E+03</pdfrwt>
<pdfrwt beam="2">  1       21 0.16102649E+00 0.17642455E+03</pdfrwt>
<totfact> 0.52999455E+04</totfact>
</mgrwt>
</event>
<event>
 4    1  0.3980289E+000  0.1813509E+03  0.7546771E-02  0.1166502E+00
         21   -1    0    0  503  502  0.00000000000E+00  0.00000000000E+00  0.56643164800E+03  0.56643164800E+03  0.00000000000E+00 0.  1.
         21   -1    0    0  501  503 -0.00000000000E+00 -0.00000000000E+00 -0.65133110546E+02  0.65133110546E+02  0.00000000000E+00 0.  1.
          6    1    1    2  501    0  0.21733433626E+02 -0.49867963317E+02  0.14660199336E+03  0.23319584121E+03  0.17300000000E+03 0.  1.
         -6    1    1    2    0  502 -0.21733433626E+02  0.49867963317E+02  0.35469654410E+03  0.39836891734E+03  0.17300000000E+03 0.  1.
<mgrwt>
<rscale>  2 0.18135092E+03</rscale>
<asrwt>0</asrwt>
<pdfrwt beam="1">  1       21 0.87143327E-01 0.18135092E+03</pdfrwt>
<pdfrwt beam="2">  1       21 0.10020479E-01 0.18135092E+03</pdfrwt>
<totfact> 0.91927980E+04</totfact>
</mgrwt>
</event>
<event>
 4    1  0.3980289E+000  0.1929153E+03  0.7546771E-02  0.1155858E+00
         21   -1    0    0  503  502  0.00000000000E+00  0.00000000000E+00  0.37482363257E+02  0.37482363257E+02  0.00000000000E+00 0. -1.
         21   -1    0    0  501  503 -0.00000000000E+00 -0.00000000000E+00 -0.99315604702E+03  0.99315604702E+03  0.00000000000E+00 0. -1.
          6    1    1    2  501    0 -0.37096572055E+01  0.85285040509E+02 -0.48608463937E+03  0.52296708914E+03  0.17300000000E+03 0. -1.
         -6    1    1    2    0  502  0.37096572055E+01 -0.85285040509E+02 -0.46958904439E+03  0.50767132113E+03  0.17300000000E+03 0. -1.
<mgrwt>
<rscale>  2 0.19291527E+03</rscale>
<asrwt>0</asrwt>
<pdfrwt beam="1">  1       21 0.57665175E-02 0.19291527E+03</pdfrwt>
<pdfrwt beam="2">  1       21 0.15279324E+00 0.19291527E+03</pdfrwt>
<totfact> 0.60072208E+04</totfact>
</mgrwt>
</event>
<event>
 4    1  0.3980289E+000  0.2091703E+03  0.7546771E-02  0.1142225E+00
         21   -1    0    0  501  502  0.00000000000E+00  0.00000000000E+00  0.15594691651E+03  0.15594691651E+03  0.00000000000E+00 0.  1.
         21   -1    0    0  502  503 -0.00000000000E+00 -0.00000000000E+00 -0.28085987202E+03  0.28085987202E+03  0.00000000000E+00 0.  1.
          6    1    1    2  501    0 -0.24704935010E+00  0.11757192277E+03 -0.55301061123E+02  0.21635717094E+03  0.17300000000E+03 0.  1.
         -6    1    1    2    0  503  0.24704935010E+00 -0.11757192277E+03 -0.69611894382E+02  0.22044961759E+03  0.17300000000E+03 0.  1.
<mgrwt>
<rscale>  2 0.20917031E+03</rscale>
<asrwt>0</asrwt>
<pdfrwt beam="1">  1       21 0.23991833E-01 0.20917031E+03</pdfrwt>
<pdfrwt beam="2">  1       21 0.43209211E-01 0.20917031E+03</pdfrwt>
<totfact> 0.83775984E+04</totfact>
</mgrwt>
</event>
<event>
 4    1  0.3980289E+000  0.1937743E+03  0.7546771E-02  0.1155101E+00
         21   -1    0    0  501  502  0.00000000000E+00  0.00000000000E+00  0.19745539775E+03  0.19745539775E+03  0.00000000000E+00 0. -1.
         21   -1    0    0  502  503 -0.00000000000E+00 -0.00000000000E+00 -0.29519803749E+03  0.29519803749E+03  0.00000000000E+00 0. -1.
          6    1    1    2  501    0 -0.76028690459E+02  0.42884932498E+02  0.98063359298E+02  0.21717481817E+03  0.17300000000E+03 0. -1.
         -6    1    1    2    0  503  0.76028690459E+02 -0.42884932498E+02 -0.19580599904E+03  0.27547861708E+03  0.17300000000E+03 0. -1.
<mgrwt>
<rscale>  2 0.19377430E+03</rscale>
<asrwt>0</asrwt>
<pdfrwt beam="1">  1       21 0.30377754E-01 0.19377430E+03</pdfrwt>
<pdfrwt beam="2">  1       21 0.45415082E-01 0.19377430E+03</pdfrwt>
<totfact> 0.48334044E+04</totfact>
</mgrwt>
</event>
<event>
 4    1  0.3980289E+000  0.4181187E+03  0.7546771E-02  0.1037680E+00
         21   -1    0    0  503  502  0.00000000000E+00  0.00000000000E+00  0.48305823789E+03  0.48305823789E+03  0.00000000000E+00 0. -1.
         21   -1    0    0  501  503 -0.00000000000E+00 -0.00000000000E+00 -0.67778199494E+03  0.67778199494E+03  0.00000000000E+00 0.  1.
          6    1    1    2  501    0  0.37995910808E+03  0.22919482946E+02 -0.49359752656E+03  0.64688619149E+03  0.17300000000E+03 0.  1.
         -6    1    1    2    0  502 -0.37995910808E+03 -0.22919482946E+02  0.29887376950E+03  0.51395404134E+03  0.17300000000E+03 0. -1.
<mgrwt>
<rscale>  2 0.41811868E+03</rscale>
<asrwt>0</asrwt>
<pdfrwt beam="1">  1       21 0.74316653E-01 0.41811868E+03</pdfrwt>
<pdfrwt beam="2">  1       21 0.10427415E+00 0.41811868E+03</pdfrwt>
<totfact> 0.10391297E+03</totfact>
</mgrwt>
</event>
<event>
 4    1  0.3980289E+000  0.1787245E+03  0.7546771E-02  0.1169043E+00
         21   -1    0    0  503  502  0.00000000000E+00  0.00000000000E+00  0.66018261251E+03  0.66018261251E+03  0.00000000000E+00 0.  1.
         21   -1    0    0  501  503 -0.00000000000E+00 -0.00000000000E+00 -0.58864713291E+02  0.58864713291E+02  0.00000000000E+00 0.  1.
          6    1    1    2  501    0 -0.82018021709E+01 -0.44115551023E+02  0.14895745351E+03  0.23266021223E+03  0.17300000000E+03 0.  1.
         -6    1    1    2    0  502  0.82018021709E+01  0.44115551023E+02  0.45236044571E+03  0.48638711356E+03  0.17300000000E+03 0.  1.
<mgrwt>
<rscale>  2 0.17872451E+03</rscale>
<asrwt>0</asrwt>
<pdfrwt beam="1">  1       21 0.10156655E+00 0.17872451E+03</pdfrwt>
<pdfrwt beam="2">  1       21 0.90561102E-02 0.17872451E+03</pdfrwt>
<totfact> 0.76918605E+04</totfact>
</mgrwt>
</event>
<event>
 4    1  0.3980289E+000  0.1732824E+03  0.7546771E-02  0.1174467E+00
         21   -1    0    0  503  502  0.00000000000E+00  0.00000000000E+00  0.40165033646E+03  0.40165033646E+03  0.00000000000E+00 0. -1.
         21   -1    0    0  501  503 -0.00000000000E+00 -0.00000000000E+00 -0.10939753720E+03  0.10939753720E+03  0.00000000000E+00 0. -1.
          6    1    1    2  501    0  0.41563171269E+01  0.89721289242E+01  0.23423324367E+01  0.17329818404E+03  0.17300000000E+03 0. -1.
         -6    1    1    2    0  502 -0.41563171269E+01 -0.89721289242E+01  0.28991046682E+03  0.33774968962E+03  0.17300000000E+03 0. -1.
<mgrwt>
<rscale>  2 0.17328235E+03</rscale>
<asrwt>0</asrwt>
<pdfrwt beam="1">  1       21 0.61792359E-01 0.17328235E+03</pdfrwt>
<pdfrwt beam="2">  1       21 0.16830391E-01 0.17328235E+03</pdfrwt>
<totfact> 0.77921592E+04</totfact>
</mgrwt>
</event>
<event>
 4    1  0.3980289E+000  0.2097544E+03  0.7546771E-02  0.1141761E+00
         21   -1    0    0  501  502  0.00000000000E+00  0.00000000000E+00  0.49003349686E+03  0.49003349686E+03  0.00000000000E+00 0. -1.
         21   -1    0    0  502  503 -0.00000000000E+00 -0.00000000000E+00 -0.11535364432E+03  0.11535364432E+03  0.00000000000E+00 0. -1.
          6    1    1    2  501    0  0.11662282632E+03 -0.21610474671E+02  0.32985295855E+03  0.39089624007E+03  0.17300000000E+03 0. -1.
         -6    1    1    2    0  503 -0.11662282632E+03  0.21610474671E+02  0.44826893994E+02  0.21449090111E+03  0.17300000000E+03 0. -1.
<mgrwt>
<rscale>  2 0.20975437E+03</rscale>
<asrwt>0</asrwt>
<pdfrwt beam="1">  1       21 0.75389767E-01 0.20975437E+03</pdfrwt>
<pdfrwt beam="2">  1       21 0.17746715E-01 0.20975437E+03</pdfrwt>
<totfact> 0.44905278E+04</totfact>
</mgrwt>
</event>
<event>
 4    1  0.3980289E+000  0.1885895E+03  0.7546771E-02  0.1159740E+00
         21   -1    0    0  503  502  0.00000000000E+00  0.00000000000E+00  0.21411182723E+03  0.21411182723E+03  0.00000000000E+00 0.  1.
         21   -1    0    0  501  503 -0.00000000000E+00 -0.00000000000E+00 -0.24999621874E+03  0.24999621874E+03  0.00000000000E+00 0.  1.
          6    1    1    2  501    0 -0.75034503919E+02  0.26086667330E+01 -0.15236387228E+03  0.24244737882E+03  0.17300000000E+03 0.  1.
         -6    1    1    2    0  502  0.75034503919E+02 -0.26086667330E+01  0.11647948077E+03  0.22166066715E+03  0.17300000000E+03 0.  1.
<mgrwt>
<rscale>  2 0.18858945E+03</rscale>
<asrwt>0</asrwt>
<pdfrwt beam="1">  1       21 0.32940281E-01 0.18858945E+03</pdfrwt>
<pdfrwt beam="2">  1       21 0.38460957E-01 0.18858945E+03</pdfrwt>
<totfact> 0.57943079E+04</totfact>
</mgrwt>
</event>
<event>
 4    1  0.3980289E+000  0.2293777E+03  0.7546771E-02  0.1127079E+00
         21   -1    0    0  503  502  0.00000000000E+00  0.00000000000E+00  0.82203533579E+02  0.82203533579E+02  0.00000000000E+00 0.  1.
         21   -1    0    0  501  503 -0.00000000000E+00 -0.00000000000E+00 -0.69419550844E+03  0.69419550844E+03  0.00000000000E+00 0.  1.
          6    1    1    2  501    0  0.14378272499E+03 -0.44851546417E+02 -0.41441537415E+03  0.47366046442E+03  0.17300000000E+03 0.  1.
         -6    1    1    2    0  502 -0.14378272499E+03  0.44851546417E+02 -0.19757660071E+03  0.30273857761E+03  0.17300000000E+03 0.  1.
<mgrwt>
<rscale>  2 0.22937771E+03</rscale>
<asrwt>0</asrwt>
<pdfrwt beam="1">  1       21 0.12646697E-01 0.22937771E+03</pdfrwt>
<pdfrwt beam="2">  1       21 0.10679931E+00 0.22937771E+03</pdfrwt>
<totfact> 0.36741362E+04</totfact>
</mgrwt>
</event>
<event>
 4    1  0.3980289E+000  0.2432714E+03  0.7546771E-02  0.1117632E+00
         21   -1    0    0  503  502  0.00000000000E+00  0.00000000000E+00  0.22737845360E+04  0.22737845360E+04  0.00000000000E+00 0.  1.
         21   -1    0    0  501  503 -0.00000000000E+00 -0.00000000000E+00 -0.27560163248E+02  0.27560163248E+02  0.00000000000E+00 0. -1.
          6    1    1    2  501    0  0.12030644280E+03  0.12156622502E+03  0.13944625469E+04  0.14155235010E+04  0.17300000000E+03 0.  1.
         -6    1    1    2    0  502 -0.12030644280E+03 -0.12156622502E+03  0.85176182590E+03  0.88582119827E+03  0.17300000000E+03 0.  1.
<mgrwt>
<rscale>  2 0.24327143E+03</rscale>
<asrwt>0</asrwt>
<pdfrwt beam="1">  1       21 0.34981286E+00 0.24327143E+03</pdfrwt>
<pdfrwt beam="2">  1       21 0.42400269E-02 0.24327143E+03</pdfrwt>
<totfact> 0.58862178E+03</totfact>
</mgrwt>
</event>
<event>
 4    1  0.3980289E+000  0.2496143E+03  0.7546771E-02  0.1113549E+00
         21   -1    0    0  501  502  0.00000000000E+00  0.00000000000E+00  0.13085373033E+04  0.13085373033E+04  0.00000000000E+00 0.  1.
         21   -1    0    0  502  503 -0.00000000000E+00 -0.00000000000E+00 -0.47630457902E+02  0.47630457902E+02  0.00000000000E+00 0.  1.
          6    1    1    2  501    0  0.50954937493E+01  0.17986759677E+03  0.61864081968E+03  0.66710102698E+03  0.17300000000E+03 0.  1.
         -6    1    1    2    0  503 -0.50954937493E+01 -0.17986759677E+03  0.64226602576E+03  0.68906673427E+03  0.17300000000E+03 0.  1.
<mgrwt>
<rscale>  2 0.24961434E+03</rscale>
<asrwt>0</asrwt>
<pdfrwt beam="1">  1       21 0.20131340E+00 0.24961434E+03</pdfrwt>
<pdfrwt beam="2">  1       21 0.73277637E-02 0.24961434E+03</pdfrwt>
<totfact> 0.17684024E+04</totfact>
</mgrwt>
</event>
<event>
 4    1  0.3980289E+000  0.3476918E+03  0.7546771E-02  0.1063566E+00
         21   -1    0    0  501  502  0.00000000000E+00  0.00000000000E+00  0.19943158704E+04  0.19943158704E+04  0.00000000000E+00 0. -1.
         21   -1    0    0  502  503 -0.00000000000E+00 -0.00000000000E+00 -0.11807488489E+03  0.11807488489E+03  0.00000000000E+00 0. -1.
          6    1    1    2  501    0 -0.10992838137E+02 -0.30139631367E+03  0.16749042757E+04  0.17106121457E+04  0.17300000000E+03 0. -1.
         -6    1    1    2    0  503  0.10992838137E+02  0.30139631367E+03  0.20133670981E+03  0.40177860956E+03  0.17300000000E+03 0. -1.
<mgrwt>
<rscale>  2 0.34769179E+03</rscale>
<asrwt>0</asrwt>
<pdfrwt beam="1">  1       21 0.30681780E+00 0.34769179E+03</pdfrwt>
<pdfrwt beam="2">  1       21 0.18165368E-01 0.34769179E+03</pdfrwt>
<totfact> 0.73564180E+02</totfact>
</mgrwt>
</event>
<event>
 4    1  0.3980289E+000  0.1830714E+03  0.7546771E-02  0.1164863E+00
         21   -1    0    0  503  502  0.00000000000E+00  0.00000000000E+00  0.13628982873E+03  0.13628982873E+03  0.00000000000E+00 0.  1.
         21   -1    0    0  501  503 -0.00000000000E+00 -0.00000000000E+00 -0.29655233775E+03  0.29655233775E+03  0.00000000000E+00 0. -1.
          6    1    1    2  501    0  0.21213052539E+01  0.59846922109E+02 -0.16956510254E+03  0.24953452270E+03  0.17300000000E+03 0. -1.
         -6    1    1    2    0  502 -0.21213052539E+01 -0.59846922109E+02  0.93025935199E+01  0.18330764378E+03  0.17300000000E+03 0.  1.
<mgrwt>
<rscale>  2 0.18307145E+03</rscale>
<asrwt>0</asrwt>
<pdfrwt beam="1">  1       21 0.20967666E-01 0.18307145E+03</pdfrwt>
<pdfrwt beam="2">  1       21 0.45623436E-01 0.18307145E+03</pdfrwt>
<totfact> 0.97685100E+04</totfact>
</mgrwt>
</event>
<event>
 4    1  0.3980289E+000  0.2678319E+03  0.7546771E-02  0.1102527E+00
         21   -1    0    0  503  502  0.00000000000E+00  0.00000000000E+00  0.17331545602E+03  0.17331545602E+03  0.00000000000E+00 0. -1.
         21   -1    0    0  501  503 -0.00000000000E+00 -0.00000000000E+00 -0.49972320451E+03  0.49972320451E+03  0.00000000000E+00 0.  1.
          6    1    1    2  501    0  0.18796902785E+03  0.80452334019E+02 -0.30266947158E+03  0.40415682910E+03  0.17300000000E+03 0.  1.
         -6    1    1    2    0  502 -0.18796902785E+03 -0.80452334019E+02 -0.23738276906E+02  0.26888183142E+03  0.17300000000E+03 0. -1.
<mgrwt>
<rscale>  2 0.26783191E+03</rscale>
<asrwt>0</asrwt>
<pdfrwt beam="1">  1       21 0.26663917E-01 0.26783191E+03</pdfrwt>
<pdfrwt beam="2">  1       21 0.76880492E-01 0.26783191E+03</pdfrwt>
<totfact> 0.19345043E+04</totfact>
</mgrwt>
</event>
<event>
 4    1  0.3980289E+000  0.2727515E+03  0.7546771E-02  0.1099715E+00
         21   -1    0    0  503  502  0.00000000000E+00  0.00000000000E+00  0.10397007395E+04  0.10397007395E+04  0.00000000000E+00 0. -1.
         21   -1    0    0  501  503 -0.00000000000E+00 -0.00000000000E+00 -0.73709039238E+02  0.73709039238E+02  0.00000000000E+00 0. -1.
          6    1    1    2  501    0  0.42344104340E+02  0.20657050472E+03  0.38777697227E+03  0.47409321532E+03  0.17300000000E+03 0. -1.
         -6    1    1    2    0  502 -0.42344104340E+02 -0.20657050472E+03  0.57821472799E+03  0.63931656342E+03  0.17300000000E+03 0. -1.
<mgrwt>
<rscale>  2 0.27275153E+03</rscale>
<asrwt>0</asrwt>
<pdfrwt beam="1">  1       21 0.15995395E+00 0.27275153E+03</pdfrwt>
<pdfrwt beam="2">  1       21 0.11339853E-01 0.27275153E+03</pdfrwt>
<totfact> 0.15560161E+04</totfact>
</mgrwt>
</event>
<event>
 4    1  0.3980289E+000  0.1814728E+03  0.7546771E-02  0.1166385E+00
         21   -1    0    0  501  502  0.00000000000E+00  0.00000000000E+00  0.14467722992E+03  0.14467722992E+03  0.00000000000E+00 0.  1.
         21   -1    0    0  502  503 -0.00000000000E+00 -0.00000000000E+00 -0.77159759546E+03  0.77159759546E+03  0.00000000000E+00 0.  1.
          6    1    1    2  501    0  0.42419493975E+02  0.34698254056E+02  0.71209720229E+02  0.19494411137E+03  0.17300000000E+03 0.  1.
         -6    1    1    2    0  503 -0.42419493975E+02 -0.34698254056E+02 -0.69813008577E+03  0.72133071400E+03  0.17300000000E+03 0.  1.
<mgrwt>
<rscale>  2 0.18147281E+03</rscale>
<asrwt>0</asrwt>
<pdfrwt beam="1">  1       21 0.22258035E-01 0.18147281E+03</pdfrwt>
<pdfrwt beam="2">  1       21 0.11870732E+00 0.18147281E+03</pdfrwt>
<totfact> 0.10326438E+04</totfact>
</mgrwt>
</event>
<event>
 4    1  0.3980289E+000  0.1872099E+03  0.7546771E-02  0.1161002E+00
         21   -1    0    0  501  502  0.00000000000E+00  0.00000000000E+00  0.14834382157E+04  0.14834382157E+04  0.00000000000E+00 0. -1.
         21   -1    0    0  502  503 -0.00000000000E+00 -0.00000000000E+00 -0.51037613210E+02  0.51037613210E+02  0.00000000000E+00 0. -1.
          6    1    1    2  501    0 -0.11138719760E+02 -0.70671735597E+02  0.12784807143E+04  0.12921147403E+04  0.17300000000E+03 0. -1.
         -6    1    1    2    0  503  0.11138719760E+02  0.70671735597E+02  0.15391988821E+03  0.24236108862E+03  0.17300000000E+03 0. -1.
<mgrwt>
<rscale>  2 0.18720995E+03</rscale>
<asrwt>0</asrwt>
<pdfrwt beam="1">  1       21 0.22822123E+00 0.18720995E+03</pdfrwt>
<pdfrwt beam="2">  1       21 0.78519416E-02 0.18720995E+03</pdfrwt>
<totfact> 0.11167598E+04</totfact>
</mgrwt>
</event>
<event>
 4    1  0.3980289E+000  0.2012041E+03  0.7546771E-02  0.1148727E+00
         21   -1    0    0  501  502  0.00000000000E+00  0.00000000000E+00  0.13014359005E+04  0.13014359005E+04  0.00000000000E+00 0. -1.
         21   -1    0    0  502  503 -0.00000000000E+00 -0.00000000000E+00 -0.56506431400E+02  0.56506431400E+02  0.00000000000E+00 0. -1.
          6    1    1    2  501    0 -0.21040977642E+02  0.10055537646E+03  0.10776819987E+04  0.10963036061E+04  0.17300000000E+03 0. -1.
         -6    1    1    2    0  503  0.21040977642E+02 -0.10055537646E+03  0.16724747043E+03  0.26163872580E+03  0.17300000000E+03 0. -1.
<mgrwt>
<rscale>  2 0.20120414E+03</rscale>
<asrwt>0</asrwt>
<pdfrwt beam="1">  1       21 0.20022089E+00 0.20120414E+03</pdfrwt>
<pdfrwt beam="2">  1       21 0.86932981E-02 0.20120414E+03</pdfrwt>
<totfact> 0.13796772E+04</totfact>
</mgrwt>
</event>
<event>
 4    1  0.3980289E+000  0.3037288E+03  0.7546771E-02  0.1083391E+00
         21   -1    0    0  501  502  0.00000000000E+00  0.00000000000E+00  0.42913090632E+03  0.42913090632E+03  0.00000000000E+00 0.  1.
         21   -1    0    0  502  503 -0.00000000000E+00 -0.00000000000E+00 -0.39173641952E+03  0.39173641952E+03  0.00000000000E+00 0. -1.
          6    1    1    2  501    0 -0.22511432462E+03 -0.10791547765E+03  0.29440132440E+03  0.42299332060E+03  0.17300000000E+03 0.  1.
         -6    1    1    2    0  503  0.22511432462E+03  0.10791547765E+03 -0.25700683760E+03  0.39787400523E+03  0.17300000000E+03 0. -1.
<mgrwt>
<rscale>  2 0.30372884E+03</rscale>
<asrwt>0</asrwt>
<pdfrwt beam="1">  1       21 0.66020139E-01 0.30372884E+03</pdfrwt>
<pdfrwt beam="2">  1       21 0.60267142E-01 0.30372884E+03</pdfrwt>
<totfact> 0.50432825E+03</totfact>
</mgrwt>
</event>
<event>
 4    1  0.3980289E+000  0.2611421E+03  0.7546771E-02  0.1106459E+00
         21   -1    0    0  503  502  0.00000000000E+00  0.00000000000E+00  0.23769831053E+04  0.23769831053E+04  0.00000000000E+00 0.  1.
         21   -1    0    0  501  503 -0.00000000000E+00 -0.00000000000E+00 -0.15126717536E+03  0.15126717536E+03  0.00000000000E+00 0.  1.
          6    1    1    2  501    0 -0.18301861462E+03  0.69067921443E+02 -0.25091203991E+02  0.26234473425E+03  0.17300000000E+03 0.  1.
         -6    1    1    2    0  502  0.18301861462E+03 -0.69067921443E+02  0.22508071339E+04  0.22659055464E+04  0.17300000000E+03 0.  1.
<mgrwt>
<rscale>  2 0.26114209E+03</rscale>
<asrwt>0</asrwt>
<pdfrwt beam="1">  1       21 0.36568968E+00 0.26114209E+03</pdfrwt>
<pdfrwt beam="2">  1       21 0.23271875E-01 0.26114209E+03</pdfrwt>
<totfact> 0.22210281E+02</totfact>
</mgrwt>
</event>
<event>
 4    1  0.3980289E+000  0.1759497E+03  0.7546771E-02  0.1171781E+00
         21   -1    0    0  501  502  0.00000000000E+00  0.00000000000E+00  0.32449771291E+02  0.32449771291E+02  0.00000000000E+00 0. -1.
         21   -1    0    0  502  503 -0.00000000000E+00 -0.00000000000E+00 -0.13203991068E+04  0.13203991068E+04  0.00000000000E+00 0. -1.
          6    1    1    2  501    0 -0.24380373903E+02 -0.20854495132E+02 -0.28767008971E+03  0.33721268232E+03  0.17300000000E+03 0. -1.
         -6    1    1    2    0  503  0.24380373903E+02  0.20854495132E+02 -0.10002792458E+04  0.10156361957E+04  0.17300000000E+03 0. -1.
<mgrwt>
<rscale>  2 0.17594974E+03</rscale>
<asrwt>0</asrwt>
<pdfrwt beam="1">  1       21 0.49922730E-02 0.17594974E+03</pdfrwt>
<pdfrwt beam="2">  1       21 0.20313830E+00 0.17594974E+03</pdfrwt>
<totfact> 0.34993241E+04</totfact>
</mgrwt>
</event>
<event>
 4    1  0.3980289E+000  0.1949690E+03  0.7546771E-02  0.1154054E+00
         21   -1    0    0  503  502  0.00000000000E+00  0.00000000000E+00  0.70755691475E+03  0.70755691475E+03  0.00000000000E+00 0.  1.
         21   -1    0    0  501  503 -0.00000000000E+00 -0.00000000000E+00 -0.56174623228E+02  0.56174623228E+02  0.00000000000E+00 0. -1.
          6    1    1    2  501    0 -0.83913528075E+02 -0.32286561510E+02  0.24593492425E+03  0.31384214059E+03  0.17300000000E+03 0. -1.
         -6    1    1    2    0  502  0.83913528075E+02  0.32286561510E+02  0.40544736728E+03  0.44988939739E+03  0.17300000000E+03 0.  1.
<mgrwt>
<rscale>  2 0.19496898E+03</rscale>
<asrwt>0</asrwt>
<pdfrwt beam="1">  1       21 0.10885490E+00 0.19496898E+03</pdfrwt>
<pdfrwt beam="2">  1       21 0.86422502E-02 0.19496898E+03</pdfrwt>
<totfact> 0.70173753E+04</totfact>
</mgrwt>
</event>
<event>
 4    1  0.3980289E+000  0.2078276E+03  0.7546771E-02  0.1143298E+00
         21   -1    0    0  503  502  0.00000000000E+00  0.00000000000E+00  0.14330519993E+03  0.14330519993E+03  0.00000000000E+00 0.  1.
         21   -1    0    0  501  503 -0.00000000000E+00 -0.00000000000E+00 -0.39857187385E+03  0.39857187385E+03  0.00000000000E+00 0.  1.
          6    1    1    2  501    0  0.10178953654E+03 -0.53872202495E+02 -0.26141161892E+03  0.33395861788E+03  0.17300000000E+03 0.  1.
         -6    1    1    2    0  502 -0.10178953654E+03  0.53872202495E+02  0.61449450050E+01  0.20791845589E+03  0.17300000000E+03 0.  1.
<mgrwt>
<rscale>  2 0.20782763E+03</rscale>
<asrwt>0</asrwt>
<pdfrwt beam="1">  1       21 0.22046954E-01 0.20782763E+03</pdfrwt>
<pdfrwt beam="2">  1       21 0.61318749E-01 0.20782763E+03</pdfrwt>
<totfact> 0.47185233E+04</totfact>
</mgrwt>
</event>
<event>
 4    1  0.3980289E+000  0.1990779E+03  0.7546771E-02  0.1150519E+00
         21   -1    0    0  503  502  0.00000000000E+00  0.00000000000E+00  0.58827307107E+03  0.58827307107E+03  0.00000000000E+00 0. -1.
         21   -1    0    0  501  503 -0.00000000000E+00 -0.00000000000E+00 -0.87145312442E+02  0.87145312442E+02  0.00000000000E+00 0. -1.
          6    1    1    2  501    0 -0.56795516645E+02 -0.80481588657E+02  0.89691523285E+02  0.21834968782E+03  0.17300000000E+03 0. -1.
         -6    1    1    2    0  502  0.56795516645E+02  0.80481588657E+02  0.41143623534E+03  0.45706869569E+03  0.17300000000E+03 0. -1.
<mgrwt>
<rscale>  2 0.19907792E+03</rscale>
<asrwt>0</asrwt>
<pdfrwt beam="1">  1       21 0.90503547E-01 0.19907792E+03</pdfrwt>
<pdfrwt beam="2">  1       21 0.13406972E-01 0.19907792E+03</pdfrwt>
<totfact> 0.49704814E+04</totfact>
</mgrwt>
</event>
<event>
 4    1  0.3980289E+000  0.2337770E+03  0.7546771E-02  0.1124009E+00
         21   -1    0    0  503  502  0.00000000000E+00  0.00000000000E+00  0.12410875647E+04  0.12410875647E+04  0.00000000000E+00 0. -1.
         21   -1    0    0  501  503 -0.00000000000E+00 -0.00000000000E+00 -0.53847480652E+02  0.53847480652E+02  0.00000000000E+00 0.  1.
          6    1    1    2  501    0 -0.10670976497E+03  0.11548025269E+03  0.31723274943E+03  0.39406633961E+03  0.17300000000E+03 0. -1.
         -6    1    1    2    0  502  0.10670976497E+03 -0.11548025269E+03  0.87000733460E+03  0.90086870572E+03  0.17300000000E+03 0. -1.
<mgrwt>
<rscale>  2 0.23377695E+03</rscale>
<asrwt>0</asrwt>
<pdfrwt beam="1">  1       21 0.19093653E+00 0.23377695E+03</pdfrwt>
<pdfrwt beam="2">  1       21 0.82842287E-02 0.23377695E+03</pdfrwt>
<totfact> 0.16860109E+04</totfact>
</mgrwt>
</event>
<event>
 4    1  0.3980289E+000  0.1998119E+03  0.7546771E-02  0.1149898E+00
         21   -1    0    0  501  502  0.00000000000E+00  0.00000000000E+00  0.63741046190E+03  0.63741046190E+03  0.00000000000E+00 0.  1.
         21   -1    0    0  502  503 -0.00000000000E+00 -0.00000000000E+00 -0.86893951402E+02  0.86893951402E+02  0.00000000000E+00 0.  1.
          6    1    1    2  501    0 -0.97247496135E+02 -0.23210372248E+02  0.46660631042E+03  0.50758865808E+03  0.17300000000E+03 0.  1.
         -6    1    1    2    0  503  0.97247496135E+02  0.23210372248E+02  0.83910200074E+02  0.21671575522E+03  0.17300000000E+03 0.  1.
<mgrwt>
<rscale>  2 0.19981190E+03</rscale>
<asrwt>0</asrwt>
<pdfrwt beam="1">  1       21 0.98063145E-01 0.19981190E+03</pdfrwt>
<pdfrwt beam="2">  1       21 0.13368301E-01 0.19981190E+03</pdfrwt>
<totfact> 0.41399213E+04</totfact>
</mgrwt>
</event>
<event>
 4    1  0.3980289E+000  0.1807279E+03  0.7546771E-02  0.1167100E+00
         21   -1    0    0  501  502  0.00000000000E+00  0.00000000000E+00  0.20914626524E+03  0.20914626524E+03  0.00000000000E+00 0.  1.
         21   -1    0    0  502  503 -0.00000000000E+00 -0.00000000000E+00 -0.15624497593E+03  0.15624497593E+03  0.00000000000E+00 0.  1.
          6    1    1    2  501    0  0.49507153114E+02 -0.16811335279E+02  0.22475060154E+02  0.18212003605E+03  0.17300000000E+03 0.  1.
         -6    1    1    2    0  503 -0.49507153114E+02  0.16811335279E+02  0.30426229164E+02  0.18327120512E+03  0.17300000000E+03 0.  1.
<mgrwt>
<rscale>  2 0.18072791E+03</rscale>
<asrwt>0</asrwt>
<pdfrwt beam="1">  1       21 0.32176349E-01 0.18072791E+03</pdfrwt>
<pdfrwt beam="2">  1       21 0.24037688E-01 0.18072791E+03</pdfrwt>
<totfact> 0.15224097E+05</totfact>
</mgrwt>
</event>
<event>
 4    1  0.3980289E+000  0.1743068E+03  0.7546771E-02  0.1173430E+00
         21   -1    0    0  501  502  0.00000000000E+00  0.00000000000E+00  0.18460108020E+03  0.18460108020E+03  0.00000000000E+00 0. -1.
         21   -1    0    0  502  503 -0.00000000000E+00 -0.00000000000E+00 -0.17139709730E+03  0.17139709730E+03  0.00000000000E+00 0. -1.
          6    1    1    2  501    0  0.17201271698E+02  0.12568478926E+02  0.42083970283E+02  0.17931511639E+03  0.17300000000E+03 0. -1.
         -6    1    1    2    0  503 -0.17201271698E+02 -0.12568478926E+02 -0.28879987383E+02  0.17668306111E+03  0.17300000000E+03 0. -1.
<mgrwt>
<rscale>  2 0.17430677E+03</rscale>
<asrwt>0</asrwt>
<pdfrwt beam="1">  1       21 0.28400166E-01 0.17430677E+03</pdfrwt>
<pdfrwt beam="2">  1       21 0.26368784E-01 0.17430677E+03</pdfrwt>
<totfact> 0.16305544E+05</totfact>
</mgrwt>
</event>
<event>
 4    1  0.3980289E+000  0.2198720E+03  0.7546771E-02  0.1133979E+00
         21   -1    0    0  501  502  0.00000000000E+00  0.00000000000E+00  0.36223038419E+02  0.36223038419E+02  0.00000000000E+00 0. -1.
         21   -1    0    0  502  503 -0.00000000000E+00 -0.00000000000E+00 -0.15777842959E+04  0.15777842959E+04  0.00000000000E+00 0.  1.
          6    1    1    2  501    0  0.13505248734E+03  0.13247686286E+02 -0.45396296453E+03  0.50440663030E+03  0.17300000000E+03 0. -1.
         -6    1    1    2    0  503 -0.13505248734E+03 -0.13247686286E+02 -0.10875982930E+04  0.11096007040E+04  0.17300000000E+03 0. -1.
<mgrwt>
<rscale>  2 0.21987195E+03</rscale>
<asrwt>0</asrwt>
<pdfrwt beam="1">  1       21 0.55727759E-02 0.21987195E+03</pdfrwt>
<pdfrwt beam="2">  1       21 0.24273601E+00 0.21987195E+03</pdfrwt>
<totfact> 0.16044462E+04</totfact>
</mgrwt>
</event>
<event>
 4    1  0.3980289E+000  0.2045388E+03  0.7546771E-02  0.1145965E+00
         21   -1    0    0  501  502  0.00000000000E+00  0.00000000000E+00  0.34259345199E+03  0.34259345199E+03  0.00000000000E+00 0. -1.
         21   -1    0    0  502  503 -0.00000000000E+00 -0.00000000000E+00 -0.13229633485E+03  0.13229633485E+03  0.00000000000E+00 0. -1.
          6    1    1    2  501    0 -0.55967698699E+01 -0.10897620662E+03  0.17101591626E+03  0.26661316745E+03  0.17300000000E+03 0. -1.
         -6    1    1    2    0  503  0.55967698699E+01  0.10897620662E+03  0.39281200881E+02  0.20827661939E+03  0.17300000000E+03 0. -1.
<mgrwt>
<rscale>  2 0.20453884E+03</rscale>
<asrwt>0</asrwt>
<pdfrwt beam="1">  1       21 0.52706684E-01 0.20453884E+03</pdfrwt>
<pdfrwt beam="2">  1       21 0.20353282E-01 0.20453884E+03</pdfrwt>
<totfact> 0.75832701E+04</totfact>
</mgrwt>
</event>
<event>
 4    1  0.3980289E+000  0.3098636E+03  0.7546771E-02  0.1080411E+00
         21   -1    0    0  503  502  0.00000000000E+00  0.00000000000E+00  0.16796310896E+03  0.16796310896E+03  0.00000000000E+00 0. -1.
         21   -1    0    0  501  503 -0.00000000000E+00 -0.00000000000E+00 -0.63228467764E+03  0.63228467764E+03  0.00000000000E+00 0.  1.
          6    1    1    2  501    0  0.76726924801E+02  0.24535578123E+03 -0.35607243555E+03  0.47202018996E+03  0.17300000000E+03 0. -1.
         -6    1    1    2    0  502 -0.76726924801E+02 -0.24535578123E+03 -0.10824913313E+03  0.32822759664E+03  0.17300000000E+03 0.  1.
<mgrwt>
<rscale>  2 0.30986365E+03</rscale>
<asrwt>0</asrwt>
<pdfrwt beam="1">  1       21 0.25840478E-01 0.30986365E+03</pdfrwt>
<pdfrwt beam="2">  1       21 0.97274565E-01 0.30986365E+03</pdfrwt>
<totfact> 0.11682991E+04</totfact>
</mgrwt>
</event>
<event>
 4    1  0.3980289E+000  0.1756455E+03  0.7546771E-02  0.1172085E+00
         21   -1    0    0  501  502  0.00000000000E+00  0.00000000000E+00  0.79477757470E+02  0.79477757470E+02  0.00000000000E+00 0. -1.
         21   -1    0    0  502  503 -0.00000000000E+00 -0.00000000000E+00 -0.51144624331E+03  0.51144624331E+03  0.00000000000E+00 0. -1.
          6    1    1    2  501    0 -0.26792584361E+02 -0.14300918230E+02 -0.70929897027E+02  0.18942652700E+03  0.17300000000E+03 0. -1.
         -6    1    1    2    0  503  0.26792584361E+02  0.14300918230E+02 -0.36103858881E+03  0.40149747378E+03  0.17300000000E+03 0. -1.
<mgrwt>
<rscale>  2 0.17564555E+03</rscale>
<asrwt>0</asrwt>
<pdfrwt beam="1">  1       21 0.12227347E-01 0.17564555E+03</pdfrwt>
<pdfrwt beam="2">  1       21 0.78684040E-01 0.17564555E+03</pdfrwt>
<totfact> 0.81603122E+04</totfact>
</mgrwt>
</event>
<event>
 4    1  0.3980289E+000  0.1905665E+03  0.7546771E-02  0.1157951E+00
         21   -1    0    0  501  502  0.00000000000E+00  0.00000000000E+00  0.53244152646E+02  0.53244152646E+02  0.00000000000E+00 0. -1.
         21   -1    0    0  502  503 -0.00000000000E+00 -0.00000000000E+00 -0.14413601942E+04  0.14413601942E+04  0.00000000000E+00 0.  1.
          6    1    1    2  501    0 -0.55444477277E+02  0.57554186918E+02 -0.15166080795E+03  0.24354994387E+03  0.17300000000E+03 0. -1.
         -6    1    1    2    0  503  0.55444477277E+02 -0.57554186918E+02 -0.12364552336E+04  0.12510544030E+04  0.17300000000E+03 0.  1.
<mgrwt>
<rscale>  2 0.19056646E+03</rscale>
<asrwt>0</asrwt>
<pdfrwt beam="1">  1       21 0.81914084E-02 0.19056646E+03</pdfrwt>
<pdfrwt beam="2">  1       21 0.22174771E+00 0.19056646E+03</pdfrwt>
<totfact> 0.11323462E+04</totfact>
</mgrwt>
</event>
<event>
 4    1  0.3980289E+000  0.3175182E+03  0.7546771E-02  0.1076797E+00
         21   -1    0    0  501  502  0.00000000000E+00  0.00000000000E+00  0.18697294849E+04  0.18697294849E+04  0.00000000000E+00 0. -1.
         21   -1    0    0  502  503 -0.00000000000E+00 -0.00000000000E+00 -0.98134938048E+02  0.98134938048E+02  0.00000000000E+00 0.  1.
          6    1    1    2  501    0  0.27734548381E+01  0.26623505740E+03  0.15462361823E+04  0.15785005953E+04  0.17300000000E+03 0. -1.
         -6    1    1    2    0  503 -0.27734548381E+01 -0.26623505740E+03  0.22535836461E+03  0.38936382773E+03  0.17300000000E+03 0.  1.
<mgrwt>
<rscale>  2 0.31751819E+03</rscale>
<asrwt>0</asrwt>
<pdfrwt beam="1">  1       21 0.28765066E+00 0.31751819E+03</pdfrwt>
<pdfrwt beam="2">  1       21 0.15097684E-01 0.31751819E+03</pdfrwt>
<totfact> 0.13788205E+03</totfact>
</mgrwt>
</event>
<event>
 4    1  0.3980289E+000  0.1823587E+03  0.7546771E-02  0.1165540E+00
         21   -1    0    0  501  502  0.00000000000E+00  0.00000000000E+00  0.16593180408E+02  0.16593180408E+02  0.00000000000E+00 0. -1.
         21   -1    0    0  502  503 -0.00000000000E+00 -0.00000000000E+00 -0.21721942596E+04  0.21721942596E+04  0.00000000000E+00 0.  1.
          6    1    1    2  501    0 -0.17677833177E+01  0.57641887680E+02 -0.77337868051E+03  0.79458750036E+03  0.17300000000E+03 0. -1.
         -6    1    1    2    0  503  0.17677833177E+01 -0.57641887680E+02 -0.13822223987E+04  0.13941999397E+04  0.17300000000E+03 0.  1.
<mgrwt>
<rscale>  2 0.18235875E+03</rscale>
<asrwt>0</asrwt>
<pdfrwt beam="1">  1       21 0.25527981E-02 0.18235875E+03</pdfrwt>
<pdfrwt beam="2">  1       21 0.33418359E+00 0.18235875E+03</pdfrwt>
<totfact> 0.18086326E+04</totfact>
</mgrwt>
</event>
<event>
 4    1  0.3980289E+000  0.1849849E+03  0.7546771E-02  0.1163064E+00
         21   -1    0    0  501  502  0.00000000000E+00  0.00000000000E+00  0.10751332594E+04  0.10751332594E+04  0.00000000000E+00 0. -1.
         21   -1    0    0  502  503 -0.00000000000E+00 -0.00000000000E+00 -0.18089239654E+03  0.18089239654E+03  0.00000000000E+00 0.  1.
          6    1    1    2  501    0 -0.61675372572E+02  0.22058143422E+02  0.10172127959E+04  0.10338961676E+04  0.17300000000E+03 0. -1.
         -6    1    1    2    0  503  0.61675372572E+02 -0.22058143422E+02 -0.12297193303E+03  0.22212948833E+03  0.17300000000E+03 0.  1.
<mgrwt>
<rscale>  2 0.18498490E+03</rscale>
<asrwt>0</asrwt>
<pdfrwt beam="1">  1       21 0.16540511E+00 0.18498490E+03</pdfrwt>
<pdfrwt beam="2">  1       21 0.27829600E-01 0.18498490E+03</pdfrwt>
<totfact> 0.28563205E+03</totfact>
</mgrwt>
</event>
<event>
 4    1  0.3980289E+000  0.1737215E+03  0.7546771E-02  0.1174022E+00
         21   -1    0    0  503  502  0.00000000000E+00  0.00000000000E+00  0.12030058273E+02  0.12030058273E+02  0.00000000000E+00 0. -1.
         21   -1    0    0  501  503 -0.00000000000E+00 -0.00000000000E+00 -0.26053847454E+04  0.26053847454E+04  0.00000000000E+00 0. -1.
          6    1    1    2  501    0 -0.87805480389E+01 -0.13155569571E+02 -0.15488541175E+04  0.15585660859E+04  0.17300000000E+03 0. -1.
         -6    1    1    2    0  502  0.87805480389E+01  0.13155569571E+02 -0.10445005697E+04  0.10588487177E+04  0.17300000000E+03 0. -1.
<mgrwt>
<rscale>  2 0.17372152E+03</rscale>
<asrwt>0</asrwt>
<pdfrwt beam="1">  1       21 0.18507784E-02 0.17372152E+03</pdfrwt>
<pdfrwt beam="2">  1       21 0.40082837E+00 0.17372152E+03</pdfrwt>
<totfact> 0.12328572E+04</totfact>
</mgrwt>
</event>
<event>
 4    1  0.3980289E+000  0.1826067E+03  0.7546771E-02  0.1165304E+00
         21   -1    0    0  501  502  0.00000000000E+00  0.00000000000E+00  0.21364319122E+02  0.21364319122E+02  0.00000000000E+00 0.  1.
         21   -1    0    0  502  503 -0.00000000000E+00 -0.00000000000E+00 -0.16201402589E+04  0.16201402589E+04  0.00000000000E+00 0.  1.
          6    1    1    2  501    0 -0.18679998575E+02  0.55382979673E+02 -0.64229855968E+03  0.66775194238E+03  0.17300000000E+03 0.  1.
         -6    1    1    2    0  503  0.18679998575E+02 -0.55382979673E+02 -0.95647738011E+03  0.97375263565E+03  0.17300000000E+03 0.  1.
<mgrwt>
<rscale>  2 0.18260673E+03</rscale>
<asrwt>0</asrwt>
<pdfrwt beam="1">  1       21 0.32868184E-02 0.18260673E+03</pdfrwt>
<pdfrwt beam="2">  1       21 0.24925234E+00 0.18260673E+03</pdfrwt>
<totfact> 0.36829868E+04</totfact>
</mgrwt>
</event>
<event>
 4    1  0.3980289E+000  0.1963279E+03  0.7546771E-02  0.1152875E+00
         21   -1    0    0  503  502  0.00000000000E+00  0.00000000000E+00  0.36871107623E+02  0.36871107623E+02  0.00000000000E+00 0. -1.
         21   -1    0    0  501  503 -0.00000000000E+00 -0.00000000000E+00 -0.15750904194E+04  0.15750904194E+04  0.00000000000E+00 0. -1.
          6    1    1    2  501    0  0.27946511243E+01 -0.92778376250E+02 -0.12365085131E+04  0.12519975799E+04  0.17300000000E+03 0. -1.
         -6    1    1    2    0  502 -0.27946511243E+01  0.92778376250E+02 -0.30171079872E+03  0.35996394713E+03  0.17300000000E+03 0. -1.
<mgrwt>
<rscale>  2 0.19632788E+03</rscale>
<asrwt>0</asrwt>
<pdfrwt beam="1">  1       21 0.56724788E-02 0.19632788E+03</pdfrwt>
<pdfrwt beam="2">  1       21 0.24232157E+00 0.19632788E+03</pdfrwt>
<totfact> 0.15966914E+04</totfact>
</mgrwt>
</event>
<event>
 4    1  0.3980289E+000  0.1825974E+03  0.7546771E-02  0.1165313E+00
         21   -1    0    0  503  502  0.00000000000E+00  0.00000000000E+00  0.12112390582E+03  0.12112390582E+03  0.00000000000E+00 0. -1.
         21   -1    0    0  501  503 -0.00000000000E+00 -0.00000000000E+00 -0.36900125376E+03  0.36900125376E+03  0.00000000000E+00 0. -1.
          6    1    1    2  501    0 -0.58419238020E+02  0.13357589168E-01 -0.24744941278E+03  0.30752726617E+03  0.17300000000E+03 0. -1.
         -6    1    1    2    0  502  0.58419238020E+02 -0.13357589168E-01 -0.42793516115E+00  0.18259789341E+03  0.17300000000E+03 0. -1.
<mgrwt>
<rscale>  2 0.18259739E+03</rscale>
<asrwt>0</asrwt>
<pdfrwt beam="1">  1       21 0.18634447E-01 0.18259739E+03</pdfrwt>
<pdfrwt beam="2">  1       21 0.56769424E-01 0.18259739E+03</pdfrwt>
<totfact> 0.77117917E+04</totfact>
</mgrwt>
</event>
<event>
 4    1  0.3980289E+000  0.2064188E+03  0.7546771E-02  0.1144434E+00
         21   -1    0    0  503  502  0.00000000000E+00  0.00000000000E+00  0.80076445780E+02  0.80076445780E+02  0.00000000000E+00 0.  1.
         21   -1    0    0  501  503 -0.00000000000E+00 -0.00000000000E+00 -0.61535447452E+03  0.61535447452E+03  0.00000000000E+00 0.  1.
          6    1    1    2  501    0  0.10625357481E+03  0.37281392117E+02 -0.39553695812E+03  0.44615939931E+03  0.17300000000E+03 0.  1.
         -6    1    1    2    0  502 -0.10625357481E+03 -0.37281392117E+02 -0.13974107062E+03  0.24927152099E+03  0.17300000000E+03 0.  1.
<mgrwt>
<rscale>  2 0.20641881E+03</rscale>
<asrwt>0</asrwt>
<pdfrwt beam="1">  1       21 0.12319453E-01 0.20641881E+03</pdfrwt>
<pdfrwt beam="2">  1       21 0.94669919E-01 0.20641881E+03</pdfrwt>
<totfact> 0.51925124E+04</totfact>
</mgrwt>
</event>
<event>
 4    1  0.3980289E+000  0.2080313E+03  0.7546771E-02  0.1143135E+00
         21   -1    0    0  503  502  0.00000000000E+00  0.00000000000E+00  0.39958145111E+03  0.39958145111E+03  0.00000000000E+00 0. -1.
         21   -1    0    0  501  503 -0.00000000000E+00 -0.00000000000E+00 -0.14184064930E+03  0.14184064930E+03  0.00000000000E+00 0. -1.
          6    1    1    2  501    0  0.10989204284E+03 -0.35661939174E+02 -0.27590465498E+01  0.20804962707E+03  0.17300000000E+03 0. -1.
         -6    1    1    2    0  502 -0.10989204284E+03  0.35661939174E+02  0.26049984837E+03  0.33337247334E+03  0.17300000000E+03 0. -1.
<mgrwt>
<rscale>  2 0.20803133E+03</rscale>
<asrwt>0</asrwt>
<pdfrwt beam="1">  1       21 0.61474069E-01 0.20803133E+03</pdfrwt>
<pdfrwt beam="2">  1       21 0.21821639E-01 0.20803133E+03</pdfrwt>
<totfact> 0.47842330E+04</totfact>
</mgrwt>
</event>
<event>
 4    1  0.3980289E+000  0.2109075E+03  0.7546771E-02  0.1140849E+00
         21   -1    0    0  501  502  0.00000000000E+00  0.00000000000E+00  0.41584295911E+03  0.41584295911E+03  0.00000000000E+00 0.  1.
         21   -1    0    0  502  503 -0.00000000000E+00 -0.00000000000E+00 -0.18553126997E+03  0.18553126997E+03  0.00000000000E+00 0.  1.
          6    1    1    2  501    0  0.45064928778E+01  0.12055154937E+03  0.31082186126E+03  0.37562243540E+03  0.17300000000E+03 0.  1.
         -6    1    1    2    0  503 -0.45064928778E+01 -0.12055154937E+03 -0.80510172129E+02  0.22575179368E+03  0.17300000000E+03 0.  1.
<mgrwt>
<rscale>  2 0.21090753E+03</rscale>
<asrwt>0</asrwt>
<pdfrwt beam="1">  1       21 0.63975840E-01 0.21090753E+03</pdfrwt>
<pdfrwt beam="2">  1       21 0.28543272E-01 0.21090753E+03</pdfrwt>
<totfact> 0.26211765E+04</totfact>
</mgrwt>
</event>
<event>
 4    1  0.3980289E+000  0.1961688E+03  0.7546771E-02  0.1153012E+00
         21   -1    0    0  503  502  0.00000000000E+00  0.00000000000E+00  0.23775653412E+03  0.23775653412E+03  0.00000000000E+00 0. -1.
         21   -1    0    0  501  503 -0.00000000000E+00 -0.00000000000E+00 -0.21951900315E+03  0.21951900315E+03  0.00000000000E+00 0.  1.
          6    1    1    2  501    0  0.41514015445E+02  0.82642541998E+02 -0.10806364177E+03  0.22396417994E+03  0.17300000000E+03 0.  1.
         -6    1    1    2    0  502 -0.41514015445E+02 -0.82642541998E+02  0.12630117273E+03  0.23331135733E+03  0.17300000000E+03 0. -1.
<mgrwt>
<rscale>  2 0.19616881E+03</rscale>
<asrwt>0</asrwt>
<pdfrwt beam="1">  1       21 0.36577928E-01 0.19616881E+03</pdfrwt>
<pdfrwt beam="2">  1       21 0.33772154E-01 0.19616881E+03</pdfrwt>
<totfact> 0.60783894E+04</totfact>
</mgrwt>
</event>
<event>
 4    1  0.3980289E+000  0.1747472E+03  0.7546771E-02  0.1172986E+00
         21   -1    0    0  501  502  0.00000000000E+00  0.00000000000E+00  0.10019271020E+04  0.10019271020E+04  0.00000000000E+00 0.  1.
         21   -1    0    0  502  503 -0.00000000000E+00 -0.00000000000E+00 -0.30507445103E+02  0.30507445103E+02  0.00000000000E+00 0.  1.
          6    1    1    2  501    0 -0.10942083834E+02  0.22087784257E+02  0.50178390739E+03  0.53134140543E+03  0.17300000000E+03 0.  1.
         -6    1    1    2    0  503  0.10942083834E+02 -0.22087784257E+02  0.46963574948E+03  0.50109314165E+03  0.17300000000E+03 0.  1.
<mgrwt>
<rscale>  2 0.17474724E+03</rscale>
<asrwt>0</asrwt>
<pdfrwt beam="1">  1       21 0.15414261E+00 0.17474724E+03</pdfrwt>
<pdfrwt beam="2">  1       21 0.46934539E-02 0.17474724E+03</pdfrwt>
<totfact> 0.84039371E+04</totfact>
</mgrwt>
</event>
<event>
 4    1  0.3980289E+000  0.1763266E+03  0.7546771E-02  0.1171406E+00
         21   -1    0    0  503  502  0.00000000000E+00  0.00000000000E+00  0.18182600632E+03  0.18182600632E+03  0.00000000000E+00 0.  1.
         21   -1    0    0  501  503 -0.00000000000E+00 -0.00000000000E+00 -0.28008169817E+03  0.28008169817E+03  0.00000000000E+00 0.  1.
          6    1    1    2  501    0  0.25392368889E+02 -0.22744528791E+02 -0.19326352610E+03  0.26161398378E+03  0.17300000000E+03 0.  1.
         -6    1    1    2    0  502 -0.25392368889E+02  0.22744528791E+02  0.95007834254E+02  0.20029372071E+03  0.17300000000E+03 0.  1.
<mgrwt>
<rscale>  2 0.17632665E+03</rscale>
<asrwt>0</asrwt>
<pdfrwt beam="1">  1       21 0.27973232E-01 0.17632665E+03</pdfrwt>
<pdfrwt beam="2">  1       21 0.43089492E-01 0.17632665E+03</pdfrwt>
<totfact> 0.63669304E+04</totfact>
</mgrwt>
</event>
<event>
 4    1  0.3980289E+000  0.1944507E+03  0.7546771E-02  0.1154507E+00
         21   -1    0    0  503  502  0.00000000000E+00  0.00000000000E+00  0.18822168032E+04  0.18822168032E+04  0.00000000000E+00 0.  1.
         21   -1    0    0  501  503 -0.00000000000E+00 -0.00000000000E+00 -0.97955047836E+02  0.97955047836E+02  0.00000000000E+00 0.  1.
          6    1    1    2  501    0 -0.66596572582E+02 -0.58710795482E+02  0.93869953358E+01  0.19467710874E+03  0.17300000000E+03 0.  1.
         -6    1    1    2    0  502  0.66596572582E+02  0.58710795482E+02  0.17748747600E+04  0.17854947423E+04  0.17300000000E+03 0.  1.
<mgrwt>
<rscale>  2 0.19445066E+03</rscale>
<asrwt>0</asrwt>
<pdfrwt beam="1">  1       21 0.28957179E+00 0.19445066E+03</pdfrwt>
<pdfrwt beam="2">  1       21 0.15070009E-01 0.19445066E+03</pdfrwt>
<totfact> 0.15210461E+03</totfact>
</mgrwt>
</event>
<event>
 4    1  0.3980289E+000  0.2601847E+03  0.7546771E-02  0.1107032E+00
         21   -1    0    0  501  502  0.00000000000E+00  0.00000000000E+00  0.21109479811E+03  0.21109479811E+03  0.00000000000E+00 0.  1.
         21   -1    0    0  502  503 -0.00000000000E+00 -0.00000000000E+00 -0.48352891604E+03  0.48352891604E+03  0.00000000000E+00 0.  1.
          6    1    1    2  501    0 -0.17498514384E+03 -0.84541428515E+02  0.65334930271E+02  0.26826238427E+03  0.17300000000E+03 0.  1.
         -6    1    1    2    0  503  0.17498514384E+03  0.84541428515E+02 -0.33776904820E+03  0.42636132989E+03  0.17300000000E+03 0.  1.
<mgrwt>
<rscale>  2 0.26018465E+03</rscale>
<asrwt>0</asrwt>
<pdfrwt beam="1">  1       21 0.32476123E-01 0.26018465E+03</pdfrwt>
<pdfrwt beam="2">  1       21 0.74389063E-01 0.26018465E+03</pdfrwt>
<totfact> 0.14210557E+04</totfact>
</mgrwt>
</event>
<event>
 4    1  0.3980289E+000  0.2583731E+03  0.7546771E-02  0.1108125E+00
         21   -1    0    0  501  502  0.00000000000E+00  0.00000000000E+00  0.24712619378E+03  0.24712619378E+03  0.00000000000E+00 0. -1.
         21   -1    0    0  502  503 -0.00000000000E+00 -0.00000000000E+00 -0.35120678984E+03  0.35120678984E+03  0.00000000000E+00 0.  1.
          6    1    1    2  501    0 -0.46360823775E+02 -0.18622117315E+03  0.91698783133E+02  0.27416294085E+03  0.17300000000E+03 0. -1.
         -6    1    1    2    0  503  0.46360823775E+02  0.18622117315E+03 -0.19577937919E+03  0.32417004277E+03  0.17300000000E+03 0.  1.
<mgrwt>
<rscale>  2 0.25837309E+03</rscale>
<asrwt>0</asrwt>
<pdfrwt beam="1">  1       21 0.38019415E-01 0.25837309E+03</pdfrwt>
<pdfrwt beam="2">  1       21 0.54031813E-01 0.25837309E+03</pdfrwt>
<totfact> 0.20865153E+04</totfact>
</mgrwt>
</event>
<event>
 4    1  0.3980289E+000  0.1985157E+03  0.7546771E-02  0.1150997E+00
         21   -1    0    0  501  502  0.00000000000E+00  0.00000000000E+00  0.37566083355E+03  0.37566083355E+03  0.00000000000E+00 0. -1.
         21   -1    0    0  502  503 -0.00000000000E+00 -0.00000000000E+00 -0.16764198932E+03  0.16764198932E+03  0.00000000000E+00 0. -1.
          6    1    1    2  501    0  0.22446341304E+02 -0.94739786755E+02  0.27019164299E+03  0.33527897246E+03  0.17300000000E+03 0. -1.
         -6    1    1    2    0  503 -0.22446341304E+02  0.94739786755E+02 -0.62172798758E+02  0.20802385041E+03  0.17300000000E+03 0. -1.
<mgrwt>
<rscale>  2 0.19851566E+03</rscale>
<asrwt>0</asrwt>
<pdfrwt beam="1">  1       21 0.57793974E-01 0.19851566E+03</pdfrwt>
<pdfrwt beam="2">  1       21 0.25791075E-01 0.19851566E+03</pdfrwt>
<totfact> 0.39944631E+04</totfact>
</mgrwt>
</event>
<event>
 4    1  0.3980289E+000  0.2623026E+03  0.7546771E-02  0.1105768E+00
         21   -1    0    0  503  502  0.00000000000E+00  0.00000000000E+00  0.15911213845E+03  0.15911213845E+03  0.00000000000E+00 0.  1.
         21   -1    0    0  501  503 -0.00000000000E+00 -0.00000000000E+00 -0.43249365582E+03  0.43249365582E+03  0.00000000000E+00 0.  1.
          6    1    1    2  501    0 -0.64489325763E+02 -0.18631897637E+03 -0.13272701047E+03  0.29397124587E+03  0.17300000000E+03 0.  1.
         -6    1    1    2    0  502  0.64489325763E+02  0.18631897637E+03 -0.14065450690E+03  0.29763454840E+03  0.17300000000E+03 0.  1.
<mgrwt>
<rscale>  2 0.26230256E+03</rscale>
<asrwt>0</asrwt>
<pdfrwt beam="1">  1       21 0.24478791E-01 0.26230256E+03</pdfrwt>
<pdfrwt beam="2">  1       21 0.66537485E-01 0.26230256E+03</pdfrwt>
<totfact> 0.31570602E+04</totfact>
</mgrwt>
</event>
<event>
 4    1  0.3980289E+000  0.1969149E+03  0.7546771E-02  0.1152368E+00
         21   -1    0    0  503  502  0.00000000000E+00  0.00000000000E+00  0.63835292010E+03  0.63835292010E+03  0.00000000000E+00 0.  1.
         21   -1    0    0  501  503 -0.00000000000E+00 -0.00000000000E+00 -0.82980967046E+02  0.82980967046E+02  0.00000000000E+00 0. -1.
          6    1    1    2  501    0 -0.35917382345E+02  0.86927706957E+02  0.90977328844E+02  0.21691555720E+03  0.17300000000E+03 0. -1.
         -6    1    1    2    0  502  0.35917382345E+02 -0.86927706957E+02  0.46439462421E+03  0.50441832995E+03  0.17300000000E+03 0.  1.
<mgrwt>
<rscale>  2 0.19691492E+03</rscale>
<asrwt>0</asrwt>
<pdfrwt beam="1">  1       21 0.98208138E-01 0.19691492E+03</pdfrwt>
<pdfrwt beam="2">  1       21 0.12766303E-01 0.19691492E+03</pdfrwt>
<totfact> 0.44897067E+04</totfact>
</mgrwt>
</event>
<event>
 4    1  0.3980289E+000  0.2313078E+03  0.7546771E-02  0.1125723E+00
         21   -1    0    0  501  502  0.00000000000E+00  0.00000000000E+00  0.12439127135E+04  0.12439127135E+04  0.00000000000E+00 0.  1.
         21   -1    0    0  502  503 -0.00000000000E+00 -0.00000000000E+00 -0.46338289413E+02  0.46338289413E+02  0.00000000000E+00 0.  1.
          6    1    1    2  501    0  0.13818234169E+03 -0.66932486203E+02  0.77162817989E+03  0.80555159070E+03  0.17300000000E+03 0.  1.
         -6    1    1    2    0  503 -0.13818234169E+03  0.66932486203E+02  0.42594624422E+03  0.48469941224E+03  0.17300000000E+03 0.  1.
<mgrwt>
<rscale>  2 0.23130784E+03</rscale>
<asrwt>0</asrwt>
<pdfrwt beam="1">  1       21 0.19137116E+00 0.23130784E+03</pdfrwt>
<pdfrwt beam="2">  1       21 0.71289685E-02 0.23130784E+03</pdfrwt>
<totfact> 0.21798646E+04</totfact>
</mgrwt>
</event>
<event>
 4    1  0.3980289E+000  0.1828891E+03  0.7546771E-02  0.1165036E+00
         21   -1    0    0  503  502  0.00000000000E+00  0.00000000000E+00  0.10904450328E+03  0.10904450328E+03  0.00000000000E+00 0. -1.
         21   -1    0    0  501  503 -0.00000000000E+00 -0.00000000000E+00 -0.32056274296E+03  0.32056274296E+03  0.00000000000E+00 0. -1.
          6    1    1    2  501    0  0.36306500088E+02 -0.46917536616E+02 -0.15036240918E+03  0.23676416807E+03  0.17300000000E+03 0. -1.
         -6    1    1    2    0  502 -0.36306500088E+02  0.46917536616E+02 -0.61155830501E+02  0.19284307816E+03  0.17300000000E+03 0. -1.
<mgrwt>
<rscale>  2 0.18288908E+03</rscale>
<asrwt>0</asrwt>
<pdfrwt beam="1">  1       21 0.16776077E-01 0.18288908E+03</pdfrwt>
<pdfrwt beam="2">  1       21 0.49317345E-01 0.18288908E+03</pdfrwt>
<totfact> 0.12577177E+05</totfact>
</mgrwt>
</event>
<event>
 4    1  0.3980289E+000  0.2144418E+03  0.7546771E-02  0.1138096E+00
         21   -1    0    0  501  502  0.00000000000E+00  0.00000000000E+00  0.15369701337E+03  0.15369701337E+03  0.00000000000E+00 0. -1.
         21   -1    0    0  502  503 -0.00000000000E+00 -0.00000000000E+00 -0.29934546320E+03  0.29934546320E+03  0.00000000000E+00 0.  1.
          6    1    1    2  501    0  0.78862519061E+02  0.99181509751E+02 -0.67733730200E+02  0.22488469711E+03  0.17300000000E+03 0. -1.
         -6    1    1    2    0  503 -0.78862519061E+02 -0.99181509751E+02 -0.77914719631E+02  0.22815777945E+03  0.17300000000E+03 0. -1.
<mgrwt>
<rscale>  2 0.21444176E+03</rscale>
<asrwt>0</asrwt>
<pdfrwt beam="1">  1       21 0.23645694E-01 0.21444176E+03</pdfrwt>
<pdfrwt beam="2">  1       21 0.46053148E-01 0.21444176E+03</pdfrwt>
<totfact> 0.75383711E+04</totfact>
</mgrwt>
</event>
<event>
 4    1  0.3980289E+000  0.1849907E+03  0.7546771E-02  0.1163059E+00
         21   -1    0    0  501  502  0.00000000000E+00  0.00000000000E+00  0.82074200678E+02  0.82074200678E+02  0.00000000000E+00 0. -1.
         21   -1    0    0  502  503 -0.00000000000E+00 -0.00000000000E+00 -0.45583686375E+03  0.45583686375E+03  0.00000000000E+00 0. -1.
          6    1    1    2  501    0 -0.53593676628E+02  0.37686732046E+02 -0.10833475229E+03  0.21437814837E+03  0.17300000000E+03 0. -1.
         -6    1    1    2    0  503  0.53593676628E+02 -0.37686732046E+02 -0.26542791079E+03  0.32353291606E+03  0.17300000000E+03 0. -1.
<mgrwt>
<rscale>  2 0.18499073E+03</rscale>
<asrwt>0</asrwt>
<pdfrwt beam="1">  1       21 0.12626800E-01 0.18499073E+03</pdfrwt>
<pdfrwt beam="2">  1       21 0.70128749E-01 0.18499073E+03</pdfrwt>
<totfact> 0.99141376E+04</totfact>
</mgrwt>
</event>
<event>
 4    1  0.3980289E+000  0.1740804E+03  0.7546771E-02  0.1173658E+00
         21   -1    0    0  501  502  0.00000000000E+00  0.00000000000E+00  0.55436245384E+03  0.55436245384E+03  0.00000000000E+00 0. -1.
         21   -1    0    0  502  503 -0.00000000000E+00 -0.00000000000E+00 -0.13577835249E+03  0.13577835249E+03  0.00000000000E+00 0. -1.
          6    1    1    2  501    0  0.18844087875E+02  0.44596156847E+01  0.47600233232E+03  0.50683548435E+03  0.17300000000E+03 0. -1.
         -6    1    1    2    0  503 -0.18844087875E+02 -0.44596156847E+01 -0.57418230973E+02  0.18330532198E+03  0.17300000000E+03 0. -1.
<mgrwt>
<rscale>  2 0.17408041E+03</rscale>
<asrwt>0</asrwt>
<pdfrwt beam="1">  1       21 0.85286530E-01 0.17408041E+03</pdfrwt>
<pdfrwt beam="2">  1       21 0.20888978E-01 0.17408041E+03</pdfrwt>
<totfact> 0.25577190E+04</totfact>
</mgrwt>
</event>
<event>
 4    1  0.3980289E+000  0.2373066E+03  0.7546771E-02  0.1121600E+00
         21   -1    0    0  503  502  0.00000000000E+00  0.00000000000E+00  0.67633053561E+03  0.67633053561E+03  0.00000000000E+00 0. -1.
         21   -1    0    0  501  503 -0.00000000000E+00 -0.00000000000E+00 -0.98565751714E+02  0.98565751714E+02  0.00000000000E+00 0.  1.
          6    1    1    2  501    0 -0.81274756191E+02  0.14064079374E+03  0.13622703392E+03  0.27362789263E+03  0.17300000000E+03 0.  1.
         -6    1    1    2    0  502  0.81274756191E+02 -0.14064079374E+03  0.44153774998E+03  0.50126839469E+03  0.17300000000E+03 0.  1.
<mgrwt>
<rscale>  2 0.23730659E+03</rscale>
<asrwt>0</asrwt>
<pdfrwt beam="1">  1       21 0.10405085E+00 0.23730659E+03</pdfrwt>
<pdfrwt beam="2">  1       21 0.15163962E-01 0.23730659E+03</pdfrwt>
<totfact> 0.28025089E+04</totfact>
</mgrwt>
</event>
<event>
 4    1  0.3980289E+000  0.1789260E+03  0.7546771E-02  0.1168847E+00
         21   -1    0    0  501  502  0.00000000000E+00  0.00000000000E+00  0.13142320042E+03  0.13142320042E+03  0.00000000000E+00 0. -1.
         21   -1    0    0  502  503 -0.00000000000E+00 -0.00000000000E+00 -0.34290048806E+03  0.34290048806E+03  0.00000000000E+00 0. -1.
          6    1    1    2  501    0  0.37435727696E+02 -0.26155076019E+02  0.21887393800E+02  0.18025975623E+03  0.17300000000E+03 0. -1.
         -6    1    1    2    0  503 -0.37435727696E+02  0.26155076019E+02 -0.23336468144E+03  0.29406393225E+03  0.17300000000E+03 0. -1.
<mgrwt>
<rscale>  2 0.17892602E+03</rscale>
<asrwt>0</asrwt>
<pdfrwt beam="1">  1       21 0.20218955E-01 0.17892602E+03</pdfrwt>
<pdfrwt beam="2">  1       21 0.52753919E-01 0.17892602E+03</pdfrwt>
<totfact> 0.77473465E+04</totfact>
</mgrwt>
</event>
<event>
 4    1  0.3980289E+000  0.1958723E+03  0.7546771E-02  0.1153269E+00
         21   -1    0    0  503  502  0.00000000000E+00  0.00000000000E+00  0.57629462804E+02  0.57629462804E+02  0.00000000000E+00 0. -1.
         21   -1    0    0  501  503 -0.00000000000E+00 -0.00000000000E+00 -0.94415014489E+03  0.94415014489E+03  0.00000000000E+00 0.  1.
          6    1    1    2  501    0 -0.86735498386E+01  0.91442491419E+02 -0.71525975070E+03  0.74159454601E+03  0.17300000000E+03 0.  1.
         -6    1    1    2    0  502  0.86735498386E+01 -0.91442491419E+02 -0.17126093139E+03  0.26018506169E+03  0.17300000000E+03 0. -1.
<mgrwt>
<rscale>  2 0.19587230E+03</rscale>
<asrwt>0</asrwt>
<pdfrwt beam="1">  1       21 0.88660716E-02 0.19587230E+03</pdfrwt>
<pdfrwt beam="2">  1       21 0.14525386E+00 0.19587230E+03</pdfrwt>
<totfact> 0.32546783E+04</totfact>
</mgrwt>
</event>
<event>
 4    1  0.3980289E+000  0.2697364E+03  0.7546771E-02  0.1101431E+00
         21   -1    0    0  501  502  0.00000000000E+00  0.00000000000E+00  0.10576187592E+04  0.10576187592E+04  0.00000000000E+00 0.  1.
         21   -1    0    0  502  503 -0.00000000000E+00 -0.00000000000E+00 -0.68812052547E+02  0.68812052547E+02  0.00000000000E+00 0. -1.
          6    1    1    2  501    0 -0.90708760406E+02  0.18601253127E+03  0.50354582929E+03  0.57124088018E+03  0.17300000000E+03 0.  1.
         -6    1    1    2    0  503  0.90708760406E+02 -0.18601253127E+03  0.48526087734E+03  0.55518993154E+03  0.17300000000E+03 0. -1.
<mgrwt>
<rscale>  2 0.26973643E+03</rscale>
<asrwt>0</asrwt>
<pdfrwt beam="1">  1       21 0.16271057E+00 0.26973643E+03</pdfrwt>
<pdfrwt beam="2">  1       21 0.10586470E-01 0.26973643E+03</pdfrwt>
<totfact> 0.16820687E+04</totfact>
</mgrwt>
</event>
<event>
 4    1  0.3980289E+000  0.1746220E+03  0.7546771E-02  0.1173112E+00
         21   -1    0    0  501  502  0.00000000000E+00  0.00000000000E+00  0.23741049727E+03  0.23741049727E+03  0.00000000000E+00 0. -1.
         21   -1    0    0  502  503 -0.00000000000E+00 -0.00000000000E+00 -0.27801812348E+03  0.27801812348E+03  0.00000000000E+00 0. -1.
          6    1    1    2  501    0 -0.15397536019E+02  0.18076938245E+02  0.16872887253E+03  0.24282152342E+03  0.17300000000E+03 0. -1.
         -6    1    1    2    0  503  0.15397536019E+02 -0.18076938245E+02 -0.20933649873E+03  0.27260709733E+03  0.17300000000E+03 0. -1.
<mgrwt>
<rscale>  2 0.17462205E+03</rscale>
<asrwt>0</asrwt>
<pdfrwt beam="1">  1       21 0.36524692E-01 0.17462205E+03</pdfrwt>
<pdfrwt beam="2">  1       21 0.42772019E-01 0.17462205E+03</pdfrwt>
<totfact> 0.38360065E+04</totfact>
</mgrwt>
</event>
<event>
 4    1  0.3980289E+000  0.1781533E+03  0.7546771E-02  0.1169602E+00
         21   -1    0    0  501  502  0.00000000000E+00  0.00000000000E+00  0.19925398833E+04  0.19925398833E+04  0.00000000000E+00 0. -1.
         21   -1    0    0  502  503 -0.00000000000E+00 -0.00000000000E+00 -0.18274719940E+02  0.18274719940E+02  0.00000000000E+00 0. -1.
          6    1    1    2  501    0 -0.18953727753E+02  0.38083613826E+02  0.13473634086E+04  0.13590904165E+04  0.17300000000E+03 0. -1.
         -6    1    1    2    0  503  0.18953727753E+02 -0.38083613826E+02  0.62690175480E+03  0.65172418677E+03  0.17300000000E+03 0. -1.
<mgrwt>
<rscale>  2 0.17815332E+03</rscale>
<asrwt>0</asrwt>
<pdfrwt beam="1">  1       21 0.30654443E+00 0.17815332E+03</pdfrwt>
<pdfrwt beam="2">  1       21 0.28114969E-02 0.17815332E+03</pdfrwt>
<totfact> 0.22380025E+04</totfact>
</mgrwt>
</event>
<event>
 4    1  0.3980289E+000  0.1834348E+03  0.7546771E-02  0.1164520E+00
         21   -1    0    0  501  502  0.00000000000E+00  0.00000000000E+00  0.19218880769E+03  0.19218880769E+03  0.00000000000E+00 0. -1.
         21   -1    0    0  502  503 -0.00000000000E+00 -0.00000000000E+00 -0.24623743728E+03  0.24623743728E+03  0.00000000000E+00 0. -1.
          6    1    1    2  501    0 -0.51648902393E+02  0.32430003446E+02  0.90818003887E+02  0.20468567139E+03  0.17300000000E+03 0. -1.
         -6    1    1    2    0  503  0.51648902393E+02 -0.32430003446E+02 -0.14486663348E+03  0.23374057358E+03  0.17300000000E+03 0. -1.
<mgrwt>
<rscale>  2 0.18343477E+03</rscale>
<asrwt>0</asrwt>
<pdfrwt beam="1">  1       21 0.29567509E-01 0.18343477E+03</pdfrwt>
<pdfrwt beam="2">  1       21 0.37882682E-01 0.18343477E+03</pdfrwt>
<totfact> 0.73947011E+04</totfact>
</mgrwt>
</event>
<event>
 4    1  0.3980289E+000  0.2683921E+03  0.7546771E-02  0.1102203E+00
         21   -1    0    0  501  502  0.00000000000E+00  0.00000000000E+00  0.17533187359E+04  0.17533187359E+04  0.00000000000E+00 0. -1.
         21   -1    0    0  502  503 -0.00000000000E+00 -0.00000000000E+00 -0.89090119672E+02  0.89090119672E+02  0.00000000000E+00 0. -1.
          6    1    1    2  501    0  0.20088653382E+03  0.41832161807E+02  0.15083327537E+04  0.15320254649E+04  0.17300000000E+03 0. -1.
         -6    1    1    2    0  503 -0.20088653382E+03 -0.41832161807E+02  0.15589586248E+03  0.31038339062E+03  0.17300000000E+03 0. -1.
<mgrwt>
<rscale>  2 0.26839212E+03</rscale>
<asrwt>0</asrwt>
<pdfrwt beam="1">  1       21 0.26974132E+00 0.26839212E+03</pdfrwt>
<pdfrwt beam="2">  1       21 0.13706173E-01 0.26839212E+03</pdfrwt>
<totfact> 0.21840288E+03</totfact>
</mgrwt>
</event>
<event>
 4    1  0.3980289E+000  0.1868478E+03  0.7546771E-02  0.1161336E+00
         21   -1    0    0  503  502  0.00000000000E+00  0.00000000000E+00  0.37835551429E+02  0.37835551429E+02  0.00000000000E+00 0.  1.
         21   -1    0    0  501  503 -0.00000000000E+00 -0.00000000000E+00 -0.11814352463E+04  0.11814352463E+04  0.00000000000E+00 0.  1.
          6    1    1    2  501    0 -0.30798471840E+02  0.63518155892E+02 -0.85707604302E+03  0.87720661507E+03  0.17300000000E+03 0.  1.
         -6    1    1    2    0  502  0.30798471840E+02 -0.63518155892E+02 -0.28652365189E+03  0.34206418270E+03  0.17300000000E+03 0.  1.
<mgrwt>
<rscale>  2 0.18684780E+03</rscale>
<asrwt>0</asrwt>
<pdfrwt beam="1">  1       21 0.58208537E-02 0.18684780E+03</pdfrwt>
<pdfrwt beam="2">  1       21 0.18175928E+00 0.18684780E+03</pdfrwt>
<totfact> 0.36902447E+04</totfact>
</mgrwt>
</event>
<event>
 4    1  0.3980289E+000  0.1853096E+03  0.7546771E-02  0.1162761E+00
         21   -1    0    0  501  502  0.00000000000E+00  0.00000000000E+00  0.13007917916E+03  0.13007917916E+03  0.00000000000E+00 0. -1.
         21   -1    0    0  502  503 -0.00000000000E+00 -0.00000000000E+00 -0.45239832251E+03  0.45239832251E+03  0.00000000000E+00 0. -1.
          6    1    1    2  501    0 -0.14343228671E+02  0.64845347502E+02  0.26788689104E+02  0.18723589711E+03  0.17300000000E+03 0. -1.
         -6    1    1    2    0  503  0.14343228671E+02 -0.64845347502E+02 -0.34910783245E+03  0.39524160456E+03  0.17300000000E+03 0. -1.
<mgrwt>
<rscale>  2 0.18530960E+03</rscale>
<asrwt>0</asrwt>
<pdfrwt beam="1">  1       21 0.20012182E-01 0.18530960E+03</pdfrwt>
<pdfrwt beam="2">  1       21 0.69599741E-01 0.18530960E+03</pdfrwt>
<totfact> 0.43422703E+04</totfact>
</mgrwt>
</event>
<event>
 4    1  0.3980289E+000  0.2261960E+03  0.7546771E-02  0.1129346E+00
         21   -1    0    0  503  502  0.00000000000E+00  0.00000000000E+00  0.37363021251E+03  0.37363021251E+03  0.00000000000E+00 0.  1.
         21   -1    0    0  501  503 -0.00000000000E+00 -0.00000000000E+00 -0.16795793202E+03  0.16795793202E+03  0.00000000000E+00 0.  1.
          6    1    1    2  501    0 -0.17180290929E+02  0.14470827689E+03 -0.13536379647E+02  0.22660070911E+03  0.17300000000E+03 0.  1.
         -6    1    1    2    0  502  0.17180290929E+02 -0.14470827689E+03  0.21920866013E+03  0.31498743542E+03  0.17300000000E+03 0.  1.
<mgrwt>
<rscale>  2 0.22619604E+03</rscale>
<asrwt>0</asrwt>
<pdfrwt beam="1">  1       21 0.57481571E-01 0.22619604E+03</pdfrwt>
<pdfrwt beam="2">  1       21 0.25839682E-01 0.22619604E+03</pdfrwt>
<totfact> 0.39719067E+04</totfact>
</mgrwt>
</event>
<event>
 4    1  0.3980289E+000  0.1854669E+03  0.7546771E-02  0.1162615E+00
         21   -1    0    0  503  502  0.00000000000E+00  0.00000000000E+00  0.13411187248E+03  0.13411187248E+03  0.00000000000E+00 0. -1.
         21   -1    0    0  501  503 -0.00000000000E+00 -0.00000000000E+00 -0.82235392015E+03  0.82235392015E+03  0.00000000000E+00 0.  1.
          6    1    1    2  501    0 -0.40610680088E+02  0.53101128008E+02 -0.74082559174E+03  0.76368875500E+03  0.17300000000E+03 0.  1.
         -6    1    1    2    0  502  0.40610680088E+02 -0.53101128008E+02  0.52583544065E+02  0.19277703763E+03  0.17300000000E+03 0. -1.
<mgrwt>
<rscale>  2 0.18546686E+03</rscale>
<asrwt>0</asrwt>
<pdfrwt beam="1">  1       21 0.20632595E-01 0.18546686E+03</pdfrwt>
<pdfrwt beam="2">  1       21 0.12651599E+00 0.18546686E+03</pdfrwt>
<totfact> 0.10131893E+04</totfact>
</mgrwt>
</event>
<event>
 4    1  0.3980289E+000  0.1764080E+03  0.7546771E-02  0.1171325E+00
         21   -1    0    0  501  502  0.00000000000E+00  0.00000000000E+00  0.74280972407E+03  0.74280972407E+03  0.00000000000E+00 0.  1.
         21   -1    0    0  502  503 -0.00000000000E+00 -0.00000000000E+00 -0.10340087050E+03  0.10340087050E+03  0.00000000000E+00 0.  1.
          6    1    1    2  501    0 -0.61637409310E+01 -0.33952872163E+02  0.64602594691E+03  0.66967851489E+03  0.17300000000E+03 0.  1.
         -6    1    1    2    0  503  0.61637409310E+01  0.33952872163E+02 -0.66170933334E+01  0.17653207968E+03  0.17300000000E+03 0.  1.
<mgrwt>
<rscale>  2 0.17640802E+03</rscale>
<asrwt>0</asrwt>
<pdfrwt beam="1">  1       21 0.11427842E+00 0.17640802E+03</pdfrwt>
<pdfrwt beam="2">  1       21 0.15907827E-01 0.17640802E+03</pdfrwt>
<totfact> 0.21194055E+04</totfact>
</mgrwt>
</event>
<event>
 4    1  0.3980289E+000  0.2015856E+03  0.7546771E-02  0.1148408E+00
         21   -1    0    0  503  502  0.00000000000E+00  0.00000000000E+00  0.22589386113E+03  0.22589386113E+03  0.00000000000E+00 0. -1.
         21   -1    0    0  501  503 -0.00000000000E+00 -0.00000000000E+00 -0.20304505269E+03  0.20304505269E+03  0.00000000000E+00 0.  1.
          6    1    1    2  501    0  0.62185851959E+02  0.82708388424E+02 -0.60996278188E+02  0.21061173674E+03  0.17300000000E+03 0. -1.
         -6    1    1    2    0  502 -0.62185851959E+02 -0.82708388424E+02  0.83845086635E+02  0.21832717708E+03  0.17300000000E+03 0. -1.
<mgrwt>
<rscale>  2 0.20158561E+03</rscale>
<asrwt>0</asrwt>
<pdfrwt beam="1">  1       21 0.34752902E-01 0.20158561E+03</pdfrwt>
<pdfrwt beam="2">  1       21 0.31237701E-01 0.20158561E+03</pdfrwt>
<totfact> 0.78283514E+04</totfact>
</mgrwt>
</event>
<event>
 4    1  0.3980289E+000  0.2747249E+03  0.7546771E-02  0.1098605E+00
         21   -1    0    0  503  502  0.00000000000E+00  0.00000000000E+00  0.25990624414E+03  0.25990624414E+03  0.00000000000E+00 0.  1.
         21   -1    0    0  501  503 -0.00000000000E+00 -0.00000000000E+00 -0.31357718975E+03  0.31357718975E+03  0.00000000000E+00 0. -1.
          6    1    1    2  501    0 -0.12150014324E+03  0.17544941645E+03 -0.10481073086E+03  0.29403923521E+03  0.17300000000E+03 0. -1.
         -6    1    1    2    0  502  0.12150014324E+03 -0.17544941645E+03  0.51139785255E+02  0.27944419868E+03  0.17300000000E+03 0. -1.
<mgrwt>
<rscale>  2 0.27472492E+03</rscale>
<asrwt>0</asrwt>
<pdfrwt beam="1">  1       21 0.39985576E-01 0.27472492E+03</pdfrwt>
<pdfrwt beam="2">  1       21 0.48242644E-01 0.27472492E+03</pdfrwt>
<totfact> 0.23749072E+04</totfact>
</mgrwt>
</event>
<event>
 4    1  0.3980289E+000  0.1756802E+03  0.7546771E-02  0.1172051E+00
         21   -1    0    0  503  502  0.00000000000E+00  0.00000000000E+00  0.28978982694E+03  0.28978982694E+03  0.00000000000E+00 0.  1.
         21   -1    0    0  501  503 -0.00000000000E+00 -0.00000000000E+00 -0.15738894319E+03  0.15738894319E+03  0.00000000000E+00 0.  1.
          6    1    1    2  501    0  0.30568899078E+02  0.24216577954E+00 -0.60933800744E+02  0.18594742351E+03  0.17300000000E+03 0.  1.
         -6    1    1    2    0  502 -0.30568899078E+02 -0.24216577954E+00  0.19333468448E+03  0.26123134663E+03  0.17300000000E+03 0.  1.
<mgrwt>
<rscale>  2 0.17568015E+03</rscale>
<asrwt>0</asrwt>
<pdfrwt beam="1">  1       21 0.44583050E-01 0.17568015E+03</pdfrwt>
<pdfrwt beam="2">  1       21 0.24213684E-01 0.17568015E+03</pdfrwt>
<totfact> 0.78301990E+04</totfact>
</mgrwt>
</event>
<event>
 4    1  0.3980289E+000  0.2773703E+03  0.7546771E-02  0.1097134E+00
         21   -1    0    0  501  502  0.00000000000E+00  0.00000000000E+00  0.15324241556E+04  0.15324241556E+04  0.00000000000E+00 0.  1.
         21   -1    0    0  502  503 -0.00000000000E+00 -0.00000000000E+00 -0.62057826455E+02  0.62057826455E+02  0.00000000000E+00 0. -1.
          6    1    1    2  501    0 -0.54047806015E+02  0.20996215380E+03  0.10836129345E+04  0.11185487308E+04  0.17300000000E+03 0.  1.
         -6    1    1    2    0  503  0.54047806015E+02 -0.20996215380E+03  0.38675339455E+03  0.47593325116E+03  0.17300000000E+03 0. -1.
<mgrwt>
<rscale>  2 0.27737028E+03</rscale>
<asrwt>0</asrwt>
<pdfrwt beam="1">  1       21 0.23575753E+00 0.27737028E+03</pdfrwt>
<pdfrwt beam="2">  1       21 0.95473591E-02 0.27737028E+03</pdfrwt>
<totfact> 0.66355805E+03</totfact>
</mgrwt>
</event>
<event>
 4    1  0.3980289E+000  0.1743715E+03  0.7546771E-02  0.1173364E+00
         21   -1    0    0  503  502  0.00000000000E+00  0.00000000000E+00  0.13595424875E+03  0.13595424875E+03  0.00000000000E+00 0. -1.
         21   -1    0    0  501  503 -0.00000000000E+00 -0.00000000000E+00 -0.11716808486E+04  0.11716808486E+04  0.00000000000E+00 0. -1.
          6    1    1    2  501    0 -0.15409108706E+02  0.15459105432E+02 -0.11059811948E+04  0.11196427233E+04  0.17300000000E+03 0. -1.
         -6    1    1    2    0  502  0.15409108706E+02 -0.15459105432E+02  0.70254594987E+02  0.18799237402E+03  0.17300000000E+03 0. -1.
<mgrwt>
<rscale>  2 0.17437151E+03</rscale>
<asrwt>0</asrwt>
<pdfrwt beam="1">  1       21 0.20916038E-01 0.17437151E+03</pdfrwt>
<pdfrwt beam="2">  1       21 0.18025860E+00 0.17437151E+03</pdfrwt>
<totfact> 0.39146260E+03</totfact>
</mgrwt>
</event>
<event>
 4    1  0.3980289E+000  0.2300968E+03  0.7546771E-02  0.1126572E+00
         21   -1    0    0  503  502  0.00000000000E+00  0.00000000000E+00  0.33900101014E+03  0.33900101014E+03  0.00000000000E+00 0.  1.
         21   -1    0    0  501  503 -0.00000000000E+00 -0.00000000000E+00 -0.15651369090E+03  0.15651369090E+03  0.00000000000E+00 0. -1.
          6    1    1    2  501    0 -0.94449645650E+02 -0.11872150300E+03  0.10271623343E+03  0.25198245067E+03  0.17300000000E+03 0.  1.
         -6    1    1    2    0  502  0.94449645650E+02  0.11872150300E+03  0.79771085802E+02  0.24353225037E+03  0.17300000000E+03 0.  1.
<mgrwt>
<rscale>  2 0.23009679E+03</rscale>
<asrwt>0</asrwt>
<pdfrwt beam="1">  1       21 0.52154001E-01 0.23009679E+03</pdfrwt>
<pdfrwt beam="2">  1       21 0.24079029E-01 0.23009679E+03</pdfrwt>
<totfact> 0.55805725E+04</totfact>
</mgrwt>
</event>
<event>
 4    1  0.3980289E+000  0.2045362E+03  0.7546771E-02  0.1145967E+00
         21   -1    0    0  503  502  0.00000000000E+00  0.00000000000E+00  0.11686912409E+03  0.11686912409E+03  0.00000000000E+00 0.  1.
         21   -1    0    0  501  503 -0.00000000000E+00 -0.00000000000E+00 -0.85617650010E+03  0.85617650010E+03  0.00000000000E+00 0.  1.
          6    1    1    2  501    0  0.10809664891E+03  0.14872197890E+02 -0.74078567495E+03  0.76850405594E+03  0.17300000000E+03 0.  1.
         -6    1    1    2    0  502 -0.10809664891E+03 -0.14872197890E+02  0.14782989343E+01  0.20454156825E+03  0.17300000000E+03 0.  1.
<mgrwt>
<rscale>  2 0.20453623E+03</rscale>
<asrwt>0</asrwt>
<pdfrwt beam="1">  1       21 0.17979865E-01 0.20453623E+03</pdfrwt>
<pdfrwt beam="2">  1       21 0.13171946E+00 0.20453623E+03</pdfrwt>
<totfact> 0.11664577E+04</totfact>
</mgrwt>
</event>
<event>
 4    1  0.3980289E+000  0.1876953E+03  0.7546771E-02  0.1160557E+00
         21   -1    0    0  503  502  0.00000000000E+00  0.00000000000E+00  0.14905470528E+03  0.14905470528E+03  0.00000000000E+00 0.  1.
         21   -1    0    0  501  503 -0.00000000000E+00 -0.00000000000E+00 -0.11718219443E+04  0.11718219443E+04  0.00000000000E+00 0.  1.
          6    1    1    2  501    0  0.72782990512E+02 -0.17761727171E+01 -0.11014707648E+04  0.11173483630E+04  0.17300000000E+03 0.  1.
         -6    1    1    2    0  502 -0.72782990512E+02  0.17761727171E+01  0.78703525762E+02  0.20352828665E+03  0.17300000000E+03 0.  1.
<mgrwt>
<rscale>  2 0.18769528E+03</rscale>
<asrwt>0</asrwt>
<pdfrwt beam="1">  1       21 0.22931493E-01 0.18769528E+03</pdfrwt>
<pdfrwt beam="2">  1       21 0.18028030E+00 0.18769528E+03</pdfrwt>
<totfact> 0.32489175E+03</totfact>
</mgrwt>
</event>
<event>
 4    1  0.3980289E+000  0.2657037E+03  0.7546771E-02  0.1103764E+00
         21   -1    0    0  501  502  0.00000000000E+00  0.00000000000E+00  0.11217632806E+04  0.11217632806E+04  0.00000000000E+00 0. -1.
         21   -1    0    0  502  503 -0.00000000000E+00 -0.00000000000E+00 -0.62982540442E+02  0.62982540442E+02  0.00000000000E+00 0. -1.
          6    1    1    2  501    0 -0.18605870041E+03  0.77791995601E+02  0.54562510357E+03  0.60688152734E+03  0.17300000000E+03 0. -1.
         -6    1    1    2    0  503  0.18605870041E+03 -0.77791995601E+02  0.51315563661E+03  0.57786429372E+03  0.17300000000E+03 0. -1.
<mgrwt>
<rscale>  2 0.26570366E+03</rscale>
<asrwt>0</asrwt>
<pdfrwt beam="1">  1       21 0.17257895E+00 0.26570366E+03</pdfrwt>
<pdfrwt beam="2">  1       21 0.96896224E-02 0.26570366E+03</pdfrwt>
<totfact> 0.16760221E+04</totfact>
</mgrwt>
</event>
<event>
 4    1  0.3980289E+000  0.2062267E+03  0.7546771E-02  0.1144589E+00
         21   -1    0    0  501  502  0.00000000000E+00  0.00000000000E+00  0.13229396298E+03  0.13229396298E+03  0.00000000000E+00 0.  1.
         21   -1    0    0  502  503 -0.00000000000E+00 -0.00000000000E+00 -0.32778276746E+03  0.32778276746E+03  0.00000000000E+00 0. -1.
          6    1    1    2  501    0  0.10178720212E+03  0.47326660288E+02 -0.65837756719E+02  0.21648107885E+03  0.17300000000E+03 0.  1.
         -6    1    1    2    0  503 -0.10178720212E+03 -0.47326660288E+02 -0.12965104776E+03  0.24359565160E+03  0.17300000000E+03 0.  1.
<mgrwt>
<rscale>  2 0.20622669E+03</rscale>
<asrwt>0</asrwt>
<pdfrwt beam="1">  1       21 0.20352917E-01 0.20622669E+03</pdfrwt>
<pdfrwt beam="2">  1       21 0.50428118E-01 0.20622669E+03</pdfrwt>
<totfact> 0.83143142E+04</totfact>
</mgrwt>
</event>
<event>
 4    1  0.3980289E+000  0.2623221E+03  0.7546771E-02  0.1105756E+00
         21   -1    0    0  501  502  0.00000000000E+00  0.00000000000E+00  0.16828259595E+04  0.16828259595E+04  0.00000000000E+00 0.  1.
         21   -1    0    0  502  503 -0.00000000000E+00 -0.00000000000E+00 -0.12599015943E+03  0.12599015943E+03  0.00000000000E+00 0. -1.
          6    1    1    2  501    0  0.14749750005E+03 -0.13087533635E+03  0.15217075654E+04  0.15441524474E+04  0.17300000000E+03 0.  1.
         -6    1    1    2    0  503 -0.14749750005E+03  0.13087533635E+03  0.35128234738E+02  0.26466367160E+03  0.17300000000E+03 0. -1.
<mgrwt>
<rscale>  2 0.26232207E+03</rscale>
<asrwt>0</asrwt>
<pdfrwt beam="1">  1       21 0.25889629E+00 0.26232207E+03</pdfrwt>
<pdfrwt beam="2">  1       21 0.19383103E-01 0.26232207E+03</pdfrwt>
<totfact> 0.13417278E+03</totfact>
</mgrwt>
</event>
<event>
 4    1  0.3980289E+000  0.1919039E+03  0.7546771E-02  0.1156755E+00
         21   -1    0    0  503  502  0.00000000000E+00  0.00000000000E+00  0.12695895695E+03  0.12695895695E+03  0.00000000000E+00 0. -1.
         21   -1    0    0  501  503 -0.00000000000E+00 -0.00000000000E+00 -0.11316574190E+04  0.11316574190E+04  0.00000000000E+00 0. -1.
          6    1    1    2  501    0  0.18457896971E+02 -0.80977802177E+02 -0.10450435571E+04  0.10625173573E+04  0.17300000000E+03 0. -1.
         -6    1    1    2    0  502 -0.18457896971E+02  0.80977802177E+02  0.40345095052E+02  0.19609901861E+03  0.17300000000E+03 0. -1.
<mgrwt>
<rscale>  2 0.19190388E+03</rscale>
<asrwt>0</asrwt>
<pdfrwt beam="1">  1       21 0.19532146E-01 0.19190388E+03</pdfrwt>
<pdfrwt beam="2">  1       21 0.17410115E+00 0.19190388E+03</pdfrwt>
<totfact> 0.48229242E+03</totfact>
</mgrwt>
</event>
<event>
 4    1  0.3980289E+000  0.2327525E+03  0.7546771E-02  0.1124717E+00
         21   -1    0    0  501  502  0.00000000000E+00  0.00000000000E+00  0.26787832805E+03  0.26787832805E+03  0.00000000000E+00 0.  1.
         21   -1    0    0  502  503 -0.00000000000E+00 -0.00000000000E+00 -0.47465213188E+03  0.47465213188E+03  0.00000000000E+00 0.  1.
          6    1    1    2  501    0  0.13891465324E+03  0.70338015478E+02  0.17787811664E+03  0.29294085015E+03  0.17300000000E+03 0.  1.
         -6    1    1    2    0  503 -0.13891465324E+03 -0.70338015478E+02 -0.38465192047E+03  0.44958960979E+03  0.17300000000E+03 0.  1.
<mgrwt>
<rscale>  2 0.23275248E+03</rscale>
<asrwt>0</asrwt>
<pdfrwt beam="1">  1       21 0.41212051E-01 0.23275248E+03</pdfrwt>
<pdfrwt beam="2">  1       21 0.73023404E-01 0.23275248E+03</pdfrwt>
<totfact> 0.93180584E+03</totfact>
</mgrwt>
</event>
<event>
 4    1  0.3980289E+000  0.1837188E+03  0.7546771E-02  0.1164252E+00
         21   -1    0    0  501  502  0.00000000000E+00  0.00000000000E+00  0.72158601079E+02  0.72158601079E+02  0.00000000000E+00 0. -1.
         21   -1    0    0  502  503 -0.00000000000E+00 -0.00000000000E+00 -0.47581021612E+03  0.47581021612E+03  0.00000000000E+00 0.  1.
          6    1    1    2  501    0 -0.57287953930E+02  0.23273988535E+02 -0.16617807052E+03  0.24772512858E+03  0.17300000000E+03 0. -1.
         -6    1    1    2    0  503  0.57287953930E+02 -0.23273988535E+02 -0.23747354452E+03  0.30024368862E+03  0.17300000000E+03 0.  1.
<mgrwt>
<rscale>  2 0.18371877E+03</rscale>
<asrwt>0</asrwt>
<pdfrwt beam="1">  1       21 0.11101324E-01 0.18371877E+03</pdfrwt>
<pdfrwt beam="2">  1       21 0.73201568E-01 0.18371877E+03</pdfrwt>
<totfact> 0.11353244E+05</totfact>
</mgrwt>
</event>
<event>
 4    1  0.3980289E+000  0.2637216E+03  0.7546771E-02  0.1104928E+00
         21   -1    0    0  503  502  0.00000000000E+00  0.00000000000E+00  0.14992994828E+03  0.14992994828E+03  0.00000000000E+00 0. -1.
         21   -1    0    0  501  503 -0.00000000000E+00 -0.00000000000E+00 -0.59345051157E+03  0.59345051157E+03  0.00000000000E+00 0.  1.
          6    1    1    2  501    0 -0.11291493970E+03  0.16392156696E+03 -0.39543911931E+03  0.47531164597E+03  0.17300000000E+03 0.  1.
         -6    1    1    2    0  502  0.11291493970E+03 -0.16392156696E+03 -0.48081443984E+02  0.26806881388E+03  0.17300000000E+03 0. -1.
<mgrwt>
<rscale>  2 0.26372156E+03</rscale>
<asrwt>0</asrwt>
<pdfrwt beam="1">  1       21 0.23066146E-01 0.26372156E+03</pdfrwt>
<pdfrwt beam="2">  1       21 0.91300077E-01 0.26372156E+03</pdfrwt>
<totfact> 0.17241516E+04</totfact>
</mgrwt>
</event>
<event>
 4    1  0.3980289E+000  0.2360466E+03  0.7546771E-02  0.1122455E+00
         21   -1    0    0  501  502  0.00000000000E+00  0.00000000000E+00  0.34850665302E+03  0.34850665302E+03  0.00000000000E+00 0. -1.
         21   -1    0    0  502  503 -0.00000000000E+00 -0.00000000000E+00 -0.10122288493E+04  0.10122288493E+04  0.00000000000E+00 0. -1.
          6    1    1    2  501    0  0.80549692888E+02  0.13892716669E+03  0.29246854507E+03  0.37584020611E+03  0.17300000000E+03 0. -1.
         -6    1    1    2    0  503 -0.80549692888E+02 -0.13892716669E+03 -0.95619074136E+03  0.98489529622E+03  0.17300000000E+03 0. -1.
<mgrwt>
<rscale>  2 0.23604663E+03</rscale>
<asrwt>0</asrwt>
<pdfrwt beam="1">  1       21 0.53616408E-01 0.23604663E+03</pdfrwt>
<pdfrwt beam="2">  1       21 0.15572752E+00 0.23604663E+03</pdfrwt>
<totfact> 0.85342354E+02</totfact>
</mgrwt>
</event>
<event>
 4    1  0.3980289E+000  0.1791865E+03  0.7546771E-02  0.1168593E+00
         21   -1    0    0  501  502  0.00000000000E+00  0.00000000000E+00  0.37188727256E+03  0.37188727256E+03  0.00000000000E+00 0. -1.
         21   -1    0    0  502  503 -0.00000000000E+00 -0.00000000000E+00 -0.88706095351E+02  0.88706095351E+02  0.00000000000E+00 0. -1.
          6    1    1    2  501    0 -0.41435583059E+02 -0.21492036150E+02  0.17922255741E+03  0.25343350261E+03  0.17300000000E+03 0. -1.
         -6    1    1    2    0  503  0.41435583059E+02  0.21492036150E+02  0.10395861981E+03  0.20715986531E+03  0.17300000000E+03 0. -1.
<mgrwt>
<rscale>  2 0.17918654E+03</rscale>
<asrwt>0</asrwt>
<pdfrwt beam="1">  1       21 0.57213426E-01 0.17918654E+03</pdfrwt>
<pdfrwt beam="2">  1       21 0.13647092E-01 0.17918654E+03</pdfrwt>
<totfact> 0.13420072E+05</totfact>
</mgrwt>
</event>
<event>
 4    1  0.3980289E+000  0.1915964E+03  0.7546771E-02  0.1157029E+00
         21   -1    0    0  503  502  0.00000000000E+00  0.00000000000E+00  0.77124617068E+03  0.77124617068E+03  0.00000000000E+00 0. -1.
         21   -1    0    0  501  503 -0.00000000000E+00 -0.00000000000E+00 -0.87405499157E+02  0.87405499157E+02  0.00000000000E+00 0. -1.
          6    1    1    2  501    0  0.26882649534E+02  0.77830087357E+02  0.52183198382E+02  0.19857564185E+03  0.17300000000E+03 0. -1.
         -6    1    1    2    0  502 -0.26882649534E+02 -0.77830087357E+02  0.63165747314E+03  0.66007602798E+03  0.17300000000E+03 0. -1.
<mgrwt>
<rscale>  2 0.19159645E+03</rscale>
<asrwt>0</asrwt>
<pdfrwt beam="1">  1       21 0.11865325E+00 0.19159645E+03</pdfrwt>
<pdfrwt beam="2">  1       21 0.13447000E-01 0.19159645E+03</pdfrwt>
<totfact> 0.25989945E+04</totfact>
</mgrwt>
</event>
<event>
 4    1  0.3980289E+000  0.2188808E+03  0.7546771E-02  0.1134720E+00
         21   -1    0    0  503  502  0.00000000000E+00  0.00000000000E+00  0.99567398920E+02  0.99567398920E+02  0.00000000000E+00 0. -1.
         21   -1    0    0  501  503 -0.00000000000E+00 -0.00000000000E+00 -0.98203277943E+03  0.98203277943E+03  0.00000000000E+00 0. -1.
          6    1    1    2  501    0  0.13406514862E+03 -0.25157277081E+01 -0.82745145456E+03  0.85591162080E+03  0.17300000000E+03 0. -1.
         -6    1    1    2    0  502 -0.13406514862E+03  0.25157277081E+01 -0.55013925948E+02  0.22568855755E+03  0.17300000000E+03 0. -1.
<mgrwt>
<rscale>  2 0.21888077E+03</rscale>
<asrwt>0</asrwt>
<pdfrwt beam="1">  1       21 0.15318062E-01 0.21888077E+03</pdfrwt>
<pdfrwt beam="2">  1       21 0.15108196E+00 0.21888077E+03</pdfrwt>
<totfact> 0.10865318E+04</totfact>
</mgrwt>
</event>
<event>
 4    1  0.3980289E+000  0.2128971E+03  0.7546771E-02  0.1139292E+00
         21   -1    0    0  501  502  0.00000000000E+00  0.00000000000E+00  0.21263330701E+03  0.21263330701E+03  0.00000000000E+00 0. -1.
         21   -1    0    0  502  503 -0.00000000000E+00 -0.00000000000E+00 -0.21888554628E+03  0.21888554628E+03  0.00000000000E+00 0. -1.
          6    1    1    2  501    0  0.11733216556E+03  0.40365146413E+02  0.31765584480E+02  0.21525388377E+03  0.17300000000E+03 0. -1.
         -6    1    1    2    0  503 -0.11733216556E+03 -0.40365146413E+02 -0.38017823744E+02  0.21626496952E+03  0.17300000000E+03 0. -1.
<mgrwt>
<rscale>  2 0.21289712E+03</rscale>
<asrwt>0</asrwt>
<pdfrwt beam="1">  1       21 0.32712816E-01 0.21289712E+03</pdfrwt>
<pdfrwt beam="2">  1       21 0.33674700E-01 0.21289712E+03</pdfrwt>
<totfact> 0.75738134E+04</totfact>
</mgrwt>
</event>
<event>
 4    1  0.3980289E+000  0.1877524E+03  0.7546771E-02  0.1160504E+00
         21   -1    0    0  503  502  0.00000000000E+00  0.00000000000E+00  0.85702851859E+02  0.85702851859E+02  0.00000000000E+00 0.  1.
         21   -1    0    0  501  503 -0.00000000000E+00 -0.00000000000E+00 -0.64191348885E+03  0.64191348885E+03  0.00000000000E+00 0.  1.
          6    1    1    2  501    0  0.49338084738E+02  0.53737512490E+02 -0.49615795652E+03  0.53049381209E+03  0.17300000000E+03 0.  1.
         -6    1    1    2    0  502 -0.49338084738E+02 -0.53737512490E+02 -0.60052680468E+02  0.19712252861E+03  0.17300000000E+03 0.  1.
<mgrwt>
<rscale>  2 0.18775241E+03</rscale>
<asrwt>0</asrwt>
<pdfrwt beam="1">  1       21 0.13185054E-01 0.18775241E+03</pdfrwt>
<pdfrwt beam="2">  1       21 0.98755920E-01 0.18775241E+03</pdfrwt>
<totfact> 0.42010201E+04</totfact>
</mgrwt>
</event>
<event>
 4    1  0.3980289E+000  0.1807967E+03  0.7546771E-02  0.1167034E+00
         21   -1    0    0  501  502  0.00000000000E+00  0.00000000000E+00  0.35313672057E+03  0.35313672057E+03  0.00000000000E+00 0.  1.
         21   -1    0    0  502  503 -0.00000000000E+00 -0.00000000000E+00 -0.23034207585E+03  0.23034207585E+03  0.00000000000E+00 0. -1.
          6    1    1    2  501    0 -0.51012328039E+02  0.12497684555E+02  0.28702887439E+03  0.33922415077E+03  0.17300000000E+03 0.  1.
         -6    1    1    2    0  503  0.51012328039E+02 -0.12497684555E+02 -0.16423422967E+03  0.24425464566E+03  0.17300000000E+03 0. -1.
<mgrwt>
<rscale>  2 0.18079671E+03</rscale>
<asrwt>0</asrwt>
<pdfrwt beam="1">  1       21 0.54328726E-01 0.18079671E+03</pdfrwt>
<pdfrwt beam="2">  1       21 0.35437243E-01 0.18079671E+03</pdfrwt>
<totfact> 0.24743489E+04</totfact>
</mgrwt>
</event>
<event>
 4    1  0.3980289E+000  0.1785897E+03  0.7546771E-02  0.1169175E+00
         21   -1    0    0  501  502  0.00000000000E+00  0.00000000000E+00  0.37838033523E+02  0.37838033523E+02  0.00000000000E+00 0.  1.
         21   -1    0    0  502  503 -0.00000000000E+00 -0.00000000000E+00 -0.84604411380E+03  0.84604411380E+03  0.00000000000E+00 0.  1.
          6    1    1    2  501    0 -0.92725257417E+01  0.43350980494E+02 -0.43097522239E+03  0.46651251812E+03  0.17300000000E+03 0.  1.
         -6    1    1    2    0  503  0.92725257417E+01 -0.43350980494E+02 -0.37723085789E+03  0.41736962921E+03  0.17300000000E+03 0.  1.
<mgrwt>
<rscale>  2 0.17858972E+03</rscale>
<asrwt>0</asrwt>
<pdfrwt beam="1">  1       21 0.58212363E-02 0.17858972E+03</pdfrwt>
<pdfrwt beam="2">  1       21 0.13016062E+00 0.17858972E+03</pdfrwt>
<totfact> 0.90057903E+04</totfact>
</mgrwt>
</event>
<event>
 4    1  0.3980289E+000  0.2070574E+03  0.7546771E-02  0.1143918E+00
         21   -1    0    0  503  502  0.00000000000E+00  0.00000000000E+00  0.38565239137E+03  0.38565239137E+03  0.00000000000E+00 0. -1.
         21   -1    0    0  501  503 -0.00000000000E+00 -0.00000000000E+00 -0.16940157868E+03  0.16940157868E+03  0.00000000000E+00 0. -1.
          6    1    1    2  501    0  0.33516351127E+02 -0.10872179581E+03 -0.54589643343E+02  0.21413267811E+03  0.17300000000E+03 0. -1.
         -6    1    1    2    0  502 -0.33516351127E+02  0.10872179581E+03  0.27084045603E+03  0.34092129194E+03  0.17300000000E+03 0. -1.
<mgrwt>
<rscale>  2 0.20705742E+03</rscale>
<asrwt>0</asrwt>
<pdfrwt beam="1">  1       21 0.59331137E-01 0.20705742E+03</pdfrwt>
<pdfrwt beam="2">  1       21 0.26061781E-01 0.20705742E+03</pdfrwt>
<totfact> 0.36848429E+04</totfact>
</mgrwt>
</event>
<event>
 4    1  0.3980289E+000  0.1734677E+03  0.7546771E-02  0.1174279E+00
         21   -1    0    0  503  502  0.00000000000E+00  0.00000000000E+00  0.40360329261E+03  0.40360329261E+03  0.00000000000E+00 0. -1.
         21   -1    0    0  501  503 -0.00000000000E+00 -0.00000000000E+00 -0.43460991785E+03  0.43460991785E+03  0.00000000000E+00 0. -1.
          6    1    1    2  501    0  0.88220768466E+01 -0.91763942042E+01 -0.39697163312E+03  0.43321762747E+03  0.17300000000E+03 0. -1.
         -6    1    1    2    0  502 -0.88220768466E+01  0.91763942042E+01  0.36596500788E+03  0.40499558299E+03  0.17300000000E+03 0. -1.
<mgrwt>
<rscale>  2 0.17346768E+03</rscale>
<asrwt>0</asrwt>
<pdfrwt beam="1">  1       21 0.62092814E-01 0.17346768E+03</pdfrwt>
<pdfrwt beam="2">  1       21 0.66863064E-01 0.17346768E+03</pdfrwt>
<totfact> 0.50086736E+03</totfact>
</mgrwt>
</event>
<event>
 4    1  0.3980289E+000  0.1770798E+03  0.7546771E-02  0.1170660E+00
         21   -1    0    0  503  502  0.00000000000E+00  0.00000000000E+00  0.45429250701E+03  0.45429250701E+03  0.00000000000E+00 0. -1.
         21   -1    0    0  501  503 -0.00000000000E+00 -0.00000000000E+00 -0.23846459765E+03  0.23846459765E+03  0.00000000000E+00 0. -1.
          6    1    1    2  501    0  0.37349431601E+02 -0.57674592818E+01 -0.18406216256E+03  0.25541363181E+03  0.17300000000E+03 0. -1.
         -6    1    1    2    0  502 -0.37349431601E+02  0.57674592818E+01  0.39989007192E+03  0.43734347285E+03  0.17300000000E+03 0. -1.
<mgrwt>
<rscale>  2 0.17707977E+03</rscale>
<asrwt>0</asrwt>
<pdfrwt beam="1">  1       21 0.69891155E-01 0.17707977E+03</pdfrwt>
<pdfrwt beam="2">  1       21 0.36686861E-01 0.17707977E+03</pdfrwt>
<totfact> 0.13460105E+04</totfact>
</mgrwt>
</event>
<event>
 4    1  0.3980289E+000  0.1828058E+03  0.7546771E-02  0.1165115E+00
         21   -1    0    0  501  502  0.00000000000E+00  0.00000000000E+00  0.58381987596E+03  0.58381987596E+03  0.00000000000E+00 0.  1.
         21   -1    0    0  502  503 -0.00000000000E+00 -0.00000000000E+00 -0.57271623727E+02  0.57271623727E+02  0.00000000000E+00 0. -1.
          6    1    1    2  501    0  0.57290311094E+02 -0.14379514595E+02  0.27078588627E+03  0.32671539050E+03  0.17300000000E+03 0. -1.
         -6    1    1    2    0  503 -0.57290311094E+02  0.14379514595E+02  0.25576236597E+03  0.31437610919E+03  0.17300000000E+03 0. -1.
<mgrwt>
<rscale>  2 0.18280577E+03</rscale>
<asrwt>0</asrwt>
<pdfrwt beam="1">  1       21 0.89818439E-01 0.18280577E+03</pdfrwt>
<pdfrwt beam="2">  1       21 0.88110194E-02 0.18280577E+03</pdfrwt>
<totfact> 0.10742498E+05</totfact>
</mgrwt>
</event>
<event>
 4    1  0.3980289E+000  0.2647231E+03  0.7546771E-02  0.1104338E+00
         21   -1    0    0  501  502  0.00000000000E+00  0.00000000000E+00  0.84298023422E+02  0.84298023422E+02  0.00000000000E+00 0. -1.
         21   -1    0    0  502  503 -0.00000000000E+00 -0.00000000000E+00 -0.91911133650E+03  0.91911133650E+03  0.00000000000E+00 0.  1.
          6    1    1    2  501    0  0.18353685727E+03  0.80396284519E+02 -0.26234711442E+03  0.37269873757E+03  0.17300000000E+03 0. -1.
         -6    1    1    2    0  503 -0.18353685727E+03 -0.80396284519E+02 -0.57246619866E+03  0.63071062236E+03  0.17300000000E+03 0.  1.
<mgrwt>
<rscale>  2 0.26472314E+03</rscale>
<asrwt>0</asrwt>
<pdfrwt beam="1">  1       21 0.12968926E-01 0.26472314E+03</pdfrwt>
<pdfrwt beam="2">  1       21 0.14140175E+00 0.26472314E+03</pdfrwt>
<totfact> 0.17050750E+04</totfact>
</mgrwt>
</event>
<event>
 4    1  0.3980289E+000  0.1779826E+03  0.7546771E-02  0.1169770E+00
         21   -1    0    0  501  502  0.00000000000E+00  0.00000000000E+00  0.14447198096E+03  0.14447198096E+03  0.00000000000E+00 0.  1.
         21   -1    0    0  502  503 -0.00000000000E+00 -0.00000000000E+00 -0.26138197147E+03  0.26138197147E+03  0.00000000000E+00 0.  1.
          6    1    1    2  501    0 -0.23470121931E+01  0.41752833674E+02  0.23001341232E+02  0.17946272394E+03  0.17300000000E+03 0.  1.
         -6    1    1    2    0  503  0.23470121931E+01 -0.41752833674E+02 -0.13991133174E+03  0.22639122849E+03  0.17300000000E+03 0.  1.
<mgrwt>
<rscale>  2 0.17798260E+03</rscale>
<asrwt>0</asrwt>
<pdfrwt beam="1">  1       21 0.22226459E-01 0.17798260E+03</pdfrwt>
<pdfrwt beam="2">  1       21 0.40212610E-01 0.17798260E+03</pdfrwt>
<totfact> 0.11343182E+05</totfact>
</mgrwt>
</event>
<event>
 4    1  0.3980289E+000  0.2705055E+03  0.7546771E-02  0.1100991E+00
         21   -1    0    0  501  502  0.00000000000E+00  0.00000000000E+00  0.86514214037E+03  0.86514214037E+03  0.00000000000E+00 0.  1.
         21   -1    0    0  502  503 -0.00000000000E+00 -0.00000000000E+00 -0.33795400654E+03  0.33795400654E+03  0.00000000000E+00 0.  1.
          6    1    1    2  501    0  0.14476935784E+03 -0.14928509477E+03  0.78445655459E+03  0.82978629329E+03  0.17300000000E+03 0.  1.
         -6    1    1    2    0  503 -0.14476935784E+03  0.14928509477E+03 -0.25726842077E+03  0.37330985362E+03  0.17300000000E+03 0.  1.
<mgrwt>
<rscale>  2 0.27050546E+03</rscale>
<asrwt>0</asrwt>
<pdfrwt beam="1">  1       21 0.13309879E+00 0.27050546E+03</pdfrwt>
<pdfrwt beam="2">  1       21 0.51992925E-01 0.27050546E+03</pdfrwt>
<totfact> 0.13389229E+03</totfact>
</mgrwt>
</event>
<event>
 4    1  0.3980289E+000  0.2156169E+03  0.7546771E-02  0.1137194E+00
         21   -1    0    0  501  502  0.00000000000E+00  0.00000000000E+00  0.41923165366E+03  0.41923165366E+03  0.00000000000E+00 0.  1.
         21   -1    0    0  502  503 -0.00000000000E+00 -0.00000000000E+00 -0.15894436577E+03  0.15894436577E+03  0.00000000000E+00 0.  1.
          6    1    1    2  501    0 -0.69258809324E+01  0.12850563210E+03  0.28909039378E+03  0.36064375925E+03  0.17300000000E+03 0.  1.
         -6    1    1    2    0  503  0.69258809324E+01 -0.12850563210E+03 -0.28803105886E+02  0.21753226018E+03  0.17300000000E+03 0.  1.
<mgrwt>
<rscale>  2 0.21561694E+03</rscale>
<asrwt>0</asrwt>
<pdfrwt beam="1">  1       21 0.64497177E-01 0.21561694E+03</pdfrwt>
<pdfrwt beam="2">  1       21 0.24452980E-01 0.21561694E+03</pdfrwt>
<totfact> 0.34601132E+04</totfact>
</mgrwt>
</event>
<event>
 4    1  0.3980289E+000  0.1868465E+03  0.7546771E-02  0.1161337E+00
         21   -1    0    0  501  502  0.00000000000E+00  0.00000000000E+00  0.90919531774E+03  0.90919531774E+03  0.00000000000E+00 0. -1.
         21   -1    0    0  502  503 -0.00000000000E+00 -0.00000000000E+00 -0.65462004272E+02  0.65462004272E+02  0.00000000000E+00 0. -1.
          6    1    1    2  501    0 -0.34764331788E+02  0.61433381322E+02  0.73520991501E+03  0.75858106900E+03  0.17300000000E+03 0. -1.
         -6    1    1    2    0  503  0.34764331788E+02 -0.61433381322E+02  0.10852339845E+03  0.21607625302E+03  0.17300000000E+03 0. -1.
<mgrwt>
<rscale>  2 0.18684651E+03</rscale>
<asrwt>0</asrwt>
<pdfrwt beam="1">  1       21 0.13987619E+00 0.18684651E+03</pdfrwt>
<pdfrwt beam="2">  1       21 0.10071078E-01 0.18684651E+03</pdfrwt>
<totfact> 0.28842629E+04</totfact>
</mgrwt>
</event>
<event>
 4    1  0.3980289E+000  0.2208013E+03  0.7546771E-02  0.1133287E+00
         21   -1    0    0  503  502  0.00000000000E+00  0.00000000000E+00  0.25689658065E+02  0.25689658065E+02  0.00000000000E+00 0.  1.
         21   -1    0    0  501  503 -0.00000000000E+00 -0.00000000000E+00 -0.25506005479E+04  0.25506005479E+04  0.00000000000E+00 0.  1.
          6    1    1    2  501    0  0.82173946603E+02 -0.10987111547E+03 -0.19141465031E+04  0.19268393952E+04  0.17300000000E+03 0.  1.
         -6    1    1    2    0  502 -0.82173946603E+02  0.10987111547E+03 -0.61076438671E+03  0.64945081075E+03  0.17300000000E+03 0.  1.
<mgrwt>
<rscale>  2 0.22080131E+03</rscale>
<asrwt>0</asrwt>
<pdfrwt beam="1">  1       21 0.39522554E-02 0.22080131E+03</pdfrwt>
<pdfrwt beam="2">  1       21 0.39240005E+00 0.22080131E+03</pdfrwt>
<totfact> 0.37429078E+03</totfact>
</mgrwt>
</event>
<event>
 4    1  0.3980289E+000  0.1762321E+03  0.7546771E-02  0.1171500E+00
         21   -1    0    0  503  502  0.00000000000E+00  0.00000000000E+00  0.58277724662E+03  0.58277724662E+03  0.00000000000E+00 0. -1.
         21   -1    0    0  501  503 -0.00000000000E+00 -0.00000000000E+00 -0.71055902152E+02  0.71055902152E+02  0.00000000000E+00 0. -1.
          6    1    1    2  501    0 -0.31808441639E+02 -0.10816337844E+02  0.92405920825E+02  0.19898900554E+03  0.17300000000E+03 0.  1.
         -6    1    1    2    0  502  0.31808441639E+02  0.10816337844E+02  0.41931542364E+03  0.45484414322E+03  0.17300000000E+03 0.  1.
<mgrwt>
<rscale>  2 0.17623215E+03</rscale>
<asrwt>0</asrwt>
<pdfrwt beam="1">  1       21 0.89658035E-01 0.17623215E+03</pdfrwt>
<pdfrwt beam="2">  1       21 0.10931678E-01 0.17623215E+03</pdfrwt>
<totfact> 0.73982713E+04</totfact>
</mgrwt>
</event>
<event>
 4    1  0.3980289E+000  0.2331780E+03  0.7546771E-02  0.1124423E+00
         21   -1    0    0  503  502  0.00000000000E+00  0.00000000000E+00  0.80460996539E+03  0.80460996539E+03  0.00000000000E+00 0.  1.
         21   -1    0    0  501  503 -0.00000000000E+00 -0.00000000000E+00 -0.67742721775E+02  0.67742721775E+02  0.00000000000E+00 0. -1.
          6    1    1    2  501    0  0.11562458389E+03 -0.10523275478E+03  0.39009999491E+03  0.45447770364E+03  0.17300000000E+03 0. -1.
         -6    1    1    2    0  502 -0.11562458389E+03  0.10523275478E+03  0.34676724871E+03  0.41787498352E+03  0.17300000000E+03 0.  1.
<mgrwt>
<rscale>  2 0.23317799E+03</rscale>
<asrwt>0</asrwt>
<pdfrwt beam="1">  1       21 0.12378614E+00 0.23317799E+03</pdfrwt>
<pdfrwt beam="2">  1       21 0.10421958E-01 0.23317799E+03</pdfrwt>
<totfact> 0.36066714E+04</totfact>
</mgrwt>
</event>
<event>
 4    1  0.3980289E+000  0.2828340E+03  0.7546771E-02  0.1094151E+00
         21   -1    0    0  503  502  0.00000000000E+00  0.00000000000E+00  0.10330517871E+03  0.10330517871E+03  0.00000000000E+00 0.  1.
         21   -1    0    0  501  503 -0.00000000000E+00 -0.00000000000E+00 -0.10760598417E+04  0.10760598417E+04  0.00000000000E+00 0. -1.
          6    1    1    2  501    0  0.21306705169E+03  0.68326260781E+02 -0.79861840173E+03  0.84722275584E+03  0.17300000000E+03 0. -1.
         -6    1    1    2    0  502 -0.21306705169E+03 -0.68326260781E+02 -0.17413626126E+03  0.33214226457E+03  0.17300000000E+03 0.  1.
<mgrwt>
<rscale>  2 0.28283396E+03</rscale>
<asrwt>0</asrwt>
<pdfrwt beam="1">  1       21 0.15893104E-01 0.28283396E+03</pdfrwt>
<pdfrwt beam="2">  1       21 0.16554768E+00 0.28283396E+03</pdfrwt>
<totfact> 0.76150728E+03</totfact>
</mgrwt>
</event>
<event>
 4    1  0.3980289E+000  0.2590927E+03  0.7546771E-02  0.1107690E+00
         21   -1    0    0  503  502  0.00000000000E+00  0.00000000000E+00  0.29724360770E+03  0.29724360770E+03  0.00000000000E+00 0.  1.
         21   -1    0    0  501  503 -0.00000000000E+00 -0.00000000000E+00 -0.62462291889E+03  0.62462291889E+03  0.00000000000E+00 0.  1.
          6    1    1    2  501    0 -0.19154188300E+03 -0.22621032112E+02 -0.53198672934E+03  0.59172534527E+03  0.17300000000E+03 0.  1.
         -6    1    1    2    0  502  0.19154188300E+03  0.22621032112E+02  0.20460741816E+03  0.33014118132E+03  0.17300000000E+03 0.  1.
<mgrwt>
<rscale>  2 0.25909266E+03</rscale>
<asrwt>0</asrwt>
<pdfrwt beam="1">  1       21 0.45729786E-01 0.25909266E+03</pdfrwt>
<pdfrwt beam="2">  1       21 0.96095832E-01 0.25909266E+03</pdfrwt>
<totfact> 0.39402945E+03</totfact>
</mgrwt>
</event>
<event>
 4    1  0.3980289E+000  0.2897376E+03  0.7546771E-02  0.1090486E+00
         21   -1    0    0  501  502  0.00000000000E+00  0.00000000000E+00  0.19762910598E+04  0.19762910598E+04  0.00000000000E+00 0.  1.
         21   -1    0    0  502  503 -0.00000000000E+00 -0.00000000000E+00 -0.62351962441E+02  0.62351962441E+02  0.00000000000E+00 0. -1.
          6    1    1    2  501    0  0.12600860241E+02 -0.23207774295E+03  0.15324546164E+04  0.15596041202E+04  0.17300000000E+03 0.  1.
         -6    1    1    2    0  503 -0.12600860241E+02  0.23207774295E+03  0.38148448100E+03  0.47903890207E+03  0.17300000000E+03 0. -1.
<mgrwt>
<rscale>  2 0.28973757E+03</rscale>
<asrwt>0</asrwt>
<pdfrwt beam="1">  1       21 0.30404473E+00 0.28973757E+03</pdfrwt>
<pdfrwt beam="2">  1       21 0.95926111E-02 0.28973757E+03</pdfrwt>
<totfact> 0.25615221E+03</totfact>
</mgrwt>
</event>
<event>
 4    1  0.3980289E+000  0.2416499E+03  0.7546771E-02  0.1118699E+00
         21   -1    0    0  501  502  0.00000000000E+00  0.00000000000E+00  0.54482761718E+03  0.54482761718E+03  0.00000000000E+00 0. -1.
         21   -1    0    0  502  503 -0.00000000000E+00 -0.00000000000E+00 -0.26131300188E+03  0.26131300188E+03  0.00000000000E+00 0. -1.
          6    1    1    2  501    0  0.14710440813E+03  0.82619556828E+02  0.45131950894E+03  0.51194140018E+03  0.17300000000E+03 0. -1.
         -6    1    1    2    0  503 -0.14710440813E+03 -0.82619556828E+02 -0.16780489364E+03  0.29419921888E+03  0.17300000000E+03 0. -1.
<mgrwt>
<rscale>  2 0.24164995E+03</rscale>
<asrwt>0</asrwt>
<pdfrwt beam="1">  1       21 0.83819633E-01 0.24164995E+03</pdfrwt>
<pdfrwt beam="2">  1       21 0.40202000E-01 0.24164995E+03</pdfrwt>
<totfact> 0.71351217E+03</totfact>
</mgrwt>
</event>
<event>
 4    1  0.3980289E+000  0.2032702E+03  0.7546771E-02  0.1147009E+00
         21   -1    0    0  501  502  0.00000000000E+00  0.00000000000E+00  0.15578888681E+04  0.15578888681E+04  0.00000000000E+00 0.  1.
         21   -1    0    0  502  503 -0.00000000000E+00 -0.00000000000E+00 -0.30072678653E+02  0.30072678653E+02  0.00000000000E+00 0.  1.
          6    1    1    2  501    0 -0.10650059744E+03  0.68844673364E+01  0.10367192724E+04  0.10564590020E+04  0.17300000000E+03 0.  1.
         -6    1    1    2    0  503  0.10650059744E+03 -0.68844673364E+01  0.49109691708E+03  0.53150254479E+03  0.17300000000E+03 0.  1.
<mgrwt>
<rscale>  2 0.20327020E+03</rscale>
<asrwt>0</asrwt>
<pdfrwt beam="1">  1       21 0.23967515E+00 0.20327020E+03</pdfrwt>
<pdfrwt beam="2">  1       21 0.46265672E-02 0.20327020E+03</pdfrwt>
<totfact> 0.23270356E+04</totfact>
</mgrwt>
</event>
<event>
 4    1  0.3980289E+000  0.2725203E+03  0.7546771E-02  0.1099846E+00
         21   -1    0    0  503  502  0.00000000000E+00  0.00000000000E+00  0.17661712113E+04  0.17661712113E+04  0.00000000000E+00 0.  1.
         21   -1    0    0  501  503 -0.00000000000E+00 -0.00000000000E+00 -0.19052782224E+03  0.19052782224E+03  0.00000000000E+00 0. -1.
          6    1    1    2  501    0  0.19909555359E+03  0.68551331343E+02 -0.75844204963E+02  0.28287747863E+03  0.17300000000E+03 0. -1.
         -6    1    1    2    0  502 -0.19909555359E+03 -0.68551331343E+02  0.16514875941E+04  0.16738215550E+04  0.17300000000E+03 0.  1.
<mgrwt>
<rscale>  2 0.27252032E+03</rscale>
<asrwt>0</asrwt>
<pdfrwt beam="1">  1       21 0.27171864E+00 0.27252032E+03</pdfrwt>
<pdfrwt beam="2">  1       21 0.29311974E-01 0.27252032E+03</pdfrwt>
<totfact> 0.50533387E+02</totfact>
</mgrwt>
</event>
<event>
 4    1  0.3980289E+000  0.2122167E+03  0.7546771E-02  0.1139823E+00
         21   -1    0    0  501  502  0.00000000000E+00  0.00000000000E+00  0.45894576105E+02  0.45894576105E+02  0.00000000000E+00 0. -1.
         21   -1    0    0  502  503 -0.00000000000E+00 -0.00000000000E+00 -0.10002238402E+04  0.10002238402E+04  0.00000000000E+00 0.  1.
          6    1    1    2  501    0  0.75403402526E+02  0.97063099680E+02 -0.40520082229E+03  0.45740969034E+03  0.17300000000E+03 0.  1.
         -6    1    1    2    0  503 -0.75403402526E+02 -0.97063099680E+02 -0.54912844184E+03  0.58870872600E+03  0.17300000000E+03 0.  1.
<mgrwt>
<rscale>  2 0.21221668E+03</rscale>
<asrwt>0</asrwt>
<pdfrwt beam="1">  1       21 0.70607037E-02 0.21221668E+03</pdfrwt>
<pdfrwt beam="2">  1       21 0.15388060E+00 0.21221668E+03</pdfrwt>
<totfact> 0.41162317E+04</totfact>
</mgrwt>
</event>
<event>
 4    1  0.3980289E+000  0.1748314E+03  0.7546771E-02  0.1172901E+00
         21   -1    0    0  503  502  0.00000000000E+00  0.00000000000E+00  0.16816876763E+03  0.16816876763E+03  0.00000000000E+00 0.  1.
         21   -1    0    0  501  503 -0.00000000000E+00 -0.00000000000E+00 -0.39744956199E+03  0.39744956199E+03  0.00000000000E+00 0.  1.
          6    1    1    2  501    0  0.21675257240E+02  0.12930141687E+02 -0.32297870224E+03  0.36726182410E+03  0.17300000000E+03 0.  1.
         -6    1    1    2    0  502 -0.21675257240E+02 -0.12930141687E+02  0.93697907879E+02  0.19835650552E+03  0.17300000000E+03 0.  1.
<mgrwt>
<rscale>  2 0.17483136E+03</rscale>
<asrwt>0</asrwt>
<pdfrwt beam="1">  1       21 0.25872119E-01 0.17483136E+03</pdfrwt>
<pdfrwt beam="2">  1       21 0.61146085E-01 0.17483136E+03</pdfrwt>
<totfact> 0.35623562E+04</totfact>
</mgrwt>
</event>
<event>
 4    1  0.3980289E+000  0.2692490E+03  0.7546771E-02  0.1101710E+00
         21   -1    0    0  503  502  0.00000000000E+00  0.00000000000E+00  0.22213690276E+03  0.22213690276E+03  0.00000000000E+00 0. -1.
         21   -1    0    0  501  503 -0.00000000000E+00 -0.00000000000E+00 -0.39538818794E+03  0.39538818794E+03  0.00000000000E+00 0. -1.
          6    1    1    2  501    0  0.14885417891E+03  0.14285811215E+03 -0.21564312371E+03  0.34495936513E+03  0.17300000000E+03 0. -1.
         -6    1    1    2    0  502 -0.14885417891E+03 -0.14285811215E+03  0.42391838519E+02  0.27256572558E+03  0.17300000000E+03 0. -1.
<mgrwt>
<rscale>  2 0.26924897E+03</rscale>
<asrwt>0</asrwt>
<pdfrwt beam="1">  1       21 0.34174909E-01 0.26924897E+03</pdfrwt>
<pdfrwt beam="2">  1       21 0.60828951E-01 0.26924897E+03</pdfrwt>
<totfact> 0.19938613E+04</totfact>
</mgrwt>
</event>
<event>
 4    1  0.3980289E+000  0.1744270E+03  0.7546771E-02  0.1173308E+00
         21   -1    0    0  503  502  0.00000000000E+00  0.00000000000E+00  0.10312781178E+03  0.10312781178E+03  0.00000000000E+00 0. -1.
         21   -1    0    0  501  503 -0.00000000000E+00 -0.00000000000E+00 -0.30353848270E+03  0.30353848270E+03  0.00000000000E+00 0. -1.
          6    1    1    2  501    0  0.36352101657E+01  0.21967100205E+02 -0.13426827520E+03  0.22011982639E+03  0.17300000000E+03 0.  1.
         -6    1    1    2    0  502 -0.36352101657E+01 -0.21967100205E+02 -0.66142395724E+02  0.18654646809E+03  0.17300000000E+03 0.  1.
<mgrwt>
<rscale>  2 0.17442697E+03</rscale>
<asrwt>0</asrwt>
<pdfrwt beam="1">  1       21 0.15865817E-01 0.17442697E+03</pdfrwt>
<pdfrwt beam="2">  1       21 0.46698228E-01 0.17442697E+03</pdfrwt>
<totfact> 0.15638755E+05</totfact>
</mgrwt>
</event>
<event>
 4    1  0.3980289E+000  0.1761374E+03  0.7546771E-02  0.1171595E+00
         21   -1    0    0  501  502  0.00000000000E+00  0.00000000000E+00  0.59731303570E+02  0.59731303570E+02  0.00000000000E+00 0.  1.
         21   -1    0    0  502  503 -0.00000000000E+00 -0.00000000000E+00 -0.68431138060E+03  0.68431138060E+03  0.00000000000E+00 0.  1.
          6    1    1    2  501    0  0.12206542165E+02  0.30763295857E+02 -0.12966194357E+03  0.21871579653E+03  0.17300000000E+03 0.  1.
         -6    1    1    2    0  503 -0.12206542165E+02 -0.30763295857E+02 -0.49491813346E+03  0.52532688764E+03  0.17300000000E+03 0.  1.
<mgrwt>
<rscale>  2 0.17613739E+03</rscale>
<asrwt>0</asrwt>
<pdfrwt beam="1">  1       21 0.91894316E-02 0.17613739E+03</pdfrwt>
<pdfrwt beam="2">  1       21 0.10527867E+00 0.17613739E+03</pdfrwt>
<totfact> 0.68898314E+04</totfact>
</mgrwt>
</event>
<event>
 4    1  0.3980289E+000  0.2093438E+03  0.7546771E-02  0.1142087E+00
         21   -1    0    0  503  502  0.00000000000E+00  0.00000000000E+00  0.28612807144E+03  0.28612807144E+03  0.00000000000E+00 0. -1.
         21   -1    0    0  501  503 -0.00000000000E+00 -0.00000000000E+00 -0.29191687683E+03  0.29191687683E+03  0.00000000000E+00 0. -1.
          6    1    1    2  501    0 -0.94826121706E+02  0.70027278367E+02 -0.20215499057E+03  0.29101796041E+03  0.17300000000E+03 0. -1.
         -6    1    1    2    0  502  0.94826121706E+02 -0.70027278367E+02  0.19636618518E+03  0.28702698785E+03  0.17300000000E+03 0. -1.
<mgrwt>
<rscale>  2 0.20934377E+03</rscale>
<asrwt>0</asrwt>
<pdfrwt beam="1">  1       21 0.44019703E-01 0.20934377E+03</pdfrwt>
<pdfrwt beam="2">  1       21 0.44910289E-01 0.20934377E+03</pdfrwt>
<totfact> 0.23362979E+04</totfact>
</mgrwt>
</event>
<event>
 4    1  0.3980289E+000  0.1790467E+03  0.7546771E-02  0.1168729E+00
         21   -1    0    0  503  502  0.00000000000E+00  0.00000000000E+00  0.19307109027E+03  0.19307109027E+03  0.00000000000E+00 0.  1.
         21   -1    0    0  501  503 -0.00000000000E+00 -0.00000000000E+00 -0.67109684038E+03  0.67109684038E+03  0.00000000000E+00 0.  1.
          6    1    1    2  501    0 -0.44843488052E+02  0.10853411074E+02 -0.61385225555E+03  0.63943125244E+03  0.17300000000E+03 0.  1.
         -6    1    1    2    0  502  0.44843488052E+02 -0.10853411074E+02  0.13582650545E+03  0.22473667821E+03  0.17300000000E+03 0.  1.
<mgrwt>
<rscale>  2 0.17904674E+03</rscale>
<asrwt>0</asrwt>
<pdfrwt beam="1">  1       21 0.29703244E-01 0.17904674E+03</pdfrwt>
<pdfrwt beam="2">  1       21 0.10324567E+00 0.17904674E+03</pdfrwt>
<totfact> 0.83486557E+03</totfact>
</mgrwt>
</event>
<event>
 4    1  0.3980289E+000  0.2006530E+03  0.7546771E-02  0.1149189E+00
         21   -1    0    0  501  502  0.00000000000E+00  0.00000000000E+00  0.16088036789E+03  0.16088036789E+03  0.00000000000E+00 0.  1.
         21   -1    0    0  502  503 -0.00000000000E+00 -0.00000000000E+00 -0.31994279253E+03  0.31994279253E+03  0.00000000000E+00 0.  1.
          6    1    1    2  501    0  0.91884055531E+02  0.43473572362E+02  0.32667430187E+02  0.20329484044E+03  0.17300000000E+03 0.  1.
         -6    1    1    2    0  503 -0.91884055531E+02 -0.43473572362E+02 -0.19172985483E+03  0.27752831998E+03  0.17300000000E+03 0.  1.
<mgrwt>
<rscale>  2 0.20065301E+03</rscale>
<asrwt>0</asrwt>
<pdfrwt beam="1">  1       21 0.24750826E-01 0.20065301E+03</pdfrwt>
<pdfrwt beam="2">  1       21 0.49221968E-01 0.20065301E+03</pdfrwt>
<totfact> 0.60556525E+04</totfact>
</mgrwt>
</event>
<event>
 4    1  0.3980289E+000  0.2357228E+03  0.7546771E-02  0.1122675E+00
         21   -1    0    0  503  502  0.00000000000E+00  0.00000000000E+00  0.16218954761E+04  0.16218954761E+04  0.00000000000E+00 0. -1.
         21   -1    0    0  501  503 -0.00000000000E+00 -0.00000000000E+00 -0.38118212226E+02  0.38118212226E+02  0.00000000000E+00 0. -1.
          6    1    1    2  501    0  0.47858199529E+02 -0.15279344390E+03  0.52780618690E+03  0.57805243248E+03  0.17300000000E+03 0. -1.
         -6    1    1    2    0  502 -0.47858199529E+02  0.15279344390E+03  0.10559710770E+04  0.10819612559E+04  0.17300000000E+03 0. -1.
<mgrwt>
<rscale>  2 0.23572281E+03</rscale>
<asrwt>0</asrwt>
<pdfrwt beam="1">  1       21 0.24952233E+00 0.23572281E+03</pdfrwt>
<pdfrwt beam="2">  1       21 0.58643416E-02 0.23572281E+03</pdfrwt>
<totfact> 0.13227954E+04</totfact>
</mgrwt>
</event>
<event>
 4    1  0.3980289E+000  0.2029134E+03  0.7546771E-02  0.1147304E+00
         21   -1    0    0  503  502  0.00000000000E+00  0.00000000000E+00  0.91056729643E+02  0.91056729643E+02  0.00000000000E+00 0.  1.
         21   -1    0    0  501  503 -0.00000000000E+00 -0.00000000000E+00 -0.45416711957E+03  0.45416711957E+03  0.00000000000E+00 0.  1.
          6    1    1    2  501    0 -0.27914169000E+02 -0.10230180530E+03 -0.19959596612E+03  0.28462679053E+03  0.17300000000E+03 0.  1.
         -6    1    1    2    0  502  0.27914169000E+02  0.10230180530E+03 -0.16351442381E+03  0.26059705868E+03  0.17300000000E+03 0.  1.
<mgrwt>
<rscale>  2 0.20291343E+03</rscale>
<asrwt>0</asrwt>
<pdfrwt beam="1">  1       21 0.14008727E-01 0.20291343E+03</pdfrwt>
<pdfrwt beam="2">  1       21 0.69871866E-01 0.20291343E+03</pdfrwt>
<totfact> 0.82259240E+04</totfact>
</mgrwt>
</event>
<event>
 4    1  0.3980289E+000  0.1771078E+03  0.7546771E-02  0.1170632E+00
         21   -1    0    0  501  502  0.00000000000E+00  0.00000000000E+00  0.16527673381E+04  0.16527673381E+04  0.00000000000E+00 0.  1.
         21   -1    0    0  502  503 -0.00000000000E+00 -0.00000000000E+00 -0.19889519694E+02  0.19889519694E+02  0.00000000000E+00 0.  1.
          6    1    1    2  501    0 -0.20280236569E+02  0.32045108793E+02  0.99542098800E+03  0.10110539651E+04  0.17300000000E+03 0.  1.
         -6    1    1    2    0  503  0.20280236569E+02 -0.32045108793E+02  0.63745683044E+03  0.66160289273E+03  0.17300000000E+03 0.  1.
<mgrwt>
<rscale>  2 0.17710781E+03</rscale>
<asrwt>0</asrwt>
<pdfrwt beam="1">  1       21 0.25427179E+00 0.17710781E+03</pdfrwt>
<pdfrwt beam="2">  1       21 0.30599274E-02 0.17710781E+03</pdfrwt>
<totfact> 0.38933230E+04</totfact>
</mgrwt>
</event>
<event>
 4    1  0.3980289E+000  0.1776002E+03  0.7546771E-02  0.1170146E+00
         21   -1    0    0  501  502  0.00000000000E+00  0.00000000000E+00  0.19818839893E+03  0.19818839893E+03  0.00000000000E+00 0.  1.
         21   -1    0    0  502  503 -0.00000000000E+00 -0.00000000000E+00 -0.27842056469E+03  0.27842056469E+03  0.00000000000E+00 0.  1.
          6    1    1    2  501    0  0.19836398020E+02 -0.34919034363E+02  0.11585601932E+03  0.21204819938E+03  0.17300000000E+03 0.  1.
         -6    1    1    2    0  503 -0.19836398020E+02  0.34919034363E+02 -0.19608818508E+03  0.26456076424E+03  0.17300000000E+03 0.  1.
<mgrwt>
<rscale>  2 0.17760017E+03</rscale>
<asrwt>0</asrwt>
<pdfrwt beam="1">  1       21 0.30490523E-01 0.17760017E+03</pdfrwt>
<pdfrwt beam="2">  1       21 0.42833933E-01 0.17760017E+03</pdfrwt>
<totfact> 0.54497130E+04</totfact>
</mgrwt>
</event>
<event>
 4    1  0.3980289E+000  0.2208566E+03  0.7546771E-02  0.1133246E+00
         21   -1    0    0  501  502  0.00000000000E+00  0.00000000000E+00  0.50791360911E+03  0.50791360911E+03  0.00000000000E+00 0.  1.
         21   -1    0    0  502  503 -0.00000000000E+00 -0.00000000000E+00 -0.10146837529E+03  0.10146837529E+03  0.00000000000E+00 0.  1.
          6    1    1    2  501    0  0.11621318357E+03  0.73096773845E+02  0.27372707968E+03  0.35171601688E+03  0.17300000000E+03 0.  1.
         -6    1    1    2    0  503 -0.11621318357E+03 -0.73096773845E+02  0.13271815414E+03  0.25766596752E+03  0.17300000000E+03 0.  1.
<mgrwt>
<rscale>  2 0.22085661E+03</rscale>
<asrwt>0</asrwt>
<pdfrwt beam="1">  1       21 0.78140553E-01 0.22085661E+03</pdfrwt>
<pdfrwt beam="2">  1       21 0.15610520E-01 0.22085661E+03</pdfrwt>
<totfact> 0.52189550E+04</totfact>
</mgrwt>
</event>
<event>
 4    1  0.3980289E+000  0.2240423E+03  0.7546771E-02  0.1130905E+00
         21   -1    0    0  503  502  0.00000000000E+00  0.00000000000E+00  0.84628472097E+02  0.84628472097E+02  0.00000000000E+00 0. -1.
         21   -1    0    0  501  503 -0.00000000000E+00 -0.00000000000E+00 -0.71095322352E+03  0.71095322352E+03  0.00000000000E+00 0.  1.
          6    1    1    2  501    0  0.57394223610E+02  0.13027604870E+03 -0.47510673867E+03  0.52528217074E+03  0.17300000000E+03 0. -1.
         -6    1    1    2    0  502 -0.57394223610E+02 -0.13027604870E+03 -0.15121801276E+03  0.27029952488E+03  0.17300000000E+03 0. -1.
<mgrwt>
<rscale>  2 0.22404229E+03</rscale>
<asrwt>0</asrwt>
<pdfrwt beam="1">  1       21 0.13019764E-01 0.22404229E+03</pdfrwt>
<pdfrwt beam="2">  1       21 0.10937742E+00 0.22404229E+03</pdfrwt>
<totfact> 0.32992037E+04</totfact>
</mgrwt>
</event>
<event>
 4    1  0.3980289E+000  0.2085786E+03  0.7546771E-02  0.1142697E+00
         21   -1    0    0  501  502  0.00000000000E+00  0.00000000000E+00  0.71888892650E+03  0.71888892650E+03  0.00000000000E+00 0.  1.
         21   -1    0    0  502  503 -0.00000000000E+00 -0.00000000000E+00 -0.13432420104E+03  0.13432420104E+03  0.00000000000E+00 0. -1.
          6    1    1    2  501    0  0.10809751311E+03 -0.43485380380E+02  0.60850981253E+03  0.64326451992E+03  0.17300000000E+03 0.  1.
         -6    1    1    2    0  503 -0.10809751311E+03  0.43485380380E+02 -0.23945087073E+02  0.20994860762E+03  0.17300000000E+03 0. -1.
<mgrwt>
<rscale>  2 0.20857864E+03</rscale>
<asrwt>0</asrwt>
<pdfrwt beam="1">  1       21 0.11059829E+00 0.20857864E+03</pdfrwt>
<pdfrwt beam="2">  1       21 0.20665262E-01 0.20857864E+03</pdfrwt>
<totfact> 0.13847422E+04</totfact>
</mgrwt>
</event>
<event>
 4    1  0.3980289E+000  0.1911344E+03  0.7546771E-02  0.1157442E+00
         21   -1    0    0  503  502  0.00000000000E+00  0.00000000000E+00  0.17604404469E+03  0.17604404469E+03  0.00000000000E+00 0.  1.
         21   -1    0    0  501  503 -0.00000000000E+00 -0.00000000000E+00 -0.23877002290E+03  0.23877002290E+03  0.00000000000E+00 0.  1.
          6    1    1    2  501    0  0.42477141688E+02  0.69275159194E+02 -0.10639918090E+03  0.21875360784E+03  0.17300000000E+03 0.  1.
         -6    1    1    2    0  502 -0.42477141688E+02 -0.69275159194E+02  0.43673202688E+02  0.19606045976E+03  0.17300000000E+03 0.  1.
<mgrwt>
<rscale>  2 0.19113439E+03</rscale>
<asrwt>0</asrwt>
<pdfrwt beam="1">  1       21 0.27083699E-01 0.19113439E+03</pdfrwt>
<pdfrwt beam="2">  1       21 0.36733850E-01 0.19113439E+03</pdfrwt>
<totfact> 0.92912048E+04</totfact>
</mgrwt>
</event>
<event>
 4    1  0.3980289E+000  0.1844419E+03  0.7546771E-02  0.1163572E+00
         21   -1    0    0  503  502  0.00000000000E+00  0.00000000000E+00  0.45063908348E+02  0.45063908348E+02  0.00000000000E+00 0.  1.
         21   -1    0    0  501  503 -0.00000000000E+00 -0.00000000000E+00 -0.78788008441E+03  0.78788008441E+03  0.00000000000E+00 0.  1.
          6    1    1    2  501    0  0.39758175596E+02  0.50090984081E+02 -0.45661418959E+03  0.49245846256E+03  0.17300000000E+03 0.  1.
         -6    1    1    2    0  502 -0.39758175596E+02 -0.50090984081E+02 -0.28620198647E+03  0.34048553020E+03  0.17300000000E+03 0.  1.
<mgrwt>
<rscale>  2 0.18444191E+03</rscale>
<asrwt>0</asrwt>
<pdfrwt beam="1">  1       21 0.69329098E-02 0.18444191E+03</pdfrwt>
<pdfrwt beam="2">  1       21 0.12121231E+00 0.18444191E+03</pdfrwt>
<totfact> 0.79520653E+04</totfact>
</mgrwt>
</event>
<event>
 4    1  0.3980289E+000  0.1928679E+03  0.7546771E-02  0.1155900E+00
         21   -1    0    0  503  502  0.00000000000E+00  0.00000000000E+00  0.15418652260E+03  0.15418652260E+03  0.00000000000E+00 0.  1.
         21   -1    0    0  501  503 -0.00000000000E+00 -0.00000000000E+00 -0.33507484849E+03  0.33507484849E+03  0.00000000000E+00 0.  1.
          6    1    1    2  501    0  0.98173450911E+00  0.85252833525E+02 -0.21989095289E+03  0.29248938543E+03  0.17300000000E+03 0.  1.
         -6    1    1    2    0  502 -0.98173450911E+00 -0.85252833525E+02  0.39002626995E+02  0.19677198566E+03  0.17300000000E+03 0.  1.
<mgrwt>
<rscale>  2 0.19286785E+03</rscale>
<asrwt>0</asrwt>
<pdfrwt beam="1">  1       21 0.23721004E-01 0.19286785E+03</pdfrwt>
<pdfrwt beam="2">  1       21 0.51549976E-01 0.19286785E+03</pdfrwt>
<totfact> 0.59840711E+04</totfact>
</mgrwt>
</event>
<event>
 4    1  0.3980289E+000  0.2811839E+03  0.7546771E-02  0.1095044E+00
         21   -1    0    0  503  502  0.00000000000E+00  0.00000000000E+00  0.16602388697E+03  0.16602388697E+03  0.00000000000E+00 0. -1.
         21   -1    0    0  501  503 -0.00000000000E+00 -0.00000000000E+00 -0.48626087851E+03  0.48626087851E+03  0.00000000000E+00 0.  1.
          6    1    1    2  501    0 -0.21093396383E+03 -0.68134044263E+02 -0.11325932033E+03  0.30313702962E+03  0.17300000000E+03 0.  1.
         -6    1    1    2    0  502  0.21093396383E+03  0.68134044263E+02 -0.20697767121E+03  0.34914773587E+03  0.17300000000E+03 0. -1.
<mgrwt>
<rscale>  2 0.28118390E+03</rscale>
<asrwt>0</asrwt>
<pdfrwt beam="1">  1       21 0.25542137E-01 0.28118390E+03</pdfrwt>
<pdfrwt beam="2">  1       21 0.74809366E-01 0.28118390E+03</pdfrwt>
<totfact> 0.22227768E+04</totfact>
</mgrwt>
</event>
<event>
 4    1  0.3980289E+000  0.2010922E+03  0.7546771E-02  0.1148821E+00
         21   -1    0    0  503  502  0.00000000000E+00  0.00000000000E+00  0.74342135138E+03  0.74342135138E+03  0.00000000000E+00 0. -1.
         21   -1    0    0  501  503 -0.00000000000E+00 -0.00000000000E+00 -0.24149896118E+03  0.24149896118E+03  0.00000000000E+00 0. -1.
          6    1    1    2  501    0 -0.10166851111E+03 -0.13136493777E+02 -0.18250526959E+03  0.27156256562E+03  0.17300000000E+03 0. -1.
         -6    1    1    2    0  502  0.10166851111E+03  0.13136493777E+02  0.68442765980E+03  0.71335774694E+03  0.17300000000E+03 0. -1.
<mgrwt>
<rscale>  2 0.20109215E+03</rscale>
<asrwt>0</asrwt>
<pdfrwt beam="1">  1       21 0.11437251E+00 0.20109215E+03</pdfrwt>
<pdfrwt beam="2">  1       21 0.37153687E-01 0.20109215E+03</pdfrwt>
<totfact> 0.41221876E+03</totfact>
</mgrwt>
</event>
<event>
 4    1  0.3980289E+000  0.2762009E+03  0.7546771E-02  0.1097782E+00
         21   -1    0    0  501  502  0.00000000000E+00  0.00000000000E+00  0.13654707640E+03  0.13654707640E+03  0.00000000000E+00 0. -1.
         21   -1    0    0  502  503 -0.00000000000E+00 -0.00000000000E+00 -0.16500882910E+04  0.16500882910E+04  0.00000000000E+00 0.  1.
          6    1    1    2  501    0  0.18556497963E+03 -0.10919517446E+03 -0.30255316926E+02  0.27785307627E+03  0.17300000000E+03 0. -1.
         -6    1    1    2    0  503 -0.18556497963E+03  0.10919517446E+03 -0.14832858977E+04  0.15087822911E+04  0.17300000000E+03 0.  1.
<mgrwt>
<rscale>  2 0.27620092E+03</rscale>
<asrwt>0</asrwt>
<pdfrwt beam="1">  1       21 0.21007243E-01 0.27620092E+03</pdfrwt>
<pdfrwt beam="2">  1       21 0.25385973E+00 0.27620092E+03</pdfrwt>
<totfact> 0.12204060E+03</totfact>
</mgrwt>
</event>
<event>
 4    1  0.3980289E+000  0.1898459E+03  0.7546771E-02  0.1158600E+00
         21   -1    0    0  503  502  0.00000000000E+00  0.00000000000E+00  0.30834000421E+03  0.30834000421E+03  0.00000000000E+00 0. -1.
         21   -1    0    0  501  503 -0.00000000000E+00 -0.00000000000E+00 -0.20266363998E+03  0.20266363998E+03  0.00000000000E+00 0. -1.
          6    1    1    2  501    0  0.67222663372E+02 -0.39919644607E+02 -0.11338296507E+03  0.22112702518E+03  0.17300000000E+03 0. -1.
         -6    1    1    2    0  502 -0.67222663372E+02  0.39919644607E+02  0.21905932930E+03  0.28987661901E+03  0.17300000000E+03 0. -1.
<mgrwt>
<rscale>  2 0.18984590E+03</rscale>
<asrwt>0</asrwt>
<pdfrwt beam="1">  1       21 0.47436924E-01 0.18984590E+03</pdfrwt>
<pdfrwt beam="2">  1       21 0.31179021E-01 0.18984590E+03</pdfrwt>
<totfact> 0.42068047E+04</totfact>
</mgrwt>
</event>
<event>
 4    1  0.3980289E+000  0.1947594E+03  0.7546771E-02  0.1154237E+00
         21   -1    0    0  501  502  0.00000000000E+00  0.00000000000E+00  0.21347715546E+03  0.21347715546E+03  0.00000000000E+00 0.  1.
         21   -1    0    0  502  503 -0.00000000000E+00 -0.00000000000E+00 -0.18384022680E+03  0.18384022680E+03  0.00000000000E+00 0.  1.
          6    1    1    2  501    0  0.89392397837E+02  0.33501092287E+01  0.51175297614E+02  0.20137064113E+03  0.17300000000E+03 0.  1.
         -6    1    1    2    0  503 -0.89392397837E+02 -0.33501092287E+01 -0.21538368960E+02  0.19594674113E+03  0.17300000000E+03 0.  1.
<mgrwt>
<rscale>  2 0.19475940E+03</rscale>
<asrwt>0</asrwt>
<pdfrwt beam="1">  1       21 0.32842639E-01 0.19475940E+03</pdfrwt>
<pdfrwt beam="2">  1       21 0.28283112E-01 0.19475940E+03</pdfrwt>
<totfact> 0.10654985E+05</totfact>
</mgrwt>
</event>
<event>
 4    1  0.3980289E+000  0.1755061E+03  0.7546771E-02  0.1172225E+00
         21   -1    0    0  503  502  0.00000000000E+00  0.00000000000E+00  0.83073277604E+02  0.83073277604E+02  0.00000000000E+00 0. -1.
         21   -1    0    0  501  503 -0.00000000000E+00 -0.00000000000E+00 -0.43153550075E+03  0.43153550075E+03  0.00000000000E+00 0. -1.
          6    1    1    2  501    0 -0.24108669042E+02 -0.17092338188E+02 -0.27077208623E+03  0.32267615132E+03  0.17300000000E+03 0. -1.
         -6    1    1    2    0  502  0.24108669042E+02  0.17092338188E+02 -0.77690136917E+02  0.19193262704E+03  0.17300000000E+03 0. -1.
<mgrwt>
<rscale>  2 0.17550606E+03</rscale>
<asrwt>0</asrwt>
<pdfrwt beam="1">  1       21 0.12780504E-01 0.17550606E+03</pdfrwt>
<pdfrwt beam="2">  1       21 0.66390076E-01 0.17550606E+03</pdfrwt>
<totfact> 0.10978864E+05</totfact>
</mgrwt>
</event>
<event>
 4    1  0.3980289E+000  0.2124415E+03  0.7546771E-02  0.1139647E+00
         21   -1    0    0  503  502  0.00000000000E+00  0.00000000000E+00  0.42567349184E+03  0.42567349184E+03  0.00000000000E+00 0. -1.
         21   -1    0    0  501  503 -0.00000000000E+00 -0.00000000000E+00 -0.12660532915E+03  0.12660532915E+03  0.00000000000E+00 0. -1.
          6    1    1    2  501    0 -0.12148606296E+03 -0.21059787221E+02  0.38195735576E+02  0.21584784536E+03  0.17300000000E+03 0. -1.
         -6    1    1    2    0  502  0.12148606296E+03  0.21059787221E+02  0.26087242712E+03  0.33643097563E+03  0.17300000000E+03 0. -1.
<mgrwt>
<rscale>  2 0.21244147E+03</rscale>
<asrwt>0</asrwt>
<pdfrwt beam="1">  1       21 0.65488229E-01 0.21244147E+03</pdfrwt>
<pdfrwt beam="2">  1       21 0.19477743E-01 0.21244147E+03</pdfrwt>
<totfact> 0.51506482E+04</totfact>
</mgrwt>
</event>
<event>
 4    1  0.3980289E+000  0.3350701E+03  0.7546771E-02  0.1068915E+00
         21   -1    0    0  503  502  0.00000000000E+00  0.00000000000E+00  0.39887393279E+03  0.39887393279E+03  0.00000000000E+00 0.  1.
         21   -1    0    0  501  503 -0.00000000000E+00 -0.00000000000E+00 -0.28171114358E+03  0.28171114358E+03  0.00000000000E+00 0. -1.
          6    1    1    2  501    0  0.28650665535E+03 -0.16029146437E+02  0.48674670053E+02  0.33858709456E+03  0.17300000000E+03 0.  1.
         -6    1    1    2    0  502 -0.28650665535E+03  0.16029146437E+02  0.68488119161E+02  0.34199798181E+03  0.17300000000E+03 0. -1.
<mgrwt>
<rscale>  2 0.33507014E+03</rscale>
<asrwt>0</asrwt>
<pdfrwt beam="1">  1       21 0.61365220E-01 0.33507014E+03</pdfrwt>
<pdfrwt beam="2">  1       21 0.43340176E-01 0.33507014E+03</pdfrwt>
<totfact> 0.11744875E+04</totfact>
</mgrwt>
</event>
<event>
 4    1  0.3980289E+000  0.2397104E+03  0.7546771E-02  0.1119986E+00
         21   -1    0    0  503  502  0.00000000000E+00  0.00000000000E+00  0.17797597087E+03  0.17797597087E+03  0.00000000000E+00 0.  1.
         21   -1    0    0  501  503 -0.00000000000E+00 -0.00000000000E+00 -0.32458372846E+03  0.32458372846E+03  0.00000000000E+00 0. -1.
          6    1    1    2  501    0 -0.52952230342E+02  0.15725186408E+03 -0.54985179264E+02  0.24593588065E+03  0.17300000000E+03 0.  1.
         -6    1    1    2    0  502  0.52952230342E+02 -0.15725186408E+03 -0.91622578324E+02  0.25662381868E+03  0.17300000000E+03 0. -1.
<mgrwt>
<rscale>  2 0.23971042E+03</rscale>
<asrwt>0</asrwt>
<pdfrwt beam="1">  1       21 0.27380919E-01 0.23971042E+03</pdfrwt>
<pdfrwt beam="2">  1       21 0.49935958E-01 0.23971042E+03</pdfrwt>
<totfact> 0.47561140E+04</totfact>
</mgrwt>
</event>
<event>
 4    1  0.3980289E+000  0.1898054E+03  0.7546771E-02  0.1158637E+00
         21   -1    0    0  503  502  0.00000000000E+00  0.00000000000E+00  0.12136610267E+03  0.12136610267E+03  0.00000000000E+00 0.  1.
         21   -1    0    0  501  503 -0.00000000000E+00 -0.00000000000E+00 -0.51739039710E+03  0.51739039710E+03  0.00000000000E+00 0.  1.
          6    1    1    2  501    0  0.63911993652E+02 -0.44859170991E+02 -0.40653415997E+03  0.44866035191E+03  0.17300000000E+03 0.  1.
         -6    1    1    2    0  502 -0.63911993652E+02  0.44859170991E+02  0.10509865540E+02  0.19009614785E+03  0.17300000000E+03 0.  1.
<mgrwt>
<rscale>  2 0.18980540E+03</rscale>
<asrwt>0</asrwt>
<pdfrwt beam="1">  1       21 0.18671708E-01 0.18980540E+03</pdfrwt>
<pdfrwt beam="2">  1       21 0.79598523E-01 0.18980540E+03</pdfrwt>
<totfact> 0.36548424E+04</totfact>
</mgrwt>
</event>
<event>
 4    1  0.3980289E+000  0.2482667E+03  0.7546771E-02  0.1114405E+00
         21   -1    0    0  501  502  0.00000000000E+00  0.00000000000E+00  0.12377801153E+04  0.12377801153E+04  0.00000000000E+00 0. -1.
         21   -1    0    0  502  503 -0.00000000000E+00 -0.00000000000E+00 -0.15492256676E+03  0.15492256676E+03  0.00000000000E+00 0. -1.
          6    1    1    2  501    0  0.14553011735E+03  0.10260775955E+03  0.11150530655E+04  0.11423570835E+04  0.17300000000E+03 0. -1.
         -6    1    1    2    0  503 -0.14553011735E+03 -0.10260775955E+03 -0.32195516999E+02  0.25034559851E+03  0.17300000000E+03 0. -1.
<mgrwt>
<rscale>  2 0.24826673E+03</rscale>
<asrwt>0</asrwt>
<pdfrwt beam="1">  1       21 0.19042770E+00 0.24826673E+03</pdfrwt>
<pdfrwt beam="2">  1       21 0.23834242E-01 0.24826673E+03</pdfrwt>
<totfact> 0.24461608E+03</totfact>
</mgrwt>
</event>
<event>
 4    1  0.3980289E+000  0.2278894E+03  0.7546771E-02  0.1128134E+00
         21   -1    0    0  503  502  0.00000000000E+00  0.00000000000E+00  0.22901130958E+03  0.22901130958E+03  0.00000000000E+00 0. -1.
         21   -1    0    0  501  503 -0.00000000000E+00 -0.00000000000E+00 -0.51608164166E+03  0.51608164166E+03  0.00000000000E+00 0. -1.
          6    1    1    2  501    0 -0.49382010718E+02 -0.13987846751E+03 -0.42246951616E+03  0.48001464638E+03  0.17300000000E+03 0. -1.
         -6    1    1    2    0  502  0.49382010718E+02  0.13987846751E+03  0.13539918409E+03  0.26507830486E+03  0.17300000000E+03 0. -1.
<mgrwt>
<rscale>  2 0.22788938E+03</rscale>
<asrwt>0</asrwt>
<pdfrwt beam="1">  1       21 0.35232509E-01 0.22788938E+03</pdfrwt>
<pdfrwt beam="2">  1       21 0.79397175E-01 0.22788938E+03</pdfrwt>
<totfact> 0.10618606E+04</totfact>
</mgrwt>
</event>
<event>
 4    1  0.3980289E+000  0.1801676E+03  0.7546771E-02  0.1167641E+00
         21   -1    0    0  503  502  0.00000000000E+00  0.00000000000E+00  0.93238971313E+03  0.93238971313E+03  0.00000000000E+00 0. -1.
         21   -1    0    0  501  503 -0.00000000000E+00 -0.00000000000E+00 -0.51770544018E+02  0.51770544018E+02  0.00000000000E+00 0. -1.
          6    1    1    2  501    0 -0.48849978318E+01 -0.50075075822E+02  0.15869125160E+03  0.24009017005E+03  0.17300000000E+03 0. -1.
         -6    1    1    2    0  502  0.48849978318E+01  0.50075075822E+02  0.72192791752E+03  0.74407008710E+03  0.17300000000E+03 0. -1.
<mgrwt>
<rscale>  2 0.18016763E+03</rscale>
<asrwt>0</asrwt>
<pdfrwt beam="1">  1       21 0.14344456E+00 0.18016763E+03</pdfrwt>
<pdfrwt beam="2">  1       21 0.79646998E-02 0.18016763E+03</pdfrwt>
<totfact> 0.40922793E+04</totfact>
</mgrwt>
</event>
<event>
 4    1  0.3980289E+000  0.2129944E+03  0.7546771E-02  0.1139216E+00
         21   -1    0    0  503  502  0.00000000000E+00  0.00000000000E+00  0.24814843052E+02  0.24814843052E+02  0.00000000000E+00 0.  1.
         21   -1    0    0  501  503 -0.00000000000E+00 -0.00000000000E+00 -0.33017820036E+04  0.33017820036E+04  0.00000000000E+00 0. -1.
          6    1    1    2  501    0 -0.99576310275E+01 -0.12384845403E+03 -0.27496588082E+04  0.27578959653E+04  0.17300000000E+03 0. -1.
         -6    1    1    2    0  502  0.99576310275E+01  0.12384845403E+03 -0.52730835237E+03  0.56870088136E+03  0.17300000000E+03 0.  1.
<mgrwt>
<rscale>  2 0.21299435E+03</rscale>
<asrwt>0</asrwt>
<pdfrwt beam="1">  1       21 0.38176681E-02 0.21299435E+03</pdfrwt>
<pdfrwt beam="2">  1       21 0.50796647E+00 0.21299435E+03</pdfrwt>
<totfact> 0.68256595E+02</totfact>
</mgrwt>
</event>
<event>
 4    1  0.3980289E+000  0.1762876E+03  0.7546771E-02  0.1171445E+00
         21   -1    0    0  501  502  0.00000000000E+00  0.00000000000E+00  0.35979883932E+03  0.35979883932E+03  0.00000000000E+00 0.  1.
         21   -1    0    0  502  503 -0.00000000000E+00 -0.00000000000E+00 -0.42919903832E+03  0.42919903832E+03  0.00000000000E+00 0.  1.
          6    1    1    2  501    0  0.10587043753E+02  0.32190374691E+02  0.31787583369E+03  0.36348638401E+03  0.17300000000E+03 0.  1.
         -6    1    1    2    0  503 -0.10587043753E+02 -0.32190374691E+02 -0.38727603269E+03  0.42551149363E+03  0.17300000000E+03 0.  1.
<mgrwt>
<rscale>  2 0.17628757E+03</rscale>
<asrwt>0</asrwt>
<pdfrwt beam="1">  1       21 0.55353668E-01 0.17628757E+03</pdfrwt>
<pdfrwt beam="2">  1       21 0.66030621E-01 0.17628757E+03</pdfrwt>
<totfact> 0.65617120E+03</totfact>
</mgrwt>
</event>
<event>
 4    1  0.3980289E+000  0.1886262E+03  0.7546771E-02  0.1159706E+00
         21   -1    0    0  501  502  0.00000000000E+00  0.00000000000E+00  0.32906593515E+03  0.32906593515E+03  0.00000000000E+00 0.  1.
         21   -1    0    0  502  503 -0.00000000000E+00 -0.00000000000E+00 -0.11280060682E+03  0.11280060682E+03  0.00000000000E+00 0.  1.
          6    1    1    2  501    0  0.24961309390E+02 -0.70906758739E+02  0.15311929826E+03  0.24295134266E+03  0.17300000000E+03 0.  1.
         -6    1    1    2    0  503 -0.24961309390E+02  0.70906758739E+02  0.63146030075E+02  0.19891519931E+03  0.17300000000E+03 0.  1.
<mgrwt>
<rscale>  2 0.18862618E+03</rscale>
<asrwt>0</asrwt>
<pdfrwt beam="1">  1       21 0.50625528E-01 0.18862618E+03</pdfrwt>
<pdfrwt beam="2">  1       21 0.17353940E-01 0.18862618E+03</pdfrwt>
<totfact> 0.11168110E+05</totfact>
</mgrwt>
</event>
<event>
 4    1  0.3980289E+000  0.1770737E+03  0.7546771E-02  0.1170666E+00
         21   -1    0    0  503  502  0.00000000000E+00  0.00000000000E+00  0.12322279636E+02  0.12322279636E+02  0.00000000000E+00 0. -1.
         21   -1    0    0  501  503 -0.00000000000E+00 -0.00000000000E+00 -0.28813299539E+04  0.28813299539E+04  0.00000000000E+00 0. -1.
          6    1    1    2  501    0 -0.13319130093E+02 -0.35337097674E+02 -0.19291210793E+04  0.19372308196E+04  0.17300000000E+03 0. -1.
         -6    1    1    2    0  502  0.13319130093E+02  0.35337097674E+02 -0.93988659501E+03  0.95642141401E+03  0.17300000000E+03 0. -1.
<mgrwt>
<rscale>  2 0.17707374E+03</rscale>
<asrwt>0</asrwt>
<pdfrwt beam="1">  1       21 0.18957341E-02 0.17707374E+03</pdfrwt>
<pdfrwt beam="2">  1       21 0.44328183E+00 0.17707374E+03</pdfrwt>
<totfact> 0.63301845E+03</totfact>
</mgrwt>
</event>
<event>
 4    1  0.3980289E+000  0.1895972E+03  0.7546771E-02  0.1158825E+00
         21   -1    0    0  501  502  0.00000000000E+00  0.00000000000E+00  0.49995041377E+03  0.49995041377E+03  0.00000000000E+00 0. -1.
         21   -1    0    0  502  503 -0.00000000000E+00 -0.00000000000E+00 -0.77099747714E+02  0.77099747714E+02  0.00000000000E+00 0. -1.
          6    1    1    2  501    0 -0.63627764420E+02 -0.44380066773E+02  0.28634469947E+03  0.34342447444E+03  0.17300000000E+03 0. -1.
         -6    1    1    2    0  503  0.63627764420E+02  0.44380066773E+02  0.13650596659E+03  0.23362568704E+03  0.17300000000E+03 0. -1.
<mgrwt>
<rscale>  2 0.18959716E+03</rscale>
<asrwt>0</asrwt>
<pdfrwt beam="1">  1       21 0.76915446E-01 0.18959716E+03</pdfrwt>
<pdfrwt beam="2">  1       21 0.11861500E-01 0.18959716E+03</pdfrwt>
<totfact> 0.90142697E+04</totfact>
</mgrwt>
</event>
<event>
 4    1  0.3980289E+000  0.2159396E+03  0.7546771E-02  0.1136947E+00
         21   -1    0    0  503  502  0.00000000000E+00  0.00000000000E+00  0.26726231367E+03  0.26726231367E+03  0.00000000000E+00 0. -1.
         21   -1    0    0  501  503 -0.00000000000E+00 -0.00000000000E+00 -0.26313430180E+03  0.26313430180E+03  0.00000000000E+00 0. -1.
          6    1    1    2  501    0  0.12889386183E+03 -0.93436423131E+01 -0.15187554864E+03  0.26400021504E+03  0.17300000000E+03 0. -1.
         -6    1    1    2    0  502 -0.12889386183E+03  0.93436423131E+01  0.15600356051E+03  0.26639640043E+03  0.17300000000E+03 0. -1.
<mgrwt>
<rscale>  2 0.21593965E+03</rscale>
<asrwt>0</asrwt>
<pdfrwt beam="1">  1       21 0.41117279E-01 0.21593965E+03</pdfrwt>
<pdfrwt beam="2">  1       21 0.40482200E-01 0.21593965E+03</pdfrwt>
<totfact> 0.33085189E+04</totfact>
</mgrwt>
</event>
<event>
 4    1  0.3980289E+000  0.1751821E+03  0.7546771E-02  0.1172549E+00
         21   -1    0    0  503  502  0.00000000000E+00  0.00000000000E+00  0.37507281160E+02  0.37507281160E+02  0.00000000000E+00 0.  1.
         21   -1    0    0  501  503 -0.00000000000E+00 -0.00000000000E+00 -0.13854971174E+04  0.13854971174E+04  0.00000000000E+00 0.  1.
          6    1    1    2  501    0 -0.14084752301E+02 -0.23693431260E+02 -0.11292718493E+04  0.11427789237E+04  0.17300000000E+03 0.  1.
         -6    1    1    2    0  502  0.14084752301E+02  0.23693431260E+02 -0.21871798700E+03  0.28022547488E+03  0.17300000000E+03 0.  1.
<mgrwt>
<rscale>  2 0.17518207E+03</rscale>
<asrwt>0</asrwt>
<pdfrwt beam="1">  1       21 0.57703518E-02 0.17518207E+03</pdfrwt>
<pdfrwt beam="2">  1       21 0.21315337E+00 0.17518207E+03</pdfrwt>
<totfact> 0.23699306E+04</totfact>
</mgrwt>
</event>
<event>
 4    1  0.3980289E+000  0.1883036E+03  0.7546771E-02  0.1160000E+00
         21   -1    0    0  503  502  0.00000000000E+00  0.00000000000E+00  0.71880165578E+02  0.71880165578E+02  0.00000000000E+00 0. -1.
         21   -1    0    0  501  503 -0.00000000000E+00 -0.00000000000E+00 -0.51049484384E+03  0.51049484384E+03  0.00000000000E+00 0. -1.
          6    1    1    2  501    0 -0.21723333716E+02 -0.71114865722E+02 -0.27275412010E+03  0.33144085051E+03  0.17300000000E+03 0. -1.
         -6    1    1    2    0  502  0.21723333716E+02  0.71114865722E+02 -0.16586055817E+03  0.25093415891E+03  0.17300000000E+03 0. -1.
<mgrwt>
<rscale>  2 0.18830355E+03</rscale>
<asrwt>0</asrwt>
<pdfrwt beam="1">  1       21 0.11058487E-01 0.18830355E+03</pdfrwt>
<pdfrwt beam="2">  1       21 0.78537667E-01 0.18830355E+03</pdfrwt>
<totfact> 0.97509467E+04</totfact>
</mgrwt>
</event>
<event>
 4    1  0.3980289E+000  0.2419237E+03  0.7546771E-02  0.1118518E+00
         21   -1    0    0  501  502  0.00000000000E+00  0.00000000000E+00  0.33725452523E+03  0.33725452523E+03  0.00000000000E+00 0. -1.
         21   -1    0    0  502  503 -0.00000000000E+00 -0.00000000000E+00 -0.18078370400E+03  0.18078370400E+03  0.00000000000E+00 0. -1.
          6    1    1    2  501    0 -0.11229606495E+03  0.12644237896E+03  0.13008420317E+03  0.27467977959E+03  0.17300000000E+03 0. -1.
         -6    1    1    2    0  503  0.11229606495E+03 -0.12644237896E+03  0.26386618058E+02  0.24335844964E+03  0.17300000000E+03 0. -1.
<mgrwt>
<rscale>  2 0.24192371E+03</rscale>
<asrwt>0</asrwt>
<pdfrwt beam="1">  1       21 0.51885311E-01 0.24192371E+03</pdfrwt>
<pdfrwt beam="2">  1       21 0.27812878E-01 0.24192371E+03</pdfrwt>
<totfact> 0.42529450E+04</totfact>
</mgrwt>
</event>
<event>
 4    1  0.3980289E+000  0.1746821E+03  0.7546771E-02  0.1173051E+00
         21   -1    0    0  503  502  0.00000000000E+00  0.00000000000E+00  0.51961742195E+03  0.51961742195E+03  0.00000000000E+00 0.  1.
         21   -1    0    0  501  503 -0.00000000000E+00 -0.00000000000E+00 -0.30178298304E+03  0.30178298304E+03  0.00000000000E+00 0.  1.
          6    1    1    2  501    0  0.91694668476E+00 -0.24166007295E+02 -0.25966440996E+03  0.31295277999E+03  0.17300000000E+03 0.  1.
         -6    1    1    2    0  502 -0.91694668476E+00  0.24166007295E+02  0.47749884887E+03  0.50844762500E+03  0.17300000000E+03 0.  1.
<mgrwt>
<rscale>  2 0.17468210E+03</rscale>
<asrwt>0</asrwt>
<pdfrwt beam="1">  1       21 0.79941142E-01 0.17468210E+03</pdfrwt>
<pdfrwt beam="2">  1       21 0.46428151E-01 0.17468210E+03</pdfrwt>
<totfact> 0.62074243E+03</totfact>
</mgrwt>
</event>
<event>
 4    1  0.3980289E+000  0.1832539E+03  0.7546771E-02  0.1164691E+00
         21   -1    0    0  501  502  0.00000000000E+00  0.00000000000E+00  0.35050233155E+03  0.35050233155E+03  0.00000000000E+00 0. -1.
         21   -1    0    0  502  503 -0.00000000000E+00 -0.00000000000E+00 -0.15575660844E+03  0.15575660844E+03  0.00000000000E+00 0. -1.
          6    1    1    2  501    0  0.41992243518E+02 -0.43469890946E+02  0.25440847099E+03  0.31353731843E+03  0.17300000000E+03 0. -1.
         -6    1    1    2    0  503 -0.41992243518E+02  0.43469890946E+02 -0.59662747882E+02  0.19272162157E+03  0.17300000000E+03 0. -1.
<mgrwt>
<rscale>  2 0.18325387E+03</rscale>
<asrwt>0</asrwt>
<pdfrwt beam="1">  1       21 0.53923435E-01 0.18325387E+03</pdfrwt>
<pdfrwt beam="2">  1       21 0.23962555E-01 0.18325387E+03</pdfrwt>
<totfact> 0.53633994E+04</totfact>
</mgrwt>
</event>
<event>
 4    1  0.3980289E+000  0.1816059E+03  0.7546771E-02  0.1166258E+00
         21   -1    0    0  501  502  0.00000000000E+00  0.00000000000E+00  0.43993344201E+03  0.43993344201E+03  0.00000000000E+00 0. -1.
         21   -1    0    0  502  503 -0.00000000000E+00 -0.00000000000E+00 -0.91717126856E+02  0.91717126856E+02  0.00000000000E+00 0. -1.
          6    1    1    2  501    0  0.10623867622E+02  0.54211095436E+02  0.28770693585E+03  0.34022932027E+03  0.17300000000E+03 0. -1.
         -6    1    1    2    0  503 -0.10623867622E+02 -0.54211095436E+02  0.60509379300E+02  0.19142124860E+03  0.17300000000E+03 0. -1.
<mgrwt>
<rscale>  2 0.18160592E+03</rscale>
<asrwt>0</asrwt>
<pdfrwt beam="1">  1       21 0.67682067E-01 0.18160592E+03</pdfrwt>
<pdfrwt beam="2">  1       21 0.14110327E-01 0.18160592E+03</pdfrwt>
<totfact> 0.87855333E+04</totfact>
</mgrwt>
</event>
<event>
 4    1  0.3980289E+000  0.1875613E+03  0.7546771E-02  0.1160679E+00
         21   -1    0    0  501  502  0.00000000000E+00  0.00000000000E+00  0.12499029208E+03  0.12499029208E+03  0.00000000000E+00 0.  1.
         21   -1    0    0  502  503 -0.00000000000E+00 -0.00000000000E+00 -0.29328292329E+03  0.29328292329E+03  0.00000000000E+00 0.  1.
          6    1    1    2  501    0  0.72258445518E+02  0.53812307761E+01 -0.42148516193E+02  0.19223875262E+03  0.17300000000E+03 0.  1.
         -6    1    1    2    0  503 -0.72258445518E+02 -0.53812307761E+01 -0.12614411502E+03  0.22603446274E+03  0.17300000000E+03 0.  1.
<mgrwt>
<rscale>  2 0.18756130E+03</rscale>
<asrwt>0</asrwt>
<pdfrwt beam="1">  1       21 0.19229276E-01 0.18756130E+03</pdfrwt>
<pdfrwt beam="2">  1       21 0.45120449E-01 0.18756130E+03</pdfrwt>
<totfact> 0.11726648E+05</totfact>
</mgrwt>
</event>
<event>
 4    1  0.3980289E+000  0.1771492E+03  0.7546771E-02  0.1170591E+00
         21   -1    0    0  501  502  0.00000000000E+00  0.00000000000E+00  0.21600212317E+02  0.21600212317E+02  0.00000000000E+00 0. -1.
         21   -1    0    0  502  503 -0.00000000000E+00 -0.00000000000E+00 -0.14563279901E+04  0.14563279901E+04  0.00000000000E+00 0. -1.
          6    1    1    2  501    0  0.26337014388E+02 -0.27553352559E+02 -0.75348672804E+03  0.77403105552E+03  0.17300000000E+03 0. -1.
         -6    1    1    2    0  503 -0.26337014388E+02  0.27553352559E+02 -0.68124104969E+03  0.70389714685E+03  0.17300000000E+03 0. -1.
<mgrwt>
<rscale>  2 0.17714916E+03</rscale>
<asrwt>0</asrwt>
<pdfrwt beam="1">  1       21 0.33231099E-02 0.17714916E+03</pdfrwt>
<pdfrwt beam="2">  1       21 0.22405044E+00 0.17714916E+03</pdfrwt>
<totfact> 0.51309920E+04</totfact>
</mgrwt>
</event>
<event>
 4    1  0.3980289E+000  0.1919372E+03  0.7546771E-02  0.1156726E+00
         21   -1    0    0  503  502  0.00000000000E+00  0.00000000000E+00  0.86469714518E+02  0.86469714518E+02  0.00000000000E+00 0.  1.
         21   -1    0    0  501  503 -0.00000000000E+00 -0.00000000000E+00 -0.42683708451E+03  0.42683708451E+03  0.00000000000E+00 0.  1.
          6    1    1    2  501    0  0.41116891957E+02 -0.72251623017E+02 -0.18124733787E+03  0.26398957047E+03  0.17300000000E+03 0.  1.
         -6    1    1    2    0  502 -0.41116891957E+02  0.72251623017E+02 -0.15912003212E+03  0.24931722856E+03  0.17300000000E+03 0.  1.
<mgrwt>
<rscale>  2 0.19193722E+03</rscale>
<asrwt>0</asrwt>
<pdfrwt beam="1">  1       21 0.13303033E-01 0.19193722E+03</pdfrwt>
<pdfrwt beam="2">  1       21 0.65667245E-01 0.19193722E+03</pdfrwt>
<totfact> 0.10397430E+05</totfact>
</mgrwt>
</event>
<event>
 4    1  0.3980289E+000  0.1782022E+03  0.7546771E-02  0.1169554E+00
         21   -1    0    0  501  502  0.00000000000E+00  0.00000000000E+00  0.19919464811E+03  0.19919464811E+03  0.00000000000E+00 0. -1.
         21   -1    0    0  502  503 -0.00000000000E+00 -0.00000000000E+00 -0.16647796885E+03  0.16647796885E+03  0.00000000000E+00 0. -1.
          6    1    1    2  501    0 -0.39920724762E+02  0.15276152372E+02  0.53999233651E+02  0.18620403414E+03  0.17300000000E+03 0. -1.
         -6    1    1    2    0  503  0.39920724762E+02 -0.15276152372E+02 -0.21282554390E+02  0.17946858282E+03  0.17300000000E+03 0. -1.
<mgrwt>
<rscale>  2 0.17820220E+03</rscale>
<asrwt>0</asrwt>
<pdfrwt beam="1">  1       21 0.30645330E-01 0.17820220E+03</pdfrwt>
<pdfrwt beam="2">  1       21 0.25611995E-01 0.17820220E+03</pdfrwt>
<totfact> 0.14853680E+05</totfact>
</mgrwt>
</event>
<event>
 4    1  0.3980289E+000  0.2171095E+03  0.7546771E-02  0.1136057E+00
         21   -1    0    0  503  502  0.00000000000E+00  0.00000000000E+00  0.13558814351E+03  0.13558814351E+03  0.00000000000E+00 0. -1.
         21   -1    0    0  501  503 -0.00000000000E+00 -0.00000000000E+00 -0.37583339413E+03  0.37583339413E+03  0.00000000000E+00 0. -1.
          6    1    1    2  501    0  0.11372669289E+03 -0.65374222292E+02 -0.19015292176E+03  0.28860818296E+03  0.17300000000E+03 0. -1.
         -6    1    1    2    0  502 -0.11372669289E+03  0.65374222292E+02 -0.50092328858E+02  0.22281335468E+03  0.17300000000E+03 0. -1.
<mgrwt>
<rscale>  2 0.21710953E+03</rscale>
<asrwt>0</asrwt>
<pdfrwt beam="1">  1       21 0.20859714E-01 0.21710953E+03</pdfrwt>
<pdfrwt beam="2">  1       21 0.57820522E-01 0.21710953E+03</pdfrwt>
<totfact> 0.59170281E+04</totfact>
</mgrwt>
</event>
<event>
 4    1  0.3980289E+000  0.2085726E+03  0.7546771E-02  0.1142701E+00
         21   -1    0    0  503  502  0.00000000000E+00  0.00000000000E+00  0.36536138170E+03  0.36536138170E+03  0.00000000000E+00 0.  1.
         21   -1    0    0  501  503 -0.00000000000E+00 -0.00000000000E+00 -0.20046781555E+03  0.20046781555E+03  0.00000000000E+00 0. -1.
          6    1    1    2  501    0  0.25965183874E+02  0.11357530386E+03 -0.97832985715E+02  0.23037758900E+03  0.17300000000E+03 0. -1.
         -6    1    1    2    0  502 -0.25965183874E+02 -0.11357530386E+03  0.26272655187E+03  0.33545160825E+03  0.17300000000E+03 0.  1.
<mgrwt>
<rscale>  2 0.20857263E+03</rscale>
<asrwt>0</asrwt>
<pdfrwt beam="1">  1       21 0.56209444E-01 0.20857263E+03</pdfrwt>
<pdfrwt beam="2">  1       21 0.30841202E-01 0.20857263E+03</pdfrwt>
<totfact> 0.29811739E+04</totfact>
</mgrwt>
</event>
<event>
 4    1  0.3980289E+000  0.1902836E+03  0.7546771E-02  0.1158206E+00
         21   -1    0    0  503  502  0.00000000000E+00  0.00000000000E+00  0.44175708238E+03  0.44175708238E+03  0.00000000000E+00 0.  1.
         21   -1    0    0  501  503 -0.00000000000E+00 -0.00000000000E+00 -0.13053611862E+03  0.13053611862E+03  0.00000000000E+00 0.  1.
          6    1    1    2  501    0 -0.77977107757E+02 -0.14086519296E+02 -0.18939571589E+02  0.19122386549E+03  0.17300000000E+03 0.  1.
         -6    1    1    2    0  502  0.77977107757E+02  0.14086519296E+02  0.33016053536E+03  0.38106933551E+03  0.17300000000E+03 0.  1.
<mgrwt>
<rscale>  2 0.19028363E+03</rscale>
<asrwt>0</asrwt>
<pdfrwt beam="1">  1       21 0.67962627E-01 0.19028363E+03</pdfrwt>
<pdfrwt beam="2">  1       21 0.20082480E-01 0.19028363E+03</pdfrwt>
<totfact> 0.45345268E+04</totfact>
</mgrwt>
</event>
<event>
 4    1  0.3980289E+000  0.3592604E+03  0.7546771E-02  0.1058877E+00
         21   -1    0    0  501  502  0.00000000000E+00  0.00000000000E+00  0.12515969655E+04  0.12515969655E+04  0.00000000000E+00 0. -1.
         21   -1    0    0  502  503 -0.00000000000E+00 -0.00000000000E+00 -0.12168728520E+03  0.12168728520E+03  0.00000000000E+00 0.  1.
          6    1    1    2  501    0  0.29737249729E+02  0.31345608504E+03  0.83314992517E+03  0.90730745566E+03  0.17300000000E+03 0. -1.
         -6    1    1    2    0  503 -0.29737249729E+02 -0.31345608504E+03  0.29675975516E+03  0.46597679508E+03  0.17300000000E+03 0.  1.
<mgrwt>
<rscale>  2 0.35926038E+03</rscale>
<asrwt>0</asrwt>
<pdfrwt beam="1">  1       21 0.19255337E+00 0.35926038E+03</pdfrwt>
<pdfrwt beam="2">  1       21 0.18721122E-01 0.35926038E+03</pdfrwt>
<totfact> 0.34909183E+03</totfact>
</mgrwt>
</event>
<event>
 4    1  0.3980289E+000  0.1755487E+03  0.7546771E-02  0.1172182E+00
         21   -1    0    0  501  502  0.00000000000E+00  0.00000000000E+00  0.18864285167E+03  0.18864285167E+03  0.00000000000E+00 0.  1.
         21   -1    0    0  502  503 -0.00000000000E+00 -0.00000000000E+00 -0.18247582351E+03  0.18247582351E+03  0.00000000000E+00 0.  1.
          6    1    1    2  501    0 -0.62483714291E+01  0.29142687196E+02  0.63136967065E+02  0.18655726995E+03  0.17300000000E+03 0. -1.
         -6    1    1    2    0  503  0.62483714291E+01 -0.29142687196E+02 -0.56969938900E+02  0.18456140523E+03  0.17300000000E+03 0. -1.
<mgrwt>
<rscale>  2 0.17554868E+03</rscale>
<asrwt>0</asrwt>
<pdfrwt beam="1">  1       21 0.29021977E-01 0.17554868E+03</pdfrwt>
<pdfrwt beam="2">  1       21 0.28073204E-01 0.17554868E+03</pdfrwt>
<totfact> 0.13856814E+05</totfact>
</mgrwt>
</event>
<event>
 4    1  0.3980289E+000  0.1874164E+03  0.7546771E-02  0.1160812E+00
         21   -1    0    0  501  502  0.00000000000E+00  0.00000000000E+00  0.74844881893E+03  0.74844881893E+03  0.00000000000E+00 0.  1.
         21   -1    0    0  502  503 -0.00000000000E+00 -0.00000000000E+00 -0.55940976824E+02  0.55940976824E+02  0.00000000000E+00 0.  1.
          6    1    1    2  501    0 -0.54800252363E+02 -0.46827802144E+02  0.50767148356E+03  0.54116101664E+03  0.17300000000E+03 0.  1.
         -6    1    1    2    0  503  0.54800252363E+02  0.46827802144E+02  0.18483635855E+03  0.26322877911E+03  0.17300000000E+03 0.  1.
<mgrwt>
<rscale>  2 0.18741641E+03</rscale>
<asrwt>0</asrwt>
<pdfrwt beam="1">  1       21 0.11514596E+00 0.18741641E+03</pdfrwt>
<pdfrwt beam="2">  1       21 0.86063047E-02 0.18741641E+03</pdfrwt>
<totfact> 0.61899393E+04</totfact>
</mgrwt>
</event>
<event>
 4    1  0.3980289E+000  0.1754147E+03  0.7546771E-02  0.1172316E+00
         21   -1    0    0  503  502  0.00000000000E+00  0.00000000000E+00  0.46183332773E+02  0.46183332773E+02  0.00000000000E+00 0.  1.
         21   -1    0    0  501  503 -0.00000000000E+00 -0.00000000000E+00 -0.67920122137E+03  0.67920122137E+03  0.00000000000E+00 0.  1.
          6    1    1    2  501    0  0.19290582703E+02 -0.21660741777E+02 -0.36656440733E+03  0.40637393991E+03  0.17300000000E+03 0.  1.
         -6    1    1    2    0  502 -0.19290582703E+02  0.21660741777E+02 -0.26645348127E+03  0.31901061424E+03  0.17300000000E+03 0.  1.
<mgrwt>
<rscale>  2 0.17541469E+03</rscale>
<asrwt>0</asrwt>
<pdfrwt beam="1">  1       21 0.71051286E-02 0.17541469E+03</pdfrwt>
<pdfrwt beam="2">  1       21 0.10449249E+00 0.17541469E+03</pdfrwt>
<totfact> 0.10973478E+05</totfact>
</mgrwt>
</event>
<event>
 4    1  0.3980289E+000  0.3689762E+03  0.7546771E-02  0.1055085E+00
         21   -1    0    0  501  502  0.00000000000E+00  0.00000000000E+00  0.18556698827E+04  0.18556698827E+04  0.00000000000E+00 0.  1.
         21   -1    0    0  502  503 -0.00000000000E+00 -0.00000000000E+00 -0.14832688067E+03  0.14832688067E+03  0.00000000000E+00 0. -1.
          6    1    1    2  501    0 -0.22532638037E+03 -0.23546223702E+03  0.15659893991E+04  0.16088711076E+04  0.17300000000E+03 0.  1.
         -6    1    1    2    0  503  0.22532638037E+03  0.23546223702E+03  0.14135360286E+03  0.39512565570E+03  0.17300000000E+03 0. -1.
<mgrwt>
<rscale>  2 0.36897621E+03</rscale>
<asrwt>0</asrwt>
<pdfrwt beam="1">  1       21 0.28548766E+00 0.36897621E+03</pdfrwt>
<pdfrwt beam="2">  1       21 0.22819521E-01 0.36897621E+03</pdfrwt>
<totfact> 0.62962191E+02</totfact>
</mgrwt>
</event>
<event>
 4    1  0.3980289E+000  0.1991315E+03  0.7546771E-02  0.1150474E+00
         21   -1    0    0  503  502  0.00000000000E+00  0.00000000000E+00  0.10434776912E+03  0.10434776912E+03  0.00000000000E+00 0.  1.
         21   -1    0    0  501  503 -0.00000000000E+00 -0.00000000000E+00 -0.64793488752E+03  0.64793488752E+03  0.00000000000E+00 0. -1.
          6    1    1    2  501    0 -0.30265871186E+02  0.93852703613E+02 -0.51366839031E+03  0.55091611715E+03  0.17300000000E+03 0. -1.
         -6    1    1    2    0  502  0.30265871186E+02 -0.93852703613E+02 -0.29918728086E+02  0.20136653949E+03  0.17300000000E+03 0.  1.
<mgrwt>
<rscale>  2 0.19913150E+03</rscale>
<asrwt>0</asrwt>
<pdfrwt beam="1">  1       21 0.16053503E-01 0.19913150E+03</pdfrwt>
<pdfrwt beam="2">  1       21 0.99682288E-01 0.19913150E+03</pdfrwt>
<totfact> 0.28558992E+04</totfact>
</mgrwt>
</event>
<event>
 4    1  0.3980289E+000  0.1954353E+03  0.7546771E-02  0.1153648E+00
         21   -1    0    0  503  502  0.00000000000E+00  0.00000000000E+00  0.18229785722E+03  0.18229785722E+03  0.00000000000E+00 0. -1.
         21   -1    0    0  501  503 -0.00000000000E+00 -0.00000000000E+00 -0.21806131461E+03  0.21806131461E+03  0.00000000000E+00 0. -1.
          6    1    1    2  501    0 -0.65431951905E+02  0.63123885725E+02 -0.57500794932E+02  0.20371869501E+03  0.17300000000E+03 0. -1.
         -6    1    1    2    0  502  0.65431951905E+02 -0.63123885725E+02  0.21737337540E+02  0.19664047682E+03  0.17300000000E+03 0. -1.
<mgrwt>
<rscale>  2 0.19543532E+03</rscale>
<asrwt>0</asrwt>
<pdfrwt beam="1">  1       21 0.28045824E-01 0.19543532E+03</pdfrwt>
<pdfrwt beam="2">  1       21 0.33547894E-01 0.19543532E+03</pdfrwt>
<totfact> 0.10382737E+05</totfact>
</mgrwt>
</event>
<event>
 4    1  0.3980289E+000  0.2787228E+03  0.7546771E-02  0.1096389E+00
         21   -1    0    0  503  502  0.00000000000E+00  0.00000000000E+00  0.89455582550E+03  0.89455582550E+03  0.00000000000E+00 0.  1.
         21   -1    0    0  501  503 -0.00000000000E+00 -0.00000000000E+00 -0.16816367120E+03  0.16816367120E+03  0.00000000000E+00 0. -1.
          6    1    1    2  501    0  0.11262423992E+03  0.18727838551E+03 -0.63099636509E+01  0.27879424086E+03  0.17300000000E+03 0. -1.
         -6    1    1    2    0  502 -0.11262423992E+03 -0.18727838551E+03  0.73270211795E+03  0.78392525584E+03  0.17300000000E+03 0.  1.
<mgrwt>
<rscale>  2 0.27872282E+03</rscale>
<asrwt>0</asrwt>
<pdfrwt beam="1">  1       21 0.13762397E+00 0.27872282E+03</pdfrwt>
<pdfrwt beam="2">  1       21 0.25871335E-01 0.27872282E+03</pdfrwt>
<totfact> 0.49950107E+03</totfact>
</mgrwt>
</event>
<event>
 4    1  0.3980289E+000  0.1768803E+03  0.7546771E-02  0.1170857E+00
         21   -1    0    0  501  502  0.00000000000E+00  0.00000000000E+00  0.26132252690E+03  0.26132252690E+03  0.00000000000E+00 0.  1.
         21   -1    0    0  502  503 -0.00000000000E+00 -0.00000000000E+00 -0.12728707639E+03  0.12728707639E+03  0.00000000000E+00 0. -1.
          6    1    1    2  501    0  0.26942401335E+02  0.25134614871E+02  0.11438011727E+03  0.21064057795E+03  0.17300000000E+03 0.  1.
         -6    1    1    2    0  503 -0.26942401335E+02 -0.25134614871E+02  0.19655333244E+02  0.17796902534E+03  0.17300000000E+03 0. -1.
<mgrwt>
<rscale>  2 0.17688030E+03</rscale>
<asrwt>0</asrwt>
<pdfrwt beam="1">  1       21 0.40203466E-01 0.17688030E+03</pdfrwt>
<pdfrwt beam="2">  1       21 0.19582627E-01 0.17688030E+03</pdfrwt>
<totfact> 0.14389273E+05</totfact>
</mgrwt>
</event>
<event>
 4    1  0.3980289E+000  0.1850003E+03  0.7546771E-02  0.1163050E+00
         21   -1    0    0  501  502  0.00000000000E+00  0.00000000000E+00  0.16214997610E+03  0.16214997610E+03  0.00000000000E+00 0. -1.
         21   -1    0    0  502  503 -0.00000000000E+00 -0.00000000000E+00 -0.44257116231E+03  0.44257116231E+03  0.00000000000E+00 0.  1.
          6    1    1    2  501    0  0.14757834316E+02 -0.63861695171E+02  0.78469638271E+02  0.20095420850E+03  0.17300000000E+03 0. -1.
         -6    1    1    2    0  503 -0.14757834316E+02  0.63861695171E+02 -0.35889082448E+03  0.40376692990E+03  0.17300000000E+03 0.  1.
<mgrwt>
<rscale>  2 0.18500030E+03</rscale>
<asrwt>0</asrwt>
<pdfrwt beam="1">  1       21 0.24946150E-01 0.18500030E+03</pdfrwt>
<pdfrwt beam="2">  1       21 0.68087871E-01 0.18500030E+03</pdfrwt>
<totfact> 0.30075767E+04</totfact>
</mgrwt>
</event>
<event>
 4    1  0.3980289E+000  0.1990939E+03  0.7546771E-02  0.1150506E+00
         21   -1    0    0  501  502  0.00000000000E+00  0.00000000000E+00  0.76737101292E+02  0.76737101292E+02  0.00000000000E+00 0.  1.
         21   -1    0    0  502  503 -0.00000000000E+00 -0.00000000000E+00 -0.86513526127E+03  0.86513526127E+03  0.00000000000E+00 0.  1.
          6    1    1    2  501    0 -0.96990243448E+02 -0.17386220420E+02 -0.95264694129E+02  0.22071191615E+03  0.17300000000E+03 0.  1.
         -6    1    1    2    0  503  0.96990243448E+02  0.17386220420E+02 -0.69313346585E+03  0.72116044641E+03  0.17300000000E+03 0.  1.
<mgrwt>
<rscale>  2 0.19909392E+03</rscale>
<asrwt>0</asrwt>
<pdfrwt beam="1">  1       21 0.11805707E-01 0.19909392E+03</pdfrwt>
<pdfrwt beam="2">  1       21 0.13309774E+00 0.19909392E+03</pdfrwt>
<totfact> 0.24506673E+04</totfact>
</mgrwt>
</event>
<event>
 4    1  0.3980289E+000  0.1863948E+03  0.7546771E-02  0.1161754E+00
         21   -1    0    0  501  502  0.00000000000E+00  0.00000000000E+00  0.57813649332E+03  0.57813649332E+03  0.00000000000E+00 0.  1.
         21   -1    0    0  502  503 -0.00000000000E+00 -0.00000000000E+00 -0.73699809801E+02  0.73699809801E+02  0.00000000000E+00 0.  1.
          6    1    1    2  501    0 -0.67253138937E+02  0.17059579590E+02  0.39224938514E+03  0.43428400166E+03  0.17300000000E+03 0.  1.
         -6    1    1    2    0  503  0.67253138937E+02 -0.17059579590E+02  0.11218729837E+03  0.21755230145E+03  0.17300000000E+03 0.  1.
<mgrwt>
<rscale>  2 0.18639478E+03</rscale>
<asrwt>0</asrwt>
<pdfrwt beam="1">  1       21 0.88944073E-01 0.18639478E+03</pdfrwt>
<pdfrwt beam="2">  1       21 0.11338433E-01 0.18639478E+03</pdfrwt>
<totfact> 0.70301063E+04</totfact>
</mgrwt>
</event>
<event>
 4    1  0.3980289E+000  0.2262126E+03  0.7546771E-02  0.1129334E+00
         21   -1    0    0  503  502  0.00000000000E+00  0.00000000000E+00  0.35888303679E+03  0.35888303679E+03  0.00000000000E+00 0.  1.
         21   -1    0    0  501  503 -0.00000000000E+00 -0.00000000000E+00 -0.15199630429E+03  0.15199630429E+03  0.00000000000E+00 0.  1.
          6    1    1    2  501    0 -0.11189577860E+03  0.93394248148E+02  0.39889136385E+02  0.22970262092E+03  0.17300000000E+03 0.  1.
         -6    1    1    2    0  502  0.11189577860E+03 -0.93394248148E+02  0.16699759611E+03  0.28117672016E+03  0.17300000000E+03 0.  1.
<mgrwt>
<rscale>  2 0.22621262E+03</rscale>
<asrwt>0</asrwt>
<pdfrwt beam="1">  1       21 0.55212775E-01 0.22621262E+03</pdfrwt>
<pdfrwt beam="2">  1       21 0.23384047E-01 0.22621262E+03</pdfrwt>
<totfact> 0.52391477E+04</totfact>
</mgrwt>
</event>
<event>
 4    1  0.3980289E+000  0.2590244E+03  0.7546771E-02  0.1107731E+00
         21   -1    0    0  503  502  0.00000000000E+00  0.00000000000E+00  0.29580427363E+03  0.29580427363E+03  0.00000000000E+00 0.  1.
         21   -1    0    0  501  503 -0.00000000000E+00 -0.00000000000E+00 -0.45820362340E+03  0.45820362340E+03  0.00000000000E+00 0.  1.
          6    1    1    2  501    0  0.91098731167E+02  0.16989893719E+03 -0.34910735360E+03  0.43470630547E+03  0.17300000000E+03 0.  1.
         -6    1    1    2    0  502 -0.91098731167E+02 -0.16989893719E+03  0.18670800383E+03  0.31930159156E+03  0.17300000000E+03 0.  1.
<mgrwt>
<rscale>  2 0.25902438E+03</rscale>
<asrwt>0</asrwt>
<pdfrwt beam="1">  1       21 0.45508350E-01 0.25902438E+03</pdfrwt>
<pdfrwt beam="2">  1       21 0.70492865E-01 0.25902438E+03</pdfrwt>
<totfact> 0.80992147E+03</totfact>
</mgrwt>
</event>
<event>
 4    1  0.3980289E+000  0.2223513E+03  0.7546771E-02  0.1132142E+00
         21   -1    0    0  503  502  0.00000000000E+00  0.00000000000E+00  0.27286016458E+03  0.27286016458E+03  0.00000000000E+00 0.  1.
         21   -1    0    0  501  503 -0.00000000000E+00 -0.00000000000E+00 -0.24155485876E+03  0.24155485876E+03  0.00000000000E+00 0.  1.
          6    1    1    2  501    0 -0.11742140557E+03 -0.75652711699E+02 -0.11292341116E+03  0.24938287043E+03  0.17300000000E+03 0.  1.
         -6    1    1    2    0  502  0.11742140557E+03  0.75652711699E+02  0.14422871698E+03  0.26503215291E+03  0.17300000000E+03 0.  1.
<mgrwt>
<rscale>  2 0.22235134E+03</rscale>
<asrwt>0</asrwt>
<pdfrwt beam="1">  1       21 0.41978487E-01 0.22235134E+03</pdfrwt>
<pdfrwt beam="2">  1       21 0.37162286E-01 0.22235134E+03</pdfrwt>
<totfact> 0.37576267E+04</totfact>
</mgrwt>
</event>
<event>
 4    1  0.3980289E+000  0.1810180E+03  0.7546771E-02  0.1166821E+00
         21   -1    0    0  501  502  0.00000000000E+00  0.00000000000E+00  0.15751062444E+03  0.15751062444E+03  0.00000000000E+00 0. -1.
         21   -1    0    0  502  503 -0.00000000000E+00 -0.00000000000E+00 -0.20821358488E+03  0.20821358488E+03  0.00000000000E+00 0. -1.
          6    1    1    2  501    0 -0.23358458266E+02  0.47884165254E+02 -0.30727009057E+02  0.18360735263E+03  0.17300000000E+03 0.  1.
         -6    1    1    2    0  503  0.23358458266E+02 -0.47884165254E+02 -0.19975951386E+02  0.18211685668E+03  0.17300000000E+03 0.  1.
<mgrwt>
<rscale>  2 0.18101798E+03</rscale>
<asrwt>0</asrwt>
<pdfrwt beam="1">  1       21 0.24232404E-01 0.18101798E+03</pdfrwt>
<pdfrwt beam="2">  1       21 0.32032859E-01 0.18101798E+03</pdfrwt>
<totfact> 0.15123177E+05</totfact>
</mgrwt>
</event>
<event>
 4    1  0.3980289E+000  0.1780757E+03  0.7546771E-02  0.1169679E+00
         21   -1    0    0  503  502  0.00000000000E+00  0.00000000000E+00  0.79517751022E+02  0.79517751022E+02  0.00000000000E+00 0.  1.
         21   -1    0    0  501  503 -0.00000000000E+00 -0.00000000000E+00 -0.15468081825E+04  0.15468081825E+04  0.00000000000E+00 0. -1.
          6    1    1    2  501    0 -0.23551755064E+02 -0.35032163661E+02 -0.14341863105E+04  0.14451994018E+04  0.17300000000E+03 0. -1.
         -6    1    1    2    0  502  0.23551755064E+02  0.35032163661E+02 -0.33104120908E+02  0.18112653168E+03  0.17300000000E+03 0.  1.
<mgrwt>
<rscale>  2 0.17807565E+03</rscale>
<asrwt>0</asrwt>
<pdfrwt beam="1">  1       21 0.12233501E-01 0.17807565E+03</pdfrwt>
<pdfrwt beam="2">  1       21 0.23797048E+00 0.17807565E+03</pdfrwt>
<totfact> 0.45099634E+03</totfact>
</mgrwt>
</event>
<event>
 4    1  0.3980289E+000  0.2253869E+03  0.7546771E-02  0.1129929E+00
         21   -1    0    0  503  502  0.00000000000E+00  0.00000000000E+00  0.43650932996E+02  0.43650932996E+02  0.00000000000E+00 0. -1.
         21   -1    0    0  501  503 -0.00000000000E+00 -0.00000000000E+00 -0.19421887115E+04  0.19421887115E+04  0.00000000000E+00 0.  1.
          6    1    1    2  501    0 -0.72922981967E+02  0.12470968458E+03 -0.15778734494E+04  0.15938895473E+04  0.17300000000E+03 0.  1.
         -6    1    1    2    0  502  0.72922981967E+02 -0.12470968458E+03 -0.32066432917E+03  0.39195009724E+03  0.17300000000E+03 0. -1.
<mgrwt>
<rscale>  2 0.22538693E+03</rscale>
<asrwt>0</asrwt>
<pdfrwt beam="1">  1       21 0.67155269E-02 0.22538693E+03</pdfrwt>
<pdfrwt beam="2">  1       21 0.29879832E+00 0.22538693E+03</pdfrwt>
<totfact> 0.54411125E+03</totfact>
</mgrwt>
</event>
<event>
 4    1  0.3980289E+000  0.1838732E+03  0.7546771E-02  0.1164106E+00
         21   -1    0    0  501  502  0.00000000000E+00  0.00000000000E+00  0.25018079359E+03  0.25018079359E+03  0.00000000000E+00 0.  1.
         21   -1    0    0  502  503 -0.00000000000E+00 -0.00000000000E+00 -0.15463079228E+03  0.15463079228E+03  0.00000000000E+00 0. -1.
          6    1    1    2  501    0  0.55811058576E+02 -0.27667025312E+02  0.11963610308E+03  0.21936758126E+03  0.17300000000E+03 0.  1.
         -6    1    1    2    0  503 -0.55811058576E+02  0.27667025312E+02 -0.24086101770E+02  0.18544400461E+03  0.17300000000E+03 0. -1.
<mgrwt>
<rscale>  2 0.18387316E+03</rscale>
<asrwt>0</asrwt>
<pdfrwt beam="1">  1       21 0.38489353E-01 0.18387316E+03</pdfrwt>
<pdfrwt beam="2">  1       21 0.23789353E-01 0.18387316E+03</pdfrwt>
<totfact> 0.10871440E+05</totfact>
</mgrwt>
</event>
<event>
 4    1  0.3980289E+000  0.2596526E+03  0.7546771E-02  0.1107352E+00
         21   -1    0    0  501  502  0.00000000000E+00  0.00000000000E+00  0.82555048799E+03  0.82555048799E+03  0.00000000000E+00 0.  1.
         21   -1    0    0  502  503 -0.00000000000E+00 -0.00000000000E+00 -0.21852530151E+03  0.21852530151E+03  0.00000000000E+00 0.  1.
          6    1    1    2  501    0  0.18203939099E+03 -0.65970733488E+02  0.71664397723E+03  0.76223229244E+03  0.17300000000E+03 0.  1.
         -6    1    1    2    0  503 -0.18203939099E+03  0.65970733488E+02 -0.10961879074E+03  0.28184349706E+03  0.17300000000E+03 0.  1.
<mgrwt>
<rscale>  2 0.25965261E+03</rscale>
<asrwt>0</asrwt>
<pdfrwt beam="1">  1       21 0.12700777E+00 0.25965261E+03</pdfrwt>
<pdfrwt beam="2">  1       21 0.33619278E-01 0.25965261E+03</pdfrwt>
<totfact> 0.37148684E+03</totfact>
</mgrwt>
</event>
<event>
 4    1  0.3980289E+000  0.2190080E+03  0.7546771E-02  0.1134625E+00
         21   -1    0    0  501  502  0.00000000000E+00  0.00000000000E+00  0.85653602993E+02  0.85653602993E+02  0.00000000000E+00 0. -1.
         21   -1    0    0  502  503 -0.00000000000E+00 -0.00000000000E+00 -0.56148848958E+03  0.56148848958E+03  0.00000000000E+00 0. -1.
          6    1    1    2  501    0  0.13291898488E+03  0.19185123434E+02 -0.25467454175E+03  0.33589231566E+03  0.17300000000E+03 0. -1.
         -6    1    1    2    0  503 -0.13291898488E+03 -0.19185123434E+02 -0.22116034483E+03  0.31124977691E+03  0.17300000000E+03 0. -1.
<mgrwt>
<rscale>  2 0.21900805E+03</rscale>
<asrwt>0</asrwt>
<pdfrwt beam="1">  1       21 0.13177478E-01 0.21900805E+03</pdfrwt>
<pdfrwt beam="2">  1       21 0.86382842E-01 0.21900805E+03</pdfrwt>
<totfact> 0.56566670E+04</totfact>
</mgrwt>
</event>
<event>
 4    1  0.3980289E+000  0.1811478E+03  0.7546771E-02  0.1166697E+00
         21   -1    0    0  503  502  0.00000000000E+00  0.00000000000E+00  0.76865411151E+02  0.76865411151E+02  0.00000000000E+00 0.  1.
         21   -1    0    0  501  503 -0.00000000000E+00 -0.00000000000E+00 -0.71851821937E+03  0.71851821937E+03  0.00000000000E+00 0.  1.
          6    1    1    2  501    0 -0.47713310194E+02 -0.24677417645E+02 -0.57418077105E+03  0.60207814506E+03  0.17300000000E+03 0.  1.
         -6    1    1    2    0  502  0.47713310194E+02  0.24677417645E+02 -0.67472037172E+02  0.19330548547E+03  0.17300000000E+03 0.  1.
<mgrwt>
<rscale>  2 0.18114783E+03</rscale>
<asrwt>0</asrwt>
<pdfrwt beam="1">  1       21 0.11825448E-01 0.18114783E+03</pdfrwt>
<pdfrwt beam="2">  1       21 0.11054126E+00 0.18114783E+03</pdfrwt>
<totfact> 0.39120522E+04</totfact>
</mgrwt>
</event>
<event>
 4    1  0.3980289E+000  0.2295372E+03  0.7546771E-02  0.1126966E+00
         21   -1    0    0  503  502  0.00000000000E+00  0.00000000000E+00  0.76962302606E+03  0.76962302606E+03  0.00000000000E+00 0.  1.
         21   -1    0    0  501  503 -0.00000000000E+00 -0.00000000000E+00 -0.76036499428E+02  0.76036499428E+02  0.00000000000E+00 0.  1.
          6    1    1    2  501    0  0.13955973713E+03 -0.57283754826E+02  0.21330974399E+03  0.31335027633E+03  0.17300000000E+03 0.  1.
         -6    1    1    2    0  502 -0.13955973713E+03  0.57283754826E+02  0.48027678264E+03  0.53230924916E+03  0.17300000000E+03 0.  1.
<mgrwt>
<rscale>  2 0.22953725E+03</rscale>
<asrwt>0</asrwt>
<pdfrwt beam="1">  1       21 0.11840354E+00 0.22953725E+03</pdfrwt>
<pdfrwt beam="2">  1       21 0.11697924E-01 0.22953725E+03</pdfrwt>
<totfact> 0.32854666E+04</totfact>
</mgrwt>
</event>
<event>
 4    1  0.3980289E+000  0.1888143E+03  0.7546771E-02  0.1159535E+00
         21   -1    0    0  501  502  0.00000000000E+00  0.00000000000E+00  0.95883747251E+02  0.95883747251E+02  0.00000000000E+00 0.  1.
         21   -1    0    0  502  503 -0.00000000000E+00 -0.00000000000E+00 -0.52149652426E+03  0.52149652426E+03  0.00000000000E+00 0.  1.
          6    1    1    2  501    0  0.47784803783E+01  0.75491814331E+02 -0.47426126113E+02  0.19467944253E+03  0.17300000000E+03 0.  1.
         -6    1    1    2    0  503 -0.47784803783E+01 -0.75491814331E+02 -0.37818665090E+03  0.42270082898E+03  0.17300000000E+03 0.  1.
<mgrwt>
<rscale>  2 0.18881432E+03</rscale>
<asrwt>0</asrwt>
<pdfrwt beam="1">  1       21 0.14751346E-01 0.18881432E+03</pdfrwt>
<pdfrwt beam="2">  1       21 0.80230233E-01 0.18881432E+03</pdfrwt>
<totfact> 0.55359013E+04</totfact>
</mgrwt>
</event>
<event>
 4    1  0.3980289E+000  0.2057122E+03  0.7546771E-02  0.1145007E+00
         21   -1    0    0  501  502  0.00000000000E+00  0.00000000000E+00  0.34237982203E+03  0.34237982203E+03  0.00000000000E+00 0.  1.
         21   -1    0    0  502  503 -0.00000000000E+00 -0.00000000000E+00 -0.16645296366E+03  0.16645296366E+03  0.00000000000E+00 0.  1.
          6    1    1    2  501    0 -0.58605347755E+02 -0.94625127389E+02  0.21705541878E+03  0.29904942124E+03  0.17300000000E+03 0.  1.
         -6    1    1    2    0  503  0.58605347755E+02  0.94625127389E+02 -0.41128560418E+02  0.20978336445E+03  0.17300000000E+03 0.  1.
<mgrwt>
<rscale>  2 0.20571218E+03</rscale>
<asrwt>0</asrwt>
<pdfrwt beam="1">  1       21 0.52673819E-01 0.20571218E+03</pdfrwt>
<pdfrwt beam="2">  1       21 0.25608148E-01 0.20571218E+03</pdfrwt>
<totfact> 0.49113480E+04</totfact>
</mgrwt>
</event>
<event>
 4    1  0.3980289E+000  0.1736808E+03  0.7546771E-02  0.1174063E+00
         21   -1    0    0  501  502  0.00000000000E+00  0.00000000000E+00  0.10350567490E+04  0.10350567490E+04  0.00000000000E+00 0. -1.
         21   -1    0    0  502  503 -0.00000000000E+00 -0.00000000000E+00 -0.55429926124E+02  0.55429926124E+02  0.00000000000E+00 0. -1.
          6    1    1    2  501    0  0.58800203195E+01  0.14193735797E+02  0.86529193689E+03  0.88255037976E+03  0.17300000000E+03 0. -1.
         -6    1    1    2    0  503 -0.58800203195E+01 -0.14193735797E+02  0.11433488599E+03  0.20793629536E+03  0.17300000000E+03 0. -1.
<mgrwt>
<rscale>  2 0.17368085E+03</rscale>
<asrwt>0</asrwt>
<pdfrwt beam="1">  1       21 0.15923948E+00 0.17368085E+03</pdfrwt>
<pdfrwt beam="2">  1       21 0.85276817E-02 0.17368085E+03</pdfrwt>
<totfact> 0.27713915E+04</totfact>
</mgrwt>
</event>
<event>
 4    1  0.3980289E+000  0.1874719E+03  0.7546771E-02  0.1160761E+00
         21   -1    0    0  503  502  0.00000000000E+00  0.00000000000E+00  0.13953024917E+04  0.13953024917E+04  0.00000000000E+00 0.  1.
         21   -1    0    0  501  503 -0.00000000000E+00 -0.00000000000E+00 -0.48211681870E+02  0.48211681870E+02  0.00000000000E+00 0.  1.
          6    1    1    2  501    0  0.56402104670E+02 -0.45116791640E+02  0.17477967632E+03  0.25630773994E+03  0.17300000000E+03 0.  1.
         -6    1    1    2    0  502 -0.56402104670E+02  0.45116791640E+02  0.11723111335E+04  0.11872064336E+04  0.17300000000E+03 0.  1.
<mgrwt>
<rscale>  2 0.18747192E+03</rscale>
<asrwt>0</asrwt>
<pdfrwt beam="1">  1       21 0.21466189E+00 0.18747192E+03</pdfrwt>
<pdfrwt beam="2">  1       21 0.74171829E-02 0.18747192E+03</pdfrwt>
<totfact> 0.14915808E+04</totfact>
</mgrwt>
</event>
<event>
 4    1  0.3980289E+000  0.2064249E+03  0.7546771E-02  0.1144429E+00
         21   -1    0    0  501  502  0.00000000000E+00  0.00000000000E+00  0.14881477530E+03  0.14881477530E+03  0.00000000000E+00 0.  1.
         21   -1    0    0  502  503 -0.00000000000E+00 -0.00000000000E+00 -0.37801337068E+03  0.37801337068E+03  0.00000000000E+00 0. -1.
          6    1    1    2  501    0  0.71546304867E+02  0.86967517620E+02  0.15122619306E+02  0.20697805796E+03  0.17300000000E+03 0.  1.
         -6    1    1    2    0  503 -0.71546304867E+02 -0.86967517620E+02 -0.24432121469E+03  0.31985008803E+03  0.17300000000E+03 0. -1.
<mgrwt>
<rscale>  2 0.20642486E+03</rscale>
<asrwt>0</asrwt>
<pdfrwt beam="1">  1       21 0.22894581E-01 0.20642486E+03</pdfrwt>
<pdfrwt beam="2">  1       21 0.58155903E-01 0.20642486E+03</pdfrwt>
<totfact> 0.49265194E+04</totfact>
</mgrwt>
</event>
<event>
 4    1  0.3980289E+000  0.1959052E+03  0.7546771E-02  0.1153240E+00
         21   -1    0    0  501  502  0.00000000000E+00  0.00000000000E+00  0.55845311891E+03  0.55845311891E+03  0.00000000000E+00 0.  1.
         21   -1    0    0  502  503 -0.00000000000E+00 -0.00000000000E+00 -0.23954071935E+03  0.23954071935E+03  0.00000000000E+00 0.  1.
          6    1    1    2  501    0  0.88761984844E+02  0.23899038211E+02  0.49639086022E+03  0.53365039126E+03  0.17300000000E+03 0.  1.
         -6    1    1    2    0  503 -0.88761984844E+02 -0.23899038211E+02 -0.17747846065E+03  0.26434344701E+03  0.17300000000E+03 0.  1.
<mgrwt>
<rscale>  2 0.19590522E+03</rscale>
<asrwt>0</asrwt>
<pdfrwt beam="1">  1       21 0.85915864E-01 0.19590522E+03</pdfrwt>
<pdfrwt beam="2">  1       21 0.36852418E-01 0.19590522E+03</pdfrwt>
<totfact> 0.82836428E+03</totfact>
</mgrwt>
</event>
<event>
 4    1  0.3980289E+000  0.2061301E+03  0.7546771E-02  0.1144668E+00
         21   -1    0    0  503  502  0.00000000000E+00  0.00000000000E+00  0.14779623553E+03  0.14779623553E+03  0.00000000000E+00 0. -1.
         21   -1    0    0  501  503 -0.00000000000E+00 -0.00000000000E+00 -0.38226600905E+03  0.38226600905E+03  0.00000000000E+00 0.  1.
          6    1    1    2  501    0  0.92677575759E+02  0.63019695072E+02 -0.24920277797E+03  0.32340630724E+03  0.17300000000E+03 0.  1.
         -6    1    1    2    0  502 -0.92677575759E+02 -0.63019695072E+02  0.14733004448E+02  0.20665593733E+03  0.17300000000E+03 0. -1.
<mgrwt>
<rscale>  2 0.20613009E+03</rscale>
<asrwt>0</asrwt>
<pdfrwt beam="1">  1       21 0.22737882E-01 0.20613009E+03</pdfrwt>
<pdfrwt beam="2">  1       21 0.58810155E-01 0.20613009E+03</pdfrwt>
<totfact> 0.48735623E+04</totfact>
</mgrwt>
</event>
<event>
 4    1  0.3980289E+000  0.1777502E+03  0.7546771E-02  0.1169998E+00
         21   -1    0    0  501  502  0.00000000000E+00  0.00000000000E+00  0.63049995975E+02  0.63049995975E+02  0.00000000000E+00 0.  1.
         21   -1    0    0  502  503 -0.00000000000E+00 -0.00000000000E+00 -0.60544991000E+03  0.60544991000E+03  0.00000000000E+00 0.  1.
          6    1    1    2  501    0 -0.40795140255E+02 -0.13806298361E+01 -0.13244388702E+03  0.22166761788E+03  0.17300000000E+03 0.  1.
         -6    1    1    2    0  503  0.40795140255E+02  0.13806298361E+01 -0.40995602701E+03  0.44683228810E+03  0.17300000000E+03 0.  1.
<mgrwt>
<rscale>  2 0.17775025E+03</rscale>
<asrwt>0</asrwt>
<pdfrwt beam="1">  1       21 0.96999994E-02 0.17775025E+03</pdfrwt>
<pdfrwt beam="2">  1       21 0.93146139E-01 0.17775025E+03</pdfrwt>
<totfact> 0.83590095E+04</totfact>
</mgrwt>
</event>
<event>
 4    1  0.3980289E+000  0.2583018E+03  0.7546771E-02  0.1108168E+00
         21   -1    0    0  501  502  0.00000000000E+00  0.00000000000E+00  0.10372357913E+03  0.10372357913E+03  0.00000000000E+00 0.  1.
         21   -1    0    0  502  503 -0.00000000000E+00 -0.00000000000E+00 -0.75061167457E+03  0.75061167457E+03  0.00000000000E+00 0.  1.
          6    1    1    2  501    0  0.19140756868E+03 -0.12407533778E+02 -0.16188812679E+03  0.30484023658E+03  0.17300000000E+03 0.  1.
         -6    1    1    2    0  503 -0.19140756868E+03  0.12407533778E+02 -0.48499996865E+03  0.54949501712E+03  0.17300000000E+03 0.  1.
<mgrwt>
<rscale>  2 0.25830177E+03</rscale>
<asrwt>0</asrwt>
<pdfrwt beam="1">  1       21 0.15957474E-01 0.25830177E+03</pdfrwt>
<pdfrwt beam="2">  1       21 0.11547872E+00 0.25830177E+03</pdfrwt>
<totfact> 0.19591075E+04</totfact>
</mgrwt>
</event>
<event>
 4    1  0.3980289E+000  0.2260186E+03  0.7546771E-02  0.1129474E+00
         21   -1    0    0  503  502  0.00000000000E+00  0.00000000000E+00  0.56801872313E+02  0.56801872313E+02  0.00000000000E+00 0. -1.
         21   -1    0    0  501  503 -0.00000000000E+00 -0.00000000000E+00 -0.89935214405E+03  0.89935214405E+03  0.00000000000E+00 0.  1.
          6    1    1    2  501    0  0.11713671626E+03  0.86222951952E+02 -0.41981287270E+03  0.47678848122E+03  0.17300000000E+03 0.  1.
         -6    1    1    2    0  502 -0.11713671626E+03 -0.86222951952E+02 -0.42273739904E+03  0.47936553514E+03  0.17300000000E+03 0.  1.
<mgrwt>
<rscale>  2 0.22601860E+03</rscale>
<asrwt>0</asrwt>
<pdfrwt beam="1">  1       21 0.87387497E-02 0.22601860E+03</pdfrwt>
<pdfrwt beam="2">  1       21 0.13836187E+00 0.22601860E+03</pdfrwt>
<totfact> 0.37234947E+04</totfact>
</mgrwt>
</event>
<event>
 4    1  0.3980289E+000  0.1990453E+03  0.7546771E-02  0.1150547E+00
         21   -1    0    0  501  502  0.00000000000E+00  0.00000000000E+00  0.27061728332E+03  0.27061728332E+03  0.00000000000E+00 0.  1.
         21   -1    0    0  502  503 -0.00000000000E+00 -0.00000000000E+00 -0.36831349767E+03  0.36831349767E+03  0.00000000000E+00 0.  1.
          6    1    1    2  501    0 -0.85247103760E+02 -0.49223604313E+02  0.19912493204E+03  0.28154887761E+03  0.17300000000E+03 0.  1.
         -6    1    1    2    0  503  0.85247103760E+02  0.49223604313E+02 -0.29682114639E+03  0.35738190338E+03  0.17300000000E+03 0.  1.
<mgrwt>
<rscale>  2 0.19904530E+03</rscale>
<asrwt>0</asrwt>
<pdfrwt beam="1">  1       21 0.41633428E-01 0.19904530E+03</pdfrwt>
<pdfrwt beam="2">  1       21 0.56663615E-01 0.19904530E+03</pdfrwt>
<totfact> 0.16198800E+04</totfact>
</mgrwt>
</event>
<event>
 4    1  0.3980289E+000  0.2031598E+03  0.7546771E-02  0.1147100E+00
         21   -1    0    0  503  502  0.00000000000E+00  0.00000000000E+00  0.21621332283E+03  0.21621332283E+03  0.00000000000E+00 0.  1.
         21   -1    0    0  501  503 -0.00000000000E+00 -0.00000000000E+00 -0.37639883156E+03  0.37639883156E+03  0.00000000000E+00 0.  1.
          6    1    1    2  501    0  0.36837392651E+02  0.99939465804E+02 -0.28810729322E+03  0.35253326471E+03  0.17300000000E+03 0.  1.
         -6    1    1    2    0  502 -0.36837392651E+02 -0.99939465804E+02  0.12792178449E+03  0.24007888968E+03  0.17300000000E+03 0.  1.
<mgrwt>
<rscale>  2 0.20315977E+03</rscale>
<asrwt>0</asrwt>
<pdfrwt beam="1">  1       21 0.33263589E-01 0.20315977E+03</pdfrwt>
<pdfrwt beam="2">  1       21 0.57907512E-01 0.20315977E+03</pdfrwt>
<totfact> 0.24184402E+04</totfact>
</mgrwt>
</event>
<event>
 4    1  0.3980289E+000  0.2082165E+03  0.7546771E-02  0.1142986E+00
         21   -1    0    0  503  502  0.00000000000E+00  0.00000000000E+00  0.14521090985E+03  0.14521090985E+03  0.00000000000E+00 0. -1.
         21   -1    0    0  501  503 -0.00000000000E+00 -0.00000000000E+00 -0.45195462432E+03  0.45195462432E+03  0.00000000000E+00 0.  1.
          6    1    1    2  501    0  0.66942479804E+02  0.94571788157E+02 -0.32732123675E+03  0.38793467329E+03  0.17300000000E+03 0.  1.
         -6    1    1    2    0  502 -0.66942479804E+02 -0.94571788157E+02  0.20577522275E+02  0.20923086087E+03  0.17300000000E+03 0.  1.
<mgrwt>
<rscale>  2 0.20821652E+03</rscale>
<asrwt>0</asrwt>
<pdfrwt beam="1">  1       21 0.22340140E-01 0.20821652E+03</pdfrwt>
<pdfrwt beam="2">  1       21 0.69531479E-01 0.20821652E+03</pdfrwt>
<totfact> 0.34972978E+04</totfact>
</mgrwt>
</event>
<event>
 4    1  0.3980289E+000  0.1762839E+03  0.7546771E-02  0.1171449E+00
         21   -1    0    0  503  502  0.00000000000E+00  0.00000000000E+00  0.26806839558E+03  0.26806839558E+03  0.00000000000E+00 0.  1.
         21   -1    0    0  501  503 -0.00000000000E+00 -0.00000000000E+00 -0.13585584936E+03  0.13585584936E+03  0.00000000000E+00 0.  1.
          6    1    1    2  501    0 -0.20222533618E+02  0.27167503084E+02 -0.11248251155E+02  0.17664242764E+03  0.17300000000E+03 0.  1.
         -6    1    1    2    0  502  0.20222533618E+02 -0.27167503084E+02  0.14346079737E+03  0.22728181729E+03  0.17300000000E+03 0.  1.
<mgrwt>
<rscale>  2 0.17628393E+03</rscale>
<asrwt>0</asrwt>
<pdfrwt beam="1">  1       21 0.41241291E-01 0.17628393E+03</pdfrwt>
<pdfrwt beam="2">  1       21 0.20900900E-01 0.17628393E+03</pdfrwt>
<totfact> 0.12105049E+05</totfact>
</mgrwt>
</event>
<event>
 4    1  0.3980289E+000  0.2123810E+03  0.7546771E-02  0.1139694E+00
         21   -1    0    0  503  502  0.00000000000E+00  0.00000000000E+00  0.13995997944E+04  0.13995997944E+04  0.00000000000E+00 0.  1.
         21   -1    0    0  501  503 -0.00000000000E+00 -0.00000000000E+00 -0.39215066952E+02  0.39215066952E+02  0.00000000000E+00 0.  1.
          6    1    1    2  501    0  0.12199140395E+03  0.17169863802E+02  0.37651731493E+03  0.43228577967E+03  0.17300000000E+03 0.  1.
         -6    1    1    2    0  502 -0.12199140395E+03 -0.17169863802E+02  0.98386741257E+03  0.10065290817E+04  0.17300000000E+03 0.  1.
<mgrwt>
<rscale>  2 0.21238104E+03</rscale>
<asrwt>0</asrwt>
<pdfrwt beam="1">  1       21 0.21532301E+00 0.21238104E+03</pdfrwt>
<pdfrwt beam="2">  1       21 0.60330883E-02 0.21238104E+03</pdfrwt>
<totfact> 0.20682530E+04</totfact>
</mgrwt>
</event>
<event>
 4    1  0.3980289E+000  0.2104274E+03  0.7546771E-02  0.1141228E+00
         21   -1    0    0  501  502  0.00000000000E+00  0.00000000000E+00  0.89431479575E+02  0.89431479575E+02  0.00000000000E+00 0. -1.
         21   -1    0    0  502  503 -0.00000000000E+00 -0.00000000000E+00 -0.53857924546E+03  0.53857924546E+03  0.00000000000E+00 0.  1.
          6    1    1    2  501    0  0.59527044638E+02  0.10395778232E+03 -0.13538055358E+03  0.25021507516E+03  0.17300000000E+03 0. -1.
         -6    1    1    2    0  503 -0.59527044638E+02 -0.10395778232E+03 -0.31376721230E+03  0.37779564987E+03  0.17300000000E+03 0.  1.
<mgrwt>
<rscale>  2 0.21042740E+03</rscale>
<asrwt>0</asrwt>
<pdfrwt beam="1">  1       21 0.13758689E-01 0.21042740E+03</pdfrwt>
<pdfrwt beam="2">  1       21 0.82858345E-01 0.21042740E+03</pdfrwt>
<totfact> 0.57784804E+04</totfact>
</mgrwt>
</event>
<event>
 4    1  0.3980289E+000  0.1734828E+03  0.7546771E-02  0.1174264E+00
         21   -1    0    0  501  502  0.00000000000E+00  0.00000000000E+00  0.54354077527E+02  0.54354077527E+02  0.00000000000E+00 0. -1.
         21   -1    0    0  502  503 -0.00000000000E+00 -0.00000000000E+00 -0.82567209899E+03  0.82567209899E+03  0.00000000000E+00 0. -1.
          6    1    1    2  501    0  0.97413737780E+01 -0.85088604497E+01 -0.13312639976E+03  0.21867540644E+03  0.17300000000E+03 0.  1.
         -6    1    1    2    0  503 -0.97413737780E+01  0.85088604497E+01 -0.63819162171E+03  0.66135077008E+03  0.17300000000E+03 0.  1.
<mgrwt>
<rscale>  2 0.17348284E+03</rscale>
<asrwt>0</asrwt>
<pdfrwt beam="1">  1       21 0.83621655E-02 0.17348284E+03</pdfrwt>
<pdfrwt beam="2">  1       21 0.12702648E+00 0.17348284E+03</pdfrwt>
<totfact> 0.51420358E+04</totfact>
</mgrwt>
</event>
<event>
 4    1  0.3980289E+000  0.2556250E+03  0.7546771E-02  0.1109801E+00
         21   -1    0    0  503  502  0.00000000000E+00  0.00000000000E+00  0.16700529616E+03  0.16700529616E+03  0.00000000000E+00 0.  1.
         21   -1    0    0  501  503 -0.00000000000E+00 -0.00000000000E+00 -0.61727637937E+03  0.61727637937E+03  0.00000000000E+00 0. -1.
          6    1    1    2  501    0 -0.11082796338E+03  0.15209304390E+03 -0.46241643504E+03  0.52836832878E+03  0.17300000000E+03 0.  1.
         -6    1    1    2    0  502  0.11082796338E+03 -0.15209304390E+03  0.12145351830E+02  0.25591334674E+03  0.17300000000E+03 0.  1.
<mgrwt>
<rscale>  2 0.25562498E+03</rscale>
<asrwt>0</asrwt>
<pdfrwt beam="1">  1       21 0.25693122E-01 0.25562498E+03</pdfrwt>
<pdfrwt beam="2">  1       21 0.94965598E-01 0.25562498E+03</pdfrwt>
<totfact> 0.12833046E+04</totfact>
</mgrwt>
</event>
<event>
 4    1  0.3980289E+000  0.1916033E+03  0.7546771E-02  0.1157023E+00
         21   -1    0    0  503  502  0.00000000000E+00  0.00000000000E+00  0.19623624614E+03  0.19623624614E+03  0.00000000000E+00 0.  1.
         21   -1    0    0  501  503 -0.00000000000E+00 -0.00000000000E+00 -0.34240660029E+03  0.34240660029E+03  0.00000000000E+00 0.  1.
          6    1    1    2  501    0 -0.43096500937E+02  0.70182055294E+02 -0.25447925104E+03  0.31854594408E+03  0.17300000000E+03 0.  1.
         -6    1    1    2    0  502  0.43096500937E+02 -0.70182055294E+02  0.10830889689E+03  0.22009690235E+03  0.17300000000E+03 0.  1.
<mgrwt>
<rscale>  2 0.19160331E+03</rscale>
<asrwt>0</asrwt>
<pdfrwt beam="1">  1       21 0.30190192E-01 0.19160331E+03</pdfrwt>
<pdfrwt beam="2">  1       21 0.52677938E-01 0.19160331E+03</pdfrwt>
<totfact> 0.35978839E+04</totfact>
</mgrwt>
</event>
<event>
 4    1  0.3980289E+000  0.1847295E+03  0.7546771E-02  0.1163303E+00
         21   -1    0    0  503  502  0.00000000000E+00  0.00000000000E+00  0.12397531957E+03  0.12397531957E+03  0.00000000000E+00 0. -1.
         21   -1    0    0  501  503 -0.00000000000E+00 -0.00000000000E+00 -0.34791005105E+03  0.34791005105E+03  0.00000000000E+00 0. -1.
          6    1    1    2  501    0  0.63793580860E+02 -0.11240873986E+02 -0.21978809901E+03  0.28710936361E+03  0.17300000000E+03 0. -1.
         -6    1    1    2    0  502 -0.63793580860E+02  0.11240873986E+02 -0.41466324773E+01  0.18477600701E+03  0.17300000000E+03 0. -1.
<mgrwt>
<rscale>  2 0.18472947E+03</rscale>
<asrwt>0</asrwt>
<pdfrwt beam="1">  1       21 0.19073126E-01 0.18472947E+03</pdfrwt>
<pdfrwt beam="2">  1       21 0.53524623E-01 0.18472947E+03</pdfrwt>
<totfact> 0.83571129E+04</totfact>
</mgrwt>
</event>
<event>
 4    1  0.3980289E+000  0.1897797E+03  0.7546771E-02  0.1158660E+00
         21   -1    0    0  501  502  0.00000000000E+00  0.00000000000E+00  0.56449916385E+03  0.56449916385E+03  0.00000000000E+00 0.  1.
         21   -1    0    0  502  503 -0.00000000000E+00 -0.00000000000E+00 -0.65491530731E+02  0.65491530731E+02  0.00000000000E+00 0.  1.
          6    1    1    2  501    0  0.59672625311E+02  0.50264273881E+02  0.30009349000E+03  0.35506678552E+03  0.17300000000E+03 0.  1.
         -6    1    1    2    0  503 -0.59672625311E+02 -0.50264273881E+02  0.19891414312E+03  0.27492390906E+03  0.17300000000E+03 0.  1.
<mgrwt>
<rscale>  2 0.18977966E+03</rscale>
<asrwt>0</asrwt>
<pdfrwt beam="1">  1       21 0.86846022E-01 0.18977966E+03</pdfrwt>
<pdfrwt beam="2">  1       21 0.10075620E-01 0.18977966E+03</pdfrwt>
<totfact> 0.91444297E+04</totfact>
</mgrwt>
</event>
<event>
 4    1  0.3980289E+000  0.1859263E+03  0.7546771E-02  0.1162188E+00
         21   -1    0    0  503  502  0.00000000000E+00  0.00000000000E+00  0.29353703739E+02  0.29353703739E+02  0.00000000000E+00 0. -1.
         21   -1    0    0  501  503 -0.00000000000E+00 -0.00000000000E+00 -0.23887185433E+04  0.23887185433E+04  0.00000000000E+00 0. -1.
          6    1    1    2  501    0  0.62494704465E+02 -0.27092184537E+02 -0.20405572616E+04  0.20490101299E+04  0.17300000000E+03 0. -1.
         -6    1    1    2    0  502 -0.62494704465E+02  0.27092184537E+02 -0.31880757800E+03  0.36906211719E+03  0.17300000000E+03 0. -1.
<mgrwt>
<rscale>  2 0.18592626E+03</rscale>
<asrwt>0</asrwt>
<pdfrwt beam="1">  1       21 0.45159537E-02 0.18592626E+03</pdfrwt>
<pdfrwt beam="2">  1       21 0.36749522E+00 0.18592626E+03</pdfrwt>
<totfact> 0.44371502E+03</totfact>
</mgrwt>
</event>
<event>
 4    1  0.3980289E+000  0.2417179E+03  0.7546771E-02  0.1118654E+00
         21   -1    0    0  501  502  0.00000000000E+00  0.00000000000E+00  0.53149744084E+03  0.53149744084E+03  0.00000000000E+00 0.  1.
         21   -1    0    0  502  503 -0.00000000000E+00 -0.00000000000E+00 -0.14721067014E+03  0.14721067014E+03  0.00000000000E+00 0.  1.
          6    1    1    2  501    0 -0.16879418649E+03  0.26547217686E+01  0.36291871428E+03  0.43604760992E+03  0.17300000000E+03 0.  1.
         -6    1    1    2    0  503  0.16879418649E+03 -0.26547217686E+01  0.21368056420E+02  0.24266050106E+03  0.17300000000E+03 0.  1.
<mgrwt>
<rscale>  2 0.24171786E+03</rscale>
<asrwt>0</asrwt>
<pdfrwt beam="1">  1       21 0.81768836E-01 0.24171786E+03</pdfrwt>
<pdfrwt beam="2">  1       21 0.22647796E-01 0.24171786E+03</pdfrwt>
<totfact> 0.23285414E+04</totfact>
</mgrwt>
</event>
<event>
 4    1  0.3980289E+000  0.1962591E+03  0.7546771E-02  0.1152934E+00
         21   -1    0    0  501  502  0.00000000000E+00  0.00000000000E+00  0.89167363154E+02  0.89167363154E+02  0.00000000000E+00 0. -1.
         21   -1    0    0  502  503 -0.00000000000E+00 -0.00000000000E+00 -0.63141371196E+03  0.63141371196E+03  0.00000000000E+00 0. -1.
          6    1    1    2  501    0  0.92514241625E+02  0.54541183798E+01 -0.68632070839E+02  0.20791342780E+03  0.17300000000E+03 0. -1.
         -6    1    1    2    0  503 -0.92514241625E+02 -0.54541183798E+01 -0.47361427797E+03  0.51266764732E+03  0.17300000000E+03 0. -1.
<mgrwt>
<rscale>  2 0.19625909E+03</rscale>
<asrwt>0</asrwt>
<pdfrwt beam="1">  1       21 0.13718056E-01 0.19625909E+03</pdfrwt>
<pdfrwt beam="2">  1       21 0.97140571E-01 0.19625909E+03</pdfrwt>
<totfact> 0.40479133E+04</totfact>
</mgrwt>
</event>
<event>
 4    1  0.3980289E+000  0.2023531E+03  0.7546771E-02  0.1147769E+00
         21   -1    0    0  501  502  0.00000000000E+00  0.00000000000E+00  0.14228361526E+03  0.14228361526E+03  0.00000000000E+00 0.  1.
         21   -1    0    0  502  503 -0.00000000000E+00 -0.00000000000E+00 -0.31477668920E+03  0.31477668920E+03  0.00000000000E+00 0.  1.
          6    1    1    2  501    0 -0.91019715748E+02  0.52279746888E+02 -0.19323460612E+02  0.20327360065E+03  0.17300000000E+03 0.  1.
         -6    1    1    2    0  503  0.91019715748E+02 -0.52279746888E+02 -0.15316961333E+03  0.25378670382E+03  0.17300000000E+03 0.  1.
<mgrwt>
<rscale>  2 0.20235306E+03</rscale>
<asrwt>0</asrwt>
<pdfrwt beam="1">  1       21 0.21889787E-01 0.20235306E+03</pdfrwt>
<pdfrwt beam="2">  1       21 0.48427182E-01 0.20235306E+03</pdfrwt>
<totfact> 0.79024190E+04</totfact>
</mgrwt>
</event>
<event>
 4    1  0.3980289E+000  0.2107287E+03  0.7546771E-02  0.1140990E+00
         21   -1    0    0  501  502  0.00000000000E+00  0.00000000000E+00  0.34684901166E+03  0.34684901166E+03  0.00000000000E+00 0. -1.
         21   -1    0    0  502  503 -0.00000000000E+00 -0.00000000000E+00 -0.29800184232E+03  0.29800184232E+03  0.00000000000E+00 0.  1.
          6    1    1    2  501    0  0.11275313549E+03  0.42003758734E+02  0.26792983786E+03  0.34087091886E+03  0.17300000000E+03 0. -1.
         -6    1    1    2    0  503 -0.11275313549E+03 -0.42003758734E+02 -0.21908266852E+03  0.30397993512E+03  0.17300000000E+03 0.  1.
<mgrwt>
<rscale>  2 0.21072870E+03</rscale>
<asrwt>0</asrwt>
<pdfrwt beam="1">  1       21 0.53361386E-01 0.21072870E+03</pdfrwt>
<pdfrwt beam="2">  1       21 0.45846437E-01 0.21072870E+03</pdfrwt>
<totfact> 0.14991311E+04</totfact>
</mgrwt>
</event>
<event>
 4    1  0.3980289E+000  0.1796608E+03  0.7546771E-02  0.1168132E+00
         21   -1    0    0  501  502  0.00000000000E+00  0.00000000000E+00  0.51098146168E+03  0.51098146168E+03  0.00000000000E+00 0. -1.
         21   -1    0    0  502  503 -0.00000000000E+00 -0.00000000000E+00 -0.63547023541E+02  0.63547023541E+02  0.00000000000E+00 0. -1.
          6    1    1    2  501    0  0.37589089473E+02 -0.30595325958E+02  0.24588331864E+03  0.30452687895E+03  0.17300000000E+03 0. -1.
         -6    1    1    2    0  503 -0.37589089473E+02  0.30595325958E+02  0.20155111950E+03  0.27000160627E+03  0.17300000000E+03 0. -1.
<mgrwt>
<rscale>  2 0.17966083E+03</rscale>
<asrwt>0</asrwt>
<pdfrwt beam="1">  1       21 0.78612530E-01 0.17966083E+03</pdfrwt>
<pdfrwt beam="2">  1       21 0.97764655E-02 0.17966083E+03</pdfrwt>
<totfact> 0.12140394E+05</totfact>
</mgrwt>
</event>
<event>
 4    1  0.3980289E+000  0.2055819E+03  0.7546771E-02  0.1145113E+00
         21   -1    0    0  501  502  0.00000000000E+00  0.00000000000E+00  0.59161357759E+02  0.59161357759E+02  0.00000000000E+00 0. -1.
         21   -1    0    0  502  503 -0.00000000000E+00 -0.00000000000E+00 -0.11579533497E+04  0.11579533497E+04  0.00000000000E+00 0.  1.
          6    1    1    2  501    0  0.10850647034E+03 -0.23691330035E+02 -0.17274709943E+03  0.26852466104E+03  0.17300000000E+03 0. -1.
         -6    1    1    2    0  503 -0.10850647034E+03  0.23691330035E+02 -0.92604489253E+03  0.94859004644E+03  0.17300000000E+03 0.  1.
<mgrwt>
<rscale>  2 0.20558194E+03</rscale>
<asrwt>0</asrwt>
<pdfrwt beam="1">  1       21 0.91017482E-02 0.20558194E+03</pdfrwt>
<pdfrwt beam="2">  1       21 0.17814665E+00 0.20558194E+03</pdfrwt>
<totfact> 0.17774275E+04</totfact>
</mgrwt>
</event>
<event>
 4    1  0.3980289E+000  0.1811886E+03  0.7546771E-02  0.1166658E+00
         21   -1    0    0  501  502  0.00000000000E+00  0.00000000000E+00  0.17824906003E+03  0.17824906003E+03  0.00000000000E+00 0. -1.
         21   -1    0    0  502  503 -0.00000000000E+00 -0.00000000000E+00 -0.26357739006E+03  0.26357739006E+03  0.00000000000E+00 0. -1.
          6    1    1    2  501    0  0.26008320843E+02  0.47158126284E+02  0.78585293765E+02  0.19749675953E+03  0.17300000000E+03 0. -1.
         -6    1    1    2    0  503 -0.26008320843E+02 -0.47158126284E+02 -0.16391362379E+03  0.24432969056E+03  0.17300000000E+03 0. -1.
<mgrwt>
<rscale>  2 0.18118864E+03</rscale>
<asrwt>0</asrwt>
<pdfrwt beam="1">  1       21 0.27422932E-01 0.18118864E+03</pdfrwt>
<pdfrwt beam="2">  1       21 0.40550368E-01 0.18118864E+03</pdfrwt>
<totfact> 0.74671379E+04</totfact>
</mgrwt>
</event>
<event>
 4    1  0.3980289E+000  0.1745423E+03  0.7546771E-02  0.1173192E+00
         21   -1    0    0  501  502  0.00000000000E+00  0.00000000000E+00  0.64359797001E+02  0.64359797001E+02  0.00000000000E+00 0. -1.
         21   -1    0    0  502  503 -0.00000000000E+00 -0.00000000000E+00 -0.48311584578E+03  0.48311584578E+03  0.00000000000E+00 0. -1.
          6    1    1    2  501    0  0.31920068973E+01 -0.22930520517E+02 -0.17046771772E+03  0.24397590140E+03  0.17300000000E+03 0. -1.
         -6    1    1    2    0  503 -0.31920068973E+01  0.22930520517E+02 -0.24828833106E+03  0.30349974138E+03  0.17300000000E+03 0. -1.
<mgrwt>
<rscale>  2 0.17454225E+03</rscale>
<asrwt>0</asrwt>
<pdfrwt beam="1">  1       21 0.99015075E-02 0.17454225E+03</pdfrwt>
<pdfrwt beam="2">  1       21 0.74325512E-01 0.17454225E+03</pdfrwt>
<totfact> 0.13482814E+05</totfact>
</mgrwt>
</event>
<event>
 4    1  0.3980289E+000  0.1869472E+03  0.7546771E-02  0.1161244E+00
         21   -1    0    0  501  502  0.00000000000E+00  0.00000000000E+00  0.20029420574E+03  0.20029420574E+03  0.00000000000E+00 0.  1.
         21   -1    0    0  502  503 -0.00000000000E+00 -0.00000000000E+00 -0.28866927235E+03  0.28866927235E+03  0.00000000000E+00 0.  1.
          6    1    1    2  501    0 -0.99841789947E+01  0.70146892392E+02  0.10957141716E+03  0.21669140685E+03  0.17300000000E+03 0.  1.
         -6    1    1    2    0  503  0.99841789947E+01 -0.70146892392E+02 -0.19794648377E+03  0.27227207125E+03  0.17300000000E+03 0.  1.
<mgrwt>
<rscale>  2 0.18694724E+03</rscale>
<asrwt>0</asrwt>
<pdfrwt beam="1">  1       21 0.30814494E-01 0.18694724E+03</pdfrwt>
<pdfrwt beam="2">  1       21 0.44410657E-01 0.18694724E+03</pdfrwt>
<totfact> 0.49369460E+04</totfact>
</mgrwt>
</event>
<event>
 4    1  0.3980289E+000  0.2180058E+03  0.7546771E-02  0.1135379E+00
         21   -1    0    0  503  502  0.00000000000E+00  0.00000000000E+00  0.57258988297E+03  0.57258988297E+03  0.00000000000E+00 0. -1.
         21   -1    0    0  501  503 -0.00000000000E+00 -0.00000000000E+00 -0.96447919227E+02  0.96447919227E+02  0.00000000000E+00 0. -1.
          6    1    1    2  501    0  0.11685216535E+03  0.62794041850E+02  0.11317232147E+03  0.24563080952E+03  0.17300000000E+03 0. -1.
         -6    1    1    2    0  502 -0.11685216535E+03 -0.62794041850E+02  0.36296964227E+03  0.42340699268E+03  0.17300000000E+03 0. -1.
<mgrwt>
<rscale>  2 0.21800578E+03</rscale>
<asrwt>0</asrwt>
<pdfrwt beam="1">  1       21 0.88090749E-01 0.21800578E+03</pdfrwt>
<pdfrwt beam="2">  1       21 0.14838142E-01 0.21800578E+03</pdfrwt>
<totfact> 0.43603607E+04</totfact>
</mgrwt>
</event>
<event>
 4    1  0.3980289E+000  0.1830867E+03  0.7546771E-02  0.1164849E+00
         21   -1    0    0  501  502  0.00000000000E+00  0.00000000000E+00  0.52969204768E+02  0.52969204768E+02  0.00000000000E+00 0. -1.
         21   -1    0    0  502  503 -0.00000000000E+00 -0.00000000000E+00 -0.63501849409E+03  0.63501849409E+03  0.00000000000E+00 0. -1.
          6    1    1    2  501    0 -0.80771732158E+01 -0.59384222289E+02 -0.27084986483E+03  0.32692564271E+03  0.17300000000E+03 0. -1.
         -6    1    1    2    0  503  0.80771732158E+01  0.59384222289E+02 -0.31119942448E+03  0.36106205614E+03  0.17300000000E+03 0. -1.
<mgrwt>
<rscale>  2 0.18308666E+03</rscale>
<asrwt>0</asrwt>
<pdfrwt beam="1">  1       21 0.81491085E-02 0.18308666E+03</pdfrwt>
<pdfrwt beam="2">  1       21 0.97695152E-01 0.18308666E+03</pdfrwt>
<totfact> 0.10119296E+05</totfact>
</mgrwt>
</event>
<event>
 4    1  0.3980289E+000  0.2120859E+03  0.7546771E-02  0.1139925E+00
         21   -1    0    0  501  502  0.00000000000E+00  0.00000000000E+00  0.10910786845E+04  0.10910786845E+04  0.00000000000E+00 0. -1.
         21   -1    0    0  502  503 -0.00000000000E+00 -0.00000000000E+00 -0.44218238096E+02  0.44218238096E+02  0.00000000000E+00 0. -1.
          6    1    1    2  501    0 -0.10025953389E+03 -0.70706892051E+02  0.67110336178E+03  0.70381827265E+03  0.17300000000E+03 0. -1.
         -6    1    1    2    0  503  0.10025953389E+03  0.70706892051E+02  0.37575708466E+03  0.43147864998E+03  0.17300000000E+03 0. -1.
<mgrwt>
<rscale>  2 0.21208592E+03</rscale>
<asrwt>0</asrwt>
<pdfrwt beam="1">  1       21 0.16785824E+00 0.21208592E+03</pdfrwt>
<pdfrwt beam="2">  1       21 0.68028067E-02 0.21208592E+03</pdfrwt>
<totfact> 0.34684335E+04</totfact>
</mgrwt>
</event>
<event>
 4    1  0.3980289E+000  0.2094790E+03  0.7546771E-02  0.1141979E+00
         21   -1    0    0  503  502  0.00000000000E+00  0.00000000000E+00  0.70675456393E+03  0.70675456393E+03  0.00000000000E+00 0. -1.
         21   -1    0    0  501  503 -0.00000000000E+00 -0.00000000000E+00 -0.24417368886E+03  0.24417368886E+03  0.00000000000E+00 0. -1.
          6    1    1    2  501    0 -0.11396386121E+03  0.31059673714E+02 -0.17929676314E+03  0.27573319399E+03  0.17300000000E+03 0. -1.
         -6    1    1    2    0  502  0.11396386121E+03 -0.31059673714E+02  0.64187763821E+03  0.67519505880E+03  0.17300000000E+03 0. -1.
<mgrwt>
<rscale>  2 0.20947903E+03</rscale>
<asrwt>0</asrwt>
<pdfrwt beam="1">  1       21 0.10873147E+00 0.20947903E+03</pdfrwt>
<pdfrwt beam="2">  1       21 0.37565183E-01 0.20947903E+03</pdfrwt>
<totfact> 0.45292589E+03</totfact>
</mgrwt>
</event>
<event>
 4    1  0.3980289E+000  0.1810752E+03  0.7546771E-02  0.1166766E+00
         21   -1    0    0  501  502  0.00000000000E+00  0.00000000000E+00  0.90109131235E+02  0.90109131235E+02  0.00000000000E+00 0.  1.
         21   -1    0    0  502  503 -0.00000000000E+00 -0.00000000000E+00 -0.36779252290E+03  0.36779252290E+03  0.00000000000E+00 0.  1.
          6    1    1    2  501    0 -0.52176643991E+02 -0.11697382461E+02 -0.11520496112E+03  0.21461690055E+03  0.17300000000E+03 0.  1.
         -6    1    1    2    0  503  0.52176643991E+02  0.11697382461E+02 -0.16247843054E+03  0.24328475358E+03  0.17300000000E+03 0.  1.
<mgrwt>
<rscale>  2 0.18107521E+03</rscale>
<asrwt>0</asrwt>
<pdfrwt beam="1">  1       21 0.13862943E-01 0.18107521E+03</pdfrwt>
<pdfrwt beam="2">  1       21 0.56583465E-01 0.18107521E+03</pdfrwt>
<totfact> 0.13346655E+05</totfact>
</mgrwt>
</event>
<event>
 4    1  0.3980289E+000  0.5863429E+03  0.7546771E-02  0.9934152E-01
         21   -1    0    0  503  502  0.00000000000E+00  0.00000000000E+00  0.33846844544E+04  0.33846844544E+04  0.00000000000E+00 0. -1.
         21   -1    0    0  501  503 -0.00000000000E+00 -0.00000000000E+00 -0.14420853888E+03  0.14420853888E+03  0.00000000000E+00 0. -1.
          6    1    1    2  501    0  0.54062351947E+03  0.14695296542E+03  0.66085777517E+03  0.88347663402E+03  0.17300000000E+03 0. -1.
         -6    1    1    2    0  502 -0.54062351947E+03 -0.14695296542E+03  0.25796181403E+04  0.26454163592E+04  0.17300000000E+03 0. -1.
<mgrwt>
<rscale>  2 0.58634287E+03</rscale>
<asrwt>0</asrwt>
<pdfrwt beam="1">  1       21 0.52072063E+00 0.58634287E+03</pdfrwt>
<pdfrwt beam="2">  1       21 0.22185932E-01 0.58634287E+03</pdfrwt>
<totfact> 0.17043600E+01</totfact>
</mgrwt>
</event>
<event>
 4    1  0.3980289E+000  0.2557407E+03  0.7546771E-02  0.1109730E+00
         21   -1    0    0  501  502  0.00000000000E+00  0.00000000000E+00  0.18659906672E+04  0.18659906672E+04  0.00000000000E+00 0.  1.
         21   -1    0    0  502  503 -0.00000000000E+00 -0.00000000000E+00 -0.35082956813E+02  0.35082956813E+02  0.00000000000E+00 0.  1.
          6    1    1    2  501    0 -0.58857107748E+02  0.17891381902E+03  0.88640115954E+03  0.92255640988E+03  0.17300000000E+03 0.  1.
         -6    1    1    2    0  503  0.58857107748E+02 -0.17891381902E+03  0.94450655087E+03  0.97851721416E+03  0.17300000000E+03 0.  1.
<mgrwt>
<rscale>  2 0.25574072E+03</rscale>
<asrwt>0</asrwt>
<pdfrwt beam="1">  1       21 0.28707541E+00 0.25574072E+03</pdfrwt>
<pdfrwt beam="2">  1       21 0.53973794E-02 0.25574072E+03</pdfrwt>
<totfact> 0.90277979E+03</totfact>
</mgrwt>
</event>
<event>
 4    1  0.3980289E+000  0.2638786E+03  0.7546771E-02  0.1104835E+00
         21   -1    0    0  503  502  0.00000000000E+00  0.00000000000E+00  0.14217710967E+04  0.14217710967E+04  0.00000000000E+00 0. -1.
         21   -1    0    0  501  503 -0.00000000000E+00 -0.00000000000E+00 -0.48983338946E+02  0.48983338946E+02  0.00000000000E+00 0.  1.
          6    1    1    2  501    0 -0.18215315630E+03  0.80765870098E+02  0.67706928565E+03  0.72667373401E+03  0.17300000000E+03 0.  1.
         -6    1    1    2    0  502  0.18215315630E+03 -0.80765870098E+02  0.69571847207E+03  0.74408070160E+03  0.17300000000E+03 0. -1.
<mgrwt>
<rscale>  2 0.26387857E+03</rscale>
<asrwt>0</asrwt>
<pdfrwt beam="1">  1       21 0.21873398E+00 0.26387857E+03</pdfrwt>
<pdfrwt beam="2">  1       21 0.75358994E-02 0.26387857E+03</pdfrwt>
<totfact> 0.12933662E+04</totfact>
</mgrwt>
</event>
<event>
 4    1  0.3980289E+000  0.1840285E+03  0.7546771E-02  0.1163960E+00
         21   -1    0    0  501  502  0.00000000000E+00  0.00000000000E+00  0.17449671779E+04  0.17449671779E+04  0.00000000000E+00 0. -1.
         21   -1    0    0  502  503 -0.00000000000E+00 -0.00000000000E+00 -0.59079155212E+02  0.59079155212E+02  0.00000000000E+00 0. -1.
          6    1    1    2  501    0  0.49765796519E+02  0.38221196921E+02  0.15821022795E+04  0.15927693233E+04  0.17300000000E+03 0. -1.
         -6    1    1    2    0  503 -0.49765796519E+02 -0.38221196921E+02  0.10378574321E+03  0.21127700985E+03  0.17300000000E+03 0. -1.
<mgrwt>
<rscale>  2 0.18402852E+03</rscale>
<asrwt>0</asrwt>
<pdfrwt beam="1">  1       21 0.26845645E+00 0.18402852E+03</pdfrwt>
<pdfrwt beam="2">  1       21 0.90891021E-02 0.18402852E+03</pdfrwt>
<totfact> 0.50297963E+03</totfact>
</mgrwt>
</event>
<event>
 4    1  0.3980289E+000  0.1789110E+03  0.7546771E-02  0.1168861E+00
         21   -1    0    0  503  502  0.00000000000E+00  0.00000000000E+00  0.18405423183E+03  0.18405423183E+03  0.00000000000E+00 0. -1.
         21   -1    0    0  501  503 -0.00000000000E+00 -0.00000000000E+00 -0.19654008728E+03  0.19654008728E+03  0.00000000000E+00 0. -1.
          6    1    1    2  501    0 -0.13389607599E+02 -0.43598890317E+02 -0.70813642758E+02  0.19241547970E+03  0.17300000000E+03 0.  1.
         -6    1    1    2    0  502  0.13389607599E+02  0.43598890317E+02  0.58327787313E+02  0.18817883941E+03  0.17300000000E+03 0.  1.
<mgrwt>
<rscale>  2 0.17891100E+03</rscale>
<asrwt>0</asrwt>
<pdfrwt beam="1">  1       21 0.28316036E-01 0.17891100E+03</pdfrwt>
<pdfrwt beam="2">  1       21 0.30236936E-01 0.17891100E+03</pdfrwt>
<totfact> 0.12570115E+05</totfact>
</mgrwt>
</event>
<event>
 4    1  0.3980289E+000  0.1943607E+03  0.7546771E-02  0.1154586E+00
         21   -1    0    0  503  502  0.00000000000E+00  0.00000000000E+00  0.48823759958E+03  0.48823759958E+03  0.00000000000E+00 0. -1.
         21   -1    0    0  501  503 -0.00000000000E+00 -0.00000000000E+00 -0.10982194930E+03  0.10982194930E+03  0.00000000000E+00 0.  1.
          6    1    1    2  501    0  0.85720379517E+02  0.22340326096E+02  0.26662397022E+02  0.19618092937E+03  0.17300000000E+03 0.  1.
         -6    1    1    2    0  502 -0.85720379517E+02 -0.22340326096E+02  0.35175325326E+03  0.40187861950E+03  0.17300000000E+03 0. -1.
<mgrwt>
<rscale>  2 0.19436068E+03</rscale>
<asrwt>0</asrwt>
<pdfrwt beam="1">  1       21 0.75113476E-01 0.19436068E+03</pdfrwt>
<pdfrwt beam="2">  1       21 0.16895685E-01 0.19436068E+03</pdfrwt>
<totfact> 0.49956654E+04</totfact>
</mgrwt>
</event>
<event>
 4    1  0.3980289E+000  0.1852747E+03  0.7546771E-02  0.1162794E+00
         21   -1    0    0  503  502  0.00000000000E+00  0.00000000000E+00  0.29889816761E+03  0.29889816761E+03  0.00000000000E+00 0. -1.
         21   -1    0    0  501  503 -0.00000000000E+00 -0.00000000000E+00 -0.11659851982E+03  0.11659851982E+03  0.00000000000E+00 0. -1.
          6    1    1    2  501    0  0.84131659528E+01 -0.65779365392E+02  0.65666767751E+02  0.19656762363E+03  0.17300000000E+03 0. -1.
         -6    1    1    2    0  502 -0.84131659528E+01  0.65779365392E+02  0.11663288004E+03  0.21892906381E+03  0.17300000000E+03 0. -1.
<mgrwt>
<rscale>  2 0.18527468E+03</rscale>
<asrwt>0</asrwt>
<pdfrwt beam="1">  1       21 0.45984333E-01 0.18527468E+03</pdfrwt>
<pdfrwt beam="2">  1       21 0.17938234E-01 0.18527468E+03</pdfrwt>
<totfact> 0.12838575E+05</totfact>
</mgrwt>
</event>
<event>
 4    1  0.3980289E+000  0.2030103E+03  0.7546771E-02  0.1147224E+00
         21   -1    0    0  503  502  0.00000000000E+00  0.00000000000E+00  0.39010435530E+03  0.39010435530E+03  0.00000000000E+00 0. -1.
         21   -1    0    0  501  503 -0.00000000000E+00 -0.00000000000E+00 -0.16160874091E+03  0.16160874091E+03  0.00000000000E+00 0.  1.
          6    1    1    2  501    0  0.62997015693E+02 -0.85530956668E+02 -0.48082023350E+02  0.20862657909E+03  0.17300000000E+03 0.  1.
         -6    1    1    2    0  502 -0.62997015693E+02  0.85530956668E+02  0.27657763774E+03  0.34308651712E+03  0.17300000000E+03 0. -1.
<mgrwt>
<rscale>  2 0.20301027E+03</rscale>
<asrwt>0</asrwt>
<pdfrwt beam="1">  1       21 0.60016054E-01 0.20301027E+03</pdfrwt>
<pdfrwt beam="2">  1       21 0.24862883E-01 0.20301027E+03</pdfrwt>
<totfact> 0.39426746E+04</totfact>
</mgrwt>
</event>
<event>
 4    1  0.3980289E+000  0.1782633E+03  0.7546771E-02  0.1169494E+00
         21   -1    0    0  503  502  0.00000000000E+00  0.00000000000E+00  0.76364408975E+03  0.76364408975E+03  0.00000000000E+00 0. -1.
         21   -1    0    0  501  503 -0.00000000000E+00 -0.00000000000E+00 -0.44907193419E+02  0.44907193419E+02  0.00000000000E+00 0.  1.
          6    1    1    2  501    0 -0.42878319728E+02 -0.32014451551E+01  0.24987953034E+03  0.30694882185E+03  0.17300000000E+03 0.  1.
         -6    1    1    2    0  502  0.42878319728E+02  0.32014451551E+01  0.46885736600E+03  0.50160246132E+03  0.17300000000E+03 0. -1.
<mgrwt>
<rscale>  2 0.17826329E+03</rscale>
<asrwt>0</asrwt>
<pdfrwt beam="1">  1       21 0.11748370E+00 0.17826329E+03</pdfrwt>
<pdfrwt beam="2">  1       21 0.69087996E-02 0.17826329E+03</pdfrwt>
<totfact> 0.86656908E+04</totfact>
</mgrwt>
</event>
<event>
 4    1  0.3980289E+000  0.1803264E+03  0.7546771E-02  0.1167488E+00
         21   -1    0    0  501  502  0.00000000000E+00  0.00000000000E+00  0.18655853018E+03  0.18655853018E+03  0.00000000000E+00 0.  1.
         21   -1    0    0  502  503 -0.00000000000E+00 -0.00000000000E+00 -0.34998971873E+03  0.34998971873E+03  0.00000000000E+00 0. -1.
          6    1    1    2  501    0  0.58848821700E+01  0.50536891262E+02  0.10835778070E+03  0.21037827325E+03  0.17300000000E+03 0.  1.
         -6    1    1    2    0  503 -0.58848821700E+01 -0.50536891262E+02 -0.27178896925E+03  0.32616997566E+03  0.17300000000E+03 0. -1.
<mgrwt>
<rscale>  2 0.18032640E+03</rscale>
<asrwt>0</asrwt>
<pdfrwt beam="1">  1       21 0.28701313E-01 0.18032640E+03</pdfrwt>
<pdfrwt beam="2">  1       21 0.53844572E-01 0.18032640E+03</pdfrwt>
<totfact> 0.38124519E+04</totfact>
</mgrwt>
</event>
<event>
 4    1  0.3980289E+000  0.2109360E+03  0.7546771E-02  0.1140827E+00
         21   -1    0    0  501  502  0.00000000000E+00  0.00000000000E+00  0.17941488741E+02  0.17941488741E+02  0.00000000000E+00 0. -1.
         21   -1    0    0  502  503 -0.00000000000E+00 -0.00000000000E+00 -0.25756020488E+04  0.25756020488E+04  0.00000000000E+00 0. -1.
          6    1    1    2  501    0 -0.11239182593E+03 -0.43966871188E+02 -0.10289283431E+04  0.10503273506E+04  0.17300000000E+03 0. -1.
         -6    1    1    2    0  503  0.11239182593E+03  0.43966871188E+02 -0.15287322170E+04  0.15432161869E+04  0.17300000000E+03 0. -1.
<mgrwt>
<rscale>  2 0.21093603E+03</rscale>
<asrwt>0</asrwt>
<pdfrwt beam="1">  1       21 0.27602299E-02 0.21093603E+03</pdfrwt>
<pdfrwt beam="2">  1       21 0.39624634E+00 0.21093603E+03</pdfrwt>
<totfact> 0.65218131E+03</totfact>
</mgrwt>
</event>
<event>
 4    1  0.3980289E+000  0.3490454E+03  0.7546771E-02  0.1063008E+00
         21   -1    0    0  501  502  0.00000000000E+00  0.00000000000E+00  0.15505483890E+03  0.15505483890E+03  0.00000000000E+00 0. -1.
         21   -1    0    0  502  503 -0.00000000000E+00 -0.00000000000E+00 -0.78653422374E+03  0.78653422374E+03  0.00000000000E+00 0. -1.
          6    1    1    2  501    0  0.61610667418E+02  0.29682960165E+03 -0.30077304736E+03  0.46075710821E+03  0.17300000000E+03 0. -1.
         -6    1    1    2    0  503 -0.61610667418E+02 -0.29682960165E+03 -0.33070633748E+03  0.48083195444E+03  0.17300000000E+03 0. -1.
<mgrwt>
<rscale>  2 0.34904539E+03</rscale>
<asrwt>0</asrwt>
<pdfrwt beam="1">  1       21 0.23854591E-01 0.34904539E+03</pdfrwt>
<pdfrwt beam="2">  1       21 0.12100526E+00 0.34904539E+03</pdfrwt>
<totfact> 0.78466542E+03</totfact>
</mgrwt>
</event>
<event>
 4    1  0.3980289E+000  0.1754649E+03  0.7546771E-02  0.1172266E+00
         21   -1    0    0  503  502  0.00000000000E+00  0.00000000000E+00  0.13271968378E+04  0.13271968378E+04  0.00000000000E+00 0. -1.
         21   -1    0    0  501  503 -0.00000000000E+00 -0.00000000000E+00 -0.32908416504E+02  0.32908416504E+02  0.00000000000E+00 0. -1.
          6    1    1    2  501    0 -0.48405000358E+00  0.29303288639E+02  0.27772913215E+03  0.32851390819E+03  0.17300000000E+03 0. -1.
         -6    1    1    2    0  502  0.48405000358E+00 -0.29303288639E+02  0.10165592892E+04  0.10315913462E+04  0.17300000000E+03 0. -1.
<mgrwt>
<rscale>  2 0.17546486E+03</rscale>
<asrwt>0</asrwt>
<pdfrwt beam="1">  1       21 0.20418409E+00 0.17546486E+03</pdfrwt>
<pdfrwt beam="2">  1       21 0.50628344E-02 0.17546486E+03</pdfrwt>
<totfact> 0.33667349E+04</totfact>
</mgrwt>
</event>
<event>
 4    1  0.3980289E+000  0.1840358E+03  0.7546771E-02  0.1163953E+00
         21   -1    0    0  501  502  0.00000000000E+00  0.00000000000E+00  0.80213755725E+02  0.80213755725E+02  0.00000000000E+00 0. -1.
         21   -1    0    0  502  503 -0.00000000000E+00 -0.00000000000E+00 -0.45033665276E+03  0.45033665276E+03  0.00000000000E+00 0. -1.
          6    1    1    2  501    0  0.45928542298E+02 -0.42787121453E+02 -0.11879663249E+03  0.21904750318E+03  0.17300000000E+03 0. -1.
         -6    1    1    2    0  503 -0.45928542298E+02  0.42787121453E+02 -0.25132626454E+03  0.31150290530E+03  0.17300000000E+03 0. -1.
<mgrwt>
<rscale>  2 0.18403578E+03</rscale>
<asrwt>0</asrwt>
<pdfrwt beam="1">  1       21 0.12340578E-01 0.18403578E+03</pdfrwt>
<pdfrwt beam="2">  1       21 0.69282562E-01 0.18403578E+03</pdfrwt>
<totfact> 0.10613614E+05</totfact>
</mgrwt>
</event>
<event>
 4    1  0.3980289E+000  0.1731494E+03  0.7546771E-02  0.1174603E+00
         21   -1    0    0  501  502  0.00000000000E+00  0.00000000000E+00  0.69208059059E+03  0.69208059059E+03  0.00000000000E+00 0. -1.
         21   -1    0    0  502  503 -0.00000000000E+00 -0.00000000000E+00 -0.43689462244E+02  0.43689462244E+02  0.00000000000E+00 0. -1.
          6    1    1    2  501    0 -0.32243199804E+01  0.64268076386E+01  0.35804137740E+03  0.39771136271E+03  0.17300000000E+03 0. -1.
         -6    1    1    2    0  503  0.32243199804E+01 -0.64268076386E+01  0.29034975095E+03  0.33805869013E+03  0.17300000000E+03 0. -1.
<mgrwt>
<rscale>  2 0.17314936E+03</rscale>
<asrwt>0</asrwt>
<pdfrwt beam="1">  1       21 0.10647393E+00 0.17314936E+03</pdfrwt>
<pdfrwt beam="2">  1       21 0.67214562E-02 0.17314936E+03</pdfrwt>
<totfact> 0.11553918E+05</totfact>
</mgrwt>
</event>
<event>
 4    1  0.3980289E+000  0.1881623E+03  0.7546771E-02  0.1160129E+00
         21   -1    0    0  501  502  0.00000000000E+00  0.00000000000E+00  0.38509818493E+03  0.38509818493E+03  0.00000000000E+00 0. -1.
         21   -1    0    0  502  503 -0.00000000000E+00 -0.00000000000E+00 -0.99980287945E+02  0.99980287945E+02  0.00000000000E+00 0. -1.
          6    1    1    2  501    0  0.54253419468E+02  0.50325203602E+02  0.21134833630E+03  0.28297204615E+03  0.17300000000E+03 0. -1.
         -6    1    1    2    0  503 -0.54253419468E+02 -0.50325203602E+02  0.73769560680E+02  0.20210642673E+03  0.17300000000E+03 0. -1.
<mgrwt>
<rscale>  2 0.18816232E+03</rscale>
<asrwt>0</asrwt>
<pdfrwt beam="1">  1       21 0.59245874E-01 0.18816232E+03</pdfrwt>
<pdfrwt beam="2">  1       21 0.15381583E-01 0.18816232E+03</pdfrwt>
<totfact> 0.99941428E+04</totfact>
</mgrwt>
</event>
<event>
 4    1  0.3980289E+000  0.1957999E+03  0.7546771E-02  0.1153332E+00
         21   -1    0    0  501  502  0.00000000000E+00  0.00000000000E+00  0.43363698748E+03  0.43363698748E+03  0.00000000000E+00 0. -1.
         21   -1    0    0  502  503 -0.00000000000E+00 -0.00000000000E+00 -0.90190544709E+02  0.90190544709E+02  0.00000000000E+00 0. -1.
          6    1    1    2  501    0 -0.88477038846E+02 -0.24091962556E+02  0.13491702785E+03  0.23778186110E+03  0.17300000000E+03 0. -1.
         -6    1    1    2    0  503  0.88477038846E+02  0.24091962556E+02  0.20852941492E+03  0.28604567109E+03  0.17300000000E+03 0. -1.
<mgrwt>
<rscale>  2 0.19579992E+03</rscale>
<asrwt>0</asrwt>
<pdfrwt beam="1">  1       21 0.66713381E-01 0.19579992E+03</pdfrwt>
<pdfrwt beam="2">  1       21 0.13875469E-01 0.19579992E+03</pdfrwt>
<totfact> 0.92935858E+04</totfact>
</mgrwt>
</event>
<event>
 4    1  0.3980289E+000  0.2118503E+03  0.7546771E-02  0.1140109E+00
         21   -1    0    0  501  502  0.00000000000E+00  0.00000000000E+00  0.20650728130E+03  0.20650728130E+03  0.00000000000E+00 0.  1.
         21   -1    0    0  502  503 -0.00000000000E+00 -0.00000000000E+00 -0.36124236329E+03  0.36124236329E+03  0.00000000000E+00 0.  1.
          6    1    1    2  501    0 -0.11499892965E+03  0.41554624436E+02  0.10180617552E+03  0.23504263019E+03  0.17300000000E+03 0.  1.
         -6    1    1    2    0  503  0.11499892965E+03 -0.41554624436E+02 -0.25654125750E+03  0.33270701440E+03  0.17300000000E+03 0.  1.
<mgrwt>
<rscale>  2 0.21185028E+03</rscale>
<asrwt>0</asrwt>
<pdfrwt beam="1">  1       21 0.31770351E-01 0.21185028E+03</pdfrwt>
<pdfrwt beam="2">  1       21 0.55575747E-01 0.21185028E+03</pdfrwt>
<totfact> 0.28760486E+04</totfact>
</mgrwt>
</event>
<event>
 4    1  0.3980289E+000  0.1752762E+03  0.7546771E-02  0.1172455E+00
         21   -1    0    0  501  502  0.00000000000E+00  0.00000000000E+00  0.87000346333E+02  0.87000346333E+02  0.00000000000E+00 0.  1.
         21   -1    0    0  502  503 -0.00000000000E+00 -0.00000000000E+00 -0.51087189548E+03  0.51087189548E+03  0.00000000000E+00 0.  1.
          6    1    1    2  501    0  0.11361841327E+02 -0.25761296912E+02 -0.45821506886E+02  0.18116662593E+03  0.17300000000E+03 0.  1.
         -6    1    1    2    0  503 -0.11361841327E+02  0.25761296912E+02 -0.37805004226E+03  0.41670561589E+03  0.17300000000E+03 0.  1.
<mgrwt>
<rscale>  2 0.17527617E+03</rscale>
<asrwt>0</asrwt>
<pdfrwt beam="1">  1       21 0.13384669E-01 0.17527617E+03</pdfrwt>
<pdfrwt beam="2">  1       21 0.78595676E-01 0.17527617E+03</pdfrwt>
<totfact> 0.69569776E+04</totfact>
</mgrwt>
</event>
<event>
 4    1  0.3980289E+000  0.2148720E+03  0.7546771E-02  0.1137765E+00
         21   -1    0    0  501  502  0.00000000000E+00  0.00000000000E+00  0.53837042067E+03  0.53837042067E+03  0.00000000000E+00 0. -1.
         21   -1    0    0  502  503 -0.00000000000E+00 -0.00000000000E+00 -0.15128242336E+03  0.15128242336E+03  0.00000000000E+00 0.  1.
          6    1    1    2  501    0  0.11566977884E+03 -0.53492615867E+02  0.42048110878E+03  0.47220156769E+03  0.17300000000E+03 0. -1.
         -6    1    1    2    0  503 -0.11566977884E+03  0.53492615867E+02 -0.33393111473E+02  0.21745127634E+03  0.17300000000E+03 0.  1.
<mgrwt>
<rscale>  2 0.21487196E+03</rscale>
<asrwt>0</asrwt>
<pdfrwt beam="1">  1       21 0.82826218E-01 0.21487196E+03</pdfrwt>
<pdfrwt beam="2">  1       21 0.23274219E-01 0.21487196E+03</pdfrwt>
<totfact> 0.21774930E+04</totfact>
</mgrwt>
</event>
<event>
 4    1  0.3980289E+000  0.1762957E+03  0.7546771E-02  0.1171437E+00
         21   -1    0    0  503  502  0.00000000000E+00  0.00000000000E+00  0.52510826869E+03  0.52510826869E+03  0.00000000000E+00 0.  1.
         21   -1    0    0  501  503 -0.00000000000E+00 -0.00000000000E+00 -0.59359449796E+02  0.59359449796E+02  0.00000000000E+00 0.  1.
          6    1    1    2  501    0  0.21244276718E+02 -0.26455079716E+02  0.21717600833E+03  0.27972416615E+03  0.17300000000E+03 0.  1.
         -6    1    1    2    0  502 -0.21244276718E+02  0.26455079716E+02  0.24857281056E+03  0.30474355233E+03  0.17300000000E+03 0.  1.
<mgrwt>
<rscale>  2 0.17629575E+03</rscale>
<asrwt>0</asrwt>
<pdfrwt beam="1">  1       21 0.80785885E-01 0.17629575E+03</pdfrwt>
<pdfrwt beam="2">  1       21 0.91322234E-02 0.17629575E+03</pdfrwt>
<totfact> 0.12885488E+05</totfact>
</mgrwt>
</event>
<event>
 4    1  0.3980289E+000  0.1787041E+03  0.7546771E-02  0.1169063E+00
         21   -1    0    0  503  502  0.00000000000E+00  0.00000000000E+00  0.14578666806E+03  0.14578666806E+03  0.00000000000E+00 0. -1.
         21   -1    0    0  501  503 -0.00000000000E+00 -0.00000000000E+00 -0.28975313515E+03  0.28975313515E+03  0.00000000000E+00 0. -1.
          6    1    1    2  501    0 -0.70976118811E+01 -0.44224094037E+02 -0.17955318291E+03  0.25332684832E+03  0.17300000000E+03 0. -1.
         -6    1    1    2    0  502  0.70976118811E+01  0.44224094037E+02  0.35586715817E+02  0.18221295489E+03  0.17300000000E+03 0. -1.
<mgrwt>
<rscale>  2 0.17870408E+03</rscale>
<asrwt>0</asrwt>
<pdfrwt beam="1">  1       21 0.22428718E-01 0.17870408E+03</pdfrwt>
<pdfrwt beam="2">  1       21 0.44577405E-01 0.17870408E+03</pdfrwt>
<totfact> 0.90417145E+04</totfact>
</mgrwt>
</event>
<event>
 4    1  0.3980289E+000  0.2528687E+03  0.7546771E-02  0.1111505E+00
         21   -1    0    0  501  502  0.00000000000E+00  0.00000000000E+00  0.32535896428E+02  0.32535896428E+02  0.00000000000E+00 0.  1.
         21   -1    0    0  502  503 -0.00000000000E+00 -0.00000000000E+00 -0.22656787241E+04  0.22656787241E+04  0.00000000000E+00 0.  1.
          6    1    1    2  501    0 -0.20643029017E+02 -0.18326876364E+03 -0.69816246896E+03  0.74254522249E+03  0.17300000000E+03 0.  1.
         -6    1    1    2    0  503  0.20643029017E+02  0.18326876364E+03 -0.15349803588E+04  0.15556693981E+04  0.17300000000E+03 0.  1.
<mgrwt>
<rscale>  2 0.25286869E+03</rscale>
<asrwt>0</asrwt>
<pdfrwt beam="1">  1       21 0.50055208E-02 0.25286869E+03</pdfrwt>
<pdfrwt beam="2">  1       21 0.34856607E+00 0.25286869E+03</pdfrwt>
<totfact> 0.44757483E+03</totfact>
</mgrwt>
</event>
<event>
 4    1  0.3980289E+000  0.1915348E+03  0.7546771E-02  0.1157084E+00
         21   -1    0    0  501  502  0.00000000000E+00  0.00000000000E+00  0.42916966212E+03  0.42916966212E+03  0.00000000000E+00 0.  1.
         21   -1    0    0  502  503 -0.00000000000E+00 -0.00000000000E+00 -0.21314444677E+03  0.21314444677E+03  0.00000000000E+00 0.  1.
          6    1    1    2  501    0 -0.71551325169E+02  0.40459847468E+02  0.35656318160E+03  0.40475040934E+03  0.17300000000E+03 0.  1.
         -6    1    1    2    0  503  0.71551325169E+02 -0.40459847468E+02 -0.14053796625E+03  0.23756369956E+03  0.17300000000E+03 0.  1.
<mgrwt>
<rscale>  2 0.19153483E+03</rscale>
<asrwt>0</asrwt>
<pdfrwt beam="1">  1       21 0.66026102E-01 0.19153483E+03</pdfrwt>
<pdfrwt beam="2">  1       21 0.32791453E-01 0.19153483E+03</pdfrwt>
<totfact> 0.18868971E+04</totfact>
</mgrwt>
</event>
<event>
 4    1  0.3980289E+000  0.2002784E+03  0.7546771E-02  0.1149504E+00
         21   -1    0    0  503  502  0.00000000000E+00  0.00000000000E+00  0.16375905085E+03  0.16375905085E+03  0.00000000000E+00 0. -1.
         21   -1    0    0  501  503 -0.00000000000E+00 -0.00000000000E+00 -0.37546477390E+03  0.37546477390E+03  0.00000000000E+00 0. -1.
          6    1    1    2  501    0 -0.76662217349E+02  0.65615011305E+02 -0.26481660227E+03  0.33202297830E+03  0.17300000000E+03 0. -1.
         -6    1    1    2    0  502  0.76662217349E+02 -0.65615011305E+02  0.53110879233E+02  0.20720084645E+03  0.17300000000E+03 0. -1.
<mgrwt>
<rscale>  2 0.20027837E+03</rscale>
<asrwt>0</asrwt>
<pdfrwt beam="1">  1       21 0.25193700E-01 0.20027837E+03</pdfrwt>
<pdfrwt beam="2">  1       21 0.57763811E-01 0.20027837E+03</pdfrwt>
<totfact> 0.41785929E+04</totfact>
</mgrwt>
</event>
<event>
 4    1  0.3980289E+000  0.1990179E+03  0.7546771E-02  0.1150570E+00
         21   -1    0    0  501  502  0.00000000000E+00  0.00000000000E+00  0.12001959079E+04  0.12001959079E+04  0.00000000000E+00 0. -1.
         21   -1    0    0  502  503 -0.00000000000E+00 -0.00000000000E+00 -0.60672057994E+02  0.60672057994E+02  0.00000000000E+00 0. -1.
          6    1    1    2  501    0  0.46249697202E+02  0.86833647135E+02  0.99551243952E+03  0.10152108815E+04  0.17300000000E+03 0. -1.
         -6    1    1    2    0  503 -0.46249697202E+02 -0.86833647135E+02  0.14401141037E+03  0.24565708433E+03  0.17300000000E+03 0. -1.
<mgrwt>
<rscale>  2 0.19901788E+03</rscale>
<asrwt>0</asrwt>
<pdfrwt beam="1">  1       21 0.18464551E+00 0.19901788E+03</pdfrwt>
<pdfrwt beam="2">  1       21 0.93341637E-02 0.19901788E+03</pdfrwt>
<totfact> 0.15435109E+04</totfact>
</mgrwt>
</event>
<event>
 4    1  0.3980289E+000  0.2377038E+03  0.7546771E-02  0.1121332E+00
         21   -1    0    0  503  502  0.00000000000E+00  0.00000000000E+00  0.86984538454E+03  0.86984538454E+03  0.00000000000E+00 0.  1.
         21   -1    0    0  501  503 -0.00000000000E+00 -0.00000000000E+00 -0.71105145706E+02  0.71105145706E+02  0.00000000000E+00 0.  1.
          6    1    1    2  501    0  0.64378431027E+02  0.14976486957E+03  0.26103388630E+03  0.35304643934E+03  0.17300000000E+03 0.  1.
         -6    1    1    2    0  502 -0.64378431027E+02 -0.14976486957E+03  0.53770635254E+03  0.58790409090E+03  0.17300000000E+03 0.  1.
<mgrwt>
<rscale>  2 0.23770380E+03</rscale>
<asrwt>0</asrwt>
<pdfrwt beam="1">  1       21 0.13382236E+00 0.23770380E+03</pdfrwt>
<pdfrwt beam="2">  1       21 0.10939254E-01 0.23770380E+03</pdfrwt>
<totfact> 0.27087533E+04</totfact>
</mgrwt>
</event>
<event>
 4    1  0.3980289E+000  0.1993760E+03  0.7546771E-02  0.1150267E+00
         21   -1    0    0  503  502  0.00000000000E+00  0.00000000000E+00  0.30628614909E+03  0.30628614909E+03  0.00000000000E+00 0.  1.
         21   -1    0    0  501  503 -0.00000000000E+00 -0.00000000000E+00 -0.16961040493E+03  0.16961040493E+03  0.00000000000E+00 0. -1.
          6    1    1    2  501    0  0.10366988283E+02  0.98561143975E+02 -0.46966730349E+02  0.20483321827E+03  0.17300000000E+03 0. -1.
         -6    1    1    2    0  502 -0.10366988283E+02 -0.98561143975E+02  0.18364247451E+03  0.27106333576E+03  0.17300000000E+03 0.  1.
<mgrwt>
<rscale>  2 0.19937596E+03</rscale>
<asrwt>0</asrwt>
<pdfrwt beam="1">  1       21 0.47120946E-01 0.19937596E+03</pdfrwt>
<pdfrwt beam="2">  1       21 0.26093909E-01 0.19937596E+03</pdfrwt>
<totfact> 0.59953781E+04</totfact>
</mgrwt>
</event>
<event>
 4    1  0.3980289E+000  0.1792167E+03  0.7546771E-02  0.1168563E+00
         21   -1    0    0  501  502  0.00000000000E+00  0.00000000000E+00  0.16976969365E+03  0.16976969365E+03  0.00000000000E+00 0. -1.
         21   -1    0    0  502  503 -0.00000000000E+00 -0.00000000000E+00 -0.18988773269E+03  0.18988773269E+03  0.00000000000E+00 0. -1.
          6    1    1    2  501    0 -0.44063749543E+02  0.15748493139E+02  0.84626597918E+00  0.17921870780E+03  0.17300000000E+03 0.  1.
         -6    1    1    2    0  503  0.44063749543E+02 -0.15748493139E+02 -0.20964305020E+02  0.18043871853E+03  0.17300000000E+03 0.  1.
<mgrwt>
<rscale>  2 0.17921671E+03</rscale>
<asrwt>0</asrwt>
<pdfrwt beam="1">  1       21 0.26118414E-01 0.17921671E+03</pdfrwt>
<pdfrwt beam="2">  1       21 0.29213497E-01 0.17921671E+03</pdfrwt>
<totfact> 0.15697917E+05</totfact>
</mgrwt>
</event>
<event>
 4    1  0.3980289E+000  0.1984262E+03  0.7546771E-02  0.1151074E+00
         21   -1    0    0  501  502  0.00000000000E+00  0.00000000000E+00  0.12340996664E+04  0.12340996664E+04  0.00000000000E+00 0. -1.
         21   -1    0    0  502  503 -0.00000000000E+00 -0.00000000000E+00 -0.37233049492E+02  0.37233049492E+02  0.00000000000E+00 0. -1.
          6    1    1    2  501    0  0.55500274766E+02  0.79772598157E+02  0.83891506469E+03  0.86206231427E+03  0.17300000000E+03 0. -1.
         -6    1    1    2    0  503 -0.55500274766E+02 -0.79772598157E+02  0.35795155227E+03  0.40927040167E+03  0.17300000000E+03 0. -1.
<mgrwt>
<rscale>  2 0.19842618E+03</rscale>
<asrwt>0</asrwt>
<pdfrwt beam="1">  1       21 0.18986146E+00 0.19842618E+03</pdfrwt>
<pdfrwt beam="2">  1       21 0.57281624E-02 0.19842618E+03</pdfrwt>
<totfact> 0.33229320E+04</totfact>
</mgrwt>
</event>
<event>
 4    1  0.3980289E+000  0.2000355E+03  0.7546771E-02  0.1149709E+00
         21   -1    0    0  501  502  0.00000000000E+00  0.00000000000E+00  0.12011634124E+03  0.12011634124E+03  0.00000000000E+00 0.  1.
         21   -1    0    0  502  503 -0.00000000000E+00 -0.00000000000E+00 -0.44070133237E+03  0.44070133237E+03  0.00000000000E+00 0.  1.
          6    1    1    2  501    0  0.27783402617E+02 -0.96505348998E+02 -0.21754013466E+02  0.20121490240E+03  0.17300000000E+03 0.  1.
         -6    1    1    2    0  503 -0.27783402617E+02  0.96505348998E+02 -0.29883097767E+03  0.35960277121E+03  0.17300000000E+03 0.  1.
<mgrwt>
<rscale>  2 0.20003550E+03</rscale>
<asrwt>0</asrwt>
<pdfrwt beam="1">  1       21 0.18479437E-01 0.20003550E+03</pdfrwt>
<pdfrwt beam="2">  1       21 0.67800204E-01 0.20003550E+03</pdfrwt>
<totfact> 0.52963705E+04</totfact>
</mgrwt>
</event>
<event>
 4    1  0.3980289E+000  0.2125027E+03  0.7546771E-02  0.1139599E+00
         21   -1    0    0  503  502  0.00000000000E+00  0.00000000000E+00  0.65372897660E+02  0.65372897660E+02  0.00000000000E+00 0. -1.
         21   -1    0    0  501  503 -0.00000000000E+00 -0.00000000000E+00 -0.72302650434E+03  0.72302650434E+03  0.00000000000E+00 0.  1.
          6    1    1    2  501    0  0.73810480358E+02  0.98895859563E+02 -0.41209409644E+03  0.46365819562E+03  0.17300000000E+03 0. -1.
         -6    1    1    2    0  502 -0.73810480358E+02 -0.98895859563E+02 -0.24555951024E+03  0.32474120638E+03  0.17300000000E+03 0.  1.
<mgrwt>
<rscale>  2 0.21250265E+03</rscale>
<asrwt>0</asrwt>
<pdfrwt beam="1">  1       21 0.10057369E-01 0.21250265E+03</pdfrwt>
<pdfrwt beam="2">  1       21 0.11123485E+00 0.21250265E+03</pdfrwt>
<totfact> 0.50544974E+04</totfact>
</mgrwt>
</event>
<event>
 4    1  0.3980289E+000  0.1828582E+03  0.7546771E-02  0.1165065E+00
         21   -1    0    0  503  502  0.00000000000E+00  0.00000000000E+00  0.24548499685E+03  0.24548499685E+03  0.00000000000E+00 0. -1.
         21   -1    0    0  501  503 -0.00000000000E+00 -0.00000000000E+00 -0.41834624862E+03  0.41834624862E+03  0.00000000000E+00 0.  1.
          6    1    1    2  501    0 -0.59221289410E+02  0.98404571543E+00 -0.35900837207E+03  0.40289470173E+03  0.17300000000E+03 0.  1.
         -6    1    1    2    0  502  0.59221289410E+02 -0.98404571543E+00  0.18614712030E+03  0.26093654374E+03  0.17300000000E+03 0. -1.
<mgrwt>
<rscale>  2 0.18285822E+03</rscale>
<asrwt>0</asrwt>
<pdfrwt beam="1">  1       21 0.37766923E-01 0.18285822E+03</pdfrwt>
<pdfrwt beam="2">  1       21 0.64360960E-01 0.18285822E+03</pdfrwt>
<totfact> 0.15150370E+04</totfact>
</mgrwt>
</event>
<event>
 4    1  0.3980289E+000  0.2307444E+03  0.7546771E-02  0.1126117E+00
         21   -1    0    0  501  502  0.00000000000E+00  0.00000000000E+00  0.65842127313E+02  0.65842127313E+02  0.00000000000E+00 0.  1.
         21   -1    0    0  502  503 -0.00000000000E+00 -0.00000000000E+00 -0.12513135428E+04  0.12513135428E+04  0.00000000000E+00 0.  1.
          6    1    1    2  501    0 -0.94229995047E+02 -0.12014442862E+03 -0.20102733322E+03  0.30603098601E+03  0.17300000000E+03 0.  1.
         -6    1    1    2    0  503  0.94229995047E+02  0.12014442862E+03 -0.98444408230E+03  0.10111246841E+04  0.17300000000E+03 0.  1.
<mgrwt>
<rscale>  2 0.23074439E+03</rscale>
<asrwt>0</asrwt>
<pdfrwt beam="1">  1       21 0.10129557E-01 0.23074439E+03</pdfrwt>
<pdfrwt beam="2">  1       21 0.19250979E+00 0.23074439E+03</pdfrwt>
<totfact> 0.11569224E+04</totfact>
</mgrwt>
</event>
<event>
 4    1  0.3980289E+000  0.1963842E+03  0.7546771E-02  0.1152826E+00
         21   -1    0    0  501  502  0.00000000000E+00  0.00000000000E+00  0.15594030329E+03  0.15594030329E+03  0.00000000000E+00 0. -1.
         21   -1    0    0  502  503 -0.00000000000E+00 -0.00000000000E+00 -0.84348904019E+03  0.84348904019E+03  0.00000000000E+00 0. -1.
          6    1    1    2  501    0  0.28283620996E+02  0.88531259806E+02  0.76340490707E+02  0.21070030304E+03  0.17300000000E+03 0. -1.
         -6    1    1    2    0  503 -0.28283620996E+02 -0.88531259806E+02 -0.76388922760E+03  0.78872904044E+03  0.17300000000E+03 0. -1.
<mgrwt>
<rscale>  2 0.19638418E+03</rscale>
<asrwt>0</asrwt>
<pdfrwt beam="1">  1       21 0.23990816E-01 0.19638418E+03</pdfrwt>
<pdfrwt beam="2">  1       21 0.12976755E+00 0.19638418E+03</pdfrwt>
<totfact> 0.70934685E+03</totfact>
</mgrwt>
</event>
<event>
 4    1  0.3980289E+000  0.1854648E+03  0.7546771E-02  0.1162617E+00
         21   -1    0    0  501  502  0.00000000000E+00  0.00000000000E+00  0.17888046904E+03  0.17888046904E+03  0.00000000000E+00 0. -1.
         21   -1    0    0  502  503 -0.00000000000E+00 -0.00000000000E+00 -0.24492137999E+03  0.24492137999E+03  0.00000000000E+00 0.  1.
          6    1    1    2  501    0 -0.18062833147E+01 -0.66820093869E+02  0.65207664806E+02  0.19659406693E+03  0.17300000000E+03 0. -1.
         -6    1    1    2    0  503  0.18062833147E+01  0.66820093869E+02 -0.13124857576E+03  0.22720778209E+03  0.17300000000E+03 0.  1.
<mgrwt>
<rscale>  2 0.18546479E+03</rscale>
<asrwt>0</asrwt>
<pdfrwt beam="1">  1       21 0.27520072E-01 0.18546479E+03</pdfrwt>
<pdfrwt beam="2">  1       21 0.37680213E-01 0.18546479E+03</pdfrwt>
<totfact> 0.85812866E+04</totfact>
</mgrwt>
</event>
<event>
 4    1  0.3980289E+000  0.2476536E+03  0.7546771E-02  0.1114797E+00
         21   -1    0    0  501  502  0.00000000000E+00  0.00000000000E+00  0.19198369769E+03  0.19198369769E+03  0.00000000000E+00 0. -1.
         21   -1    0    0  502  503 -0.00000000000E+00 -0.00000000000E+00 -0.43823934226E+03  0.43823934226E+03  0.00000000000E+00 0. -1.
          6    1    1    2  501    0 -0.14936099939E+03 -0.95365622159E+02  0.40918934659E+02  0.25101129306E+03  0.17300000000E+03 0. -1.
         -6    1    1    2    0  503  0.14936099939E+03  0.95365622159E+02 -0.28717457922E+03  0.37921174689E+03  0.17300000000E+03 0. -1.
<mgrwt>
<rscale>  2 0.24765361E+03</rscale>
<asrwt>0</asrwt>
<pdfrwt beam="1">  1       21 0.29535953E-01 0.24765361E+03</pdfrwt>
<pdfrwt beam="2">  1       21 0.67421437E-01 0.24765361E+03</pdfrwt>
<totfact> 0.21452744E+04</totfact>
</mgrwt>
</event>
<event>
 4    1  0.3980289E+000  0.2594564E+03  0.7546771E-02  0.1107470E+00
         21   -1    0    0  503  502  0.00000000000E+00  0.00000000000E+00  0.96353223219E+02  0.96353223219E+02  0.00000000000E+00 0. -1.
         21   -1    0    0  501  503 -0.00000000000E+00 -0.00000000000E+00 -0.16876449518E+04  0.16876449518E+04  0.00000000000E+00 0.  1.
          6    1    1    2  501    0 -0.96078169257E+02 -0.16780235089E+03 -0.14784872696E+04  0.15010803609E+04  0.17300000000E+03 0.  1.
         -6    1    1    2    0  502  0.96078169257E+02  0.16780235089E+03 -0.11280445900E+03  0.28291781411E+03  0.17300000000E+03 0. -1.
<mgrwt>
<rscale>  2 0.25945644E+03</rscale>
<asrwt>0</asrwt>
<pdfrwt beam="1">  1       21 0.14823573E-01 0.25945644E+03</pdfrwt>
<pdfrwt beam="2">  1       21 0.25963768E+00 0.25945644E+03</pdfrwt>
<totfact> 0.21885520E+03</totfact>
</mgrwt>
</event>
<event>
 4    1  0.3980289E+000  0.1748912E+03  0.7546771E-02  0.1172841E+00
         21   -1    0    0  503  502  0.00000000000E+00  0.00000000000E+00  0.85183092159E+03  0.85183092159E+03  0.00000000000E+00 0.  1.
         21   -1    0    0  501  503 -0.00000000000E+00 -0.00000000000E+00 -0.40000251616E+02  0.40000251616E+02  0.00000000000E+00 0.  1.
          6    1    1    2  501    0  0.25327158284E+02  0.40578892422E+01  0.26327555576E+03  0.31607111490E+03  0.17300000000E+03 0.  1.
         -6    1    1    2    0  502 -0.25327158284E+02 -0.40578892422E+01  0.54855511422E+03  0.57576005831E+03  0.17300000000E+03 0.  1.
<mgrwt>
<rscale>  2 0.17489120E+03</rscale>
<asrwt>0</asrwt>
<pdfrwt beam="1">  1       21 0.13105090E+00 0.17489120E+03</pdfrwt>
<pdfrwt beam="2">  1       21 0.61538855E-02 0.17489120E+03</pdfrwt>
<totfact> 0.80653492E+04</totfact>
</mgrwt>
</event>
<event>
 4    1  0.3980289E+000  0.2135861E+03  0.7546771E-02  0.1138757E+00
         21   -1    0    0  503  502  0.00000000000E+00  0.00000000000E+00  0.30607782466E+03  0.30607782466E+03  0.00000000000E+00 0.  1.
         21   -1    0    0  501  503 -0.00000000000E+00 -0.00000000000E+00 -0.21107943096E+03  0.21107943096E+03  0.00000000000E+00 0.  1.
          6    1    1    2  501    0 -0.10381652827E+03 -0.70086587753E+02 -0.92682166569E+02  0.23282823137E+03  0.17300000000E+03 0.  1.
         -6    1    1    2    0  502  0.10381652827E+03  0.70086587753E+02  0.18768056027E+03  0.28432902425E+03  0.17300000000E+03 0.  1.
<mgrwt>
<rscale>  2 0.21358605E+03</rscale>
<asrwt>0</asrwt>
<pdfrwt beam="1">  1       21 0.47088896E-01 0.21358605E+03</pdfrwt>
<pdfrwt beam="2">  1       21 0.32473759E-01 0.21358605E+03</pdfrwt>
<totfact> 0.38962594E+04</totfact>
</mgrwt>
</event>
<event>
 4    1  0.3980289E+000  0.2017907E+03  0.7546771E-02  0.1148237E+00
         21   -1    0    0  503  502  0.00000000000E+00  0.00000000000E+00  0.13993759585E+03  0.13993759585E+03  0.00000000000E+00 0. -1.
         21   -1    0    0  501  503 -0.00000000000E+00 -0.00000000000E+00 -0.41102722781E+03  0.41102722781E+03  0.00000000000E+00 0.  1.
          6    1    1    2  501    0 -0.94300064507E+02  0.43565795045E+02 -0.28442228377E+03  0.34873416261E+03  0.17300000000E+03 0.  1.
         -6    1    1    2    0  502  0.94300064507E+02 -0.43565795045E+02  0.13332651809E+02  0.20223066105E+03  0.17300000000E+03 0. -1.
<mgrwt>
<rscale>  2 0.20179069E+03</rscale>
<asrwt>0</asrwt>
<pdfrwt beam="1">  1       21 0.21528861E-01 0.20179069E+03</pdfrwt>
<pdfrwt beam="2">  1       21 0.63234959E-01 0.20179069E+03</pdfrwt>
<totfact> 0.46307731E+04</totfact>
</mgrwt>
</event>
<event>
 4    1  0.3980289E+000  0.1955096E+03  0.7546771E-02  0.1153584E+00
         21   -1    0    0  503  502  0.00000000000E+00  0.00000000000E+00  0.94960727111E+03  0.94960727111E+03  0.00000000000E+00 0.  1.
         21   -1    0    0  501  503 -0.00000000000E+00 -0.00000000000E+00 -0.46283518552E+02  0.46283518552E+02  0.00000000000E+00 0.  1.
          6    1    1    2  501    0 -0.79289348501E+02 -0.44812882565E+02  0.27191283700E+03  0.33490384614E+03  0.17300000000E+03 0.  1.
         -6    1    1    2    0  502  0.79289348501E+02  0.44812882565E+02  0.63141091555E+03  0.66098694352E+03  0.17300000000E+03 0.  1.
<mgrwt>
<rscale>  2 0.19550958E+03</rscale>
<asrwt>0</asrwt>
<pdfrwt beam="1">  1       21 0.14609341E+00 0.19550958E+03</pdfrwt>
<pdfrwt beam="2">  1       21 0.71205420E-02 0.19550958E+03</pdfrwt>
<totfact> 0.46969457E+04</totfact>
</mgrwt>
</event>
<event>
 4    1  0.3980289E+000  0.2129860E+03  0.7546771E-02  0.1139223E+00
         21   -1    0    0  501  502  0.00000000000E+00  0.00000000000E+00  0.44624648385E+03  0.44624648385E+03  0.00000000000E+00 0. -1.
         21   -1    0    0  502  503 -0.00000000000E+00 -0.00000000000E+00 -0.15148753836E+03  0.15148753836E+03  0.00000000000E+00 0. -1.
          6    1    1    2  501    0  0.81269953770E+02  0.93963948371E+02  0.31879397713E+03  0.38339617739E+03  0.17300000000E+03 0. -1.
         -6    1    1    2    0  503 -0.81269953770E+02 -0.93963948371E+02 -0.24035031639E+02  0.21433784483E+03  0.17300000000E+03 0. -1.
<mgrwt>
<rscale>  2 0.21298598E+03</rscale>
<asrwt>0</asrwt>
<pdfrwt beam="1">  1       21 0.68653305E-01 0.21298598E+03</pdfrwt>
<pdfrwt beam="2">  1       21 0.23305775E-01 0.21298598E+03</pdfrwt>
<totfact> 0.33112652E+04</totfact>
</mgrwt>
</event>
<event>
 4    1  0.3980289E+000  0.2270708E+03  0.7546771E-02  0.1128719E+00
         21   -1    0    0  501  502  0.00000000000E+00  0.00000000000E+00  0.26982387547E+03  0.26982387547E+03  0.00000000000E+00 0. -1.
         21   -1    0    0  502  503 -0.00000000000E+00 -0.00000000000E+00 -0.19959543276E+03  0.19959543276E+03  0.00000000000E+00 0. -1.
          6    1    1    2  501    0  0.98877958486E+02 -0.10888197886E+03  0.83560155997E+02  0.24195750797E+03  0.17300000000E+03 0. -1.
         -6    1    1    2    0  503 -0.98877958486E+02  0.10888197886E+03 -0.13331713287E+02  0.22746180025E+03  0.17300000000E+03 0. -1.
<mgrwt>
<rscale>  2 0.22707077E+03</rscale>
<asrwt>0</asrwt>
<pdfrwt beam="1">  1       21 0.41511365E-01 0.22707077E+03</pdfrwt>
<pdfrwt beam="2">  1       21 0.30706990E-01 0.22707077E+03</pdfrwt>
<totfact> 0.56015699E+04</totfact>
</mgrwt>
</event>
<event>
 4    1  0.3980289E+000  0.1939462E+03  0.7546771E-02  0.1154949E+00
         21   -1    0    0  501  502  0.00000000000E+00  0.00000000000E+00  0.48966737708E+02  0.48966737708E+02  0.00000000000E+00 0.  1.
         21   -1    0    0  502  503 -0.00000000000E+00 -0.00000000000E+00 -0.77392690610E+03  0.77392690610E+03  0.00000000000E+00 0.  1.
          6    1    1    2  501    0  0.79656179844E+02 -0.36620220623E+02 -0.39794297706E+03  0.44268923698E+03  0.17300000000E+03 0.  1.
         -6    1    1    2    0  503 -0.79656179844E+02  0.36620220623E+02 -0.32701719133E+03  0.38020440683E+03  0.17300000000E+03 0.  1.
<mgrwt>
<rscale>  2 0.19394625E+03</rscale>
<asrwt>0</asrwt>
<pdfrwt beam="1">  1       21 0.75333444E-02 0.19394625E+03</pdfrwt>
<pdfrwt beam="2">  1       21 0.11906567E+00 0.19394625E+03</pdfrwt>
<totfact> 0.71683803E+04</totfact>
</mgrwt>
</event>
<event>
 4    1  0.3980289E+000  0.1750002E+03  0.7546771E-02  0.1172731E+00
         21   -1    0    0  501  502  0.00000000000E+00  0.00000000000E+00  0.54632636249E+02  0.54632636249E+02  0.00000000000E+00 0. -1.
         21   -1    0    0  502  503 -0.00000000000E+00 -0.00000000000E+00 -0.99802570987E+03  0.99802570987E+03  0.00000000000E+00 0. -1.
          6    1    1    2  501    0  0.25015686159E+02 -0.83840304463E+01 -0.12323350145E+03  0.21403638102E+03  0.17300000000E+03 0. -1.
         -6    1    1    2    0  503 -0.25015686159E+02  0.83840304463E+01 -0.82015957217E+03  0.83862196510E+03  0.17300000000E+03 0. -1.
<mgrwt>
<rscale>  2 0.17500022E+03</rscale>
<asrwt>0</asrwt>
<pdfrwt beam="1">  1       21 0.84050212E-02 0.17500022E+03</pdfrwt>
<pdfrwt beam="2">  1       21 0.15354241E+00 0.17500022E+03</pdfrwt>
<totfact> 0.31290295E+04</totfact>
</mgrwt>
</event>
<event>
 4    1  0.3980289E+000  0.1859665E+03  0.7546771E-02  0.1162150E+00
         21   -1    0    0  501  502  0.00000000000E+00  0.00000000000E+00  0.94288473331E+02  0.94288473331E+02  0.00000000000E+00 0. -1.
         21   -1    0    0  502  503 -0.00000000000E+00 -0.00000000000E+00 -0.37669367169E+03  0.37669367169E+03  0.00000000000E+00 0. -1.
          6    1    1    2  501    0  0.67900419875E+02 -0.66387307142E+01 -0.10300804299E+03  0.21258926757E+03  0.17300000000E+03 0.  1.
         -6    1    1    2    0  503 -0.67900419875E+02  0.66387307142E+01 -0.17939715537E+03  0.25839287745E+03  0.17300000000E+03 0.  1.
<mgrwt>
<rscale>  2 0.18596650E+03</rscale>
<asrwt>0</asrwt>
<pdfrwt beam="1">  1       21 0.14505919E-01 0.18596650E+03</pdfrwt>
<pdfrwt beam="2">  1       21 0.57952871E-01 0.18596650E+03</pdfrwt>
<totfact> 0.11664839E+05</totfact>
</mgrwt>
</event>
<event>
 4    1  0.3980289E+000  0.2540467E+03  0.7546771E-02  0.1110774E+00
         21   -1    0    0  503  502  0.00000000000E+00  0.00000000000E+00  0.18359153130E+03  0.18359153130E+03  0.00000000000E+00 0. -1.
         21   -1    0    0  501  503 -0.00000000000E+00 -0.00000000000E+00 -0.66184584353E+03  0.66184584353E+03  0.00000000000E+00 0. -1.
          6    1    1    2  501    0  0.18393252530E+03 -0.27920875113E+02 -0.52857350077E+03  0.58645519424E+03  0.17300000000E+03 0. -1.
         -6    1    1    2    0  502 -0.18393252530E+03  0.27920875113E+02  0.50319188543E+02  0.25898218059E+03  0.17300000000E+03 0. -1.
<mgrwt>
<rscale>  2 0.25404675E+03</rscale>
<asrwt>0</asrwt>
<pdfrwt beam="1">  1       21 0.28244851E-01 0.25404675E+03</pdfrwt>
<pdfrwt beam="2">  1       21 0.10182244E+00 0.25404675E+03</pdfrwt>
<totfact> 0.90557568E+03</totfact>
</mgrwt>
</event>
<event>
 4    1  0.3980289E+000  0.1736110E+03  0.7546771E-02  0.1174134E+00
         21   -1    0    0  503  502  0.00000000000E+00  0.00000000000E+00  0.35095327244E+03  0.35095327244E+03  0.00000000000E+00 0.  1.
         21   -1    0    0  501  503 -0.00000000000E+00 -0.00000000000E+00 -0.12573592151E+03  0.12573592151E+03  0.00000000000E+00 0.  1.
          6    1    1    2  501    0 -0.98374525784E+01  0.10724552830E+02 -0.21577477498E+02  0.17494678917E+03  0.17300000000E+03 0.  1.
         -6    1    1    2    0  502  0.98374525784E+01 -0.10724552830E+02  0.24679482842E+03  0.30174240478E+03  0.17300000000E+03 0.  1.
<mgrwt>
<rscale>  2 0.17361104E+03</rscale>
<asrwt>0</asrwt>
<pdfrwt beam="1">  1       21 0.53992811E-01 0.17361104E+03</pdfrwt>
<pdfrwt beam="2">  1       21 0.19343988E-01 0.17361104E+03</pdfrwt>
<totfact> 0.80303363E+04</totfact>
</mgrwt>
</event>
<event>
 4    1  0.3980289E+000  0.1741282E+03  0.7546771E-02  0.1173610E+00
         21   -1    0    0  501  502  0.00000000000E+00  0.00000000000E+00  0.11648665590E+04  0.11648665590E+04  0.00000000000E+00 0. -1.
         21   -1    0    0  502  503 -0.00000000000E+00 -0.00000000000E+00 -0.33408062514E+02  0.33408062514E+02  0.00000000000E+00 0. -1.
          6    1    1    2  501    0  0.59949291553E+01  0.18859936599E+02  0.84730361257E+03  0.86501101049E+03  0.17300000000E+03 0. -1.
         -6    1    1    2    0  503 -0.59949291553E+01 -0.18859936599E+02  0.28415488392E+03  0.33326361104E+03  0.17300000000E+03 0. -1.
<mgrwt>
<rscale>  2 0.17412822E+03</rscale>
<asrwt>0</asrwt>
<pdfrwt beam="1">  1       21 0.17921021E+00 0.17412822E+03</pdfrwt>
<pdfrwt beam="2">  1       21 0.51397028E-02 0.17412822E+03</pdfrwt>
<totfact> 0.47845823E+04</totfact>
</mgrwt>
</event>
<event>
 4    1  0.3980289E+000  0.1994474E+03  0.7546771E-02  0.1150206E+00
         21   -1    0    0  501  502  0.00000000000E+00  0.00000000000E+00  0.11851436548E+04  0.11851436548E+04  0.00000000000E+00 0. -1.
         21   -1    0    0  502  503 -0.00000000000E+00 -0.00000000000E+00 -0.63483352604E+02  0.63483352604E+02  0.00000000000E+00 0.  1.
          6    1    1    2  501    0  0.47885209796E+02 -0.86932494135E+02  0.98942033592E+03  0.10093224723E+04  0.17300000000E+03 0. -1.
         -6    1    1    2    0  503 -0.47885209796E+02  0.86932494135E+02  0.13223996622E+03  0.23930453510E+03  0.17300000000E+03 0.  1.
<mgrwt>
<rscale>  2 0.19944737E+03</rscale>
<asrwt>0</asrwt>
<pdfrwt beam="1">  1       21 0.18232978E+00 0.19944737E+03</pdfrwt>
<pdfrwt beam="2">  1       21 0.97666705E-02 0.19944737E+03</pdfrwt>
<totfact> 0.14767098E+04</totfact>
</mgrwt>
</event>
<event>
 4    1  0.3980289E+000  0.1910388E+03  0.7546771E-02  0.1157528E+00
         21   -1    0    0  501  502  0.00000000000E+00  0.00000000000E+00  0.10037267534E+03  0.10037267534E+03  0.00000000000E+00 0.  1.
         21   -1    0    0  502  503 -0.00000000000E+00 -0.00000000000E+00 -0.55892982161E+03  0.55892982161E+03  0.00000000000E+00 0.  1.
          6    1    1    2  501    0  0.70452215018E+02  0.40041321348E+02 -0.34403250729E+02  0.19411183807E+03  0.17300000000E+03 0.  1.
         -6    1    1    2    0  503 -0.70452215018E+02 -0.40041321348E+02 -0.42415389554E+03  0.46519065889E+03  0.17300000000E+03 0.  1.
<mgrwt>
<rscale>  2 0.19103880E+03</rscale>
<asrwt>0</asrwt>
<pdfrwt beam="1">  1       21 0.15441950E-01 0.19103880E+03</pdfrwt>
<pdfrwt beam="2">  1       21 0.85989203E-01 0.19103880E+03</pdfrwt>
<totfact> 0.43452794E+04</totfact>
</mgrwt>
</event>
<event>
 4    1  0.3980289E+000  0.1936302E+03  0.7546771E-02  0.1155227E+00
         21   -1    0    0  501  502  0.00000000000E+00  0.00000000000E+00  0.94930550490E+02  0.94930550490E+02  0.00000000000E+00 0.  1.
         21   -1    0    0  502  503 -0.00000000000E+00 -0.00000000000E+00 -0.49342478017E+03  0.49342478017E+03  0.00000000000E+00 0.  1.
          6    1    1    2  501    0  0.58159295638E+02 -0.64661891165E+02 -0.67825930245E+02  0.20516583695E+03  0.17300000000E+03 0.  1.
         -6    1    1    2    0  503 -0.58159295638E+02  0.64661891165E+02 -0.33066829944E+03  0.38318949371E+03  0.17300000000E+03 0.  1.
<mgrwt>
<rscale>  2 0.19363022E+03</rscale>
<asrwt>0</asrwt>
<pdfrwt beam="1">  1       21 0.14604700E-01 0.19363022E+03</pdfrwt>
<pdfrwt beam="2">  1       21 0.75911503E-01 0.19363022E+03</pdfrwt>
<totfact> 0.63705308E+04</totfact>
</mgrwt>
</event>
<event>
 4    1  0.3980289E+000  0.1907698E+03  0.7546771E-02  0.1157769E+00
         21   -1    0    0  501  502  0.00000000000E+00  0.00000000000E+00  0.62030959341E+03  0.62030959341E+03  0.00000000000E+00 0. -1.
         21   -1    0    0  502  503 -0.00000000000E+00 -0.00000000000E+00 -0.60415192178E+02  0.60415192178E+02  0.00000000000E+00 0. -1.
          6    1    1    2  501    0  0.46207233992E+02  0.65795105437E+02  0.33780771111E+03  0.38795251521E+03  0.17300000000E+03 0. -1.
         -6    1    1    2    0  503 -0.46207233992E+02 -0.65795105437E+02  0.22208669012E+03  0.29277227038E+03  0.17300000000E+03 0. -1.
<mgrwt>
<rscale>  2 0.19076977E+03</rscale>
<asrwt>0</asrwt>
<pdfrwt beam="1">  1       21 0.95432241E-01 0.19076977E+03</pdfrwt>
<pdfrwt beam="2">  1       21 0.92946454E-02 0.19076977E+03</pdfrwt>
<totfact> 0.84676670E+04</totfact>
</mgrwt>
</event>
<event>
 4    1  0.3980289E+000  0.1759994E+03  0.7546771E-02  0.1171732E+00
         21   -1    0    0  501  502  0.00000000000E+00  0.00000000000E+00  0.53109489010E+02  0.53109489010E+02  0.00000000000E+00 0. -1.
         21   -1    0    0  502  503 -0.00000000000E+00 -0.00000000000E+00 -0.78884778946E+03  0.78884778946E+03  0.00000000000E+00 0. -1.
          6    1    1    2  501    0 -0.30042071692E+02 -0.12011312051E+02 -0.15294813958E+03  0.23317146286E+03  0.17300000000E+03 0. -1.
         -6    1    1    2    0  503  0.30042071692E+02  0.12011312051E+02 -0.58279016087E+03  0.60878581561E+03  0.17300000000E+03 0. -1.
<mgrwt>
<rscale>  2 0.17599943E+03</rscale>
<asrwt>0</asrwt>
<pdfrwt beam="1">  1       21 0.81706915E-02 0.17599943E+03</pdfrwt>
<pdfrwt beam="2">  1       21 0.12136119E+00 0.17599943E+03</pdfrwt>
<totfact> 0.59896780E+04</totfact>
</mgrwt>
</event>
<event>
 4    1  0.3980289E+000  0.2564178E+03  0.7546771E-02  0.1109315E+00
         21   -1    0    0  501  502  0.00000000000E+00  0.00000000000E+00  0.95830018710E+03  0.95830018710E+03  0.00000000000E+00 0. -1.
         21   -1    0    0  502  503 -0.00000000000E+00 -0.00000000000E+00 -0.71056705975E+02  0.71056705975E+02  0.00000000000E+00 0. -1.
          6    1    1    2  501    0 -0.18235751419E+03  0.50664008739E+02  0.53910335627E+03  0.59697783335E+03  0.17300000000E+03 0. -1.
         -6    1    1    2    0  503  0.18235751419E+03 -0.50664008739E+02  0.34814012485E+03  0.43237905973E+03  0.17300000000E+03 0. -1.
<mgrwt>
<rscale>  2 0.25641783E+03</rscale>
<asrwt>0</asrwt>
<pdfrwt beam="1">  1       21 0.14743079E+00 0.25641783E+03</pdfrwt>
<pdfrwt beam="2">  1       21 0.10931802E-01 0.25641783E+03</pdfrwt>
<totfact> 0.20866260E+04</totfact>
</mgrwt>
</event>
<event>
 4    1  0.3980289E+000  0.1997635E+03  0.7546771E-02  0.1149939E+00
         21   -1    0    0  501  502  0.00000000000E+00  0.00000000000E+00  0.62096228432E+03  0.62096228432E+03  0.00000000000E+00 0. -1.
         21   -1    0    0  502  503 -0.00000000000E+00 -0.00000000000E+00 -0.69096018321E+02  0.69096018321E+02  0.00000000000E+00 0. -1.
          6    1    1    2  501    0 -0.97127615795E+02  0.23295892549E+02  0.36717560234E+03  0.41799927669E+03  0.17300000000E+03 0. -1.
         -6    1    1    2    0  503  0.97127615795E+02 -0.23295892549E+02  0.18469066367E+03  0.27205902596E+03  0.17300000000E+03 0. -1.
<mgrwt>
<rscale>  2 0.19976354E+03</rscale>
<asrwt>0</asrwt>
<pdfrwt beam="1">  1       21 0.95532655E-01 0.19976354E+03</pdfrwt>
<pdfrwt beam="2">  1       21 0.10630157E-01 0.19976354E+03</pdfrwt>
<totfact> 0.66357832E+04</totfact>
</mgrwt>
</event>
<event>
 4    1  0.3980289E+000  0.2326872E+03  0.7546771E-02  0.1124763E+00
         21   -1    0    0  501  502  0.00000000000E+00  0.00000000000E+00  0.29254152624E+03  0.29254152624E+03  0.00000000000E+00 0.  1.
         21   -1    0    0  502  503 -0.00000000000E+00 -0.00000000000E+00 -0.20796560347E+03  0.20796560347E+03  0.00000000000E+00 0.  1.
          6    1    1    2  501    0  0.81304411755E+02  0.13267973839E+03  0.12530635150E+03  0.26428205023E+03  0.17300000000E+03 0.  1.
         -6    1    1    2    0  503 -0.81304411755E+02 -0.13267973839E+03 -0.40730428730E+02  0.23622507948E+03  0.17300000000E+03 0.  1.
<mgrwt>
<rscale>  2 0.23268717E+03</rscale>
<asrwt>0</asrwt>
<pdfrwt beam="1">  1       21 0.45006388E-01 0.23268717E+03</pdfrwt>
<pdfrwt beam="2">  1       21 0.31994708E-01 0.23268717E+03</pdfrwt>
<totfact> 0.43667007E+04</totfact>
</mgrwt>
</event>
<event>
 4    1  0.3980289E+000  0.2035397E+03  0.7546771E-02  0.1146786E+00
         21   -1    0    0  503  502  0.00000000000E+00  0.00000000000E+00  0.23270871337E+03  0.23270871337E+03  0.00000000000E+00 0.  1.
         21   -1    0    0  501  503 -0.00000000000E+00 -0.00000000000E+00 -0.18580549794E+03  0.18580549794E+03  0.00000000000E+00 0. -1.
          6    1    1    2  501    0 -0.42302993571E+02 -0.98538675206E+02 -0.19363914367E+02  0.20445873656E+03  0.17300000000E+03 0. -1.
         -6    1    1    2    0  502  0.42302993571E+02  0.98538675206E+02  0.66267129796E+02  0.21405547474E+03  0.17300000000E+03 0.  1.
<mgrwt>
<rscale>  2 0.20353971E+03</rscale>
<asrwt>0</asrwt>
<pdfrwt beam="1">  1       21 0.35801340E-01 0.20353971E+03</pdfrwt>
<pdfrwt beam="2">  1       21 0.28585461E-01 0.20353971E+03</pdfrwt>
<totfact> 0.87658395E+04</totfact>
</mgrwt>
</event>
<event>
 4    1  0.3980289E+000  0.2547726E+03  0.7546771E-02  0.1110325E+00
         21   -1    0    0  503  502  0.00000000000E+00  0.00000000000E+00  0.41715477968E+03  0.41715477968E+03  0.00000000000E+00 0.  1.
         21   -1    0    0  501  503 -0.00000000000E+00 -0.00000000000E+00 -0.70716090193E+03  0.70716090193E+03  0.00000000000E+00 0.  1.
          6    1    1    2  501    0  0.12675415874E+03 -0.13752621997E+03 -0.64147657294E+03  0.69021827820E+03  0.17300000000E+03 0.  1.
         -6    1    1    2    0  502 -0.12675415874E+03  0.13752621997E+03  0.35147045069E+03  0.43409740341E+03  0.17300000000E+03 0.  1.
<mgrwt>
<rscale>  2 0.25477260E+03</rscale>
<asrwt>0</asrwt>
<pdfrwt beam="1">  1       21 0.64177658E-01 0.25477260E+03</pdfrwt>
<pdfrwt beam="2">  1       21 0.10879399E+00 0.25477260E+03</pdfrwt>
<totfact> 0.14255924E+03</totfact>
</mgrwt>
</event>
<event>
 4    1  0.3980289E+000  0.2361228E+03  0.7546771E-02  0.1122403E+00
         21   -1    0    0  503  502  0.00000000000E+00  0.00000000000E+00  0.80718342960E+03  0.80718342960E+03  0.00000000000E+00 0.  1.
         21   -1    0    0  501  503 -0.00000000000E+00 -0.00000000000E+00 -0.81582664363E+02  0.81582664363E+02  0.00000000000E+00 0. -1.
          6    1    1    2  501    0 -0.21674788218E+02 -0.15923309442E+03  0.18878228948E+03  0.30231230148E+03  0.17300000000E+03 0. -1.
         -6    1    1    2    0  502  0.21674788218E+02  0.15923309442E+03  0.53681847577E+03  0.58645379249E+03  0.17300000000E+03 0.  1.
<mgrwt>
<rscale>  2 0.23612280E+03</rscale>
<asrwt>0</asrwt>
<pdfrwt beam="1">  1       21 0.12418206E+00 0.23612280E+03</pdfrwt>
<pdfrwt beam="2">  1       21 0.12551180E-01 0.23612280E+03</pdfrwt>
<totfact> 0.25607546E+04</totfact>
</mgrwt>
</event>
<event>
 4    1  0.3980289E+000  0.1792964E+03  0.7546771E-02  0.1168486E+00
         21   -1    0    0  503  502  0.00000000000E+00  0.00000000000E+00  0.25882980520E+03  0.25882980520E+03  0.00000000000E+00 0.  1.
         21   -1    0    0  501  503 -0.00000000000E+00 -0.00000000000E+00 -0.51457782778E+03  0.51457782778E+03  0.00000000000E+00 0.  1.
          6    1    1    2  501    0 -0.93452994262E+01  0.46161276013E+02 -0.46469127458E+03  0.49808149804E+03  0.17300000000E+03 0.  1.
         -6    1    1    2    0  502  0.93452994262E+01 -0.46161276013E+02  0.20894325199E+03  0.27532613494E+03  0.17300000000E+03 0.  1.
<mgrwt>
<rscale>  2 0.17929640E+03</rscale>
<asrwt>0</asrwt>
<pdfrwt beam="1">  1       21 0.39819971E-01 0.17929640E+03</pdfrwt>
<pdfrwt beam="2">  1       21 0.79165819E-01 0.17929640E+03</pdfrwt>
<totfact> 0.86432689E+03</totfact>
</mgrwt>
</event>
<event>
 4    1  0.3980289E+000  0.1949270E+03  0.7546771E-02  0.1154091E+00
         21   -1    0    0  503  502  0.00000000000E+00  0.00000000000E+00  0.57682950559E+03  0.57682950559E+03  0.00000000000E+00 0. -1.
         21   -1    0    0  501  503 -0.00000000000E+00 -0.00000000000E+00 -0.79022433940E+02  0.79022433940E+02  0.00000000000E+00 0. -1.
          6    1    1    2  501    0 -0.89110605161E+02 -0.11262774416E+02  0.11512666043E+03  0.22638617003E+03  0.17300000000E+03 0. -1.
         -6    1    1    2    0  502  0.89110605161E+02  0.11262774416E+02  0.38268041122E+03  0.42946576950E+03  0.17300000000E+03 0. -1.
<mgrwt>
<rscale>  2 0.19492704E+03</rscale>
<asrwt>0</asrwt>
<pdfrwt beam="1">  1       21 0.88742998E-01 0.19492704E+03</pdfrwt>
<pdfrwt beam="2">  1       21 0.12157298E-01 0.19492704E+03</pdfrwt>
<totfact> 0.62154719E+04</totfact>
</mgrwt>
</event>
<event>
 4    1  0.3980289E+000  0.2364185E+03  0.7546771E-02  0.1122202E+00
         21   -1    0    0  501  502  0.00000000000E+00  0.00000000000E+00  0.94873683885E+02  0.94873683885E+02  0.00000000000E+00 0. -1.
         21   -1    0    0  502  503 -0.00000000000E+00 -0.00000000000E+00 -0.59182141894E+03  0.59182141894E+03  0.00000000000E+00 0. -1.
          6    1    1    2  501    0 -0.56282930650E+02  0.15098658381E+03 -0.22535524010E+03  0.32661705560E+03  0.17300000000E+03 0. -1.
         -6    1    1    2    0  503  0.56282930650E+02 -0.15098658381E+03 -0.27159249496E+03  0.36007804722E+03  0.17300000000E+03 0. -1.
<mgrwt>
<rscale>  2 0.23641852E+03</rscale>
<asrwt>0</asrwt>
<pdfrwt beam="1">  1       21 0.14595951E-01 0.23641852E+03</pdfrwt>
<pdfrwt beam="2">  1       21 0.91049452E-01 0.23641852E+03</pdfrwt>
<totfact> 0.41257052E+04</totfact>
</mgrwt>
</event>
<event>
 4    1  0.3980289E+000  0.2232036E+03  0.7546771E-02  0.1131517E+00
         21   -1    0    0  503  502  0.00000000000E+00  0.00000000000E+00  0.24301993801E+03  0.24301993801E+03  0.00000000000E+00 0.  1.
         21   -1    0    0  501  503 -0.00000000000E+00 -0.00000000000E+00 -0.21260067162E+03  0.21260067162E+03  0.00000000000E+00 0.  1.
          6    1    1    2  501    0  0.13545621655E+03  0.39274309489E+02 -0.27855561176E+02  0.22493508014E+03  0.17300000000E+03 0.  1.
         -6    1    1    2    0  502 -0.13545621655E+03 -0.39274309489E+02  0.58274827563E+02  0.23068552949E+03  0.17300000000E+03 0.  1.
<mgrwt>
<rscale>  2 0.22320362E+03</rscale>
<asrwt>0</asrwt>
<pdfrwt beam="1">  1       21 0.37387683E-01 0.22320362E+03</pdfrwt>
<pdfrwt beam="2">  1       21 0.32707796E-01 0.22320362E+03</pdfrwt>
<totfact> 0.61233671E+04</totfact>
</mgrwt>
</event>
<event>
 4    1  0.3980289E+000  0.3671257E+03  0.7546771E-02  0.1055797E+00
         21   -1    0    0  501  502  0.00000000000E+00  0.00000000000E+00  0.72796293905E+03  0.72796293905E+03  0.00000000000E+00 0.  1.
         21   -1    0    0  502  503 -0.00000000000E+00 -0.00000000000E+00 -0.27700754911E+03  0.27700754911E+03  0.00000000000E+00 0. -1.
          6    1    1    2  501    0  0.32246576298E+03 -0.29464028698E+02  0.51483757612E+03  0.63232825895E+03  0.17300000000E+03 0.  1.
         -6    1    1    2    0  503 -0.32246576298E+03  0.29464028698E+02 -0.63882186180E+02  0.37264222922E+03  0.17300000000E+03 0. -1.
<mgrwt>
<rscale>  2 0.36712572E+03</rscale>
<asrwt>0</asrwt>
<pdfrwt beam="1">  1       21 0.11199430E+00 0.36712572E+03</pdfrwt>
<pdfrwt beam="2">  1       21 0.42616546E-01 0.36712572E+03</pdfrwt>
<totfact> 0.29712123E+03</totfact>
</mgrwt>
</event>
<event>
 4    1  0.3980289E+000  0.1731893E+03  0.7546771E-02  0.1174562E+00
         21   -1    0    0  501  502  0.00000000000E+00  0.00000000000E+00  0.62490858222E+03  0.62490858222E+03  0.00000000000E+00 0. -1.
         21   -1    0    0  502  503 -0.00000000000E+00 -0.00000000000E+00 -0.49818089603E+02  0.49818089603E+02  0.00000000000E+00 0. -1.
          6    1    1    2  501    0 -0.43320748879E+01  0.68376849732E+01  0.35202456433E+03  0.39232106074E+03  0.17300000000E+03 0.  1.
         -6    1    1    2    0  503  0.43320748879E+01 -0.68376849732E+01  0.22306592829E+03  0.28240561109E+03  0.17300000000E+03 0.  1.
<mgrwt>
<rscale>  2 0.17318926E+03</rscale>
<asrwt>0</asrwt>
<pdfrwt beam="1">  1       21 0.96139776E-01 0.17318926E+03</pdfrwt>
<pdfrwt beam="2">  1       21 0.76643219E-02 0.17318926E+03</pdfrwt>
<totfact> 0.11735574E+05</totfact>
</mgrwt>
</event>
<event>
 4    1  0.3980289E+000  0.2172238E+03  0.7546771E-02  0.1135970E+00
         21   -1    0    0  503  502  0.00000000000E+00  0.00000000000E+00  0.49222217226E+03  0.49222217226E+03  0.00000000000E+00 0. -1.
         21   -1    0    0  501  503 -0.00000000000E+00 -0.00000000000E+00 -0.12866358297E+03  0.12866358297E+03  0.00000000000E+00 0. -1.
          6    1    1    2  501    0  0.45141314488E+02  0.12336718653E+03  0.25035436109E+02  0.21866178003E+03  0.17300000000E+03 0. -1.
         -6    1    1    2    0  502 -0.45141314488E+02 -0.12336718653E+03  0.33852315318E+03  0.40222397520E+03  0.17300000000E+03 0. -1.
<mgrwt>
<rscale>  2 0.21722385E+03</rscale>
<asrwt>0</asrwt>
<pdfrwt beam="1">  1       21 0.75726487E-01 0.21722385E+03</pdfrwt>
<pdfrwt beam="2">  1       21 0.19794398E-01 0.21722385E+03</pdfrwt>
<totfact> 0.36150117E+04</totfact>
</mgrwt>
</event>
<event>
 4    1  0.3980289E+000  0.1892302E+03  0.7546771E-02  0.1159157E+00
         21   -1    0    0  503  502  0.00000000000E+00  0.00000000000E+00  0.40074544574E+03  0.40074544574E+03  0.00000000000E+00 0. -1.
         21   -1    0    0  501  503 -0.00000000000E+00 -0.00000000000E+00 -0.10056972872E+03  0.10056972872E+03  0.00000000000E+00 0.  1.
          6    1    1    2  501    0  0.62925706934E+02  0.43811443940E+02  0.66379885387E+02  0.20053522483E+03  0.17300000000E+03 0.  1.
         -6    1    1    2    0  502 -0.62925706934E+02 -0.43811443940E+02  0.23379583163E+03  0.30077994964E+03  0.17300000000E+03 0. -1.
<mgrwt>
<rscale>  2 0.18923025E+03</rscale>
<asrwt>0</asrwt>
<pdfrwt beam="1">  1       21 0.61653145E-01 0.18923025E+03</pdfrwt>
<pdfrwt beam="2">  1       21 0.15472266E-01 0.18923025E+03</pdfrwt>
<totfact> 0.90729253E+04</totfact>
</mgrwt>
</event>
<event>
 4    1  0.3980289E+000  0.2279383E+03  0.7546771E-02  0.1128099E+00
         21   -1    0    0  501  502  0.00000000000E+00  0.00000000000E+00  0.32257692577E+03  0.32257692577E+03  0.00000000000E+00 0. -1.
         21   -1    0    0  502  503 -0.00000000000E+00 -0.00000000000E+00 -0.17180031856E+03  0.17180031856E+03  0.00000000000E+00 0. -1.
          6    1    1    2  501    0 -0.14579979237E+03 -0.27735748939E+02  0.13717913599E+03  0.26603376961E+03  0.17300000000E+03 0. -1.
         -6    1    1    2    0  503  0.14579979237E+03  0.27735748939E+02  0.13597471220E+02  0.22834347472E+03  0.17300000000E+03 0. -1.
<mgrwt>
<rscale>  2 0.22793826E+03</rscale>
<asrwt>0</asrwt>
<pdfrwt beam="1">  1       21 0.49627219E-01 0.22793826E+03</pdfrwt>
<pdfrwt beam="2">  1       21 0.26430818E-01 0.22793826E+03</pdfrwt>
<totfact> 0.51844246E+04</totfact>
</mgrwt>
</event>
<event>
 4    1  0.3980289E+000  0.1931506E+03  0.7546771E-02  0.1155650E+00
         21   -1    0    0  503  502  0.00000000000E+00  0.00000000000E+00  0.86431614393E+03  0.86431614393E+03  0.00000000000E+00 0.  1.
         21   -1    0    0  501  503 -0.00000000000E+00 -0.00000000000E+00 -0.53214461678E+02  0.53214461678E+02  0.00000000000E+00 0.  1.
          6    1    1    2  501    0 -0.38222314010E+02 -0.76923413156E+02  0.20617461816E+03  0.28251571630E+03  0.17300000000E+03 0.  1.
         -6    1    1    2    0  502  0.38222314010E+02  0.76923413156E+02  0.60492706409E+03  0.63501488932E+03  0.17300000000E+03 0.  1.
<mgrwt>
<rscale>  2 0.19315061E+03</rscale>
<asrwt>0</asrwt>
<pdfrwt beam="1">  1       21 0.13297170E+00 0.19315061E+03</pdfrwt>
<pdfrwt beam="2">  1       21 0.81868409E-02 0.19315061E+03</pdfrwt>
<totfact> 0.47047835E+04</totfact>
</mgrwt>
</event>
<event>
 4    1  0.3980289E+000  0.1899839E+03  0.7546771E-02  0.1158476E+00
         21   -1    0    0  501  502  0.00000000000E+00  0.00000000000E+00  0.19939571033E+04  0.19939571033E+04  0.00000000000E+00 0. -1.
         21   -1    0    0  502  503 -0.00000000000E+00 -0.00000000000E+00 -0.19613429399E+02  0.19613429399E+02  0.00000000000E+00 0. -1.
          6    1    1    2  501    0 -0.41057063021E+02 -0.66926758649E+02  0.12666881680E+04  0.12808562715E+04  0.17300000000E+03 0. -1.
         -6    1    1    2    0  503  0.41057063021E+02  0.66926758649E+02  0.70765550600E+03  0.73271426123E+03  0.17300000000E+03 0. -1.
<mgrwt>
<rscale>  2 0.18998388E+03</rscale>
<asrwt>0</asrwt>
<pdfrwt beam="1">  1       21 0.30676247E+00 0.18998388E+03</pdfrwt>
<pdfrwt beam="2">  1       21 0.30174522E-02 0.18998388E+03</pdfrwt>
<totfact> 0.19611228E+04</totfact>
</mgrwt>
</event>
<event>
 4    1  0.3980289E+000  0.1863770E+03  0.7546771E-02  0.1161770E+00
         21   -1    0    0  503  502  0.00000000000E+00  0.00000000000E+00  0.69972056545E+02  0.69972056545E+02  0.00000000000E+00 0.  1.
         21   -1    0    0  501  503 -0.00000000000E+00 -0.00000000000E+00 -0.50602709222E+03  0.50602709222E+03  0.00000000000E+00 0.  1.
          6    1    1    2  501    0  0.52347273934E+02 -0.45465843302E+02 -0.25768504680E+03  0.31802195418E+03  0.17300000000E+03 0. -1.
         -6    1    1    2    0  502 -0.52347273934E+02  0.45465843302E+02 -0.17836998888E+03  0.25797719459E+03  0.17300000000E+03 0. -1.
<mgrwt>
<rscale>  2 0.18637698E+03</rscale>
<asrwt>0</asrwt>
<pdfrwt beam="1">  1       21 0.10764931E-01 0.18637698E+03</pdfrwt>
<pdfrwt beam="2">  1       21 0.77850324E-01 0.18637698E+03</pdfrwt>
<totfact> 0.10440060E+05</totfact>
</mgrwt>
</event>
<event>
 4    1  0.3980289E+000  0.3211193E+03  0.7546771E-02  0.1075135E+00
         21   -1    0    0  501  502  0.00000000000E+00  0.00000000000E+00  0.12422402822E+03  0.12422402822E+03  0.00000000000E+00 0.  1.
         21   -1    0    0  502  503 -0.00000000000E+00 -0.00000000000E+00 -0.11190636158E+04  0.11190636158E+04  0.00000000000E+00 0.  1.
          6    1    1    2  501    0  0.58971623609E+01  0.27046963534E+03 -0.18152647017E+03  0.36887594058E+03  0.17300000000E+03 0.  1.
         -6    1    1    2    0  503 -0.58971623609E+01 -0.27046963534E+03 -0.81331311746E+03  0.87441170349E+03  0.17300000000E+03 0.  1.
<mgrwt>
<rscale>  2 0.32111929E+03</rscale>
<asrwt>0</asrwt>
<pdfrwt beam="1">  1       21 0.19111390E-01 0.32111929E+03</pdfrwt>
<pdfrwt beam="2">  1       21 0.17216363E+00 0.32111929E+03</pdfrwt>
<totfact> 0.47405184E+03</totfact>
</mgrwt>
</event>
<event>
 4    1  0.3980289E+000  0.1956198E+03  0.7546771E-02  0.1153488E+00
         21   -1    0    0  503  502  0.00000000000E+00  0.00000000000E+00  0.83767297012E+02  0.83767297012E+02  0.00000000000E+00 0.  1.
         21   -1    0    0  501  503 -0.00000000000E+00 -0.00000000000E+00 -0.78120217926E+03  0.78120217926E+03  0.00000000000E+00 0.  1.
          6    1    1    2  501    0 -0.75247591309E+02 -0.51729170771E+02 -0.62740226383E+03  0.65719153050E+03  0.17300000000E+03 0.  1.
         -6    1    1    2    0  502  0.75247591309E+02  0.51729170771E+02 -0.70032618421E+02  0.20777794577E+03  0.17300000000E+03 0.  1.
<mgrwt>
<rscale>  2 0.19561980E+03</rscale>
<asrwt>0</asrwt>
<pdfrwt beam="1">  1       21 0.12887277E-01 0.19561980E+03</pdfrwt>
<pdfrwt beam="2">  1       21 0.12018495E+00 0.19561980E+03</pdfrwt>
<totfact> 0.27115937E+04</totfact>
</mgrwt>
</event>
<event>
 4    1  0.3980289E+000  0.2212377E+03  0.7546771E-02  0.1132964E+00
         21   -1    0    0  501  502  0.00000000000E+00  0.00000000000E+00  0.14968258866E+03  0.14968258866E+03  0.00000000000E+00 0.  1.
         21   -1    0    0  502  503 -0.00000000000E+00 -0.00000000000E+00 -0.33541559918E+03  0.33541559918E+03  0.00000000000E+00 0. -1.
          6    1    1    2  501    0 -0.25399480403E+02 -0.13554331053E+03 -0.54445828967E+02  0.22783869497E+03  0.17300000000E+03 0.  1.
         -6    1    1    2    0  503  0.25399480403E+02  0.13554331053E+03 -0.13128718156E+03  0.25725949288E+03  0.17300000000E+03 0. -1.
<mgrwt>
<rscale>  2 0.22123771E+03</rscale>
<asrwt>0</asrwt>
<pdfrwt beam="1">  1       21 0.23028091E-01 0.22123771E+03</pdfrwt>
<pdfrwt beam="2">  1       21 0.51602400E-01 0.22123771E+03</pdfrwt>
<totfact> 0.62364028E+04</totfact>
</mgrwt>
</event>
<event>
 4    1  0.3980289E+000  0.1760341E+03  0.7546771E-02  0.1171697E+00
         21   -1    0    0  503  502  0.00000000000E+00  0.00000000000E+00  0.59589140631E+03  0.59589140631E+03  0.00000000000E+00 0. -1.
         21   -1    0    0  501  503 -0.00000000000E+00 -0.00000000000E+00 -0.15549279496E+03  0.15549279496E+03  0.00000000000E+00 0.  1.
          6    1    1    2  501    0 -0.29151327912E+02  0.14464218360E+02 -0.86297632225E+02  0.19604921540E+03  0.17300000000E+03 0.  1.
         -6    1    1    2    0  502  0.29151327912E+02 -0.14464218360E+02  0.52669624358E+03  0.55533498587E+03  0.17300000000E+03 0. -1.
<mgrwt>
<rscale>  2 0.17603413E+03</rscale>
<asrwt>0</asrwt>
<pdfrwt beam="1">  1       21 0.91675600E-01 0.17603413E+03</pdfrwt>
<pdfrwt beam="2">  1       21 0.23921969E-01 0.17603413E+03</pdfrwt>
<totfact> 0.16759888E+04</totfact>
</mgrwt>
</event>
<event>
 4    1  0.3980289E+000  0.1737073E+03  0.7546771E-02  0.1174036E+00
         21   -1    0    0  501  502  0.00000000000E+00  0.00000000000E+00  0.43118149177E+03  0.43118149177E+03  0.00000000000E+00 0. -1.
         21   -1    0    0  502  503 -0.00000000000E+00 -0.00000000000E+00 -0.70299554935E+02  0.70299554935E+02  0.00000000000E+00 0. -1.
          6    1    1    2  501    0 -0.98470639886E+01 -0.12176177336E+02  0.19733741019E+03  0.26289974786E+03  0.17300000000E+03 0.  1.
         -6    1    1    2    0  503  0.98470639886E+01  0.12176177336E+02  0.16354452665E+03  0.23858129885E+03  0.17300000000E+03 0.  1.
<mgrwt>
<rscale>  2 0.17370729E+03</rscale>
<asrwt>0</asrwt>
<pdfrwt beam="1">  1       21 0.66335612E-01 0.17370729E+03</pdfrwt>
<pdfrwt beam="2">  1       21 0.10815316E-01 0.17370729E+03</pdfrwt>
<totfact> 0.14820279E+05</totfact>
</mgrwt>
</event>
<event>
 4    1  0.3980289E+000  0.1804912E+03  0.7546771E-02  0.1167328E+00
         21   -1    0    0  501  502  0.00000000000E+00  0.00000000000E+00  0.49479791976E+03  0.49479791976E+03  0.00000000000E+00 0. -1.
         21   -1    0    0  502  503 -0.00000000000E+00 -0.00000000000E+00 -0.67261955323E+02  0.67261955323E+02  0.00000000000E+00 0. -1.
          6    1    1    2  501    0  0.26568971493E+02 -0.44070105871E+02  0.25464107424E+03  0.31212042735E+03  0.17300000000E+03 0. -1.
         -6    1    1    2    0  503 -0.26568971493E+02  0.44070105871E+02  0.17289489020E+03  0.24993944774E+03  0.17300000000E+03 0. -1.
<mgrwt>
<rscale>  2 0.18049123E+03</rscale>
<asrwt>0</asrwt>
<pdfrwt beam="1">  1       21 0.76122755E-01 0.18049123E+03</pdfrwt>
<pdfrwt beam="2">  1       21 0.10347993E-01 0.18049123E+03</pdfrwt>
<totfact> 0.11800211E+05</totfact>
</mgrwt>
</event>
<event>
 4    1  0.3980289E+000  0.1968983E+03  0.7546771E-02  0.1152383E+00
         21   -1    0    0  503  502  0.00000000000E+00  0.00000000000E+00  0.32088039428E+03  0.32088039428E+03  0.00000000000E+00 0.  1.
         21   -1    0    0  501  503 -0.00000000000E+00 -0.00000000000E+00 -0.12398202955E+03  0.12398202955E+03  0.00000000000E+00 0.  1.
          6    1    1    2  501    0  0.87137052782E+02  0.35314089332E+02  0.62930205818E+02  0.20671033278E+03  0.17300000000E+03 0.  1.
         -6    1    1    2    0  502 -0.87137052782E+02 -0.35314089332E+02  0.13396815891E+03  0.23815209105E+03  0.17300000000E+03 0.  1.
<mgrwt>
<rscale>  2 0.19689833E+03</rscale>
<asrwt>0</asrwt>
<pdfrwt beam="1">  1       21 0.49366214E-01 0.19689833E+03</pdfrwt>
<pdfrwt beam="2">  1       21 0.19074158E-01 0.19689833E+03</pdfrwt>
<totfact> 0.98499523E+04</totfact>
</mgrwt>
</event>
<event>
 4    1  0.3980289E+000  0.2163257E+03  0.7546771E-02  0.1136652E+00
         21   -1    0    0  503  502  0.00000000000E+00  0.00000000000E+00  0.27310374770E+03  0.27310374770E+03  0.00000000000E+00 0. -1.
         21   -1    0    0  501  503 -0.00000000000E+00 -0.00000000000E+00 -0.17167445008E+03  0.17167445008E+03  0.00000000000E+00 0.  1.
          6    1    1    2  501    0 -0.27357856532E+02  0.12696206302E+03  0.60355802434E+02  0.22458771259E+03  0.17300000000E+03 0. -1.
         -6    1    1    2    0  502  0.27357856532E+02 -0.12696206302E+03  0.41073495191E+02  0.22019048519E+03  0.17300000000E+03 0. -1.
<mgrwt>
<rscale>  2 0.21632572E+03</rscale>
<asrwt>0</asrwt>
<pdfrwt beam="1">  1       21 0.42015961E-01 0.21632572E+03</pdfrwt>
<pdfrwt beam="2">  1       21 0.26411454E-01 0.21632572E+03</pdfrwt>
<totfact> 0.73582608E+04</totfact>
</mgrwt>
</event>
<event>
 4    1  0.3980289E+000  0.1962239E+03  0.7546771E-02  0.1152965E+00
         21   -1    0    0  501  502  0.00000000000E+00  0.00000000000E+00  0.38920537987E+02  0.38920537987E+02  0.00000000000E+00 0.  1.
         21   -1    0    0  502  503 -0.00000000000E+00 -0.00000000000E+00 -0.12778066576E+04  0.12778066576E+04  0.00000000000E+00 0. -1.
          6    1    1    2  501    0  0.80653891782E+02  0.45494843642E+02 -0.30660748818E+03  0.36402195383E+03  0.17300000000E+03 0.  1.
         -6    1    1    2    0  503 -0.80653891782E+02 -0.45494843642E+02 -0.93227863143E+03  0.95270524176E+03  0.17300000000E+03 0. -1.
<mgrwt>
<rscale>  2 0.19622393E+03</rscale>
<asrwt>0</asrwt>
<pdfrwt beam="1">  1       21 0.59877759E-02 0.19622393E+03</pdfrwt>
<pdfrwt beam="2">  1       21 0.19658561E+00 0.19622393E+03</pdfrwt>
<totfact> 0.27878049E+04</totfact>
</mgrwt>
</event>
<event>
 4    1  0.3980289E+000  0.1745440E+03  0.7546771E-02  0.1173190E+00
         21   -1    0    0  501  502  0.00000000000E+00  0.00000000000E+00  0.83815669617E+02  0.83815669617E+02  0.00000000000E+00 0. -1.
         21   -1    0    0  502  503 -0.00000000000E+00 -0.00000000000E+00 -0.40396554281E+03  0.40396554281E+03  0.00000000000E+00 0. -1.
          6    1    1    2  501    0 -0.22609178288E+02 -0.50414460589E+01 -0.82868142630E+02  0.19321676994E+03  0.17300000000E+03 0. -1.
         -6    1    1    2    0  503  0.22609178288E+02  0.50414460589E+01 -0.23728173056E+03  0.29456444249E+03  0.17300000000E+03 0. -1.
<mgrwt>
<rscale>  2 0.17454395E+03</rscale>
<asrwt>0</asrwt>
<pdfrwt beam="1">  1       21 0.12894718E-01 0.17454395E+03</pdfrwt>
<pdfrwt beam="2">  1       21 0.62148546E-01 0.17454395E+03</pdfrwt>
<totfact> 0.12471023E+05</totfact>
</mgrwt>
</event>
<event>
 4    1  0.3980289E+000  0.3376912E+03  0.7546771E-02  0.1067784E+00
         21   -1    0    0  501  502  0.00000000000E+00  0.00000000000E+00  0.65539988704E+03  0.65539988704E+03  0.00000000000E+00 0.  1.
         21   -1    0    0  502  503 -0.00000000000E+00 -0.00000000000E+00 -0.18264292742E+03  0.18264292742E+03  0.00000000000E+00 0. -1.
          6    1    1    2  501    0  0.28999453540E+03  0.30846152819E+01  0.32756433944E+03  0.47046120125E+03  0.17300000000E+03 0.  1.
         -6    1    1    2    0  503 -0.28999453540E+03 -0.30846152819E+01  0.14519262018E+03  0.36758161321E+03  0.17300000000E+03 0. -1.
<mgrwt>
<rscale>  2 0.33769120E+03</rscale>
<asrwt>0</asrwt>
<pdfrwt beam="1">  1       21 0.10083075E+00 0.33769120E+03</pdfrwt>
<pdfrwt beam="2">  1       21 0.28098912E-01 0.33769120E+03</pdfrwt>
<totfact> 0.89960911E+03</totfact>
</mgrwt>
</event>
<event>
 4    1  0.3980289E+000  0.2218448E+03  0.7546771E-02  0.1132515E+00
         21   -1    0    0  503  502  0.00000000000E+00  0.00000000000E+00  0.21266615104E+03  0.21266615104E+03  0.00000000000E+00 0.  1.
         21   -1    0    0  501  503 -0.00000000000E+00 -0.00000000000E+00 -0.24168707561E+03  0.24168707561E+03  0.00000000000E+00 0.  1.
          6    1    1    2  501    0  0.56258666118E+01 -0.13876042464E+03 -0.61334592704E+02  0.23016741316E+03  0.17300000000E+03 0.  1.
         -6    1    1    2    0  502 -0.56258666118E+01  0.13876042464E+03  0.32313668135E+02  0.22418581349E+03  0.17300000000E+03 0.  1.
<mgrwt>
<rscale>  2 0.22184478E+03</rscale>
<asrwt>0</asrwt>
<pdfrwt beam="1">  1       21 0.32717870E-01 0.22184478E+03</pdfrwt>
<pdfrwt beam="2">  1       21 0.37182627E-01 0.22184478E+03</pdfrwt>
<totfact> 0.61911171E+04</totfact>
</mgrwt>
</event>
<event>
 4    1  0.3980289E+000  0.1790509E+03  0.7546771E-02  0.1168725E+00
         21   -1    0    0  501  502  0.00000000000E+00  0.00000000000E+00  0.78426586149E+03  0.78426586149E+03  0.00000000000E+00 0.  1.
         21   -1    0    0  502  503 -0.00000000000E+00 -0.00000000000E+00 -0.48049126724E+02  0.48049126724E+02  0.00000000000E+00 0.  1.
          6    1    1    2  501    0  0.44540090660E+02 -0.12099479917E+02  0.52887976116E+03  0.55836638407E+03  0.17300000000E+03 0.  1.
         -6    1    1    2    0  503 -0.44540090660E+02  0.12099479917E+02  0.20733697360E+03  0.27394860415E+03  0.17300000000E+03 0.  1.
<mgrwt>
<rscale>  2 0.17905088E+03</rscale>
<asrwt>0</asrwt>
<pdfrwt beam="1">  1       21 0.12065628E+00 0.17905088E+03</pdfrwt>
<pdfrwt beam="2">  1       21 0.73921739E-02 0.17905088E+03</pdfrwt>
<totfact> 0.72182545E+04</totfact>
</mgrwt>
</event>
<event>
 4    1  0.3980289E+000  0.3024508E+03  0.7546771E-02  0.1084022E+00
         21   -1    0    0  501  502  0.00000000000E+00  0.00000000000E+00  0.36861745905E+03  0.36861745905E+03  0.00000000000E+00 0.  1.
         21   -1    0    0  502  503 -0.00000000000E+00 -0.00000000000E+00 -0.29279954355E+03  0.29279954355E+03  0.00000000000E+00 0.  1.
          6    1    1    2  501    0  0.15334582101E+03 -0.19501936800E+03  0.16703532681E+03  0.34551019539E+03  0.17300000000E+03 0.  1.
         -6    1    1    2    0  503 -0.15334582101E+03  0.19501936800E+03 -0.91217411302E+02  0.31590680721E+03  0.17300000000E+03 0.  1.
<mgrwt>
<rscale>  2 0.30245081E+03</rscale>
<asrwt>0</asrwt>
<pdfrwt beam="1">  1       21 0.56710378E-01 0.30245081E+03</pdfrwt>
<pdfrwt beam="2">  1       21 0.45046084E-01 0.30245081E+03</pdfrwt>
<totfact> 0.13036626E+04</totfact>
</mgrwt>
</event>
<event>
 4    1  0.3980289E+000  0.1965036E+03  0.7546771E-02  0.1152723E+00
         21   -1    0    0  501  502  0.00000000000E+00  0.00000000000E+00  0.86602678699E+02  0.86602678699E+02  0.00000000000E+00 0. -1.
         21   -1    0    0  502  503 -0.00000000000E+00 -0.00000000000E+00 -0.65244775377E+03  0.65244775377E+03  0.00000000000E+00 0.  1.
          6    1    1    2  501    0 -0.13219224800E+02 -0.92249146818E+02 -0.74995211143E+02  0.21032815952E+03  0.17300000000E+03 0. -1.
         -6    1    1    2    0  503  0.13219224800E+02  0.92249146818E+02 -0.49084986393E+03  0.52872227295E+03  0.17300000000E+03 0.  1.
<mgrwt>
<rscale>  2 0.19650357E+03</rscale>
<asrwt>0</asrwt>
<pdfrwt beam="1">  1       21 0.13323489E-01 0.19650357E+03</pdfrwt>
<pdfrwt beam="2">  1       21 0.10037658E+00 0.19650357E+03</pdfrwt>
<totfact> 0.39485342E+04</totfact>
</mgrwt>
</event>
<event>
 4    1  0.3980289E+000  0.2232703E+03  0.7546771E-02  0.1131468E+00
         21   -1    0    0  501  502  0.00000000000E+00  0.00000000000E+00  0.52574014920E+03  0.52574014920E+03  0.00000000000E+00 0. -1.
         21   -1    0    0  502  503 -0.00000000000E+00 -0.00000000000E+00 -0.29236778041E+03  0.29236778041E+03  0.00000000000E+00 0. -1.
          6    1    1    2  501    0 -0.13723661896E+03  0.32965532324E+02  0.45292988374E+03  0.50497039070E+03  0.17300000000E+03 0. -1.
         -6    1    1    2    0  503  0.13723661896E+03 -0.32965532324E+02 -0.21955751494E+03  0.31313753891E+03  0.17300000000E+03 0. -1.
<mgrwt>
<rscale>  2 0.22327028E+03</rscale>
<asrwt>0</asrwt>
<pdfrwt beam="1">  1       21 0.80883100E-01 0.22327028E+03</pdfrwt>
<pdfrwt beam="2">  1       21 0.44979658E-01 0.22327028E+03</pdfrwt>
<totfact> 0.62239748E+03</totfact>
</mgrwt>
</event>
<event>
 4    1  0.3980289E+000  0.1739166E+03  0.7546771E-02  0.1173824E+00
         21   -1    0    0  503  502  0.00000000000E+00  0.00000000000E+00  0.75971024926E+03  0.75971024926E+03  0.00000000000E+00 0. -1.
         21   -1    0    0  501  503 -0.00000000000E+00 -0.00000000000E+00 -0.72052748367E+02  0.72052748367E+02  0.00000000000E+00 0. -1.
          6    1    1    2  501    0 -0.79354908942E+01  0.15969521934E+02  0.65643337832E+02  0.18589256426E+03  0.17300000000E+03 0. -1.
         -6    1    1    2    0  502  0.79354908942E+01 -0.15969521934E+02  0.62201416306E+03  0.64587043336E+03  0.17300000000E+03 0. -1.
<mgrwt>
<rscale>  2 0.17391664E+03</rscale>
<asrwt>0</asrwt>
<pdfrwt beam="1">  1       21 0.11687849E+00 0.17391664E+03</pdfrwt>
<pdfrwt beam="2">  1       21 0.11085039E-01 0.17391664E+03</pdfrwt>
<totfact> 0.38494145E+04</totfact>
</mgrwt>
</event>
<event>
 4    1  0.3980289E+000  0.2159029E+03  0.7546771E-02  0.1136975E+00
         21   -1    0    0  503  502  0.00000000000E+00  0.00000000000E+00  0.11363676818E+04  0.11363676818E+04  0.00000000000E+00 0.  1.
         21   -1    0    0  501  503 -0.00000000000E+00 -0.00000000000E+00 -0.42762137471E+02  0.42762137471E+02  0.00000000000E+00 0. -1.
          6    1    1    2  501    0  0.12879703752E+03  0.98173845839E+01  0.42781150299E+03  0.47920427795E+03  0.17300000000E+03 0. -1.
         -6    1    1    2    0  502 -0.12879703752E+03 -0.98173845839E+01  0.66579404137E+03  0.69992554135E+03  0.17300000000E+03 0.  1.
<mgrwt>
<rscale>  2 0.21590289E+03</rscale>
<asrwt>0</asrwt>
<pdfrwt beam="1">  1       21 0.17482577E+00 0.21590289E+03</pdfrwt>
<pdfrwt beam="2">  1       21 0.65787912E-02 0.21590289E+03</pdfrwt>
<totfact> 0.32752681E+04</totfact>
</mgrwt>
</event>
<event>
 4    1  0.3980289E+000  0.2615516E+03  0.7546771E-02  0.1106215E+00
         21   -1    0    0  503  502  0.00000000000E+00  0.00000000000E+00  0.11893009289E+04  0.11893009289E+04  0.00000000000E+00 0. -1.
         21   -1    0    0  501  503 -0.00000000000E+00 -0.00000000000E+00 -0.59085081534E+02  0.59085081534E+02  0.00000000000E+00 0.  1.
          6    1    1    2  501    0 -0.30200025890E+02 -0.19382522850E+03  0.46353683003E+03  0.53223646396E+03  0.17300000000E+03 0.  1.
         -6    1    1    2    0  502  0.30200025890E+02  0.19382522850E+03  0.66667901730E+03  0.71614954645E+03  0.17300000000E+03 0.  1.
<mgrwt>
<rscale>  2 0.26155164E+03</rscale>
<asrwt>0</asrwt>
<pdfrwt beam="1">  1       21 0.18296936E+00 0.26155164E+03</pdfrwt>
<pdfrwt beam="2">  1       21 0.90900134E-02 0.26155164E+03</pdfrwt>
<totfact> 0.15930192E+04</totfact>
</mgrwt>
</event>
<event>
 4    1  0.3980289E+000  0.2116966E+03  0.7546771E-02  0.1140229E+00
         21   -1    0    0  503  502  0.00000000000E+00  0.00000000000E+00  0.15251845309E+03  0.15251845309E+03  0.00000000000E+00 0.  1.
         21   -1    0    0  501  503 -0.00000000000E+00 -0.00000000000E+00 -0.38731076164E+03  0.38731076164E+03  0.00000000000E+00 0.  1.
          6    1    1    2  501    0 -0.62912878041E+02 -0.10453917192E+03 -0.24999597256E+03  0.32758732421E+03  0.17300000000E+03 0.  1.
         -6    1    1    2    0  502  0.62912878041E+02  0.10453917192E+03  0.15203664018E+02  0.21224189051E+03  0.17300000000E+03 0.  1.
<mgrwt>
<rscale>  2 0.21169664E+03</rscale>
<asrwt>0</asrwt>
<pdfrwt beam="1">  1       21 0.23464378E-01 0.21169664E+03</pdfrwt>
<pdfrwt beam="2">  1       21 0.59586271E-01 0.21169664E+03</pdfrwt>
<totfact> 0.44518143E+04</totfact>
</mgrwt>
</event>
<event>
 4    1  0.3980289E+000  0.1898968E+03  0.7546771E-02  0.1158554E+00
         21   -1    0    0  501  502  0.00000000000E+00  0.00000000000E+00  0.41866676184E+03  0.41866676184E+03  0.00000000000E+00 0.  1.
         21   -1    0    0  502  503 -0.00000000000E+00 -0.00000000000E+00 -0.89720431165E+02  0.89720431165E+02  0.00000000000E+00 0.  1.
          6    1    1    2  501    0 -0.52066208934E+02 -0.58488638141E+02  0.21530567519E+03  0.28708421181E+03  0.17300000000E+03 0.  1.
         -6    1    1    2    0  503  0.52066208934E+02  0.58488638141E+02  0.11364065548E+03  0.22130298119E+03  0.17300000000E+03 0.  1.
<mgrwt>
<rscale>  2 0.18989684E+03</rscale>
<asrwt>0</asrwt>
<pdfrwt beam="1">  1       21 0.64410270E-01 0.18989684E+03</pdfrwt>
<pdfrwt beam="2">  1       21 0.13803144E-01 0.18989684E+03</pdfrwt>
<totfact> 0.10152483E+05</totfact>
</mgrwt>
</event>
<event>
 4    1  0.3980289E+000  0.1896091E+03  0.7546771E-02  0.1158814E+00
         21   -1    0    0  503  502  0.00000000000E+00  0.00000000000E+00  0.39979828715E+03  0.39979828715E+03  0.00000000000E+00 0.  1.
         21   -1    0    0  501  503 -0.00000000000E+00 -0.00000000000E+00 -0.90525358690E+02  0.90525358690E+02  0.00000000000E+00 0. -1.
          6    1    1    2  501    0 -0.66864495610E+02 -0.39392440785E+02  0.13466148458E+03  0.23256255200E+03  0.17300000000E+03 0.  1.
         -6    1    1    2    0  502  0.66864495610E+02  0.39392440785E+02  0.17461144388E+03  0.25776109384E+03  0.17300000000E+03 0. -1.
<mgrwt>
<rscale>  2 0.18960914E+03</rscale>
<asrwt>0</asrwt>
<pdfrwt beam="1">  1       21 0.61507428E-01 0.18960914E+03</pdfrwt>
<pdfrwt beam="2">  1       21 0.13926978E-01 0.18960914E+03</pdfrwt>
<totfact> 0.11039105E+05</totfact>
</mgrwt>
</event>
<event>
 4    1  0.3980289E+000  0.2468200E+03  0.7546771E-02  0.1115331E+00
         21   -1    0    0  501  502  0.00000000000E+00  0.00000000000E+00  0.34442782834E+03  0.34442782834E+03  0.00000000000E+00 0. -1.
         21   -1    0    0  502  503 -0.00000000000E+00 -0.00000000000E+00 -0.18831028039E+03  0.18831028039E+03  0.00000000000E+00 0. -1.
          6    1    1    2  501    0  0.14868743520E+03  0.94250534738E+02  0.14370364270E+03  0.28560611620E+03  0.17300000000E+03 0. -1.
         -6    1    1    2    0  503 -0.14868743520E+03 -0.94250534738E+02  0.12413905252E+02  0.24713199253E+03  0.17300000000E+03 0. -1.
<mgrwt>
<rscale>  2 0.24682001E+03</rscale>
<asrwt>0</asrwt>
<pdfrwt beam="1">  1       21 0.52988897E-01 0.24682001E+03</pdfrwt>
<pdfrwt beam="2">  1       21 0.28970812E-01 0.24682001E+03</pdfrwt>
<totfact> 0.37494786E+04</totfact>
</mgrwt>
</event>
<event>
 4    1  0.3980289E+000  0.1768895E+03  0.7546771E-02  0.1170848E+00
         21   -1    0    0  501  502  0.00000000000E+00  0.00000000000E+00  0.97069150822E+02  0.97069150822E+02  0.00000000000E+00 0.  1.
         21   -1    0    0  502  503 -0.00000000000E+00 -0.00000000000E+00 -0.84480197208E+03  0.84480197208E+03  0.00000000000E+00 0.  1.
          6    1    1    2  501    0 -0.85149488921E+01  0.35893941265E+02 -0.35194706528E+01  0.17692446424E+03  0.17300000000E+03 0.  1.
         -6    1    1    2    0  503  0.85149488921E+01 -0.35893941265E+02 -0.74421335060E+03  0.76494665866E+03  0.17300000000E+03 0.  1.
<mgrwt>
<rscale>  2 0.17688946E+03</rscale>
<asrwt>0</asrwt>
<pdfrwt beam="1">  1       21 0.14933715E-01 0.17688946E+03</pdfrwt>
<pdfrwt beam="2">  1       21 0.12996954E+00 0.17688946E+03</pdfrwt>
<totfact> 0.17286433E+04</totfact>
</mgrwt>
</event>
<event>
 4    1  0.3980289E+000  0.1860196E+03  0.7546771E-02  0.1162101E+00
         21   -1    0    0  503  502  0.00000000000E+00  0.00000000000E+00  0.67458371139E+03  0.67458371139E+03  0.00000000000E+00 0.  1.
         21   -1    0    0  501  503 -0.00000000000E+00 -0.00000000000E+00 -0.64149253803E+02  0.64149253803E+02  0.00000000000E+00 0. -1.
          6    1    1    2  501    0  0.12571233495E+02  0.67203201187E+02  0.13987959253E+03  0.23274364990E+03  0.17300000000E+03 0. -1.
         -6    1    1    2    0  502 -0.12571233495E+02 -0.67203201187E+02  0.47055486506E+03  0.50598931529E+03  0.17300000000E+03 0.  1.
<mgrwt>
<rscale>  2 0.18601964E+03</rscale>
<asrwt>0</asrwt>
<pdfrwt beam="1">  1       21 0.10378210E+00 0.18601964E+03</pdfrwt>
<pdfrwt beam="2">  1       21 0.98691165E-02 0.18601964E+03</pdfrwt>
<totfact> 0.62598357E+04</totfact>
</mgrwt>
</event>
<event>
 4    1  0.3980289E+000  0.2735688E+03  0.7546771E-02  0.1099254E+00
         21   -1    0    0  503  502  0.00000000000E+00  0.00000000000E+00  0.77727936463E+02  0.77727936463E+02  0.00000000000E+00 0. -1.
         21   -1    0    0  501  503 -0.00000000000E+00 -0.00000000000E+00 -0.10496510453E+04  0.10496510453E+04  0.00000000000E+00 0. -1.
          6    1    1    2  501    0  0.18773166741E+03 -0.98324514751E+02 -0.64806586779E+03  0.70344101255E+03  0.17300000000E+03 0. -1.
         -6    1    1    2    0  502 -0.18773166741E+03  0.98324514751E+02 -0.32385724101E+03  0.42393796917E+03  0.17300000000E+03 0. -1.
<mgrwt>
<rscale>  2 0.27356880E+03</rscale>
<asrwt>0</asrwt>
<pdfrwt beam="1">  1       21 0.11958144E-01 0.27356880E+03</pdfrwt>
<pdfrwt beam="2">  1       21 0.16148477E+00 0.27356880E+03</pdfrwt>
<totfact> 0.13772256E+04</totfact>
</mgrwt>
</event>
<event>
 4    1  0.3980289E+000  0.2049914E+03  0.7546771E-02  0.1145595E+00
         21   -1    0    0  501  502  0.00000000000E+00  0.00000000000E+00  0.10227041591E+04  0.10227041591E+04  0.00000000000E+00 0.  1.
         21   -1    0    0  502  503 -0.00000000000E+00 -0.00000000000E+00 -0.41088879169E+02  0.41088879169E+02  0.00000000000E+00 0. -1.
          6    1    1    2  501    0  0.10736421308E+03 -0.23778459991E+02  0.49217622923E+03  0.53315938520E+03  0.17300000000E+03 0.  1.
         -6    1    1    2    0  503 -0.10736421308E+03  0.23778459991E+02  0.48943905066E+03  0.53063365302E+03  0.17300000000E+03 0. -1.
<mgrwt>
<rscale>  2 0.20499144E+03</rscale>
<asrwt>0</asrwt>
<pdfrwt beam="1">  1       21 0.15733908E+00 0.20499144E+03</pdfrwt>
<pdfrwt beam="2">  1       21 0.63213668E-02 0.20499144E+03</pdfrwt>
<totfact> 0.47135327E+04</totfact>
</mgrwt>
</event>
<event>
 4    1  0.3980289E+000  0.1852708E+03  0.7546771E-02  0.1162797E+00
         21   -1    0    0  501  502  0.00000000000E+00  0.00000000000E+00  0.90707929013E+02  0.90707929013E+02  0.00000000000E+00 0. -1.
         21   -1    0    0  502  503 -0.00000000000E+00 -0.00000000000E+00 -0.48882882303E+03  0.48882882303E+03  0.00000000000E+00 0. -1.
          6    1    1    2  501    0  0.37021506264E+02 -0.55006027892E+02 -0.61344573007E+02  0.19516252629E+03  0.17300000000E+03 0. -1.
         -6    1    1    2    0  503 -0.37021506264E+02  0.55006027892E+02 -0.33677632101E+03  0.38437422575E+03  0.17300000000E+03 0. -1.
<mgrwt>
<rscale>  2 0.18527076E+03</rscale>
<asrwt>0</asrwt>
<pdfrwt beam="1">  1       21 0.13955066E-01 0.18527076E+03</pdfrwt>
<pdfrwt beam="2">  1       21 0.75204432E-01 0.18527076E+03</pdfrwt>
<totfact> 0.70902602E+04</totfact>
</mgrwt>
</event>
<event>
 4    1  0.3980289E+000  0.2672242E+03  0.7546771E-02  0.1102879E+00
         21   -1    0    0  501  502  0.00000000000E+00  0.00000000000E+00  0.72803125154E+03  0.72803125154E+03  0.00000000000E+00 0.  1.
         21   -1    0    0  502  503 -0.00000000000E+00 -0.00000000000E+00 -0.15263871585E+03  0.15263871585E+03  0.00000000000E+00 0.  1.
          6    1    1    2  501    0  0.12711259999E+03  0.15912944773E+03  0.55094351209E+03  0.61232960710E+03  0.17300000000E+03 0.  1.
         -6    1    1    2    0  503 -0.12711259999E+03 -0.15912944773E+03  0.24449023599E+02  0.26834036030E+03  0.17300000000E+03 0.  1.
<mgrwt>
<rscale>  2 0.26722424E+03</rscale>
<asrwt>0</asrwt>
<pdfrwt beam="1">  1       21 0.11200481E+00 0.26722424E+03</pdfrwt>
<pdfrwt beam="2">  1       21 0.23482880E-01 0.26722424E+03</pdfrwt>
<totfact> 0.10183846E+04</totfact>
</mgrwt>
</event>
<event>
 4    1  0.3980289E+000  0.1806447E+03  0.7546771E-02  0.1167181E+00
         21   -1    0    0  501  502  0.00000000000E+00  0.00000000000E+00  0.97507294089E+02  0.97507294089E+02  0.00000000000E+00 0. -1.
         21   -1    0    0  502  503 -0.00000000000E+00 -0.00000000000E+00 -0.33500275678E+03  0.33500275678E+03  0.00000000000E+00 0.  1.
          6    1    1    2  501    0  0.51955523696E+02  0.20359742455E+01 -0.12558898239E+03  0.22001162272E+03  0.17300000000E+03 0.  1.
         -6    1    1    2    0  503 -0.51955523696E+02 -0.20359742455E+01 -0.11190648031E+03  0.21249842816E+03  0.17300000000E+03 0. -1.
<mgrwt>
<rscale>  2 0.18064474E+03</rscale>
<asrwt>0</asrwt>
<pdfrwt beam="1">  1       21 0.15001122E-01 0.18064474E+03</pdfrwt>
<pdfrwt beam="2">  1       21 0.51538885E-01 0.18064474E+03</pdfrwt>
<totfact> 0.14084562E+05</totfact>
</mgrwt>
</event>
<event>
 4    1  0.3980289E+000  0.1934454E+03  0.7546771E-02  0.1155390E+00
         21   -1    0    0  503  502  0.00000000000E+00  0.00000000000E+00  0.16436837007E+03  0.16436837007E+03  0.00000000000E+00 0. -1.
         21   -1    0    0  501  503 -0.00000000000E+00 -0.00000000000E+00 -0.24952444788E+03  0.24952444788E+03  0.00000000000E+00 0. -1.
          6    1    1    2  501    0 -0.93250197249E+00 -0.86552033927E+02 -0.10382843481E+03  0.21954832728E+03  0.17300000000E+03 0. -1.
         -6    1    1    2    0  502  0.93250197249E+00  0.86552033927E+02  0.18672357005E+02  0.19434449067E+03  0.17300000000E+03 0. -1.
<mgrwt>
<rscale>  2 0.19344540E+03</rscale>
<asrwt>0</asrwt>
<pdfrwt beam="1">  1       21 0.25287441E-01 0.19344540E+03</pdfrwt>
<pdfrwt beam="2">  1       21 0.38388377E-01 0.19344540E+03</pdfrwt>
<totfact> 0.96950858E+04</totfact>
</mgrwt>
</event>
<event>
 4    1  0.3980289E+000  0.1809641E+03  0.7546771E-02  0.1166873E+00
         21   -1    0    0  503  502  0.00000000000E+00  0.00000000000E+00  0.19030183053E+03  0.19030183053E+03  0.00000000000E+00 0.  1.
         21   -1    0    0  501  503 -0.00000000000E+00 -0.00000000000E+00 -0.26404851068E+03  0.26404851068E+03  0.00000000000E+00 0.  1.
          6    1    1    2  501    0  0.43258239180E+02  0.30785317104E+02 -0.17094215148E+03  0.24893619697E+03  0.17300000000E+03 0.  1.
         -6    1    1    2    0  502 -0.43258239180E+02 -0.30785317104E+02  0.97195471337E+02  0.20541414424E+03  0.17300000000E+03 0.  1.
<mgrwt>
<rscale>  2 0.18096412E+03</rscale>
<asrwt>0</asrwt>
<pdfrwt beam="1">  1       21 0.29277205E-01 0.18096412E+03</pdfrwt>
<pdfrwt beam="2">  1       21 0.40622847E-01 0.18096412E+03</pdfrwt>
<totfact> 0.65567397E+04</totfact>
</mgrwt>
</event>
<event>
 4    1  0.3980289E+000  0.2055345E+03  0.7546771E-02  0.1145152E+00
         21   -1    0    0  501  502  0.00000000000E+00  0.00000000000E+00  0.97599942723E+03  0.97599942723E+03  0.00000000000E+00 0.  1.
         21   -1    0    0  502  503 -0.00000000000E+00 -0.00000000000E+00 -0.62172748094E+02  0.62172748094E+02  0.00000000000E+00 0.  1.
          6    1    1    2  501    0 -0.11096215713E+03  0.16879867546E+01  0.74303405522E+03  0.77093712897E+03  0.17300000000E+03 0.  1.
         -6    1    1    2    0  503  0.11096215713E+03 -0.16879867546E+01  0.17079262392E+03  0.26723504635E+03  0.17300000000E+03 0.  1.
<mgrwt>
<rscale>  2 0.20553455E+03</rscale>
<asrwt>0</asrwt>
<pdfrwt beam="1">  1       21 0.15015375E+00 0.20553455E+03</pdfrwt>
<pdfrwt beam="2">  1       21 0.95650388E-02 0.20553455E+03</pdfrwt>
<totfact> 0.25947728E+04</totfact>
</mgrwt>
</event>
<event>
 4    1  0.3980289E+000  0.4477402E+03  0.7546771E-02  0.1028398E+00
         21   -1    0    0  501  502  0.00000000000E+00  0.00000000000E+00  0.29691846203E+04  0.29691846203E+04  0.00000000000E+00 0. -1.
         21   -1    0    0  502  503 -0.00000000000E+00 -0.00000000000E+00 -0.12992764605E+03  0.12992764605E+03  0.00000000000E+00 0.  1.
          6    1    1    2  501    0  0.29867949538E+03  0.28518917345E+03  0.24935804365E+04  0.25334590383E+04  0.17300000000E+03 0. -1.
         -6    1    1    2    0  503 -0.29867949538E+03 -0.28518917345E+03  0.34567653776E+03  0.56565322802E+03  0.17300000000E+03 0.  1.
<mgrwt>
<rscale>  2 0.44774022E+03</rscale>
<asrwt>0</asrwt>
<pdfrwt beam="1">  1       21 0.45679758E+00 0.44774022E+03</pdfrwt>
<pdfrwt beam="2">  1       21 0.19988871E-01 0.44774022E+03</pdfrwt>
<totfact> 0.64465512E+01</totfact>
</mgrwt>
</event>
<event>
 4    1  0.3980289E+000  0.2064039E+03  0.7546771E-02  0.1144446E+00
         21   -1    0    0  503  502  0.00000000000E+00  0.00000000000E+00  0.34556285259E+02  0.34556285259E+02  0.00000000000E+00 0.  1.
         21   -1    0    0  501  503 -0.00000000000E+00 -0.00000000000E+00 -0.16469831741E+04  0.16469831741E+04  0.00000000000E+00 0.  1.
          6    1    1    2  501    0  0.10480442827E+03  0.41104824231E+02 -0.12278173682E+04  0.12450454066E+04  0.17300000000E+03 0.  1.
         -6    1    1    2    0  502 -0.10480442827E+03 -0.41104824231E+02 -0.38460952067E+03  0.43649405283E+03  0.17300000000E+03 0.  1.
<mgrwt>
<rscale>  2 0.20640391E+03</rscale>
<asrwt>0</asrwt>
<pdfrwt beam="1">  1       21 0.53163523E-02 0.20640391E+03</pdfrwt>
<pdfrwt beam="2">  1       21 0.25338199E+00 0.20640391E+03</pdfrwt>
<totfact> 0.15207650E+04</totfact>
</mgrwt>
</event>
<event>
 4    1  0.3980289E+000  0.1772573E+03  0.7546771E-02  0.1170484E+00
         21   -1    0    0  503  502  0.00000000000E+00  0.00000000000E+00  0.24889135551E+03  0.24889135551E+03  0.00000000000E+00 0. -1.
         21   -1    0    0  501  503 -0.00000000000E+00 -0.00000000000E+00 -0.23838039007E+03  0.23838039007E+03  0.00000000000E+00 0. -1.
          6    1    1    2  501    0 -0.14579044804E+01 -0.38587689619E+02 -0.16184830633E+03  0.24003126783E+03  0.17300000000E+03 0. -1.
         -6    1    1    2    0  502  0.14579044804E+01  0.38587689619E+02  0.17235927177E+03  0.24724047775E+03  0.17300000000E+03 0. -1.
<mgrwt>
<rscale>  2 0.17725726E+03</rscale>
<asrwt>0</asrwt>
<pdfrwt beam="1">  1       21 0.38290978E-01 0.17725726E+03</pdfrwt>
<pdfrwt beam="2">  1       21 0.36673906E-01 0.17725726E+03</pdfrwt>
<totfact> 0.47511123E+04</totfact>
</mgrwt>
</event>
<event>
 4    1  0.3980289E+000  0.1890655E+03  0.7546771E-02  0.1159307E+00
         21   -1    0    0  503  502  0.00000000000E+00  0.00000000000E+00  0.73123856125E+03  0.73123856125E+03  0.00000000000E+00 0.  1.
         21   -1    0    0  501  503 -0.00000000000E+00 -0.00000000000E+00 -0.78000821699E+02  0.78000821699E+02  0.00000000000E+00 0.  1.
          6    1    1    2  501    0 -0.36410259847E+02  0.67015260934E+02  0.79406289329E+02  0.20506367549E+03  0.17300000000E+03 0.  1.
         -6    1    1    2    0  502  0.36410259847E+02 -0.67015260934E+02  0.57383145022E+03  0.60417570746E+03  0.17300000000E+03 0.  1.
<mgrwt>
<rscale>  2 0.18906547E+03</rscale>
<asrwt>0</asrwt>
<pdfrwt beam="1">  1       21 0.11249824E+00 0.18906547E+03</pdfrwt>
<pdfrwt beam="2">  1       21 0.12000127E-01 0.18906547E+03</pdfrwt>
<totfact> 0.36365666E+04</totfact>
</mgrwt>
</event>
<event>
 4    1  0.3980289E+000  0.2003177E+03  0.7546771E-02  0.1149471E+00
         21   -1    0    0  503  502  0.00000000000E+00  0.00000000000E+00  0.20346347723E+04  0.20346347723E+04  0.00000000000E+00 0.  1.
         21   -1    0    0  501  503 -0.00000000000E+00 -0.00000000000E+00 -0.26210289086E+02  0.26210289086E+02  0.00000000000E+00 0.  1.
          6    1    1    2  501    0 -0.87495239642E+02  0.50425860785E+02  0.49153669266E+03  0.53078762667E+03  0.17300000000E+03 0.  1.
         -6    1    1    2    0  502  0.87495239642E+02 -0.50425860785E+02  0.15168877906E+04  0.15300574347E+04  0.17300000000E+03 0.  1.
<mgrwt>
<rscale>  2 0.20031771E+03</rscale>
<asrwt>0</asrwt>
<pdfrwt beam="1">  1       21 0.31302061E+00 0.20031771E+03</pdfrwt>
<pdfrwt beam="2">  1       21 0.40323538E-02 0.20031771E+03</pdfrwt>
<totfact> 0.11011191E+04</totfact>
</mgrwt>
</event>
<event>
 4    1  0.3980289E+000  0.1835637E+03  0.7546771E-02  0.1164398E+00
         21   -1    0    0  501  502  0.00000000000E+00  0.00000000000E+00  0.11803070063E+03  0.11803070063E+03  0.00000000000E+00 0.  1.
         21   -1    0    0  502  503 -0.00000000000E+00 -0.00000000000E+00 -0.35823864933E+03  0.35823864933E+03  0.00000000000E+00 0.  1.
          6    1    1    2  501    0 -0.27785966002E+02 -0.54722847951E+02 -0.12785986078E+02  0.18400850914E+03  0.17300000000E+03 0.  1.
         -6    1    1    2    0  503  0.27785966002E+02  0.54722847951E+02 -0.22742196263E+03  0.29226084082E+03  0.17300000000E+03 0.  1.
<mgrwt>
<rscale>  2 0.18356375E+03</rscale>
<asrwt>0</asrwt>
<pdfrwt beam="1">  1       21 0.18158569E-01 0.18356375E+03</pdfrwt>
<pdfrwt beam="2">  1       21 0.55113638E-01 0.18356375E+03</pdfrwt>
<totfact> 0.86099811E+04</totfact>
</mgrwt>
</event>
<event>
 4    1  0.3980289E+000  0.1866325E+03  0.7546771E-02  0.1161534E+00
         21   -1    0    0  503  502  0.00000000000E+00  0.00000000000E+00  0.16095002389E+03  0.16095002389E+03  0.00000000000E+00 0.  1.
         21   -1    0    0  501  503 -0.00000000000E+00 -0.00000000000E+00 -0.29840002090E+03  0.29840002090E+03  0.00000000000E+00 0.  1.
          6    1    1    2  501    0 -0.37046071648E+02  0.59416037886E+02 -0.18911402556E+03  0.26569868582E+03  0.17300000000E+03 0.  1.
         -6    1    1    2    0  502  0.37046071648E+02 -0.59416037886E+02  0.51664028549E+02  0.19365135896E+03  0.17300000000E+03 0.  1.
<mgrwt>
<rscale>  2 0.18663246E+03</rscale>
<asrwt>0</asrwt>
<pdfrwt beam="1">  1       21 0.24761542E-01 0.18663246E+03</pdfrwt>
<pdfrwt beam="2">  1       21 0.45907695E-01 0.18663246E+03</pdfrwt>
<totfact> 0.70337325E+04</totfact>
</mgrwt>
</event>
<event>
 4    1  0.3980289E+000  0.2726791E+03  0.7546771E-02  0.1099756E+00
         21   -1    0    0  501  502  0.00000000000E+00  0.00000000000E+00  0.72789934236E+03  0.72789934236E+03  0.00000000000E+00 0. -1.
         21   -1    0    0  502  503 -0.00000000000E+00 -0.00000000000E+00 -0.10228902823E+03  0.10228902823E+03  0.00000000000E+00 0.  1.
          6    1    1    2  501    0  0.15263979128E+03  0.14534774230E+03  0.32818727060E+03  0.42668578212E+03  0.17300000000E+03 0.  1.
         -6    1    1    2    0  503 -0.15263979128E+03 -0.14534774230E+03  0.29742304353E+03  0.40350258847E+03  0.17300000000E+03 0. -1.
<mgrwt>
<rscale>  2 0.27267906E+03</rscale>
<asrwt>0</asrwt>
<pdfrwt beam="1">  1       21 0.11198451E+00 0.27267906E+03</pdfrwt>
<pdfrwt beam="2">  1       21 0.15736774E-01 0.27267906E+03</pdfrwt>
<totfact> 0.21529262E+04</totfact>
</mgrwt>
</event>
<event>
 4    1  0.3980289E+000  0.2033764E+03  0.7546771E-02  0.1146921E+00
         21   -1    0    0  501  502  0.00000000000E+00  0.00000000000E+00  0.20477271479E+03  0.20477271479E+03  0.00000000000E+00 0.  1.
         21   -1    0    0  502  503 -0.00000000000E+00 -0.00000000000E+00 -0.20216683282E+03  0.20216683282E+03  0.00000000000E+00 0.  1.
          6    1    1    2  501    0 -0.18329075828E+02 -0.10534231245E+03 -0.47215816098E+01  0.20343119511E+03  0.17300000000E+03 0.  1.
         -6    1    1    2    0  503  0.18329075828E+02  0.10534231245E+03  0.73274635815E+01  0.20350835249E+03  0.17300000000E+03 0.  1.
<mgrwt>
<rscale>  2 0.20337639E+03</rscale>
<asrwt>0</asrwt>
<pdfrwt beam="1">  1       21 0.31503495E-01 0.20337639E+03</pdfrwt>
<pdfrwt beam="2">  1       21 0.31102590E-01 0.20337639E+03</pdfrwt>
<totfact> 0.95759831E+04</totfact>
</mgrwt>
</event>
<event>
 4    1  0.3980289E+000  0.1847994E+03  0.7546771E-02  0.1163237E+00
         21   -1    0    0  501  502  0.00000000000E+00  0.00000000000E+00  0.35089749983E+02  0.35089749983E+02  0.00000000000E+00 0. -1.
         21   -1    0    0  502  503 -0.00000000000E+00 -0.00000000000E+00 -0.16092897655E+04  0.16092897655E+04  0.00000000000E+00 0. -1.
          6    1    1    2  501    0  0.16041756772E+02 -0.62964066619E+02 -0.27020793762E+03  0.32735781829E+03  0.17300000000E+03 0. -1.
         -6    1    1    2    0  503 -0.16041756772E+02  0.62964066619E+02 -0.13039920779E+04  0.13170216972E+04  0.17300000000E+03 0. -1.
<mgrwt>
<rscale>  2 0.18479938E+03</rscale>
<asrwt>0</asrwt>
<pdfrwt beam="1">  1       21 0.53984240E-02 0.18479938E+03</pdfrwt>
<pdfrwt beam="2">  1       21 0.24758300E+00 0.18479938E+03</pdfrwt>
<totfact> 0.16340891E+04</totfact>
</mgrwt>
</event>
<event>
 4    1  0.3980289E+000  0.2197505E+03  0.7546771E-02  0.1134069E+00
         21   -1    0    0  501  502  0.00000000000E+00  0.00000000000E+00  0.72961400175E+03  0.72961400175E+03  0.00000000000E+00 0. -1.
         21   -1    0    0  502  503 -0.00000000000E+00 -0.00000000000E+00 -0.76046286592E+02  0.76046286592E+02  0.00000000000E+00 0. -1.
          6    1    1    2  501    0  0.11146376606E+03 -0.77052525226E+02  0.47183688759E+03  0.52050005886E+03  0.17300000000E+03 0. -1.
         -6    1    1    2    0  503 -0.11146376606E+03  0.77052525226E+02  0.18173082757E+03  0.28516022948E+03  0.17300000000E+03 0. -1.
<mgrwt>
<rscale>  2 0.21975046E+03</rscale>
<asrwt>0</asrwt>
<pdfrwt beam="1">  1       21 0.11224830E+00 0.21975046E+03</pdfrwt>
<pdfrwt beam="2">  1       21 0.11699429E-01 0.21975046E+03</pdfrwt>
<totfact> 0.37628083E+04</totfact>
</mgrwt>
</event>
<event>
 4    1  0.3980289E+000  0.1790925E+03  0.7546771E-02  0.1168684E+00
         21   -1    0    0  501  502  0.00000000000E+00  0.00000000000E+00  0.25786004141E+02  0.25786004141E+02  0.00000000000E+00 0.  1.
         21   -1    0    0  502  503 -0.00000000000E+00 -0.00000000000E+00 -0.18260992307E+04  0.18260992307E+04  0.00000000000E+00 0.  1.
          6    1    1    2  501    0  0.27218260871E+02 -0.37473704514E+02 -0.37731085891E+03  0.41765727158E+03  0.17300000000E+03 0.  1.
         -6    1    1    2    0  503 -0.27218260871E+02  0.37473704514E+02 -0.14230023677E+04  0.14342279633E+04  0.17300000000E+03 0.  1.
<mgrwt>
<rscale>  2 0.17909247E+03</rscale>
<asrwt>0</asrwt>
<pdfrwt beam="1">  1       21 0.39670783E-02 0.17909247E+03</pdfrwt>
<pdfrwt beam="2">  1       21 0.28093829E+00 0.17909247E+03</pdfrwt>
<totfact> 0.17699490E+04</totfact>
</mgrwt>
</event>
<event>
 4    1  0.3980289E+000  0.1921335E+03  0.7546771E-02  0.1156551E+00
         21   -1    0    0  501  502  0.00000000000E+00  0.00000000000E+00  0.37790641408E+03  0.37790641408E+03  0.00000000000E+00 0. -1.
         21   -1    0    0  502  503 -0.00000000000E+00 -0.00000000000E+00 -0.23271115673E+03  0.23271115673E+03  0.00000000000E+00 0. -1.
          6    1    1    2  501    0  0.29333815740E+02  0.78267665966E+02  0.30516122144E+03  0.36060875107E+03  0.17300000000E+03 0. -1.
         -6    1    1    2    0  503 -0.29333815740E+02 -0.78267665966E+02 -0.15996596408E+03  0.25000881974E+03  0.17300000000E+03 0. -1.
<mgrwt>
<rscale>  2 0.19213355E+03</rscale>
<asrwt>0</asrwt>
<pdfrwt beam="1">  1       21 0.58139448E-01 0.19213355E+03</pdfrwt>
<pdfrwt beam="2">  1       21 0.35801717E-01 0.19213355E+03</pdfrwt>
<totfact> 0.20861589E+04</totfact>
</mgrwt>
</event>
<event>
 4    1  0.3980289E+000  0.1744997E+03  0.7546771E-02  0.1173235E+00
         21   -1    0    0  503  502  0.00000000000E+00  0.00000000000E+00  0.10083353284E+03  0.10083353284E+03  0.00000000000E+00 0. -1.
         21   -1    0    0  501  503 -0.00000000000E+00 -0.00000000000E+00 -0.41544505380E+03  0.41544505380E+03  0.00000000000E+00 0. -1.
          6    1    1    2  501    0  0.22660335662E+02 -0.27651680000E+01 -0.29220834899E+03  0.34034667060E+03  0.17300000000E+03 0. -1.
         -6    1    1    2    0  502 -0.22660335662E+02  0.27651680000E+01 -0.22403171973E+02  0.17593191604E+03  0.17300000000E+03 0. -1.
<mgrwt>
<rscale>  2 0.17449968E+03</rscale>
<asrwt>0</asrwt>
<pdfrwt beam="1">  1       21 0.15512851E-01 0.17449968E+03</pdfrwt>
<pdfrwt beam="2">  1       21 0.63914625E-01 0.17449968E+03</pdfrwt>
<totfact> 0.84037860E+04</totfact>
</mgrwt>
</event>
<event>
 4    1  0.3980289E+000  0.2023374E+03  0.7546771E-02  0.1147782E+00
         21   -1    0    0  501  502  0.00000000000E+00  0.00000000000E+00  0.12586130017E+03  0.12586130017E+03  0.00000000000E+00 0.  1.
         21   -1    0    0  502  503 -0.00000000000E+00 -0.00000000000E+00 -0.51898090616E+03  0.51898090616E+03  0.00000000000E+00 0.  1.
          6    1    1    2  501    0 -0.33545959515E+02  0.99428801859E+02  0.41529741660E+00  0.20233781285E+03  0.17300000000E+03 0.  1.
         -6    1    1    2    0  503  0.33545959515E+02 -0.99428801859E+02 -0.39353490341E+03  0.44250439347E+03  0.17300000000E+03 0.  1.
<mgrwt>
<rscale>  2 0.20233739E+03</rscale>
<asrwt>0</asrwt>
<pdfrwt beam="1">  1       21 0.19363277E-01 0.20233739E+03</pdfrwt>
<pdfrwt beam="2">  1       21 0.79843217E-01 0.20233739E+03</pdfrwt>
<totfact> 0.33693010E+04</totfact>
</mgrwt>
</event>
<event>
 4    1  0.3980289E+000  0.2096389E+03  0.7546771E-02  0.1141852E+00
         21   -1    0    0  503  502  0.00000000000E+00  0.00000000000E+00  0.77607292692E+02  0.77607292692E+02  0.00000000000E+00 0. -1.
         21   -1    0    0  501  503 -0.00000000000E+00 -0.00000000000E+00 -0.56890189485E+03  0.56890189485E+03  0.00000000000E+00 0.  1.
          6    1    1    2  501    0 -0.75079377130E+02 -0.91556221316E+02 -0.26753838398E+03  0.33989004315E+03  0.17300000000E+03 0.  1.
         -6    1    1    2    0  502  0.75079377130E+02  0.91556221316E+02 -0.22375621818E+03  0.30661914439E+03  0.17300000000E+03 0. -1.
<mgrwt>
<rscale>  2 0.20963887E+03</rscale>
<asrwt>0</asrwt>
<pdfrwt beam="1">  1       21 0.11939583E-01 0.20963887E+03</pdfrwt>
<pdfrwt beam="2">  1       21 0.87523370E-01 0.20963887E+03</pdfrwt>
<totfact> 0.65822215E+04</totfact>
</mgrwt>
</event>
<event>
 4    1  0.3980289E+000  0.2416147E+03  0.7546771E-02  0.1118722E+00
         21   -1    0    0  503  502  0.00000000000E+00  0.00000000000E+00  0.30176066097E+03  0.30176066097E+03  0.00000000000E+00 0.  1.
         21   -1    0    0  501  503 -0.00000000000E+00 -0.00000000000E+00 -0.19593727569E+03  0.19593727569E+03  0.00000000000E+00 0. -1.
          6    1    1    2  501    0  0.11416712887E+03  0.12415529470E+03  0.80910490150E+02  0.25480223298E+03  0.17300000000E+03 0. -1.
         -6    1    1    2    0  502 -0.11416712887E+03 -0.12415529470E+03  0.24912895129E+02  0.24289570367E+03  0.17300000000E+03 0. -1.
<mgrwt>
<rscale>  2 0.24161472E+03</rscale>
<asrwt>0</asrwt>
<pdfrwt beam="1">  1       21 0.46424717E-01 0.24161472E+03</pdfrwt>
<pdfrwt beam="2">  1       21 0.30144196E-01 0.24161472E+03</pdfrwt>
<totfact> 0.45868402E+04</totfact>
</mgrwt>
</event>
<event>
 4    1  0.3980289E+000  0.2767270E+03  0.7546771E-02  0.1097490E+00
         21   -1    0    0  503  502  0.00000000000E+00  0.00000000000E+00  0.69826219881E+02  0.69826219881E+02  0.00000000000E+00 0.  1.
         21   -1    0    0  501  503 -0.00000000000E+00 -0.00000000000E+00 -0.16486950274E+04  0.16486950274E+04  0.00000000000E+00 0. -1.
          6    1    1    2  501    0 -0.60467973877E+02  0.20734624649E+03 -0.12866280388E+04  0.13160507406E+04  0.17300000000E+03 0. -1.
         -6    1    1    2    0  502  0.60467973877E+02 -0.20734624649E+03 -0.29224076876E+03  0.40247050665E+03  0.17300000000E+03 0.  1.
<mgrwt>
<rscale>  2 0.27672702E+03</rscale>
<asrwt>0</asrwt>
<pdfrwt beam="1">  1       21 0.10742495E-01 0.27672702E+03</pdfrwt>
<pdfrwt beam="2">  1       21 0.25364539E+00 0.27672702E+03</pdfrwt>
<totfact> 0.41962222E+03</totfact>
</mgrwt>
</event>
<event>
 4    1  0.3980289E+000  0.1901362E+03  0.7546771E-02  0.1158339E+00
         21   -1    0    0  503  502  0.00000000000E+00  0.00000000000E+00  0.19390397835E+03  0.19390397835E+03  0.00000000000E+00 0.  1.
         21   -1    0    0  501  503 -0.00000000000E+00 -0.00000000000E+00 -0.40095643862E+03  0.40095643862E+03  0.00000000000E+00 0.  1.
          6    1    1    2  501    0 -0.30932401313E+02 -0.72566986902E+02 -0.32107923234E+03  0.37315366068E+03  0.17300000000E+03 0.  1.
         -6    1    1    2    0  502  0.30932401313E+02  0.72566986902E+02  0.11402677207E+03  0.22170675630E+03  0.17300000000E+03 0.  1.
<mgrwt>
<rscale>  2 0.19013622E+03</rscale>
<asrwt>0</asrwt>
<pdfrwt beam="1">  1       21 0.29831381E-01 0.19013622E+03</pdfrwt>
<pdfrwt beam="2">  1       21 0.61685606E-01 0.19013622E+03</pdfrwt>
<totfact> 0.26338783E+04</totfact>
</mgrwt>
</event>
<event>
 4    1  0.3980289E+000  0.1797459E+03  0.7546771E-02  0.1168049E+00
         21   -1    0    0  503  502  0.00000000000E+00  0.00000000000E+00  0.32070971434E+03  0.32070971434E+03  0.00000000000E+00 0.  1.
         21   -1    0    0  501  503 -0.00000000000E+00 -0.00000000000E+00 -0.21413408318E+03  0.21413408318E+03  0.00000000000E+00 0.  1.
          6    1    1    2  501    0 -0.96229594221E+01  0.47822449763E+02 -0.14131428586E+03  0.22864451762E+03  0.17300000000E+03 0.  1.
         -6    1    1    2    0  502  0.96229594221E+01 -0.47822449763E+02  0.24788991702E+03  0.30619927990E+03  0.17300000000E+03 0.  1.
<mgrwt>
<rscale>  2 0.17974590E+03</rscale>
<asrwt>0</asrwt>
<pdfrwt beam="1">  1       21 0.49339956E-01 0.17974590E+03</pdfrwt>
<pdfrwt beam="2">  1       21 0.32943705E-01 0.17974590E+03</pdfrwt>
<totfact> 0.34982556E+04</totfact>
</mgrwt>
</event>
<event>
 4    1  0.3980289E+000  0.2350770E+03  0.7546771E-02  0.1123117E+00
         21   -1    0    0  501  502  0.00000000000E+00  0.00000000000E+00  0.48873022316E+03  0.48873022316E+03  0.00000000000E+00 0.  1.
         21   -1    0    0  502  503 -0.00000000000E+00 -0.00000000000E+00 -0.21966320976E+03  0.21966320976E+03  0.00000000000E+00 0. -1.
          6    1    1    2  501    0  0.15065033461E+03  0.51348500777E+02  0.38126733526E+03  0.44791290759E+03  0.17300000000E+03 0.  1.
         -6    1    1    2    0  503 -0.15065033461E+03 -0.51348500777E+02 -0.11220032186E+03  0.26048052533E+03  0.17300000000E+03 0. -1.
<mgrwt>
<rscale>  2 0.23507699E+03</rscale>
<asrwt>0</asrwt>
<pdfrwt beam="1">  1       21 0.75189265E-01 0.23507699E+03</pdfrwt>
<pdfrwt beam="2">  1       21 0.33794340E-01 0.23507699E+03</pdfrwt>
<totfact> 0.12990616E+04</totfact>
</mgrwt>
</event>
<event>
 4    1  0.3980289E+000  0.2549438E+03  0.7546771E-02  0.1110220E+00
         21   -1    0    0  501  502  0.00000000000E+00  0.00000000000E+00  0.22429387548E+03  0.22429387548E+03  0.00000000000E+00 0. -1.
         21   -1    0    0  502  503 -0.00000000000E+00 -0.00000000000E+00 -0.29510239450E+03  0.29510239450E+03  0.00000000000E+00 0.  1.
          6    1    1    2  501    0  0.27731149181E+02  0.18519800626E+03 -0.70274596219E+02  0.26445195600E+03  0.17300000000E+03 0.  1.
         -6    1    1    2    0  503 -0.27731149181E+02 -0.18519800626E+03 -0.53392280127E+00  0.25494431398E+03  0.17300000000E+03 0. -1.
<mgrwt>
<rscale>  2 0.25494375E+03</rscale>
<asrwt>0</asrwt>
<pdfrwt beam="1">  1       21 0.34506750E-01 0.25494375E+03</pdfrwt>
<pdfrwt beam="2">  1       21 0.45400369E-01 0.25494375E+03</pdfrwt>
<totfact> 0.36568884E+04</totfact>
</mgrwt>
</event>
<event>
 4    1  0.3980289E+000  0.1835661E+03  0.7546771E-02  0.1164396E+00
         21   -1    0    0  503  502  0.00000000000E+00  0.00000000000E+00  0.33732183970E+03  0.33732183970E+03  0.00000000000E+00 0.  1.
         21   -1    0    0  501  503 -0.00000000000E+00 -0.00000000000E+00 -0.10144492247E+03  0.10144492247E+03  0.00000000000E+00 0.  1.
          6    1    1    2  501    0 -0.27576144155E+00 -0.61379452502E+02  0.90814806090E+02  0.20480195858E+03  0.17300000000E+03 0.  1.
         -6    1    1    2    0  502  0.27576144155E+00  0.61379452502E+02  0.14506211114E+03  0.23396480360E+03  0.17300000000E+03 0.  1.
<mgrwt>
<rscale>  2 0.18356610E+03</rscale>
<asrwt>0</asrwt>
<pdfrwt beam="1">  1       21 0.51895667E-01 0.18356610E+03</pdfrwt>
<pdfrwt beam="2">  1       21 0.15606911E-01 0.18356610E+03</pdfrwt>
<totfact> 0.12904025E+05</totfact>
</mgrwt>
</event>
<event>
 4    1  0.3980289E+000  0.1790092E+03  0.7546771E-02  0.1168765E+00
         21   -1    0    0  501  502  0.00000000000E+00  0.00000000000E+00  0.18949753011E+03  0.18949753011E+03  0.00000000000E+00 0.  1.
         21   -1    0    0  502  503 -0.00000000000E+00 -0.00000000000E+00 -0.17250312246E+03  0.17250312246E+03  0.00000000000E+00 0.  1.
          6    1    1    2  501    0  0.44599933739E+02  0.11230931971E+02  0.33914748099E+02  0.18219357305E+03  0.17300000000E+03 0.  1.
         -6    1    1    2    0  503 -0.44599933739E+02 -0.11230931971E+02 -0.16920340449E+02  0.17980707951E+03  0.17300000000E+03 0.  1.
<mgrwt>
<rscale>  2 0.17900918E+03</rscale>
<asrwt>0</asrwt>
<pdfrwt beam="1">  1       21 0.29153466E-01 0.17900918E+03</pdfrwt>
<pdfrwt beam="2">  1       21 0.26538942E-01 0.17900918E+03</pdfrwt>
<totfact> 0.15286657E+05</totfact>
</mgrwt>
</event>
<event>
 4    1  0.3980289E+000  0.1886863E+03  0.7546771E-02  0.1159652E+00
         21   -1    0    0  501  502  0.00000000000E+00  0.00000000000E+00  0.24840360819E+04  0.24840360819E+04  0.00000000000E+00 0. -1.
         21   -1    0    0  502  503 -0.00000000000E+00 -0.00000000000E+00 -0.52909089962E+02  0.52909089962E+02  0.00000000000E+00 0.  1.
          6    1    1    2  501    0 -0.73012205432E+02 -0.18513516928E+02  0.22986862114E+04  0.23064173150E+04  0.17300000000E+03 0. -1.
         -6    1    1    2    0  503  0.73012205432E+02  0.18513516928E+02  0.13244078059E+03  0.23052785692E+03  0.17300000000E+03 0.  1.
<mgrwt>
<rscale>  2 0.18868633E+03</rscale>
<asrwt>0</asrwt>
<pdfrwt beam="1">  1       21 0.38215931E+00 0.18868633E+03</pdfrwt>
<pdfrwt beam="2">  1       21 0.81398619E-02 0.18868633E+03</pdfrwt>
<totfact> 0.13141807E+03</totfact>
</mgrwt>
</event>
<event>
 4    1  0.3980289E+000  0.1874596E+03  0.7546771E-02  0.1160773E+00
         21   -1    0    0  501  502  0.00000000000E+00  0.00000000000E+00  0.11231235334E+04  0.11231235334E+04  0.00000000000E+00 0.  1.
         21   -1    0    0  502  503 -0.00000000000E+00 -0.00000000000E+00 -0.47172098529E+02  0.47172098529E+02  0.00000000000E+00 0. -1.
          6    1    1    2  501    0 -0.37685137035E+02  0.61578656914E+02  0.87751841848E+03  0.89731804579E+03  0.17300000000E+03 0.  1.
         -6    1    1    2    0  503  0.37685137035E+02 -0.61578656914E+02  0.19843301642E+03  0.27297758616E+03  0.17300000000E+03 0. -1.
<mgrwt>
<rscale>  2 0.18745960E+03</rscale>
<asrwt>0</asrwt>
<pdfrwt beam="1">  1       21 0.17278821E+00 0.18745960E+03</pdfrwt>
<pdfrwt beam="2">  1       21 0.72572468E-02 0.18745960E+03</pdfrwt>
<totfact> 0.29093463E+04</totfact>
</mgrwt>
</event>
<event>
 4    1  0.3980289E+000  0.1819346E+03  0.7546771E-02  0.1165944E+00
         21   -1    0    0  501  502  0.00000000000E+00  0.00000000000E+00  0.99529493240E+03  0.99529493240E+03  0.00000000000E+00 0. -1.
         21   -1    0    0  502  503 -0.00000000000E+00 -0.00000000000E+00 -0.13834429228E+03  0.13834429228E+03  0.00000000000E+00 0. -1.
          6    1    1    2  501    0  0.55054127395E+02 -0.11841659566E+02  0.92249022946E+03  0.94025975416E+03  0.17300000000E+03 0. -1.
         -6    1    1    2    0  503 -0.55054127395E+02  0.11841659566E+02 -0.65539589339E+02  0.19337947051E+03  0.17300000000E+03 0. -1.
<mgrwt>
<rscale>  2 0.18193455E+03</rscale>
<asrwt>0</asrwt>
<pdfrwt beam="1">  1       21 0.15312229E+00 0.18193455E+03</pdfrwt>
<pdfrwt beam="2">  1       21 0.21283738E-01 0.18193455E+03</pdfrwt>
<totfact> 0.58681251E+03</totfact>
</mgrwt>
</event>
<event>
 4    1  0.3980289E+000  0.1935742E+03  0.7546771E-02  0.1155277E+00
         21   -1    0    0  501  502  0.00000000000E+00  0.00000000000E+00  0.65893200835E+02  0.65893200835E+02  0.00000000000E+00 0.  1.
         21   -1    0    0  502  503 -0.00000000000E+00 -0.00000000000E+00 -0.10402972903E+04  0.10402972903E+04  0.00000000000E+00 0.  1.
          6    1    1    2  501    0  0.18093408597E+02 -0.84938703839E+02 -0.11478944131E+03  0.22505015148E+03  0.17300000000E+03 0.  1.
         -6    1    1    2    0  503 -0.18093408597E+02  0.84938703839E+02 -0.85961464819E+03  0.88114033969E+03  0.17300000000E+03 0.  1.
<mgrwt>
<rscale>  2 0.19357416E+03</rscale>
<asrwt>0</asrwt>
<pdfrwt beam="1">  1       21 0.10137416E-01 0.19357416E+03</pdfrwt>
<pdfrwt beam="2">  1       21 0.16004573E+00 0.19357416E+03</pdfrwt>
<totfact> 0.19909833E+04</totfact>
</mgrwt>
</event>
<event>
 4    1  0.3980289E+000  0.1752368E+03  0.7546771E-02  0.1172494E+00
         21   -1    0    0  503  502  0.00000000000E+00  0.00000000000E+00  0.39079201955E+03  0.39079201955E+03  0.00000000000E+00 0. -1.
         21   -1    0    0  501  503 -0.00000000000E+00 -0.00000000000E+00 -0.80391798407E+02  0.80391798407E+02  0.00000000000E+00 0. -1.
          6    1    1    2  501    0  0.14259208396E+02 -0.23991535809E+02  0.11981926010E+03  0.21228418195E+03  0.17300000000E+03 0.  1.
         -6    1    1    2    0  502 -0.14259208396E+02  0.23991535809E+02  0.19058096104E+03  0.25889963601E+03  0.17300000000E+03 0.  1.
<mgrwt>
<rscale>  2 0.17523675E+03</rscale>
<asrwt>0</asrwt>
<pdfrwt beam="1">  1       21 0.60121848E-01 0.17523675E+03</pdfrwt>
<pdfrwt beam="2">  1       21 0.12367969E-01 0.17523675E+03</pdfrwt>
<totfact> 0.14427076E+05</totfact>
</mgrwt>
</event>
<event>
 4    1  0.3980289E+000  0.2417844E+03  0.7546771E-02  0.1118610E+00
         21   -1    0    0  503  502  0.00000000000E+00  0.00000000000E+00  0.52936165831E+03  0.52936165831E+03  0.00000000000E+00 0. -1.
         21   -1    0    0  501  503 -0.00000000000E+00 -0.00000000000E+00 -0.11286689768E+03  0.11286689768E+03  0.00000000000E+00 0. -1.
          6    1    1    2  501    0  0.32639604873E+02 -0.16572677804E+03  0.25538930624E+03  0.35168651738E+03  0.17300000000E+03 0. -1.
         -6    1    1    2    0  502 -0.32639604873E+02  0.16572677804E+03  0.16110545438E+03  0.29054203860E+03  0.17300000000E+03 0. -1.
<mgrwt>
<rscale>  2 0.24178443E+03</rscale>
<asrwt>0</asrwt>
<pdfrwt beam="1">  1       21 0.81440254E-01 0.24178443E+03</pdfrwt>
<pdfrwt beam="2">  1       21 0.17364138E-01 0.24178443E+03</pdfrwt>
<totfact> 0.38685003E+04</totfact>
</mgrwt>
</event>
<event>
 4    1  0.3980289E+000  0.1837494E+03  0.7546771E-02  0.1164223E+00
         21   -1    0    0  503  502  0.00000000000E+00  0.00000000000E+00  0.13212709000E+04  0.13212709000E+04  0.00000000000E+00 0.  1.
         21   -1    0    0  501  503 -0.00000000000E+00 -0.00000000000E+00 -0.27937395206E+02  0.27937395206E+02  0.00000000000E+00 0.  1.
          6    1    1    2  501    0 -0.15645536848E+02  0.59917045392E+02  0.44962935434E+03  0.48572666330E+03  0.17300000000E+03 0.  1.
         -6    1    1    2    0  502  0.15645536848E+02 -0.59917045392E+02  0.84370415041E+03  0.86348163186E+03  0.17300000000E+03 0.  1.
<mgrwt>
<rscale>  2 0.18374938E+03</rscale>
<asrwt>0</asrwt>
<pdfrwt beam="1">  1       21 0.20327240E+00 0.18374938E+03</pdfrwt>
<pdfrwt beam="2">  1       21 0.42980618E-02 0.18374938E+03</pdfrwt>
<totfact> 0.44707379E+04</totfact>
</mgrwt>
</event>
<event>
 4    1  0.3980289E+000  0.1892022E+03  0.7546771E-02  0.1159183E+00
         21   -1    0    0  503  502  0.00000000000E+00  0.00000000000E+00  0.20485343304E+03  0.20485343304E+03  0.00000000000E+00 0. -1.
         21   -1    0    0  501  503 -0.00000000000E+00 -0.00000000000E+00 -0.36062193976E+03  0.36062193976E+03  0.00000000000E+00 0.  1.
          6    1    1    2  501    0  0.70729702112E+02  0.29424471207E+02 -0.28087125738E+03  0.33865344157E+03  0.17300000000E+03 0.  1.
         -6    1    1    2    0  502 -0.70729702112E+02 -0.29424471207E+02  0.12510275066E+03  0.22682193123E+03  0.17300000000E+03 0. -1.
<mgrwt>
<rscale>  2 0.18920225E+03</rscale>
<asrwt>0</asrwt>
<pdfrwt beam="1">  1       21 0.31515913E-01 0.18920225E+03</pdfrwt>
<pdfrwt beam="2">  1       21 0.55480297E-01 0.18920225E+03</pdfrwt>
<totfact> 0.29690640E+04</totfact>
</mgrwt>
</event>
<event>
 4    1  0.3980289E+000  0.1939961E+03  0.7546771E-02  0.1154906E+00
         21   -1    0    0  503  502  0.00000000000E+00  0.00000000000E+00  0.10293736082E+04  0.10293736082E+04  0.00000000000E+00 0. -1.
         21   -1    0    0  501  503 -0.00000000000E+00 -0.00000000000E+00 -0.63460324088E+02  0.63460324088E+02  0.00000000000E+00 0. -1.
          6    1    1    2  501    0 -0.87723508698E+02 -0.31717811196E+01  0.12720470021E+03  0.23198170171E+03  0.17300000000E+03 0. -1.
         -6    1    1    2    0  502  0.87723508698E+02  0.31717811196E+01  0.83870858391E+03  0.86085223058E+03  0.17300000000E+03 0. -1.
<mgrwt>
<rscale>  2 0.19399607E+03</rscale>
<asrwt>0</asrwt>
<pdfrwt beam="1">  1       21 0.15836516E+00 0.19399607E+03</pdfrwt>
<pdfrwt beam="2">  1       21 0.97631275E-02 0.19399607E+03</pdfrwt>
<totfact> 0.21884941E+04</totfact>
</mgrwt>
</event>
<event>
 4    1  0.3980289E+000  0.2094951E+03  0.7546771E-02  0.1141966E+00
         21   -1    0    0  503  502  0.00000000000E+00  0.00000000000E+00  0.14926567766E+03  0.14926567766E+03  0.00000000000E+00 0.  1.
         21   -1    0    0  501  503 -0.00000000000E+00 -0.00000000000E+00 -0.31660472938E+03  0.31660472938E+03  0.00000000000E+00 0.  1.
          6    1    1    2  501    0  0.11811139041E+03 -0.29812847632E+01 -0.14587282092E+03  0.25527841367E+03  0.17300000000E+03 0.  1.
         -6    1    1    2    0  502 -0.11811139041E+03  0.29812847632E+01 -0.21466230798E+02  0.21059199336E+03  0.17300000000E+03 0.  1.
<mgrwt>
<rscale>  2 0.20949508E+03</rscale>
<asrwt>0</asrwt>
<pdfrwt beam="1">  1       21 0.22963950E-01 0.20949508E+03</pdfrwt>
<pdfrwt beam="2">  1       21 0.48708420E-01 0.20949508E+03</pdfrwt>
<totfact> 0.71095426E+04</totfact>
</mgrwt>
</event>
<event>
 4    1  0.3980289E+000  0.1768841E+03  0.7546771E-02  0.1170853E+00
         21   -1    0    0  503  502  0.00000000000E+00  0.00000000000E+00  0.13753010940E+03  0.13753010940E+03  0.00000000000E+00 0.  1.
         21   -1    0    0  501  503 -0.00000000000E+00 -0.00000000000E+00 -0.26190052464E+03  0.26190052464E+03  0.00000000000E+00 0.  1.
          6    1    1    2  501    0 -0.68145392480E+01 -0.36229032675E+02 -0.13456730959E+03  0.22225287752E+03  0.17300000000E+03 0.  1.
         -6    1    1    2    0  502  0.68145392480E+01  0.36229032675E+02  0.10196894354E+02  0.17717775653E+03  0.17300000000E+03 0.  1.
<mgrwt>
<rscale>  2 0.17688409E+03</rscale>
<asrwt>0</asrwt>
<pdfrwt beam="1">  1       21 0.21158479E-01 0.17688409E+03</pdfrwt>
<pdfrwt beam="2">  1       21 0.40292388E-01 0.17688409E+03</pdfrwt>
<totfact> 0.12397785E+05</totfact>
</mgrwt>
</event>
<event>
 4    1  0.3980289E+000  0.1842568E+03  0.7546771E-02  0.1163746E+00
         21   -1    0    0  501  502  0.00000000000E+00  0.00000000000E+00  0.61344857456E+02  0.61344857456E+02  0.00000000000E+00 0. -1.
         21   -1    0    0  502  503 -0.00000000000E+00 -0.00000000000E+00 -0.10929347569E+04  0.10929347569E+04  0.00000000000E+00 0. -1.
          6    1    1    2  501    0  0.49790545406E+02  0.39274146565E+02 -0.11030653534E+03  0.21475122523E+03  0.17300000000E+03 0. -1.
         -6    1    1    2    0  503 -0.49790545406E+02 -0.39274146565E+02 -0.92128336412E+03  0.93952838914E+03  0.17300000000E+03 0. -1.
<mgrwt>
<rscale>  2 0.18425677E+03</rscale>
<asrwt>0</asrwt>
<pdfrwt beam="1">  1       21 0.94376715E-02 0.18425677E+03</pdfrwt>
<pdfrwt beam="2">  1       21 0.16814379E+00 0.18425677E+03</pdfrwt>
<totfact> 0.19879100E+04</totfact>
</mgrwt>
</event>
<event>
 4    1  0.3980289E+000  0.1872062E+03  0.7546771E-02  0.1161006E+00
         21   -1    0    0  501  502  0.00000000000E+00  0.00000000000E+00  0.37549360329E+02  0.37549360329E+02  0.00000000000E+00 0.  1.
         21   -1    0    0  502  503 -0.00000000000E+00 -0.00000000000E+00 -0.10326369367E+04  0.10326369367E+04  0.00000000000E+00 0.  1.
          6    1    1    2  501    0 -0.57929967095E+02 -0.41967814429E+02 -0.33161118571E+03  0.38080461791E+03  0.17300000000E+03 0.  1.
         -6    1    1    2    0  503  0.57929967095E+02  0.41967814429E+02 -0.66347639067E+03  0.68938167912E+03  0.17300000000E+03 0.  1.
<mgrwt>
<rscale>  2 0.18720625E+03</rscale>
<asrwt>0</asrwt>
<pdfrwt beam="1">  1       21 0.57768257E-02 0.18720625E+03</pdfrwt>
<pdfrwt beam="2">  1       21 0.15886719E+00 0.18720625E+03</pdfrwt>
<totfact> 0.54140956E+04</totfact>
</mgrwt>
</event>
<event>
 4    1  0.3980289E+000  0.1840906E+03  0.7546771E-02  0.1163902E+00
         21   -1    0    0  501  502  0.00000000000E+00  0.00000000000E+00  0.65730409252E+03  0.65730409252E+03  0.00000000000E+00 0. -1.
         21   -1    0    0  502  503 -0.00000000000E+00 -0.00000000000E+00 -0.57474819432E+02  0.57474819432E+02  0.00000000000E+00 0. -1.
          6    1    1    2  501    0 -0.24918104420E+02  0.57788015685E+02  0.41458270350E+03  0.45361678179E+03  0.17300000000E+03 0.  1.
         -6    1    1    2    0  503  0.24918104420E+02 -0.57788015685E+02  0.18524656959E+03  0.26116213016E+03  0.17300000000E+03 0.  1.
<mgrwt>
<rscale>  2 0.18409065E+03</rscale>
<asrwt>0</asrwt>
<pdfrwt beam="1">  1       21 0.10112370E+00 0.18409065E+03</pdfrwt>
<pdfrwt beam="2">  1       21 0.88422804E-02 0.18409065E+03</pdfrwt>
<totfact> 0.80849130E+04</totfact>
</mgrwt>
</event>
<event>
 4    1  0.3980289E+000  0.2322960E+03  0.7546771E-02  0.1125034E+00
         21   -1    0    0  501  502  0.00000000000E+00  0.00000000000E+00  0.10022255863E+04  0.10022255863E+04  0.00000000000E+00 0.  1.
         21   -1    0    0  502  503 -0.00000000000E+00 -0.00000000000E+00 -0.77522814500E+02  0.77522814500E+02  0.00000000000E+00 0. -1.
          6    1    1    2  501    0 -0.11971268170E+03  0.98495208333E+02  0.76073829483E+03  0.79541447400E+03  0.17300000000E+03 0.  1.
         -6    1    1    2    0  503  0.11971268170E+03 -0.98495208333E+02  0.16396447697E+03  0.28433392680E+03  0.17300000000E+03 0. -1.
<mgrwt>
<rscale>  2 0.23229600E+03</rscale>
<asrwt>0</asrwt>
<pdfrwt beam="1">  1       21 0.15418854E+00 0.23229600E+03</pdfrwt>
<pdfrwt beam="2">  1       21 0.11926588E-01 0.23229600E+03</pdfrwt>
<totfact> 0.16058907E+04</totfact>
</mgrwt>
</event>
<event>
 4    1  0.3980289E+000  0.1989691E+03  0.7546771E-02  0.1150612E+00
         21   -1    0    0  503  502  0.00000000000E+00  0.00000000000E+00  0.10493283392E+04  0.10493283392E+04  0.00000000000E+00 0. -1.
         21   -1    0    0  501  503 -0.00000000000E+00 -0.00000000000E+00 -0.43809086716E+02  0.43809086716E+02  0.00000000000E+00 0. -1.
          6    1    1    2  501    0  0.98283600296E+02 -0.19911227294E+00  0.29911858569E+03  0.35925009957E+03  0.17300000000E+03 0. -1.
         -6    1    1    2    0  502 -0.98283600296E+02  0.19911227294E+00  0.70640066684E+03  0.73388732639E+03  0.17300000000E+03 0. -1.
<mgrwt>
<rscale>  2 0.19896911E+03</rscale>
<asrwt>0</asrwt>
<pdfrwt beam="1">  1       21 0.16143511E+00 0.19896911E+03</pdfrwt>
<pdfrwt beam="2">  1       21 0.67398603E-02 0.19896911E+03</pdfrwt>
<totfact> 0.39521394E+04</totfact>
</mgrwt>
</event>
<event>
 4    1  0.3980289E+000  0.1858457E+03  0.7546771E-02  0.1162263E+00
         21   -1    0    0  501  502  0.00000000000E+00  0.00000000000E+00  0.23920096497E+03  0.23920096497E+03  0.00000000000E+00 0.  1.
         21   -1    0    0  502  503 -0.00000000000E+00 -0.00000000000E+00 -0.21014752367E+03  0.21014752367E+03  0.00000000000E+00 0.  1.
          6    1    1    2  501    0  0.36994983535E+02 -0.56929599462E+02  0.14020453506E+03  0.23280017129E+03  0.17300000000E+03 0.  1.
         -6    1    1    2    0  503 -0.36994983535E+02  0.56929599462E+02 -0.11115109377E+03  0.21654831735E+03  0.17300000000E+03 0.  1.
<mgrwt>
<rscale>  2 0.18584566E+03</rscale>
<asrwt>0</asrwt>
<pdfrwt beam="1">  1       21 0.36800148E-01 0.18584566E+03</pdfrwt>
<pdfrwt beam="2">  1       21 0.32330388E-01 0.18584566E+03</pdfrwt>
<totfact> 0.65743067E+04</totfact>
</mgrwt>
</event>
<event>
 4    1  0.3980289E+000  0.2122803E+03  0.7546771E-02  0.1139773E+00
         21   -1    0    0  501  502  0.00000000000E+00  0.00000000000E+00  0.10782100135E+04  0.10782100135E+04  0.00000000000E+00 0.  1.
         21   -1    0    0  502  503 -0.00000000000E+00 -0.00000000000E+00 -0.45339775903E+02  0.45339775903E+02  0.00000000000E+00 0. -1.
          6    1    1    2  501    0 -0.11801636198E+03 -0.34728389681E+02  0.67353149281E+03  0.70619232122E+03  0.17300000000E+03 0.  1.
         -6    1    1    2    0  503  0.11801636198E+03  0.34728389681E+02  0.35933874480E+03  0.41735746820E+03  0.17300000000E+03 0. -1.
<mgrwt>
<rscale>  2 0.21228029E+03</rscale>
<asrwt>0</asrwt>
<pdfrwt beam="1">  1       21 0.16587844E+00 0.21228029E+03</pdfrwt>
<pdfrwt beam="2">  1       21 0.69753510E-02 0.21228029E+03</pdfrwt>
<totfact> 0.34309692E+04</totfact>
</mgrwt>
</event>
<event>
 4    1  0.3980289E+000  0.2176527E+03  0.7546771E-02  0.1135645E+00
         21   -1    0    0  501  502  0.00000000000E+00  0.00000000000E+00  0.27994412621E+03  0.27994412621E+03  0.00000000000E+00 0.  1.
         21   -1    0    0  502  503 -0.00000000000E+00 -0.00000000000E+00 -0.32100249546E+03  0.32100249546E+03  0.00000000000E+00 0.  1.
          6    1    1    2  501    0  0.13162517989E+03 -0.10885752675E+02  0.18608482685E+03  0.28635685844E+03  0.17300000000E+03 0.  1.
         -6    1    1    2    0  503 -0.13162517989E+03  0.10885752675E+02 -0.22714319611E+03  0.31458976323E+03  0.17300000000E+03 0.  1.
<mgrwt>
<rscale>  2 0.21765268E+03</rscale>
<asrwt>0</asrwt>
<pdfrwt beam="1">  1       21 0.43068327E-01 0.21765268E+03</pdfrwt>
<pdfrwt beam="2">  1       21 0.49384999E-01 0.21765268E+03</pdfrwt>
<totfact> 0.19974730E+04</totfact>
</mgrwt>
</event>
<event>
 4    1  0.3980289E+000  0.1852672E+03  0.7546771E-02  0.1162801E+00
         21   -1    0    0  503  502  0.00000000000E+00  0.00000000000E+00  0.53442761339E+03  0.53442761339E+03  0.00000000000E+00 0. -1.
         21   -1    0    0  501  503 -0.00000000000E+00 -0.00000000000E+00 -0.96617129977E+02  0.96617129977E+02  0.00000000000E+00 0. -1.
          6    1    1    2  501    0 -0.36588066134E+02  0.55283270286E+02  0.36213499518E+02  0.18877326109E+03  0.17300000000E+03 0. -1.
         -6    1    1    2    0  502  0.36588066134E+02 -0.55283270286E+02  0.40159698389E+03  0.44227148227E+03  0.17300000000E+03 0. -1.
<mgrwt>
<rscale>  2 0.18526718E+03</rscale>
<asrwt>0</asrwt>
<pdfrwt beam="1">  1       21 0.82219631E-01 0.18526718E+03</pdfrwt>
<pdfrwt beam="2">  1       21 0.14864174E-01 0.18526718E+03</pdfrwt>
<totfact> 0.51737216E+04</totfact>
</mgrwt>
</event>
<event>
 4    1  0.3980289E+000  0.2057953E+03  0.7546771E-02  0.1144940E+00
         21   -1    0    0  503  502  0.00000000000E+00  0.00000000000E+00  0.22307013501E+03  0.22307013501E+03  0.00000000000E+00 0.  1.
         21   -1    0    0  501  503 -0.00000000000E+00 -0.00000000000E+00 -0.27590239968E+03  0.27590239968E+03  0.00000000000E+00 0.  1.
          6    1    1    2  501    0  0.95471302546E+02  0.57514596369E+02 -0.16574132744E+03  0.26423831294E+03  0.17300000000E+03 0.  1.
         -6    1    1    2    0  502 -0.95471302546E+02 -0.57514596369E+02  0.11290906276E+03  0.23473422175E+03  0.17300000000E+03 0.  1.
<mgrwt>
<rscale>  2 0.20579528E+03</rscale>
<asrwt>0</asrwt>
<pdfrwt beam="1">  1       21 0.34318482E-01 0.20579528E+03</pdfrwt>
<pdfrwt beam="2">  1       21 0.42446523E-01 0.20579528E+03</pdfrwt>
<totfact> 0.43405289E+04</totfact>
</mgrwt>
</event>
<event>
 4    1  0.3980289E+000  0.2019629E+03  0.7546771E-02  0.1148093E+00
         21   -1    0    0  501  502  0.00000000000E+00  0.00000000000E+00  0.56283541883E+03  0.56283541883E+03  0.00000000000E+00 0.  1.
         21   -1    0    0  502  503 -0.00000000000E+00 -0.00000000000E+00 -0.11169661801E+03  0.11169661801E+03  0.00000000000E+00 0.  1.
          6    1    1    2  501    0  0.10373082099E+03  0.99973758019E+01  0.42543570597E+03  0.47094009243E+03  0.17300000000E+03 0.  1.
         -6    1    1    2    0  503 -0.10373082099E+03 -0.99973758019E+01  0.25703094854E+02  0.20359194442E+03  0.17300000000E+03 0.  1.
<mgrwt>
<rscale>  2 0.20196294E+03</rscale>
<asrwt>0</asrwt>
<pdfrwt beam="1">  1       21 0.86590063E-01 0.20196294E+03</pdfrwt>
<pdfrwt beam="2">  1       21 0.17184095E-01 0.20196294E+03</pdfrwt>
<totfact> 0.34945707E+04</totfact>
</mgrwt>
</event>
<event>
 4    1  0.3980289E+000  0.2613299E+03  0.7546771E-02  0.1106347E+00
         21   -1    0    0  501  502  0.00000000000E+00  0.00000000000E+00  0.30023264434E+02  0.30023264434E+02  0.00000000000E+00 0. -1.
         21   -1    0    0  502  503 -0.00000000000E+00 -0.00000000000E+00 -0.22875865263E+04  0.22875865263E+04  0.00000000000E+00 0. -1.
          6    1    1    2  501    0  0.78358176242E+02 -0.17951128000E+03 -0.10417383913E+04  0.10740168432E+04  0.17300000000E+03 0. -1.
         -6    1    1    2    0  503 -0.78358176242E+02  0.17951128000E+03 -0.12158248705E+04  0.12435929476E+04  0.17300000000E+03 0. -1.
<mgrwt>
<rscale>  2 0.26132987E+03</rscale>
<asrwt>0</asrwt>
<pdfrwt beam="1">  1       21 0.46189645E-02 0.26132987E+03</pdfrwt>
<pdfrwt beam="2">  1       21 0.35193633E+00 0.26132987E+03</pdfrwt>
<totfact> 0.48597616E+03</totfact>
</mgrwt>
</event>
<event>
 4    1  0.3980289E+000  0.1986009E+03  0.7546771E-02  0.1150925E+00
         21   -1    0    0  503  502  0.00000000000E+00  0.00000000000E+00  0.35098604628E+03  0.35098604628E+03  0.00000000000E+00 0. -1.
         21   -1    0    0  501  503 -0.00000000000E+00 -0.00000000000E+00 -0.19898542563E+03  0.19898542563E+03  0.00000000000E+00 0. -1.
          6    1    1    2  501    0  0.24924425388E+02 -0.94297981564E+02 -0.10541862898E+03  0.22484533272E+03  0.17300000000E+03 0. -1.
         -6    1    1    2    0  502 -0.24924425388E+02  0.94297981564E+02  0.25741924963E+03  0.32512613919E+03  0.17300000000E+03 0. -1.
<mgrwt>
<rscale>  2 0.19860095E+03</rscale>
<asrwt>0</asrwt>
<pdfrwt beam="1">  1       21 0.53997853E-01 0.19860095E+03</pdfrwt>
<pdfrwt beam="2">  1       21 0.30613142E-01 0.19860095E+03</pdfrwt>
<totfact> 0.33111282E+04</totfact>
</mgrwt>
</event>
<event>
 4    1  0.3980289E+000  0.1737690E+03  0.7546771E-02  0.1173973E+00
         21   -1    0    0  503  502  0.00000000000E+00  0.00000000000E+00  0.23880014425E+03  0.23880014425E+03  0.00000000000E+00 0. -1.
         21   -1    0    0  501  503 -0.00000000000E+00 -0.00000000000E+00 -0.12695070991E+03  0.12695070991E+03  0.00000000000E+00 0. -1.
          6    1    1    2  501    0  0.39857554765E+00  0.16324730634E+02  0.44409860419E+02  0.17935409501E+03  0.17300000000E+03 0.  1.
         -6    1    1    2    0  502 -0.39857554765E+00 -0.16324730634E+02  0.67439573925E+02  0.18639675916E+03  0.17300000000E+03 0.  1.
<mgrwt>
<rscale>  2 0.17376897E+03</rscale>
<asrwt>0</asrwt>
<pdfrwt beam="1">  1       21 0.36738484E-01 0.17376897E+03</pdfrwt>
<pdfrwt beam="2">  1       21 0.19530878E-01 0.17376897E+03</pdfrwt>
<totfact> 0.17340529E+05</totfact>
</mgrwt>
</event>
<event>
 4    1  0.3980289E+000  0.2601465E+03  0.7546771E-02  0.1107055E+00
         21   -1    0    0  501  502  0.00000000000E+00  0.00000000000E+00  0.75825967443E+03  0.75825967443E+03  0.00000000000E+00 0. -1.
         21   -1    0    0  502  503 -0.00000000000E+00 -0.00000000000E+00 -0.22065527426E+03  0.22065527426E+03  0.00000000000E+00 0.  1.
          6    1    1    2  501    0 -0.15161292075E+03  0.12149373110E+03  0.64651428115E+03  0.69689089545E+03  0.17300000000E+03 0. -1.
         -6    1    1    2    0  503  0.15161292075E+03 -0.12149373110E+03 -0.10890988097E+03  0.28202405324E+03  0.17300000000E+03 0.  1.
<mgrwt>
<rscale>  2 0.26014651E+03</rscale>
<asrwt>0</asrwt>
<pdfrwt beam="1">  1       21 0.11665533E+00 0.26014651E+03</pdfrwt>
<pdfrwt beam="2">  1       21 0.33946966E-01 0.26014651E+03</pdfrwt>
<totfact> 0.45089365E+03</totfact>
</mgrwt>
</event>
<event>
 4    1  0.3980289E+000  0.3251064E+03  0.7546771E-02  0.1073323E+00
         21   -1    0    0  503  502  0.00000000000E+00  0.00000000000E+00  0.20549153726E+03  0.20549153726E+03  0.00000000000E+00 0.  1.
         21   -1    0    0  501  503 -0.00000000000E+00 -0.00000000000E+00 -0.51669104403E+03  0.51669104403E+03  0.00000000000E+00 0. -1.
          6    1    1    2  501    0  0.82350274066E+02 -0.26264726835E+03 -0.13128362236E+03  0.35061309832E+03  0.17300000000E+03 0. -1.
         -6    1    1    2    0  502 -0.82350274066E+02  0.26264726835E+03 -0.17991588441E+03  0.37156948297E+03  0.17300000000E+03 0.  1.
<mgrwt>
<rscale>  2 0.32510638E+03</rscale>
<asrwt>0</asrwt>
<pdfrwt beam="1">  1       21 0.31614083E-01 0.32510638E+03</pdfrwt>
<pdfrwt beam="2">  1       21 0.79490929E-01 0.32510638E+03</pdfrwt>
<totfact> 0.12527613E+04</totfact>
</mgrwt>
</event>
<event>
 4    1  0.3980289E+000  0.3409772E+03  0.7546771E-02  0.1066381E+00
         21   -1    0    0  501  502  0.00000000000E+00  0.00000000000E+00  0.10923606600E+03  0.10923606600E+03  0.00000000000E+00 0. -1.
         21   -1    0    0  502  503 -0.00000000000E+00 -0.00000000000E+00 -0.11529811226E+04  0.11529811226E+04  0.00000000000E+00 0. -1.
          6    1    1    2  501    0  0.29357212162E+03  0.12321859714E+02 -0.34689355960E+03  0.48641603645E+03  0.17300000000E+03 0. -1.
         -6    1    1    2    0  503 -0.29357212162E+03 -0.12321859714E+02 -0.69685149701E+03  0.77580115217E+03  0.17300000000E+03 0. -1.
<mgrwt>
<rscale>  2 0.34097715E+03</rscale>
<asrwt>0</asrwt>
<pdfrwt beam="1">  1       21 0.16805548E-01 0.34097715E+03</pdfrwt>
<pdfrwt beam="2">  1       21 0.17738172E+00 0.34097715E+03</pdfrwt>
<totfact> 0.54814171E+03</totfact>
</mgrwt>
</event>
<event>
 4    1  0.3980289E+000  0.2227646E+03  0.7546771E-02  0.1131839E+00
         21   -1    0    0  501  502  0.00000000000E+00  0.00000000000E+00  0.18696901639E+03  0.18696901639E+03  0.00000000000E+00 0.  1.
         21   -1    0    0  502  503 -0.00000000000E+00 -0.00000000000E+00 -0.26598383981E+03  0.26598383981E+03  0.00000000000E+00 0.  1.
          6    1    1    2  501    0  0.10736674238E+03  0.90374057902E+02 -0.29019492069E+02  0.22464687541E+03  0.17300000000E+03 0.  1.
         -6    1    1    2    0  503 -0.10736674238E+03 -0.90374057902E+02 -0.49995331347E+02  0.22830598079E+03  0.17300000000E+03 0.  1.
<mgrwt>
<rscale>  2 0.22276465E+03</rscale>
<asrwt>0</asrwt>
<pdfrwt beam="1">  1       21 0.28764464E-01 0.22276465E+03</pdfrwt>
<pdfrwt beam="2">  1       21 0.40920591E-01 0.22276465E+03</pdfrwt>
<totfact> 0.65649437E+04</totfact>
</mgrwt>
</event>
<event>
 4    1  0.3980289E+000  0.1788336E+03  0.7546771E-02  0.1168937E+00
         21   -1    0    0  501  502  0.00000000000E+00  0.00000000000E+00  0.75888972819E+02  0.75888972819E+02  0.00000000000E+00 0.  1.
         21   -1    0    0  502  503 -0.00000000000E+00 -0.00000000000E+00 -0.65861400511E+03  0.65861400511E+03  0.00000000000E+00 0.  1.
          6    1    1    2  501    0 -0.16387836051E+02 -0.42236341482E+02 -0.70970503125E+02  0.19240135661E+03  0.17300000000E+03 0.  1.
         -6    1    1    2    0  503  0.16387836051E+02  0.42236341482E+02 -0.51175452917E+03  0.54210162132E+03  0.17300000000E+03 0.  1.
<mgrwt>
<rscale>  2 0.17883364E+03</rscale>
<asrwt>0</asrwt>
<pdfrwt beam="1">  1       21 0.11675226E-01 0.17883364E+03</pdfrwt>
<pdfrwt beam="2">  1       21 0.10132523E+00 0.17883364E+03</pdfrwt>
<totfact> 0.49378223E+04</totfact>
</mgrwt>
</event>
<event>
 4    1  0.3980289E+000  0.1758038E+03  0.7546771E-02  0.1171927E+00
         21   -1    0    0  503  502  0.00000000000E+00  0.00000000000E+00  0.18475386569E+04  0.18475386569E+04  0.00000000000E+00 0.  1.
         21   -1    0    0  501  503 -0.00000000000E+00 -0.00000000000E+00 -0.83405409485E+02  0.83405409485E+02  0.00000000000E+00 0.  1.
          6    1    1    2  501    0  0.47990147659E+01  0.30902016114E+02  0.18830534580E+02  0.17680937242E+03  0.17300000000E+03 0.  1.
         -6    1    1    2    0  502 -0.47990147659E+01 -0.30902016114E+02  0.17453027129E+04  0.17541346940E+04  0.17300000000E+03 0.  1.
<mgrwt>
<rscale>  2 0.17580377E+03</rscale>
<asrwt>0</asrwt>
<pdfrwt beam="1">  1       21 0.28423669E+00 0.17580377E+03</pdfrwt>
<pdfrwt beam="2">  1       21 0.12831603E-01 0.17580377E+03</pdfrwt>
<totfact> 0.22365801E+03</totfact>
</mgrwt>
</event>
<event>
 4    1  0.3980289E+000  0.2553964E+03  0.7546771E-02  0.1109941E+00
         21   -1    0    0  501  502  0.00000000000E+00  0.00000000000E+00  0.83888660597E+02  0.83888660597E+02  0.00000000000E+00 0.  1.
         21   -1    0    0  502  503 -0.00000000000E+00 -0.00000000000E+00 -0.14101127058E+04  0.14101127058E+04  0.00000000000E+00 0.  1.
          6    1    1    2  501    0  0.57019030887E+02  0.17901723680E+03 -0.16279295715E+03  0.30286777289E+03  0.17300000000E+03 0.  1.
         -6    1    1    2    0  503 -0.57019030887E+02 -0.17901723680E+03 -0.11634310881E+04  0.11911335935E+04  0.17300000000E+03 0.  1.
<mgrwt>
<rscale>  2 0.25539644E+03</rscale>
<asrwt>0</asrwt>
<pdfrwt beam="1">  1       21 0.12905947E-01 0.25539644E+03</pdfrwt>
<pdfrwt beam="2">  1       21 0.21694043E+00 0.25539644E+03</pdfrwt>
<totfact> 0.51310112E+03</totfact>
</mgrwt>
</event>
<event>
 4    1  0.3980289E+000  0.2403982E+03  0.7546771E-02  0.1119528E+00
         21   -1    0    0  501  502  0.00000000000E+00  0.00000000000E+00  0.15785994569E+04  0.15785994569E+04  0.00000000000E+00 0.  1.
         21   -1    0    0  502  503 -0.00000000000E+00 -0.00000000000E+00 -0.41046492457E+02  0.41046492457E+02  0.00000000000E+00 0.  1.
          6    1    1    2  501    0 -0.16485311703E+03  0.26186766669E+02  0.10350390094E+04  0.10625897834E+04  0.17300000000E+03 0.  1.
         -6    1    1    2    0  503  0.16485311703E+03 -0.26186766669E+02  0.50251395503E+03  0.55705616588E+03  0.17300000000E+03 0.  1.
<mgrwt>
<rscale>  2 0.24039820E+03</rscale>
<asrwt>0</asrwt>
<pdfrwt beam="1">  1       21 0.24286141E+00 0.24039820E+03</pdfrwt>
<pdfrwt beam="2">  1       21 0.63148462E-02 0.24039820E+03</pdfrwt>
<totfact> 0.12718583E+04</totfact>
</mgrwt>
</event>
<event>
 4    1  0.3980289E+000  0.2072667E+03  0.7546771E-02  0.1143749E+00
         21   -1    0    0  503  502  0.00000000000E+00  0.00000000000E+00  0.43857404775E+02  0.43857404775E+02  0.00000000000E+00 0. -1.
         21   -1    0    0  501  503 -0.00000000000E+00 -0.00000000000E+00 -0.11959672189E+04  0.11959672189E+04  0.00000000000E+00 0. -1.
          6    1    1    2  501    0  0.14897243504E+02  0.11317491974E+03 -0.83977310836E+03  0.86497304227E+03  0.17300000000E+03 0. -1.
         -6    1    1    2    0  502 -0.14897243504E+02 -0.11317491974E+03 -0.31233670580E+03  0.37485158145E+03  0.17300000000E+03 0. -1.
<mgrwt>
<rscale>  2 0.20726671E+03</rscale>
<asrwt>0</asrwt>
<pdfrwt beam="1">  1       21 0.67472943E-02 0.20726671E+03</pdfrwt>
<pdfrwt beam="2">  1       21 0.18399492E+00 0.20726671E+03</pdfrwt>
<totfact> 0.27283838E+04</totfact>
</mgrwt>
</event>
<event>
 4    1  0.3980289E+000  0.1777589E+03  0.7546771E-02  0.1169990E+00
         21   -1    0    0  503  502  0.00000000000E+00  0.00000000000E+00  0.15968812035E+02  0.15968812035E+02  0.00000000000E+00 0. -1.
         21   -1    0    0  501  503 -0.00000000000E+00 -0.00000000000E+00 -0.19797172551E+04  0.19797172551E+04  0.00000000000E+00 0. -1.
          6    1    1    2  501    0 -0.39234299096E+02 -0.11397112956E+02 -0.95977348644E+03  0.97609598385E+03  0.17300000000E+03 0. -1.
         -6    1    1    2    0  502  0.39234299096E+02  0.11397112956E+02 -0.10039749566E+04  0.10195900833E+04  0.17300000000E+03 0. -1.
<mgrwt>
<rscale>  2 0.17775889E+03</rscale>
<asrwt>0</asrwt>
<pdfrwt beam="1">  1       21 0.24567402E-02 0.17775889E+03</pdfrwt>
<pdfrwt beam="2">  1       21 0.30457191E+00 0.17775889E+03</pdfrwt>
<totfact> 0.28680184E+04</totfact>
</mgrwt>
</event>
<event>
 4    1  0.3980289E+000  0.1883258E+03  0.7546771E-02  0.1159980E+00
         21   -1    0    0  501  502  0.00000000000E+00  0.00000000000E+00  0.67018726800E+02  0.67018726800E+02  0.00000000000E+00 0. -1.
         21   -1    0    0  502  503 -0.00000000000E+00 -0.00000000000E+00 -0.55241423140E+03  0.55241423140E+03  0.00000000000E+00 0. -1.
          6    1    1    2  501    0 -0.74340279110E+02 -0.33387727182E+01 -0.17921362273E+03  0.25996951181E+03  0.17300000000E+03 0. -1.
         -6    1    1    2    0  503  0.74340279110E+02  0.33387727182E+01 -0.30618188187E+03  0.35946344639E+03  0.17300000000E+03 0. -1.
<mgrwt>
<rscale>  2 0.18832585E+03</rscale>
<asrwt>0</asrwt>
<pdfrwt beam="1">  1       21 0.10310573E-01 0.18832585E+03</pdfrwt>
<pdfrwt beam="2">  1       21 0.84986809E-01 0.18832585E+03</pdfrwt>
<totfact> 0.92308830E+04</totfact>
</mgrwt>
</event>
<event>
 4    1  0.3980289E+000  0.1793329E+03  0.7546771E-02  0.1168450E+00
         21   -1    0    0  501  502  0.00000000000E+00  0.00000000000E+00  0.14091020292E+04  0.14091020292E+04  0.00000000000E+00 0.  1.
         21   -1    0    0  502  503 -0.00000000000E+00 -0.00000000000E+00 -0.60686347588E+02  0.60686347588E+02  0.00000000000E+00 0.  1.
          6    1    1    2  501    0 -0.45665748750E+02  0.12079917414E+02  0.12546880197E+04  0.12674392734E+04  0.17300000000E+03 0.  1.
         -6    1    1    2    0  503  0.45665748750E+02 -0.12079917414E+02  0.93727661840E+02  0.20234910330E+03  0.17300000000E+03 0.  1.
<mgrwt>
<rscale>  2 0.17933289E+03</rscale>
<asrwt>0</asrwt>
<pdfrwt beam="1">  1       21 0.21678490E+00 0.17933289E+03</pdfrwt>
<pdfrwt beam="2">  1       21 0.93363622E-02 0.17933289E+03</pdfrwt>
<totfact> 0.97595390E+03</totfact>
</mgrwt>
</event>
<event>
 4    1  0.3980289E+000  0.2048082E+03  0.7546771E-02  0.1145745E+00
         21   -1    0    0  503  502  0.00000000000E+00  0.00000000000E+00  0.16296502972E+04  0.16296502972E+04  0.00000000000E+00 0.  1.
         21   -1    0    0  501  503 -0.00000000000E+00 -0.00000000000E+00 -0.40793185113E+02  0.40793185113E+02  0.00000000000E+00 0.  1.
          6    1    1    2  501    0 -0.10956707756E+03  0.35273180681E+01  0.28705319546E+03  0.35262717349E+03  0.17300000000E+03 0.  1.
         -6    1    1    2    0  502  0.10956707756E+03 -0.35273180681E+01  0.13018039167E+04  0.13178163089E+04  0.17300000000E+03 0.  1.
<mgrwt>
<rscale>  2 0.20480817E+03</rscale>
<asrwt>0</asrwt>
<pdfrwt beam="1">  1       21 0.25071538E+00 0.20480817E+03</pdfrwt>
<pdfrwt beam="2">  1       21 0.62758759E-02 0.20480817E+03</pdfrwt>
<totfact> 0.11888096E+04</totfact>
</mgrwt>
</event>
<event>
 4    1  0.3980289E+000  0.2452869E+03  0.7546771E-02  0.1116320E+00
         21   -1    0    0  503  502  0.00000000000E+00  0.00000000000E+00  0.28537909238E+03  0.28537909238E+03  0.00000000000E+00 0. -1.
         21   -1    0    0  501  503 -0.00000000000E+00 -0.00000000000E+00 -0.32018103195E+03  0.32018103195E+03  0.00000000000E+00 0. -1.
          6    1    1    2  501    0  0.17386014748E+03  0.30490702324E+01 -0.19434938063E+03  0.31294940400E+03  0.17300000000E+03 0. -1.
         -6    1    1    2    0  502 -0.17386014748E+03 -0.30490702324E+01  0.15954744106E+03  0.29261072034E+03  0.17300000000E+03 0. -1.
<mgrwt>
<rscale>  2 0.24528687E+03</rscale>
<asrwt>0</asrwt>
<pdfrwt beam="1">  1       21 0.43904476E-01 0.24528687E+03</pdfrwt>
<pdfrwt beam="2">  1       21 0.49258620E-01 0.24528687E+03</pdfrwt>
<totfact> 0.19027061E+04</totfact>
</mgrwt>
</event>
<event>
 4    1  0.3980289E+000  0.2584715E+03  0.7546771E-02  0.1108065E+00
         21   -1    0    0  501  502  0.00000000000E+00  0.00000000000E+00  0.13655975953E+03  0.13655975953E+03  0.00000000000E+00 0. -1.
         21   -1    0    0  502  503 -0.00000000000E+00 -0.00000000000E+00 -0.57874003176E+03  0.57874003176E+03  0.00000000000E+00 0. -1.
          6    1    1    2  501    0  0.23089658733E+02  0.19064466232E+03 -0.80426829220E+02  0.27069539056E+03  0.17300000000E+03 0. -1.
         -6    1    1    2    0  503 -0.23089658733E+02 -0.19064466232E+03 -0.36175344301E+03  0.44460440072E+03  0.17300000000E+03 0. -1.
<mgrwt>
<rscale>  2 0.25847151E+03</rscale>
<asrwt>0</asrwt>
<pdfrwt beam="1">  1       21 0.21009194E-01 0.25847151E+03</pdfrwt>
<pdfrwt beam="2">  1       21 0.89036928E-01 0.25847151E+03</pdfrwt>
<totfact> 0.21884148E+04</totfact>
</mgrwt>
</event>
<event>
 4    1  0.3980289E+000  0.1939975E+03  0.7546771E-02  0.1154904E+00
         21   -1    0    0  501  502  0.00000000000E+00  0.00000000000E+00  0.52951632547E+03  0.52951632547E+03  0.00000000000E+00 0.  1.
         21   -1    0    0  502  503 -0.00000000000E+00 -0.00000000000E+00 -0.76216261356E+02  0.76216261356E+02  0.00000000000E+00 0. -1.
          6    1    1    2  501    0 -0.76760063669E+02  0.42590303699E+02  0.30531627371E+03  0.36173618610E+03  0.17300000000E+03 0. -1.
         -6    1    1    2    0  503  0.76760063669E+02 -0.42590303699E+02  0.14798379040E+03  0.24399640072E+03  0.17300000000E+03 0. -1.
<mgrwt>
<rscale>  2 0.19399753E+03</rscale>
<asrwt>0</asrwt>
<pdfrwt beam="1">  1       21 0.81464048E-01 0.19399753E+03</pdfrwt>
<pdfrwt beam="2">  1       21 0.11725579E-01 0.19399753E+03</pdfrwt>
<totfact> 0.80688708E+04</totfact>
</mgrwt>
</event>
<event>
 4    1  0.3980289E+000  0.1876413E+03  0.7546771E-02  0.1160606E+00
         21   -1    0    0  501  502  0.00000000000E+00  0.00000000000E+00  0.21208803330E+03  0.21208803330E+03  0.00000000000E+00 0. -1.
         21   -1    0    0  502  503 -0.00000000000E+00 -0.00000000000E+00 -0.17891814615E+03  0.17891814615E+03  0.00000000000E+00 0.  1.
          6    1    1    2  501    0  0.71759830010E+01 -0.72310288153E+02  0.69091759427E+02  0.19995735477E+03  0.17300000000E+03 0. -1.
         -6    1    1    2    0  503 -0.71759830010E+01  0.72310288153E+02 -0.35921872273E+02  0.19104882468E+03  0.17300000000E+03 0.  1.
<mgrwt>
<rscale>  2 0.18764134E+03</rscale>
<asrwt>0</asrwt>
<pdfrwt beam="1">  1       21 0.32628928E-01 0.18764134E+03</pdfrwt>
<pdfrwt beam="2">  1       21 0.27525869E-01 0.18764134E+03</pdfrwt>
<totfact> 0.11403439E+05</totfact>
</mgrwt>
</event>
<event>
 4    1  0.3980289E+000  0.1954619E+03  0.7546771E-02  0.1153625E+00
         21   -1    0    0  501  502  0.00000000000E+00  0.00000000000E+00  0.74855955576E+03  0.74855955576E+03  0.00000000000E+00 0. -1.
         21   -1    0    0  502  503 -0.00000000000E+00 -0.00000000000E+00 -0.56326730296E+02  0.56326730296E+02  0.00000000000E+00 0.  1.
          6    1    1    2  501    0  0.85207001855E+02  0.31876447893E+02  0.46942783515E+03  0.50849565732E+03  0.17300000000E+03 0.  1.
         -6    1    1    2    0  503 -0.85207001855E+02 -0.31876447893E+02  0.22280499031E+03  0.29639062874E+03  0.17300000000E+03 0. -1.
<mgrwt>
<rscale>  2 0.19546187E+03</rscale>
<asrwt>0</asrwt>
<pdfrwt beam="1">  1       21 0.11516300E+00 0.19546187E+03</pdfrwt>
<pdfrwt beam="2">  1       21 0.86656513E-02 0.19546187E+03</pdfrwt>
<totfact> 0.60898315E+04</totfact>
</mgrwt>
</event>
<event>
 4    1  0.3980289E+000  0.2303506E+03  0.7546771E-02  0.1126393E+00
         21   -1    0    0  503  502  0.00000000000E+00  0.00000000000E+00  0.12684068584E+03  0.12684068584E+03  0.00000000000E+00 0.  1.
         21   -1    0    0  501  503 -0.00000000000E+00 -0.00000000000E+00 -0.49483164491E+03  0.49483164491E+03  0.00000000000E+00 0.  1.
          6    1    1    2  501    0  0.90959995701E+02 -0.12189619080E+03 -0.30621346123E+03  0.38318153137E+03  0.17300000000E+03 0.  1.
         -6    1    1    2    0  502 -0.90959995701E+02  0.12189619080E+03 -0.61777497844E+02  0.23849079938E+03  0.17300000000E+03 0.  1.
<mgrwt>
<rscale>  2 0.23035061E+03</rscale>
<asrwt>0</asrwt>
<pdfrwt beam="1">  1       21 0.19513952E-01 0.23035061E+03</pdfrwt>
<pdfrwt beam="2">  1       21 0.76127945E-01 0.23035061E+03</pdfrwt>
<totfact> 0.36457474E+04</totfact>
</mgrwt>
</event>
<event>
 4    1  0.3980289E+000  0.2089266E+03  0.7546771E-02  0.1142419E+00
         21   -1    0    0  503  502  0.00000000000E+00  0.00000000000E+00  0.23231857148E+03  0.23231857148E+03  0.00000000000E+00 0. -1.
         21   -1    0    0  501  503 -0.00000000000E+00 -0.00000000000E+00 -0.19028466250E+03  0.19028466250E+03  0.00000000000E+00 0. -1.
          6    1    1    2  501    0  0.11068363882E+03  0.38346449442E+02 -0.26875144768E+01  0.20894387003E+03  0.17300000000E+03 0. -1.
         -6    1    1    2    0  502 -0.11068363882E+03 -0.38346449442E+02  0.44721423453E+02  0.21365936395E+03  0.17300000000E+03 0. -1.
<mgrwt>
<rscale>  2 0.20892659E+03</rscale>
<asrwt>0</asrwt>
<pdfrwt beam="1">  1       21 0.35741318E-01 0.20892659E+03</pdfrwt>
<pdfrwt beam="2">  1       21 0.29274564E-01 0.20892659E+03</pdfrwt>
<totfact> 0.83785088E+04</totfact>
</mgrwt>
</event>
<event>
 4    1  0.3980289E+000  0.2121270E+03  0.7546771E-02  0.1139893E+00
         21   -1    0    0  503  502  0.00000000000E+00  0.00000000000E+00  0.65637348450E+03  0.65637348450E+03  0.00000000000E+00 0.  1.
         21   -1    0    0  501  503 -0.00000000000E+00 -0.00000000000E+00 -0.14326114169E+03  0.14326114169E+03  0.00000000000E+00 0. -1.
          6    1    1    2  501    0 -0.12224896331E+03  0.11138579772E+02 -0.32162381486E+02  0.21455138259E+03  0.17300000000E+03 0. -1.
         -6    1    1    2    0  502  0.12224896331E+03 -0.11138579772E+02  0.54527472430E+03  0.58508324360E+03  0.17300000000E+03 0.  1.
<mgrwt>
<rscale>  2 0.21212703E+03</rscale>
<asrwt>0</asrwt>
<pdfrwt beam="1">  1       21 0.10098053E+00 0.21212703E+03</pdfrwt>
<pdfrwt beam="2">  1       21 0.22040176E-01 0.21212703E+03</pdfrwt>
<totfact> 0.15237801E+04</totfact>
</mgrwt>
</event>
<event>
 4    1  0.3980289E+000  0.1738289E+03  0.7546771E-02  0.1173913E+00
         21   -1    0    0  501  502  0.00000000000E+00  0.00000000000E+00  0.42911189414E+02  0.42911189414E+02  0.00000000000E+00 0. -1.
         21   -1    0    0  502  503 -0.00000000000E+00 -0.00000000000E+00 -0.32580838517E+04  0.32580838517E+04  0.00000000000E+00 0. -1.
          6    1    1    2  501    0 -0.15757813455E+02  0.62587856607E+01 -0.14629285198E+03  0.22719612590E+03  0.17300000000E+03 0. -1.
         -6    1    1    2    0  503  0.15757813455E+02 -0.62587856607E+01 -0.30688798103E+04  0.30737989153E+04  0.17300000000E+03 0. -1.
<mgrwt>
<rscale>  2 0.17382888E+03</rscale>
<asrwt>0</asrwt>
<pdfrwt beam="1">  1       21 0.66017200E-02 0.17382888E+03</pdfrwt>
<pdfrwt beam="2">  1       21 0.50124378E+00 0.17382888E+03</pdfrwt>
<totfact> 0.32148277E+02</totfact>
</mgrwt>
</event>
<event>
 4    1  0.3980289E+000  0.1739193E+03  0.7546771E-02  0.1173821E+00
         21   -1    0    0  503  502  0.00000000000E+00  0.00000000000E+00  0.14612218209E+03  0.14612218209E+03  0.00000000000E+00 0. -1.
         21   -1    0    0  501  503 -0.00000000000E+00 -0.00000000000E+00 -0.56586738849E+03  0.56586738849E+03  0.00000000000E+00 0. -1.
          6    1    1    2  501    0 -0.14800548033E+02  0.99926157573E+01 -0.49337109056E+03  0.52312803556E+03  0.17300000000E+03 0. -1.
         -6    1    1    2    0  502  0.14800548033E+02 -0.99926157573E+01  0.73625884162E+02  0.18886153502E+03  0.17300000000E+03 0. -1.
<mgrwt>
<rscale>  2 0.17391926E+03</rscale>
<asrwt>0</asrwt>
<pdfrwt beam="1">  1       21 0.22480336E-01 0.17391926E+03</pdfrwt>
<pdfrwt beam="2">  1       21 0.87056521E-01 0.17391926E+03</pdfrwt>
<totfact> 0.21263311E+04</totfact>
</mgrwt>
</event>
<event>
 4    1  0.3980289E+000  0.1970211E+03  0.7546771E-02  0.1152277E+00
         21   -1    0    0  503  502  0.00000000000E+00  0.00000000000E+00  0.51323354553E+02  0.51323354553E+02  0.00000000000E+00 0.  1.
         21   -1    0    0  501  503 -0.00000000000E+00 -0.00000000000E+00 -0.10892111936E+04  0.10892111936E+04  0.00000000000E+00 0.  1.
          6    1    1    2  501    0  0.38690422278E+02  0.85973125957E+02 -0.83420318919E+03  0.85715359652E+03  0.17300000000E+03 0.  1.
         -6    1    1    2    0  502 -0.38690422278E+02 -0.85973125957E+02 -0.20368464985E+03  0.28338095163E+03  0.17300000000E+03 0.  1.
<mgrwt>
<rscale>  2 0.19702113E+03</rscale>
<asrwt>0</asrwt>
<pdfrwt beam="1">  1       21 0.78959002E-02 0.19702113E+03</pdfrwt>
<pdfrwt beam="2">  1       21 0.16757096E+00 0.19702113E+03</pdfrwt>
<totfact> 0.27172730E+04</totfact>
</mgrwt>
</event>
<event>
 4    1  0.3980289E+000  0.1738239E+03  0.7546771E-02  0.1173918E+00
         21   -1    0    0  503  502  0.00000000000E+00  0.00000000000E+00  0.30547764244E+02  0.30547764244E+02  0.00000000000E+00 0. -1.
         21   -1    0    0  501  503 -0.00000000000E+00 -0.00000000000E+00 -0.99147603602E+03  0.99147603602E+03  0.00000000000E+00 0. -1.
          6    1    1    2  501    0 -0.99076362096E+01  0.13696292802E+02 -0.50548761989E+03  0.53453950608E+03  0.17300000000E+03 0.  1.
         -6    1    1    2    0  502  0.99076362096E+01 -0.13696292802E+02 -0.45544065189E+03  0.48748429419E+03  0.17300000000E+03 0.  1.
<mgrwt>
<rscale>  2 0.17382390E+03</rscale>
<asrwt>0</asrwt>
<pdfrwt beam="1">  1       21 0.46996567E-02 0.17382390E+03</pdfrwt>
<pdfrwt beam="2">  1       21 0.15253475E+00 0.17382390E+03</pdfrwt>
<totfact> 0.86245842E+04</totfact>
</mgrwt>
</event>
<event>
 4    1  0.3980289E+000  0.2328823E+03  0.7546771E-02  0.1124627E+00
         21   -1    0    0  501  502  0.00000000000E+00  0.00000000000E+00  0.33476036030E+03  0.33476036030E+03  0.00000000000E+00 0. -1.
         21   -1    0    0  502  503 -0.00000000000E+00 -0.00000000000E+00 -0.19084481377E+03  0.19084481377E+03  0.00000000000E+00 0.  1.
          6    1    1    2  501    0 -0.12988409120E+03  0.86228111934E+02  0.17411195825E+03  0.29077334548E+03  0.17300000000E+03 0. -1.
         -6    1    1    2    0  503  0.12988409120E+03 -0.86228111934E+02 -0.30196411719E+02  0.23483182858E+03  0.17300000000E+03 0.  1.
<mgrwt>
<rscale>  2 0.23288230E+03</rscale>
<asrwt>0</asrwt>
<pdfrwt beam="1">  1       21 0.51501594E-01 0.23288230E+03</pdfrwt>
<pdfrwt beam="2">  1       21 0.29360741E-01 0.23288230E+03</pdfrwt>
<totfact> 0.39027035E+04</totfact>
</mgrwt>
</event>
<event>
 4    1  0.3980289E+000  0.2458008E+03  0.7546771E-02  0.1115988E+00
         21   -1    0    0  503  502  0.00000000000E+00  0.00000000000E+00  0.34313702020E+03  0.34313702020E+03  0.00000000000E+00 0. -1.
         21   -1    0    0  501  503 -0.00000000000E+00 -0.00000000000E+00 -0.41822939211E+03  0.41822939211E+03  0.00000000000E+00 0. -1.
          6    1    1    2  501    0 -0.34974886413E+02 -0.17107245894E+03 -0.32721527458E+03  0.40925281282E+03  0.17300000000E+03 0. -1.
         -6    1    1    2    0  502  0.34974886413E+02  0.17107245894E+03  0.25212290267E+03  0.35211359948E+03  0.17300000000E+03 0. -1.
<mgrwt>
<rscale>  2 0.24580079E+03</rscale>
<asrwt>0</asrwt>
<pdfrwt beam="1">  1       21 0.52790311E-01 0.24580079E+03</pdfrwt>
<pdfrwt beam="2">  1       21 0.64342983E-01 0.24580079E+03</pdfrwt>
<totfact> 0.73147975E+03</totfact>
</mgrwt>
</event>
<event>
 4    1  0.3980289E+000  0.1901145E+03  0.7546771E-02  0.1158358E+00
         21   -1    0    0  501  502  0.00000000000E+00  0.00000000000E+00  0.57911914273E+02  0.57911914273E+02  0.00000000000E+00 0.  1.
         21   -1    0    0  502  503 -0.00000000000E+00 -0.00000000000E+00 -0.74147154488E+03  0.74147154488E+03  0.00000000000E+00 0.  1.
          6    1    1    2  501    0  0.15976949154E+02  0.77196247933E+02 -0.18276520426E+03  0.26371697611E+03  0.17300000000E+03 0.  1.
         -6    1    1    2    0  503 -0.15976949154E+02 -0.77196247933E+02 -0.50079442635E+03  0.53566648305E+03  0.17300000000E+03 0.  1.
<mgrwt>
<rscale>  2 0.19011450E+03</rscale>
<asrwt>0</asrwt>
<pdfrwt beam="1">  1       21 0.89095255E-02 0.19011450E+03</pdfrwt>
<pdfrwt beam="2">  1       21 0.11407254E+00 0.19011450E+03</pdfrwt>
<totfact> 0.59527575E+04</totfact>
</mgrwt>
</event>
<event>
 4    1  0.3980289E+000  0.1789376E+03  0.7546771E-02  0.1168835E+00
         21   -1    0    0  501  502  0.00000000000E+00  0.00000000000E+00  0.37252246036E+03  0.37252246036E+03  0.00000000000E+00 0. -1.
         21   -1    0    0  502  503 -0.00000000000E+00 -0.00000000000E+00 -0.99505559477E+02  0.99505559477E+02  0.00000000000E+00 0. -1.
          6    1    1    2  501    0 -0.19162854916E+02 -0.41502448838E+02  0.22361628801E+03  0.28639642549E+03  0.17300000000E+03 0. -1.
         -6    1    1    2    0  503  0.19162854916E+02  0.41502448838E+02  0.49400612869E+02  0.18563159435E+03  0.17300000000E+03 0. -1.
<mgrwt>
<rscale>  2 0.17893761E+03</rscale>
<asrwt>0</asrwt>
<pdfrwt beam="1">  1       21 0.57311147E-01 0.17893761E+03</pdfrwt>
<pdfrwt beam="2">  1       21 0.15308548E-01 0.17893761E+03</pdfrwt>
<totfact> 0.10859107E+05</totfact>
</mgrwt>
</event>
<event>
 4    1  0.3980289E+000  0.1776923E+03  0.7546771E-02  0.1170055E+00
         21   -1    0    0  503  502  0.00000000000E+00  0.00000000000E+00  0.51106757130E+03  0.51106757130E+03  0.00000000000E+00 0.  1.
         21   -1    0    0  501  503 -0.00000000000E+00 -0.00000000000E+00 -0.10158735410E+03  0.10158735410E+03  0.00000000000E+00 0.  1.
          6    1    1    2  501    0  0.14396397157E+02 -0.37924779210E+02  0.12988362772E+02  0.17816633435E+03  0.17300000000E+03 0.  1.
         -6    1    1    2    0  502 -0.14396397157E+02  0.37924779210E+02  0.39649185442E+03  0.43448859105E+03  0.17300000000E+03 0.  1.
<mgrwt>
<rscale>  2 0.17769228E+03</rscale>
<asrwt>0</asrwt>
<pdfrwt beam="1">  1       21 0.78625779E-01 0.17769228E+03</pdfrwt>
<pdfrwt beam="2">  1       21 0.15628824E-01 0.17769228E+03</pdfrwt>
<totfact> 0.52429736E+04</totfact>
</mgrwt>
</event>
<event>
 4    1  0.3980289E+000  0.1875677E+03  0.7546771E-02  0.1160674E+00
         21   -1    0    0  501  502  0.00000000000E+00  0.00000000000E+00  0.63025602420E+02  0.63025602420E+02  0.00000000000E+00 0. -1.
         21   -1    0    0  502  503 -0.00000000000E+00 -0.00000000000E+00 -0.65216402763E+03  0.65216402763E+03  0.00000000000E+00 0. -1.
          6    1    1    2  501    0 -0.52873875146E+02 -0.49568123078E+02 -0.15884230698E+03  0.24578959291E+03  0.17300000000E+03 0. -1.
         -6    1    1    2    0  503  0.52873875146E+02  0.49568123078E+02 -0.43029611823E+03  0.46940003713E+03  0.17300000000E+03 0. -1.
<mgrwt>
<rscale>  2 0.18756771E+03</rscale>
<asrwt>0</asrwt>
<pdfrwt beam="1">  1       21 0.96962465E-02 0.18756771E+03</pdfrwt>
<pdfrwt beam="2">  1       21 0.10033293E+00 0.18756771E+03</pdfrwt>
<totfact> 0.69952396E+04</totfact>
</mgrwt>
</event>
<event>
 4    1  0.3980289E+000  0.1895368E+03  0.7546771E-02  0.1158880E+00
         21   -1    0    0  501  502  0.00000000000E+00  0.00000000000E+00  0.18769039871E+03  0.18769039871E+03  0.00000000000E+00 0.  1.
         21   -1    0    0  502  503 -0.00000000000E+00 -0.00000000000E+00 -0.19783405507E+03  0.19783405507E+03  0.00000000000E+00 0.  1.
          6    1    1    2  501    0  0.75782180152E+02 -0.15883014895E+02  0.29687056848E+02  0.19184767482E+03  0.17300000000E+03 0.  1.
         -6    1    1    2    0  503 -0.75782180152E+02  0.15883014895E+02 -0.39830713215E+02  0.19367677895E+03  0.17300000000E+03 0.  1.
<mgrwt>
<rscale>  2 0.18953683E+03</rscale>
<asrwt>0</asrwt>
<pdfrwt beam="1">  1       21 0.28875446E-01 0.18953683E+03</pdfrwt>
<pdfrwt beam="2">  1       21 0.30436008E-01 0.18953683E+03</pdfrwt>
<totfact> 0.11905152E+05</totfact>
</mgrwt>
</event>
<event>
 4    1  0.3980289E+000  0.1986009E+03  0.7546771E-02  0.1150925E+00
         21   -1    0    0  503  502  0.00000000000E+00  0.00000000000E+00  0.13400334357E+03  0.13400334357E+03  0.00000000000E+00 0. -1.
         21   -1    0    0  501  503 -0.00000000000E+00 -0.00000000000E+00 -0.29435156270E+03  0.29435156270E+03  0.00000000000E+00 0. -1.
          6    1    1    2  501    0 -0.28350088648E+02 -0.93325159431E+02 -0.81613157503E+02  0.21471613909E+03  0.17300000000E+03 0. -1.
         -6    1    1    2    0  502  0.28350088648E+02  0.93325159431E+02 -0.78735061627E+02  0.21363876717E+03  0.17300000000E+03 0. -1.
<mgrwt>
<rscale>  2 0.19860089E+03</rscale>
<asrwt>0</asrwt>
<pdfrwt beam="1">  1       21 0.20615899E-01 0.19860089E+03</pdfrwt>
<pdfrwt beam="2">  1       21 0.45284856E-01 0.19860089E+03</pdfrwt>
<totfact> 0.10177580E+05</totfact>
</mgrwt>
</event>
<event>
 4    1  0.3980289E+000  0.2087349E+03  0.7546771E-02  0.1142572E+00
         21   -1    0    0  503  502  0.00000000000E+00  0.00000000000E+00  0.25797684863E+03  0.25797684863E+03  0.00000000000E+00 0.  1.
         21   -1    0    0  501  503 -0.00000000000E+00 -0.00000000000E+00 -0.35908118981E+03  0.35908118981E+03  0.00000000000E+00 0. -1.
          6    1    1    2  501    0  0.59535160996E+02 -0.10048302844E+03 -0.27509148406E+03  0.34531956070E+03  0.17300000000E+03 0. -1.
         -6    1    1    2    0  502 -0.59535160996E+02  0.10048302844E+03  0.17398714288E+03  0.27173847775E+03  0.17300000000E+03 0.  1.
<mgrwt>
<rscale>  2 0.20873494E+03</rscale>
<asrwt>0</asrwt>
<pdfrwt beam="1">  1       21 0.39688746E-01 0.20873494E+03</pdfrwt>
<pdfrwt beam="2">  1       21 0.55243260E-01 0.20873494E+03</pdfrwt>
<totfact> 0.18726922E+04</totfact>
</mgrwt>
</event>
<event>
 4    1  0.3980289E+000  0.1936270E+03  0.7546771E-02  0.1155230E+00
         21   -1    0    0  501  502  0.00000000000E+00  0.00000000000E+00  0.15688407268E+03  0.15688407268E+03  0.00000000000E+00 0. -1.
         21   -1    0    0  502  503 -0.00000000000E+00 -0.00000000000E+00 -0.25198907994E+03  0.25198907994E+03  0.00000000000E+00 0. -1.
          6    1    1    2  501    0 -0.66459755703E+02  0.56084777064E+02 -0.10933520326E+01  0.19363005130E+03  0.17300000000E+03 0. -1.
         -6    1    1    2    0  503  0.66459755703E+02 -0.56084777064E+02 -0.94011655225E+02  0.21524310132E+03  0.17300000000E+03 0. -1.
<mgrwt>
<rscale>  2 0.19362696E+03</rscale>
<asrwt>0</asrwt>
<pdfrwt beam="1">  1       21 0.24136011E-01 0.19362696E+03</pdfrwt>
<pdfrwt beam="2">  1       21 0.38767550E-01 0.19362696E+03</pdfrwt>
<totfact> 0.10388118E+05</totfact>
</mgrwt>
</event>
<event>
 4    1  0.3980289E+000  0.1892874E+03  0.7546771E-02  0.1159106E+00
         21   -1    0    0  503  502  0.00000000000E+00  0.00000000000E+00  0.28240022745E+03  0.28240022745E+03  0.00000000000E+00 0.  1.
         21   -1    0    0  501  503 -0.00000000000E+00 -0.00000000000E+00 -0.12971231848E+03  0.12971231848E+03  0.00000000000E+00 0.  1.
          6    1    1    2  501    0  0.53616098043E+02  0.55009313175E+02  0.45872019053E+02  0.19476640531E+03  0.17300000000E+03 0. -1.
         -6    1    1    2    0  502 -0.53616098043E+02 -0.55009313175E+02  0.10681588991E+03  0.21734614062E+03  0.17300000000E+03 0. -1.
<mgrwt>
<rscale>  2 0.18928738E+03</rscale>
<asrwt>0</asrwt>
<pdfrwt beam="1">  1       21 0.43446189E-01 0.18928738E+03</pdfrwt>
<pdfrwt beam="2">  1       21 0.19955741E-01 0.18928738E+03</pdfrwt>
<totfact> 0.11817743E+05</totfact>
</mgrwt>
</event>
<event>
 4    1  0.3980289E+000  0.1864980E+03  0.7546771E-02  0.1161658E+00
         21   -1    0    0  503  502  0.00000000000E+00  0.00000000000E+00  0.12702807997E+03  0.12702807997E+03  0.00000000000E+00 0. -1.
         21   -1    0    0  501  503 -0.00000000000E+00 -0.00000000000E+00 -0.79913074090E+03  0.79913074090E+03  0.00000000000E+00 0.  1.
          6    1    1    2  501    0  0.66090732471E+02  0.22011838157E+02 -0.71150728668E+03  0.73554342152E+03  0.17300000000E+03 0.  1.
         -6    1    1    2    0  502 -0.66090732471E+02 -0.22011838157E+02  0.39404625748E+02  0.19061539935E+03  0.17300000000E+03 0. -1.
<mgrwt>
<rscale>  2 0.18649801E+03</rscale>
<asrwt>0</asrwt>
<pdfrwt beam="1">  1       21 0.19542782E-01 0.18649801E+03</pdfrwt>
<pdfrwt beam="2">  1       21 0.12294319E+00 0.18649801E+03</pdfrwt>
<totfact> 0.12035131E+04</totfact>
</mgrwt>
</event>
<event>
 4    1  0.3980289E+000  0.2799958E+03  0.7546771E-02  0.1095691E+00
         21   -1    0    0  501  502  0.00000000000E+00  0.00000000000E+00  0.65956993572E+03  0.65956993572E+03  0.00000000000E+00 0.  1.
         21   -1    0    0  502  503 -0.00000000000E+00 -0.00000000000E+00 -0.24100308035E+03  0.24100308035E+03  0.00000000000E+00 0. -1.
          6    1    1    2  501    0 -0.57781324286E+02  0.21243817362E+03  0.52984311121E+03  0.59927571413E+03  0.17300000000E+03 0.  1.
         -6    1    1    2    0  503  0.57781324286E+02 -0.21243817362E+03 -0.11127625584E+03  0.30129730195E+03  0.17300000000E+03 0. -1.
<mgrwt>
<rscale>  2 0.27999582E+03</rscale>
<asrwt>0</asrwt>
<pdfrwt beam="1">  1       21 0.10147230E+00 0.27999582E+03</pdfrwt>
<pdfrwt beam="2">  1       21 0.37077397E-01 0.27999582E+03</pdfrwt>
<totfact> 0.52481267E+03</totfact>
</mgrwt>
</event>
<event>
 4    1  0.3980289E+000  0.1865860E+03  0.7546771E-02  0.1161577E+00
         21   -1    0    0  503  502  0.00000000000E+00  0.00000000000E+00  0.17289380553E+03  0.17289380553E+03  0.00000000000E+00 0. -1.
         21   -1    0    0  501  503 -0.00000000000E+00 -0.00000000000E+00 -0.42625103491E+03  0.42625103491E+03  0.00000000000E+00 0. -1.
          6    1    1    2  501    0 -0.69085308628E+02  0.10608454993E+02 -0.34427557124E+03  0.39158650148E+03  0.17300000000E+03 0. -1.
         -6    1    1    2    0  502  0.69085308628E+02 -0.10608454993E+02  0.90918341862E+02  0.20755833896E+03  0.17300000000E+03 0. -1.
<mgrwt>
<rscale>  2 0.18658596E+03</rscale>
<asrwt>0</asrwt>
<pdfrwt beam="1">  1       21 0.26599047E-01 0.18658596E+03</pdfrwt>
<pdfrwt beam="2">  1       21 0.65577082E-01 0.18658596E+03</pdfrwt>
<totfact> 0.28852290E+04</totfact>
</mgrwt>
</event>
<event>
 4    1  0.3980289E+000  0.2209730E+03  0.7546771E-02  0.1133160E+00
         21   -1    0    0  501  502  0.00000000000E+00  0.00000000000E+00  0.23920874772E+03  0.23920874772E+03  0.00000000000E+00 0. -1.
         21   -1    0    0  502  503 -0.00000000000E+00 -0.00000000000E+00 -0.42177272075E+03  0.42177272075E+03  0.00000000000E+00 0. -1.
          6    1    1    2  501    0  0.18249535016E+02 -0.13626089025E+03  0.14612562832E+03  0.26491843083E+03  0.17300000000E+03 0. -1.
         -6    1    1    2    0  503 -0.18249535016E+02  0.13626089025E+03 -0.32868960136E+03  0.39606303764E+03  0.17300000000E+03 0. -1.
<mgrwt>
<rscale>  2 0.22097302E+03</rscale>
<asrwt>0</asrwt>
<pdfrwt beam="1">  1       21 0.36801346E-01 0.22097302E+03</pdfrwt>
<pdfrwt beam="2">  1       21 0.64888111E-01 0.22097302E+03</pdfrwt>
<totfact> 0.15309535E+04</totfact>
</mgrwt>
</event>
<event>
 4    1  0.3980289E+000  0.3072274E+03  0.7546771E-02  0.1081683E+00
         21   -1    0    0  503  502  0.00000000000E+00  0.00000000000E+00  0.10394302202E+03  0.10394302202E+03  0.00000000000E+00 0. -1.
         21   -1    0    0  501  503 -0.00000000000E+00 -0.00000000000E+00 -0.10625386142E+04  0.10625386142E+04  0.00000000000E+00 0. -1.
          6    1    1    2  501    0  0.21257322494E+03 -0.13882461326E+03 -0.70167008834E+03  0.76598274268E+03  0.17300000000E+03 0. -1.
         -6    1    1    2    0  502 -0.21257322494E+03  0.13882461326E+03 -0.25692550388E+03  0.40049889357E+03  0.17300000000E+03 0. -1.
<mgrwt>
<rscale>  2 0.30722736E+03</rscale>
<asrwt>0</asrwt>
<pdfrwt beam="1">  1       21 0.15991234E-01 0.30722736E+03</pdfrwt>
<pdfrwt beam="2">  1       21 0.16346748E+00 0.30722736E+03</pdfrwt>
<totfact> 0.76963113E+03</totfact>
</mgrwt>
</event>
<event>
 4    1  0.3980289E+000  0.1886886E+03  0.7546771E-02  0.1159649E+00
         21   -1    0    0  503  502  0.00000000000E+00  0.00000000000E+00  0.26220220118E+03  0.26220220118E+03  0.00000000000E+00 0.  1.
         21   -1    0    0  501  503 -0.00000000000E+00 -0.00000000000E+00 -0.14966780009E+03  0.14966780009E+03  0.00000000000E+00 0. -1.
          6    1    1    2  501    0  0.65124059942E+02 -0.37858384228E+02 -0.64502121576E+01  0.18879884978E+03  0.17300000000E+03 0.  1.
         -6    1    1    2    0  502 -0.65124059942E+02  0.37858384228E+02  0.11898461325E+03  0.22307115150E+03  0.17300000000E+03 0.  1.
<mgrwt>
<rscale>  2 0.18868863E+03</rscale>
<asrwt>0</asrwt>
<pdfrwt beam="1">  1       21 0.40338800E-01 0.18868863E+03</pdfrwt>
<pdfrwt beam="2">  1       21 0.23025815E-01 0.18868863E+03</pdfrwt>
<totfact> 0.10503258E+05</totfact>
</mgrwt>
</event>
<event>
 4    1  0.3980289E+000  0.1988676E+03  0.7546771E-02  0.1150698E+00
         21   -1    0    0  503  502  0.00000000000E+00  0.00000000000E+00  0.64134108965E+02  0.64134108965E+02  0.00000000000E+00 0.  1.
         21   -1    0    0  501  503 -0.00000000000E+00 -0.00000000000E+00 -0.65985237466E+03  0.65985237466E+03  0.00000000000E+00 0. -1.
          6    1    1    2  501    0  0.78816891691E+02 -0.58371538626E+02 -0.39048402060E+03  0.43820783799E+03  0.17300000000E+03 0. -1.
         -6    1    1    2    0  502 -0.78816891691E+02  0.58371538626E+02 -0.20523424510E+03  0.28577864563E+03  0.17300000000E+03 0.  1.
<mgrwt>
<rscale>  2 0.19886764E+03</rscale>
<asrwt>0</asrwt>
<pdfrwt beam="1">  1       21 0.98667863E-02 0.19886764E+03</pdfrwt>
<pdfrwt beam="2">  1       21 0.10151575E+00 0.19886764E+03</pdfrwt>
<totfact> 0.65615898E+04</totfact>
</mgrwt>
</event>
<event>
 4    1  0.3980289E+000  0.1911136E+03  0.7546771E-02  0.1157461E+00
         21   -1    0    0  501  502  0.00000000000E+00  0.00000000000E+00  0.31337182268E+02  0.31337182268E+02  0.00000000000E+00 0. -1.
         21   -1    0    0  502  503 -0.00000000000E+00 -0.00000000000E+00 -0.13832390306E+04  0.13832390306E+04  0.00000000000E+00 0. -1.
          6    1    1    2  501    0  0.75613837594E+02 -0.29630411383E+02 -0.39535177337E+03  0.43912121154E+03  0.17300000000E+03 0. -1.
         -6    1    1    2    0  503 -0.75613837594E+02  0.29630411383E+02 -0.95655007500E+03  0.97545500137E+03  0.17300000000E+03 0. -1.
<mgrwt>
<rscale>  2 0.19111361E+03</rscale>
<asrwt>0</asrwt>
<pdfrwt beam="1">  1       21 0.48211051E-02 0.19111361E+03</pdfrwt>
<pdfrwt beam="2">  1       21 0.21280600E+00 0.19111361E+03</pdfrwt>
<totfact> 0.31923081E+04</totfact>
</mgrwt>
</event>
<event>
 4    1  0.3980289E+000  0.1797674E+03  0.7546771E-02  0.1168028E+00
         21   -1    0    0  503  502  0.00000000000E+00  0.00000000000E+00  0.75024086511E+03  0.75024086511E+03  0.00000000000E+00 0.  1.
         21   -1    0    0  501  503 -0.00000000000E+00 -0.00000000000E+00 -0.11282440005E+03  0.11282440005E+03  0.00000000000E+00 0.  1.
          6    1    1    2  501    0 -0.47762514188E+02 -0.10298876835E+02 -0.20591574035E+02  0.18094291240E+03  0.17300000000E+03 0.  1.
         -6    1    1    2    0  502  0.47762514188E+02  0.10298876835E+02  0.65800803910E+03  0.68212235277E+03  0.17300000000E+03 0.  1.
<mgrwt>
<rscale>  2 0.17976742E+03</rscale>
<asrwt>0</asrwt>
<pdfrwt beam="1">  1       21 0.11542167E+00 0.17976742E+03</pdfrwt>
<pdfrwt beam="2">  1       21 0.17357600E-01 0.17976742E+03</pdfrwt>
<totfact> 0.17592170E+04</totfact>
</mgrwt>
</event>
<event>
 4    1  0.3980289E+000  0.2297644E+03  0.7546771E-02  0.1126806E+00
         21   -1    0    0  501  502  0.00000000000E+00  0.00000000000E+00  0.74793932350E+02  0.74793932350E+02  0.00000000000E+00 0. -1.
         21   -1    0    0  502  503 -0.00000000000E+00 -0.00000000000E+00 -0.23871798012E+04  0.23871798012E+04  0.00000000000E+00 0. -1.
          6    1    1    2  501    0  0.46561506697E+02  0.14385658668E+03 -0.12309835681E+03  0.26066241940E+03  0.17300000000E+03 0. -1.
         -6    1    1    2    0  503 -0.46561506697E+02 -0.14385658668E+03 -0.21892875121E+04  0.22013113142E+04  0.17300000000E+03 0. -1.
<mgrwt>
<rscale>  2 0.22976443E+03</rscale>
<asrwt>0</asrwt>
<pdfrwt beam="1">  1       21 0.11506760E-01 0.22976443E+03</pdfrwt>
<pdfrwt beam="2">  1       21 0.36725839E+00 0.22976443E+03</pdfrwt>
<totfact> 0.82898845E+02</totfact>
</mgrwt>
</event>
<event>
 4    1  0.3980289E+000  0.3794890E+03  0.7546771E-02  0.1051123E+00
         21   -1    0    0  503  502  0.00000000000E+00  0.00000000000E+00  0.10044270043E+03  0.10044270043E+03  0.00000000000E+00 0. -1.
         21   -1    0    0  501  503 -0.00000000000E+00 -0.00000000000E+00 -0.14930130421E+04  0.14930130421E+04  0.00000000000E+00 0. -1.
          6    1    1    2  501    0 -0.92193957751E+02 -0.32493560966E+03 -0.85499052146E+03  0.93542539417E+03  0.17300000000E+03 0. -1.
         -6    1    1    2    0  502  0.92193957751E+02  0.32493560966E+03 -0.53757982019E+03  0.65803034834E+03  0.17300000000E+03 0. -1.
<mgrwt>
<rscale>  2 0.37948897E+03</rscale>
<asrwt>0</asrwt>
<pdfrwt beam="1">  1       21 0.15452725E-01 0.37948897E+03</pdfrwt>
<pdfrwt beam="2">  1       21 0.22969429E+00 0.37948897E+03</pdfrwt>
<totfact> 0.28443019E+03</totfact>
</mgrwt>
</event>
<event>
 4    1  0.3980289E+000  0.1891340E+03  0.7546771E-02  0.1159245E+00
         21   -1    0    0  501  502  0.00000000000E+00  0.00000000000E+00  0.15974759931E+03  0.15974759931E+03  0.00000000000E+00 0.  1.
         21   -1    0    0  502  503 -0.00000000000E+00 -0.00000000000E+00 -0.43393298181E+03  0.43393298181E+03  0.00000000000E+00 0.  1.
          6    1    1    2  501    0  0.47019415779E+01 -0.76292690640E+02  0.69411139599E+02  0.20146858117E+03  0.17300000000E+03 0.  1.
         -6    1    1    2    0  503 -0.47019415779E+01  0.76292690640E+02 -0.34359652210E+03  0.39221199994E+03  0.17300000000E+03 0.  1.
<mgrwt>
<rscale>  2 0.18913403E+03</rscale>
<asrwt>0</asrwt>
<pdfrwt beam="1">  1       21 0.24576554E-01 0.18913403E+03</pdfrwt>
<pdfrwt beam="2">  1       21 0.66758919E-01 0.18913403E+03</pdfrwt>
<totfact> 0.32236626E+04</totfact>
</mgrwt>
</event>
<event>
 4    1  0.3980289E+000  0.2150613E+03  0.7546771E-02  0.1137619E+00
         21   -1    0    0  501  502  0.00000000000E+00  0.00000000000E+00  0.62903918783E+03  0.62903918783E+03  0.00000000000E+00 0. -1.
         21   -1    0    0  502  503 -0.00000000000E+00 -0.00000000000E+00 -0.76392632708E+02  0.76392632708E+02  0.00000000000E+00 0.  1.
          6    1    1    2  501    0  0.34228027512E+02  0.12308867026E+03  0.34463698534E+03  0.40623396002E+03  0.17300000000E+03 0.  1.
         -6    1    1    2    0  503 -0.34228027512E+02 -0.12308867026E+03  0.20800956979E+03  0.29919786051E+03  0.17300000000E+03 0.  1.
<mgrwt>
<rscale>  2 0.21506134E+03</rscale>
<asrwt>0</asrwt>
<pdfrwt beam="1">  1       21 0.96775256E-01 0.21506134E+03</pdfrwt>
<pdfrwt beam="2">  1       21 0.11752713E-01 0.21506134E+03</pdfrwt>
<totfact> 0.53429448E+04</totfact>
</mgrwt>
</event>
<event>
 4    1  0.3980289E+000  0.1864874E+03  0.7546771E-02  0.1161668E+00
         21   -1    0    0  503  502  0.00000000000E+00  0.00000000000E+00  0.34381488741E+03  0.34381488741E+03  0.00000000000E+00 0.  1.
         21   -1    0    0  501  503 -0.00000000000E+00 -0.00000000000E+00 -0.67001910190E+03  0.67001910190E+03  0.00000000000E+00 0.  1.
          6    1    1    2  501    0  0.16668894494E+02 -0.67606981493E+02 -0.63019007180E+03  0.65720398856E+03  0.17300000000E+03 0.  1.
         -6    1    1    2    0  502 -0.16668894494E+02  0.67606981493E+02  0.30398585731E+03  0.35663000075E+03  0.17300000000E+03 0.  1.
<mgrwt>
<rscale>  2 0.18648742E+03</rscale>
<asrwt>0</asrwt>
<pdfrwt beam="1">  1       21 0.52894598E-01 0.18648742E+03</pdfrwt>
<pdfrwt beam="2">  1       21 0.10307986E+00 0.18648742E+03</pdfrwt>
<totfact> 0.26006148E+03</totfact>
</mgrwt>
</event>
<event>
 4    1  0.3980289E+000  0.2363096E+03  0.7546771E-02  0.1122276E+00
         21   -1    0    0  503  502  0.00000000000E+00  0.00000000000E+00  0.20924231619E+03  0.20924231619E+03  0.00000000000E+00 0. -1.
         21   -1    0    0  501  503 -0.00000000000E+00 -0.00000000000E+00 -0.28183748877E+03  0.28183748877E+03  0.00000000000E+00 0.  1.
          6    1    1    2  501    0 -0.16032717171E+03 -0.14437437451E+02 -0.92866282347E+02  0.25390231977E+03  0.17300000000E+03 0.  1.
         -6    1    1    2    0  502  0.16032717171E+03  0.14437437451E+02  0.20271109768E+02  0.23717748519E+03  0.17300000000E+03 0. -1.
<mgrwt>
<rscale>  2 0.23630963E+03</rscale>
<asrwt>0</asrwt>
<pdfrwt beam="1">  1       21 0.32191126E-01 0.23630963E+03</pdfrwt>
<pdfrwt beam="2">  1       21 0.43359613E-01 0.23630963E+03</pdfrwt>
<totfact> 0.46510855E+04</totfact>
</mgrwt>
</event>
<event>
 4    1  0.3980289E+000  0.2042257E+03  0.7546771E-02  0.1146222E+00
         21   -1    0    0  503  502  0.00000000000E+00  0.00000000000E+00  0.11008936482E+03  0.11008936482E+03  0.00000000000E+00 0.  1.
         21   -1    0    0  501  503 -0.00000000000E+00 -0.00000000000E+00 -0.40102609754E+03  0.40102609754E+03  0.00000000000E+00 0.  1.
          6    1    1    2  501    0 -0.20335424782E+02 -0.10660959458E+03 -0.20555473271E+03  0.28976004434E+03  0.17300000000E+03 0.  1.
         -6    1    1    2    0  502  0.20335424782E+02  0.10660959458E+03 -0.85382000014E+02  0.22135541802E+03  0.17300000000E+03 0.  1.
<mgrwt>
<rscale>  2 0.20422570E+03</rscale>
<asrwt>0</asrwt>
<pdfrwt beam="1">  1       21 0.16936825E-01 0.20422570E+03</pdfrwt>
<pdfrwt beam="2">  1       21 0.61696324E-01 0.20422570E+03</pdfrwt>
<totfact> 0.76262627E+04</totfact>
</mgrwt>
</event>
<event>
 4    1  0.3980289E+000  0.2683963E+03  0.7546771E-02  0.1102201E+00
         21   -1    0    0  501  502  0.00000000000E+00  0.00000000000E+00  0.17360276889E+03  0.17360276889E+03  0.00000000000E+00 0. -1.
         21   -1    0    0  502  503 -0.00000000000E+00 -0.00000000000E+00 -0.42626160506E+03  0.42626160506E+03  0.00000000000E+00 0. -1.
          6    1    1    2  501    0  0.20476417066E+03 -0.13387394111E+02 -0.17518722043E+03  0.32051076442E+03  0.17300000000E+03 0. -1.
         -6    1    1    2    0  503 -0.20476417066E+03  0.13387394111E+02 -0.77471615738E+02  0.27935360952E+03  0.17300000000E+03 0. -1.
<mgrwt>
<rscale>  2 0.26839633E+03</rscale>
<asrwt>0</asrwt>
<pdfrwt beam="1">  1       21 0.26708118E-01 0.26839633E+03</pdfrwt>
<pdfrwt beam="2">  1       21 0.65578708E-01 0.26839633E+03</pdfrwt>
<totfact> 0.27482276E+04</totfact>
</mgrwt>
</event>
<event>
 4    1  0.3980289E+000  0.2643368E+03  0.7546771E-02  0.1104565E+00
         21   -1    0    0  501  502  0.00000000000E+00  0.00000000000E+00  0.13849502654E+04  0.13849502654E+04  0.00000000000E+00 0.  1.
         21   -1    0    0  502  503 -0.00000000000E+00 -0.00000000000E+00 -0.84729053942E+02  0.84729053942E+02  0.00000000000E+00 0.  1.
          6    1    1    2  501    0  0.16695468722E+02 -0.19916371397E+03  0.11174972136E+04  0.11483352934E+04  0.17300000000E+03 0.  1.
         -6    1    1    2    0  503 -0.16695468722E+02  0.19916371397E+03  0.18272399792E+03  0.32134402601E+03  0.17300000000E+03 0.  1.
<mgrwt>
<rscale>  2 0.26433676E+03</rscale>
<asrwt>0</asrwt>
<pdfrwt beam="1">  1       21 0.21306926E+00 0.26433676E+03</pdfrwt>
<pdfrwt beam="2">  1       21 0.13035240E-01 0.26433676E+03</pdfrwt>
<totfact> 0.52959213E+03</totfact>
</mgrwt>
</event>
<event>
 4    1  0.3980289E+000  0.2113477E+03  0.7546771E-02  0.1140503E+00
         21   -1    0    0  501  502  0.00000000000E+00  0.00000000000E+00  0.55217109760E+02  0.55217109760E+02  0.00000000000E+00 0.  1.
         21   -1    0    0  502  503 -0.00000000000E+00 -0.00000000000E+00 -0.82026717838E+03  0.82026717838E+03  0.00000000000E+00 0.  1.
          6    1    1    2  501    0 -0.94622137697E+00  0.12139997062E+03 -0.43394374120E+03  0.48267485819E+03  0.17300000000E+03 0.  1.
         -6    1    1    2    0  503  0.94622137697E+00 -0.12139997062E+03 -0.33110632742E+03  0.39280942995E+03  0.17300000000E+03 0.  1.
<mgrwt>
<rscale>  2 0.21134770E+03</rscale>
<asrwt>0</asrwt>
<pdfrwt beam="1">  1       21 0.84949405E-02 0.21134770E+03</pdfrwt>
<pdfrwt beam="2">  1       21 0.12619494E+00 0.21134770E+03</pdfrwt>
<totfact> 0.49842182E+04</totfact>
</mgrwt>
</event>
<event>
 4    1  0.3980289E+000  0.1963922E+03  0.7546771E-02  0.1152819E+00
         21   -1    0    0  501  502  0.00000000000E+00  0.00000000000E+00  0.53658665153E+03  0.53658665153E+03  0.00000000000E+00 0. -1.
         21   -1    0    0  502  503 -0.00000000000E+00 -0.00000000000E+00 -0.14219980237E+03  0.14219980237E+03  0.00000000000E+00 0.  1.
          6    1    1    2  501    0 -0.14805717553E+02  0.91769730799E+02  0.43586035131E+03  0.47806290235E+03  0.17300000000E+03 0. -1.
         -6    1    1    2    0  503  0.14805717553E+02 -0.91769730799E+02 -0.41473502150E+02  0.20072355154E+03  0.17300000000E+03 0.  1.
<mgrwt>
<rscale>  2 0.19639219E+03</rscale>
<asrwt>0</asrwt>
<pdfrwt beam="1">  1       21 0.82551791E-01 0.19639219E+03</pdfrwt>
<pdfrwt beam="2">  1       21 0.21876893E-01 0.19639219E+03</pdfrwt>
<totfact> 0.24933252E+04</totfact>
</mgrwt>
</event>
<event>
 4    1  0.3980289E+000  0.2070578E+03  0.7546771E-02  0.1143917E+00
         21   -1    0    0  503  502  0.00000000000E+00  0.00000000000E+00  0.36941755179E+03  0.36941755179E+03  0.00000000000E+00 0.  1.
         21   -1    0    0  501  503 -0.00000000000E+00 -0.00000000000E+00 -0.19785818664E+03  0.19785818664E+03  0.00000000000E+00 0.  1.
          6    1    1    2  501    0  0.40163505375E+02 -0.10644644554E+03 -0.96597659955E+02  0.22848207991E+03  0.17300000000E+03 0.  1.
         -6    1    1    2    0  502 -0.40163505375E+02  0.10644644554E+03  0.26815702511E+03  0.33879365852E+03  0.17300000000E+03 0.  1.
<mgrwt>
<rscale>  2 0.20705785E+03</rscale>
<asrwt>0</asrwt>
<pdfrwt beam="1">  1       21 0.56833469E-01 0.20705785E+03</pdfrwt>
<pdfrwt beam="2">  1       21 0.30439721E-01 0.20705785E+03</pdfrwt>
<totfact> 0.29899958E+04</totfact>
</mgrwt>
</event>
<event>
 4    1  0.3980289E+000  0.1773246E+03  0.7546771E-02  0.1170418E+00
         21   -1    0    0  501  502  0.00000000000E+00  0.00000000000E+00  0.57754508564E+03  0.57754508564E+03  0.00000000000E+00 0.  1.
         21   -1    0    0  502  503 -0.00000000000E+00 -0.00000000000E+00 -0.10779822909E+03  0.10779822909E+03  0.00000000000E+00 0.  1.
          6    1    1    2  501    0 -0.33523291044E+02 -0.19779242223E+02  0.47595034869E+03  0.50791019274E+03  0.17300000000E+03 0.  1.
         -6    1    1    2    0  503  0.33523291044E+02  0.19779242223E+02 -0.62034921406E+01  0.17743312199E+03  0.17300000000E+03 0.  1.
<mgrwt>
<rscale>  2 0.17732464E+03</rscale>
<asrwt>0</asrwt>
<pdfrwt beam="1">  1       21 0.88853088E-01 0.17732464E+03</pdfrwt>
<pdfrwt beam="2">  1       21 0.16584343E-01 0.17732464E+03</pdfrwt>
<totfact> 0.35624942E+04</totfact>
</mgrwt>
</event>
<event>
 4    1  0.3980289E+000  0.1886639E+03  0.7546771E-02  0.1159672E+00
         21   -1    0    0  503  502  0.00000000000E+00  0.00000000000E+00  0.76641540281E+02  0.76641540281E+02  0.00000000000E+00 0.  1.
         21   -1    0    0  501  503 -0.00000000000E+00 -0.00000000000E+00 -0.47646800185E+03  0.47646800185E+03  0.00000000000E+00 0.  1.
          6    1    1    2  501    0 -0.48881531487E+01 -0.75107679105E+02 -0.24388524103E+03  0.30834083138E+03  0.17300000000E+03 0.  1.
         -6    1    1    2    0  502  0.48881531487E+01  0.75107679105E+02 -0.15594122054E+03  0.24476871076E+03  0.17300000000E+03 0.  1.
<mgrwt>
<rscale>  2 0.18866387E+03</rscale>
<asrwt>0</asrwt>
<pdfrwt beam="1">  1       21 0.11791006E-01 0.18866387E+03</pdfrwt>
<pdfrwt beam="2">  1       21 0.73302769E-01 0.18866387E+03</pdfrwt>
<totfact> 0.10147213E+05</totfact>
</mgrwt>
</event>
<event>
 4    1  0.3980289E+000  0.1966783E+03  0.7546771E-02  0.1152572E+00
         21   -1    0    0  503  502  0.00000000000E+00  0.00000000000E+00  0.22034733509E+04  0.22034733509E+04  0.00000000000E+00 0. -1.
         21   -1    0    0  501  503 -0.00000000000E+00 -0.00000000000E+00 -0.18608562850E+02  0.18608562850E+02  0.00000000000E+00 0. -1.
          6    1    1    2  501    0 -0.93483763240E+02 -0.37606968749E+01  0.82808920354E+03  0.85112518812E+03  0.17300000000E+03 0. -1.
         -6    1    1    2    0  502  0.93483763240E+02  0.37606968749E+01  0.13567755845E+04  0.13709567256E+04  0.17300000000E+03 0. -1.
<mgrwt>
<rscale>  2 0.19667831E+03</rscale>
<asrwt>0</asrwt>
<pdfrwt beam="1">  1       21 0.33899569E+00 0.19667831E+03</pdfrwt>
<pdfrwt beam="2">  1       21 0.28628576E-02 0.19667831E+03</pdfrwt>
<totfact> 0.13811173E+04</totfact>
</mgrwt>
</event>
<event>
 4    1  0.3980289E+000  0.1772167E+03  0.7546771E-02  0.1170524E+00
         21   -1    0    0  503  502  0.00000000000E+00  0.00000000000E+00  0.90833799092E+03  0.90833799092E+03  0.00000000000E+00 0.  1.
         21   -1    0    0  501  503 -0.00000000000E+00 -0.00000000000E+00 -0.52496656484E+02  0.52496656484E+02  0.00000000000E+00 0.  1.
          6    1    1    2  501    0 -0.60028586219E+01 -0.37956956307E+02  0.14722080818E+03  0.23039038870E+03  0.17300000000E+03 0.  1.
         -6    1    1    2    0  502  0.60028586219E+01  0.37956956307E+02  0.70862052626E+03  0.73044425871E+03  0.17300000000E+03 0.  1.
<mgrwt>
<rscale>  2 0.17721672E+03</rscale>
<asrwt>0</asrwt>
<pdfrwt beam="1">  1       21 0.13974430E+00 0.17721672E+03</pdfrwt>
<pdfrwt beam="2">  1       21 0.80764093E-02 0.17721672E+03</pdfrwt>
<totfact> 0.42809615E+04</totfact>
</mgrwt>
</event>
<event>
 4    1  0.3980289E+000  0.3201657E+03  0.7546771E-02  0.1075573E+00
         21   -1    0    0  503  502  0.00000000000E+00  0.00000000000E+00  0.11777342303E+04  0.11777342303E+04  0.00000000000E+00 0.  1.
         21   -1    0    0  501  503 -0.00000000000E+00 -0.00000000000E+00 -0.12089064806E+03  0.12089064806E+03  0.00000000000E+00 0. -1.
          6    1    1    2  501    0 -0.19850734102E+03  0.18213150640E+03  0.18481454914E+03  0.36967887097E+03  0.17300000000E+03 0. -1.
         -6    1    1    2    0  502  0.19850734102E+03 -0.18213150640E+03  0.87202903306E+03  0.92894600735E+03  0.17300000000E+03 0.  1.
<mgrwt>
<rscale>  2 0.32016566E+03</rscale>
<asrwt>0</asrwt>
<pdfrwt beam="1">  1       21 0.18118987E+00 0.32016566E+03</pdfrwt>
<pdfrwt beam="2">  1       21 0.18598562E-01 0.32016566E+03</pdfrwt>
<totfact> 0.43129504E+03</totfact>
</mgrwt>
</event>
<event>
 4    1  0.3980289E+000  0.2762716E+03  0.7546771E-02  0.1097743E+00
         21   -1    0    0  503  502  0.00000000000E+00  0.00000000000E+00  0.10707056350E+04  0.10707056350E+04  0.00000000000E+00 0.  1.
         21   -1    0    0  501  503 -0.00000000000E+00 -0.00000000000E+00 -0.84645247750E+02  0.84645247750E+02  0.00000000000E+00 0. -1.
          6    1    1    2  501    0 -0.19230837150E+03  0.97028184217E+02  0.26353223175E+03  0.38180520616E+03  0.17300000000E+03 0.  1.
         -6    1    1    2    0  502  0.19230837150E+03 -0.97028184217E+02  0.72252815555E+03  0.77354567663E+03  0.17300000000E+03 0.  1.
<mgrwt>
<rscale>  2 0.27627157E+03</rscale>
<asrwt>0</asrwt>
<pdfrwt beam="1">  1       21 0.16472393E+00 0.27627157E+03</pdfrwt>
<pdfrwt beam="2">  1       21 0.13022347E-01 0.27627157E+03</pdfrwt>
<totfact> 0.11159382E+04</totfact>
</mgrwt>
</event>
<event>
 4    1  0.3980289E+000  0.2356187E+03  0.7546771E-02  0.1122746E+00
         21   -1    0    0  501  502  0.00000000000E+00  0.00000000000E+00  0.14405642070E+03  0.14405642070E+03  0.00000000000E+00 0.  1.
         21   -1    0    0  502  503 -0.00000000000E+00 -0.00000000000E+00 -0.38784698659E+03  0.38784698659E+03  0.00000000000E+00 0. -1.
          6    1    1    2  501    0 -0.12117154702E+03 -0.10442523272E+03 -0.10067587258E+03  0.25622608055E+03  0.17300000000E+03 0. -1.
         -6    1    1    2    0  503  0.12117154702E+03  0.10442523272E+03 -0.14311469331E+03  0.27567732673E+03  0.17300000000E+03 0. -1.
<mgrwt>
<rscale>  2 0.23561870E+03</rscale>
<asrwt>0</asrwt>
<pdfrwt beam="1">  1       21 0.22162526E-01 0.23561870E+03</pdfrwt>
<pdfrwt beam="2">  1       21 0.59668767E-01 0.23561870E+03</pdfrwt>
<totfact> 0.48933509E+04</totfact>
</mgrwt>
</event>
<event>
 4    1  0.3980289E+000  0.2057566E+03  0.7546771E-02  0.1144971E+00
         21   -1    0    0  503  502  0.00000000000E+00  0.00000000000E+00  0.10399035945E+03  0.10399035945E+03  0.00000000000E+00 0. -1.
         21   -1    0    0  501  503 -0.00000000000E+00 -0.00000000000E+00 -0.53067042194E+03  0.53067042194E+03  0.00000000000E+00 0. -1.
          6    1    1    2  501    0  0.11120459241E+03 -0.63493682428E+01 -0.36646094511E+03  0.42027300668E+03  0.17300000000E+03 0. -1.
         -6    1    1    2    0  502 -0.11120459241E+03  0.63493682428E+01 -0.60219117373E+02  0.21438777471E+03  0.17300000000E+03 0. -1.
<mgrwt>
<rscale>  2 0.20575659E+03</rscale>
<asrwt>0</asrwt>
<pdfrwt beam="1">  1       21 0.15998517E-01 0.20575659E+03</pdfrwt>
<pdfrwt beam="2">  1       21 0.81641602E-01 0.20575659E+03</pdfrwt>
<totfact> 0.45502631E+04</totfact>
</mgrwt>
</event>
<event>
 4    1  0.3980289E+000  0.2292387E+03  0.7546771E-02  0.1127177E+00
         21   -1    0    0  501  502  0.00000000000E+00  0.00000000000E+00  0.96157518011E+02  0.96157518011E+02  0.00000000000E+00 0.  1.
         21   -1    0    0  502  503 -0.00000000000E+00 -0.00000000000E+00 -0.82916169865E+03  0.82916169865E+03  0.00000000000E+00 0. -1.
          6    1    1    2  501    0  0.10483357203E+03  0.10784855299E+03 -0.96371966166E+02  0.24867236290E+03  0.17300000000E+03 0.  1.
         -6    1    1    2    0  503 -0.10483357203E+03 -0.10784855299E+03 -0.63663221447E+03  0.67664685376E+03  0.17300000000E+03 0. -1.
<mgrwt>
<rscale>  2 0.22923871E+03</rscale>
<asrwt>0</asrwt>
<pdfrwt beam="1">  1       21 0.14793465E-01 0.22923871E+03</pdfrwt>
<pdfrwt beam="2">  1       21 0.12756333E+00 0.22923871E+03</pdfrwt>
<totfact> 0.17824553E+04</totfact>
</mgrwt>
</event>
<event>
 4    1  0.3980289E+000  0.1771394E+03  0.7546771E-02  0.1170601E+00
         21   -1    0    0  503  502  0.00000000000E+00  0.00000000000E+00  0.54837084291E+03  0.54837084291E+03  0.00000000000E+00 0.  1.
         21   -1    0    0  501  503 -0.00000000000E+00 -0.00000000000E+00 -0.66055248538E+02  0.66055248538E+02  0.00000000000E+00 0.  1.
          6    1    1    2  501    0 -0.13843987334E+02 -0.35464017582E+02  0.12880867183E+03  0.21902060740E+03  0.17300000000E+03 0.  1.
         -6    1    1    2    0  502  0.13843987334E+02  0.35464017582E+02  0.35350692254E+03  0.39540548404E+03  0.17300000000E+03 0.  1.
<mgrwt>
<rscale>  2 0.17713936E+03</rscale>
<asrwt>0</asrwt>
<pdfrwt beam="1">  1       21 0.84364742E-01 0.17713936E+03</pdfrwt>
<pdfrwt beam="2">  1       21 0.10162346E-01 0.17713936E+03</pdfrwt>
<totfact> 0.96742315E+04</totfact>
</mgrwt>
</event>
<event>
 4    1  0.3980289E+000  0.3466060E+03  0.7546771E-02  0.1064017E+00
         21   -1    0    0  501  502  0.00000000000E+00  0.00000000000E+00  0.38035386902E+03  0.38035386902E+03  0.00000000000E+00 0. -1.
         21   -1    0    0  502  503 -0.00000000000E+00 -0.00000000000E+00 -0.15794936888E+04  0.15794936888E+04  0.00000000000E+00 0. -1.
          6    1    1    2  501    0 -0.71606047777E+02 -0.29168352143E+03  0.27691661504E+03  0.44364232715E+03  0.17300000000E+03 0. -1.
         -6    1    1    2    0  503  0.71606047777E+02  0.29168352143E+03 -0.14760564349E+04  0.15162052307E+04  0.17300000000E+03 0. -1.
<mgrwt>
<rscale>  2 0.34660598E+03</rscale>
<asrwt>0</asrwt>
<pdfrwt beam="1">  1       21 0.58515980E-01 0.34660598E+03</pdfrwt>
<pdfrwt beam="2">  1       21 0.24299903E+00 0.34660598E+03</pdfrwt>
<totfact> 0.17015559E+02</totfact>
</mgrwt>
</event>
<event>
 4    1  0.3980289E+000  0.1785959E+03  0.7546771E-02  0.1169169E+00
         21   -1    0    0  501  502  0.00000000000E+00  0.00000000000E+00  0.40820691853E+03  0.40820691853E+03  0.00000000000E+00 0.  1.
         21   -1    0    0  502  503 -0.00000000000E+00 -0.00000000000E+00 -0.82063634259E+02  0.82063634259E+02  0.00000000000E+00 0.  1.
          6    1    1    2  501    0 -0.43443091514E+02  0.89550281083E+01  0.21668614766E+03  0.28080132000E+03  0.17300000000E+03 0. -1.
         -6    1    1    2    0  503  0.43443091514E+02 -0.89550281083E+01  0.10945713661E+03  0.20946923279E+03  0.17300000000E+03 0. -1.
<mgrwt>
<rscale>  2 0.17859590E+03</rscale>
<asrwt>0</asrwt>
<pdfrwt beam="1">  1       21 0.62801063E-01 0.17859590E+03</pdfrwt>
<pdfrwt beam="2">  1       21 0.12625175E-01 0.17859590E+03</pdfrwt>
<totfact> 0.12645201E+05</totfact>
</mgrwt>
</event>
<event>
 4    1  0.3980289E+000  0.1852642E+03  0.7546771E-02  0.1162803E+00
         21   -1    0    0  503  502  0.00000000000E+00  0.00000000000E+00  0.58633438496E+03  0.58633438496E+03  0.00000000000E+00 0.  1.
         21   -1    0    0  501  503 -0.00000000000E+00 -0.00000000000E+00 -0.58680668133E+02  0.58680668133E+02  0.00000000000E+00 0. -1.
          6    1    1    2  501    0 -0.62122707131E+02 -0.23121392035E+02  0.24792350083E+03  0.30949780577E+03  0.17300000000E+03 0. -1.
         -6    1    1    2    0  502  0.62122707131E+02  0.23121392035E+02  0.27973021600E+03  0.33551724732E+03  0.17300000000E+03 0.  1.
<mgrwt>
<rscale>  2 0.18526422E+03</rscale>
<asrwt>0</asrwt>
<pdfrwt beam="1">  1       21 0.90205286E-01 0.18526422E+03</pdfrwt>
<pdfrwt beam="2">  1       21 0.90277955E-02 0.18526422E+03</pdfrwt>
<totfact> 0.10183196E+05</totfact>
</mgrwt>
</event>
<event>
 4    1  0.3980289E+000  0.1923738E+03  0.7546771E-02  0.1156338E+00
         21   -1    0    0  501  502  0.00000000000E+00  0.00000000000E+00  0.79894247833E+02  0.79894247833E+02  0.00000000000E+00 0. -1.
         21   -1    0    0  502  503 -0.00000000000E+00 -0.00000000000E+00 -0.58811967619E+03  0.58811967619E+03  0.00000000000E+00 0. -1.
          6    1    1    2  501    0  0.55055266628E+02 -0.63620619250E+02 -0.10018247397E+03  0.21689673503E+03  0.17300000000E+03 0. -1.
         -6    1    1    2    0  503 -0.55055266628E+02  0.63620619250E+02 -0.40804295439E+03  0.45111718900E+03  0.17300000000E+03 0. -1.
<mgrwt>
<rscale>  2 0.19237377E+03</rscale>
<asrwt>0</asrwt>
<pdfrwt beam="1">  1       21 0.12291423E-01 0.19237377E+03</pdfrwt>
<pdfrwt beam="2">  1       21 0.90479948E-01 0.19237377E+03</pdfrwt>
<totfact> 0.58345427E+04</totfact>
</mgrwt>
</event>
<event>
 4    1  0.3980289E+000  0.1909528E+03  0.7546771E-02  0.1157605E+00
         21   -1    0    0  503  502  0.00000000000E+00  0.00000000000E+00  0.12632593500E+03  0.12632593500E+03  0.00000000000E+00 0.  1.
         21   -1    0    0  501  503 -0.00000000000E+00 -0.00000000000E+00 -0.35502500117E+03  0.35502500117E+03  0.00000000000E+00 0. -1.
          6    1    1    2  501    0 -0.48493570008E+02  0.64671191204E+02 -0.21842067305E+03  0.29012166365E+03  0.17300000000E+03 0. -1.
         -6    1    1    2    0  502  0.48493570008E+02 -0.64671191204E+02 -0.10278393124E+02  0.19122927252E+03  0.17300000000E+03 0.  1.
<mgrwt>
<rscale>  2 0.19095285E+03</rscale>
<asrwt>0</asrwt>
<pdfrwt beam="1">  1       21 0.19434760E-01 0.19095285E+03</pdfrwt>
<pdfrwt beam="2">  1       21 0.54619230E-01 0.19095285E+03</pdfrwt>
<totfact> 0.77136682E+04</totfact>
</mgrwt>
</event>
<event>
 4    1  0.3980289E+000  0.1856011E+03  0.7546771E-02  0.1162490E+00
         21   -1    0    0  501  502  0.00000000000E+00  0.00000000000E+00  0.10797559474E+04  0.10797559474E+04  0.00000000000E+00 0.  1.
         21   -1    0    0  502  503 -0.00000000000E+00 -0.00000000000E+00 -0.41397590996E+02  0.41397590996E+02  0.00000000000E+00 0.  1.
          6    1    1    2  501    0  0.55499173544E+02 -0.37928847917E+02  0.78763900146E+03  0.80921131504E+03  0.17300000000E+03 0.  1.
         -6    1    1    2    0  503 -0.55499173544E+02  0.37928847917E+02  0.25071935494E+03  0.31194222335E+03  0.17300000000E+03 0.  1.
<mgrwt>
<rscale>  2 0.18560107E+03</rscale>
<asrwt>0</asrwt>
<pdfrwt beam="1">  1       21 0.16611628E+00 0.18560107E+03</pdfrwt>
<pdfrwt beam="2">  1       21 0.63688610E-02 0.18560107E+03</pdfrwt>
<totfact> 0.40640637E+04</totfact>
</mgrwt>
</event>
<event>
 4    1  0.3980289E+000  0.2296978E+03  0.7546771E-02  0.1126853E+00
         21   -1    0    0  501  502  0.00000000000E+00  0.00000000000E+00  0.17183581109E+03  0.17183581109E+03  0.00000000000E+00 0.  1.
         21   -1    0    0  502  503 -0.00000000000E+00 -0.00000000000E+00 -0.43623998411E+03  0.43623998411E+03  0.00000000000E+00 0. -1.
          6    1    1    2  501    0  0.12460868434E+03 -0.85467889303E+02  0.33256832558E+02  0.23209287198E+03  0.17300000000E+03 0.  1.
         -6    1    1    2    0  503 -0.12460868434E+03  0.85467889303E+02 -0.29766100557E+03  0.37598292322E+03  0.17300000000E+03 0. -1.
<mgrwt>
<rscale>  2 0.22969781E+03</rscale>
<asrwt>0</asrwt>
<pdfrwt beam="1">  1       21 0.26436279E-01 0.22969781E+03</pdfrwt>
<pdfrwt beam="2">  1       21 0.67113843E-01 0.22969781E+03</pdfrwt>
<totfact> 0.27115552E+04</totfact>
</mgrwt>
</event>
<event>
 4    1  0.3980289E+000  0.2490464E+03  0.7546771E-02  0.1113909E+00
         21   -1    0    0  501  502  0.00000000000E+00  0.00000000000E+00  0.37777391122E+03  0.37777391122E+03  0.00000000000E+00 0. -1.
         21   -1    0    0  502  503 -0.00000000000E+00 -0.00000000000E+00 -0.16860072009E+03  0.16860072009E+03  0.00000000000E+00 0. -1.
          6    1    1    2  501    0 -0.13893187133E+03 -0.11310634609E+03  0.14880698736E+03  0.29011657981E+03  0.17300000000E+03 0. -1.
         -6    1    1    2    0  503  0.13893187133E+03  0.11310634609E+03  0.60366203772E+02  0.25625805149E+03  0.17300000000E+03 0. -1.
<mgrwt>
<rscale>  2 0.24904640E+03</rscale>
<asrwt>0</asrwt>
<pdfrwt beam="1">  1       21 0.58119063E-01 0.24904640E+03</pdfrwt>
<pdfrwt beam="2">  1       21 0.25938572E-01 0.24904640E+03</pdfrwt>
<totfact> 0.38119770E+04</totfact>
</mgrwt>
</event>
<event>
 4    1  0.3980289E+000  0.1863883E+03  0.7546771E-02  0.1161760E+00
         21   -1    0    0  503  502  0.00000000000E+00  0.00000000000E+00  0.53005011249E+02  0.53005011249E+02  0.00000000000E+00 0.  1.
         21   -1    0    0  501  503 -0.00000000000E+00 -0.00000000000E+00 -0.74759226562E+03  0.74759226562E+03  0.00000000000E+00 0.  1.
          6    1    1    2  501    0  0.33724280640E+02  0.60615641310E+02 -0.48784986647E+03  0.52224331043E+03  0.17300000000E+03 0. -1.
         -6    1    1    2    0  502 -0.33724280640E+02 -0.60615641310E+02 -0.20673738791E+03  0.27835396644E+03  0.17300000000E+03 0. -1.
<mgrwt>
<rscale>  2 0.18638826E+03</rscale>
<asrwt>0</asrwt>
<pdfrwt beam="1">  1       21 0.81546177E-02 0.18638826E+03</pdfrwt>
<pdfrwt beam="2">  1       21 0.11501419E+00 0.18638826E+03</pdfrwt>
<totfact> 0.68226461E+04</totfact>
</mgrwt>
</event>
<event>
 4    1  0.3980289E+000  0.2383713E+03  0.7546771E-02  0.1120883E+00
         21   -1    0    0  501  502  0.00000000000E+00  0.00000000000E+00  0.49601163965E+03  0.49601163965E+03  0.00000000000E+00 0. -1.
         21   -1    0    0  502  503 -0.00000000000E+00 -0.00000000000E+00 -0.14231621000E+03  0.14231621000E+03  0.00000000000E+00 0.  1.
          6    1    1    2  501    0  0.15136998300E+03 -0.63079459151E+02  0.31780951811E+03  0.39727041134E+03  0.17300000000E+03 0. -1.
         -6    1    1    2    0  503 -0.15136998300E+03  0.63079459151E+02  0.35885911543E+02  0.24105743832E+03  0.17300000000E+03 0.  1.
<mgrwt>
<rscale>  2 0.23837133E+03</rscale>
<asrwt>0</asrwt>
<pdfrwt beam="1">  1       21 0.76309482E-01 0.23837133E+03</pdfrwt>
<pdfrwt beam="2">  1       21 0.21894802E-01 0.23837133E+03</pdfrwt>
<totfact> 0.29087388E+04</totfact>
</mgrwt>
</event>
<event>
 4    1  0.3980289E+000  0.2327767E+03  0.7546771E-02  0.1124700E+00
         21   -1    0    0  503  502  0.00000000000E+00  0.00000000000E+00  0.54441169107E+02  0.54441169107E+02  0.00000000000E+00 0.  1.
         21   -1    0    0  501  503 -0.00000000000E+00 -0.00000000000E+00 -0.13017312822E+04  0.13017312822E+04  0.00000000000E+00 0.  1.
          6    1    1    2  501    0  0.53222190262E+01  0.15565244464E+03 -0.95264401601E+03  0.98067101047E+03  0.17300000000E+03 0.  1.
         -6    1    1    2    0  502 -0.53222190262E+01 -0.15565244464E+03 -0.29464609704E+03  0.37550144080E+03  0.17300000000E+03 0.  1.
<mgrwt>
<rscale>  2 0.23277674E+03</rscale>
<asrwt>0</asrwt>
<pdfrwt beam="1">  1       21 0.83755653E-02 0.23277674E+03</pdfrwt>
<pdfrwt beam="2">  1       21 0.20026633E+00 0.23277674E+03</pdfrwt>
<totfact> 0.14375730E+04</totfact>
</mgrwt>
</event>
<event>
 4    1  0.3980289E+000  0.2785746E+03  0.7546771E-02  0.1096470E+00
         21   -1    0    0  501  502  0.00000000000E+00  0.00000000000E+00  0.55160821993E+03  0.55160821993E+03  0.00000000000E+00 0.  1.
         21   -1    0    0  502  503 -0.00000000000E+00 -0.00000000000E+00 -0.19998684392E+03  0.19998684392E+03  0.00000000000E+00 0.  1.
          6    1    1    2  501    0 -0.16156726435E+03  0.14687010564E+03  0.38044664913E+03  0.47153309711E+03  0.17300000000E+03 0.  1.
         -6    1    1    2    0  503  0.16156726435E+03 -0.14687010564E+03 -0.28825273122E+02  0.28006196674E+03  0.17300000000E+03 0.  1.
<mgrwt>
<rscale>  2 0.27857460E+03</rscale>
<asrwt>0</asrwt>
<pdfrwt beam="1">  1       21 0.84862803E-01 0.27857460E+03</pdfrwt>
<pdfrwt beam="2">  1       21 0.30767207E-01 0.27857460E+03</pdfrwt>
<totfact> 0.11608355E+04</totfact>
</mgrwt>
</event>
<event>
 4    1  0.3980289E+000  0.2324496E+03  0.7546771E-02  0.1124927E+00
         21   -1    0    0  501  502  0.00000000000E+00  0.00000000000E+00  0.43245168793E+03  0.43245168793E+03  0.00000000000E+00 0. -1.
         21   -1    0    0  502  503 -0.00000000000E+00 -0.00000000000E+00 -0.15825442939E+03  0.15825442939E+03  0.00000000000E+00 0. -1.
          6    1    1    2  501    0 -0.12193524093E+03  0.96102048575E+02  0.27260046027E+03  0.35825105396E+03  0.17300000000E+03 0. -1.
         -6    1    1    2    0  503  0.12193524093E+03 -0.96102048575E+02  0.15967982757E+01  0.23245506337E+03  0.17300000000E+03 0. -1.
<mgrwt>
<rscale>  2 0.23244958E+03</rscale>
<asrwt>0</asrwt>
<pdfrwt beam="1">  1       21 0.66531028E-01 0.23244958E+03</pdfrwt>
<pdfrwt beam="2">  1       21 0.24346836E-01 0.23244958E+03</pdfrwt>
<totfact> 0.32331694E+04</totfact>
</mgrwt>
</event>
<event>
 4    1  0.3980289E+000  0.1776453E+03  0.7546771E-02  0.1170102E+00
         21   -1    0    0  501  502  0.00000000000E+00  0.00000000000E+00  0.40513500832E+02  0.40513500832E+02  0.00000000000E+00 0.  1.
         21   -1    0    0  502  503 -0.00000000000E+00 -0.00000000000E+00 -0.12428231161E+04  0.12428231161E+04  0.00000000000E+00 0.  1.
          6    1    1    2  501    0  0.12864037006E+02  0.38254134701E+02 -0.20913589130E+03  0.27440058910E+03  0.17300000000E+03 0.  1.
         -6    1    1    2    0  503 -0.12864037006E+02 -0.38254134701E+02 -0.99317372400E+03  0.10089360279E+04  0.17300000000E+03 0.  1.
<mgrwt>
<rscale>  2 0.17764533E+03</rscale>
<asrwt>0</asrwt>
<pdfrwt beam="1">  1       21 0.62328457E-02 0.17764533E+03</pdfrwt>
<pdfrwt beam="2">  1       21 0.19120357E+00 0.17764533E+03</pdfrwt>
<totfact> 0.28595238E+04</totfact>
</mgrwt>
</event>
<event>
 4    1  0.3980289E+000  0.1909258E+03  0.7546771E-02  0.1157629E+00
         21   -1    0    0  501  502  0.00000000000E+00  0.00000000000E+00  0.75795010767E+02  0.75795010767E+02  0.00000000000E+00 0.  1.
         21   -1    0    0  502  503 -0.00000000000E+00 -0.00000000000E+00 -0.50026940704E+03  0.50026940704E+03  0.00000000000E+00 0. -1.
          6    1    1    2  501    0  0.66911112568E+02  0.45239121212E+02 -0.15561657549E+03  0.24631117239E+03  0.17300000000E+03 0.  1.
         -6    1    1    2    0  503 -0.66911112568E+02 -0.45239121212E+02 -0.26885782078E+03  0.32975324542E+03  0.17300000000E+03 0. -1.
<mgrwt>
<rscale>  2 0.19092584E+03</rscale>
<asrwt>0</asrwt>
<pdfrwt beam="1">  1       21 0.11660770E-01 0.19092584E+03</pdfrwt>
<pdfrwt beam="2">  1       21 0.76964527E-01 0.19092584E+03</pdfrwt>
<totfact> 0.92751637E+04</totfact>
</mgrwt>
</event>
<event>
 4    1  0.3980289E+000  0.1971796E+03  0.7546771E-02  0.1152141E+00
         21   -1    0    0  503  502  0.00000000000E+00  0.00000000000E+00  0.97268040895E+02  0.97268040895E+02  0.00000000000E+00 0.  1.
         21   -1    0    0  501  503 -0.00000000000E+00 -0.00000000000E+00 -0.10049077547E+04  0.10049077547E+04  0.00000000000E+00 0. -1.
          6    1    1    2  501    0 -0.66895351697E+02 -0.66901492392E+02 -0.88148466866E+03  0.90326907334E+03  0.17300000000E+03 0. -1.
         -6    1    1    2    0  502  0.66895351697E+02  0.66901492392E+02 -0.26155045116E+02  0.19890672223E+03  0.17300000000E+03 0.  1.
<mgrwt>
<rscale>  2 0.19717961E+03</rscale>
<asrwt>0</asrwt>
<pdfrwt beam="1">  1       21 0.14964314E-01 0.19717961E+03</pdfrwt>
<pdfrwt beam="2">  1       21 0.15460119E+00 0.19717961E+03</pdfrwt>
<totfact> 0.10835355E+04</totfact>
</mgrwt>
</event>
<event>
 4    1  0.3980289E+000  0.1972697E+03  0.7546771E-02  0.1152063E+00
         21   -1    0    0  503  502  0.00000000000E+00  0.00000000000E+00  0.11484960901E+04  0.11484960901E+04  0.00000000000E+00 0. -1.
         21   -1    0    0  501  503 -0.00000000000E+00 -0.00000000000E+00 -0.39105354769E+02  0.39105354769E+02  0.00000000000E+00 0.  1.
          6    1    1    2  501    0 -0.91140571029E+02  0.26071766934E+02  0.33771267225E+03  0.39110764466E+03  0.17300000000E+03 0.  1.
         -6    1    1    2    0  502  0.91140571029E+02 -0.26071766934E+02  0.77167806304E+03  0.79649380016E+03  0.17300000000E+03 0. -1.
<mgrwt>
<rscale>  2 0.19726972E+03</rscale>
<asrwt>0</asrwt>
<pdfrwt beam="1">  1       21 0.17669168E+00 0.19726972E+03</pdfrwt>
<pdfrwt beam="2">  1       21 0.60162093E-02 0.19726972E+03</pdfrwt>
<totfact> 0.37512889E+04</totfact>
</mgrwt>
</event>
<event>
 4    1  0.3980289E+000  0.1759579E+03  0.7546771E-02  0.1171773E+00
         21   -1    0    0  501  502  0.00000000000E+00  0.00000000000E+00  0.12560422976E+04  0.12560422976E+04  0.00000000000E+00 0.  1.
         21   -1    0    0  502  503 -0.00000000000E+00 -0.00000000000E+00 -0.27034919919E+02  0.27034919919E+02  0.00000000000E+00 0.  1.
          6    1    1    2  501    0 -0.32105402377E+02  0.11935024687E+01  0.80505682338E+03  0.82406169076E+03  0.17300000000E+03 0. -1.
         -6    1    1    2    0  503  0.32105402377E+02 -0.11935024687E+01  0.42395055427E+03  0.45901552673E+03  0.17300000000E+03 0. -1.
<mgrwt>
<rscale>  2 0.17595790E+03</rscale>
<asrwt>0</asrwt>
<pdfrwt beam="1">  1       21 0.19323723E+00 0.17595790E+03</pdfrwt>
<pdfrwt beam="2">  1       21 0.41592194E-02 0.17595790E+03</pdfrwt>
<totfact> 0.55093345E+04</totfact>
</mgrwt>
</event>
<event>
 4    1  0.3980289E+000  0.1750202E+03  0.7546771E-02  0.1172711E+00
         21   -1    0    0  501  502  0.00000000000E+00  0.00000000000E+00  0.29255311513E+03  0.29255311513E+03  0.00000000000E+00 0. -1.
         21   -1    0    0  502  503 -0.00000000000E+00 -0.00000000000E+00 -0.10905464165E+03  0.10905464165E+03  0.00000000000E+00 0. -1.
          6    1    1    2  501    0  0.10640375937E+01 -0.26494268024E+02  0.13184742879E+03  0.21912513067E+03  0.17300000000E+03 0. -1.
         -6    1    1    2    0  503 -0.10640375937E+01  0.26494268024E+02  0.51651044696E+02  0.18248262611E+03  0.17300000000E+03 0. -1.
<mgrwt>
<rscale>  2 0.17502022E+03</rscale>
<asrwt>0</asrwt>
<pdfrwt beam="1">  1       21 0.45008171E-01 0.17502022E+03</pdfrwt>
<pdfrwt beam="2">  1       21 0.16777637E-01 0.17502022E+03</pdfrwt>
<totfact> 0.15226752E+05</totfact>
</mgrwt>
</event>
<event>
 4    1  0.3980289E+000  0.2159175E+03  0.7546771E-02  0.1136964E+00
         21   -1    0    0  503  502  0.00000000000E+00  0.00000000000E+00  0.53868406109E+03  0.53868406109E+03  0.00000000000E+00 0. -1.
         21   -1    0    0  501  503 -0.00000000000E+00 -0.00000000000E+00 -0.19014981053E+03  0.19014981053E+03  0.00000000000E+00 0. -1.
          6    1    1    2  501    0  0.12905892018E+03 -0.59300776822E+01 -0.94725717650E+02  0.23578238332E+03  0.17300000000E+03 0. -1.
         -6    1    1    2    0  502 -0.12905892018E+03  0.59300776822E+01  0.44325996821E+03  0.49305148830E+03  0.17300000000E+03 0. -1.
<mgrwt>
<rscale>  2 0.21591751E+03</rscale>
<asrwt>0</asrwt>
<pdfrwt beam="1">  1       21 0.82874470E-01 0.21591751E+03</pdfrwt>
<pdfrwt beam="2">  1       21 0.29253817E-01 0.21591751E+03</pdfrwt>
<totfact> 0.13998579E+04</totfact>
</mgrwt>
</event>
<event>
 4    1  0.3980289E+000  0.1889181E+03  0.7546771E-02  0.1159441E+00
         21   -1    0    0  503  502  0.00000000000E+00  0.00000000000E+00  0.18270902094E+03  0.18270902094E+03  0.00000000000E+00 0. -1.
         21   -1    0    0  501  503 -0.00000000000E+00 -0.00000000000E+00 -0.23744046419E+03  0.23744046419E+03  0.00000000000E+00 0.  1.
          6    1    1    2  501    0 -0.41660004336E+02  0.63446798401E+02 -0.11582617765E+03  0.22159818505E+03  0.17300000000E+03 0.  1.
         -6    1    1    2    0  502  0.41660004336E+02 -0.63446798401E+02  0.61094734402E+02  0.19855130007E+03  0.17300000000E+03 0. -1.
<mgrwt>
<rscale>  2 0.18891811E+03</rscale>
<asrwt>0</asrwt>
<pdfrwt beam="1">  1       21 0.28109080E-01 0.18891811E+03</pdfrwt>
<pdfrwt beam="2">  1       21 0.36529302E-01 0.18891811E+03</pdfrwt>
<totfact> 0.87523975E+04</totfact>
</mgrwt>
</event>
<event>
 4    1  0.3980289E+000  0.1805313E+03  0.7546771E-02  0.1167290E+00
         21   -1    0    0  503  502  0.00000000000E+00  0.00000000000E+00  0.75677950424E+02  0.75677950424E+02  0.00000000000E+00 0. -1.
         21   -1    0    0  501  503 -0.00000000000E+00 -0.00000000000E+00 -0.48784473798E+03  0.48784473798E+03  0.00000000000E+00 0. -1.
          6    1    1    2  501    0  0.51591131503E+02 -0.94306891302E+00 -0.30255005527E+03  0.35231813773E+03  0.17300000000E+03 0. -1.
         -6    1    1    2    0  502 -0.51591131503E+02  0.94306891302E+00 -0.10961673228E+03  0.21120455067E+03  0.17300000000E+03 0. -1.
<mgrwt>
<rscale>  2 0.18053126E+03</rscale>
<asrwt>0</asrwt>
<pdfrwt beam="1">  1       21 0.11642761E-01 0.18053126E+03</pdfrwt>
<pdfrwt beam="2">  1       21 0.75053039E-01 0.18053126E+03</pdfrwt>
<totfact> 0.98790752E+04</totfact>
</mgrwt>
</event>
<event>
 4    1  0.3980289E+000  0.1738730E+03  0.7546771E-02  0.1173868E+00
         21   -1    0    0  503  502  0.00000000000E+00  0.00000000000E+00  0.21951655131E+03  0.21951655131E+03  0.00000000000E+00 0. -1.
         21   -1    0    0  501  503 -0.00000000000E+00 -0.00000000000E+00 -0.13772005299E+03  0.13772005299E+03  0.00000000000E+00 0. -1.
          6    1    1    2  501    0 -0.15676600046E+02 -0.75543527137E+01  0.40812022951E+02  0.17859855893E+03  0.17300000000E+03 0.  1.
         -6    1    1    2    0  502  0.15676600046E+02  0.75543527137E+01  0.40984475364E+02  0.17863804537E+03  0.17300000000E+03 0.  1.
<mgrwt>
<rscale>  2 0.17387301E+03</rscale>
<asrwt>0</asrwt>
<pdfrwt beam="1">  1       21 0.33771777E-01 0.17387301E+03</pdfrwt>
<pdfrwt beam="2">  1       21 0.21187700E-01 0.17387301E+03</pdfrwt>
<totfact> 0.17599849E+05</totfact>
</mgrwt>
</event>
<event>
 4    1  0.3980289E+000  0.2503755E+03  0.7546771E-02  0.1113068E+00
         21   -1    0    0  503  502  0.00000000000E+00  0.00000000000E+00  0.11562419570E+03  0.11562419570E+03  0.00000000000E+00 0.  1.
         21   -1    0    0  501  503 -0.00000000000E+00 -0.00000000000E+00 -0.58549231992E+03  0.58549231992E+03  0.00000000000E+00 0.  1.
          6    1    1    2  501    0 -0.16880120950E+03 -0.65307117861E+02 -0.33029266594E+03  0.41446485152E+03  0.17300000000E+03 0. -1.
         -6    1    1    2    0  502  0.16880120950E+03  0.65307117861E+02 -0.13957545829E+03  0.28665166410E+03  0.17300000000E+03 0. -1.
<mgrwt>
<rscale>  2 0.25037545E+03</rscale>
<asrwt>0</asrwt>
<pdfrwt beam="1">  1       21 0.17788338E-01 0.25037545E+03</pdfrwt>
<pdfrwt beam="2">  1       21 0.90075742E-01 0.25037545E+03</pdfrwt>
<totfact> 0.29204364E+04</totfact>
</mgrwt>
</event>
<event>
 4    1  0.3980289E+000  0.1986037E+03  0.7546771E-02  0.1150922E+00
         21   -1    0    0  503  502  0.00000000000E+00  0.00000000000E+00  0.30022762793E+03  0.30022762793E+03  0.00000000000E+00 0.  1.
         21   -1    0    0  501  503 -0.00000000000E+00 -0.00000000000E+00 -0.20542045000E+03  0.20542045000E+03  0.00000000000E+00 0.  1.
          6    1    1    2  501    0 -0.69659783488E+02 -0.68278426558E+02 -0.10438380662E+03  0.22436445363E+03  0.17300000000E+03 0.  1.
         -6    1    1    2    0  502  0.69659783488E+02  0.68278426558E+02  0.19919098456E+03  0.28128362430E+03  0.17300000000E+03 0.  1.
<mgrwt>
<rscale>  2 0.19860370E+03</rscale>
<asrwt>0</asrwt>
<pdfrwt beam="1">  1       21 0.46188866E-01 0.19860370E+03</pdfrwt>
<pdfrwt beam="2">  1       21 0.31603146E-01 0.19860370E+03</pdfrwt>
<totfact> 0.43097660E+04</totfact>
</mgrwt>
</event>
<event>
 4    1  0.3980289E+000  0.1797355E+03  0.7546771E-02  0.1168059E+00
         21   -1    0    0  503  502  0.00000000000E+00  0.00000000000E+00  0.13736851051E+03  0.13736851051E+03  0.00000000000E+00 0. -1.
         21   -1    0    0  501  503 -0.00000000000E+00 -0.00000000000E+00 -0.27467814833E+03  0.27467814833E+03  0.00000000000E+00 0. -1.
          6    1    1    2  501    0 -0.48033771527E+02  0.82831253867E+01 -0.14679090521E+03  0.23206124887E+03  0.17300000000E+03 0. -1.
         -6    1    1    2    0  502  0.48033771527E+02 -0.82831253867E+01  0.94812673945E+01  0.17998540998E+03  0.17300000000E+03 0. -1.
<mgrwt>
<rscale>  2 0.17973551E+03</rscale>
<asrwt>0</asrwt>
<pdfrwt beam="1">  1       21 0.21133617E-01 0.17973551E+03</pdfrwt>
<pdfrwt beam="2">  1       21 0.42258177E-01 0.17973551E+03</pdfrwt>
<totfact> 0.11270798E+05</totfact>
</mgrwt>
</event>
<event>
 4    1  0.3980289E+000  0.1757911E+03  0.7546771E-02  0.1171940E+00
         21   -1    0    0  503  502  0.00000000000E+00  0.00000000000E+00  0.57943415230E+02  0.57943415230E+02  0.00000000000E+00 0.  1.
         21   -1    0    0  501  503 -0.00000000000E+00 -0.00000000000E+00 -0.76416018731E+03  0.76416018731E+03  0.00000000000E+00 0.  1.
          6    1    1    2  501    0 -0.14608619793E+02 -0.27569576611E+02 -0.57903024721E+03  0.60512686315E+03  0.17300000000E+03 0.  1.
         -6    1    1    2    0  502  0.14608619793E+02  0.27569576611E+02 -0.12718652488E+03  0.21697673939E+03  0.17300000000E+03 0.  1.
<mgrwt>
<rscale>  2 0.17579105E+03</rscale>
<asrwt>0</asrwt>
<pdfrwt beam="1">  1       21 0.89143722E-02 0.17579105E+03</pdfrwt>
<pdfrwt beam="2">  1       21 0.11756310E+00 0.17579105E+03</pdfrwt>
<totfact> 0.55657020E+04</totfact>
</mgrwt>
</event>
<event>
 4    1  0.3980289E+000  0.2167198E+03  0.7546771E-02  0.1136352E+00
         21   -1    0    0  503  502  0.00000000000E+00  0.00000000000E+00  0.16232825397E+03  0.16232825397E+03  0.00000000000E+00 0. -1.
         21   -1    0    0  501  503 -0.00000000000E+00 -0.00000000000E+00 -0.28936920584E+03  0.28936920584E+03  0.00000000000E+00 0.  1.
          6    1    1    2  501    0 -0.12752517292E+03 -0.27853038493E+02 -0.65927724033E+02  0.22652577398E+03  0.17300000000E+03 0. -1.
         -6    1    1    2    0  502  0.12752517292E+03  0.27853038493E+02 -0.61113227844E+02  0.22517168583E+03  0.17300000000E+03 0.  1.
<mgrwt>
<rscale>  2 0.21671978E+03</rscale>
<asrwt>0</asrwt>
<pdfrwt beam="1">  1       21 0.24973577E-01 0.21671978E+03</pdfrwt>
<pdfrwt beam="2">  1       21 0.44518339E-01 0.21671978E+03</pdfrwt>
<totfact> 0.72764349E+04</totfact>
</mgrwt>
</event>
<event>
 4    1  0.3980289E+000  0.1837940E+03  0.7546771E-02  0.1164181E+00
         21   -1    0    0  503  502  0.00000000000E+00  0.00000000000E+00  0.76515107400E+03  0.76515107400E+03  0.00000000000E+00 0. -1.
         21   -1    0    0  501  503 -0.00000000000E+00 -0.00000000000E+00 -0.52440812727E+02  0.52440812727E+02  0.00000000000E+00 0. -1.
          6    1    1    2  501    0 -0.59858392093E+01  0.61768836940E+02  0.19379594670E+03  0.26709003809E+03  0.17300000000E+03 0. -1.
         -6    1    1    2    0  502  0.59858392093E+01 -0.61768836940E+02  0.51891431457E+03  0.55050184864E+03  0.17300000000E+03 0. -1.
<mgrwt>
<rscale>  2 0.18379396E+03</rscale>
<asrwt>0</asrwt>
<pdfrwt beam="1">  1       21 0.11771554E+00 0.18379396E+03</pdfrwt>
<pdfrwt beam="2">  1       21 0.80678179E-02 0.18379396E+03</pdfrwt>
<totfact> 0.65762391E+04</totfact>
</mgrwt>
</event>
<event>
 4    1  0.3980289E+000  0.2546335E+03  0.7546771E-02  0.1110411E+00
         21   -1    0    0  503  502  0.00000000000E+00  0.00000000000E+00  0.12074315086E+04  0.12074315086E+04  0.00000000000E+00 0. -1.
         21   -1    0    0  501  503 -0.00000000000E+00 -0.00000000000E+00 -0.64191327747E+02  0.64191327747E+02  0.00000000000E+00 0. -1.
          6    1    1    2  501    0  0.18116073334E+03  0.45716631932E+02  0.31456870696E+03  0.40471186434E+03  0.17300000000E+03 0. -1.
         -6    1    1    2    0  502 -0.18116073334E+03 -0.45716631932E+02  0.82867147386E+03  0.86691097197E+03  0.17300000000E+03 0. -1.
<mgrwt>
<rscale>  2 0.25463350E+03</rscale>
<asrwt>0</asrwt>
<pdfrwt beam="1">  1       21 0.18575868E+00 0.25463350E+03</pdfrwt>
<pdfrwt beam="2">  1       21 0.98755898E-02 0.25463350E+03</pdfrwt>
<totfact> 0.13220740E+04</totfact>
</mgrwt>
</event>
<event>
 4    1  0.3980289E+000  0.1950246E+03  0.7546771E-02  0.1154006E+00
         21   -1    0    0  501  502  0.00000000000E+00  0.00000000000E+00  0.78482223306E+02  0.78482223306E+02  0.00000000000E+00 0.  1.
         21   -1    0    0  502  503 -0.00000000000E+00 -0.00000000000E+00 -0.57123705917E+03  0.57123705917E+03  0.00000000000E+00 0. -1.
          6    1    1    2  501    0  0.27700789024E+02  0.85663673930E+02 -0.11988283646E+03  0.22892464529E+03  0.17300000000E+03 0.  1.
         -6    1    1    2    0  503 -0.27700789024E+02 -0.85663673930E+02 -0.37287199940E+03  0.42079463718E+03  0.17300000000E+03 0. -1.
<mgrwt>
<rscale>  2 0.19502461E+03</rscale>
<asrwt>0</asrwt>
<pdfrwt beam="1">  1       21 0.12074188E-01 0.19502461E+03</pdfrwt>
<pdfrwt beam="2">  1       21 0.87882623E-01 0.19502461E+03</pdfrwt>
<totfact> 0.64349644E+04</totfact>
</mgrwt>
</event>
<event>
 4    1  0.3980289E+000  0.1936829E+03  0.7546771E-02  0.1155181E+00
         21   -1    0    0  503  502  0.00000000000E+00  0.00000000000E+00  0.30695837953E+02  0.30695837953E+02  0.00000000000E+00 0.  1.
         21   -1    0    0  501  503 -0.00000000000E+00 -0.00000000000E+00 -0.12222593522E+04  0.12222593522E+04  0.00000000000E+00 0. -1.
          6    1    1    2  501    0 -0.87075586899E+02  0.13847394141E+01 -0.60315693069E+03  0.63349140355E+03  0.17300000000E+03 0. -1.
         -6    1    1    2    0  502  0.87075586899E+02 -0.13847394141E+01 -0.58840658359E+03  0.61946378663E+03  0.17300000000E+03 0.  1.
<mgrwt>
<rscale>  2 0.19368292E+03</rscale>
<asrwt>0</asrwt>
<pdfrwt beam="1">  1       21 0.47224370E-02 0.19368292E+03</pdfrwt>
<pdfrwt beam="2">  1       21 0.18803988E+00 0.19368292E+03</pdfrwt>
<totfact> 0.47582452E+04</totfact>
</mgrwt>
</event>
<event>
 4    1  0.3980289E+000  0.2078504E+03  0.7546771E-02  0.1143280E+00
         21   -1    0    0  503  502  0.00000000000E+00  0.00000000000E+00  0.53703218042E+03  0.53703218042E+03  0.00000000000E+00 0.  1.
         21   -1    0    0  501  503 -0.00000000000E+00 -0.00000000000E+00 -0.83029179098E+02  0.83029179098E+02  0.00000000000E+00 0. -1.
          6    1    1    2  501    0 -0.81916667811E+02  0.81008952069E+02  0.17231079658E+03  0.26998666893E+03  0.17300000000E+03 0.  1.
         -6    1    1    2    0  502  0.81916667811E+02 -0.81008952069E+02  0.28169220474E+03  0.35007469059E+03  0.17300000000E+03 0. -1.
<mgrwt>
<rscale>  2 0.20785040E+03</rscale>
<asrwt>0</asrwt>
<pdfrwt beam="1">  1       21 0.82620333E-01 0.20785040E+03</pdfrwt>
<pdfrwt beam="2">  1       21 0.12773720E-01 0.20785040E+03</pdfrwt>
<totfact> 0.66597668E+04</totfact>
</mgrwt>
</event>
<event>
 4    1  0.3980289E+000  0.1734381E+03  0.7546771E-02  0.1174309E+00
         21   -1    0    0  503  502  0.00000000000E+00  0.00000000000E+00  0.55350740171E+03  0.55350740171E+03  0.00000000000E+00 0.  1.
         21   -1    0    0  501  503 -0.00000000000E+00 -0.00000000000E+00 -0.67720014321E+02  0.67720014321E+02  0.00000000000E+00 0.  1.
          6    1    1    2  501    0 -0.10871583904E+02  0.57941577467E+01  0.10485610022E+03  0.20267107676E+03  0.17300000000E+03 0.  1.
         -6    1    1    2    0  502  0.10871583904E+02 -0.57941577467E+01  0.38093128717E+03  0.41855633928E+03  0.17300000000E+03 0.  1.
<mgrwt>
<rscale>  2 0.17343807E+03</rscale>
<asrwt>0</asrwt>
<pdfrwt beam="1">  1       21 0.85154982E-01 0.17343807E+03</pdfrwt>
<pdfrwt beam="2">  1       21 0.10418464E-01 0.17343807E+03</pdfrwt>
<totfact> 0.90776989E+04</totfact>
</mgrwt>
</event>
<event>
 4    1  0.3980289E+000  0.2023744E+03  0.7546771E-02  0.1147751E+00
         21   -1    0    0  501  502  0.00000000000E+00  0.00000000000E+00  0.96163624536E+03  0.96163624536E+03  0.00000000000E+00 0. -1.
         21   -1    0    0  502  503 -0.00000000000E+00 -0.00000000000E+00 -0.90599329617E+02  0.90599329617E+02  0.00000000000E+00 0. -1.
          6    1    1    2  501    0  0.56954801912E+02  0.88218649710E+02  0.81850776091E+03  0.84315498830E+03  0.17300000000E+03 0. -1.
         -6    1    1    2    0  503 -0.56954801912E+02 -0.88218649710E+02  0.52529154825E+02  0.20908058667E+03  0.17300000000E+03 0. -1.
<mgrwt>
<rscale>  2 0.20237436E+03</rscale>
<asrwt>0</asrwt>
<pdfrwt beam="1">  1       21 0.14794403E+00 0.20237436E+03</pdfrwt>
<pdfrwt beam="2">  1       21 0.13938359E-01 0.20237436E+03</pdfrwt>
<totfact> 0.13795442E+04</totfact>
</mgrwt>
</event>
<event>
 4    1  0.3980289E+000  0.1794119E+03  0.7546771E-02  0.1168373E+00
         21   -1    0    0  503  502  0.00000000000E+00  0.00000000000E+00  0.17551555980E+03  0.17551555980E+03  0.00000000000E+00 0. -1.
         21   -1    0    0  501  503 -0.00000000000E+00 -0.00000000000E+00 -0.22953922031E+03  0.22953922031E+03  0.00000000000E+00 0.  1.
          6    1    1    2  501    0 -0.39870541169E+02  0.25884006750E+02 -0.11781790207E+03  0.21463853314E+03  0.17300000000E+03 0.  1.
         -6    1    1    2    0  502  0.39870541169E+02 -0.25884006750E+02  0.63794241561E+02  0.19041624698E+03  0.17300000000E+03 0. -1.
<mgrwt>
<rscale>  2 0.17941193E+03</rscale>
<asrwt>0</asrwt>
<pdfrwt beam="1">  1       21 0.27002394E-01 0.17941193E+03</pdfrwt>
<pdfrwt beam="2">  1       21 0.35313726E-01 0.17941193E+03</pdfrwt>
<totfact> 0.10152454E+05</totfact>
</mgrwt>
</event>
<event>
 4    1  0.3980289E+000  0.1803512E+03  0.7546771E-02  0.1167464E+00
         21   -1    0    0  501  502  0.00000000000E+00  0.00000000000E+00  0.15312053923E+03  0.15312053923E+03  0.00000000000E+00 0. -1.
         21   -1    0    0  502  503 -0.00000000000E+00 -0.00000000000E+00 -0.21642287004E+03  0.21642287004E+03  0.00000000000E+00 0. -1.
          6    1    1    2  501    0 -0.24612930272E+01  0.50906925655E+02 -0.65370074085E+01  0.18046968030E+03  0.17300000000E+03 0. -1.
         -6    1    1    2    0  503  0.24612930272E+01 -0.50906925655E+02 -0.56765323406E+02  0.18907372896E+03  0.17300000000E+03 0. -1.
<mgrwt>
<rscale>  2 0.18035125E+03</rscale>
<asrwt>0</asrwt>
<pdfrwt beam="1">  1       21 0.23557006E-01 0.18035125E+03</pdfrwt>
<pdfrwt beam="2">  1       21 0.33295826E-01 0.18035125E+03</pdfrwt>
<totfact> 0.14791972E+05</totfact>
</mgrwt>
</event>
<event>
 4    1  0.3980289E+000  0.2050992E+03  0.7546771E-02  0.1145507E+00
         21   -1    0    0  503  502  0.00000000000E+00  0.00000000000E+00  0.45697255043E+03  0.45697255043E+03  0.00000000000E+00 0.  1.
         21   -1    0    0  501  503 -0.00000000000E+00 -0.00000000000E+00 -0.11478325689E+03  0.11478325689E+03  0.00000000000E+00 0.  1.
          6    1    1    2  501    0  0.90653292973E+02  0.62599174232E+02  0.43878022788E+02  0.20974021318E+03  0.17300000000E+03 0.  1.
         -6    1    1    2    0  502 -0.90653292973E+02 -0.62599174232E+02  0.29831127075E+03  0.36201559414E+03  0.17300000000E+03 0.  1.
<mgrwt>
<rscale>  2 0.20509919E+03</rscale>
<asrwt>0</asrwt>
<pdfrwt beam="1">  1       21 0.70303468E-01 0.20509919E+03</pdfrwt>
<pdfrwt beam="2">  1       21 0.17658963E-01 0.20509919E+03</pdfrwt>
<totfact> 0.53058481E+04</totfact>
</mgrwt>
</event>
<event>
 4    1  0.3980289E+000  0.2324017E+03  0.7546771E-02  0.1124961E+00
         21   -1    0    0  503  502  0.00000000000E+00  0.00000000000E+00  0.10806359125E+04  0.10806359125E+04  0.00000000000E+00 0.  1.
         21   -1    0    0  501  503 -0.00000000000E+00 -0.00000000000E+00 -0.59028762283E+02  0.59028762283E+02  0.00000000000E+00 0.  1.
          6    1    1    2  501    0  0.12017459903E+03  0.98181553067E+02  0.28770250446E+03  0.36984224027E+03  0.17300000000E+03 0.  1.
         -6    1    1    2    0  502 -0.12017459903E+03 -0.98181553067E+02  0.73390464572E+03  0.76982243448E+03  0.17300000000E+03 0.  1.
<mgrwt>
<rscale>  2 0.23240170E+03</rscale>
<asrwt>0</asrwt>
<pdfrwt beam="1">  1       21 0.16625166E+00 0.23240170E+03</pdfrwt>
<pdfrwt beam="2">  1       21 0.90813488E-02 0.23240170E+03</pdfrwt>
<totfact> 0.21250620E+04</totfact>
</mgrwt>
</event>
<event>
 4    1  0.3980289E+000  0.2099423E+03  0.7546771E-02  0.1141612E+00
         21   -1    0    0  501  502  0.00000000000E+00  0.00000000000E+00  0.76702785219E+03  0.76702785219E+03  0.00000000000E+00 0.  1.
         21   -1    0    0  502  503 -0.00000000000E+00 -0.00000000000E+00 -0.70075025717E+02  0.70075025717E+02  0.00000000000E+00 0.  1.
          6    1    1    2  501    0 -0.79168470665E+02  0.88764314422E+02  0.52604207488E+03  0.56638857228E+03  0.17300000000E+03 0.  1.
         -6    1    1    2    0  503  0.79168470665E+02 -0.88764314422E+02  0.17091075159E+03  0.27071430563E+03  0.17300000000E+03 0.  1.
<mgrwt>
<rscale>  2 0.20994225E+03</rscale>
<asrwt>0</asrwt>
<pdfrwt beam="1">  1       21 0.11800428E+00 0.20994225E+03</pdfrwt>
<pdfrwt beam="2">  1       21 0.10780774E-01 0.20994225E+03</pdfrwt>
<totfact> 0.38726010E+04</totfact>
</mgrwt>
</event>
<event>
 4    1  0.3980289E+000  0.1924490E+03  0.7546771E-02  0.1156271E+00
         21   -1    0    0  501  502  0.00000000000E+00  0.00000000000E+00  0.81151724723E+03  0.81151724723E+03  0.00000000000E+00 0.  1.
         21   -1    0    0  502  503 -0.00000000000E+00 -0.00000000000E+00 -0.46204475828E+02  0.46204475828E+02  0.00000000000E+00 0. -1.
          6    1    1    2  501    0  0.77255048962E+02  0.33752885728E+02  0.43011258413E+03  0.47120423907E+03  0.17300000000E+03 0. -1.
         -6    1    1    2    0  503 -0.77255048962E+02 -0.33752885728E+02  0.33520018727E+03  0.38651748399E+03  0.17300000000E+03 0. -1.
<mgrwt>
<rscale>  2 0.19244895E+03</rscale>
<asrwt>0</asrwt>
<pdfrwt beam="1">  1       21 0.12484880E+00 0.19244895E+03</pdfrwt>
<pdfrwt beam="2">  1       21 0.71083815E-02 0.19244895E+03</pdfrwt>
<totfact> 0.70490458E+04</totfact>
</mgrwt>
</event>
<event>
 4    1  0.3980289E+000  0.2802777E+03  0.7546771E-02  0.1095537E+00
         21   -1    0    0  503  502  0.00000000000E+00  0.00000000000E+00  0.13428397945E+03  0.13428397945E+03  0.00000000000E+00 0.  1.
         21   -1    0    0  501  503 -0.00000000000E+00 -0.00000000000E+00 -0.95057560952E+03  0.95057560952E+03  0.00000000000E+00 0. -1.
          6    1    1    2  501    0  0.18379243787E+03  0.12184789454E+03 -0.74453442261E+03  0.79554200145E+03  0.17300000000E+03 0. -1.
         -6    1    1    2    0  502 -0.18379243787E+03 -0.12184789454E+03 -0.71757207457E+02  0.28931758751E+03  0.17300000000E+03 0.  1.
<mgrwt>
<rscale>  2 0.28027767E+03</rscale>
<asrwt>0</asrwt>
<pdfrwt beam="1">  1       21 0.20659074E-01 0.28027767E+03</pdfrwt>
<pdfrwt beam="2">  1       21 0.14624240E+00 0.28027767E+03</pdfrwt>
<totfact> 0.65387657E+03</totfact>
</mgrwt>
</event>
<event>
 4    1  0.3980289E+000  0.1802772E+03  0.7546771E-02  0.1167535E+00
         21   -1    0    0  501  502  0.00000000000E+00  0.00000000000E+00  0.55032010974E+03  0.55032010974E+03  0.00000000000E+00 0.  1.
         21   -1    0    0  502  503 -0.00000000000E+00 -0.00000000000E+00 -0.22500368312E+03  0.22500368312E+03  0.00000000000E+00 0.  1.
          6    1    1    2  501    0 -0.31446670505E+01 -0.50606081639E+02  0.49558099799E+03  0.52735224471E+03  0.17300000000E+03 0.  1.
         -6    1    1    2    0  503  0.31446670505E+01  0.50606081639E+02 -0.17026457137E+03  0.24797154815E+03  0.17300000000E+03 0.  1.
<mgrwt>
<rscale>  2 0.18027719E+03</rscale>
<asrwt>0</asrwt>
<pdfrwt beam="1">  1       21 0.84664632E-01 0.18027719E+03</pdfrwt>
<pdfrwt beam="2">  1       21 0.34615951E-01 0.18027719E+03</pdfrwt>
<totfact> 0.98107975E+03</totfact>
</mgrwt>
</event>
<event>
 4    1  0.3980289E+000  0.1946714E+03  0.7546771E-02  0.1154314E+00
         21   -1    0    0  501  502  0.00000000000E+00  0.00000000000E+00  0.48510006165E+03  0.48510006165E+03  0.00000000000E+00 0.  1.
         21   -1    0    0  502  503 -0.00000000000E+00 -0.00000000000E+00 -0.10733258216E+03  0.10733258216E+03  0.00000000000E+00 0. -1.
          6    1    1    2  501    0 -0.24589443213E+02  0.85809763785E+02  0.34341408450E+03  0.39475332767E+03  0.17300000000E+03 0.  1.
         -6    1    1    2    0  503  0.24589443213E+02 -0.85809763785E+02  0.34353394996E+02  0.19767931613E+03  0.17300000000E+03 0. -1.
<mgrwt>
<rscale>  2 0.19467141E+03</rscale>
<asrwt>0</asrwt>
<pdfrwt beam="1">  1       21 0.74630778E-01 0.19467141E+03</pdfrwt>
<pdfrwt beam="2">  1       21 0.16512705E-01 0.19467141E+03</pdfrwt>
<totfact> 0.52853288E+04</totfact>
</mgrwt>
</event>
<event>
 4    1  0.3980289E+000  0.1841343E+03  0.7546771E-02  0.1163861E+00
         21   -1    0    0  503  502  0.00000000000E+00  0.00000000000E+00  0.33561857247E+02  0.33561857247E+02  0.00000000000E+00 0.  1.
         21   -1    0    0  501  503 -0.00000000000E+00 -0.00000000000E+00 -0.10359436793E+04  0.10359436793E+04  0.00000000000E+00 0. -1.
          6    1    1    2  501    0 -0.32900045670E+02  0.53796170937E+02 -0.58542835533E+03  0.61370334873E+03  0.17300000000E+03 0. -1.
         -6    1    1    2    0  502  0.32900045670E+02 -0.53796170937E+02 -0.41695346675E+03  0.45580218785E+03  0.17300000000E+03 0.  1.
<mgrwt>
<rscale>  2 0.18413430E+03</rscale>
<asrwt>0</asrwt>
<pdfrwt beam="1">  1       21 0.51633624E-02 0.18413430E+03</pdfrwt>
<pdfrwt beam="2">  1       21 0.15937596E+00 0.18413430E+03</pdfrwt>
<totfact> 0.65087778E+04</totfact>
</mgrwt>
</event>
<event>
 4    1  0.3980289E+000  0.2019390E+03  0.7546771E-02  0.1148113E+00
         21   -1    0    0  503  502  0.00000000000E+00  0.00000000000E+00  0.86087604758E+02  0.86087604758E+02  0.00000000000E+00 0. -1.
         21   -1    0    0  501  503 -0.00000000000E+00 -0.00000000000E+00 -0.56791819652E+03  0.56791819652E+03  0.00000000000E+00 0.  1.
          6    1    1    2  501    0  0.52203924518E+02 -0.90139332047E+02 -0.37410954133E+03  0.42513209457E+03  0.17300000000E+03 0.  1.
         -6    1    1    2    0  502 -0.52203924518E+02  0.90139332047E+02 -0.10772105043E+03  0.22887370671E+03  0.17300000000E+03 0. -1.
<mgrwt>
<rscale>  2 0.20193897E+03</rscale>
<asrwt>0</asrwt>
<pdfrwt beam="1">  1       21 0.13244247E-01 0.20193897E+03</pdfrwt>
<pdfrwt beam="2">  1       21 0.87372028E-01 0.20193897E+03</pdfrwt>
<totfact> 0.55042708E+04</totfact>
</mgrwt>
</event>
<event>
 4    1  0.3980289E+000  0.2658414E+03  0.7546771E-02  0.1103684E+00
         21   -1    0    0  501  502  0.00000000000E+00  0.00000000000E+00  0.40569005028E+03  0.40569005028E+03  0.00000000000E+00 0. -1.
         21   -1    0    0  502  503 -0.00000000000E+00 -0.00000000000E+00 -0.44207050619E+03  0.44207050619E+03  0.00000000000E+00 0. -1.
          6    1    1    2  501    0  0.20165273213E+03 -0.88778622536E+01  0.31176804529E+03  0.40972058146E+03  0.17300000000E+03 0. -1.
         -6    1    1    2    0  503 -0.20165273213E+03  0.88778622536E+01 -0.34814850120E+03  0.43803997501E+03  0.17300000000E+03 0. -1.
<mgrwt>
<rscale>  2 0.26584138E+03</rscale>
<asrwt>0</asrwt>
<pdfrwt beam="1">  1       21 0.62413854E-01 0.26584138E+03</pdfrwt>
<pdfrwt beam="2">  1       21 0.68010847E-01 0.26584138E+03</pdfrwt>
<totfact> 0.44670994E+03</totfact>
</mgrwt>
</event>
<event>
 4    1  0.3980289E+000  0.3225680E+03  0.7546771E-02  0.1074473E+00
         21   -1    0    0  501  502  0.00000000000E+00  0.00000000000E+00  0.62600977926E+03  0.62600977926E+03  0.00000000000E+00 0.  1.
         21   -1    0    0  502  503 -0.00000000000E+00 -0.00000000000E+00 -0.16660561841E+03  0.16660561841E+03  0.00000000000E+00 0. -1.
          6    1    1    2  501    0 -0.27221815069E+03  0.42867824086E+01  0.24897449919E+03  0.40747809673E+03  0.17300000000E+03 0. -1.
         -6    1    1    2    0  503  0.27221815069E+03 -0.42867824086E+01  0.21042966166E+03  0.38513730094E+03  0.17300000000E+03 0. -1.
<mgrwt>
<rscale>  2 0.32256797E+03</rscale>
<asrwt>0</asrwt>
<pdfrwt beam="1">  1       21 0.96309195E-01 0.32256797E+03</pdfrwt>
<pdfrwt beam="2">  1       21 0.25631634E-01 0.32256797E+03</pdfrwt>
<totfact> 0.12088168E+04</totfact>
</mgrwt>
</event>
<event>
 4    1  0.3980289E+000  0.1763604E+03  0.7546771E-02  0.1171373E+00
         21   -1    0    0  503  502  0.00000000000E+00  0.00000000000E+00  0.10465212120E+03  0.10465212120E+03  0.00000000000E+00 0.  1.
         21   -1    0    0  501  503 -0.00000000000E+00 -0.00000000000E+00 -0.10596970478E+04  0.10596970478E+04  0.00000000000E+00 0.  1.
          6    1    1    2  501    0 -0.24309486968E+02 -0.24146281038E+02 -0.97135581696E+03  0.98723610002E+03  0.17300000000E+03 0.  1.
         -6    1    1    2    0  502  0.24309486968E+02  0.24146281038E+02  0.16310890401E+02  0.17711306894E+03  0.17300000000E+03 0.  1.
<mgrwt>
<rscale>  2 0.17636041E+03</rscale>
<asrwt>0</asrwt>
<pdfrwt beam="1">  1       21 0.16100326E-01 0.17636041E+03</pdfrwt>
<pdfrwt beam="2">  1       21 0.16303032E+00 0.17636041E+03</pdfrwt>
<totfact> 0.83576433E+03</totfact>
</mgrwt>
</event>
<event>
 4    1  0.3980289E+000  0.1760339E+03  0.7546771E-02  0.1171698E+00
         21   -1    0    0  503  502  0.00000000000E+00  0.00000000000E+00  0.17567695289E+04  0.17567695289E+04  0.00000000000E+00 0.  1.
         21   -1    0    0  501  503 -0.00000000000E+00 -0.00000000000E+00 -0.17663955053E+02  0.17663955053E+02  0.00000000000E+00 0.  1.
          6    1    1    2  501    0 -0.19590333631E+01  0.32482100211E+02  0.83630682986E+03  0.85463269204E+03  0.17300000000E+03 0.  1.
         -6    1    1    2    0  502  0.19590333631E+01 -0.32482100211E+02  0.90279874399E+03  0.91980079191E+03  0.17300000000E+03 0.  1.
<mgrwt>
<rscale>  2 0.17603387E+03</rscale>
<asrwt>0</asrwt>
<pdfrwt beam="1">  1       21 0.27027210E+00 0.17603387E+03</pdfrwt>
<pdfrwt beam="2">  1       21 0.27175329E-02 0.17603387E+03</pdfrwt>
<totfact> 0.38288779E+04</totfact>
</mgrwt>
</event>
<event>
 4    1  0.3980289E+000  0.2505335E+03  0.7546771E-02  0.1112968E+00
         21   -1    0    0  501  502  0.00000000000E+00  0.00000000000E+00  0.21156331397E+03  0.21156331397E+03  0.00000000000E+00 0. -1.
         21   -1    0    0  502  503 -0.00000000000E+00 -0.00000000000E+00 -0.30571094346E+03  0.30571094346E+03  0.00000000000E+00 0.  1.
          6    1    1    2  501    0 -0.17791694248E+03 -0.34403609527E+02 -0.26258775660E+01  0.25054728496E+03  0.17300000000E+03 0. -1.
         -6    1    1    2    0  503  0.17791694248E+03  0.34403609527E+02 -0.91521751921E+02  0.26672697247E+03  0.17300000000E+03 0.  1.
<mgrwt>
<rscale>  2 0.25053352E+03</rscale>
<asrwt>0</asrwt>
<pdfrwt beam="1">  1       21 0.32548202E-01 0.25053352E+03</pdfrwt>
<pdfrwt beam="2">  1       21 0.47032452E-01 0.25053352E+03</pdfrwt>
<totfact> 0.38239495E+04</totfact>
</mgrwt>
</event>
<event>
 4    1  0.3980289E+000  0.1816113E+03  0.7546771E-02  0.1166253E+00
         21   -1    0    0  503  502  0.00000000000E+00  0.00000000000E+00  0.19022102964E+04  0.19022102964E+04  0.00000000000E+00 0. -1.
         21   -1    0    0  501  503 -0.00000000000E+00 -0.00000000000E+00 -0.18183946977E+02  0.18183946977E+02  0.00000000000E+00 0.  1.
          6    1    1    2  501    0  0.37099695244E+02 -0.40954515539E+02  0.73504706130E+03  0.75715047518E+03  0.17300000000E+03 0. -1.
         -6    1    1    2    0  502 -0.37099695244E+02  0.40954515539E+02  0.11489792881E+04  0.11632437682E+04  0.17300000000E+03 0. -1.
<mgrwt>
<rscale>  2 0.18161129E+03</rscale>
<asrwt>0</asrwt>
<pdfrwt beam="1">  1       21 0.29264758E+00 0.18161129E+03</pdfrwt>
<pdfrwt beam="2">  1       21 0.27975318E-02 0.18161129E+03</pdfrwt>
<totfact> 0.27011475E+04</totfact>
</mgrwt>
</event>
<event>
 4    1  0.3980289E+000  0.1981465E+03  0.7546771E-02  0.1151312E+00
         21   -1    0    0  503  502  0.00000000000E+00  0.00000000000E+00  0.17073644763E+03  0.17073644763E+03  0.00000000000E+00 0. -1.
         21   -1    0    0  501  503 -0.00000000000E+00 -0.00000000000E+00 -0.24705138022E+03  0.24705138022E+03  0.00000000000E+00 0.  1.
          6    1    1    2  501    0  0.36559016813E+02  0.89423074865E+02 -0.93106280273E+02  0.21893110207E+03  0.17300000000E+03 0.  1.
         -6    1    1    2    0  502 -0.36559016813E+02 -0.89423074865E+02  0.16791347686E+02  0.19885672577E+03  0.17300000000E+03 0. -1.
<mgrwt>
<rscale>  2 0.19814653E+03</rscale>
<asrwt>0</asrwt>
<pdfrwt beam="1">  1       21 0.26267146E-01 0.19814653E+03</pdfrwt>
<pdfrwt beam="2">  1       21 0.38007905E-01 0.19814653E+03</pdfrwt>
<totfact> 0.91779108E+04</totfact>
</mgrwt>
</event>
<event>
 4    1  0.3980289E+000  0.2078135E+03  0.7546771E-02  0.1143309E+00
         21   -1    0    0  501  502  0.00000000000E+00  0.00000000000E+00  0.56118075498E+03  0.56118075498E+03  0.00000000000E+00 0. -1.
         21   -1    0    0  502  503 -0.00000000000E+00 -0.00000000000E+00 -0.98726614808E+02  0.98726614808E+02  0.00000000000E+00 0. -1.
          6    1    1    2  501    0  0.91077812313E+02  0.70443398381E+02  0.38616844361E+03  0.43853449934E+03  0.17300000000E+03 0. -1.
         -6    1    1    2    0  503 -0.91077812313E+02 -0.70443398381E+02  0.76285696566E+02  0.22137287045E+03  0.17300000000E+03 0. -1.
<mgrwt>
<rscale>  2 0.20781347E+03</rscale>
<asrwt>0</asrwt>
<pdfrwt beam="1">  1       21 0.86335499E-01 0.20781347E+03</pdfrwt>
<pdfrwt beam="2">  1       21 0.15188710E-01 0.20781347E+03</pdfrwt>
<totfact> 0.43989716E+04</totfact>
</mgrwt>
</event>
<event>
 4    1  0.3980289E+000  0.1956568E+03  0.7546771E-02  0.1153456E+00
         21   -1    0    0  503  502  0.00000000000E+00  0.00000000000E+00  0.12387068760E+03  0.12387068760E+03  0.00000000000E+00 0. -1.
         21   -1    0    0  501  503 -0.00000000000E+00 -0.00000000000E+00 -0.86737080571E+03  0.86737080571E+03  0.00000000000E+00 0. -1.
          6    1    1    2  501    0  0.45704647711E+02  0.79143375430E+02 -0.76939092954E+03  0.79387907842E+03  0.17300000000E+03 0. -1.
         -6    1    1    2    0  502 -0.45704647711E+02 -0.79143375430E+02  0.25890811427E+02  0.19736241490E+03  0.17300000000E+03 0. -1.
<mgrwt>
<rscale>  2 0.19565681E+03</rscale>
<asrwt>0</asrwt>
<pdfrwt beam="1">  1       21 0.19057029E-01 0.19565681E+03</pdfrwt>
<pdfrwt beam="2">  1       21 0.13344166E+00 0.19565681E+03</pdfrwt>
<totfact> 0.10196667E+04</totfact>
</mgrwt>
</event>
<event>
 4    1  0.3980289E+000  0.1848710E+03  0.7546771E-02  0.1163170E+00
         21   -1    0    0  501  502  0.00000000000E+00  0.00000000000E+00  0.10837937212E+04  0.10837937212E+04  0.00000000000E+00 0.  1.
         21   -1    0    0  502  503 -0.00000000000E+00 -0.00000000000E+00 -0.55451087512E+02  0.55451087512E+02  0.00000000000E+00 0.  1.
          6    1    1    2  501    0 -0.64909010910E+02  0.59238937042E+01  0.88826334998E+03  0.90729766402E+03  0.17300000000E+03 0.  1.
         -6    1    1    2    0  503  0.64909010910E+02 -0.59238937042E+01  0.14007928374E+03  0.23194714473E+03  0.17300000000E+03 0.  1.
<mgrwt>
<rscale>  2 0.18487096E+03</rscale>
<asrwt>0</asrwt>
<pdfrwt beam="1">  1       21 0.16673748E+00 0.18487096E+03</pdfrwt>
<pdfrwt beam="2">  1       21 0.85309373E-02 0.18487096E+03</pdfrwt>
<totfact> 0.24267949E+04</totfact>
</mgrwt>
</event>
<event>
 4    1  0.3980289E+000  0.2491855E+03  0.7546771E-02  0.1113821E+00
         21   -1    0    0  501  502  0.00000000000E+00  0.00000000000E+00  0.31166227705E+02  0.31166227705E+02  0.00000000000E+00 0.  1.
         21   -1    0    0  502  503 -0.00000000000E+00 -0.00000000000E+00 -0.22101100781E+04  0.22101100781E+04  0.00000000000E+00 0.  1.
          6    1    1    2  501    0 -0.24253883038E+02 -0.17769681981E+03 -0.73769486036E+03  0.77864441025E+03  0.17300000000E+03 0.  1.
         -6    1    1    2    0  503  0.24253883038E+02  0.17769681981E+03 -0.14412489900E+04  0.14626318955E+04  0.17300000000E+03 0.  1.
<mgrwt>
<rscale>  2 0.24918549E+03</rscale>
<asrwt>0</asrwt>
<pdfrwt beam="1">  1       21 0.47948030E-02 0.24918549E+03</pdfrwt>
<pdfrwt beam="2">  1       21 0.34001702E+00 0.24918549E+03</pdfrwt>
<totfact> 0.54340146E+03</totfact>
</mgrwt>
</event>
<event>
 4    1  0.3980289E+000  0.1842183E+03  0.7546771E-02  0.1163782E+00
         21   -1    0    0  501  502  0.00000000000E+00  0.00000000000E+00  0.13188498503E+03  0.13188498503E+03  0.00000000000E+00 0.  1.
         21   -1    0    0  502  503 -0.00000000000E+00 -0.00000000000E+00 -0.71517185317E+03  0.71517185317E+03  0.00000000000E+00 0.  1.
          6    1    1    2  501    0 -0.12993826324E+02 -0.61955855502E+02  0.47232582865E+02  0.19017698188E+03  0.17300000000E+03 0.  1.
         -6    1    1    2    0  503  0.12993826324E+02  0.61955855502E+02 -0.63051945101E+03  0.65687985633E+03  0.17300000000E+03 0.  1.
<mgrwt>
<rscale>  2 0.18421826E+03</rscale>
<asrwt>0</asrwt>
<pdfrwt beam="1">  1       21 0.20289998E-01 0.18421826E+03</pdfrwt>
<pdfrwt beam="2">  1       21 0.11002644E+00 0.18421826E+03</pdfrwt>
<totfact> 0.14749209E+04</totfact>
</mgrwt>
</event>
<event>
 4    1  0.3980289E+000  0.1889080E+03  0.7546771E-02  0.1159450E+00
         21   -1    0    0  503  502  0.00000000000E+00  0.00000000000E+00  0.24001831442E+02  0.24001831442E+02  0.00000000000E+00 0.  1.
         21   -1    0    0  501  503 -0.00000000000E+00 -0.00000000000E+00 -0.23550453433E+04  0.23550453433E+04  0.00000000000E+00 0.  1.
          6    1    1    2  501    0 -0.31643992192E+02  0.68962965861E+02 -0.18877781970E+04  0.18972065660E+04  0.17300000000E+03 0.  1.
         -6    1    1    2    0  502  0.31643992192E+02 -0.68962965861E+02 -0.44326531485E+03  0.48184060876E+03  0.17300000000E+03 0.  1.
<mgrwt>
<rscale>  2 0.18890800E+03</rscale>
<asrwt>0</asrwt>
<pdfrwt beam="1">  1       21 0.36925901E-02 0.18890800E+03</pdfrwt>
<pdfrwt beam="2">  1       21 0.36231461E+00 0.18890800E+03</pdfrwt>
<totfact> 0.66519580E+03</totfact>
</mgrwt>
</event>
<event>
 4    1  0.3980289E+000  0.2349806E+03  0.7546771E-02  0.1123182E+00
         21   -1    0    0  503  502  0.00000000000E+00  0.00000000000E+00  0.69415053119E+03  0.69415053119E+03  0.00000000000E+00 0.  1.
         21   -1    0    0  501  503 -0.00000000000E+00 -0.00000000000E+00 -0.87890788786E+02  0.87890788786E+02  0.00000000000E+00 0.  1.
          6    1    1    2  501    0 -0.15628097876E+03  0.29379430886E+02  0.18263368826E+03  0.29760873537E+03  0.17300000000E+03 0.  1.
         -6    1    1    2    0  502  0.15628097876E+03 -0.29379430886E+02  0.42362605414E+03  0.48443258461E+03  0.17300000000E+03 0.  1.
<mgrwt>
<rscale>  2 0.23498063E+03</rscale>
<asrwt>0</asrwt>
<pdfrwt beam="1">  1       21 0.10679239E+00 0.23498063E+03</pdfrwt>
<pdfrwt beam="2">  1       21 0.13521660E-01 0.23498063E+03</pdfrwt>
<totfact> 0.32469629E+04</totfact>
</mgrwt>
</event>
<event>
 4    1  0.3980289E+000  0.1949108E+03  0.7546771E-02  0.1154105E+00
         21   -1    0    0  501  502  0.00000000000E+00  0.00000000000E+00  0.31519137615E+03  0.31519137615E+03  0.00000000000E+00 0.  1.
         21   -1    0    0  502  503 -0.00000000000E+00 -0.00000000000E+00 -0.20163961350E+03  0.20163961350E+03  0.00000000000E+00 0.  1.
          6    1    1    2  501    0  0.88257030055E+02 -0.16490140390E+02  0.22067061240E+03  0.29442443387E+03  0.17300000000E+03 0.  1.
         -6    1    1    2    0  503 -0.88257030055E+02  0.16490140390E+02 -0.10711884975E+03  0.22240655579E+03  0.17300000000E+03 0.  1.
<mgrwt>
<rscale>  2 0.19491082E+03</rscale>
<asrwt>0</asrwt>
<pdfrwt beam="1">  1       21 0.48490981E-01 0.19491082E+03</pdfrwt>
<pdfrwt beam="2">  1       21 0.31021479E-01 0.19491082E+03</pdfrwt>
<totfact> 0.40493420E+04</totfact>
</mgrwt>
</event>
<event>
 4    1  0.3980289E+000  0.1868668E+03  0.7546771E-02  0.1161318E+00
         21   -1    0    0  503  502  0.00000000000E+00  0.00000000000E+00  0.94416745474E+03  0.94416745474E+03  0.00000000000E+00 0. -1.
         21   -1    0    0  501  503 -0.00000000000E+00 -0.00000000000E+00 -0.37075755625E+02  0.37075755625E+02  0.00000000000E+00 0. -1.
          6    1    1    2  501    0 -0.16554751656E+02  0.68674185844E+02  0.42915477508E+03  0.46807373840E+03  0.17300000000E+03 0. -1.
         -6    1    1    2    0  502  0.16554751656E+02 -0.68674185844E+02  0.47793692403E+03  0.51316947197E+03  0.17300000000E+03 0. -1.
<mgrwt>
<rscale>  2 0.18686681E+03</rscale>
<asrwt>0</asrwt>
<pdfrwt beam="1">  1       21 0.14525651E+00 0.18686681E+03</pdfrwt>
<pdfrwt beam="2">  1       21 0.57039631E-02 0.18686681E+03</pdfrwt>
<totfact> 0.70113494E+04</totfact>
</mgrwt>
</event>
<event>
 4    1  0.3980289E+000  0.3351039E+03  0.7546771E-02  0.1068901E+00
         21   -1    0    0  503  502  0.00000000000E+00  0.00000000000E+00  0.52786270792E+03  0.52786270792E+03  0.00000000000E+00 0. -1.
         21   -1    0    0  501  503 -0.00000000000E+00 -0.00000000000E+00 -0.54761187940E+03  0.54761187940E+03  0.00000000000E+00 0. -1.
          6    1    1    2  501    0 -0.20579848655E+03  0.20003147487E+03 -0.43038488241E+03  0.54545921480E+03  0.17300000000E+03 0. -1.
         -6    1    1    2    0  502  0.20579848655E+03 -0.20003147487E+03  0.41063571094E+03  0.53001537251E+03  0.17300000000E+03 0. -1.
<mgrwt>
<rscale>  2 0.33510388E+03</rscale>
<asrwt>0</asrwt>
<pdfrwt beam="1">  1       21 0.81209647E-01 0.33510388E+03</pdfrwt>
<pdfrwt beam="2">  1       21 0.84247982E-01 0.33510388E+03</pdfrwt>
<totfact> 0.14681860E+03</totfact>
</mgrwt>
</event>
<event>
 4    1  0.3980289E+000  0.1954477E+03  0.7546771E-02  0.1153638E+00
         21   -1    0    0  503  502  0.00000000000E+00  0.00000000000E+00  0.36724468872E+03  0.36724468872E+03  0.00000000000E+00 0. -1.
         21   -1    0    0  501  503 -0.00000000000E+00 -0.00000000000E+00 -0.11311785648E+03  0.11311785648E+03  0.00000000000E+00 0. -1.
          6    1    1    2  501    0 -0.31605980019E+02 -0.85275128689E+02  0.58938099406E+02  0.20414084625E+03  0.17300000000E+03 0. -1.
         -6    1    1    2    0  502  0.31605980019E+02  0.85275128689E+02  0.19518873283E+03  0.27622169895E+03  0.17300000000E+03 0. -1.
<mgrwt>
<rscale>  2 0.19544765E+03</rscale>
<asrwt>0</asrwt>
<pdfrwt beam="1">  1       21 0.56499182E-01 0.19544765E+03</pdfrwt>
<pdfrwt beam="2">  1       21 0.17402747E-01 0.19544765E+03</pdfrwt>
<totfact> 0.87936577E+04</totfact>
</mgrwt>
</event>
<event>
 4    1  0.3980289E+000  0.1881237E+03  0.7546771E-02  0.1160165E+00
         21   -1    0    0  501  502  0.00000000000E+00  0.00000000000E+00  0.18565283284E+03  0.18565283284E+03  0.00000000000E+00 0.  1.
         21   -1    0    0  502  503 -0.00000000000E+00 -0.00000000000E+00 -0.29190202128E+03  0.29190202128E+03  0.00000000000E+00 0.  1.
          6    1    1    2  501    0  0.49592301017E+02  0.54791587620E+02  0.87520652434E+02  0.20748585252E+03  0.17300000000E+03 0.  1.
         -6    1    1    2    0  503 -0.49592301017E+02 -0.54791587620E+02 -0.19376984087E+03  0.27006900160E+03  0.17300000000E+03 0.  1.
<mgrwt>
<rscale>  2 0.18812367E+03</rscale>
<asrwt>0</asrwt>
<pdfrwt beam="1">  1       21 0.28561974E-01 0.18812367E+03</pdfrwt>
<pdfrwt beam="2">  1       21 0.44908003E-01 0.18812367E+03</pdfrwt>
<totfact> 0.55903416E+04</totfact>
</mgrwt>
</event>
<event>
 4    1  0.3980289E+000  0.2281624E+03  0.7546771E-02  0.1127940E+00
         21   -1    0    0  501  502  0.00000000000E+00  0.00000000000E+00  0.13385747477E+03  0.13385747477E+03  0.00000000000E+00 0.  1.
         21   -1    0    0  502  503 -0.00000000000E+00 -0.00000000000E+00 -0.51883373965E+03  0.51883373965E+03  0.00000000000E+00 0. -1.
          6    1    1    2  501    0  0.14472898494E+03 -0.34389073161E+02 -0.29177972264E+02  0.23002052408E+03  0.17300000000E+03 0.  1.
         -6    1    1    2    0  503 -0.14472898494E+03  0.34389073161E+02 -0.35579829262E+03  0.42267069033E+03  0.17300000000E+03 0. -1.
<mgrwt>
<rscale>  2 0.22816241E+03</rscale>
<asrwt>0</asrwt>
<pdfrwt beam="1">  1       21 0.20593458E-01 0.22816241E+03</pdfrwt>
<pdfrwt beam="2">  1       21 0.79820575E-01 0.22816241E+03</pdfrwt>
<totfact> 0.29641201E+04</totfact>
</mgrwt>
</event>
<event>
 4    1  0.3980289E+000  0.2117109E+03  0.7546771E-02  0.1140218E+00
         21   -1    0    0  501  502  0.00000000000E+00  0.00000000000E+00  0.45953588810E+03  0.45953588810E+03  0.00000000000E+00 0. -1.
         21   -1    0    0  502  503 -0.00000000000E+00 -0.00000000000E+00 -0.97835693378E+02  0.97835693378E+02  0.00000000000E+00 0.  1.
          6    1    1    2  501    0  0.12203487955E+03 -0.11820279740E-01  0.16543812451E+03  0.26868435944E+03  0.17300000000E+03 0.  1.
         -6    1    1    2    0  503 -0.12203487955E+03  0.11820279740E-01  0.19626207021E+03  0.28868722204E+03  0.17300000000E+03 0. -1.
<mgrwt>
<rscale>  2 0.21171092E+03</rscale>
<asrwt>0</asrwt>
<pdfrwt beam="1">  1       21 0.70697828E-01 0.21171092E+03</pdfrwt>
<pdfrwt beam="2">  1       21 0.15051645E-01 0.21171092E+03</pdfrwt>
<totfact> 0.70065791E+04</totfact>
</mgrwt>
</event>
<event>
 4    1  0.3980289E+000  0.1863717E+03  0.7546771E-02  0.1161775E+00
         21   -1    0    0  501  502  0.00000000000E+00  0.00000000000E+00  0.71374850647E+02  0.71374850647E+02  0.00000000000E+00 0. -1.
         21   -1    0    0  502  503 -0.00000000000E+00 -0.00000000000E+00 -0.48837233293E+03  0.48837233293E+03  0.00000000000E+00 0. -1.
          6    1    1    2  501    0 -0.33289002859E+02 -0.60805107371E+02 -0.22512956480E+03  0.29226313442E+03  0.17300000000E+03 0. -1.
         -6    1    1    2    0  503  0.33289002859E+02  0.60805107371E+02 -0.19186791748E+03  0.26748404916E+03  0.17300000000E+03 0. -1.
<mgrwt>
<rscale>  2 0.18637172E+03</rscale>
<asrwt>0</asrwt>
<pdfrwt beam="1">  1       21 0.10980746E-01 0.18637172E+03</pdfrwt>
<pdfrwt beam="2">  1       21 0.75134207E-01 0.18637172E+03</pdfrwt>
<totfact> 0.10912614E+05</totfact>
</mgrwt>
</event>
<event>
 4    1  0.3980289E+000  0.1903097E+03  0.7546771E-02  0.1158182E+00
         21   -1    0    0  501  502  0.00000000000E+00  0.00000000000E+00  0.25406629772E+03  0.25406629772E+03  0.00000000000E+00 0.  1.
         21   -1    0    0  502  503 -0.00000000000E+00 -0.00000000000E+00 -0.14392432463E+03  0.14392432463E+03  0.00000000000E+00 0.  1.
          6    1    1    2  501    0  0.28584712295E+02  0.73970979342E+02  0.74498692290E+02  0.20437183445E+03  0.17300000000E+03 0. -1.
         -6    1    1    2    0  503 -0.28584712295E+02 -0.73970979342E+02  0.35643280800E+02  0.19361878790E+03  0.17300000000E+03 0. -1.
<mgrwt>
<rscale>  2 0.19030973E+03</rscale>
<asrwt>0</asrwt>
<pdfrwt beam="1">  1       21 0.39087123E-01 0.19030973E+03</pdfrwt>
<pdfrwt beam="2">  1       21 0.22142204E-01 0.19030973E+03</pdfrwt>
<totfact> 0.12044673E+05</totfact>
</mgrwt>
</event>
<event>
 4    1  0.3980289E+000  0.2029620E+03  0.7546771E-02  0.1147264E+00
         21   -1    0    0  503  502  0.00000000000E+00  0.00000000000E+00  0.10688985192E+04  0.10688985192E+04  0.00000000000E+00 0.  1.
         21   -1    0    0  501  503 -0.00000000000E+00 -0.00000000000E+00 -0.38909335785E+02  0.38909335785E+02  0.00000000000E+00 0. -1.
          6    1    1    2  501    0 -0.41193174968E+01  0.10605464516E+03  0.46090647089E+03  0.50361526133E+03  0.17300000000E+03 0. -1.
         -6    1    1    2    0  502  0.41193174968E+01 -0.10605464516E+03  0.56908271255E+03  0.60419259368E+03  0.17300000000E+03 0.  1.
<mgrwt>
<rscale>  2 0.20296196E+03</rscale>
<asrwt>0</asrwt>
<pdfrwt beam="1">  1       21 0.16444590E+00 0.20296196E+03</pdfrwt>
<pdfrwt beam="2">  1       21 0.59860525E-02 0.20296196E+03</pdfrwt>
<totfact> 0.45975903E+04</totfact>
</mgrwt>
</event>
<event>
 4    1  0.3980289E+000  0.2232946E+03  0.7546771E-02  0.1131450E+00
         21   -1    0    0  501  502  0.00000000000E+00  0.00000000000E+00  0.97405287105E+02  0.97405287105E+02  0.00000000000E+00 0.  1.
         21   -1    0    0  502  503 -0.00000000000E+00 -0.00000000000E+00 -0.62742730461E+03  0.62742730461E+03  0.00000000000E+00 0. -1.
          6    1    1    2  501    0 -0.49951740386E+02  0.13204660224E+03 -0.10948854620E+03  0.24869303022E+03  0.17300000000E+03 0.  1.
         -6    1    1    2    0  503  0.49951740386E+02 -0.13204660224E+03 -0.42053347131E+03  0.47613956150E+03  0.17300000000E+03 0. -1.
<mgrwt>
<rscale>  2 0.22329461E+03</rscale>
<asrwt>0</asrwt>
<pdfrwt beam="1">  1       21 0.14985428E-01 0.22329461E+03</pdfrwt>
<pdfrwt beam="2">  1       21 0.96527281E-01 0.22329461E+03</pdfrwt>
<totfact> 0.34497630E+04</totfact>
</mgrwt>
</event>
<event>
 4    1  0.3980289E+000  0.2049304E+03  0.7546771E-02  0.1145645E+00
         21   -1    0    0  503  502  0.00000000000E+00  0.00000000000E+00  0.40850713169E+03  0.40850713169E+03  0.00000000000E+00 0.  1.
         21   -1    0    0  501  503 -0.00000000000E+00 -0.00000000000E+00 -0.16871607847E+03  0.16871607847E+03  0.00000000000E+00 0.  1.
          6    1    1    2  501    0 -0.13940259233E+02  0.10896390877E+03 -0.60495803773E+02  0.21367313008E+03  0.17300000000E+03 0.  1.
         -6    1    1    2    0  502  0.13940259233E+02 -0.10896390877E+03  0.30028685699E+03  0.36355008008E+03  0.17300000000E+03 0.  1.
<mgrwt>
<rscale>  2 0.20493039E+03</rscale>
<asrwt>0</asrwt>
<pdfrwt beam="1">  1       21 0.62847251E-01 0.20493039E+03</pdfrwt>
<pdfrwt beam="2">  1       21 0.25956320E-01 0.20493039E+03</pdfrwt>
<totfact> 0.32835570E+04</totfact>
</mgrwt>
</event>
<event>
 4    1  0.3980289E+000  0.1748129E+03  0.7546771E-02  0.1172920E+00
         21   -1    0    0  503  502  0.00000000000E+00  0.00000000000E+00  0.11066485854E+04  0.11066485854E+04  0.00000000000E+00 0.  1.
         21   -1    0    0  501  503 -0.00000000000E+00 -0.00000000000E+00 -0.27673844736E+02  0.27673844736E+02  0.00000000000E+00 0.  1.
          6    1    1    2  501    0 -0.18600407591E+02 -0.16869832640E+02  0.56574768116E+03  0.59214019046E+03  0.17300000000E+03 0.  1.
         -6    1    1    2    0  502  0.18600407591E+02  0.16869832640E+02  0.51322705947E+03  0.54218223965E+03  0.17300000000E+03 0.  1.
<mgrwt>
<rscale>  2 0.17481295E+03</rscale>
<asrwt>0</asrwt>
<pdfrwt beam="1">  1       21 0.17025359E+00 0.17481295E+03</pdfrwt>
<pdfrwt beam="2">  1       21 0.42575154E-02 0.17481295E+03</pdfrwt>
<totfact> 0.75732890E+04</totfact>
</mgrwt>
</event>
<event>
 4    1  0.3980289E+000  0.2051916E+03  0.7546771E-02  0.1145431E+00
         21   -1    0    0  501  502  0.00000000000E+00  0.00000000000E+00  0.12236275400E+03  0.12236275400E+03  0.00000000000E+00 0. -1.
         21   -1    0    0  502  503 -0.00000000000E+00 -0.00000000000E+00 -0.47481056921E+03  0.47481056921E+03  0.00000000000E+00 0.  1.
          6    1    1    2  501    0  0.89669051009E+02 -0.64296672293E+02 -0.19554253618E+02  0.20612124978E+03  0.17300000000E+03 0. -1.
         -6    1    1    2    0  503 -0.89669051009E+02  0.64296672293E+02 -0.33289356159E+03  0.39105207342E+03  0.17300000000E+03 0.  1.
<mgrwt>
<rscale>  2 0.20519162E+03</rscale>
<asrwt>0</asrwt>
<pdfrwt beam="1">  1       21 0.18825039E-01 0.20519162E+03</pdfrwt>
<pdfrwt beam="2">  1       21 0.73047781E-01 0.20519162E+03</pdfrwt>
<totfact> 0.43288198E+04</totfact>
</mgrwt>
</event>
<event>
 4    1  0.3980289E+000  0.1993578E+03  0.7546771E-02  0.1150282E+00
         21   -1    0    0  503  502  0.00000000000E+00  0.00000000000E+00  0.92470128745E+03  0.92470128745E+03  0.00000000000E+00 0. -1.
         21   -1    0    0  501  503 -0.00000000000E+00 -0.00000000000E+00 -0.43662747808E+02  0.43662747808E+02  0.00000000000E+00 0. -1.
          6    1    1    2  501    0 -0.91858492398E+02  0.37101954971E+02  0.37996764448E+03  0.42909083950E+03  0.17300000000E+03 0. -1.
         -6    1    1    2    0  502  0.91858492398E+02 -0.37101954971E+02  0.50107089515E+03  0.53927319575E+03  0.17300000000E+03 0. -1.
<mgrwt>
<rscale>  2 0.19935781E+03</rscale>
<asrwt>0</asrwt>
<pdfrwt beam="1">  1       21 0.14226172E+00 0.19935781E+03</pdfrwt>
<pdfrwt beam="2">  1       21 0.67173465E-02 0.19935781E+03</pdfrwt>
<totfact> 0.55549361E+04</totfact>
</mgrwt>
</event>
<event>
 4    1  0.3980289E+000  0.1755163E+03  0.7546771E-02  0.1172214E+00
         21   -1    0    0  501  502  0.00000000000E+00  0.00000000000E+00  0.34440902546E+03  0.34440902546E+03  0.00000000000E+00 0.  1.
         21   -1    0    0  502  503 -0.00000000000E+00 -0.00000000000E+00 -0.90867939306E+02  0.90867939306E+02  0.00000000000E+00 0.  1.
          6    1    1    2  501    0 -0.60710414289E+01 -0.28984700261E+02  0.15399682286E+03  0.23349730586E+03  0.17300000000E+03 0.  1.
         -6    1    1    2    0  503  0.60710414289E+01  0.28984700261E+02  0.99544263295E+02  0.20177965891E+03  0.17300000000E+03 0.  1.
<mgrwt>
<rscale>  2 0.17551630E+03</rscale>
<asrwt>0</asrwt>
<pdfrwt beam="1">  1       21 0.52986003E-01 0.17551630E+03</pdfrwt>
<pdfrwt beam="2">  1       21 0.13979683E-01 0.17551630E+03</pdfrwt>
<totfact> 0.15129108E+05</totfact>
</mgrwt>
</event>
<event>
 4    1  0.3980289E+000  0.2693831E+03  0.7546771E-02  0.1101633E+00
         21   -1    0    0  501  502  0.00000000000E+00  0.00000000000E+00  0.76242822155E+02  0.76242822155E+02  0.00000000000E+00 0. -1.
         21   -1    0    0  502  503 -0.00000000000E+00 -0.00000000000E+00 -0.10063617512E+04  0.10063617512E+04  0.00000000000E+00 0. -1.
          6    1    1    2  501    0  0.16522723687E+03 -0.12384758315E+03 -0.33900996912E+03  0.43300695470E+03  0.17300000000E+03 0. -1.
         -6    1    1    2    0  503 -0.16522723687E+03  0.12384758315E+03 -0.59110895991E+03  0.64959761864E+03  0.17300000000E+03 0. -1.
<mgrwt>
<rscale>  2 0.26938312E+03</rscale>
<asrwt>0</asrwt>
<pdfrwt beam="1">  1       21 0.11729665E-01 0.26938312E+03</pdfrwt>
<pdfrwt beam="2">  1       21 0.15482488E+00 0.26938312E+03</pdfrwt>
<totfact> 0.16027993E+04</totfact>
</mgrwt>
</event>
<event>
 4    1  0.3980289E+000  0.2055977E+03  0.7546771E-02  0.1145100E+00
         21   -1    0    0  501  502  0.00000000000E+00  0.00000000000E+00  0.98240345895E+03  0.98240345895E+03  0.00000000000E+00 0. -1.
         21   -1    0    0  502  503 -0.00000000000E+00 -0.00000000000E+00 -0.56032019794E+02  0.56032019794E+02  0.00000000000E+00 0. -1.
          6    1    1    2  501    0 -0.63393082288E+02 -0.91228954123E+02  0.71332267595E+03  0.74236085900E+03  0.17300000000E+03 0. -1.
         -6    1    1    2    0  503  0.63393082288E+02  0.91228954123E+02  0.21304876320E+03  0.29607461974E+03  0.17300000000E+03 0. -1.
<mgrwt>
<rscale>  2 0.20559768E+03</rscale>
<asrwt>0</asrwt>
<pdfrwt beam="1">  1       21 0.15113898E+00 0.20559768E+03</pdfrwt>
<pdfrwt beam="2">  1       21 0.86203114E-02 0.20559768E+03</pdfrwt>
<totfact> 0.30617353E+04</totfact>
</mgrwt>
</event>
<event>
 4    1  0.3980289E+000  0.1937120E+03  0.7546771E-02  0.1155155E+00
         21   -1    0    0  503  502  0.00000000000E+00  0.00000000000E+00  0.20190919061E+03  0.20190919061E+03  0.00000000000E+00 0. -1.
         21   -1    0    0  501  503 -0.00000000000E+00 -0.00000000000E+00 -0.40000398954E+03  0.40000398954E+03  0.00000000000E+00 0. -1.
          6    1    1    2  501    0 -0.81978737612E+02  0.29577265245E+02 -0.31925751604E+03  0.37342963137E+03  0.17300000000E+03 0. -1.
         -6    1    1    2    0  502  0.81978737612E+02 -0.29577265245E+02  0.12116271711E+03  0.22848354877E+03  0.17300000000E+03 0. -1.
<mgrwt>
<rscale>  2 0.19371197E+03</rscale>
<asrwt>0</asrwt>
<pdfrwt beam="1">  1       21 0.31062953E-01 0.19371197E+03</pdfrwt>
<pdfrwt beam="2">  1       21 0.61539075E-01 0.19371197E+03</pdfrwt>
<totfact> 0.24415511E+04</totfact>
</mgrwt>
</event>
<event>
 4    1  0.3980289E+000  0.1871228E+03  0.7546771E-02  0.1161082E+00
         21   -1    0    0  503  502  0.00000000000E+00  0.00000000000E+00  0.60740944212E+03  0.60740944212E+03  0.00000000000E+00 0. -1.
         21   -1    0    0  501  503 -0.00000000000E+00 -0.00000000000E+00 -0.58400418363E+02  0.58400418363E+02  0.00000000000E+00 0. -1.
          6    1    1    2  501    0 -0.56102372204E+02 -0.44028180441E+02  0.23667695081E+03  0.30171333395E+03  0.17300000000E+03 0. -1.
         -6    1    1    2    0  502  0.56102372204E+02  0.44028180441E+02  0.31233207295E+03  0.36409652653E+03  0.17300000000E+03 0. -1.
<mgrwt>
<rscale>  2 0.18712284E+03</rscale>
<asrwt>0</asrwt>
<pdfrwt beam="1">  1       21 0.93447602E-01 0.18712284E+03</pdfrwt>
<pdfrwt beam="2">  1       21 0.89846801E-02 0.18712284E+03</pdfrwt>
<totfact> 0.94536035E+04</totfact>
</mgrwt>
</event>
<event>
 4    1  0.3980289E+000  0.2179059E+03  0.7546771E-02  0.1135454E+00
         21   -1    0    0  501  502  0.00000000000E+00  0.00000000000E+00  0.98635623414E+02  0.98635623414E+02  0.00000000000E+00 0. -1.
         21   -1    0    0  502  503 -0.00000000000E+00 -0.00000000000E+00 -0.80219661039E+03  0.80219661039E+03  0.00000000000E+00 0. -1.
          6    1    1    2  501    0  0.13178331378E+03  0.13679531932E+02 -0.66947764794E+02  0.22795827381E+03  0.17300000000E+03 0. -1.
         -6    1    1    2    0  503 -0.13178331378E+03 -0.13679531932E+02 -0.63661322219E+03  0.67287396000E+03  0.17300000000E+03 0. -1.
<mgrwt>
<rscale>  2 0.21790588E+03</rscale>
<asrwt>0</asrwt>
<pdfrwt beam="1">  1       21 0.15174711E-01 0.21790588E+03</pdfrwt>
<pdfrwt beam="2">  1       21 0.12341487E+00 0.21790588E+03</pdfrwt>
<totfact> 0.18616194E+04</totfact>
</mgrwt>
</event>
<event>
 4    1  0.3980289E+000  0.2145701E+03  0.7546771E-02  0.1137997E+00
         21   -1    0    0  501  502  0.00000000000E+00  0.00000000000E+00  0.99410383005E+02  0.99410383005E+02  0.00000000000E+00 0.  1.
         21   -1    0    0  502  503 -0.00000000000E+00 -0.00000000000E+00 -0.97641787147E+03  0.97641787147E+03  0.00000000000E+00 0.  1.
          6    1    1    2  501    0  0.76505724637E+02  0.10128285691E+03 -0.48495455616E+02  0.21998216342E+03  0.17300000000E+03 0.  1.
         -6    1    1    2    0  503 -0.76505724637E+02 -0.10128285691E+03 -0.82851203285E+03  0.85584609106E+03  0.17300000000E+03 0.  1.
<mgrwt>
<rscale>  2 0.21457014E+03</rscale>
<asrwt>0</asrwt>
<pdfrwt beam="1">  1       21 0.15293905E-01 0.21457014E+03</pdfrwt>
<pdfrwt beam="2">  1       21 0.15021813E+00 0.21457014E+03</pdfrwt>
<totfact> 0.11096484E+04</totfact>
</mgrwt>
</event>
<event>
 4    1  0.3980289E+000  0.2177968E+03  0.7546771E-02  0.1135536E+00
         21   -1    0    0  503  502  0.00000000000E+00  0.00000000000E+00  0.19541416036E+03  0.19541416036E+03  0.00000000000E+00 0. -1.
         21   -1    0    0  501  503 -0.00000000000E+00 -0.00000000000E+00 -0.27631439906E+03  0.27631439906E+03  0.00000000000E+00 0. -1.
          6    1    1    2  501    0  0.12622566220E+03 -0.39667782704E+02 -0.12266380188E+03  0.24996371551E+03  0.17300000000E+03 0. -1.
         -6    1    1    2    0  502 -0.12622566220E+03  0.39667782704E+02  0.41763563170E+02  0.22176484390E+03  0.17300000000E+03 0. -1.
<mgrwt>
<rscale>  2 0.21779681E+03</rscale>
<asrwt>0</asrwt>
<pdfrwt beam="1">  1       21 0.30063717E-01 0.21779681E+03</pdfrwt>
<pdfrwt beam="2">  1       21 0.42509908E-01 0.21779681E+03</pdfrwt>
<totfact> 0.55844510E+04</totfact>
</mgrwt>
</event>
<event>
 4    1  0.3980289E+000  0.2045056E+03  0.7546771E-02  0.1145992E+00
         21   -1    0    0  503  502  0.00000000000E+00  0.00000000000E+00  0.10194091824E+04  0.10194091824E+04  0.00000000000E+00 0. -1.
         21   -1    0    0  501  503 -0.00000000000E+00 -0.00000000000E+00 -0.11160547473E+03  0.11160547473E+03  0.00000000000E+00 0. -1.
          6    1    1    2  501    0  0.10847028058E+03  0.11302157513E+02  0.41904341699E+01  0.20454852792E+03  0.17300000000E+03 0. -1.
         -6    1    1    2    0  502 -0.10847028058E+03 -0.11302157513E+02  0.90361327354E+03  0.92646612925E+03  0.17300000000E+03 0. -1.
<mgrwt>
<rscale>  2 0.20450560E+03</rscale>
<asrwt>0</asrwt>
<pdfrwt beam="1">  1       21 0.15683218E+00 0.20450560E+03</pdfrwt>
<pdfrwt beam="2">  1       21 0.17170074E-01 0.20450560E+03</pdfrwt>
<totfact> 0.80597743E+03</totfact>
</mgrwt>
</event>
<event>
 4    1  0.3980289E+000  0.1835610E+03  0.7546771E-02  0.1164400E+00
         21   -1    0    0  501  502  0.00000000000E+00  0.00000000000E+00  0.15285532512E+03  0.15285532512E+03  0.00000000000E+00 0. -1.
         21   -1    0    0  502  503 -0.00000000000E+00 -0.00000000000E+00 -0.24757033569E+03  0.24757033569E+03  0.00000000000E+00 0. -1.
          6    1    1    2  501    0 -0.12184309438E+02  0.60143160512E+02  0.18926774059E+02  0.18453422428E+03  0.17300000000E+03 0. -1.
         -6    1    1    2    0  503  0.12184309438E+02 -0.60143160512E+02 -0.11364178463E+03  0.21589143653E+03  0.17300000000E+03 0. -1.
<mgrwt>
<rscale>  2 0.18356104E+03</rscale>
<asrwt>0</asrwt>
<pdfrwt beam="1">  1       21 0.23516204E-01 0.18356104E+03</pdfrwt>
<pdfrwt beam="2">  1       21 0.38087743E-01 0.18356104E+03</pdfrwt>
<totfact> 0.11349576E+05</totfact>
</mgrwt>
</event>
<event>
 4    1  0.3980289E+000  0.1744570E+03  0.7546771E-02  0.1173278E+00
         21   -1    0    0  503  502  0.00000000000E+00  0.00000000000E+00  0.58936534676E+03  0.58936534676E+03  0.00000000000E+00 0. -1.
         21   -1    0    0  501  503 -0.00000000000E+00 -0.00000000000E+00 -0.85799245213E+02  0.85799245213E+02  0.00000000000E+00 0. -1.
          6    1    1    2  501    0  0.22216467413E+02 -0.35618371515E+01  0.38779223683E+02  0.17871509812E+03  0.17300000000E+03 0. -1.
         -6    1    1    2    0  502 -0.22216467413E+02  0.35618371515E+01  0.46478687786E+03  0.49644949385E+03  0.17300000000E+03 0. -1.
<mgrwt>
<rscale>  2 0.17445704E+03</rscale>
<asrwt>0</asrwt>
<pdfrwt beam="1">  1       21 0.90671589E-01 0.17445704E+03</pdfrwt>
<pdfrwt beam="2">  1       21 0.13199884E-01 0.17445704E+03</pdfrwt>
<totfact> 0.51527610E+04</totfact>
</mgrwt>
</event>
<event>
 4    1  0.3980289E+000  0.2451101E+03  0.7546771E-02  0.1116435E+00
         21   -1    0    0  501  502  0.00000000000E+00  0.00000000000E+00  0.10928643865E+04  0.10928643865E+04  0.00000000000E+00 0. -1.
         21   -1    0    0  502  503 -0.00000000000E+00 -0.00000000000E+00 -0.71472597862E+02  0.71472597862E+02  0.00000000000E+00 0.  1.
          6    1    1    2  501    0 -0.16756674572E+03  0.45511826429E+02  0.79040375634E+03  0.82753672949E+03  0.17300000000E+03 0. -1.
         -6    1    1    2    0  503  0.16756674572E+03 -0.45511826429E+02  0.23098803229E+03  0.33680025487E+03  0.17300000000E+03 0.  1.
<mgrwt>
<rscale>  2 0.24511006E+03</rscale>
<asrwt>0</asrwt>
<pdfrwt beam="1">  1       21 0.16813297E+00 0.24511006E+03</pdfrwt>
<pdfrwt beam="2">  1       21 0.10995785E-01 0.24511006E+03</pdfrwt>
<totfact> 0.14558931E+04</totfact>
</mgrwt>
</event>
<event>
 4    1  0.3980289E+000  0.2075359E+03  0.7546771E-02  0.1143532E+00
         21   -1    0    0  501  502  0.00000000000E+00  0.00000000000E+00  0.84181332727E+03  0.84181332727E+03  0.00000000000E+00 0.  1.
         21   -1    0    0  502  503 -0.00000000000E+00 -0.00000000000E+00 -0.53859065403E+02  0.53859065403E+02  0.00000000000E+00 0. -1.
          6    1    1    2  501    0  0.10772394931E+03 -0.39213537821E+02  0.49414206077E+03  0.53595478077E+03  0.17300000000E+03 0.  1.
         -6    1    1    2    0  503 -0.10772394931E+03  0.39213537821E+02  0.29381220109E+03  0.35971761190E+03  0.17300000000E+03 0. -1.
<mgrwt>
<rscale>  2 0.20753590E+03</rscale>
<asrwt>0</asrwt>
<pdfrwt beam="1">  1       21 0.12950973E+00 0.20753590E+03</pdfrwt>
<pdfrwt beam="2">  1       21 0.82860107E-02 0.20753590E+03</pdfrwt>
<totfact> 0.48863346E+04</totfact>
</mgrwt>
</event>
<event>
 4    1  0.3980289E+000  0.1869331E+03  0.7546771E-02  0.1161257E+00
         21   -1    0    0  501  502  0.00000000000E+00  0.00000000000E+00  0.82832099563E+02  0.82832099563E+02  0.00000000000E+00 0. -1.
         21   -1    0    0  502  503 -0.00000000000E+00 -0.00000000000E+00 -0.60519827268E+03  0.60519827268E+03  0.00000000000E+00 0. -1.
          6    1    1    2  501    0 -0.98543865671E+01 -0.70127663499E+02 -0.71840228843E+02  0.20026236941E+03  0.17300000000E+03 0. -1.
         -6    1    1    2    0  503  0.98543865671E+01  0.70127663499E+02 -0.45052594428E+03  0.48776800283E+03  0.17300000000E+03 0. -1.
<mgrwt>
<rscale>  2 0.18693314E+03</rscale>
<asrwt>0</asrwt>
<pdfrwt beam="1">  1       21 0.12743400E-01 0.18693314E+03</pdfrwt>
<pdfrwt beam="2">  1       21 0.93107427E-01 0.18693314E+03</pdfrwt>
<totfact> 0.51298039E+04</totfact>
</mgrwt>
</event>
<event>
 4    1  0.3980289E+000  0.1758601E+03  0.7546771E-02  0.1171871E+00
         21   -1    0    0  501  502  0.00000000000E+00  0.00000000000E+00  0.17373346317E+03  0.17373346317E+03  0.00000000000E+00 0. -1.
         21   -1    0    0  502  503 -0.00000000000E+00 -0.00000000000E+00 -0.17801345848E+03  0.17801345848E+03  0.00000000000E+00 0.  1.
          6    1    1    2  501    0  0.29745668245E+02 -0.10629364414E+02 -0.18136828197E+01  0.17586949028E+03  0.17300000000E+03 0.  1.
         -6    1    1    2    0  503 -0.29745668245E+02  0.10629364414E+02 -0.24663124870E+01  0.17587743137E+03  0.17300000000E+03 0.  1.
<mgrwt>
<rscale>  2 0.17586014E+03</rscale>
<asrwt>0</asrwt>
<pdfrwt beam="1">  1       21 0.26728225E-01 0.17586014E+03</pdfrwt>
<pdfrwt beam="2">  1       21 0.27386686E-01 0.17586014E+03</pdfrwt>
<totfact> 0.17032655E+05</totfact>
</mgrwt>
</event>
<event>
 4    1  0.3980289E+000  0.1889881E+03  0.7546771E-02  0.1159377E+00
         21   -1    0    0  501  502  0.00000000000E+00  0.00000000000E+00  0.13020381391E+03  0.13020381391E+03  0.00000000000E+00 0. -1.
         21   -1    0    0  502  503 -0.00000000000E+00 -0.00000000000E+00 -0.28184926174E+03  0.28184926174E+03  0.00000000000E+00 0. -1.
          6    1    1    2  501    0  0.66661043524E+02 -0.36657997352E+02 -0.42131732460E+02  0.19362744220E+03  0.17300000000E+03 0. -1.
         -6    1    1    2    0  503 -0.66661043524E+02  0.36657997352E+02 -0.10951371536E+03  0.21842563345E+03  0.17300000000E+03 0. -1.
<mgrwt>
<rscale>  2 0.18898810E+03</rscale>
<asrwt>0</asrwt>
<pdfrwt beam="1">  1       21 0.20031356E-01 0.18898810E+03</pdfrwt>
<pdfrwt beam="2">  1       21 0.43361425E-01 0.18898810E+03</pdfrwt>
<totfact> 0.11782704E+05</totfact>
</mgrwt>
</event>
<event>
 4    1  0.3980289E+000  0.1785040E+03  0.7546771E-02  0.1169259E+00
         21   -1    0    0  503  502  0.00000000000E+00  0.00000000000E+00  0.79230123442E+03  0.79230123442E+03  0.00000000000E+00 0.  1.
         21   -1    0    0  501  503 -0.00000000000E+00 -0.00000000000E+00 -0.41469482002E+02  0.41469482002E+02  0.00000000000E+00 0.  1.
          6    1    1    2  501    0  0.10108076870E+02 -0.42807930240E+02  0.30295546453E+03  0.35163291314E+03  0.17300000000E+03 0. -1.
         -6    1    1    2    0  502 -0.10108076870E+02  0.42807930240E+02  0.44787628788E+03  0.48213780328E+03  0.17300000000E+03 0. -1.
<mgrwt>
<rscale>  2 0.17850404E+03</rscale>
<asrwt>0</asrwt>
<pdfrwt beam="1">  1       21 0.12189249E+00 0.17850404E+03</pdfrwt>
<pdfrwt beam="2">  1       21 0.63799209E-02 0.17850404E+03</pdfrwt>
<totfact> 0.90723469E+04</totfact>
</mgrwt>
</event>
<event>
 4    1  0.3980289E+000  0.1751404E+03  0.7546771E-02  0.1172591E+00
         21   -1    0    0  501  502  0.00000000000E+00  0.00000000000E+00  0.20310064673E+03  0.20310064673E+03  0.00000000000E+00 0.  1.
         21   -1    0    0  502  503 -0.00000000000E+00 -0.00000000000E+00 -0.18305024929E+03  0.18305024929E+03  0.00000000000E+00 0.  1.
          6    1    1    2  501    0 -0.27200762324E+02 -0.22954104490E+01  0.90778247477E+02  0.19726844805E+03  0.17300000000E+03 0.  1.
         -6    1    1    2    0  503  0.27200762324E+02  0.22954104490E+01 -0.70727850036E+02  0.18888244797E+03  0.17300000000E+03 0.  1.
<mgrwt>
<rscale>  2 0.17514037E+03</rscale>
<asrwt>0</asrwt>
<pdfrwt beam="1">  1       21 0.31246254E-01 0.17514037E+03</pdfrwt>
<pdfrwt beam="2">  1       21 0.28161577E-01 0.17514037E+03</pdfrwt>
<totfact> 0.11931812E+05</totfact>
</mgrwt>
</event>
<event>
 4    1  0.3980289E+000  0.3248076E+03  0.7546771E-02  0.1073458E+00
         21   -1    0    0  503  502  0.00000000000E+00  0.00000000000E+00  0.18602296462E+03  0.18602296462E+03  0.00000000000E+00 0. -1.
         21   -1    0    0  501  503 -0.00000000000E+00 -0.00000000000E+00 -0.24286476519E+04  0.24286476519E+04  0.00000000000E+00 0.  1.
          6    1    1    2  501    0  0.27466693091E+03 -0.11361168354E+02 -0.22658703705E+04  0.22890322268E+04  0.17300000000E+03 0.  1.
         -6    1    1    2    0  502 -0.27466693091E+03  0.11361168354E+02  0.23245683265E+02  0.32563838974E+03  0.17300000000E+03 0. -1.
<mgrwt>
<rscale>  2 0.32480763E+03</rscale>
<asrwt>0</asrwt>
<pdfrwt beam="1">  1       21 0.28618917E-01 0.32480763E+03</pdfrwt>
<pdfrwt beam="2">  1       21 0.37363811E+00 0.32480763E+03</pdfrwt>
<totfact> 0.12409883E+02</totfact>
</mgrwt>
</event>
<event>
 4    1  0.3980289E+000  0.1936754E+03  0.7546771E-02  0.1155188E+00
         21   -1    0    0  503  502  0.00000000000E+00  0.00000000000E+00  0.22717843986E+03  0.22717843986E+03  0.00000000000E+00 0. -1.
         21   -1    0    0  501  503 -0.00000000000E+00 -0.00000000000E+00 -0.19996955686E+03  0.19996955686E+03  0.00000000000E+00 0. -1.
          6    1    1    2  501    0  0.84110455451E+02  0.22507291199E+02 -0.75563300721E+02  0.20789410595E+03  0.17300000000E+03 0. -1.
         -6    1    1    2    0  502 -0.84110455451E+02 -0.22507291199E+02  0.10277218372E+03  0.21925389078E+03  0.17300000000E+03 0. -1.
<mgrwt>
<rscale>  2 0.19367536E+03</rscale>
<asrwt>0</asrwt>
<pdfrwt beam="1">  1       21 0.34950529E-01 0.19367536E+03</pdfrwt>
<pdfrwt beam="2">  1       21 0.30764547E-01 0.19367536E+03</pdfrwt>
<totfact> 0.80033380E+04</totfact>
</mgrwt>
</event>
<event>
 4    1  0.3980289E+000  0.1883121E+03  0.7546771E-02  0.1159993E+00
         21   -1    0    0  503  502  0.00000000000E+00  0.00000000000E+00  0.16154021623E+03  0.16154021623E+03  0.00000000000E+00 0.  1.
         21   -1    0    0  501  503 -0.00000000000E+00 -0.00000000000E+00 -0.31046134067E+03  0.31046134067E+03  0.00000000000E+00 0.  1.
          6    1    1    2  501    0  0.26568039676E+02 -0.69473685263E+02 -0.20218917576E+03  0.27630040983E+03  0.17300000000E+03 0.  1.
         -6    1    1    2    0  502 -0.26568039676E+02  0.69473685263E+02  0.53268051315E+02  0.19570114708E+03  0.17300000000E+03 0.  1.
<mgrwt>
<rscale>  2 0.18831212E+03</rscale>
<asrwt>0</asrwt>
<pdfrwt beam="1">  1       21 0.24852341E-01 0.18831212E+03</pdfrwt>
<pdfrwt beam="2">  1       21 0.47763283E-01 0.18831212E+03</pdfrwt>
<totfact> 0.64317857E+04</totfact>
</mgrwt>
</event>
<event>
 4    1  0.3980289E+000  0.2072610E+03  0.7546771E-02  0.1143754E+00
         21   -1    0    0  503  502  0.00000000000E+00  0.00000000000E+00  0.53266907478E+03  0.53266907478E+03  0.00000000000E+00 0.  1.
         21   -1    0    0  501  503 -0.00000000000E+00 -0.00000000000E+00 -0.10489193192E+03  0.10489193192E+03  0.00000000000E+00 0.  1.
          6    1    1    2  501    0  0.35457274953E+02 -0.10849375104E+03  0.60621500728E+02  0.21594461955E+03  0.17300000000E+03 0.  1.
         -6    1    1    2    0  502 -0.35457274953E+02  0.10849375104E+03  0.36715564213E+03  0.42161638714E+03  0.17300000000E+03 0.  1.
<mgrwt>
<rscale>  2 0.20726098E+03</rscale>
<asrwt>0</asrwt>
<pdfrwt beam="1">  1       21 0.81949087E-01 0.20726098E+03</pdfrwt>
<pdfrwt beam="2">  1       21 0.16137221E-01 0.20726098E+03</pdfrwt>
<totfact> 0.44373140E+04</totfact>
</mgrwt>
</event>
<event>
 4    1  0.3980289E+000  0.2086234E+03  0.7546771E-02  0.1142661E+00
         21   -1    0    0  501  502  0.00000000000E+00  0.00000000000E+00  0.12064422266E+03  0.12064422266E+03  0.00000000000E+00 0.  1.
         21   -1    0    0  502  503 -0.00000000000E+00 -0.00000000000E+00 -0.36258239656E+03  0.36258239656E+03  0.00000000000E+00 0. -1.
          6    1    1    2  501    0  0.11545759694E+03  0.16256037640E+02 -0.10384393086E+03  0.23303921864E+03  0.17300000000E+03 0.  1.
         -6    1    1    2    0  503 -0.11545759694E+03 -0.16256037640E+02 -0.13809424304E+03  0.25018740058E+03  0.17300000000E+03 0. -1.
<mgrwt>
<rscale>  2 0.20862338E+03</rscale>
<asrwt>0</asrwt>
<pdfrwt beam="1">  1       21 0.18560650E-01 0.20862338E+03</pdfrwt>
<pdfrwt beam="2">  1       21 0.55781906E-01 0.20862338E+03</pdfrwt>
<totfact> 0.79750628E+04</totfact>
</mgrwt>
</event>
<event>
 4    1  0.3980289E+000  0.2085725E+03  0.7546771E-02  0.1142701E+00
         21   -1    0    0  503  502  0.00000000000E+00  0.00000000000E+00  0.39496322915E+02  0.39496322915E+02  0.00000000000E+00 0. -1.
         21   -1    0    0  501  503 -0.00000000000E+00 -0.00000000000E+00 -0.13984175847E+04  0.13984175847E+04  0.00000000000E+00 0. -1.
          6    1    1    2  501    0  0.11452955572E+03 -0.21364791214E+02 -0.10107846227E+04  0.10320794673E+04  0.17300000000E+03 0. -1.
         -6    1    1    2    0  502 -0.11452955572E+03  0.21364791214E+02 -0.34813663913E+03  0.40583444031E+03  0.17300000000E+03 0. -1.
<mgrwt>
<rscale>  2 0.20857247E+03</rscale>
<asrwt>0</asrwt>
<pdfrwt beam="1">  1       21 0.60763577E-02 0.20857247E+03</pdfrwt>
<pdfrwt beam="2">  1       21 0.21514116E+00 0.20857247E+03</pdfrwt>
<totfact> 0.20542317E+04</totfact>
</mgrwt>
</event>
<event>
 4    1  0.3980289E+000  0.1984772E+03  0.7546771E-02  0.1151030E+00
         21   -1    0    0  503  502  0.00000000000E+00  0.00000000000E+00  0.16871976496E+04  0.16871976496E+04  0.00000000000E+00 0. -1.
         21   -1    0    0  501  503 -0.00000000000E+00 -0.00000000000E+00 -0.36133384116E+02  0.36133384116E+02  0.00000000000E+00 0.  1.
          6    1    1    2  501    0 -0.88197291102E+02 -0.41054165735E+02  0.31298230670E+03  0.37060913506E+03  0.17300000000E+03 0.  1.
         -6    1    1    2    0  502  0.88197291102E+02  0.41054165735E+02  0.13380819588E+04  0.13527218987E+04  0.17300000000E+03 0. -1.
<mgrwt>
<rscale>  2 0.19847722E+03</rscale>
<asrwt>0</asrwt>
<pdfrwt beam="1">  1       21 0.25956881E+00 0.19847722E+03</pdfrwt>
<pdfrwt beam="2">  1       21 0.55589835E-02 0.19847722E+03</pdfrwt>
<totfact> 0.13057690E+04</totfact>
</mgrwt>
</event>
<event>
 4    1  0.3980289E+000  0.2170532E+03  0.7546771E-02  0.1136099E+00
         21   -1    0    0  503  502  0.00000000000E+00  0.00000000000E+00  0.47661780538E+03  0.47661780538E+03  0.00000000000E+00 0.  1.
         21   -1    0    0  501  503 -0.00000000000E+00 -0.00000000000E+00 -0.15462174524E+03  0.15462174524E+03  0.00000000000E+00 0.  1.
          6    1    1    2  501    0 -0.12474920542E+03  0.40258103008E+02 -0.28562988857E+02  0.21892446972E+03  0.17300000000E+03 0.  1.
         -6    1    1    2    0  502  0.12474920542E+03 -0.40258103008E+02  0.35055904899E+03  0.41231508090E+03  0.17300000000E+03 0.  1.
<mgrwt>
<rscale>  2 0.21705317E+03</rscale>
<asrwt>0</asrwt>
<pdfrwt beam="1">  1       21 0.73325816E-01 0.21705317E+03</pdfrwt>
<pdfrwt beam="2">  1       21 0.23787961E-01 0.21705317E+03</pdfrwt>
<totfact> 0.27464171E+04</totfact>
</mgrwt>
</event>
<event>
 4    1  0.3980289E+000  0.2533175E+03  0.7546771E-02  0.1111226E+00
         21   -1    0    0  501  502  0.00000000000E+00  0.00000000000E+00  0.29412217313E+02  0.29412217313E+02  0.00000000000E+00 0.  1.
         21   -1    0    0  502  503 -0.00000000000E+00 -0.00000000000E+00 -0.22249121683E+04  0.22249121683E+04  0.00000000000E+00 0.  1.
          6    1    1    2  501    0 -0.17068405779E+03  0.71468172134E+02 -0.94073437054E+03  0.97424375961E+03  0.17300000000E+03 0.  1.
         -6    1    1    2    0  503  0.17068405779E+03 -0.71468172134E+02 -0.12547655804E+04  0.12800806260E+04  0.17300000000E+03 0.  1.
<mgrwt>
<rscale>  2 0.25331748E+03</rscale>
<asrwt>0</asrwt>
<pdfrwt beam="1">  1       21 0.45249566E-02 0.25331748E+03</pdfrwt>
<pdfrwt beam="2">  1       21 0.34229418E+00 0.25331748E+03</pdfrwt>
<totfact> 0.57896127E+03</totfact>
</mgrwt>
</event>
<event>
 4    1  0.3980289E+000  0.1986986E+03  0.7546771E-02  0.1150842E+00
         21   -1    0    0  503  502  0.00000000000E+00  0.00000000000E+00  0.15691819068E+04  0.15691819068E+04  0.00000000000E+00 0.  1.
         21   -1    0    0  501  503 -0.00000000000E+00 -0.00000000000E+00 -0.35454303566E+02  0.35454303566E+02  0.00000000000E+00 0. -1.
          6    1    1    2  501    0  0.78482788260E+02 -0.58245768631E+02  0.33454525639E+03  0.38910364454E+03  0.17300000000E+03 0. -1.
         -6    1    1    2    0  502 -0.78482788260E+02  0.58245768631E+02  0.11991823469E+04  0.12155325658E+04  0.17300000000E+03 0.  1.
<mgrwt>
<rscale>  2 0.19869856E+03</rscale>
<asrwt>0</asrwt>
<pdfrwt beam="1">  1       21 0.24141255E+00 0.19869856E+03</pdfrwt>
<pdfrwt beam="2">  1       21 0.54545094E-02 0.19869856E+03</pdfrwt>
<totfact> 0.17248462E+04</totfact>
</mgrwt>
</event>
<event>
 4    1  0.3980289E+000  0.2469798E+03  0.7546771E-02  0.1115229E+00
         21   -1    0    0  501  502  0.00000000000E+00  0.00000000000E+00  0.20800702582E+03  0.20800702582E+03  0.00000000000E+00 0. -1.
         21   -1    0    0  502  503 -0.00000000000E+00 -0.00000000000E+00 -0.42286996764E+03  0.42286996764E+03  0.00000000000E+00 0. -1.
          6    1    1    2  501    0  0.15278669543E+03  0.87899129586E+02  0.67206793788E+02  0.25596051339E+03  0.17300000000E+03 0. -1.
         -6    1    1    2    0  503 -0.15278669543E+03 -0.87899129586E+02 -0.28206973561E+03  0.37491648007E+03  0.17300000000E+03 0. -1.
<mgrwt>
<rscale>  2 0.24697982E+03</rscale>
<asrwt>0</asrwt>
<pdfrwt beam="1">  1       21 0.32001081E-01 0.24697982E+03</pdfrwt>
<pdfrwt beam="2">  1       21 0.65056917E-01 0.24697982E+03</pdfrwt>
<totfact> 0.19826450E+04</totfact>
</mgrwt>
</event>
<event>
 4    1  0.3980289E+000  0.2412935E+03  0.7546771E-02  0.1118934E+00
         21   -1    0    0  501  502  0.00000000000E+00  0.00000000000E+00  0.62458082415E+02  0.62458082415E+02  0.00000000000E+00 0. -1.
         21   -1    0    0  502  503 -0.00000000000E+00 -0.00000000000E+00 -0.12077266562E+04  0.12077266562E+04  0.00000000000E+00 0. -1.
          6    1    1    2  501    0  0.16258991925E+03 -0.43105120198E+02 -0.26928315156E+03  0.36157426477E+03  0.17300000000E+03 0. -1.
         -6    1    1    2    0  503 -0.16258991925E+03  0.43105120198E+02 -0.87598542224E+03  0.90861047386E+03  0.17300000000E+03 0. -1.
<mgrwt>
<rscale>  2 0.24129346E+03</rscale>
<asrwt>0</asrwt>
<pdfrwt beam="1">  1       21 0.96089361E-02 0.24129346E+03</pdfrwt>
<pdfrwt beam="2">  1       21 0.18580409E+00 0.24129346E+03</pdfrwt>
<totfact> 0.13983683E+04</totfact>
</mgrwt>
</event>
<event>
 4    1  0.3980289E+000  0.1797844E+03  0.7546771E-02  0.1168012E+00
         21   -1    0    0  501  502  0.00000000000E+00  0.00000000000E+00  0.10577084934E+04  0.10577084934E+04  0.00000000000E+00 0.  1.
         21   -1    0    0  502  503 -0.00000000000E+00 -0.00000000000E+00 -0.45484034697E+02  0.45484034697E+02  0.00000000000E+00 0.  1.
          6    1    1    2  501    0  0.24218719982E+02  0.42507286472E+02  0.82208586579E+03  0.84151505425E+03  0.17300000000E+03 0.  1.
         -6    1    1    2    0  503 -0.24218719982E+02 -0.42507286472E+02  0.19013859290E+03  0.26167747383E+03  0.17300000000E+03 0.  1.
<mgrwt>
<rscale>  2 0.17978436E+03</rscale>
<asrwt>0</asrwt>
<pdfrwt beam="1">  1       21 0.16272436E+00 0.17978436E+03</pdfrwt>
<pdfrwt beam="2">  1       21 0.69975446E-02 0.17978436E+03</pdfrwt>
<totfact> 0.36688308E+04</totfact>
</mgrwt>
</event>
<event>
 4    1  0.3980289E+000  0.1778893E+03  0.7546771E-02  0.1169862E+00
         21   -1    0    0  501  502  0.00000000000E+00  0.00000000000E+00  0.61217698101E+02  0.61217698101E+02  0.00000000000E+00 0. -1.
         21   -1    0    0  502  503 -0.00000000000E+00 -0.00000000000E+00 -0.56862722942E+03  0.56862722942E+03  0.00000000000E+00 0. -1.
          6    1    1    2  501    0 -0.37327461583E+02 -0.17951463167E+02 -0.15873848424E+03  0.23841665378E+03  0.17300000000E+03 0. -1.
         -6    1    1    2    0  503  0.37327461583E+02  0.17951463167E+02 -0.34867104707E+03  0.39142827374E+03  0.17300000000E+03 0. -1.
<mgrwt>
<rscale>  2 0.17788928E+03</rscale>
<asrwt>0</asrwt>
<pdfrwt beam="1">  1       21 0.94181074E-02 0.17788928E+03</pdfrwt>
<pdfrwt beam="2">  1       21 0.87481112E-01 0.17788928E+03</pdfrwt>
<totfact> 0.10176698E+05</totfact>
</mgrwt>
</event>
<event>
 4    1  0.3980289E+000  0.1859618E+03  0.7546771E-02  0.1162155E+00
         21   -1    0    0  503  502  0.00000000000E+00  0.00000000000E+00  0.17458824577E+02  0.17458824577E+02  0.00000000000E+00 0. -1.
         21   -1    0    0  501  503 -0.00000000000E+00 -0.00000000000E+00 -0.22928563122E+04  0.22928563122E+04  0.00000000000E+00 0.  1.
          6    1    1    2  501    0 -0.67430273435E+02 -0.10293013904E+02 -0.15638809093E+04  0.15748985004E+04  0.17300000000E+03 0.  1.
         -6    1    1    2    0  502  0.67430273435E+02  0.10293013904E+02 -0.71151657824E+03  0.73541663635E+03  0.17300000000E+03 0. -1.
<mgrwt>
<rscale>  2 0.18596179E+03</rscale>
<asrwt>0</asrwt>
<pdfrwt beam="1">  1       21 0.26859718E-02 0.18596179E+03</pdfrwt>
<pdfrwt beam="2">  1       21 0.35274729E+00 0.18596179E+03</pdfrwt>
<totfact> 0.12896349E+04</totfact>
</mgrwt>
</event>
<event>
 4    1  0.3980289E+000  0.2051822E+03  0.7546771E-02  0.1145439E+00
         21   -1    0    0  503  502  0.00000000000E+00  0.00000000000E+00  0.10638113485E+03  0.10638113485E+03  0.00000000000E+00 0. -1.
         21   -1    0    0  501  503 -0.00000000000E+00 -0.00000000000E+00 -0.39873903293E+03  0.39873903293E+03  0.00000000000E+00 0.  1.
          6    1    1    2  501    0 -0.60851056080E+02  0.92021144369E+02 -0.12429177742E+03  0.23989203399E+03  0.17300000000E+03 0. -1.
         -6    1    1    2    0  502  0.60851056080E+02 -0.92021144369E+02 -0.16806612066E+03  0.26522813379E+03  0.17300000000E+03 0.  1.
<mgrwt>
<rscale>  2 0.20518222E+03</rscale>
<asrwt>0</asrwt>
<pdfrwt beam="1">  1       21 0.16366329E-01 0.20518222E+03</pdfrwt>
<pdfrwt beam="2">  1       21 0.61344466E-01 0.20518222E+03</pdfrwt>
<totfact> 0.82198650E+04</totfact>
</mgrwt>
</event>
<event>
 4    1  0.3980289E+000  0.2812786E+03  0.7546771E-02  0.1094993E+00
         21   -1    0    0  503  502  0.00000000000E+00  0.00000000000E+00  0.30475377851E+03  0.30475377851E+03  0.00000000000E+00 0. -1.
         21   -1    0    0  501  503 -0.00000000000E+00 -0.00000000000E+00 -0.70133276526E+03  0.70133276526E+03  0.00000000000E+00 0. -1.
          6    1    1    2  501    0  0.22169601246E+03  0.62876241623E+01 -0.59751411702E+03  0.66040955187E+03  0.17300000000E+03 0. -1.
         -6    1    1    2    0  502 -0.22169601246E+03 -0.62876241623E+01  0.20093513027E+03  0.34567699191E+03  0.17300000000E+03 0. -1.
<mgrwt>
<rscale>  2 0.28127861E+03</rscale>
<asrwt>0</asrwt>
<pdfrwt beam="1">  1       21 0.46885197E-01 0.28127861E+03</pdfrwt>
<pdfrwt beam="2">  1       21 0.10789735E+00 0.28127861E+03</pdfrwt>
<totfact> 0.27922930E+03</totfact>
</mgrwt>
</event>
<event>
 4    1  0.3980289E+000  0.3428895E+03  0.7546771E-02  0.1065572E+00
         21   -1    0    0  503  502  0.00000000000E+00  0.00000000000E+00  0.34028239076E+03  0.34028239076E+03  0.00000000000E+00 0. -1.
         21   -1    0    0  501  503 -0.00000000000E+00 -0.00000000000E+00 -0.38089421703E+03  0.38089421703E+03  0.00000000000E+00 0.  1.
          6    1    1    2  501    0 -0.23771143391E+03 -0.17645806679E+03  0.89588204866E+02  0.35439980474E+03  0.17300000000E+03 0. -1.
         -6    1    1    2    0  502  0.23771143391E+03  0.17645806679E+03 -0.13020003114E+03  0.36677680305E+03  0.17300000000E+03 0.  1.
<mgrwt>
<rscale>  2 0.34288945E+03</rscale>
<asrwt>0</asrwt>
<pdfrwt beam="1">  1       21 0.52351137E-01 0.34288945E+03</pdfrwt>
<pdfrwt beam="2">  1       21 0.58599110E-01 0.34288945E+03</pdfrwt>
<totfact> 0.87081072E+03</totfact>
</mgrwt>
</event>
<event>
 4    1  0.3980289E+000  0.1894095E+03  0.7546771E-02  0.1158995E+00
         21   -1    0    0  501  502  0.00000000000E+00  0.00000000000E+00  0.16311800686E+03  0.16311800686E+03  0.00000000000E+00 0.  1.
         21   -1    0    0  502  503 -0.00000000000E+00 -0.00000000000E+00 -0.47850785884E+03  0.47850785884E+03  0.00000000000E+00 0.  1.
          6    1    1    2  501    0  0.74216847297E+02  0.20948388646E+02  0.78133213272E+02  0.20489210435E+03  0.17300000000E+03 0.  1.
         -6    1    1    2    0  503 -0.74216847297E+02 -0.20948388646E+02 -0.39352306525E+03  0.43673376134E+03  0.17300000000E+03 0.  1.
<mgrwt>
<rscale>  2 0.18940954E+03</rscale>
<asrwt>0</asrwt>
<pdfrwt beam="1">  1       21 0.25095078E-01 0.18940954E+03</pdfrwt>
<pdfrwt beam="2">  1       21 0.73616593E-01 0.18940954E+03</pdfrwt>
<totfact> 0.24967611E+04</totfact>
</mgrwt>
</event>
<event>
 4    1  0.3980289E+000  0.2035814E+03  0.7546771E-02  0.1146752E+00
         21   -1    0    0  501  502  0.00000000000E+00  0.00000000000E+00  0.44706941882E+03  0.44706941882E+03  0.00000000000E+00 0.  1.
         21   -1    0    0  502  503 -0.00000000000E+00 -0.00000000000E+00 -0.21836891620E+03  0.21836891620E+03  0.00000000000E+00 0.  1.
          6    1    1    2  501    0 -0.78869868395E+02  0.72773132910E+02  0.36674971236E+03  0.41946482156E+03  0.17300000000E+03 0.  1.
         -6    1    1    2    0  503  0.78869868395E+02 -0.72773132910E+02 -0.13804920974E+03  0.24597351346E+03  0.17300000000E+03 0.  1.
<mgrwt>
<rscale>  2 0.20358140E+03</rscale>
<asrwt>0</asrwt>
<pdfrwt beam="1">  1       21 0.68779910E-01 0.20358140E+03</pdfrwt>
<pdfrwt beam="2">  1       21 0.33595218E-01 0.20358140E+03</pdfrwt>
<totfact> 0.16324619E+04</totfact>
</mgrwt>
</event>
<event>
 4    1  0.3980289E+000  0.2895882E+03  0.7546771E-02  0.1090564E+00
         21   -1    0    0  503  502  0.00000000000E+00  0.00000000000E+00  0.14496469113E+04  0.14496469113E+04  0.00000000000E+00 0.  1.
         21   -1    0    0  501  503 -0.00000000000E+00 -0.00000000000E+00 -0.66998232556E+02  0.66998232556E+02  0.00000000000E+00 0. -1.
          6    1    1    2  501    0 -0.18120803902E+03 -0.14524451068E+03  0.41110169313E+03  0.50285775661E+03  0.17300000000E+03 0. -1.
         -6    1    1    2    0  502  0.18120803902E+03  0.14524451068E+03  0.97154698561E+03  0.10137873872E+04  0.17300000000E+03 0.  1.
<mgrwt>
<rscale>  2 0.28958819E+03</rscale>
<asrwt>0</asrwt>
<pdfrwt beam="1">  1       21 0.22302258E+00 0.28958819E+03</pdfrwt>
<pdfrwt beam="2">  1       21 0.10307421E-01 0.28958819E+03</pdfrwt>
<totfact> 0.68812924E+03</totfact>
</mgrwt>
</event>
<event>
 4    1  0.3980289E+000  0.2344275E+03  0.7546771E-02  0.1123562E+00
         21   -1    0    0  501  502  0.00000000000E+00  0.00000000000E+00  0.86910376017E+02  0.86910376017E+02  0.00000000000E+00 0. -1.
         21   -1    0    0  502  503 -0.00000000000E+00 -0.00000000000E+00 -0.92848815174E+03  0.92848815174E+03  0.00000000000E+00 0.  1.
          6    1    1    2  501    0 -0.15639435990E+03 -0.23834167764E+02 -0.13405548060E+03  0.27005024577E+03  0.17300000000E+03 0. -1.
         -6    1    1    2    0  503  0.15639435990E+03  0.23834167764E+02 -0.70752229512E+03  0.74534828198E+03  0.17300000000E+03 0. -1.
<mgrwt>
<rscale>  2 0.23442752E+03</rscale>
<asrwt>0</asrwt>
<pdfrwt beam="1">  1       21 0.13370827E-01 0.23442752E+03</pdfrwt>
<pdfrwt beam="2">  1       21 0.14284433E+00 0.23442752E+03</pdfrwt>
<totfact> 0.15972332E+04</totfact>
</mgrwt>
</event>
<event>
 4    1  0.3980289E+000  0.3372814E+03  0.7546771E-02  0.1067960E+00
         21   -1    0    0  503  502  0.00000000000E+00  0.00000000000E+00  0.59283280486E+02  0.59283280486E+02  0.00000000000E+00 0.  1.
         21   -1    0    0  501  503 -0.00000000000E+00 -0.00000000000E+00 -0.20359331606E+04  0.20359331606E+04  0.00000000000E+00 0.  1.
          6    1    1    2  501    0 -0.26019146163E+03  0.12700442378E+03 -0.12394965561E+04  0.12845662431E+04  0.17300000000E+03 0.  1.
         -6    1    1    2    0  502  0.26019146163E+03 -0.12700442378E+03 -0.73715332404E+03  0.81065019800E+03  0.17300000000E+03 0.  1.
<mgrwt>
<rscale>  2 0.33728137E+03</rscale>
<asrwt>0</asrwt>
<pdfrwt beam="1">  1       21 0.91205055E-02 0.33728137E+03</pdfrwt>
<pdfrwt beam="2">  1       21 0.31322046E+00 0.33728137E+03</pdfrwt>
<totfact> 0.23850179E+03</totfact>
</mgrwt>
</event>
<event>
 4    1  0.3980289E+000  0.3192621E+03  0.7546771E-02  0.1075989E+00
         21   -1    0    0  503  502  0.00000000000E+00  0.00000000000E+00  0.13832736570E+04  0.13832736570E+04  0.00000000000E+00 0. -1.
         21   -1    0    0  501  503 -0.00000000000E+00 -0.00000000000E+00 -0.38673086233E+03  0.38673086233E+03  0.00000000000E+00 0.  1.
          6    1    1    2  501    0 -0.11624544728E+03  0.24183938976E+03 -0.29796689134E+03  0.43670649502E+03  0.17300000000E+03 0.  1.
         -6    1    1    2    0  502  0.11624544728E+03 -0.24183938976E+03  0.12945096860E+04  0.13332980243E+04  0.17300000000E+03 0. -1.
<mgrwt>
<rscale>  2 0.31926211E+03</rscale>
<asrwt>0</asrwt>
<pdfrwt beam="1">  1       21 0.21281133E+00 0.31926211E+03</pdfrwt>
<pdfrwt beam="2">  1       21 0.59497057E-01 0.31926211E+03</pdfrwt>
<totfact> 0.25857338E+02</totfact>
</mgrwt>
</event>
<event>
 4    1  0.3980289E+000  0.2357221E+03  0.7546771E-02  0.1122676E+00
         21   -1    0    0  503  502  0.00000000000E+00  0.00000000000E+00  0.42057613773E+02  0.42057613773E+02  0.00000000000E+00 0. -1.
         21   -1    0    0  501  503 -0.00000000000E+00 -0.00000000000E+00 -0.26319428101E+04  0.26319428101E+04  0.00000000000E+00 0.  1.
          6    1    1    2  501    0  0.11482540843E+03  0.11158427761E+03 -0.22384781579E+04  0.22508552572E+04  0.17300000000E+03 0.  1.
         -6    1    1    2    0  502 -0.11482540843E+03 -0.11158427761E+03 -0.35140703843E+03  0.42314516668E+03  0.17300000000E+03 0. -1.
<mgrwt>
<rscale>  2 0.23572214E+03</rscale>
<asrwt>0</asrwt>
<pdfrwt beam="1">  1       21 0.64704004E-02 0.23572214E+03</pdfrwt>
<pdfrwt beam="2">  1       21 0.40491439E+00 0.23572214E+03</pdfrwt>
<totfact> 0.13250697E+03</totfact>
</mgrwt>
</event>
<event>
 4    1  0.3980289E+000  0.2546385E+03  0.7546771E-02  0.1110408E+00
         21   -1    0    0  503  502  0.00000000000E+00  0.00000000000E+00  0.73955982831E+02  0.73955982831E+02  0.00000000000E+00 0. -1.
         21   -1    0    0  501  503 -0.00000000000E+00 -0.00000000000E+00 -0.90798576668E+03  0.90798576668E+03  0.00000000000E+00 0.  1.
          6    1    1    2  501    0 -0.37925332954E+02  0.18295749923E+03 -0.50808053635E+03  0.56831910827E+03  0.17300000000E+03 0. -1.
         -6    1    1    2    0  502  0.37925332954E+02 -0.18295749923E+03 -0.32594924750E+03  0.41362264125E+03  0.17300000000E+03 0. -1.
<mgrwt>
<rscale>  2 0.25463852E+03</rscale>
<asrwt>0</asrwt>
<pdfrwt beam="1">  1       21 0.11377844E-01 0.25463852E+03</pdfrwt>
<pdfrwt beam="2">  1       21 0.13969011E+00 0.25463852E+03</pdfrwt>
<totfact> 0.22402944E+04</totfact>
</mgrwt>
</event>
<event>
 4    1  0.3980289E+000  0.1735901E+03  0.7546771E-02  0.1174155E+00
         21   -1    0    0  503  502  0.00000000000E+00  0.00000000000E+00  0.10707411994E+03  0.10707411994E+03  0.00000000000E+00 0. -1.
         21   -1    0    0  501  503 -0.00000000000E+00 -0.00000000000E+00 -0.39657609478E+03  0.39657609478E+03  0.00000000000E+00 0. -1.
          6    1    1    2  501    0  0.13978986600E+02 -0.30212081266E+01 -0.28044671601E+03  0.32982404443E+03  0.17300000000E+03 0.  1.
         -6    1    1    2    0  502 -0.13978986600E+02  0.30212081266E+01 -0.90552588235E+01  0.17382617029E+03  0.17300000000E+03 0.  1.
<mgrwt>
<rscale>  2 0.17359015E+03</rscale>
<asrwt>0</asrwt>
<pdfrwt beam="1">  1       21 0.16472942E-01 0.17359015E+03</pdfrwt>
<pdfrwt beam="2">  1       21 0.61011707E-01 0.17359015E+03</pdfrwt>
<totfact> 0.83281097E+04</totfact>
</mgrwt>
</event>
<event>
 4    1  0.3980289E+000  0.1794357E+03  0.7546771E-02  0.1168350E+00
         21   -1    0    0  503  502  0.00000000000E+00  0.00000000000E+00  0.56662007768E+02  0.56662007768E+02  0.00000000000E+00 0. -1.
         21   -1    0    0  501  503 -0.00000000000E+00 -0.00000000000E+00 -0.12476729762E+04  0.12476729762E+04  0.00000000000E+00 0. -1.
          6    1    1    2  501    0 -0.47597206214E+02  0.16399187496E+01 -0.10767707652E+04  0.10916191938E+04  0.17300000000E+03 0. -1.
         -6    1    1    2    0  502  0.47597206214E+02 -0.16399187496E+01 -0.11424020323E+03  0.21271579021E+03  0.17300000000E+03 0. -1.
<mgrwt>
<rscale>  2 0.17943574E+03</rscale>
<asrwt>0</asrwt>
<pdfrwt beam="1">  1       21 0.87172320E-02 0.17943574E+03</pdfrwt>
<pdfrwt beam="2">  1       21 0.19194969E+00 0.17943574E+03</pdfrwt>
<totfact> 0.15807015E+04</totfact>
</mgrwt>
</event>
<event>
 4    1  0.3980289E+000  0.2623494E+03  0.7546771E-02  0.1105740E+00
         21   -1    0    0  503  502  0.00000000000E+00  0.00000000000E+00  0.14824432689E+04  0.14824432689E+04  0.00000000000E+00 0.  1.
         21   -1    0    0  501  503 -0.00000000000E+00 -0.00000000000E+00 -0.11050332840E+03  0.11050332840E+03  0.00000000000E+00 0.  1.
          6    1    1    2  501    0 -0.12624674494E+03  0.15152541810E+03  0.79473556427E+02  0.27412267165E+03  0.17300000000E+03 0.  1.
         -6    1    1    2    0  502  0.12624674494E+03 -0.15152541810E+03  0.12924663841E+04  0.13188239257E+04  0.17300000000E+03 0.  1.
<mgrwt>
<rscale>  2 0.26234937E+03</rscale>
<asrwt>0</asrwt>
<pdfrwt beam="1">  1       21 0.22806818E+00 0.26234937E+03</pdfrwt>
<pdfrwt beam="2">  1       21 0.17000513E-01 0.26234937E+03</pdfrwt>
<totfact> 0.26283481E+03</totfact>
</mgrwt>
</event>
<event>
 4    1  0.3980289E+000  0.1887886E+03  0.7546771E-02  0.1159559E+00
         21   -1    0    0  501  502  0.00000000000E+00  0.00000000000E+00  0.75869908853E+03  0.75869908853E+03  0.00000000000E+00 0. -1.
         21   -1    0    0  502  503 -0.00000000000E+00 -0.00000000000E+00 -0.11685372881E+03  0.11685372881E+03  0.00000000000E+00 0. -1.
          6    1    1    2  501    0  0.72249470441E+02 -0.22184271734E+02  0.65945371795E+03  0.68594484765E+03  0.17300000000E+03 0. -1.
         -6    1    1    2    0  503 -0.72249470441E+02  0.22184271734E+02 -0.17608358232E+02  0.18960796969E+03  0.17300000000E+03 0. -1.
<mgrwt>
<rscale>  2 0.18878858E+03</rscale>
<asrwt>0</asrwt>
<pdfrwt beam="1">  1       21 0.11672293E+00 0.18878858E+03</pdfrwt>
<pdfrwt beam="2">  1       21 0.17977497E-01 0.18878858E+03</pdfrwt>
<totfact> 0.15950185E+04</totfact>
</mgrwt>
</event>
<event>
 4    1  0.3980289E+000  0.2293110E+03  0.7546771E-02  0.1127126E+00
         21   -1    0    0  501  502  0.00000000000E+00  0.00000000000E+00  0.60955458934E+02  0.60955458934E+02  0.00000000000E+00 0.  1.
         21   -1    0    0  502  503 -0.00000000000E+00 -0.00000000000E+00 -0.11915926421E+04  0.11915926421E+04  0.00000000000E+00 0. -1.
          6    1    1    2  501    0 -0.73577920101E+02  0.13130440400E+03 -0.23627228295E+03  0.32925392713E+03  0.17300000000E+03 0. -1.
         -6    1    1    2    0  503  0.73577920101E+02 -0.13130440400E+03 -0.89436490026E+03  0.92329417395E+03  0.17300000000E+03 0. -1.
<mgrwt>
<rscale>  2 0.22931105E+03</rscale>
<asrwt>0</asrwt>
<pdfrwt beam="1">  1       21 0.93777631E-02 0.22931105E+03</pdfrwt>
<pdfrwt beam="2">  1       21 0.18332194E+00 0.22931105E+03</pdfrwt>
<totfact> 0.15292507E+04</totfact>
</mgrwt>
</event>
<event>
 4    1  0.3980289E+000  0.1948291E+03  0.7546771E-02  0.1154177E+00
         21   -1    0    0  503  502  0.00000000000E+00  0.00000000000E+00  0.62954031974E+02  0.62954031974E+02  0.00000000000E+00 0. -1.
         21   -1    0    0  501  503 -0.00000000000E+00 -0.00000000000E+00 -0.65404946161E+03  0.65404946161E+03  0.00000000000E+00 0.  1.
          6    1    1    2  501    0 -0.78509502244E+01 -0.89262121087E+02 -0.39575022685E+03  0.44110838320E+03  0.17300000000E+03 0.  1.
         -6    1    1    2    0  502  0.78509502244E+01  0.89262121087E+02 -0.19534520279E+03  0.27589511038E+03  0.17300000000E+03 0.  1.
<mgrwt>
<rscale>  2 0.19482906E+03</rscale>
<asrwt>0</asrwt>
<pdfrwt beam="1">  1       21 0.96852357E-02 0.19482906E+03</pdfrwt>
<pdfrwt beam="2">  1       21 0.10062299E+00 0.19482906E+03</pdfrwt>
<totfact> 0.69382734E+04</totfact>
</mgrwt>
</event>
<event>
 4    1  0.3980289E+000  0.3183207E+03  0.7546771E-02  0.1076425E+00
         21   -1    0    0  501  502  0.00000000000E+00  0.00000000000E+00  0.36973661987E+03  0.36973661987E+03  0.00000000000E+00 0.  1.
         21   -1    0    0  502  503 -0.00000000000E+00 -0.00000000000E+00 -0.27487588930E+03  0.27487588930E+03  0.00000000000E+00 0. -1.
          6    1    1    2  501    0  0.14858027484E+03 -0.22208771446E+03  0.65047179689E+02  0.32489873280E+03  0.17300000000E+03 0.  1.
         -6    1    1    2    0  503 -0.14858027484E+03  0.22208771446E+03  0.29813550887E+02  0.31971377637E+03  0.17300000000E+03 0. -1.
<mgrwt>
<rscale>  2 0.31832067E+03</rscale>
<asrwt>0</asrwt>
<pdfrwt beam="1">  1       21 0.56882557E-01 0.31832067E+03</pdfrwt>
<pdfrwt beam="2">  1       21 0.42288598E-01 0.31832067E+03</pdfrwt>
<totfact> 0.14663727E+04</totfact>
</mgrwt>
</event>
<event>
 4    1  0.3980289E+000  0.2280437E+03  0.7546771E-02  0.1128024E+00
         21   -1    0    0  503  502  0.00000000000E+00  0.00000000000E+00  0.11922034862E+03  0.11922034862E+03  0.00000000000E+00 0.  1.
         21   -1    0    0  501  503 -0.00000000000E+00 -0.00000000000E+00 -0.45614593891E+03  0.45614593891E+03  0.00000000000E+00 0. -1.
          6    1    1    2  501    0  0.64590813419E+01  0.14843588747E+03 -0.22862008446E+03  0.32291032105E+03  0.17300000000E+03 0. -1.
         -6    1    1    2    0  502 -0.64590813419E+01 -0.14843588747E+03 -0.10830550582E+03  0.25245596648E+03  0.17300000000E+03 0. -1.
<mgrwt>
<rscale>  2 0.22804371E+03</rscale>
<asrwt>0</asrwt>
<pdfrwt beam="1">  1       21 0.18341592E-01 0.22804371E+03</pdfrwt>
<pdfrwt beam="2">  1       21 0.70176298E-01 0.22804371E+03</pdfrwt>
<totfact> 0.49132757E+04</totfact>
</mgrwt>
</event>
<event>
 4    1  0.3980289E+000  0.2002307E+03  0.7546771E-02  0.1149544E+00
         21   -1    0    0  503  502  0.00000000000E+00  0.00000000000E+00  0.11618365223E+04  0.11618365223E+04  0.00000000000E+00 0. -1.
         21   -1    0    0  501  503 -0.00000000000E+00 -0.00000000000E+00 -0.51033010053E+02  0.51033010053E+02  0.00000000000E+00 0. -1.
          6    1    1    2  501    0 -0.94568998145E+02 -0.34929215305E+02  0.21031136879E+03  0.29038460244E+03  0.17300000000E+03 0. -1.
         -6    1    1    2    0  502  0.94568998145E+02  0.34929215305E+02  0.90049214349E+03  0.92248492995E+03  0.17300000000E+03 0. -1.
<mgrwt>
<rscale>  2 0.20023073E+03</rscale>
<asrwt>0</asrwt>
<pdfrwt beam="1">  1       21 0.17874406E+00 0.20023073E+03</pdfrwt>
<pdfrwt beam="2">  1       21 0.78512332E-02 0.20023073E+03</pdfrwt>
<totfact> 0.22887224E+04</totfact>
</mgrwt>
</event>
<event>
 4    1  0.3980289E+000  0.1876123E+03  0.7546771E-02  0.1160633E+00
         21   -1    0    0  503  502  0.00000000000E+00  0.00000000000E+00  0.16219986928E+03  0.16219986928E+03  0.00000000000E+00 0. -1.
         21   -1    0    0  501  503 -0.00000000000E+00 -0.00000000000E+00 -0.22835465329E+03  0.22835465329E+03  0.00000000000E+00 0. -1.
          6    1    1    2  501    0  0.39231079399E+02 -0.61076191546E+02 -0.76610021826E+02  0.20265111450E+03  0.17300000000E+03 0. -1.
         -6    1    1    2    0  502 -0.39231079399E+02  0.61076191546E+02  0.10455237819E+02  0.18790340806E+03  0.17300000000E+03 0. -1.
<mgrwt>
<rscale>  2 0.18761231E+03</rscale>
<asrwt>0</asrwt>
<pdfrwt beam="1">  1       21 0.24953826E-01 0.18761231E+03</pdfrwt>
<pdfrwt beam="2">  1       21 0.35131485E-01 0.18761231E+03</pdfrwt>
<totfact> 0.11894121E+05</totfact>
</mgrwt>
</event>
<event>
 4    1  0.3980289E+000  0.1799045E+03  0.7546771E-02  0.1167895E+00
         21   -1    0    0  501  502  0.00000000000E+00  0.00000000000E+00  0.13743060144E+02  0.13743060144E+02  0.00000000000E+00 0.  1.
         21   -1    0    0  502  503 -0.00000000000E+00 -0.00000000000E+00 -0.26842095918E+04  0.26842095918E+04  0.00000000000E+00 0.  1.
          6    1    1    2  501    0 -0.47846551519E+02  0.12138564883E+02 -0.86284697269E+03  0.88140259560E+03  0.17300000000E+03 0.  1.
         -6    1    1    2    0  503  0.47846551519E+02 -0.12138564883E+02 -0.18076195590E+04  0.18165500564E+04  0.17300000000E+03 0.  1.
<mgrwt>
<rscale>  2 0.17990452E+03</rscale>
<asrwt>0</asrwt>
<pdfrwt beam="1">  1       21 0.21143158E-02 0.17990452E+03</pdfrwt>
<pdfrwt beam="2">  1       21 0.41295554E+00 0.17990452E+03</pdfrwt>
<totfact> 0.82689070E+03</totfact>
</mgrwt>
</event>
<event>
 4    1  0.3980289E+000  0.2206177E+03  0.7546771E-02  0.1133423E+00
         21   -1    0    0  501  502  0.00000000000E+00  0.00000000000E+00  0.30739008307E+03  0.30739008307E+03  0.00000000000E+00 0. -1.
         21   -1    0    0  502  503 -0.00000000000E+00 -0.00000000000E+00 -0.20106454421E+03  0.20106454421E+03  0.00000000000E+00 0.  1.
          6    1    1    2  501    0 -0.13565618408E+03  0.18455084182E+02  0.17035327890E+03  0.27873361843E+03  0.17300000000E+03 0. -1.
         -6    1    1    2    0  503  0.13565618408E+03 -0.18455084182E+02 -0.64027740040E+02  0.22972100885E+03  0.17300000000E+03 0.  1.
<mgrwt>
<rscale>  2 0.22061775E+03</rscale>
<asrwt>0</asrwt>
<pdfrwt beam="1">  1       21 0.47290782E-01 0.22061775E+03</pdfrwt>
<pdfrwt beam="2">  1       21 0.30933006E-01 0.22061775E+03</pdfrwt>
<totfact> 0.42350916E+04</totfact>
</mgrwt>
</event>
<event>
 4    1  0.3980289E+000  0.2039908E+03  0.7546771E-02  0.1146415E+00
         21   -1    0    0  503  502  0.00000000000E+00  0.00000000000E+00  0.21377766693E+03  0.21377766693E+03  0.00000000000E+00 0. -1.
         21   -1    0    0  501  503 -0.00000000000E+00 -0.00000000000E+00 -0.20548207780E+03  0.20548207780E+03  0.00000000000E+00 0.  1.
          6    1    1    2  501    0 -0.31469142257E+02 -0.10340664931E+03  0.52274127441E+02  0.21058211328E+03  0.17300000000E+03 0. -1.
         -6    1    1    2    0  502  0.31469142257E+02  0.10340664931E+03 -0.43978538307E+02  0.20867763145E+03  0.17300000000E+03 0.  1.
<mgrwt>
<rscale>  2 0.20399079E+03</rscale>
<asrwt>0</asrwt>
<pdfrwt beam="1">  1       21 0.32888872E-01 0.20399079E+03</pdfrwt>
<pdfrwt beam="2">  1       21 0.31612627E-01 0.20399079E+03</pdfrwt>
<totfact> 0.85200288E+04</totfact>
</mgrwt>
</event>
<event>
 4    1  0.3980289E+000  0.1768749E+03  0.7546771E-02  0.1170862E+00
         21   -1    0    0  501  502  0.00000000000E+00  0.00000000000E+00  0.37880446882E+03  0.37880446882E+03  0.00000000000E+00 0. -1.
         21   -1    0    0  502  503 -0.00000000000E+00 -0.00000000000E+00 -0.88480443611E+02  0.88480443611E+02  0.00000000000E+00 0. -1.
          6    1    1    2  501    0  0.25934241838E+02 -0.26136846098E+02  0.20545603580E+03  0.27110312110E+03  0.17300000000E+03 0. -1.
         -6    1    1    2    0  503 -0.25934241838E+02  0.26136846098E+02  0.84867989411E+02  0.19618179133E+03  0.17300000000E+03 0. -1.
<mgrwt>
<rscale>  2 0.17687487E+03</rscale>
<asrwt>0</asrwt>
<pdfrwt beam="1">  1       21 0.58277610E-01 0.17687487E+03</pdfrwt>
<pdfrwt beam="2">  1       21 0.13612376E-01 0.17687487E+03</pdfrwt>
<totfact> 0.12973721E+05</totfact>
</mgrwt>
</event>
<event>
 4    1  0.3980289E+000  0.2009394E+03  0.7546771E-02  0.1148949E+00
         21   -1    0    0  503  502  0.00000000000E+00  0.00000000000E+00  0.13328428510E+03  0.13328428510E+03  0.00000000000E+00 0.  1.
         21   -1    0    0  501  503 -0.00000000000E+00 -0.00000000000E+00 -0.33749947402E+03  0.33749947402E+03  0.00000000000E+00 0.  1.
          6    1    1    2  501    0  0.36095930319E+02  0.95628070599E+02 -0.17743654707E+03  0.26806785019E+03  0.17300000000E+03 0.  1.
         -6    1    1    2    0  502 -0.36095930319E+02 -0.95628070599E+02 -0.26778641863E+02  0.20271590893E+03  0.17300000000E+03 0.  1.
<mgrwt>
<rscale>  2 0.20093940E+03</rscale>
<asrwt>0</asrwt>
<pdfrwt beam="1">  1       21 0.20505275E-01 0.20093940E+03</pdfrwt>
<pdfrwt beam="2">  1       21 0.51922996E-01 0.20093940E+03</pdfrwt>
<totfact> 0.77296475E+04</totfact>
</mgrwt>
</event>
<event>
 4    1  0.3980289E+000  0.1737000E+03  0.7546771E-02  0.1174043E+00
         21   -1    0    0  501  502  0.00000000000E+00  0.00000000000E+00  0.12225498817E+03  0.12225498817E+03  0.00000000000E+00 0.  1.
         21   -1    0    0  502  503 -0.00000000000E+00 -0.00000000000E+00 -0.34118086189E+03  0.34118086189E+03  0.00000000000E+00 0.  1.
          6    1    1    2  501    0  0.13198216343E+02  0.82762657475E+01  0.12415003673E+02  0.17414310726E+03  0.17300000000E+03 0.  1.
         -6    1    1    2    0  503 -0.13198216343E+02 -0.82762657475E+01 -0.23134087738E+03  0.28929274280E+03  0.17300000000E+03 0.  1.
<mgrwt>
<rscale>  2 0.17370000E+03</rscale>
<asrwt>0</asrwt>
<pdfrwt beam="1">  1       21 0.18808460E-01 0.17370000E+03</pdfrwt>
<pdfrwt beam="2">  1       21 0.52489364E-01 0.17370000E+03</pdfrwt>
<totfact> 0.89759666E+04</totfact>
</mgrwt>
</event>
<event>
 4    1  0.3980289E+000  0.1980538E+03  0.7546771E-02  0.1151391E+00
         21   -1    0    0  501  502  0.00000000000E+00  0.00000000000E+00  0.86002054087E+03  0.86002054087E+03  0.00000000000E+00 0. -1.
         21   -1    0    0  502  503 -0.00000000000E+00 -0.00000000000E+00 -0.84875713665E+02  0.84875713665E+02  0.00000000000E+00 0. -1.
          6    1    1    2  501    0  0.91453068233E+02  0.30539477585E+02  0.70891666325E+03  0.73606260523E+03  0.17300000000E+03 0. -1.
         -6    1    1    2    0  503 -0.91453068233E+02 -0.30539477585E+02  0.66228163947E+02  0.20883364930E+03  0.17300000000E+03 0. -1.
<mgrwt>
<rscale>  2 0.19805384E+03</rscale>
<asrwt>0</asrwt>
<pdfrwt beam="1">  1       21 0.13231085E+00 0.19805384E+03</pdfrwt>
<pdfrwt beam="2">  1       21 0.13057803E-01 0.19805384E+03</pdfrwt>
<totfact> 0.20774536E+04</totfact>
</mgrwt>
</event>
<event>
 4    1  0.3980289E+000  0.1802864E+03  0.7546771E-02  0.1167526E+00
         21   -1    0    0  503  502  0.00000000000E+00  0.00000000000E+00  0.29411249256E+03  0.29411249256E+03  0.00000000000E+00 0. -1.
         21   -1    0    0  501  503 -0.00000000000E+00 -0.00000000000E+00 -0.28288377674E+03  0.28288377674E+03  0.00000000000E+00 0. -1.
          6    1    1    2  501    0 -0.36910919094E+02 -0.34810664367E+02 -0.21958702138E+03  0.28411557201E+03  0.17300000000E+03 0. -1.
         -6    1    1    2    0  502  0.36910919094E+02  0.34810664367E+02  0.23081573720E+03  0.29288069728E+03  0.17300000000E+03 0. -1.
<mgrwt>
<rscale>  2 0.18028643E+03</rscale>
<asrwt>0</asrwt>
<pdfrwt beam="1">  1       21 0.45248076E-01 0.18028643E+03</pdfrwt>
<pdfrwt beam="2">  1       21 0.43520581E-01 0.18028643E+03</pdfrwt>
<totfact> 0.23944951E+04</totfact>
</mgrwt>
</event>
<event>
 4    1  0.3980289E+000  0.2130199E+03  0.7546771E-02  0.1139197E+00
         21   -1    0    0  503  502  0.00000000000E+00  0.00000000000E+00  0.42618757303E+03  0.42618757303E+03  0.00000000000E+00 0. -1.
         21   -1    0    0  501  503 -0.00000000000E+00 -0.00000000000E+00 -0.13872325060E+03  0.13872325060E+03  0.00000000000E+00 0. -1.
          6    1    1    2  501    0 -0.37943067214E+02 -0.11835879585E+03  0.75432844920E+01  0.21315342372E+03  0.17300000000E+03 0. -1.
         -6    1    1    2    0  502  0.37943067214E+02  0.11835879585E+03  0.27992103794E+03  0.35175739990E+03  0.17300000000E+03 0. -1.
<mgrwt>
<rscale>  2 0.21301991E+03</rscale>
<asrwt>0</asrwt>
<pdfrwt beam="1">  1       21 0.65567318E-01 0.21301991E+03</pdfrwt>
<pdfrwt beam="2">  1       21 0.21342039E-01 0.21301991E+03</pdfrwt>
<totfact> 0.43265032E+04</totfact>
</mgrwt>
</event>
<event>
 4    1  0.3980289E+000  0.1960803E+03  0.7546771E-02  0.1153089E+00
         21   -1    0    0  501  502  0.00000000000E+00  0.00000000000E+00  0.66153596832E+02  0.66153596832E+02  0.00000000000E+00 0. -1.
         21   -1    0    0  502  503 -0.00000000000E+00 -0.00000000000E+00 -0.77030711176E+03  0.77030711176E+03  0.00000000000E+00 0. -1.
          6    1    1    2  501    0  0.10765180512E+02  0.91665759066E+02 -0.14484592911E+03  0.24377826744E+03  0.17300000000E+03 0. -1.
         -6    1    1    2    0  503 -0.10765180512E+02 -0.91665759066E+02 -0.55930758582E+03  0.59268244116E+03  0.17300000000E+03 0. -1.
<mgrwt>
<rscale>  2 0.19608034E+03</rscale>
<asrwt>0</asrwt>
<pdfrwt beam="1">  1       21 0.10177477E-01 0.19608034E+03</pdfrwt>
<pdfrwt beam="2">  1       21 0.11850878E+00 0.19608034E+03</pdfrwt>
<totfact> 0.42767749E+04</totfact>
</mgrwt>
</event>
<event>
 4    1  0.3980289E+000  0.2019535E+03  0.7546771E-02  0.1148101E+00
         21   -1    0    0  501  502  0.00000000000E+00  0.00000000000E+00  0.17345160983E+03  0.17345160983E+03  0.00000000000E+00 0. -1.
         21   -1    0    0  502  503 -0.00000000000E+00 -0.00000000000E+00 -0.60333638016E+03  0.60333638016E+03  0.00000000000E+00 0.  1.
          6    1    1    2  501    0 -0.76846770328E+02 -0.70361708110E+02  0.88469954767E+02  0.22048158421E+03  0.17300000000E+03 0. -1.
         -6    1    1    2    0  503  0.76846770328E+02  0.70361708110E+02 -0.51835472510E+03  0.55630640578E+03  0.17300000000E+03 0.  1.
<mgrwt>
<rscale>  2 0.20195345E+03</rscale>
<asrwt>0</asrwt>
<pdfrwt beam="1">  1       21 0.26684863E-01 0.20195345E+03</pdfrwt>
<pdfrwt beam="2">  1       21 0.92820980E-01 0.20195345E+03</pdfrwt>
<totfact> 0.12991606E+04</totfact>
</mgrwt>
</event>
<event>
 4    1  0.3980289E+000  0.2057966E+03  0.7546771E-02  0.1144939E+00
         21   -1    0    0  501  502  0.00000000000E+00  0.00000000000E+00  0.24887063632E+03  0.24887063632E+03  0.00000000000E+00 0. -1.
         21   -1    0    0  502  503 -0.00000000000E+00 -0.00000000000E+00 -0.19617038303E+03  0.19617038303E+03  0.00000000000E+00 0. -1.
          6    1    1    2  501    0 -0.10258470841E+03 -0.43584399830E+02  0.10734904566E+03  0.23211212789E+03  0.17300000000E+03 0. -1.
         -6    1    1    2    0  503  0.10258470841E+03  0.43584399830E+02 -0.54648792378E+02  0.21292889146E+03  0.17300000000E+03 0. -1.
<mgrwt>
<rscale>  2 0.20579656E+03</rscale>
<asrwt>0</asrwt>
<pdfrwt beam="1">  1       21 0.38287790E-01 0.20579656E+03</pdfrwt>
<pdfrwt beam="2">  1       21 0.30180059E-01 0.20579656E+03</pdfrwt>
<totfact> 0.68880340E+04</totfact>
</mgrwt>
</event>
<event>
 4    1  0.3980289E+000  0.3229078E+03  0.7546771E-02  0.1074319E+00
         21   -1    0    0  501  502  0.00000000000E+00  0.00000000000E+00  0.61150630709E+03  0.61150630709E+03  0.00000000000E+00 0.  1.
         21   -1    0    0  502  503 -0.00000000000E+00 -0.00000000000E+00 -0.21543923572E+03  0.21543923572E+03  0.00000000000E+00 0. -1.
          6    1    1    2  501    0 -0.99456127906E+02 -0.25386792408E+03  0.38684881904E+03  0.50390619469E+03  0.17300000000E+03 0.  1.
         -6    1    1    2    0  503  0.99456127906E+02  0.25386792408E+03  0.92182523262E+01  0.32303934812E+03  0.17300000000E+03 0. -1.
<mgrwt>
<rscale>  2 0.32290780E+03</rscale>
<asrwt>0</asrwt>
<pdfrwt beam="1">  1       21 0.94077892E-01 0.32290780E+03</pdfrwt>
<pdfrwt beam="2">  1       21 0.33144498E-01 0.32290780E+03</pdfrwt>
<totfact> 0.77090019E+03</totfact>
</mgrwt>
</event>
<event>
 4    1  0.3980289E+000  0.1975607E+03  0.7546771E-02  0.1151814E+00
         21   -1    0    0  503  502  0.00000000000E+00  0.00000000000E+00  0.31255613229E+04  0.31255613229E+04  0.00000000000E+00 0.  1.
         21   -1    0    0  501  503 -0.00000000000E+00 -0.00000000000E+00 -0.20453029630E+02  0.20453029630E+02  0.00000000000E+00 0. -1.
          6    1    1    2  501    0  0.47112632845E+02  0.82955580111E+02  0.57089410086E+03  0.60411116762E+03  0.17300000000E+03 0. -1.
         -6    1    1    2    0  502 -0.47112632845E+02 -0.82955580111E+02  0.25342141924E+04  0.25419031849E+04  0.17300000000E+03 0.  1.
<mgrwt>
<rscale>  2 0.19756070E+03</rscale>
<asrwt>0</asrwt>
<pdfrwt beam="1">  1       21 0.48085521E+00 0.19756070E+03</pdfrwt>
<pdfrwt beam="2">  1       21 0.31466224E-02 0.19756070E+03</pdfrwt>
<totfact> 0.14935983E+03</totfact>
</mgrwt>
</event>
<event>
 4    1  0.3980289E+000  0.1847777E+03  0.7546771E-02  0.1163258E+00
         21   -1    0    0  501  502  0.00000000000E+00  0.00000000000E+00  0.75445332640E+02  0.75445332640E+02  0.00000000000E+00 0. -1.
         21   -1    0    0  502  503 -0.00000000000E+00 -0.00000000000E+00 -0.45255188217E+03  0.45255188217E+03  0.00000000000E+00 0.  1.
          6    1    1    2  501    0  0.93004189679E+01 -0.64244090042E+02 -0.18804534182E+03  0.26363583117E+03  0.17300000000E+03 0. -1.
         -6    1    1    2    0  503 -0.93004189679E+01  0.64244090042E+02 -0.18906120771E+03  0.26436138364E+03  0.17300000000E+03 0.  1.
<mgrwt>
<rscale>  2 0.18477771E+03</rscale>
<asrwt>0</asrwt>
<pdfrwt beam="1">  1       21 0.11606974E-01 0.18477771E+03</pdfrwt>
<pdfrwt beam="2">  1       21 0.69623366E-01 0.18477771E+03</pdfrwt>
<totfact> 0.11711601E+05</totfact>
</mgrwt>
</event>
<event>
 4    1  0.3980289E+000  0.1815713E+03  0.7546771E-02  0.1166291E+00
         21   -1    0    0  501  502  0.00000000000E+00  0.00000000000E+00  0.23557214142E+03  0.23557214142E+03  0.00000000000E+00 0.  1.
         21   -1    0    0  502  503 -0.00000000000E+00 -0.00000000000E+00 -0.14213902933E+03  0.14213902933E+03  0.00000000000E+00 0.  1.
          6    1    1    2  501    0 -0.70324136582E+01  0.54678013330E+02  0.23275604137E+02  0.18305707780E+03  0.17300000000E+03 0.  1.
         -6    1    1    2    0  503  0.70324136582E+01 -0.54678013330E+02  0.70157507952E+02  0.19465409296E+03  0.17300000000E+03 0.  1.
<mgrwt>
<rscale>  2 0.18157131E+03</rscale>
<asrwt>0</asrwt>
<pdfrwt beam="1">  1       21 0.36241868E-01 0.18157131E+03</pdfrwt>
<pdfrwt beam="2">  1       21 0.21867543E-01 0.18157131E+03</pdfrwt>
<totfact> 0.14386659E+05</totfact>
</mgrwt>
</event>
<event>
 4    1  0.3980289E+000  0.1839080E+03  0.7546771E-02  0.1164074E+00
         21   -1    0    0  503  502  0.00000000000E+00  0.00000000000E+00  0.16840343044E+03  0.16840343044E+03  0.00000000000E+00 0. -1.
         21   -1    0    0  501  503 -0.00000000000E+00 -0.00000000000E+00 -0.21095220235E+03  0.21095220235E+03  0.00000000000E+00 0.  1.
          6    1    1    2  501    0 -0.16255672447E+02 -0.60240271590E+02 -0.62803089639E+02  0.19433570253E+03  0.17300000000E+03 0.  1.
         -6    1    1    2    0  502  0.16255672447E+02  0.60240271590E+02  0.20254317724E+02  0.18501993026E+03  0.17300000000E+03 0. -1.
<mgrwt>
<rscale>  2 0.18390796E+03</rscale>
<asrwt>0</asrwt>
<pdfrwt beam="1">  1       21 0.25908220E-01 0.18390796E+03</pdfrwt>
<pdfrwt beam="2">  1       21 0.32454185E-01 0.18390796E+03</pdfrwt>
<totfact> 0.12963060E+05</totfact>
</mgrwt>
</event>
<event>
 4    1  0.3980289E+000  0.1894345E+03  0.7546771E-02  0.1158972E+00
         21   -1    0    0  501  502  0.00000000000E+00  0.00000000000E+00  0.27788111694E+02  0.27788111694E+02  0.00000000000E+00 0. -1.
         21   -1    0    0  502  503 -0.00000000000E+00 -0.00000000000E+00 -0.14649471906E+04  0.14649471906E+04  0.00000000000E+00 0. -1.
          6    1    1    2  501    0 -0.18947007587E+02 -0.74816151138E+02 -0.46168427133E+03  0.49903688437E+03  0.17300000000E+03 0. -1.
         -6    1    1    2    0  503  0.18947007587E+02  0.74816151138E+02 -0.97547480754E+03  0.99369841789E+03  0.17300000000E+03 0. -1.
<mgrwt>
<rscale>  2 0.18943454E+03</rscale>
<asrwt>0</asrwt>
<pdfrwt beam="1">  1       21 0.42750931E-02 0.18943454E+03</pdfrwt>
<pdfrwt beam="2">  1       21 0.22537655E+00 0.18943454E+03</pdfrwt>
<totfact> 0.32767660E+04</totfact>
</mgrwt>
</event>
<event>
 4    1  0.3980289E+000  0.2045703E+03  0.7546771E-02  0.1145939E+00
         21   -1    0    0  501  502  0.00000000000E+00  0.00000000000E+00  0.32218159846E+03  0.32218159846E+03  0.00000000000E+00 0. -1.
         21   -1    0    0  502  503 -0.00000000000E+00 -0.00000000000E+00 -0.15502797780E+03  0.15502797780E+03  0.00000000000E+00 0.  1.
          6    1    1    2  501    0  0.75532666465E+02 -0.78834044357E+02  0.17965332299E+03  0.27225779459E+03  0.17300000000E+03 0. -1.
         -6    1    1    2    0  503 -0.75532666465E+02  0.78834044357E+02 -0.12499702332E+02  0.20495178167E+03  0.17300000000E+03 0.  1.
<mgrwt>
<rscale>  2 0.20457026E+03</rscale>
<asrwt>0</asrwt>
<pdfrwt beam="1">  1       21 0.49566399E-01 0.20457026E+03</pdfrwt>
<pdfrwt beam="2">  1       21 0.23850458E-01 0.20457026E+03</pdfrwt>
<totfact> 0.63934769E+04</totfact>
</mgrwt>
</event>
<event>
 4    1  0.3980289E+000  0.3751045E+03  0.7546771E-02  0.1052758E+00
         21   -1    0    0  501  502  0.00000000000E+00  0.00000000000E+00  0.18318632303E+03  0.18318632303E+03  0.00000000000E+00 0. -1.
         21   -1    0    0  502  503 -0.00000000000E+00 -0.00000000000E+00 -0.10698789636E+04  0.10698789636E+04  0.00000000000E+00 0.  1.
          6    1    1    2  501    0 -0.31656935610E+03 -0.10275338270E+03 -0.11058815906E+03  0.39106668972E+03  0.17300000000E+03 0. -1.
         -6    1    1    2    0  503  0.31656935610E+03  0.10275338270E+03 -0.77610448152E+03  0.86199859693E+03  0.17300000000E+03 0.  1.
<mgrwt>
<rscale>  2 0.37510454E+03</rscale>
<asrwt>0</asrwt>
<pdfrwt beam="1">  1       21 0.28182510E-01 0.37510454E+03</pdfrwt>
<pdfrwt beam="2">  1       21 0.16459677E+00 0.37510454E+03</pdfrwt>
<totfact> 0.24814693E+03</totfact>
</mgrwt>
</event>
<event>
 4    1  0.3980289E+000  0.2044175E+03  0.7546771E-02  0.1146065E+00
         21   -1    0    0  501  502  0.00000000000E+00  0.00000000000E+00  0.23380421238E+03  0.23380421238E+03  0.00000000000E+00 0.  1.
         21   -1    0    0  502  503 -0.00000000000E+00 -0.00000000000E+00 -0.19914226095E+03  0.19914226095E+03  0.00000000000E+00 0.  1.
          6    1    1    2  501    0  0.97234866821E+02  0.49019331582E+02  0.86646062071E+02  0.22202264359E+03  0.17300000000E+03 0.  1.
         -6    1    1    2    0  503 -0.97234866821E+02 -0.49019331582E+02 -0.51984110644E+02  0.21092382974E+03  0.17300000000E+03 0.  1.
<mgrwt>
<rscale>  2 0.20441750E+03</rscale>
<asrwt>0</asrwt>
<pdfrwt beam="1">  1       21 0.35969878E-01 0.20441750E+03</pdfrwt>
<pdfrwt beam="2">  1       21 0.30637271E-01 0.20441750E+03</pdfrwt>
<totfact> 0.75840472E+04</totfact>
</mgrwt>
</event>
<event>
 4    1  0.3980289E+000  0.2285303E+03  0.7546771E-02  0.1127678E+00
         21   -1    0    0  503  502  0.00000000000E+00  0.00000000000E+00  0.93620238874E+02  0.93620238874E+02  0.00000000000E+00 0. -1.
         21   -1    0    0  501  503 -0.00000000000E+00 -0.00000000000E+00 -0.66192354524E+03  0.66192354524E+03  0.00000000000E+00 0. -1.
          6    1    1    2  501    0  0.52277505681E+02 -0.13987194136E+03 -0.43394580088E+03  0.49044373345E+03  0.17300000000E+03 0. -1.
         -6    1    1    2    0  502 -0.52277505681E+02  0.13987194136E+03 -0.13435750549E+03  0.26510005066E+03  0.17300000000E+03 0. -1.
<mgrwt>
<rscale>  2 0.22853030E+03</rscale>
<asrwt>0</asrwt>
<pdfrwt beam="1">  1       21 0.14403113E-01 0.22853030E+03</pdfrwt>
<pdfrwt beam="2">  1       21 0.10183439E+00 0.22853030E+03</pdfrwt>
<totfact> 0.32567183E+04</totfact>
</mgrwt>
</event>
<event>
 4    1  0.3980289E+000  0.1790249E+03  0.7546771E-02  0.1168750E+00
         21   -1    0    0  503  502  0.00000000000E+00  0.00000000000E+00  0.30749544008E+03  0.30749544008E+03  0.00000000000E+00 0. -1.
         21   -1    0    0  501  503 -0.00000000000E+00 -0.00000000000E+00 -0.31080856499E+03  0.31080856499E+03  0.00000000000E+00 0. -1.
          6    1    1    2  501    0  0.45574342723E+02  0.66251461451E+01 -0.25369649408E+03  0.31050253523E+03  0.17300000000E+03 0. -1.
         -6    1    1    2    0  502 -0.45574342723E+02 -0.66251461451E+01  0.25038336917E+03  0.30780146984E+03  0.17300000000E+03 0. -1.
<mgrwt>
<rscale>  2 0.17902490E+03</rscale>
<asrwt>0</asrwt>
<pdfrwt beam="1">  1       21 0.47306991E-01 0.17902490E+03</pdfrwt>
<pdfrwt beam="2">  1       21 0.47816702E-01 0.17902490E+03</pdfrwt>
<totfact> 0.18021861E+04</totfact>
</mgrwt>
</event>
<event>
 4    1  0.3980289E+000  0.3574843E+03  0.7546771E-02  0.1059584E+00
         21   -1    0    0  501  502  0.00000000000E+00  0.00000000000E+00  0.40474510489E+03  0.40474510489E+03  0.00000000000E+00 0. -1.
         21   -1    0    0  502  503 -0.00000000000E+00 -0.00000000000E+00 -0.34031279460E+03  0.34031279460E+03  0.00000000000E+00 0.  1.
          6    1    1    2  501    0  0.69907678328E+01  0.31275733507E+03  0.13231536569E+03  0.38118548959E+03  0.17300000000E+03 0. -1.
         -6    1    1    2    0  503 -0.69907678328E+01 -0.31275733507E+03 -0.67883055400E+02  0.36387240990E+03  0.17300000000E+03 0.  1.
<mgrwt>
<rscale>  2 0.35748430E+03</rscale>
<asrwt>0</asrwt>
<pdfrwt beam="1">  1       21 0.62268478E-01 0.35748430E+03</pdfrwt>
<pdfrwt beam="2">  1       21 0.52355814E-01 0.35748430E+03</pdfrwt>
<totfact> 0.75821960E+03</totfact>
</mgrwt>
</event>
<event>
 4    1  0.3980289E+000  0.2066832E+03  0.7546771E-02  0.1144220E+00
         21   -1    0    0  503  502  0.00000000000E+00  0.00000000000E+00  0.11277188570E+04  0.11277188570E+04  0.00000000000E+00 0.  1.
         21   -1    0    0  501  503 -0.00000000000E+00 -0.00000000000E+00 -0.43031748195E+02  0.43031748195E+02  0.00000000000E+00 0. -1.
          6    1    1    2  501    0  0.93458148015E+02  0.63675011608E+02  0.33979955869E+03  0.39772059617E+03  0.17300000000E+03 0. -1.
         -6    1    1    2    0  502 -0.93458148015E+02 -0.63675011608E+02  0.74488755014E+03  0.77303000904E+03  0.17300000000E+03 0.  1.
<mgrwt>
<rscale>  2 0.20668317E+03</rscale>
<asrwt>0</asrwt>
<pdfrwt beam="1">  1       21 0.17349519E+00 0.20668317E+03</pdfrwt>
<pdfrwt beam="2">  1       21 0.66202698E-02 0.20668317E+03</pdfrwt>
<totfact> 0.33289926E+04</totfact>
</mgrwt>
</event>
<event>
 4    1  0.3980289E+000  0.3361348E+03  0.7546771E-02  0.1068454E+00
         21   -1    0    0  501  502  0.00000000000E+00  0.00000000000E+00  0.10900665848E+04  0.10900665848E+04  0.00000000000E+00 0.  1.
         21   -1    0    0  502  503 -0.00000000000E+00 -0.00000000000E+00 -0.10497763584E+03  0.10497763584E+03  0.00000000000E+00 0.  1.
          6    1    1    2  501    0  0.19372830054E+02  0.28754531456E+03  0.42537638487E+03  0.54215466729E+03  0.17300000000E+03 0.  1.
         -6    1    1    2    0  503 -0.19372830054E+02 -0.28754531456E+03  0.55971256412E+03  0.65288955337E+03  0.17300000000E+03 0.  1.
<mgrwt>
<rscale>  2 0.33613482E+03</rscale>
<asrwt>0</asrwt>
<pdfrwt beam="1">  1       21 0.16770254E+00 0.33613482E+03</pdfrwt>
<pdfrwt beam="2">  1       21 0.16150406E-01 0.33613482E+03</pdfrwt>
<totfact> 0.69361726E+03</totfact>
</mgrwt>
</event>
<event>
 4    1  0.3980289E+000  0.2120097E+03  0.7546771E-02  0.1139984E+00
         21   -1    0    0  501  502  0.00000000000E+00  0.00000000000E+00  0.79102003602E+03  0.79102003602E+03  0.00000000000E+00 0. -1.
         21   -1    0    0  502  503 -0.00000000000E+00 -0.00000000000E+00 -0.93462283081E+02  0.93462283081E+02  0.00000000000E+00 0.  1.
          6    1    1    2  501    0 -0.12230808766E+03 -0.77371821033E+01  0.62567345017E+03  0.66061743736E+03  0.17300000000E+03 0. -1.
         -6    1    1    2    0  503  0.12230808766E+03  0.77371821033E+01  0.71884302771E+02  0.22386488174E+03  0.17300000000E+03 0.  1.
<mgrwt>
<rscale>  2 0.21200975E+03</rscale>
<asrwt>0</asrwt>
<pdfrwt beam="1">  1       21 0.12169539E+00 0.21200975E+03</pdfrwt>
<pdfrwt beam="2">  1       21 0.14378813E-01 0.21200975E+03</pdfrwt>
<totfact> 0.21346819E+04</totfact>
</mgrwt>
</event>
<event>
 4    1  0.3980289E+000  0.1866908E+03  0.7546771E-02  0.1161480E+00
         21   -1    0    0  501  502  0.00000000000E+00  0.00000000000E+00  0.19320176907E+04  0.19320176907E+04  0.00000000000E+00 0.  1.
         21   -1    0    0  502  503 -0.00000000000E+00 -0.00000000000E+00 -0.18137384183E+02  0.18137384183E+02  0.00000000000E+00 0. -1.
          6    1    1    2  501    0 -0.28463190096E+02  0.64142757338E+02  0.10284181090E+04  0.10452259342E+04  0.17300000000E+03 0. -1.
         -6    1    1    2    0  503  0.28463190096E+02 -0.64142757338E+02  0.88546219750E+03  0.90492914072E+03  0.17300000000E+03 0. -1.
<mgrwt>
<rscale>  2 0.18669078E+03</rscale>
<asrwt>0</asrwt>
<pdfrwt beam="1">  1       21 0.29723333E+00 0.18669078E+03</pdfrwt>
<pdfrwt beam="2">  1       21 0.27903683E-02 0.18669078E+03</pdfrwt>
<totfact> 0.25402418E+04</totfact>
</mgrwt>
</event>
<event>
 4    1  0.3980289E+000  0.1929050E+03  0.7546771E-02  0.1155867E+00
         21   -1    0    0  503  502  0.00000000000E+00  0.00000000000E+00  0.72938265170E+03  0.72938265170E+03  0.00000000000E+00 0. -1.
         21   -1    0    0  501  503 -0.00000000000E+00 -0.00000000000E+00 -0.59859749674E+02  0.59859749674E+02  0.00000000000E+00 0. -1.
          6    1    1    2  501    0 -0.50306335726E+02  0.68939083521E+02  0.18310560450E+03  0.26596989876E+03  0.17300000000E+03 0. -1.
         -6    1    1    2    0  502  0.50306335726E+02 -0.68939083521E+02  0.48641729753E+03  0.52327250261E+03  0.17300000000E+03 0. -1.
<mgrwt>
<rscale>  2 0.19290496E+03</rscale>
<asrwt>0</asrwt>
<pdfrwt beam="1">  1       21 0.11221271E+00 0.19290496E+03</pdfrwt>
<pdfrwt beam="2">  1       21 0.92091928E-02 0.19290496E+03</pdfrwt>
<totfact> 0.58382650E+04</totfact>
</mgrwt>
</event>
<event>
 4    1  0.3980289E+000  0.2017176E+03  0.7546771E-02  0.1148298E+00
         21   -1    0    0  501  502  0.00000000000E+00  0.00000000000E+00  0.49152460535E+02  0.49152460535E+02  0.00000000000E+00 0. -1.
         21   -1    0    0  502  503 -0.00000000000E+00 -0.00000000000E+00 -0.11172219963E+04  0.11172219963E+04  0.00000000000E+00 0. -1.
          6    1    1    2  501    0 -0.50537343136E+02 -0.90592225763E+02 -0.23722369171E+03  0.31139212310E+03  0.17300000000E+03 0. -1.
         -6    1    1    2    0  503  0.50537343136E+02  0.90592225763E+02 -0.83084584410E+03  0.85498233378E+03  0.17300000000E+03 0. -1.
<mgrwt>
<rscale>  2 0.20171756E+03</rscale>
<asrwt>0</asrwt>
<pdfrwt beam="1">  1       21 0.75619174E-02 0.20171756E+03</pdfrwt>
<pdfrwt beam="2">  1       21 0.17188030E+00 0.20171756E+03</pdfrwt>
<totfact> 0.27228911E+04</totfact>
</mgrwt>
</event>
<event>
 4    1  0.3980289E+000  0.1957143E+03  0.7546771E-02  0.1153406E+00
         21   -1    0    0  501  502  0.00000000000E+00  0.00000000000E+00  0.22765434340E+03  0.22765434340E+03  0.00000000000E+00 0.  1.
         21   -1    0    0  502  503 -0.00000000000E+00 -0.00000000000E+00 -0.16877066441E+03  0.16877066441E+03  0.00000000000E+00 0. -1.
          6    1    1    2  501    0 -0.77626089535E+02 -0.48469536821E+02  0.18491281857E+02  0.19658594375E+03  0.17300000000E+03 0. -1.
         -6    1    1    2    0  503  0.77626089535E+02  0.48469536821E+02  0.40392397138E+02  0.19983906406E+03  0.17300000000E+03 0. -1.
<mgrwt>
<rscale>  2 0.19571435E+03</rscale>
<asrwt>0</asrwt>
<pdfrwt beam="1">  1       21 0.35023745E-01 0.19571435E+03</pdfrwt>
<pdfrwt beam="2">  1       21 0.25964718E-01 0.19571435E+03</pdfrwt>
<totfact> 0.11059113E+05</totfact>
</mgrwt>
</event>
<event>
 4    1  0.3980289E+000  0.2154949E+03  0.7546771E-02  0.1137287E+00
         21   -1    0    0  503  502  0.00000000000E+00  0.00000000000E+00  0.12367228777E+03  0.12367228777E+03  0.00000000000E+00 0. -1.
         21   -1    0    0  501  503 -0.00000000000E+00 -0.00000000000E+00 -0.57161505693E+03  0.57161505693E+03  0.00000000000E+00 0. -1.
          6    1    1    2  501    0 -0.31213422973E+02 -0.12463854618E+03 -0.42760338027E+03  0.47883472700E+03  0.17300000000E+03 0. -1.
         -6    1    1    2    0  502  0.31213422973E+02  0.12463854618E+03 -0.20339388893E+02  0.21645261770E+03  0.17300000000E+03 0. -1.
<mgrwt>
<rscale>  2 0.21549488E+03</rscale>
<asrwt>0</asrwt>
<pdfrwt beam="1">  1       21 0.19026505E-01 0.21549488E+03</pdfrwt>
<pdfrwt beam="2">  1       21 0.87940780E-01 0.21549488E+03</pdfrwt>
<totfact> 0.27716847E+04</totfact>
</mgrwt>
</event>
<event>
 4    1  0.3980289E+000  0.1730093E+03  0.7546771E-02  0.1174745E+00
         21   -1    0    0  503  502  0.00000000000E+00  0.00000000000E+00  0.50123807941E+03  0.50123807941E+03  0.00000000000E+00 0.  1.
         21   -1    0    0  501  503 -0.00000000000E+00 -0.00000000000E+00 -0.27906385368E+03  0.27906385368E+03  0.00000000000E+00 0.  1.
          6    1    1    2  501    0  0.17906201128E+01  0.66060585914E-01 -0.23481008198E+03  0.29166416524E+03  0.17300000000E+03 0.  1.
         -6    1    1    2    0  502 -0.17906201128E+01 -0.66060585914E-01  0.45698430770E+03  0.48863776785E+03  0.17300000000E+03 0.  1.
<mgrwt>
<rscale>  2 0.17300928E+03</rscale>
<asrwt>0</asrwt>
<pdfrwt beam="1">  1       21 0.77113551E-01 0.17300928E+03</pdfrwt>
<pdfrwt beam="2">  1       21 0.42932901E-01 0.17300928E+03</pdfrwt>
<totfact> 0.79095374E+03</totfact>
</mgrwt>
</event>
<event>
 4    1  0.3980289E+000  0.2161652E+03  0.7546771E-02  0.1136775E+00
         21   -1    0    0  503  502  0.00000000000E+00  0.00000000000E+00  0.28504430888E+03  0.28504430888E+03  0.00000000000E+00 0.  1.
         21   -1    0    0  501  503 -0.00000000000E+00 -0.00000000000E+00 -0.42078170143E+03  0.42078170143E+03  0.00000000000E+00 0.  1.
          6    1    1    2  501    0 -0.10448396091E+02  0.12918674032E+03 -0.34359630732E+03  0.40593817911E+03  0.17300000000E+03 0.  1.
         -6    1    1    2    0  502  0.10448396091E+02 -0.12918674032E+03  0.20785891477E+03  0.29988783120E+03  0.17300000000E+03 0.  1.
<mgrwt>
<rscale>  2 0.21616517E+03</rscale>
<asrwt>0</asrwt>
<pdfrwt beam="1">  1       21 0.43852971E-01 0.21616517E+03</pdfrwt>
<pdfrwt beam="2">  1       21 0.64735646E-01 0.21616517E+03</pdfrwt>
<totfact> 0.10816249E+04</totfact>
</mgrwt>
</event>
<event>
 4    1  0.3980289E+000  0.5817404E+03  0.7546771E-02  0.9944030E-01
         21   -1    0    0  503  502  0.00000000000E+00  0.00000000000E+00  0.92049350048E+03  0.92049350048E+03  0.00000000000E+00 0.  1.
         21   -1    0    0  501  503 -0.00000000000E+00 -0.00000000000E+00 -0.38010893804E+03  0.38010893804E+03  0.00000000000E+00 0.  1.
          6    1    1    2  501    0  0.24074316779E+03  0.50053535015E+03  0.15247121444E+03  0.60138954166E+03  0.17300000000E+03 0.  1.
         -6    1    1    2    0  502 -0.24074316779E+03 -0.50053535015E+03  0.38791334800E+03  0.69921289686E+03  0.17300000000E+03 0.  1.
<mgrwt>
<rscale>  2 0.58174041E+03</rscale>
<asrwt>0</asrwt>
<pdfrwt beam="1">  1       21 0.14161438E+00 0.58174041E+03</pdfrwt>
<pdfrwt beam="2">  1       21 0.58478299E-01 0.58174041E+03</pdfrwt>
<totfact> 0.76186848E+02</totfact>
</mgrwt>
</event>
<event>
 4    1  0.3980289E+000  0.1884882E+03  0.7546771E-02  0.1159832E+00
         21   -1    0    0  501  502  0.00000000000E+00  0.00000000000E+00  0.61327098888E+03  0.61327098888E+03  0.00000000000E+00 0.  1.
         21   -1    0    0  502  503 -0.00000000000E+00 -0.00000000000E+00 -0.60094074616E+02  0.60094074616E+02  0.00000000000E+00 0.  1.
          6    1    1    2  501    0  0.21688229162E+02  0.71612992109E+02  0.34045527902E+03  0.38914983867E+03  0.17300000000E+03 0.  1.
         -6    1    1    2    0  503 -0.21688229162E+02 -0.71612992109E+02  0.21272163525E+03  0.28421522483E+03  0.17300000000E+03 0.  1.
<mgrwt>
<rscale>  2 0.18848820E+03</rscale>
<asrwt>0</asrwt>
<pdfrwt beam="1">  1       21 0.94349378E-01 0.18848820E+03</pdfrwt>
<pdfrwt beam="2">  1       21 0.92452427E-02 0.18848820E+03</pdfrwt>
<totfact> 0.87868847E+04</totfact>
</mgrwt>
</event>
<event>
 4    1  0.3980289E+000  0.2113591E+03  0.7546771E-02  0.1140494E+00
         21   -1    0    0  503  502  0.00000000000E+00  0.00000000000E+00  0.36852027835E+02  0.36852027835E+02  0.00000000000E+00 0. -1.
         21   -1    0    0  501  503 -0.00000000000E+00 -0.00000000000E+00 -0.19805218815E+04  0.19805218815E+04  0.00000000000E+00 0.  1.
          6    1    1    2  501    0 -0.62221263704E+02  0.10426967744E+03 -0.16000862378E+04  0.16139853220E+04  0.17300000000E+03 0.  1.
         -6    1    1    2    0  502  0.62221263704E+02 -0.10426967744E+03 -0.34358361590E+03  0.40338858735E+03  0.17300000000E+03 0. -1.
<mgrwt>
<rscale>  2 0.21135906E+03</rscale>
<asrwt>0</asrwt>
<pdfrwt beam="1">  1       21 0.56695419E-02 0.21135906E+03</pdfrwt>
<pdfrwt beam="2">  1       21 0.30469572E+00 0.21135906E+03</pdfrwt>
<totfact> 0.68269713E+03</totfact>
</mgrwt>
</event>
<event>
 4    1  0.3980289E+000  0.1926643E+03  0.7546771E-02  0.1156080E+00
         21   -1    0    0  503  502  0.00000000000E+00  0.00000000000E+00  0.92366450528E+02  0.92366450528E+02  0.00000000000E+00 0.  1.
         21   -1    0    0  501  503 -0.00000000000E+00 -0.00000000000E+00 -0.74243253431E+03  0.74243253431E+03  0.00000000000E+00 0.  1.
          6    1    1    2  501    0 -0.21168976065E+02 -0.82112177102E+02 -0.60772943536E+03  0.63753792184E+03  0.17300000000E+03 0.  1.
         -6    1    1    2    0  502  0.21168976065E+02  0.82112177102E+02 -0.42336648419E+02  0.19726106300E+03  0.17300000000E+03 0.  1.
<mgrwt>
<rscale>  2 0.19266431E+03</rscale>
<asrwt>0</asrwt>
<pdfrwt beam="1">  1       21 0.14210224E-01 0.19266431E+03</pdfrwt>
<pdfrwt beam="2">  1       21 0.11422039E+00 0.19266431E+03</pdfrwt>
<totfact> 0.25798287E+04</totfact>
</mgrwt>
</event>
<event>
 4    1  0.3980289E+000  0.1781193E+03  0.7546771E-02  0.1169636E+00
         21   -1    0    0  501  502  0.00000000000E+00  0.00000000000E+00  0.14376354239E+03  0.14376354239E+03  0.00000000000E+00 0. -1.
         21   -1    0    0  502  503 -0.00000000000E+00 -0.00000000000E+00 -0.23158156435E+03  0.23158156435E+03  0.00000000000E+00 0. -1.
          6    1    1    2  501    0 -0.10878075418E+02 -0.40977327544E+02 -0.31999324938E+01  0.17814801000E+03  0.17300000000E+03 0. -1.
         -6    1    1    2    0  503  0.10878075418E+02  0.40977327544E+02 -0.84618089467E+02  0.19719709674E+03  0.17300000000E+03 0. -1.
<mgrwt>
<rscale>  2 0.17811927E+03</rscale>
<asrwt>0</asrwt>
<pdfrwt beam="1">  1       21 0.22117468E-01 0.17811927E+03</pdfrwt>
<pdfrwt beam="2">  1       21 0.35627933E-01 0.17811927E+03</pdfrwt>
<totfact> 0.14585490E+05</totfact>
</mgrwt>
</event>
<event>
 4    1  0.3980289E+000  0.2032432E+03  0.7546771E-02  0.1147031E+00
         21   -1    0    0  501  502  0.00000000000E+00  0.00000000000E+00  0.80469353230E+03  0.80469353230E+03  0.00000000000E+00 0. -1.
         21   -1    0    0  502  503 -0.00000000000E+00 -0.00000000000E+00 -0.59720116602E+02  0.59720116602E+02  0.00000000000E+00 0. -1.
          6    1    1    2  501    0  0.35148990389E+02  0.10071428349E+03  0.53445202328E+03  0.57179260542E+03  0.17300000000E+03 0. -1.
         -6    1    1    2    0  503 -0.35148990389E+02 -0.10071428349E+03  0.21052139242E+03  0.29262104348E+03  0.17300000000E+03 0. -1.
<mgrwt>
<rscale>  2 0.20324325E+03</rscale>
<asrwt>0</asrwt>
<pdfrwt beam="1">  1       21 0.12379900E+00 0.20324325E+03</pdfrwt>
<pdfrwt beam="2">  1       21 0.91877108E-02 0.20324325E+03</pdfrwt>
<totfact> 0.45771249E+04</totfact>
</mgrwt>
</event>
<event>
 4    1  0.3980289E+000  0.2272172E+03  0.7546771E-02  0.1128614E+00
         21   -1    0    0  503  502  0.00000000000E+00  0.00000000000E+00  0.30902866266E+03  0.30902866266E+03  0.00000000000E+00 0. -1.
         21   -1    0    0  501  503 -0.00000000000E+00 -0.00000000000E+00 -0.18386963267E+03  0.18386963267E+03  0.00000000000E+00 0. -1.
          6    1    1    2  501    0 -0.85614362847E+02 -0.11987007394E+03 -0.11927303269E+02  0.22753002948E+03  0.17300000000E+03 0. -1.
         -6    1    1    2    0  502  0.85614362847E+02  0.11987007394E+03  0.13708633327E+03  0.26536826585E+03  0.17300000000E+03 0. -1.
<mgrwt>
<rscale>  2 0.22721720E+03</rscale>
<asrwt>0</asrwt>
<pdfrwt beam="1">  1       21 0.47542871E-01 0.22721720E+03</pdfrwt>
<pdfrwt beam="2">  1       21 0.28287636E-01 0.22721720E+03</pdfrwt>
<totfact> 0.49728222E+04</totfact>
</mgrwt>
</event>
<event>
 4    1  0.3980289E+000  0.1895787E+03  0.7546771E-02  0.1158842E+00
         21   -1    0    0  503  502  0.00000000000E+00  0.00000000000E+00  0.16998274338E+04  0.16998274338E+04  0.00000000000E+00 0.  1.
         21   -1    0    0  501  503 -0.00000000000E+00 -0.00000000000E+00 -0.21519352465E+02  0.21519352465E+02  0.00000000000E+00 0.  1.
          6    1    1    2  501    0 -0.46737793215E+02  0.61859944253E+02  0.72538876294E+03  0.74975258013E+03  0.17300000000E+03 0.  1.
         -6    1    1    2    0  502  0.46737793215E+02 -0.61859944253E+02  0.95291931840E+03  0.97159420613E+03  0.17300000000E+03 0.  1.
<mgrwt>
<rscale>  2 0.18957868E+03</rscale>
<asrwt>0</asrwt>
<pdfrwt beam="1">  1       21 0.26151181E+00 0.18957868E+03</pdfrwt>
<pdfrwt beam="2">  1       21 0.33106709E-02 0.18957868E+03</pdfrwt>
<totfact> 0.30677847E+04</totfact>
</mgrwt>
</event>
<event>
 4    1  0.3980289E+000  0.2215154E+03  0.7546771E-02  0.1132758E+00
         21   -1    0    0  501  502  0.00000000000E+00  0.00000000000E+00  0.16642849257E+03  0.16642849257E+03  0.00000000000E+00 0.  1.
         21   -1    0    0  502  503 -0.00000000000E+00 -0.00000000000E+00 -0.29495875021E+03  0.29495875021E+03  0.00000000000E+00 0. -1.
          6    1    1    2  501    0 -0.13810748529E+03 -0.81474294874E+01 -0.68977375169E+02  0.23200632833E+03  0.17300000000E+03 0. -1.
         -6    1    1    2    0  503  0.13810748529E+03  0.81474294874E+01 -0.59552882464E+02  0.22938091444E+03  0.17300000000E+03 0. -1.
<mgrwt>
<rscale>  2 0.22151537E+03</rscale>
<asrwt>0</asrwt>
<pdfrwt beam="1">  1       21 0.25604384E-01 0.22151537E+03</pdfrwt>
<pdfrwt beam="2">  1       21 0.45378269E-01 0.22151537E+03</pdfrwt>
<totfact> 0.66553566E+04</totfact>
</mgrwt>
</event>
<event>
 4    1  0.3980289E+000  0.1794131E+03  0.7546771E-02  0.1168372E+00
         21   -1    0    0  501  502  0.00000000000E+00  0.00000000000E+00  0.96627671365E+03  0.96627671365E+03  0.00000000000E+00 0. -1.
         21   -1    0    0  502  503 -0.00000000000E+00 -0.00000000000E+00 -0.49812845204E+02  0.49812845204E+02  0.00000000000E+00 0. -1.
          6    1    1    2  501    0  0.80515832465E+01 -0.46853247598E+02  0.75063259816E+03  0.77177610239E+03  0.17300000000E+03 0. -1.
         -6    1    1    2    0  503 -0.80515832465E+01  0.46853247598E+02  0.16583127028E+03  0.24431345646E+03  0.17300000000E+03 0. -1.
<mgrwt>
<rscale>  2 0.17941308E+03</rscale>
<asrwt>0</asrwt>
<pdfrwt beam="1">  1       21 0.14865794E+00 0.17941308E+03</pdfrwt>
<pdfrwt beam="2">  1       21 0.76635153E-02 0.17941308E+03</pdfrwt>
<totfact> 0.39884942E+04</totfact>
</mgrwt>
</event>
<event>
 4    1  0.3980289E+000  0.1935376E+03  0.7546771E-02  0.1155309E+00
         21   -1    0    0  501  502  0.00000000000E+00  0.00000000000E+00  0.38540878580E+02  0.38540878580E+02  0.00000000000E+00 0. -1.
         21   -1    0    0  502  503 -0.00000000000E+00 -0.00000000000E+00 -0.13484793864E+04  0.13484793864E+04  0.00000000000E+00 0. -1.
          6    1    1    2  501    0  0.81328551985E+01  0.86380996171E+02 -0.28846857290E+03  0.34737722634E+03  0.17300000000E+03 0. -1.
         -6    1    1    2    0  503 -0.81328551985E+01 -0.86380996171E+02 -0.10214699349E+04  0.10396430387E+04  0.17300000000E+03 0. -1.
<mgrwt>
<rscale>  2 0.19353764E+03</rscale>
<asrwt>0</asrwt>
<pdfrwt beam="1">  1       21 0.59293665E-02 0.19353764E+03</pdfrwt>
<pdfrwt beam="2">  1       21 0.20745835E+00 0.19353764E+03</pdfrwt>
<totfact> 0.24207293E+04</totfact>
</mgrwt>
</event>
<event>
 4    1  0.3980289E+000  0.1919348E+03  0.7546771E-02  0.1156728E+00
         21   -1    0    0  501  502  0.00000000000E+00  0.00000000000E+00  0.17949801730E+03  0.17949801730E+03  0.00000000000E+00 0. -1.
         21   -1    0    0  502  503 -0.00000000000E+00 -0.00000000000E+00 -0.20835725573E+03  0.20835725573E+03  0.00000000000E+00 0. -1.
          6    1    1    2  501    0  0.10748519639E+02 -0.82428362328E+02 -0.38175577527E+02  0.19569450761E+03  0.17300000000E+03 0.  1.
         -6    1    1    2    0  503 -0.10748519639E+02  0.82428362328E+02  0.93163390946E+01  0.19216076541E+03  0.17300000000E+03 0.  1.
<mgrwt>
<rscale>  2 0.19193480E+03</rscale>
<asrwt>0</asrwt>
<pdfrwt beam="1">  1       21 0.27615080E-01 0.19193480E+03</pdfrwt>
<pdfrwt beam="2">  1       21 0.32054962E-01 0.19193480E+03</pdfrwt>
<totfact> 0.11717383E+05</totfact>
</mgrwt>
</event>
<event>
 4    1  0.3980289E+000  0.1769229E+03  0.7546771E-02  0.1170815E+00
         21   -1    0    0  503  502  0.00000000000E+00  0.00000000000E+00  0.61403829075E+02  0.61403829075E+02  0.00000000000E+00 0. -1.
         21   -1    0    0  501  503 -0.00000000000E+00 -0.00000000000E+00 -0.89947889876E+03  0.89947889876E+03  0.00000000000E+00 0.  1.
          6    1    1    2  501    0 -0.22629506980E+02  0.29336435943E+02 -0.73527698842E+03  0.75626316237E+03  0.17300000000E+03 0.  1.
         -6    1    1    2    0  502  0.22629506980E+02 -0.29336435943E+02 -0.10279808127E+03  0.20461956547E+03  0.17300000000E+03 0. -1.
<mgrwt>
<rscale>  2 0.17692292E+03</rscale>
<asrwt>0</asrwt>
<pdfrwt beam="1">  1       21 0.94467434E-02 0.17692292E+03</pdfrwt>
<pdfrwt beam="2">  1       21 0.13838136E+00 0.17692292E+03</pdfrwt>
<totfact> 0.33392273E+04</totfact>
</mgrwt>
</event>
<event>
 4    1  0.3980289E+000  0.1781500E+03  0.7546771E-02  0.1169606E+00
         21   -1    0    0  501  502  0.00000000000E+00  0.00000000000E+00  0.28998906524E+02  0.28998906524E+02  0.00000000000E+00 0. -1.
         21   -1    0    0  502  503 -0.00000000000E+00 -0.00000000000E+00 -0.11555020264E+04  0.11555020264E+04  0.00000000000E+00 0. -1.
          6    1    1    2  501    0  0.36478876235E+01 -0.42368697693E+02 -0.42709956460E+03  0.46276500700E+03  0.17300000000E+03 0.  1.
         -6    1    1    2    0  503 -0.36478876235E+01  0.42368697693E+02 -0.69940355532E+03  0.72173592596E+03  0.17300000000E+03 0.  1.
<mgrwt>
<rscale>  2 0.17814998E+03</rscale>
<asrwt>0</asrwt>
<pdfrwt beam="1">  1       21 0.44613709E-02 0.17814998E+03</pdfrwt>
<pdfrwt beam="2">  1       21 0.17776952E+00 0.17814998E+03</pdfrwt>
<totfact> 0.61993221E+04</totfact>
</mgrwt>
</event>
<event>
 4    1  0.3980289E+000  0.3443117E+03  0.7546771E-02  0.1064974E+00
         21   -1    0    0  503  502  0.00000000000E+00  0.00000000000E+00  0.63479936014E+03  0.63479936014E+03  0.00000000000E+00 0.  1.
         21   -1    0    0  501  503 -0.00000000000E+00 -0.00000000000E+00 -0.36760255992E+03  0.36760255992E+03  0.00000000000E+00 0. -1.
          6    1    1    2  501    0  0.29096856145E+03 -0.62919073917E+02 -0.21794721298E+03  0.40749417329E+03  0.17300000000E+03 0. -1.
         -6    1    1    2    0  502 -0.29096856145E+03  0.62919073917E+02  0.48514401320E+03  0.59490774677E+03  0.17300000000E+03 0.  1.
<mgrwt>
<rscale>  2 0.34431165E+03</rscale>
<asrwt>0</asrwt>
<pdfrwt beam="1">  1       21 0.97661440E-01 0.34431165E+03</pdfrwt>
<pdfrwt beam="2">  1       21 0.56554240E-01 0.34431165E+03</pdfrwt>
<totfact> 0.23083019E+03</totfact>
</mgrwt>
</event>
<event>
 4    1  0.3980289E+000  0.2102779E+03  0.7546771E-02  0.1141346E+00
         21   -1    0    0  501  502  0.00000000000E+00  0.00000000000E+00  0.22404406209E+02  0.22404406209E+02  0.00000000000E+00 0. -1.
         21   -1    0    0  502  503 -0.00000000000E+00 -0.00000000000E+00 -0.21939008345E+04  0.21939008345E+04  0.00000000000E+00 0. -1.
          6    1    1    2  501    0  0.90224659619E+02 -0.78404748481E+02 -0.73457368422E+03  0.76407806626E+03  0.17300000000E+03 0. -1.
         -6    1    1    2    0  503 -0.90224659619E+02  0.78404748481E+02 -0.14369227441E+04  0.14522271744E+04  0.17300000000E+03 0. -1.
<mgrwt>
<rscale>  2 0.21027790E+03</rscale>
<asrwt>0</asrwt>
<pdfrwt beam="1">  1       21 0.34468316E-02 0.21027790E+03</pdfrwt>
<pdfrwt beam="2">  1       21 0.33752322E+00 0.21027790E+03</pdfrwt>
<totfact> 0.10198811E+04</totfact>
</mgrwt>
</event>
<event>
 4    1  0.3980289E+000  0.2087194E+03  0.7546771E-02  0.1142584E+00
         21   -1    0    0  501  502  0.00000000000E+00  0.00000000000E+00  0.13339065092E+03  0.13339065092E+03  0.00000000000E+00 0. -1.
         21   -1    0    0  502  503 -0.00000000000E+00 -0.00000000000E+00 -0.36850782359E+03  0.36850782359E+03  0.00000000000E+00 0.  1.
          6    1    1    2  501    0 -0.93559558127E+02 -0.69866911281E+02 -0.32919177112E+02  0.21129942837E+03  0.17300000000E+03 0. -1.
         -6    1    1    2    0  503  0.93559558127E+02  0.69866911281E+02 -0.20219799556E+03  0.29059904614E+03  0.17300000000E+03 0.  1.
<mgrwt>
<rscale>  2 0.20871937E+03</rscale>
<asrwt>0</asrwt>
<pdfrwt beam="1">  1       21 0.20521639E-01 0.20871937E+03</pdfrwt>
<pdfrwt beam="2">  1       21 0.56693511E-01 0.20871937E+03</pdfrwt>
<totfact> 0.63870261E+04</totfact>
</mgrwt>
</event>
<event>
 4    1  0.3980289E+000  0.2349964E+03  0.7546771E-02  0.1123172E+00
         21   -1    0    0  503  502  0.00000000000E+00  0.00000000000E+00  0.25774013233E+03  0.25774013233E+03  0.00000000000E+00 0.  1.
         21   -1    0    0  501  503 -0.00000000000E+00 -0.00000000000E+00 -0.28302327081E+03  0.28302327081E+03  0.00000000000E+00 0.  1.
          6    1    1    2  501    0 -0.10841487411E+03 -0.11636372698E+03 -0.14591565085E+03  0.27661286855E+03  0.17300000000E+03 0.  1.
         -6    1    1    2    0  502  0.10841487411E+03  0.11636372698E+03  0.12063251236E+03  0.26415053459E+03  0.17300000000E+03 0.  1.
<mgrwt>
<rscale>  2 0.23499639E+03</rscale>
<asrwt>0</asrwt>
<pdfrwt beam="1">  1       21 0.39652328E-01 0.23499639E+03</pdfrwt>
<pdfrwt beam="2">  1       21 0.43542042E-01 0.23499639E+03</pdfrwt>
<totfact> 0.30408496E+04</totfact>
</mgrwt>
</event>
<event>
 4    1  0.3980289E+000  0.1846089E+03  0.7546771E-02  0.1163416E+00
         21   -1    0    0  501  502  0.00000000000E+00  0.00000000000E+00  0.46431708888E+02  0.46431708888E+02  0.00000000000E+00 0. -1.
         21   -1    0    0  502  503 -0.00000000000E+00 -0.00000000000E+00 -0.13275981034E+04  0.13275981034E+04  0.00000000000E+00 0.  1.
          6    1    1    2  501    0 -0.63100194725E+02 -0.13031531218E+02 -0.18119228320E+03  0.25867179760E+03  0.17300000000E+03 0. -1.
         -6    1    1    2    0  503  0.63100194725E+02  0.13031531218E+02 -0.10999741113E+04  0.11153580147E+04  0.17300000000E+03 0.  1.
<mgrwt>
<rscale>  2 0.18460893E+03</rscale>
<asrwt>0</asrwt>
<pdfrwt beam="1">  1       21 0.71433406E-02 0.18460893E+03</pdfrwt>
<pdfrwt beam="2">  1       21 0.20424584E+00 0.18460893E+03</pdfrwt>
<totfact> 0.18541401E+04</totfact>
</mgrwt>
</event>
<event>
 4    1  0.3980289E+000  0.2437789E+03  0.7546771E-02  0.1117301E+00
         21   -1    0    0  503  502  0.00000000000E+00  0.00000000000E+00  0.27732407064E+02  0.27732407064E+02  0.00000000000E+00 0. -1.
         21   -1    0    0  501  503 -0.00000000000E+00 -0.00000000000E+00 -0.23799906610E+04  0.23799906610E+04  0.00000000000E+00 0. -1.
          6    1    1    2  501    0 -0.12473635353E+03 -0.11806774909E+03 -0.15560854811E+04  0.15750651338E+04  0.17300000000E+03 0. -1.
         -6    1    1    2    0  502  0.12473635353E+03  0.11806774909E+03 -0.79617277286E+03  0.83265793428E+03  0.17300000000E+03 0. -1.
<mgrwt>
<rscale>  2 0.24377890E+03</rscale>
<asrwt>0</asrwt>
<pdfrwt beam="1">  1       21 0.42665225E-02 0.24377890E+03</pdfrwt>
<pdfrwt beam="2">  1       21 0.36615255E+00 0.24377890E+03</pdfrwt>
<totfact> 0.46429339E+03</totfact>
</mgrwt>
</event>
<event>
 4    1  0.3980289E+000  0.1990881E+03  0.7546771E-02  0.1150511E+00
         21   -1    0    0  503  502  0.00000000000E+00  0.00000000000E+00  0.31382753381E+03  0.31382753381E+03  0.00000000000E+00 0.  1.
         21   -1    0    0  501  503 -0.00000000000E+00 -0.00000000000E+00 -0.12672623124E+03  0.12672623124E+03  0.00000000000E+00 0.  1.
          6    1    1    2  501    0 -0.50776436277E+02  0.84432341595E+02  0.80758990742E+02  0.21484431892E+03  0.17300000000E+03 0.  1.
         -6    1    1    2    0  502  0.50776436277E+02 -0.84432341595E+02  0.10634231182E+03  0.22570944613E+03  0.17300000000E+03 0.  1.
<mgrwt>
<rscale>  2 0.19908809E+03</rscale>
<asrwt>0</asrwt>
<pdfrwt beam="1">  1       21 0.48281159E-01 0.19908809E+03</pdfrwt>
<pdfrwt beam="2">  1       21 0.19496343E-01 0.19908809E+03</pdfrwt>
<totfact> 0.98945707E+04</totfact>
</mgrwt>
</event>
<event>
 4    1  0.3980289E+000  0.2977484E+03  0.7546771E-02  0.1086372E+00
         21   -1    0    0  501  502  0.00000000000E+00  0.00000000000E+00  0.32107867889E+03  0.32107867889E+03  0.00000000000E+00 0. -1.
         21   -1    0    0  502  503 -0.00000000000E+00 -0.00000000000E+00 -0.36464918819E+03  0.36464918819E+03  0.00000000000E+00 0. -1.
          6    1    1    2  501    0  0.24106958102E+03 -0.24709167127E+02  0.14715918833E+03  0.33212936116E+03  0.17300000000E+03 0. -1.
         -6    1    1    2    0  503 -0.24106958102E+03  0.24709167127E+02 -0.19072969763E+03  0.35359850592E+03  0.17300000000E+03 0. -1.
<mgrwt>
<rscale>  2 0.29774836E+03</rscale>
<asrwt>0</asrwt>
<pdfrwt beam="1">  1       21 0.49396720E-01 0.29774836E+03</pdfrwt>
<pdfrwt beam="2">  1       21 0.56099875E-01 0.29774836E+03</pdfrwt>
<totfact> 0.11027245E+04</totfact>
</mgrwt>
</event>
<event>
 4    1  0.3980289E+000  0.1772253E+03  0.7546771E-02  0.1170516E+00
         21   -1    0    0  501  502  0.00000000000E+00  0.00000000000E+00  0.28850983312E+03  0.28850983312E+03  0.00000000000E+00 0. -1.
         21   -1    0    0  502  503 -0.00000000000E+00 -0.00000000000E+00 -0.11042593143E+03  0.11042593143E+03  0.00000000000E+00 0.  1.
          6    1    1    2  501    0  0.20928726746E+02  0.32276654274E+02  0.11275278704E+03  0.21005233872E+03  0.17300000000E+03 0. -1.
         -6    1    1    2    0  503 -0.20928726746E+02 -0.32276654274E+02  0.65331114649E+02  0.18888342584E+03  0.17300000000E+03 0.  1.
<mgrwt>
<rscale>  2 0.17722526E+03</rscale>
<asrwt>0</asrwt>
<pdfrwt beam="1">  1       21 0.44386128E-01 0.17722526E+03</pdfrwt>
<pdfrwt beam="2">  1       21 0.16988605E-01 0.17722526E+03</pdfrwt>
<totfact> 0.15300396E+05</totfact>
</mgrwt>
</event>
<event>
 4    1  0.3980289E+000  0.1852120E+03  0.7546771E-02  0.1162852E+00
         21   -1    0    0  501  502  0.00000000000E+00  0.00000000000E+00  0.96502236456E+02  0.96502236456E+02  0.00000000000E+00 0. -1.
         21   -1    0    0  502  503 -0.00000000000E+00 -0.00000000000E+00 -0.37207461995E+03  0.37207461995E+03  0.00000000000E+00 0. -1.
          6    1    1    2  501    0  0.54592750448E+02  0.37337713132E+02 -0.88289720382E+02  0.20517930682E+03  0.17300000000E+03 0. -1.
         -6    1    1    2    0  503 -0.54592750448E+02 -0.37337713132E+02 -0.18728266311E+03  0.26339754958E+03  0.17300000000E+03 0. -1.
<mgrwt>
<rscale>  2 0.18521197E+03</rscale>
<asrwt>0</asrwt>
<pdfrwt beam="1">  1       21 0.14846498E-01 0.18521197E+03</pdfrwt>
<pdfrwt beam="2">  1       21 0.57242249E-01 0.18521197E+03</pdfrwt>
<totfact> 0.11484445E+05</totfact>
</mgrwt>
</event>
<event>
 4    1  0.3980289E+000  0.1780974E+03  0.7546771E-02  0.1169657E+00
         21   -1    0    0  501  502  0.00000000000E+00  0.00000000000E+00  0.52101957723E+02  0.52101957723E+02  0.00000000000E+00 0.  1.
         21   -1    0    0  502  503 -0.00000000000E+00 -0.00000000000E+00 -0.65561913415E+03  0.65561913415E+03  0.00000000000E+00 0. -1.
          6    1    1    2  501    0 -0.15074395182E+02  0.39527572931E+02 -0.20717680307E+03  0.27320485747E+03  0.17300000000E+03 0.  1.
         -6    1    1    2    0  503  0.15074395182E+02 -0.39527572931E+02 -0.39634037335E+03  0.43451623441E+03  0.17300000000E+03 0. -1.
<mgrwt>
<rscale>  2 0.17809735E+03</rscale>
<asrwt>0</asrwt>
<pdfrwt beam="1">  1       21 0.80156850E-02 0.17809735E+03</pdfrwt>
<pdfrwt beam="2">  1       21 0.10086449E+00 0.17809735E+03</pdfrwt>
<totfact> 0.96778304E+04</totfact>
</mgrwt>
</event>
<event>
 4    1  0.3980289E+000  0.1790191E+03  0.7546771E-02  0.1168756E+00
         21   -1    0    0  501  502  0.00000000000E+00  0.00000000000E+00  0.71305317210E+03  0.71305317210E+03  0.00000000000E+00 0.  1.
         21   -1    0    0  502  503 -0.00000000000E+00 -0.00000000000E+00 -0.55017328697E+02  0.55017328697E+02  0.00000000000E+00 0.  1.
          6    1    1    2  501    0  0.41686985874E+02  0.19519641744E+02  0.49334039989E+03  0.52481670264E+03  0.17300000000E+03 0.  1.
         -6    1    1    2    0  503 -0.41686985874E+02 -0.19519641744E+02  0.16469544352E+03  0.24325379816E+03  0.17300000000E+03 0.  1.
<mgrwt>
<rscale>  2 0.17901905E+03</rscale>
<asrwt>0</asrwt>
<pdfrwt beam="1">  1       21 0.10970048E+00 0.17901905E+03</pdfrwt>
<pdfrwt beam="2">  1       21 0.84642049E-02 0.17901905E+03</pdfrwt>
<totfact> 0.71955868E+04</totfact>
</mgrwt>
</event>
<event>
 4    1  0.3980289E+000  0.2055927E+03  0.7546771E-02  0.1145104E+00
         21   -1    0    0  503  502  0.00000000000E+00  0.00000000000E+00  0.97510882659E+02  0.97510882659E+02  0.00000000000E+00 0. -1.
         21   -1    0    0  501  503 -0.00000000000E+00 -0.00000000000E+00 -0.44703821854E+03  0.44703821854E+03  0.00000000000E+00 0. -1.
          6    1    1    2  501    0  0.33541728306E+01  0.11103208658E+03 -0.12733492957E+03  0.24183167496E+03  0.17300000000E+03 0. -1.
         -6    1    1    2    0  502 -0.33541728306E+01 -0.11103208658E+03 -0.22219240631E+03  0.30271742624E+03  0.17300000000E+03 0. -1.
<mgrwt>
<rscale>  2 0.20559274E+03</rscale>
<asrwt>0</asrwt>
<pdfrwt beam="1">  1       21 0.15001675E-01 0.20559274E+03</pdfrwt>
<pdfrwt beam="2">  1       21 0.68775109E-01 0.20559274E+03</pdfrwt>
<totfact> 0.75117549E+04</totfact>
</mgrwt>
</event>
<event>
 4    1  0.3980289E+000  0.1823629E+03  0.7546771E-02  0.1165536E+00
         21   -1    0    0  501  502  0.00000000000E+00  0.00000000000E+00  0.26902139727E+03  0.26902139727E+03  0.00000000000E+00 0.  1.
         21   -1    0    0  502  503 -0.00000000000E+00 -0.00000000000E+00 -0.18703461140E+03  0.18703461140E+03  0.00000000000E+00 0.  1.
          6    1    1    2  501    0  0.38806472377E+02 -0.42676663989E+02  0.17377081134E+03  0.25189786585E+03  0.17300000000E+03 0. -1.
         -6    1    1    2    0  503 -0.38806472377E+02  0.42676663989E+02 -0.91784025464E+02  0.20415814282E+03  0.17300000000E+03 0. -1.
<mgrwt>
<rscale>  2 0.18236293E+03</rscale>
<asrwt>0</asrwt>
<pdfrwt beam="1">  1       21 0.41387907E-01 0.18236293E+03</pdfrwt>
<pdfrwt beam="2">  1       21 0.28774556E-01 0.18236293E+03</pdfrwt>
<totfact> 0.65252896E+04</totfact>
</mgrwt>
</event>
<event>
 4    1  0.3980289E+000  0.2223415E+03  0.7546771E-02  0.1132149E+00
         21   -1    0    0  503  502  0.00000000000E+00  0.00000000000E+00  0.39132518626E+03  0.39132518626E+03  0.00000000000E+00 0. -1.
         21   -1    0    0  501  503 -0.00000000000E+00 -0.00000000000E+00 -0.19150263556E+03  0.19150263556E+03  0.00000000000E+00 0. -1.
          6    1    1    2  501    0 -0.13063486736E+03  0.49409356671E+02 -0.70092509043E+02  0.23312810410E+03  0.17300000000E+03 0. -1.
         -6    1    1    2    0  502  0.13063486736E+03 -0.49409356671E+02  0.26991505974E+03  0.34969971772E+03  0.17300000000E+03 0. -1.
<mgrwt>
<rscale>  2 0.22234152E+03</rscale>
<asrwt>0</asrwt>
<pdfrwt beam="1">  1       21 0.60203875E-01 0.22234152E+03</pdfrwt>
<pdfrwt beam="2">  1       21 0.29461944E-01 0.22234152E+03</pdfrwt>
<totfact> 0.27941868E+04</totfact>
</mgrwt>
</event>
<event>
 4    1  0.3980289E+000  0.1731351E+03  0.7546771E-02  0.1174617E+00
         21   -1    0    0  501  502  0.00000000000E+00  0.00000000000E+00  0.33195740275E+03  0.33195740275E+03  0.00000000000E+00 0. -1.
         21   -1    0    0  502  503 -0.00000000000E+00 -0.00000000000E+00 -0.12607630180E+03  0.12607630180E+03  0.00000000000E+00 0. -1.
          6    1    1    2  501    0 -0.48734677163E+01 -0.47956463073E+01  0.22493737224E+03  0.28385307880E+03  0.17300000000E+03 0. -1.
         -6    1    1    2    0  503  0.48734677163E+01  0.47956463073E+01 -0.19056271298E+02  0.17418062575E+03  0.17300000000E+03 0. -1.
<mgrwt>
<rscale>  2 0.17313506E+03</rscale>
<asrwt>0</asrwt>
<pdfrwt beam="1">  1       21 0.51070369E-01 0.17313506E+03</pdfrwt>
<pdfrwt beam="2">  1       21 0.19396354E-01 0.17313506E+03</pdfrwt>
<totfact> 0.89797721E+04</totfact>
</mgrwt>
</event>
<event>
 4    1  0.3980289E+000  0.1831747E+03  0.7546771E-02  0.1164765E+00
         21   -1    0    0  503  502  0.00000000000E+00  0.00000000000E+00  0.19080722323E+03  0.19080722323E+03  0.00000000000E+00 0. -1.
         21   -1    0    0  501  503 -0.00000000000E+00 -0.00000000000E+00 -0.17754658983E+03  0.17754658983E+03  0.00000000000E+00 0. -1.
          6    1    1    2  501    0  0.19664568365E+02 -0.56896931759E+02  0.24647986603E+02  0.18482553757E+03  0.17300000000E+03 0.  1.
         -6    1    1    2    0  502 -0.19664568365E+02  0.56896931759E+02 -0.11387353211E+02  0.18352827549E+03  0.17300000000E+03 0.  1.
<mgrwt>
<rscale>  2 0.18317466E+03</rscale>
<asrwt>0</asrwt>
<pdfrwt beam="1">  1       21 0.29354957E-01 0.18317466E+03</pdfrwt>
<pdfrwt beam="2">  1       21 0.27314860E-01 0.18317466E+03</pdfrwt>
<totfact> 0.14251849E+05</totfact>
</mgrwt>
</event>
<event>
 4    1  0.3980289E+000  0.2891233E+03  0.7546771E-02  0.1090808E+00
         21   -1    0    0  501  502  0.00000000000E+00  0.00000000000E+00  0.31374491232E+03  0.31374491232E+03  0.00000000000E+00 0. -1.
         21   -1    0    0  502  503 -0.00000000000E+00 -0.00000000000E+00 -0.32045533550E+03  0.32045533550E+03  0.00000000000E+00 0.  1.
          6    1    1    2  501    0  0.10714891124E+03 -0.20538351374E+03  0.12684022608E+03  0.31572253618E+03  0.17300000000E+03 0. -1.
         -6    1    1    2    0  503 -0.10714891124E+03  0.20538351374E+03 -0.13355064926E+03  0.31847771164E+03  0.17300000000E+03 0. -1.
<mgrwt>
<rscale>  2 0.28912329E+03</rscale>
<asrwt>0</asrwt>
<pdfrwt beam="1">  1       21 0.48268448E-01 0.28912329E+03</pdfrwt>
<pdfrwt beam="2">  1       21 0.49300821E-01 0.28912329E+03</pdfrwt>
<totfact> 0.15286013E+04</totfact>
</mgrwt>
</event>
<event>
 4    1  0.3980289E+000  0.2083265E+03  0.7546771E-02  0.1142898E+00
         21   -1    0    0  501  502  0.00000000000E+00  0.00000000000E+00  0.39424445630E+03  0.39424445630E+03  0.00000000000E+00 0. -1.
         21   -1    0    0  502  503 -0.00000000000E+00 -0.00000000000E+00 -0.44110173976E+03  0.44110173976E+03  0.00000000000E+00 0. -1.
          6    1    1    2  501    0  0.59100959763E+02  0.99890074960E+02  0.33839158902E+03  0.39737742517E+03  0.17300000000E+03 0. -1.
         -6    1    1    2    0  503 -0.59100959763E+02 -0.99890074960E+02 -0.38524887248E+03  0.43796877088E+03  0.17300000000E+03 0. -1.
<mgrwt>
<rscale>  2 0.20832655E+03</rscale>
<asrwt>0</asrwt>
<pdfrwt beam="1">  1       21 0.60652993E-01 0.20832655E+03</pdfrwt>
<pdfrwt beam="2">  1       21 0.67861806E-01 0.20832655E+03</pdfrwt>
<totfact> 0.49616358E+03</totfact>
</mgrwt>
</event>
<event>
 4    1  0.3980289E+000  0.1764180E+03  0.7546771E-02  0.1171315E+00
         21   -1    0    0  501  502  0.00000000000E+00  0.00000000000E+00  0.79429970513E+03  0.79429970513E+03  0.00000000000E+00 0. -1.
         21   -1    0    0  502  503 -0.00000000000E+00 -0.00000000000E+00 -0.70435538640E+02  0.70435538640E+02  0.00000000000E+00 0. -1.
          6    1    1    2  501    0  0.22917583567E+02  0.25866874023E+02  0.64993545504E+03  0.67345334399E+03  0.17300000000E+03 0. -1.
         -6    1    1    2    0  503 -0.22917583567E+02 -0.25866874023E+02  0.73928711450E+02  0.19128189978E+03  0.17300000000E+03 0. -1.
<mgrwt>
<rscale>  2 0.17641800E+03</rscale>
<asrwt>0</asrwt>
<pdfrwt beam="1">  1       21 0.12219995E+00 0.17641800E+03</pdfrwt>
<pdfrwt beam="2">  1       21 0.10836237E-01 0.17641800E+03</pdfrwt>
<totfact> 0.35858894E+04</totfact>
</mgrwt>
</event>
<event>
 4    1  0.3980289E+000  0.2308350E+03  0.7546771E-02  0.1126053E+00
         21   -1    0    0  501  502  0.00000000000E+00  0.00000000000E+00  0.77223639493E+03  0.77223639493E+03  0.00000000000E+00 0.  1.
         21   -1    0    0  502  503 -0.00000000000E+00 -0.00000000000E+00 -0.93950404570E+02  0.93950404570E+02  0.00000000000E+00 0.  1.
          6    1    1    2  501    0 -0.41820563807E+02  0.14699270072E+03  0.56232818497E+03  0.60786330801E+03  0.17300000000E+03 0.  1.
         -6    1    1    2    0  503  0.41820563807E+02 -0.14699270072E+03  0.11595780539E+03  0.25832349148E+03  0.17300000000E+03 0.  1.
<mgrwt>
<rscale>  2 0.23083504E+03</rscale>
<asrwt>0</asrwt>
<pdfrwt beam="1">  1       21 0.11880559E+00 0.23083504E+03</pdfrwt>
<pdfrwt beam="2">  1       21 0.14453909E-01 0.23083504E+03</pdfrwt>
<totfact> 0.22209431E+04</totfact>
</mgrwt>
</event>
<event>
 4    1  0.3980289E+000  0.2830134E+03  0.7546771E-02  0.1094054E+00
         21   -1    0    0  503  502  0.00000000000E+00  0.00000000000E+00  0.83392353206E+02  0.83392353206E+02  0.00000000000E+00 0.  1.
         21   -1    0    0  501  503 -0.00000000000E+00 -0.00000000000E+00 -0.96094080210E+03  0.96094080210E+03  0.00000000000E+00 0. -1.
          6    1    1    2  501    0  0.22340821508E+03 -0.16010370625E+02 -0.45022730941E+03  0.53179055338E+03  0.17300000000E+03 0. -1.
         -6    1    1    2    0  502 -0.22340821508E+03  0.16010370625E+02 -0.42732113949E+03  0.51254260192E+03  0.17300000000E+03 0.  1.
<mgrwt>
<rscale>  2 0.28301336E+03</rscale>
<asrwt>0</asrwt>
<pdfrwt beam="1">  1       21 0.12829593E-01 0.28301336E+03</pdfrwt>
<pdfrwt beam="2">  1       21 0.14783704E+00 0.28301336E+03</pdfrwt>
<totfact> 0.15317409E+04</totfact>
</mgrwt>
</event>
<event>
 4    1  0.3980289E+000  0.3069352E+03  0.7546771E-02  0.1081824E+00
         21   -1    0    0  503  502  0.00000000000E+00  0.00000000000E+00  0.43844915237E+03  0.43844915237E+03  0.00000000000E+00 0. -1.
         21   -1    0    0  501  503 -0.00000000000E+00 -0.00000000000E+00 -0.22978570963E+03  0.22978570963E+03  0.00000000000E+00 0.  1.
          6    1    1    2  501    0 -0.23090107543E+03 -0.10471333992E+03  0.19203771356E+02  0.30753532322E+03  0.17300000000E+03 0.  1.
         -6    1    1    2    0  502  0.23090107543E+03  0.10471333992E+03  0.18945967139E+03  0.36069953878E+03  0.17300000000E+03 0. -1.
<mgrwt>
<rscale>  2 0.30693516E+03</rscale>
<asrwt>0</asrwt>
<pdfrwt beam="1">  1       21 0.67453715E-01 0.30693516E+03</pdfrwt>
<pdfrwt beam="2">  1       21 0.35351648E-01 0.30693516E+03</pdfrwt>
<totfact> 0.14613919E+04</totfact>
</mgrwt>
</event>
<event>
 4    1  0.3980289E+000  0.1792004E+03  0.7546771E-02  0.1168579E+00
         21   -1    0    0  503  502  0.00000000000E+00  0.00000000000E+00  0.17526287379E+03  0.17526287379E+03  0.00000000000E+00 0. -1.
         21   -1    0    0  501  503 -0.00000000000E+00 -0.00000000000E+00 -0.30829508776E+03  0.30829508776E+03  0.00000000000E+00 0. -1.
          6    1    1    2  501    0 -0.17182032458E+02  0.43457590053E+02 -0.22051214480E+03  0.28414501646E+03  0.17300000000E+03 0. -1.
         -6    1    1    2    0  502  0.17182032458E+02 -0.43457590053E+02  0.87479930834E+02  0.19941294509E+03  0.17300000000E+03 0. -1.
<mgrwt>
<rscale>  2 0.17920040E+03</rscale>
<asrwt>0</asrwt>
<pdfrwt beam="1">  1       21 0.26963519E-01 0.17920040E+03</pdfrwt>
<pdfrwt beam="2">  1       21 0.47430013E-01 0.17920040E+03</pdfrwt>
<totfact> 0.56055528E+04</totfact>
</mgrwt>
</event>
<event>
 4    1  0.3980289E+000  0.1924348E+03  0.7546771E-02  0.1156283E+00
         21   -1    0    0  501  502  0.00000000000E+00  0.00000000000E+00  0.45887676537E+03  0.45887676537E+03  0.00000000000E+00 0.  1.
         21   -1    0    0  502  503 -0.00000000000E+00 -0.00000000000E+00 -0.86227862186E+02  0.86227862186E+02  0.00000000000E+00 0.  1.
          6    1    1    2  501    0 -0.83469747374E+02  0.11616210717E+02  0.25533627304E+03  0.31973074205E+03  0.17300000000E+03 0.  1.
         -6    1    1    2    0  503  0.83469747374E+02 -0.11616210717E+02  0.11731263014E+03  0.22537388551E+03  0.17300000000E+03 0.  1.
<mgrwt>
<rscale>  2 0.19243476E+03</rscale>
<asrwt>0</asrwt>
<pdfrwt beam="1">  1       21 0.70596424E-01 0.19243476E+03</pdfrwt>
<pdfrwt beam="2">  1       21 0.13265825E-01 0.19243476E+03</pdfrwt>
<totfact> 0.89140192E+04</totfact>
</mgrwt>
</event>
<event>
 4    1  0.3980289E+000  0.1909501E+03  0.7546771E-02  0.1157607E+00
         21   -1    0    0  503  502  0.00000000000E+00  0.00000000000E+00  0.61677692713E+03  0.61677692713E+03  0.00000000000E+00 0. -1.
         21   -1    0    0  501  503 -0.00000000000E+00 -0.00000000000E+00 -0.59134365721E+02  0.59134365721E+02  0.00000000000E+00 0. -1.
          6    1    1    2  501    0  0.57871952141E+02  0.56424894389E+02  0.28463162262E+03  0.34274931385E+03  0.17300000000E+03 0.  1.
         -6    1    1    2    0  502 -0.57871952141E+02 -0.56424894389E+02  0.27301093879E+03  0.33316197900E+03  0.17300000000E+03 0.  1.
<mgrwt>
<rscale>  2 0.19095008E+03</rscale>
<asrwt>0</asrwt>
<pdfrwt beam="1">  1       21 0.94888753E-01 0.19095008E+03</pdfrwt>
<pdfrwt beam="2">  1       21 0.90975952E-02 0.19095008E+03</pdfrwt>
<totfact> 0.89101537E+04</totfact>
</mgrwt>
</event>
<event>
 4    1  0.3980289E+000  0.1750716E+03  0.7546771E-02  0.1172660E+00
         21   -1    0    0  501  502  0.00000000000E+00  0.00000000000E+00  0.28287668979E+03  0.28287668979E+03  0.00000000000E+00 0.  1.
         21   -1    0    0  502  503 -0.00000000000E+00 -0.00000000000E+00 -0.28532610340E+03  0.28532610340E+03  0.00000000000E+00 0.  1.
          6    1    1    2  501    0  0.14246872333E+02  0.22761409821E+02  0.22252287155E+03  0.28313686356E+03  0.17300000000E+03 0.  1.
         -6    1    1    2    0  503 -0.14246872333E+02 -0.22761409821E+02 -0.22497228516E+03  0.28506592963E+03  0.17300000000E+03 0.  1.
<mgrwt>
<rscale>  2 0.17507157E+03</rscale>
<asrwt>0</asrwt>
<pdfrwt beam="1">  1       21 0.43519490E-01 0.17507157E+03</pdfrwt>
<pdfrwt beam="2">  1       21 0.43896324E-01 0.17507157E+03</pdfrwt>
<totfact> 0.25557783E+04</totfact>
</mgrwt>
</event>
<event>
 4    1  0.3980289E+000  0.1843254E+03  0.7546771E-02  0.1163681E+00
         21   -1    0    0  503  502  0.00000000000E+00  0.00000000000E+00  0.88969358546E+02  0.88969358546E+02  0.00000000000E+00 0.  1.
         21   -1    0    0  501  503 -0.00000000000E+00 -0.00000000000E+00 -0.62185034771E+03  0.62185034771E+03  0.00000000000E+00 0.  1.
          6    1    1    2  501    0 -0.11570302020E+02 -0.62553802072E+02 -0.48722213701E+03  0.52092346927E+03  0.17300000000E+03 0.  1.
         -6    1    1    2    0  502  0.11570302020E+02  0.62553802072E+02 -0.45658852156E+02  0.18989623699E+03  0.17300000000E+03 0.  1.
<mgrwt>
<rscale>  2 0.18432539E+03</rscale>
<asrwt>0</asrwt>
<pdfrwt beam="1">  1       21 0.13687594E-01 0.18432539E+03</pdfrwt>
<pdfrwt beam="2">  1       21 0.95669284E-01 0.18432539E+03</pdfrwt>
<totfact> 0.42386956E+04</totfact>
</mgrwt>
</event>
<event>
 4    1  0.3980289E+000  0.1863740E+03  0.7546771E-02  0.1161773E+00
         21   -1    0    0  501  502  0.00000000000E+00  0.00000000000E+00  0.34663800013E+02  0.34663800013E+02  0.00000000000E+00 0.  1.
         21   -1    0    0  502  503 -0.00000000000E+00 -0.00000000000E+00 -0.12526651251E+04  0.12526651251E+04  0.00000000000E+00 0.  1.
          6    1    1    2  501    0  0.46662931847E+02  0.51272276413E+02 -0.32110487483E+03  0.37127296720E+03  0.17300000000E+03 0.  1.
         -6    1    1    2    0  503 -0.46662931847E+02 -0.51272276413E+02 -0.89689645026E+03  0.91605595791E+03  0.17300000000E+03 0.  1.
<mgrwt>
<rscale>  2 0.18637402E+03</rscale>
<asrwt>0</asrwt>
<pdfrwt beam="1">  1       21 0.53328917E-02 0.18637402E+03</pdfrwt>
<pdfrwt beam="2">  1       21 0.19271773E+00 0.18637402E+03</pdfrwt>
<totfact> 0.36244144E+04</totfact>
</mgrwt>
</event>
<event>
 4    1  0.3980289E+000  0.2594814E+03  0.7546771E-02  0.1107455E+00
         21   -1    0    0  503  502  0.00000000000E+00  0.00000000000E+00  0.14678304464E+04  0.14678304464E+04  0.00000000000E+00 0. -1.
         21   -1    0    0  501  503 -0.00000000000E+00 -0.00000000000E+00 -0.47051461745E+02  0.47051461745E+02  0.00000000000E+00 0.  1.
          6    1    1    2  501    0 -0.11409874349E+03 -0.15615085652E+03  0.59040699419E+03  0.64491164670E+03  0.17300000000E+03 0.  1.
         -6    1    1    2    0  502  0.11409874349E+03  0.15615085652E+03  0.83037199049E+03  0.86997026147E+03  0.17300000000E+03 0. -1.
<mgrwt>
<rscale>  2 0.25948143E+03</rscale>
<asrwt>0</asrwt>
<pdfrwt beam="1">  1       21 0.22582003E+00 0.25948143E+03</pdfrwt>
<pdfrwt beam="2">  1       21 0.72386875E-02 0.25948143E+03</pdfrwt>
<totfact> 0.12573669E+04</totfact>
</mgrwt>
</event>
<event>
 4    1  0.3980289E+000  0.2313832E+03  0.7546771E-02  0.1125670E+00
         21   -1    0    0  503  502  0.00000000000E+00  0.00000000000E+00  0.13409487432E+04  0.13409487432E+04  0.00000000000E+00 0.  1.
         21   -1    0    0  501  503 -0.00000000000E+00 -0.00000000000E+00 -0.39974384000E+02  0.39974384000E+02  0.00000000000E+00 0.  1.
          6    1    1    2  501    0  0.13691141955E+03 -0.69745516860E+02  0.62636492372E+03  0.66773586963E+03  0.17300000000E+03 0.  1.
         -6    1    1    2    0  502 -0.13691141955E+03  0.69745516860E+02  0.67460943552E+03  0.71318725761E+03  0.17300000000E+03 0.  1.
<mgrwt>
<rscale>  2 0.23138318E+03</rscale>
<asrwt>0</asrwt>
<pdfrwt beam="1">  1       21 0.20629977E+00 0.23138318E+03</pdfrwt>
<pdfrwt beam="2">  1       21 0.61499063E-02 0.23138318E+03</pdfrwt>
<totfact> 0.22506807E+04</totfact>
</mgrwt>
</event>
<event>
 4    1  0.3980289E+000  0.1894644E+03  0.7546771E-02  0.1158945E+00
         21   -1    0    0  503  502  0.00000000000E+00  0.00000000000E+00  0.43838368011E+03  0.43838368011E+03  0.00000000000E+00 0.  1.
         21   -1    0    0  501  503 -0.00000000000E+00 -0.00000000000E+00 -0.82483159726E+02  0.82483159726E+02  0.00000000000E+00 0.  1.
          6    1    1    2  501    0  0.74227555380E+02 -0.21402022797E+02  0.15576078524E+03  0.24527168360E+03  0.17300000000E+03 0.  1.
         -6    1    1    2    0  502 -0.74227555380E+02  0.21402022797E+02  0.20013973515E+03  0.27559515624E+03  0.17300000000E+03 0.  1.
<mgrwt>
<rscale>  2 0.18946445E+03</rscale>
<asrwt>0</asrwt>
<pdfrwt beam="1">  1       21 0.67443642E-01 0.18946445E+03</pdfrwt>
<pdfrwt beam="2">  1       21 0.12689717E-01 0.18946445E+03</pdfrwt>
<totfact> 0.10687747E+05</totfact>
</mgrwt>
</event>
<event>
 4    1  0.3980289E+000  0.2212288E+03  0.7546771E-02  0.1132970E+00
         21   -1    0    0  501  502  0.00000000000E+00  0.00000000000E+00  0.33629342812E+03  0.33629342812E+03  0.00000000000E+00 0. -1.
         21   -1    0    0  502  503 -0.00000000000E+00 -0.00000000000E+00 -0.14936233157E+03  0.14936233157E+03  0.00000000000E+00 0.  1.
          6    1    1    2  501    0 -0.96636031752E+02  0.98359930786E+02  0.13234058641E+03  0.25779105769E+03  0.17300000000E+03 0. -1.
         -6    1    1    2    0  503  0.96636031752E+02 -0.98359930786E+02  0.54590510139E+02  0.22786470199E+03  0.17300000000E+03 0.  1.
<mgrwt>
<rscale>  2 0.22122884E+03</rscale>
<asrwt>0</asrwt>
<pdfrwt beam="1">  1       21 0.51737450E-01 0.22122884E+03</pdfrwt>
<pdfrwt beam="2">  1       21 0.22978820E-01 0.22122884E+03</pdfrwt>
<totfact> 0.62275296E+04</totfact>
</mgrwt>
</event>
<event>
 4    1  0.3980289E+000  0.2776997E+03  0.7546771E-02  0.1096952E+00
         21   -1    0    0  501  502  0.00000000000E+00  0.00000000000E+00  0.63695976358E+03  0.63695976358E+03  0.00000000000E+00 0.  1.
         21   -1    0    0  502  503 -0.00000000000E+00 -0.00000000000E+00 -0.12172955515E+03  0.12172955515E+03  0.00000000000E+00 0.  1.
          6    1    1    2  501    0 -0.16900182796E+03 -0.13647903903E+03  0.22970634664E+03  0.36039166421E+03  0.17300000000E+03 0.  1.
         -6    1    1    2    0  503  0.16900182796E+03  0.13647903903E+03  0.28552386178E+03  0.39829765452E+03  0.17300000000E+03 0.  1.
<mgrwt>
<rscale>  2 0.27769974E+03</rscale>
<asrwt>0</asrwt>
<pdfrwt beam="1">  1       21 0.97993808E-01 0.27769974E+03</pdfrwt>
<pdfrwt beam="2">  1       21 0.18727624E-01 0.27769974E+03</pdfrwt>
<totfact> 0.21488487E+04</totfact>
</mgrwt>
</event>
<event>
 4    1  0.3980289E+000  0.2172616E+03  0.7546771E-02  0.1135941E+00
         21   -1    0    0  501  502  0.00000000000E+00  0.00000000000E+00  0.55557326108E+03  0.55557326108E+03  0.00000000000E+00 0. -1.
         21   -1    0    0  502  503 -0.00000000000E+00 -0.00000000000E+00 -0.17548104609E+03  0.17548104609E+03  0.00000000000E+00 0. -1.
          6    1    1    2  501    0  0.12430234108E+03  0.42691159218E+02  0.45257345915E+03  0.50202125752E+03  0.17300000000E+03 0. -1.
         -6    1    1    2    0  503 -0.12430234108E+03 -0.42691159218E+02 -0.72481244165E+02  0.22903304965E+03  0.17300000000E+03 0. -1.
<mgrwt>
<rscale>  2 0.21726161E+03</rscale>
<asrwt>0</asrwt>
<pdfrwt beam="1">  1       21 0.85472808E-01 0.21726161E+03</pdfrwt>
<pdfrwt beam="2">  1       21 0.26997084E-01 0.21726161E+03</pdfrwt>
<totfact> 0.15228662E+04</totfact>
</mgrwt>
</event>
<event>
 4    1  0.3980289E+000  0.2156224E+03  0.7546771E-02  0.1137189E+00
         21   -1    0    0  501  502  0.00000000000E+00  0.00000000000E+00  0.28165950874E+03  0.28165950874E+03  0.00000000000E+00 0.  1.
         21   -1    0    0  502  503 -0.00000000000E+00 -0.00000000000E+00 -0.18933751311E+03  0.18933751311E+03  0.00000000000E+00 0.  1.
          6    1    1    2  501    0 -0.34677391902E+00 -0.12870087291E+03  0.13047473834E+03  0.25202518184E+03  0.17300000000E+03 0.  1.
         -6    1    1    2    0  503  0.34677391902E+00  0.12870087291E+03 -0.38152742705E+02  0.21897184000E+03  0.17300000000E+03 0.  1.
<mgrwt>
<rscale>  2 0.21562244E+03</rscale>
<asrwt>0</asrwt>
<pdfrwt beam="1">  1       21 0.43332232E-01 0.21562244E+03</pdfrwt>
<pdfrwt beam="2">  1       21 0.29128848E-01 0.21562244E+03</pdfrwt>
<totfact> 0.57166942E+04</totfact>
</mgrwt>
</event>
<event>
 4    1  0.3980289E+000  0.3696861E+03  0.7546771E-02  0.1054813E+00
         21   -1    0    0  503  502  0.00000000000E+00  0.00000000000E+00  0.61359622448E+02  0.61359622448E+02  0.00000000000E+00 0.  1.
         21   -1    0    0  501  503 -0.00000000000E+00 -0.00000000000E+00 -0.26837179101E+04  0.26837179101E+04  0.00000000000E+00 0. -1.
          6    1    1    2  501    0  0.30541086093E+03 -0.11603021919E+03 -0.18771912899E+04  0.19132472252E+04  0.17300000000E+03 0. -1.
         -6    1    1    2    0  502 -0.30541086093E+03  0.11603021919E+03 -0.74516699778E+03  0.83183030740E+03  0.17300000000E+03 0.  1.
<mgrwt>
<rscale>  2 0.36968609E+03</rscale>
<asrwt>0</asrwt>
<pdfrwt beam="1">  1       21 0.94399423E-02 0.36968609E+03</pdfrwt>
<pdfrwt beam="2">  1       21 0.41287966E+00 0.36968609E+03</pdfrwt>
<totfact> 0.53267836E+02</totfact>
</mgrwt>
</event>
<event>
 4    1  0.3980289E+000  0.2404172E+03  0.7546771E-02  0.1119515E+00
         21   -1    0    0  503  502  0.00000000000E+00  0.00000000000E+00  0.96230865464E+02  0.96230865464E+02  0.00000000000E+00 0.  1.
         21   -1    0    0  501  503 -0.00000000000E+00 -0.00000000000E+00 -0.77028494789E+03  0.77028494789E+03  0.00000000000E+00 0. -1.
          6    1    1    2  501    0 -0.14801485127E+03 -0.77220789101E+02 -0.54035015013E+03  0.59142094249E+03  0.17300000000E+03 0. -1.
         -6    1    1    2    0  502  0.14801485127E+03  0.77220789101E+02 -0.13370393229E+03  0.27509487086E+03  0.17300000000E+03 0.  1.
<mgrwt>
<rscale>  2 0.24041723E+03</rscale>
<asrwt>0</asrwt>
<pdfrwt beam="1">  1       21 0.14804749E-01 0.24041723E+03</pdfrwt>
<pdfrwt beam="2">  1       21 0.11850538E+00 0.24041723E+03</pdfrwt>
<totfact> 0.21283578E+04</totfact>
</mgrwt>
</event>
<event>
 4    1  0.3980289E+000  0.1794479E+03  0.7546771E-02  0.1168338E+00
         21   -1    0    0  503  502  0.00000000000E+00  0.00000000000E+00  0.37028430108E+02  0.37028430108E+02  0.00000000000E+00 0. -1.
         21   -1    0    0  501  503 -0.00000000000E+00 -0.00000000000E+00 -0.10784288007E+04  0.10784288007E+04  0.00000000000E+00 0. -1.
          6    1    1    2  501    0  0.47157750631E+02  0.69783853460E+01 -0.76610136710E+03  0.78683724872E+03  0.17300000000E+03 0. -1.
         -6    1    1    2    0  502 -0.47157750631E+02 -0.69783853460E+01 -0.27529900354E+03  0.32861998213E+03  0.17300000000E+03 0. -1.
<mgrwt>
<rscale>  2 0.17944791E+03</rscale>
<asrwt>0</asrwt>
<pdfrwt beam="1">  1       21 0.56966824E-02 0.17944791E+03</pdfrwt>
<pdfrwt beam="2">  1       21 0.16591210E+00 0.17944791E+03</pdfrwt>
<totfact> 0.49531441E+04</totfact>
</mgrwt>
</event>
<event>
 4    1  0.3980289E+000  0.1871048E+03  0.7546771E-02  0.1161099E+00
         21   -1    0    0  503  502  0.00000000000E+00  0.00000000000E+00  0.21647390324E+03  0.21647390324E+03  0.00000000000E+00 0.  1.
         21   -1    0    0  501  503 -0.00000000000E+00 -0.00000000000E+00 -0.19320979690E+03  0.19320979690E+03  0.00000000000E+00 0.  1.
          6    1    1    2  501    0 -0.97002449300E+01 -0.70605303968E+02 -0.71064544804E+02  0.20014587987E+03  0.17300000000E+03 0.  1.
         -6    1    1    2    0  502  0.97002449300E+01  0.70605303968E+02  0.94328651140E+02  0.20953782028E+03  0.17300000000E+03 0.  1.
<mgrwt>
<rscale>  2 0.18710479E+03</rscale>
<asrwt>0</asrwt>
<pdfrwt beam="1">  1       21 0.33303678E-01 0.18710479E+03</pdfrwt>
<pdfrwt beam="2">  1       21 0.29724584E-01 0.18710479E+03</pdfrwt>
<totfact> 0.94398095E+04</totfact>
</mgrwt>
</event>
<event>
 4    1  0.3980289E+000  0.2338662E+03  0.7546771E-02  0.1123948E+00
         21   -1    0    0  501  502  0.00000000000E+00  0.00000000000E+00  0.25970803747E+03  0.25970803747E+03  0.00000000000E+00 0.  1.
         21   -1    0    0  502  503 -0.00000000000E+00 -0.00000000000E+00 -0.42184188992E+03  0.42184188992E+03  0.00000000000E+00 0. -1.
          6    1    1    2  501    0 -0.10363088260E+03  0.11842730359E+03  0.16008309785E+03  0.28340780562E+03  0.17300000000E+03 0.  1.
         -6    1    1    2    0  503  0.10363088260E+03 -0.11842730359E+03 -0.32221695031E+03  0.39814212178E+03  0.17300000000E+03 0. -1.
<mgrwt>
<rscale>  2 0.23386617E+03</rscale>
<asrwt>0</asrwt>
<pdfrwt beam="1">  1       21 0.39955083E-01 0.23386617E+03</pdfrwt>
<pdfrwt beam="2">  1       21 0.64898752E-01 0.23386617E+03</pdfrwt>
<totfact> 0.12870545E+04</totfact>
</mgrwt>
</event>
<event>
 4    1  0.3980289E+000  0.1800436E+03  0.7546771E-02  0.1167761E+00
         21   -1    0    0  501  502  0.00000000000E+00  0.00000000000E+00  0.44922533595E+02  0.44922533595E+02  0.00000000000E+00 0. -1.
         21   -1    0    0  502  503 -0.00000000000E+00 -0.00000000000E+00 -0.72330357092E+03  0.72330357092E+03  0.00000000000E+00 0. -1.
          6    1    1    2  501    0 -0.49410682328E+02 -0.67293615085E+01 -0.32050040045E+03  0.36760876829E+03  0.17300000000E+03 0. -1.
         -6    1    1    2    0  503  0.49410682328E+02  0.67293615085E+01 -0.35788063687E+03  0.40061733622E+03  0.17300000000E+03 0. -1.
<mgrwt>
<rscale>  2 0.18004361E+03</rscale>
<asrwt>0</asrwt>
<pdfrwt beam="1">  1       21 0.69111582E-02 0.18004361E+03</pdfrwt>
<pdfrwt beam="2">  1       21 0.11127748E+00 0.18004361E+03</pdfrwt>
<totfact> 0.98737000E+04</totfact>
</mgrwt>
</event>
<event>
 4    1  0.3980289E+000  0.1973752E+03  0.7546771E-02  0.1151973E+00
         21   -1    0    0  503  502  0.00000000000E+00  0.00000000000E+00  0.26682350471E+03  0.26682350471E+03  0.00000000000E+00 0. -1.
         21   -1    0    0  501  503 -0.00000000000E+00 -0.00000000000E+00 -0.20367920761E+03  0.20367920761E+03  0.00000000000E+00 0. -1.
          6    1    1    2  501    0  0.73097342085E+02  0.60702119693E+02 -0.93614504998E+02  0.21845055345E+03  0.17300000000E+03 0. -1.
         -6    1    1    2    0  502 -0.73097342085E+02 -0.60702119693E+02  0.15675880210E+03  0.25205215887E+03  0.17300000000E+03 0. -1.
<mgrwt>
<rscale>  2 0.19737520E+03</rscale>
<asrwt>0</asrwt>
<pdfrwt beam="1">  1       21 0.41049770E-01 0.19737520E+03</pdfrwt>
<pdfrwt beam="2">  1       21 0.31335263E-01 0.19737520E+03</pdfrwt>
<totfact> 0.55816504E+04</totfact>
</mgrwt>
</event>
<event>
 4    1  0.3980289E+000  0.1763390E+03  0.7546771E-02  0.1171394E+00
         21   -1    0    0  503  502  0.00000000000E+00  0.00000000000E+00  0.44682262670E+03  0.44682262670E+03  0.00000000000E+00 0. -1.
         21   -1    0    0  501  503 -0.00000000000E+00 -0.00000000000E+00 -0.20045461946E+03  0.20045461946E+03  0.00000000000E+00 0. -1.
          6    1    1    2  501    0  0.24916571444E+02 -0.23357911004E+02 -0.13830869553E+03  0.22410872986E+03  0.17300000000E+03 0. -1.
         -6    1    1    2    0  502 -0.24916571444E+02  0.23357911004E+02  0.38467670277E+03  0.42316851630E+03  0.17300000000E+03 0. -1.
<mgrwt>
<rscale>  2 0.17633896E+03</rscale>
<asrwt>0</asrwt>
<pdfrwt beam="1">  1       21 0.68741942E-01 0.17633896E+03</pdfrwt>
<pdfrwt beam="2">  1       21 0.30839172E-01 0.17633896E+03</pdfrwt>
<totfact> 0.19665810E+04</totfact>
</mgrwt>
</event>
<event>
 4    1  0.3980289E+000  0.1774757E+03  0.7546771E-02  0.1170269E+00
         21   -1    0    0  503  502  0.00000000000E+00  0.00000000000E+00  0.60480863632E+02  0.60480863632E+02  0.00000000000E+00 0.  1.
         21   -1    0    0  501  503 -0.00000000000E+00 -0.00000000000E+00 -0.52321675681E+03  0.52321675681E+03  0.00000000000E+00 0.  1.
          6    1    1    2  501    0  0.31096085155E+02  0.24528956820E+02 -0.25125704955E+03  0.30761622386E+03  0.17300000000E+03 0.  1.
         -6    1    1    2    0  502 -0.31096085155E+02 -0.24528956820E+02 -0.21147884362E+03  0.27608139657E+03  0.17300000000E+03 0.  1.
<mgrwt>
<rscale>  2 0.17747573E+03</rscale>
<asrwt>0</asrwt>
<pdfrwt beam="1">  1       21 0.93047483E-02 0.17747573E+03</pdfrwt>
<pdfrwt beam="2">  1       21 0.80494885E-01 0.17747573E+03</pdfrwt>
<totfact> 0.12565898E+05</totfact>
</mgrwt>
</event>
<event>
 4    1  0.3980289E+000  0.3099352E+03  0.7546771E-02  0.1080377E+00
         21   -1    0    0  503  502  0.00000000000E+00  0.00000000000E+00  0.33939804677E+03  0.33939804677E+03  0.00000000000E+00 0.  1.
         21   -1    0    0  501  503 -0.00000000000E+00 -0.00000000000E+00 -0.28345615000E+03  0.28345615000E+03  0.00000000000E+00 0. -1.
          6    1    1    2  501    0 -0.66019489730E+02 -0.24854029223E+03  0.15896602583E+02  0.31034263623E+03  0.17300000000E+03 0.  1.
         -6    1    1    2    0  502  0.66019489730E+02  0.24854029223E+03  0.40045294183E+02  0.31251156054E+03  0.17300000000E+03 0. -1.
<mgrwt>
<rscale>  2 0.30993523E+03</rscale>
<asrwt>0</asrwt>
<pdfrwt beam="1">  1       21 0.52215084E-01 0.30993523E+03</pdfrwt>
<pdfrwt beam="2">  1       21 0.43608639E-01 0.30993523E+03</pdfrwt>
<totfact> 0.16581927E+04</totfact>
</mgrwt>
</event>
<event>
 4    1  0.3980289E+000  0.2448321E+03  0.7546771E-02  0.1116615E+00
         21   -1    0    0  501  502  0.00000000000E+00  0.00000000000E+00  0.10132198335E+03  0.10132198335E+03  0.00000000000E+00 0.  1.
         21   -1    0    0  502  503 -0.00000000000E+00 -0.00000000000E+00 -0.65381979656E+03  0.65381979656E+03  0.00000000000E+00 0. -1.
          6    1    1    2  501    0  0.11196524477E+03 -0.13220260279E+03 -0.15977971310E+03  0.29235646211E+03  0.17300000000E+03 0.  1.
         -6    1    1    2    0  503 -0.11196524477E+03  0.13220260279E+03 -0.39271810010E+03  0.46278531780E+03  0.17300000000E+03 0. -1.
<mgrwt>
<rscale>  2 0.24483207E+03</rscale>
<asrwt>0</asrwt>
<pdfrwt beam="1">  1       21 0.15587997E-01 0.24483207E+03</pdfrwt>
<pdfrwt beam="2">  1       21 0.10058766E+00 0.24483207E+03</pdfrwt>
<totfact> 0.28798411E+04</totfact>
</mgrwt>
</event>
<event>
 4    1  0.3980289E+000  0.1768996E+03  0.7546771E-02  0.1170838E+00
         21   -1    0    0  501  502  0.00000000000E+00  0.00000000000E+00  0.14440813448E+03  0.14440813448E+03  0.00000000000E+00 0.  1.
         21   -1    0    0  502  503 -0.00000000000E+00 -0.00000000000E+00 -0.22506851998E+03  0.22506851998E+03  0.00000000000E+00 0.  1.
          6    1    1    2  501    0  0.29335915403E+02  0.22446943404E+02 -0.47109484986E+01  0.17696229609E+03  0.17300000000E+03 0.  1.
         -6    1    1    2    0  503 -0.29335915403E+02 -0.22446943404E+02 -0.75949436997E+02  0.19251435838E+03  0.17300000000E+03 0.  1.
<mgrwt>
<rscale>  2 0.17689958E+03</rscale>
<asrwt>0</asrwt>
<pdfrwt beam="1">  1       21 0.22216636E-01 0.17689958E+03</pdfrwt>
<pdfrwt beam="2">  1       21 0.34625926E-01 0.17689958E+03</pdfrwt>
<totfact> 0.15310528E+05</totfact>
</mgrwt>
</event>
<event>
 4    1  0.3980289E+000  0.2375228E+03  0.7546771E-02  0.1121454E+00
         21   -1    0    0  503  502  0.00000000000E+00  0.00000000000E+00  0.28540278003E+03  0.28540278003E+03  0.00000000000E+00 0.  1.
         21   -1    0    0  501  503 -0.00000000000E+00 -0.00000000000E+00 -0.20548961773E+03  0.20548961773E+03  0.00000000000E+00 0. -1.
          6    1    1    2  501    0 -0.15153876585E+03 -0.59364100578E+02  0.87820202610E+02  0.25323799474E+03  0.17300000000E+03 0.  1.
         -6    1    1    2    0  502  0.15153876585E+03  0.59364100578E+02 -0.79070403037E+01  0.23765440303E+03  0.17300000000E+03 0.  1.
<mgrwt>
<rscale>  2 0.23752283E+03</rscale>
<asrwt>0</asrwt>
<pdfrwt beam="1">  1       21 0.43908120E-01 0.23752283E+03</pdfrwt>
<pdfrwt beam="2">  1       21 0.31613787E-01 0.23752283E+03</pdfrwt>
<totfact> 0.46948002E+04</totfact>
</mgrwt>
</event>
<event>
 4    1  0.3980289E+000  0.1861939E+03  0.7546771E-02  0.1161940E+00
         21   -1    0    0  501  502  0.00000000000E+00  0.00000000000E+00  0.97013449688E+02  0.97013449688E+02  0.00000000000E+00 0. -1.
         21   -1    0    0  502  503 -0.00000000000E+00 -0.00000000000E+00 -0.35983313940E+03  0.35983313940E+03  0.00000000000E+00 0. -1.
          6    1    1    2  501    0 -0.59544996297E+02 -0.34547820278E+02 -0.11245031814E+03  0.21751605118E+03  0.17300000000E+03 0. -1.
         -6    1    1    2    0  503  0.59544996297E+02  0.34547820278E+02 -0.15036937158E+03  0.23933053791E+03  0.17300000000E+03 0. -1.
<mgrwt>
<rscale>  2 0.18619387E+03</rscale>
<asrwt>0</asrwt>
<pdfrwt beam="1">  1       21 0.14925146E-01 0.18619387E+03</pdfrwt>
<pdfrwt beam="2">  1       21 0.55358944E-01 0.18619387E+03</pdfrwt>
<totfact> 0.12206960E+05</totfact>
</mgrwt>
</event>
<event>
 4    1  0.3980289E+000  0.1902530E+03  0.7546771E-02  0.1158233E+00
         21   -1    0    0  501  502  0.00000000000E+00  0.00000000000E+00  0.19222997724E+03  0.19222997724E+03  0.00000000000E+00 0.  1.
         21   -1    0    0  502  503 -0.00000000000E+00 -0.00000000000E+00 -0.41868709237E+03  0.41868709237E+03  0.00000000000E+00 0.  1.
          6    1    1    2  501    0 -0.60269960689E+02  0.51329593090E+02  0.11336107144E+03  0.22146540995E+03  0.17300000000E+03 0.  1.
         -6    1    1    2    0  503  0.60269960689E+02 -0.51329593090E+02 -0.33981818657E+03  0.38945165966E+03  0.17300000000E+03 0.  1.
<mgrwt>
<rscale>  2 0.19025298E+03</rscale>
<asrwt>0</asrwt>
<pdfrwt beam="1">  1       21 0.29573843E-01 0.19025298E+03</pdfrwt>
<pdfrwt beam="2">  1       21 0.64413398E-01 0.19025298E+03</pdfrwt>
<totfact> 0.24390652E+04</totfact>
</mgrwt>
</event>
<event>
 4    1  0.3980289E+000  0.1758243E+03  0.7546771E-02  0.1171907E+00
         21   -1    0    0  503  502  0.00000000000E+00  0.00000000000E+00  0.14243062046E+04  0.14243062046E+04  0.00000000000E+00 0.  1.
         21   -1    0    0  501  503 -0.00000000000E+00 -0.00000000000E+00 -0.38177191994E+02  0.38177191994E+02  0.00000000000E+00 0.  1.
          6    1    1    2  501    0 -0.31346238149E+02 -0.16105592829E+01  0.21273615172E+03  0.27599067157E+03  0.17300000000E+03 0.  1.
         -6    1    1    2    0  502  0.31346238149E+02  0.16105592829E+01  0.11733928609E+04  0.11864927250E+04  0.17300000000E+03 0.  1.
<mgrwt>
<rscale>  2 0.17582429E+03</rscale>
<asrwt>0</asrwt>
<pdfrwt beam="1">  1       21 0.21912399E+00 0.17582429E+03</pdfrwt>
<pdfrwt beam="2">  1       21 0.58734153E-02 0.17582429E+03</pdfrwt>
<totfact> 0.21117354E+04</totfact>
</mgrwt>
</event>
<event>
 4    1  0.3980289E+000  0.2250059E+03  0.7546771E-02  0.1130205E+00
         21   -1    0    0  501  502  0.00000000000E+00  0.00000000000E+00  0.64736673742E+03  0.64736673742E+03  0.00000000000E+00 0. -1.
         21   -1    0    0  502  503 -0.00000000000E+00 -0.00000000000E+00 -0.19738677086E+03  0.19738677086E+03  0.00000000000E+00 0.  1.
          6    1    1    2  501    0  0.11656220955E+03 -0.84332079492E+02  0.55319481338E+03  0.59720360840E+03  0.17300000000E+03 0. -1.
         -6    1    1    2    0  503 -0.11656220955E+03  0.84332079492E+02 -0.10321484683E+03  0.24754989989E+03  0.17300000000E+03 0.  1.
<mgrwt>
<rscale>  2 0.22500589E+03</rscale>
<asrwt>0</asrwt>
<pdfrwt beam="1">  1       21 0.99594882E-01 0.22500589E+03</pdfrwt>
<pdfrwt beam="2">  1       21 0.30367196E-01 0.22500589E+03</pdfrwt>
<totfact> 0.84340699E+03</totfact>
</mgrwt>
</event>
<event>
 4    1  0.3980289E+000  0.2184059E+03  0.7546771E-02  0.1135077E+00
         21   -1    0    0  503  502  0.00000000000E+00  0.00000000000E+00  0.15483454161E+04  0.15483454161E+04  0.00000000000E+00 0. -1.
         21   -1    0    0  501  503 -0.00000000000E+00 -0.00000000000E+00 -0.88446283714E+02  0.88446283714E+02  0.00000000000E+00 0. -1.
          6    1    1    2  501    0 -0.88949671245E+02  0.99297891781E+02  0.69286697698E+02  0.22913262929E+03  0.17300000000E+03 0. -1.
         -6    1    1    2    0  502  0.88949671245E+02 -0.99297891781E+02  0.13906124347E+04  0.14076590706E+04  0.17300000000E+03 0. -1.
<mgrwt>
<rscale>  2 0.21840585E+03</rscale>
<asrwt>0</asrwt>
<pdfrwt beam="1">  1       21 0.23820697E+00 0.21840585E+03</pdfrwt>
<pdfrwt beam="2">  1       21 0.13607122E-01 0.21840585E+03</pdfrwt>
<totfact> 0.35621175E+03</totfact>
</mgrwt>
</event>
<event>
 4    1  0.3980289E+000  0.1981933E+03  0.7546771E-02  0.1151272E+00
         21   -1    0    0  503  502  0.00000000000E+00  0.00000000000E+00  0.28056540323E+03  0.28056540323E+03  0.00000000000E+00 0.  1.
         21   -1    0    0  501  503 -0.00000000000E+00 -0.00000000000E+00 -0.14219568649E+03  0.14219568649E+03  0.00000000000E+00 0.  1.
          6    1    1    2  501    0 -0.49965971170E+02 -0.82794753738E+02  0.95421503339E+02  0.21996779951E+03  0.17300000000E+03 0.  1.
         -6    1    1    2    0  502  0.49965971170E+02  0.82794753738E+02  0.42948213396E+02  0.20279329021E+03  0.17300000000E+03 0.  1.
<mgrwt>
<rscale>  2 0.19819326E+03</rscale>
<asrwt>0</asrwt>
<pdfrwt beam="1">  1       21 0.43163908E-01 0.19819326E+03</pdfrwt>
<pdfrwt beam="2">  1       21 0.21876259E-01 0.19819326E+03</pdfrwt>
<totfact> 0.10045689E+05</totfact>
</mgrwt>
</event>
<event>
 4    1  0.3980289E+000  0.2063662E+03  0.7546771E-02  0.1144476E+00
         21   -1    0    0  503  502  0.00000000000E+00  0.00000000000E+00  0.54085707588E+03  0.54085707588E+03  0.00000000000E+00 0. -1.
         21   -1    0    0  501  503 -0.00000000000E+00 -0.00000000000E+00 -0.26900469048E+03  0.26900469048E+03  0.00000000000E+00 0.  1.
          6    1    1    2  501    0 -0.61284065377E+02 -0.94351759199E+02 -0.20462332878E+03  0.29061606600E+03  0.17300000000E+03 0.  1.
         -6    1    1    2    0  502  0.61284065377E+02  0.94351759199E+02  0.47647571419E+03  0.51924570036E+03  0.17300000000E+03 0. -1.
<mgrwt>
<rscale>  2 0.20636616E+03</rscale>
<asrwt>0</asrwt>
<pdfrwt beam="1">  1       21 0.83208781E-01 0.20636616E+03</pdfrwt>
<pdfrwt beam="2">  1       21 0.41385337E-01 0.20636616E+03</pdfrwt>
<totfact> 0.70014851E+03</totfact>
</mgrwt>
</event>
<event>
 4    1  0.3980289E+000  0.2584524E+03  0.7546771E-02  0.1108077E+00
         21   -1    0    0  501  502  0.00000000000E+00  0.00000000000E+00  0.10038599000E+04  0.10038599000E+04  0.00000000000E+00 0.  1.
         21   -1    0    0  502  503 -0.00000000000E+00 -0.00000000000E+00 -0.68042933039E+02  0.68042933039E+02  0.00000000000E+00 0. -1.
          6    1    1    2  501    0 -0.17151013665E+03 -0.86330393525E+02  0.54753996567E+03  0.60547310248E+03  0.17300000000E+03 0.  1.
         -6    1    1    2    0  503  0.17151013665E+03  0.86330393525E+02  0.38827700128E+03  0.46642973055E+03  0.17300000000E+03 0.  1.
<mgrwt>
<rscale>  2 0.25845244E+03</rscale>
<asrwt>0</asrwt>
<pdfrwt beam="1">  1       21 0.15443997E+00 0.25845244E+03</pdfrwt>
<pdfrwt beam="2">  1       21 0.10468144E-01 0.25845244E+03</pdfrwt>
<totfact> 0.19898770E+04</totfact>
</mgrwt>
</event>
<event>
 4    1  0.3980289E+000  0.1944678E+03  0.7546771E-02  0.1154492E+00
         21   -1    0    0  503  502  0.00000000000E+00  0.00000000000E+00  0.83509372902E+03  0.83509372902E+03  0.00000000000E+00 0. -1.
         21   -1    0    0  501  503 -0.00000000000E+00 -0.00000000000E+00 -0.46343493524E+02  0.46343493524E+02  0.00000000000E+00 0. -1.
          6    1    1    2  501    0  0.80621563369E+02  0.37267977753E+02  0.32778902312E+03  0.38113433632E+03  0.17300000000E+03 0. -1.
         -6    1    1    2    0  502 -0.80621563369E+02 -0.37267977753E+02  0.46096121237E+03  0.50030288622E+03  0.17300000000E+03 0. -1.
<mgrwt>
<rscale>  2 0.19446783E+03</rscale>
<asrwt>0</asrwt>
<pdfrwt beam="1">  1       21 0.12847595E+00 0.19446783E+03</pdfrwt>
<pdfrwt beam="2">  1       21 0.71297689E-02 0.19446783E+03</pdfrwt>
<totfact> 0.65195057E+04</totfact>
</mgrwt>
</event>
<event>
 4    1  0.3980289E+000  0.1832765E+03  0.7546771E-02  0.1164669E+00
         21   -1    0    0  501  502  0.00000000000E+00  0.00000000000E+00  0.43326118256E+02  0.43326118256E+02  0.00000000000E+00 0. -1.
         21   -1    0    0  502  503 -0.00000000000E+00 -0.00000000000E+00 -0.77903627463E+03  0.77903627463E+03  0.00000000000E+00 0. -1.
          6    1    1    2  501    0 -0.25333357476E+02 -0.54949946926E+02 -0.33933865279E+03  0.38566954371E+03  0.17300000000E+03 0. -1.
         -6    1    1    2    0  503  0.25333357476E+02  0.54949946926E+02 -0.39637150359E+03  0.43669284918E+03  0.17300000000E+03 0. -1.
<mgrwt>
<rscale>  2 0.18327650E+03</rscale>
<asrwt>0</asrwt>
<pdfrwt beam="1">  1       21 0.66655569E-02 0.18327650E+03</pdfrwt>
<pdfrwt beam="2">  1       21 0.11985173E+00 0.18327650E+03</pdfrwt>
<totfact> 0.87555058E+04</totfact>
</mgrwt>
</event>
<event>
 4    1  0.3980289E+000  0.2021418E+03  0.7546771E-02  0.1147944E+00
         21   -1    0    0  503  502  0.00000000000E+00  0.00000000000E+00  0.12311210935E+03  0.12311210935E+03  0.00000000000E+00 0.  1.
         21   -1    0    0  501  503 -0.00000000000E+00 -0.00000000000E+00 -0.52093709309E+03  0.52093709309E+03  0.00000000000E+00 0.  1.
          6    1    1    2  501    0  0.97039719038E+02  0.38930908595E+02 -0.39289656130E+03  0.44184729330E+03  0.17300000000E+03 0.  1.
         -6    1    1    2    0  502 -0.97039719038E+02 -0.38930908595E+02 -0.49284224508E+01  0.20220190915E+03  0.17300000000E+03 0.  1.
<mgrwt>
<rscale>  2 0.20214184E+03</rscale>
<asrwt>0</asrwt>
<pdfrwt beam="1">  1       21 0.18940324E-01 0.20214184E+03</pdfrwt>
<pdfrwt beam="2">  1       21 0.80144169E-01 0.20214184E+03</pdfrwt>
<totfact> 0.34813907E+04</totfact>
</mgrwt>
</event>
<event>
 4    1  0.3980289E+000  0.2786696E+03  0.7546771E-02  0.1096418E+00
         21   -1    0    0  503  502  0.00000000000E+00  0.00000000000E+00  0.63861389497E+03  0.63861389497E+03  0.00000000000E+00 0. -1.
         21   -1    0    0  501  503 -0.00000000000E+00 -0.00000000000E+00 -0.23219629218E+03  0.23219629218E+03  0.00000000000E+00 0.  1.
          6    1    1    2  501    0  0.17596486909E+03  0.12947633857E+03 -0.97282654500E+02  0.29516211185E+03  0.17300000000E+03 0.  1.
         -6    1    1    2    0  502 -0.17596486909E+03 -0.12947633857E+03  0.50370025729E+03  0.57564807530E+03  0.17300000000E+03 0. -1.
<mgrwt>
<rscale>  2 0.27866962E+03</rscale>
<asrwt>0</asrwt>
<pdfrwt beam="1">  1       21 0.98248291E-01 0.27866962E+03</pdfrwt>
<pdfrwt beam="2">  1       21 0.35722507E-01 0.27866962E+03</pdfrwt>
<totfact> 0.61161664E+03</totfact>
</mgrwt>
</event>
<event>
 4    1  0.3980289E+000  0.1977399E+03  0.7546771E-02  0.1151660E+00
         21   -1    0    0  503  502  0.00000000000E+00  0.00000000000E+00  0.14928848799E+03  0.14928848799E+03  0.00000000000E+00 0.  1.
         21   -1    0    0  501  503 -0.00000000000E+00 -0.00000000000E+00 -0.26269971444E+03  0.26269971444E+03  0.00000000000E+00 0.  1.
          6    1    1    2  501    0  0.34433775061E+02  0.89366505510E+02 -0.45454933645E+02  0.20289703833E+03  0.17300000000E+03 0.  1.
         -6    1    1    2    0  502 -0.34433775061E+02 -0.89366505510E+02 -0.67956292801E+02  0.20909116410E+03  0.17300000000E+03 0.  1.
<mgrwt>
<rscale>  2 0.19773987E+03</rscale>
<asrwt>0</asrwt>
<pdfrwt beam="1">  1       21 0.22967460E-01 0.19773987E+03</pdfrwt>
<pdfrwt beam="2">  1       21 0.40415341E-01 0.19773987E+03</pdfrwt>
<totfact> 0.10476911E+05</totfact>
</mgrwt>
</event>
<event>
 4    1  0.3980289E+000  0.1730757E+03  0.7546771E-02  0.1174678E+00
         21   -1    0    0  503  502  0.00000000000E+00  0.00000000000E+00  0.79912002227E+02  0.79912002227E+02  0.00000000000E+00 0. -1.
         21   -1    0    0  501  503 -0.00000000000E+00 -0.00000000000E+00 -0.38019572234E+03  0.38019572234E+03  0.00000000000E+00 0. -1.
          6    1    1    2  501    0 -0.84839317981E+00 -0.50487305765E+01 -0.12286905816E+03  0.21225459925E+03  0.17300000000E+03 0. -1.
         -6    1    1    2    0  502  0.84839317981E+00  0.50487305765E+01 -0.17741466196E+03  0.24785312532E+03  0.17300000000E+03 0. -1.
<mgrwt>
<rscale>  2 0.17307573E+03</rscale>
<asrwt>0</asrwt>
<pdfrwt beam="1">  1       21 0.12294154E-01 0.17307573E+03</pdfrwt>
<pdfrwt beam="2">  1       21 0.58491648E-01 0.17307573E+03</pdfrwt>
<totfact> 0.15476370E+05</totfact>
</mgrwt>
</event>
<event>
 4    1  0.3980289E+000  0.2169045E+03  0.7546771E-02  0.1136212E+00
         21   -1    0    0  503  502  0.00000000000E+00  0.00000000000E+00  0.16591163122E+03  0.16591163122E+03  0.00000000000E+00 0. -1.
         21   -1    0    0  501  503 -0.00000000000E+00 -0.00000000000E+00 -0.91356829681E+03  0.91356829681E+03  0.00000000000E+00 0.  1.
          6    1    1    2  501    0  0.10156945096E+03 -0.82475385695E+02 -0.82204065524E+03  0.85017550040E+03  0.17300000000E+03 0.  1.
         -6    1    1    2    0  502 -0.10156945096E+03  0.82475385695E+02  0.74383989655E+02  0.22930442763E+03  0.17300000000E+03 0. -1.
<mgrwt>
<rscale>  2 0.21690446E+03</rscale>
<asrwt>0</asrwt>
<pdfrwt beam="1">  1       21 0.25524866E-01 0.21690446E+03</pdfrwt>
<pdfrwt beam="2">  1       21 0.14054897E+00 0.21690446E+03</pdfrwt>
<totfact> 0.50570784E+03</totfact>
</mgrwt>
</event>
<event>
 4    1  0.3980289E+000  0.1816923E+03  0.7546771E-02  0.1166175E+00
         21   -1    0    0  501  502  0.00000000000E+00  0.00000000000E+00  0.82097618261E+03  0.82097618261E+03  0.00000000000E+00 0.  1.
         21   -1    0    0  502  503 -0.00000000000E+00 -0.00000000000E+00 -0.10153806283E+03  0.10153806283E+03  0.00000000000E+00 0.  1.
          6    1    1    2  501    0  0.42352923859E+02 -0.35907349840E+02  0.71819122966E+03  0.74081762283E+03  0.17300000000E+03 0.  1.
         -6    1    1    2    0  503 -0.42352923859E+02  0.35907349840E+02  0.12468901213E+01  0.18169662261E+03  0.17300000000E+03 0.  1.
<mgrwt>
<rscale>  2 0.18169234E+03</rscale>
<asrwt>0</asrwt>
<pdfrwt beam="1">  1       21 0.12630402E+00 0.18169234E+03</pdfrwt>
<pdfrwt beam="2">  1       21 0.15621241E-01 0.18169234E+03</pdfrwt>
<totfact> 0.17055514E+04</totfact>
</mgrwt>
</event>
<event>
 4    1  0.3980289E+000  0.1840948E+03  0.7546771E-02  0.1163898E+00
         21   -1    0    0  501  502  0.00000000000E+00  0.00000000000E+00  0.98926295737E+02  0.98926295737E+02  0.00000000000E+00 0.  1.
         21   -1    0    0  502  503 -0.00000000000E+00 -0.00000000000E+00 -0.20948784445E+04  0.20948784445E+04  0.00000000000E+00 0. -1.
          6    1    1    2  501    0 -0.42680847031E+02 -0.46262700875E+02  0.52335602667E+01  0.18416916775E+03  0.17300000000E+03 0.  1.
         -6    1    1    2    0  503  0.42680847031E+02  0.46262700875E+02 -0.20011857090E+04  0.20096355725E+04  0.17300000000E+03 0. -1.
<mgrwt>
<rscale>  2 0.18409479E+03</rscale>
<asrwt>0</asrwt>
<pdfrwt beam="1">  1       21 0.15219431E-01 0.18409479E+03</pdfrwt>
<pdfrwt beam="2">  1       21 0.32228897E+00 0.18409479E+03</pdfrwt>
<totfact> 0.98195481E+02</totfact>
</mgrwt>
</event>
<event>
 4    1  0.3980289E+000  0.2324115E+03  0.7546771E-02  0.1124954E+00
         21   -1    0    0  501  502  0.00000000000E+00  0.00000000000E+00  0.28683712589E+03  0.28683712589E+03  0.00000000000E+00 0.  1.
         21   -1    0    0  502  503 -0.00000000000E+00 -0.00000000000E+00 -0.22707225559E+03  0.22707225559E+03  0.00000000000E+00 0.  1.
          6    1    1    2  501    0 -0.15518756469E+03  0.17086277871E+01  0.13604304377E+03  0.26930059302E+03  0.17300000000E+03 0.  1.
         -6    1    1    2    0  503  0.15518756469E+03 -0.17086277871E+01 -0.76278173464E+02  0.24460878846E+03  0.17300000000E+03 0.  1.
<mgrwt>
<rscale>  2 0.23241149E+03</rscale>
<asrwt>0</asrwt>
<pdfrwt beam="1">  1       21 0.44128789E-01 0.23241149E+03</pdfrwt>
<pdfrwt beam="2">  1       21 0.34934193E-01 0.23241149E+03</pdfrwt>
<totfact> 0.38206194E+04</totfact>
</mgrwt>
</event>
<event>
 4    1  0.3980289E+000  0.2684874E+03  0.7546771E-02  0.1102148E+00
         21   -1    0    0  501  502  0.00000000000E+00  0.00000000000E+00  0.54568091703E+02  0.54568091703E+02  0.00000000000E+00 0.  1.
         21   -1    0    0  502  503 -0.00000000000E+00 -0.00000000000E+00 -0.14192729256E+04  0.14192729256E+04  0.00000000000E+00 0.  1.
          6    1    1    2  501    0 -0.12201494941E+03 -0.16513271896E+03 -0.48845877041E+03  0.55738445721E+03  0.17300000000E+03 0.  1.
         -6    1    1    2    0  503  0.12201494941E+03  0.16513271896E+03 -0.87624606346E+03  0.91645656006E+03  0.17300000000E+03 0.  1.
<mgrwt>
<rscale>  2 0.26848736E+03</rscale>
<asrwt>0</asrwt>
<pdfrwt beam="1">  1       21 0.83950911E-02 0.26848736E+03</pdfrwt>
<pdfrwt beam="2">  1       21 0.21834968E+00 0.26848736E+03</pdfrwt>
<totfact> 0.10731370E+04</totfact>
</mgrwt>
</event>
<event>
 4    1  0.3980289E+000  0.2565499E+03  0.7546771E-02  0.1109234E+00
         21   -1    0    0  503  502  0.00000000000E+00  0.00000000000E+00  0.12517317892E+03  0.12517317892E+03  0.00000000000E+00 0.  1.
         21   -1    0    0  501  503 -0.00000000000E+00 -0.00000000000E+00 -0.13569913560E+04  0.13569913560E+04  0.00000000000E+00 0.  1.
          6    1    1    2  501    0 -0.14657437856E+03  0.12002009306E+03 -0.11959045627E+04  0.12231130750E+04  0.17300000000E+03 0.  1.
         -6    1    1    2    0  502  0.14657437856E+03 -0.12002009306E+03 -0.35913614396E+02  0.25905145992E+03  0.17300000000E+03 0.  1.
<mgrwt>
<rscale>  2 0.25654994E+03</rscale>
<asrwt>0</asrwt>
<pdfrwt beam="1">  1       21 0.19257413E-01 0.25654994E+03</pdfrwt>
<pdfrwt beam="2">  1       21 0.20876789E+00 0.25654994E+03</pdfrwt>
<totfact> 0.27637480E+03</totfact>
</mgrwt>
</event>
<event>
 4    1  0.3980289E+000  0.1786429E+03  0.7546771E-02  0.1169123E+00
         21   -1    0    0  503  502  0.00000000000E+00  0.00000000000E+00  0.15044520225E+03  0.15044520225E+03  0.00000000000E+00 0.  1.
         21   -1    0    0  501  503 -0.00000000000E+00 -0.00000000000E+00 -0.21697523705E+03  0.21697523705E+03  0.00000000000E+00 0.  1.
          6    1    1    2  501    0  0.10508635628E+02  0.43288101522E+02 -0.60729989977E+02  0.18868339312E+03  0.17300000000E+03 0.  1.
         -6    1    1    2    0  502 -0.10508635628E+02 -0.43288101522E+02 -0.58000448243E+01  0.17873704618E+03  0.17300000000E+03 0.  1.
<mgrwt>
<rscale>  2 0.17864292E+03</rscale>
<asrwt>0</asrwt>
<pdfrwt beam="1">  1       21 0.23145416E-01 0.17864292E+03</pdfrwt>
<pdfrwt beam="2">  1       21 0.33380805E-01 0.17864292E+03</pdfrwt>
<totfact> 0.15225679E+05</totfact>
</mgrwt>
</event>
<event>
 4    1  0.3980289E+000  0.1973545E+03  0.7546771E-02  0.1151990E+00
         21   -1    0    0  503  502  0.00000000000E+00  0.00000000000E+00  0.31980208039E+03  0.31980208039E+03  0.00000000000E+00 0. -1.
         21   -1    0    0  501  503 -0.00000000000E+00 -0.00000000000E+00 -0.22183408807E+03  0.22183408807E+03  0.00000000000E+00 0. -1.
          6    1    1    2  501    0  0.68289908208E+01 -0.94726717849E+02 -0.13288497868E+03  0.23792268439E+03  0.17300000000E+03 0. -1.
         -6    1    1    2    0  502 -0.68289908208E+01  0.94726717849E+02  0.23085297099E+03  0.30371348407E+03  0.17300000000E+03 0. -1.
<mgrwt>
<rscale>  2 0.19735447E+03</rscale>
<asrwt>0</asrwt>
<pdfrwt beam="1">  1       21 0.49200320E-01 0.19735447E+03</pdfrwt>
<pdfrwt beam="2">  1       21 0.34128321E-01 0.19735447E+03</pdfrwt>
<totfact> 0.32516540E+04</totfact>
</mgrwt>
</event>
<event>
 4    1  0.3980289E+000  0.2870082E+03  0.7546771E-02  0.1091922E+00
         21   -1    0    0  503  502  0.00000000000E+00  0.00000000000E+00  0.78234364096E+02  0.78234364096E+02  0.00000000000E+00 0.  1.
         21   -1    0    0  501  503 -0.00000000000E+00 -0.00000000000E+00 -0.10539323713E+04  0.10539323713E+04  0.00000000000E+00 0. -1.
          6    1    1    2  501    0 -0.20783635604E+03  0.96170312845E+02 -0.47021085763E+03  0.55088286468E+03  0.17300000000E+03 0. -1.
         -6    1    1    2    0  502  0.20783635604E+03 -0.96170312845E+02 -0.50548714956E+03  0.58128387070E+03  0.17300000000E+03 0.  1.
<mgrwt>
<rscale>  2 0.28700815E+03</rscale>
<asrwt>0</asrwt>
<pdfrwt beam="1">  1       21 0.12036056E-01 0.28700815E+03</pdfrwt>
<pdfrwt beam="2">  1       21 0.16214344E+00 0.28700815E+03</pdfrwt>
<totfact> 0.13366323E+04</totfact>
</mgrwt>
</event>
<event>
 4    1  0.3980289E+000  0.1855347E+03  0.7546771E-02  0.1162552E+00
         21   -1    0    0  501  502  0.00000000000E+00  0.00000000000E+00  0.13894589556E+03  0.13894589556E+03  0.00000000000E+00 0. -1.
         21   -1    0    0  502  503 -0.00000000000E+00 -0.00000000000E+00 -0.62141205656E+03  0.62141205656E+03  0.00000000000E+00 0. -1.
          6    1    1    2  501    0 -0.64567747646E+02 -0.18031032953E+02  0.53575979829E+02  0.19311524487E+03  0.17300000000E+03 0. -1.
         -6    1    1    2    0  503  0.64567747646E+02  0.18031032953E+02 -0.53604214083E+03  0.56724270725E+03  0.17300000000E+03 0. -1.
<mgrwt>
<rscale>  2 0.18553467E+03</rscale>
<asrwt>0</asrwt>
<pdfrwt beam="1">  1       21 0.21376292E-01 0.18553467E+03</pdfrwt>
<pdfrwt beam="2">  1       21 0.95601855E-01 0.18553467E+03</pdfrwt>
<totfact> 0.18681081E+04</totfact>
</mgrwt>
</event>
<event>
 4    1  0.3980289E+000  0.2331394E+03  0.7546771E-02  0.1124449E+00
         21   -1    0    0  503  502  0.00000000000E+00  0.00000000000E+00  0.61949940861E+03  0.61949940861E+03  0.00000000000E+00 0. -1.
         21   -1    0    0  501  503 -0.00000000000E+00 -0.00000000000E+00 -0.13704165453E+03  0.13704165453E+03  0.00000000000E+00 0.  1.
          6    1    1    2  501    0 -0.15048539324E+03 -0.42179664821E+02  0.14339918446E+02  0.23357998836E+03  0.17300000000E+03 0.  1.
         -6    1    1    2    0  502  0.15048539324E+03  0.42179664821E+02  0.46811783563E+03  0.52296107478E+03  0.17300000000E+03 0. -1.
<mgrwt>
<rscale>  2 0.23313940E+03</rscale>
<asrwt>0</asrwt>
<pdfrwt beam="1">  1       21 0.95307600E-01 0.23313940E+03</pdfrwt>
<pdfrwt beam="2">  1       21 0.21083332E-01 0.23313940E+03</pdfrwt>
<totfact> 0.18771736E+04</totfact>
</mgrwt>
</event>
<event>
 4    1  0.3980289E+000  0.2010272E+03  0.7546771E-02  0.1148875E+00
         21   -1    0    0  501  502  0.00000000000E+00  0.00000000000E+00  0.73959036909E+03  0.73959036909E+03  0.00000000000E+00 0.  1.
         21   -1    0    0  502  503 -0.00000000000E+00 -0.00000000000E+00 -0.35353277467E+03  0.35353277467E+03  0.00000000000E+00 0.  1.
          6    1    1    2  501    0 -0.91270275093E+02 -0.46396977033E+02  0.69558107892E+03  0.72404763651E+03  0.17300000000E+03 0.  1.
         -6    1    1    2    0  503  0.91270275093E+02  0.46396977033E+02 -0.30952348450E+03  0.36907550725E+03  0.17300000000E+03 0.  1.
<mgrwt>
<rscale>  2 0.20102722E+03</rscale>
<asrwt>0</asrwt>
<pdfrwt beam="1">  1       21 0.11378313E+00 0.20102722E+03</pdfrwt>
<pdfrwt beam="2">  1       21 0.54389658E-01 0.20102722E+03</pdfrwt>
<totfact> 0.19066612E+03</totfact>
</mgrwt>
</event>
<event>
 4    1  0.3980289E+000  0.2017099E+03  0.7546771E-02  0.1148304E+00
         21   -1    0    0  501  502  0.00000000000E+00  0.00000000000E+00  0.13799838577E+03  0.13799838577E+03  0.00000000000E+00 0. -1.
         21   -1    0    0  502  503 -0.00000000000E+00 -0.00000000000E+00 -0.31837025909E+03  0.31837025909E+03  0.00000000000E+00 0. -1.
          6    1    1    2  501    0 -0.53630525768E+02 -0.88778639573E+02 -0.28146103694E+02  0.20366414336E+03  0.17300000000E+03 0.  1.
         -6    1    1    2    0  503  0.53630525768E+02  0.88778639573E+02 -0.15222576962E+03  0.25270450149E+03  0.17300000000E+03 0.  1.
<mgrwt>
<rscale>  2 0.20170989E+03</rscale>
<asrwt>0</asrwt>
<pdfrwt beam="1">  1       21 0.21230521E-01 0.20170989E+03</pdfrwt>
<pdfrwt beam="2">  1       21 0.48980040E-01 0.20170989E+03</pdfrwt>
<totfact> 0.81778820E+04</totfact>
</mgrwt>
</event>
<event>
 4    1  0.3980289E+000  0.1736654E+03  0.7546771E-02  0.1174078E+00
         21   -1    0    0  501  502  0.00000000000E+00  0.00000000000E+00  0.13018734846E+04  0.13018734846E+04  0.00000000000E+00 0. -1.
         21   -1    0    0  502  503 -0.00000000000E+00 -0.00000000000E+00 -0.37815663967E+02  0.37815663967E+02  0.00000000000E+00 0. -1.
          6    1    1    2  501    0  0.14681810801E+02 -0.38864300570E+01  0.10489432060E+04  0.10632222295E+04  0.17300000000E+03 0. -1.
         -6    1    1    2    0  503 -0.14681810801E+02  0.38864300570E+01  0.21511461465E+03  0.27646691908E+03  0.17300000000E+03 0. -1.
<mgrwt>
<rscale>  2 0.17366537E+03</rscale>
<asrwt>0</asrwt>
<pdfrwt beam="1">  1       21 0.20028819E+00 0.17366537E+03</pdfrwt>
<pdfrwt beam="2">  1       21 0.58177954E-02 0.17366537E+03</pdfrwt>
<totfact> 0.28183423E+04</totfact>
</mgrwt>
</event>
<event>
 4    1  0.3980289E+000  0.1737654E+03  0.7546771E-02  0.1173977E+00
         21   -1    0    0  501  502  0.00000000000E+00  0.00000000000E+00  0.57169800361E+03  0.57169800361E+03  0.00000000000E+00 0.  1.
         21   -1    0    0  502  503 -0.00000000000E+00 -0.00000000000E+00 -0.15407552089E+03  0.15407552089E+03  0.00000000000E+00 0.  1.
          6    1    1    2  501    0 -0.16162555173E+02  0.20489365380E+01  0.50299835539E+03  0.53216705259E+03  0.17300000000E+03 0.  1.
         -6    1    1    2    0  503  0.16162555173E+02 -0.20489365380E+01 -0.85375872679E+02  0.19360647191E+03  0.17300000000E+03 0.  1.
<mgrwt>
<rscale>  2 0.17376543E+03</rscale>
<asrwt>0</asrwt>
<pdfrwt beam="1">  1       21 0.87953538E-01 0.17376543E+03</pdfrwt>
<pdfrwt beam="2">  1       21 0.23703927E-01 0.17376543E+03</pdfrwt>
<totfact> 0.18792338E+04</totfact>
</mgrwt>
</event>
<event>
 4    1  0.3980289E+000  0.2019321E+03  0.7546771E-02  0.1148119E+00
         21   -1    0    0  501  502  0.00000000000E+00  0.00000000000E+00  0.68547064333E+02  0.68547064333E+02  0.00000000000E+00 0.  1.
         21   -1    0    0  502  503 -0.00000000000E+00 -0.00000000000E+00 -0.79187436957E+03  0.79187436957E+03  0.00000000000E+00 0. -1.
          6    1    1    2  501    0  0.21443659053E+02  0.10192029205E+03 -0.14708265316E+03  0.24981970160E+03  0.17300000000E+03 0.  1.
         -6    1    1    2    0  503 -0.21443659053E+02 -0.10192029205E+03 -0.57624465208E+03  0.61060173231E+03  0.17300000000E+03 0. -1.
<mgrwt>
<rscale>  2 0.20193211E+03</rscale>
<asrwt>0</asrwt>
<pdfrwt beam="1">  1       21 0.10545702E-01 0.20193211E+03</pdfrwt>
<pdfrwt beam="2">  1       21 0.12182683E+00 0.20193211E+03</pdfrwt>
<totfact> 0.37372148E+04</totfact>
</mgrwt>
</event>
<event>
 4    1  0.3980289E+000  0.1896562E+03  0.7546771E-02  0.1158772E+00
         21   -1    0    0  503  502  0.00000000000E+00  0.00000000000E+00  0.29735732298E+03  0.29735732298E+03  0.00000000000E+00 0.  1.
         21   -1    0    0  501  503 -0.00000000000E+00 -0.00000000000E+00 -0.12678363112E+03  0.12678363112E+03  0.00000000000E+00 0. -1.
          6    1    1    2  501    0 -0.74120755464E+02 -0.23379051907E+02  0.39850387251E+02  0.19379762595E+03  0.17300000000E+03 0. -1.
         -6    1    1    2    0  502  0.74120755464E+02  0.23379051907E+02  0.13072330460E+03  0.23034332815E+03  0.17300000000E+03 0.  1.
<mgrwt>
<rscale>  2 0.18965618E+03</rscale>
<asrwt>0</asrwt>
<pdfrwt beam="1">  1       21 0.45747280E-01 0.18965618E+03</pdfrwt>
<pdfrwt beam="2">  1       21 0.19505174E-01 0.18965618E+03</pdfrwt>
<totfact> 0.11092366E+05</totfact>
</mgrwt>
</event>
<event>
 4    1  0.3980289E+000  0.3065338E+03  0.7546771E-02  0.1082019E+00
         21   -1    0    0  501  502  0.00000000000E+00  0.00000000000E+00  0.42765436400E+03  0.42765436400E+03  0.00000000000E+00 0.  1.
         21   -1    0    0  502  503 -0.00000000000E+00 -0.00000000000E+00 -0.24953173628E+03  0.24953173628E+03  0.00000000000E+00 0.  1.
          6    1    1    2  501    0 -0.11258018064E+03 -0.22662678820E+03  0.20610002656E+03  0.36937815196E+03  0.17300000000E+03 0.  1.
         -6    1    1    2    0  503  0.11258018064E+03  0.22662678820E+03 -0.27977398840E+02  0.30780794832E+03  0.17300000000E+03 0.  1.
<mgrwt>
<rscale>  2 0.30653385E+03</rscale>
<asrwt>0</asrwt>
<pdfrwt beam="1">  1       21 0.65792979E-01 0.30653385E+03</pdfrwt>
<pdfrwt beam="2">  1       21 0.38389498E-01 0.30653385E+03</pdfrwt>
<totfact> 0.13075894E+04</totfact>
</mgrwt>
</event>
<event>
 4    1  0.3980289E+000  0.1908814E+03  0.7546771E-02  0.1157669E+00
         21   -1    0    0  501  502  0.00000000000E+00  0.00000000000E+00  0.46198333691E+03  0.46198333691E+03  0.00000000000E+00 0.  1.
         21   -1    0    0  502  503 -0.00000000000E+00 -0.00000000000E+00 -0.92194057497E+02  0.92194057497E+02  0.00000000000E+00 0.  1.
          6    1    1    2  501    0  0.79780835312E+02 -0.11905568568E+02  0.29024048118E+03  0.34738344975E+03  0.17300000000E+03 0.  1.
         -6    1    1    2    0  503 -0.79780835312E+02  0.11905568568E+02  0.79548798236E+02  0.20679394466E+03  0.17300000000E+03 0.  1.
<mgrwt>
<rscale>  2 0.19088144E+03</rscale>
<asrwt>0</asrwt>
<pdfrwt beam="1">  1       21 0.71074358E-01 0.19088144E+03</pdfrwt>
<pdfrwt beam="2">  1       21 0.14183701E-01 0.19088144E+03</pdfrwt>
<totfact> 0.77864393E+04</totfact>
</mgrwt>
</event>
<event>
 4    1  0.3980289E+000  0.2019858E+03  0.7546771E-02  0.1148074E+00
         21   -1    0    0  503  502  0.00000000000E+00  0.00000000000E+00  0.10091789958E+03  0.10091789958E+03  0.00000000000E+00 0.  1.
         21   -1    0    0  501  503 -0.00000000000E+00 -0.00000000000E+00 -0.40512878457E+03  0.40512878457E+03  0.00000000000E+00 0.  1.
          6    1    1    2  501    0  0.87814824553E+02 -0.56194412152E+02 -0.14046781451E+03  0.24602736084E+03  0.17300000000E+03 0.  1.
         -6    1    1    2    0  502 -0.87814824553E+02  0.56194412152E+02 -0.16374307048E+03  0.26001932332E+03  0.17300000000E+03 0.  1.
<mgrwt>
<rscale>  2 0.20198578E+03</rscale>
<asrwt>0</asrwt>
<pdfrwt beam="1">  1       21 0.15525831E-01 0.20198578E+03</pdfrwt>
<pdfrwt beam="2">  1       21 0.62327506E-01 0.20198578E+03</pdfrwt>
<totfact> 0.87596623E+04</totfact>
</mgrwt>
</event>
<event>
 4    1  0.3980289E+000  0.2155729E+03  0.7546771E-02  0.1137227E+00
         21   -1    0    0  501  502  0.00000000000E+00  0.00000000000E+00  0.63569136482E+03  0.63569136482E+03  0.00000000000E+00 0. -1.
         21   -1    0    0  502  503 -0.00000000000E+00 -0.00000000000E+00 -0.11515986335E+03  0.11515986335E+03  0.00000000000E+00 0.  1.
          6    1    1    2  501    0 -0.11785699636E+03  0.51501305613E+02  0.48714041537E+03  0.53270764999E+03  0.17300000000E+03 0. -1.
         -6    1    1    2    0  503  0.11785699636E+03 -0.51501305613E+02  0.33391086101E+02  0.21814357818E+03  0.17300000000E+03 0.  1.
<mgrwt>
<rscale>  2 0.21557286E+03</rscale>
<asrwt>0</asrwt>
<pdfrwt beam="1">  1       21 0.97798669E-01 0.21557286E+03</pdfrwt>
<pdfrwt beam="2">  1       21 0.17716902E-01 0.21557286E+03</pdfrwt>
<totfact> 0.24684195E+04</totfact>
</mgrwt>
</event>
