<event>
 4    1  0.4111182E+000  0.1768757E+03  0.7546771E-02  0.1170861E+00
         21   -1    0    0  501  502  0.00000000000E+00  0.00000000000E+00  0.11538534847E+04  0.11538534847E+04  0.00000000000E+00 0. -1.
         21   -1    0    0  502  503 -0.00000000000E+00 -0.00000000000E+00 -0.50063385378E+02  0.50063385378E+02  0.00000000000E+00 0. -1.
          6    1    1    2  501    0  0.15609415428E+02 -0.33352242887E+02  0.95945968970E+03  0.97562693798E+03  0.17300000000E+03 0. -1.
         -6    1    1    2    0  503 -0.15609415428E+02  0.33352242887E+02  0.14433040962E+03  0.22828993210E+03  0.17300000000E+03 0. -1.
<mgrwt>
<rscale>  2 0.17687574E+03</rscale>
<asrwt>0</asrwt>
<pdfrwt beam="1">  1       21 0.17751590E+00 0.17687574E+03</pdfrwt>
<pdfrwt beam="2">  1       21 0.77020601E-02 0.17687574E+03</pdfrwt>
<totfact> 0.24526401E+04</totfact>
</mgrwt>
</event>
<event>
 4    1  0.4111182E+000  0.2019150E+03  0.7546771E-02  0.1148133E+00
         21   -1    0    0  501  502  0.00000000000E+00  0.00000000000E+00  0.43804927015E+03  0.43804927015E+03  0.00000000000E+00 0.  1.
         21   -1    0    0  502  503 -0.00000000000E+00 -0.00000000000E+00 -0.95409702899E+02  0.95409702899E+02  0.00000000000E+00 0. -1.
          6    1    1    2  501    0  0.37250967145E+02 -0.97226683703E+02  0.21308038508E+03  0.29355223229E+03  0.17300000000E+03 0.  1.
         -6    1    1    2    0  503 -0.37250967145E+02  0.97226683703E+02  0.12955918218E+03  0.23990674076E+03  0.17300000000E+03 0. -1.
<mgrwt>
<rscale>  2 0.20191499E+03</rscale>
<asrwt>0</asrwt>
<pdfrwt beam="1">  1       21 0.67392194E-01 0.20191499E+03</pdfrwt>
<pdfrwt beam="2">  1       21 0.14678416E-01 0.20191499E+03</pdfrwt>
<totfact> 0.81857221E+04</totfact>
</mgrwt>
</event>
<event>
 4    1  0.4111182E+000  0.1965047E+03  0.7546771E-02  0.1152722E+00
         21   -1    0    0  503  502  0.00000000000E+00  0.00000000000E+00  0.48729104206E+03  0.48729104206E+03  0.00000000000E+00 0.  1.
         21   -1    0    0  501  503 -0.00000000000E+00 -0.00000000000E+00 -0.97411259010E+02  0.97411259010E+02  0.00000000000E+00 0.  1.
          6    1    1    2  501    0 -0.45628036265E+02  0.81259898146E+02  0.68680230536E+02  0.20816114625E+03  0.17300000000E+03 0.  1.
         -6    1    1    2    0  502  0.45628036265E+02 -0.81259898146E+02  0.32119955251E+03  0.37654115482E+03  0.17300000000E+03 0.  1.
<mgrwt>
<rscale>  2 0.19650468E+03</rscale>
<asrwt>0</asrwt>
<pdfrwt beam="1">  1       21 0.74967851E-01 0.19650468E+03</pdfrwt>
<pdfrwt beam="2">  1       21 0.14986348E-01 0.19650468E+03</pdfrwt>
<totfact> 0.62421433E+04</totfact>
</mgrwt>
</event>
<event>
 4    1  0.4111182E+000  0.2059252E+03  0.7546771E-02  0.1144834E+00
         21   -1    0    0  501  502  0.00000000000E+00  0.00000000000E+00  0.83167945938E+02  0.83167945938E+02  0.00000000000E+00 0.  1.
         21   -1    0    0  502  503 -0.00000000000E+00 -0.00000000000E+00 -0.57892102556E+03  0.57892102556E+03  0.00000000000E+00 0.  1.
          6    1    1    2  501    0 -0.10428872550E+03 -0.40000635143E+02 -0.13354959809E+03  0.24543977719E+03  0.17300000000E+03 0.  1.
         -6    1    1    2    0  503  0.10428872550E+03  0.40000635143E+02 -0.36220348153E+03  0.41664919430E+03  0.17300000000E+03 0.  1.
<mgrwt>
<rscale>  2 0.20592520E+03</rscale>
<asrwt>0</asrwt>
<pdfrwt beam="1">  1       21 0.12795068E-01 0.20592520E+03</pdfrwt>
<pdfrwt beam="2">  1       21 0.89064776E-01 0.20592520E+03</pdfrwt>
<totfact> 0.55928651E+04</totfact>
</mgrwt>
</event>
<event>
 4    1  0.4111182E+000  0.1898584E+03  0.7546771E-02  0.1158589E+00
         21   -1    0    0  503  502  0.00000000000E+00  0.00000000000E+00  0.98462402103E+02  0.98462402103E+02  0.00000000000E+00 0. -1.
         21   -1    0    0  501  503 -0.00000000000E+00 -0.00000000000E+00 -0.37747005959E+03  0.37747005959E+03  0.00000000000E+00 0. -1.
          6    1    1    2  501    0  0.21094904453E+02 -0.75314222609E+02 -0.18082017048E+03  0.26218726356E+03  0.17300000000E+03 0.  1.
         -6    1    1    2    0  502 -0.21094904453E+02  0.75314222609E+02 -0.98187487016E+02  0.21374519814E+03  0.17300000000E+03 0.  1.
<mgrwt>
<rscale>  2 0.18985844E+03</rscale>
<asrwt>0</asrwt>
<pdfrwt beam="1">  1       21 0.15148062E-01 0.18985844E+03</pdfrwt>
<pdfrwt beam="2">  1       21 0.58072316E-01 0.18985844E+03</pdfrwt>
<totfact> 0.10719208E+05</totfact>
</mgrwt>
</event>
<event>
 4    1  0.4111182E+000  0.1928100E+03  0.7546771E-02  0.1155951E+00
         21   -1    0    0  503  502  0.00000000000E+00  0.00000000000E+00  0.18451533385E+03  0.18451533385E+03  0.00000000000E+00 0.  1.
         21   -1    0    0  501  503 -0.00000000000E+00 -0.00000000000E+00 -0.25083657997E+03  0.25083657997E+03  0.00000000000E+00 0.  1.
          6    1    1    2  501    0  0.43825028703E+02 -0.72979942700E+02 -0.12972082150E+03  0.23238587889E+03  0.17300000000E+03 0.  1.
         -6    1    1    2    0  502 -0.43825028703E+02  0.72979942700E+02  0.63399575380E+02  0.20296603493E+03  0.17300000000E+03 0.  1.
<mgrwt>
<rscale>  2 0.19281002E+03</rscale>
<asrwt>0</asrwt>
<pdfrwt beam="1">  1       21 0.28386974E-01 0.19281002E+03</pdfrwt>
<pdfrwt beam="2">  1       21 0.38590243E-01 0.19281002E+03</pdfrwt>
<totfact> 0.76821845E+04</totfact>
</mgrwt>
</event>
<event>
 4    1  0.4111182E+000  0.1956668E+03  0.7546771E-02  0.1153447E+00
         21   -1    0    0  503  502  0.00000000000E+00  0.00000000000E+00  0.16751506589E+02  0.16751506589E+02  0.00000000000E+00 0. -1.
         21   -1    0    0  501  503 -0.00000000000E+00 -0.00000000000E+00 -0.25279071959E+04  0.25279071959E+04  0.00000000000E+00 0.  1.
          6    1    1    2  501    0  0.33430980255E+02  0.85081426138E+02 -0.16495780835E+04  0.16611421773E+04  0.17300000000E+03 0.  1.
         -6    1    1    2    0  502 -0.33430980255E+02 -0.85081426138E+02 -0.86157760580E+03  0.88351652521E+03  0.17300000000E+03 0. -1.
<mgrwt>
<rscale>  2 0.19566676E+03</rscale>
<asrwt>0</asrwt>
<pdfrwt beam="1">  1       21 0.25771555E-02 0.19566676E+03</pdfrwt>
<pdfrwt beam="2">  1       21 0.38890871E+00 0.19566676E+03</pdfrwt>
<totfact> 0.82612317E+03</totfact>
</mgrwt>
</event>
<event>
 4    1  0.4111182E+000  0.2200263E+03  0.7546771E-02  0.1133863E+00
         21   -1    0    0  501  502  0.00000000000E+00  0.00000000000E+00  0.11658879607E+04  0.11658879607E+04  0.00000000000E+00 0. -1.
         21   -1    0    0  502  503 -0.00000000000E+00 -0.00000000000E+00 -0.94451357233E+02  0.94451357233E+02  0.00000000000E+00 0. -1.
          6    1    1    2  501    0  0.13118688263E+03 -0.35672918459E+02  0.10074512649E+04  0.10311981413E+04  0.17300000000E+03 0. -1.
         -6    1    1    2    0  503 -0.13118688263E+03  0.35672918459E+02  0.63985338469E+02  0.22914117663E+03  0.17300000000E+03 0. -1.
<mgrwt>
<rscale>  2 0.22002626E+03</rscale>
<asrwt>0</asrwt>
<pdfrwt beam="1">  1       21 0.17936737E+00 0.22002626E+03</pdfrwt>
<pdfrwt beam="2">  1       21 0.14530979E-01 0.22002626E+03</pdfrwt>
<totfact> 0.74710966E+03</totfact>
</mgrwt>
</event>
<event>
 4    1  0.4111182E+000  0.1868504E+03  0.7546771E-02  0.1161333E+00
         21   -1    0    0  503  502  0.00000000000E+00  0.00000000000E+00  0.18400967929E+02  0.18400967929E+02  0.00000000000E+00 0.  1.
         21   -1    0    0  501  503 -0.00000000000E+00 -0.00000000000E+00 -0.19321356103E+04  0.19321356103E+04  0.00000000000E+00 0. -1.
          6    1    1    2  501    0  0.41432167676E+02  0.57161560520E+02 -0.82600704828E+03  0.84687703495E+03  0.17300000000E+03 0.  1.
         -6    1    1    2    0  502 -0.41432167676E+02 -0.57161560520E+02 -0.10877275941E+04  0.11036595433E+04  0.17300000000E+03 0.  1.
<mgrwt>
<rscale>  2 0.18685039E+03</rscale>
<asrwt>0</asrwt>
<pdfrwt beam="1">  1       21 0.28309160E-02 0.18685039E+03</pdfrwt>
<pdfrwt beam="2">  1       21 0.29725185E+00 0.18685039E+03</pdfrwt>
<totfact> 0.24795231E+04</totfact>
</mgrwt>
</event>
<event>
 4    1  0.4111182E+000  0.2113484E+03  0.7546771E-02  0.1140503E+00
         21   -1    0    0  501  502  0.00000000000E+00  0.00000000000E+00  0.96867875000E+03  0.96867875000E+03  0.00000000000E+00 0.  1.
         21   -1    0    0  502  503 -0.00000000000E+00 -0.00000000000E+00 -0.46493347100E+02  0.46493347100E+02  0.00000000000E+00 0. -1.
          6    1    1    2  501    0  0.68495071264E+02 -0.10023759512E+03  0.50703557968E+03  0.54932069806E+03  0.17300000000E+03 0. -1.
         -6    1    1    2    0  503 -0.68495071264E+02  0.10023759512E+03  0.41514982322E+03  0.46585139903E+03  0.17300000000E+03 0.  1.
<mgrwt>
<rscale>  2 0.21134841E+03</rscale>
<asrwt>0</asrwt>
<pdfrwt beam="1">  1       21 0.14902748E+00 0.21134841E+03</pdfrwt>
<pdfrwt beam="2">  1       21 0.71528234E-02 0.21134841E+03</pdfrwt>
<totfact> 0.43835382E+04</totfact>
</mgrwt>
</event>
<event>
 4    1  0.4111182E+000  0.2777502E+03  0.7546771E-02  0.1096924E+00
         21   -1    0    0  501  502  0.00000000000E+00  0.00000000000E+00  0.29714223755E+03  0.29714223755E+03  0.00000000000E+00 0.  1.
         21   -1    0    0  502  503 -0.00000000000E+00 -0.00000000000E+00 -0.29513880157E+03  0.29513880157E+03  0.00000000000E+00 0. -1.
          6    1    1    2  501    0 -0.50350539380E+02  0.21137877300E+03  0.10373030283E+03  0.29648800687E+03  0.17300000000E+03 0.  1.
         -6    1    1    2    0  503  0.50350539380E+02 -0.21137877300E+03 -0.10172686684E+03  0.29579303225E+03  0.17300000000E+03 0. -1.
<mgrwt>
<rscale>  2 0.27775018E+03</rscale>
<asrwt>0</asrwt>
<pdfrwt beam="1">  1       21 0.45714190E-01 0.27775018E+03</pdfrwt>
<pdfrwt beam="2">  1       21 0.45405970E-01 0.27775018E+03</pdfrwt>
<totfact> 0.20431544E+04</totfact>
</mgrwt>
</event>
<event>
 4    1  0.4111182E+000  0.3272403E+03  0.7546771E-02  0.1072365E+00
         21   -1    0    0  503  502  0.00000000000E+00  0.00000000000E+00  0.11848454086E+04  0.11848454086E+04  0.00000000000E+00 0. -1.
         21   -1    0    0  501  503 -0.00000000000E+00 -0.00000000000E+00 -0.94765125813E+02  0.94765125813E+02  0.00000000000E+00 0.  1.
          6    1    1    2  501    0 -0.63573040875E+02 -0.27039906753E+03  0.40740781464E+03  0.52255843183E+03  0.17300000000E+03 0.  1.
         -6    1    1    2    0  502  0.63573040875E+02  0.27039906753E+03  0.68267246810E+03  0.75705210254E+03  0.17300000000E+03 0. -1.
<mgrwt>
<rscale>  2 0.32724026E+03</rscale>
<asrwt>0</asrwt>
<pdfrwt beam="1">  1       21 0.18228390E+00 0.32724026E+03</pdfrwt>
<pdfrwt beam="2">  1       21 0.14579251E-01 0.32724026E+03</pdfrwt>
<totfact> 0.66361193E+03</totfact>
</mgrwt>
</event>
<event>
 4    1  0.4111182E+000  0.1736662E+03  0.7546771E-02  0.1174078E+00
         21   -1    0    0  501  502  0.00000000000E+00  0.00000000000E+00  0.37049210431E+03  0.37049210431E+03  0.00000000000E+00 0. -1.
         21   -1    0    0  502  503 -0.00000000000E+00 -0.00000000000E+00 -0.81411039836E+02  0.81411039836E+02  0.00000000000E+00 0. -1.
          6    1    1    2  501    0  0.12053689749E+01  0.15149206695E+02  0.14261252408E+03  0.22471823113E+03  0.17300000000E+03 0.  1.
         -6    1    1    2    0  503 -0.12053689749E+01 -0.15149206695E+02  0.14646854040E+03  0.22718491302E+03  0.17300000000E+03 0.  1.
<mgrwt>
<rscale>  2 0.17366621E+03</rscale>
<asrwt>0</asrwt>
<pdfrwt beam="1">  1       21 0.56998784E-01 0.17366621E+03</pdfrwt>
<pdfrwt beam="2">  1       21 0.12524776E-01 0.17366621E+03</pdfrwt>
<totfact> 0.15813638E+05</totfact>
</mgrwt>
</event>
<event>
 4    1  0.4111182E+000  0.1788711E+03  0.7546771E-02  0.1168900E+00
         21   -1    0    0  501  502  0.00000000000E+00  0.00000000000E+00  0.14805837236E+03  0.14805837236E+03  0.00000000000E+00 0.  1.
         21   -1    0    0  502  503 -0.00000000000E+00 -0.00000000000E+00 -0.35431802366E+03  0.35431802366E+03  0.00000000000E+00 0.  1.
          6    1    1    2  501    0  0.26241940026E+02  0.37110928782E+02  0.53758570686E+02  0.18677484941E+03  0.17300000000E+03 0.  1.
         -6    1    1    2    0  503 -0.26241940026E+02 -0.37110928782E+02 -0.26001822199E+03  0.31560154661E+03  0.17300000000E+03 0.  1.
<mgrwt>
<rscale>  2 0.17887107E+03</rscale>
<asrwt>0</asrwt>
<pdfrwt beam="1">  1       21 0.22778211E-01 0.17887107E+03</pdfrwt>
<pdfrwt beam="2">  1       21 0.54510465E-01 0.17887107E+03</pdfrwt>
<totfact> 0.57821625E+04</totfact>
</mgrwt>
</event>
<event>
 4    1  0.4111182E+000  0.1820796E+03  0.7546771E-02  0.1165805E+00
         21   -1    0    0  503  502  0.00000000000E+00  0.00000000000E+00  0.11071530064E+03  0.11071530064E+03  0.00000000000E+00 0.  1.
         21   -1    0    0  501  503 -0.00000000000E+00 -0.00000000000E+00 -0.43138313365E+03  0.43138313365E+03  0.00000000000E+00 0.  1.
          6    1    1    2  501    0 -0.37667579184E+02 -0.42486980276E+02 -0.31023474120E+03  0.35972014770E+03  0.17300000000E+03 0.  1.
         -6    1    1    2    0  502  0.37667579184E+02  0.42486980276E+02 -0.10433091809E+02  0.18237828659E+03  0.17300000000E+03 0.  1.
<mgrwt>
<rscale>  2 0.18207963E+03</rscale>
<asrwt>0</asrwt>
<pdfrwt beam="1">  1       21 0.17033123E-01 0.18207963E+03</pdfrwt>
<pdfrwt beam="2">  1       21 0.66366636E-01 0.18207963E+03</pdfrwt>
<totfact> 0.65048033E+04</totfact>
</mgrwt>
</event>
<event>
 4    1  0.4111182E+000  0.2250559E+03  0.7546771E-02  0.1130169E+00
         21   -1    0    0  501  502  0.00000000000E+00  0.00000000000E+00  0.34231432934E+02  0.34231432934E+02  0.00000000000E+00 0. -1.
         21   -1    0    0  502  503 -0.00000000000E+00 -0.00000000000E+00 -0.25155588587E+04  0.25155588587E+04  0.00000000000E+00 0. -1.
          6    1    1    2  501    0  0.85666164999E+01  0.14369333372E+03 -0.42253748038E+03  0.47873592240E+03  0.17300000000E+03 0. -1.
         -6    1    1    2    0  503 -0.85666164999E+01 -0.14369333372E+03 -0.20587899453E+04  0.20710543692E+04  0.17300000000E+03 0. -1.
<mgrwt>
<rscale>  2 0.22505591E+03</rscale>
<asrwt>0</asrwt>
<pdfrwt beam="1">  1       21 0.52663723E-02 0.22505591E+03</pdfrwt>
<pdfrwt beam="2">  1       21 0.38700920E+00 0.22505591E+03</pdfrwt>
<totfact> 0.24727021E+03</totfact>
</mgrwt>
</event>
<event>
 4    1  0.4111182E+000  0.1740041E+03  0.7546771E-02  0.1173735E+00
         21   -1    0    0  503  502  0.00000000000E+00  0.00000000000E+00  0.26729870080E+03  0.26729870080E+03  0.00000000000E+00 0.  1.
         21   -1    0    0  501  503 -0.00000000000E+00 -0.00000000000E+00 -0.13845234828E+03  0.13845234828E+03  0.00000000000E+00 0.  1.
          6    1    1    2  501    0  0.12562992469E+02 -0.13806226063E+02 -0.22095712457E+02  0.17540142863E+03  0.17300000000E+03 0.  1.
         -6    1    1    2    0  502 -0.12562992469E+02  0.13806226063E+02  0.15094206498E+03  0.23034962044E+03  0.17300000000E+03 0.  1.
<mgrwt>
<rscale>  2 0.17400414E+03</rscale>
<asrwt>0</asrwt>
<pdfrwt beam="1">  1       21 0.41122877E-01 0.17400414E+03</pdfrwt>
<pdfrwt beam="2">  1       21 0.21300361E-01 0.17400414E+03</pdfrwt>
<totfact> 0.11761429E+05</totfact>
</mgrwt>
</event>
<event>
 4    1  0.4111182E+000  0.2255119E+03  0.7546771E-02  0.1129839E+00
         21   -1    0    0  503  502  0.00000000000E+00  0.00000000000E+00  0.46227242891E+03  0.46227242891E+03  0.00000000000E+00 0.  1.
         21   -1    0    0  501  503 -0.00000000000E+00 -0.00000000000E+00 -0.38447988029E+03  0.38447988029E+03  0.00000000000E+00 0. -1.
          6    1    1    2  501    0  0.63900679370E+02  0.12978189441E+03 -0.31881706822E+03  0.39051243249E+03  0.17300000000E+03 0. -1.
         -6    1    1    2    0  502 -0.63900679370E+02 -0.12978189441E+03  0.39660961684E+03  0.45623987672E+03  0.17300000000E+03 0.  1.
<mgrwt>
<rscale>  2 0.22551194E+03</rscale>
<asrwt>0</asrwt>
<pdfrwt beam="1">  1       21 0.71118835E-01 0.22551194E+03</pdfrwt>
<pdfrwt beam="2">  1       21 0.59150751E-01 0.22551194E+03</pdfrwt>
<totfact> 0.46633174E+03</totfact>
</mgrwt>
</event>
<event>
 4    1  0.4111182E+000  0.2370825E+03  0.7546771E-02  0.1121752E+00
         21   -1    0    0  501  502  0.00000000000E+00  0.00000000000E+00  0.13296236312E+04  0.13296236312E+04  0.00000000000E+00 0. -1.
         21   -1    0    0  502  503 -0.00000000000E+00 -0.00000000000E+00 -0.42410110616E+02  0.42410110616E+02  0.00000000000E+00 0.  1.
          6    1    1    2  501    0 -0.16209465888E+03  0.21050791377E+01  0.60470000432E+03  0.64951536165E+03  0.17300000000E+03 0.  1.
         -6    1    1    2    0  503  0.16209465888E+03 -0.21050791377E+01  0.68251351631E+03  0.72251838021E+03  0.17300000000E+03 0. -1.
<mgrwt>
<rscale>  2 0.23708250E+03</rscale>
<asrwt>0</asrwt>
<pdfrwt beam="1">  1       21 0.20455745E+00 0.23708250E+03</pdfrwt>
<pdfrwt beam="2">  1       21 0.65246334E-02 0.23708250E+03</pdfrwt>
<totfact> 0.20775123E+04</totfact>
</mgrwt>
</event>
<event>
 4    1  0.4111182E+000  0.1888524E+03  0.7546771E-02  0.1159500E+00
         21   -1    0    0  501  502  0.00000000000E+00  0.00000000000E+00  0.36374257094E+02  0.36374257094E+02  0.00000000000E+00 0.  1.
         21   -1    0    0  502  503 -0.00000000000E+00 -0.00000000000E+00 -0.19253147891E+04  0.19253147891E+04  0.00000000000E+00 0.  1.
          6    1    1    2  501    0  0.69810308571E+02  0.29372619469E+02 -0.25736871679E+03  0.31922388122E+03  0.17300000000E+03 0.  1.
         -6    1    1    2    0  503 -0.69810308571E+02 -0.29372619469E+02 -0.16315718152E+04  0.16424651650E+04  0.17300000000E+03 0.  1.
<mgrwt>
<rscale>  2 0.18885240E+03</rscale>
<asrwt>0</asrwt>
<pdfrwt beam="1">  1       21 0.55960395E-02 0.18885240E+03</pdfrwt>
<pdfrwt beam="2">  1       21 0.29620228E+00 0.18885240E+03</pdfrwt>
<totfact> 0.80068423E+03</totfact>
</mgrwt>
</event>
<event>
 4    1  0.4111182E+000  0.2101770E+03  0.7546771E-02  0.1141426E+00
         21   -1    0    0  501  502  0.00000000000E+00  0.00000000000E+00  0.10371197113E+03  0.10371197113E+03  0.00000000000E+00 0.  1.
         21   -1    0    0  502  503 -0.00000000000E+00 -0.00000000000E+00 -0.43866458538E+03  0.43866458538E+03  0.00000000000E+00 0. -1.
          6    1    1    2  501    0  0.11906325351E+03  0.83252604341E+01 -0.12127619542E+03  0.24265672023E+03  0.17300000000E+03 0. -1.
         -6    1    1    2    0  503 -0.11906325351E+03 -0.83252604341E+01 -0.21367641883E+03  0.29971983629E+03  0.17300000000E+03 0. -1.
<mgrwt>
<rscale>  2 0.21017699E+03</rscale>
<asrwt>0</asrwt>
<pdfrwt beam="1">  1       21 0.15955688E-01 0.21017699E+03</pdfrwt>
<pdfrwt beam="2">  1       21 0.67486859E-01 0.21017699E+03</pdfrwt>
<totfact> 0.69816856E+04</totfact>
</mgrwt>
</event>
<event>
 4    1  0.4111182E+000  0.2051836E+03  0.7546771E-02  0.1145438E+00
         21   -1    0    0  501  502  0.00000000000E+00  0.00000000000E+00  0.10970062121E+03  0.10970062121E+03  0.00000000000E+00 0.  1.
         21   -1    0    0  502  503 -0.00000000000E+00 -0.00000000000E+00 -0.39549136250E+03  0.39549136250E+03  0.00000000000E+00 0.  1.
          6    1    1    2  501    0  0.67695853204E+02  0.87112391096E+02 -0.99417900303E+02  0.22800047396E+03  0.17300000000E+03 0.  1.
         -6    1    1    2    0  503 -0.67695853204E+02 -0.87112391096E+02 -0.18637284099E+03  0.27719150976E+03  0.17300000000E+03 0.  1.
<mgrwt>
<rscale>  2 0.20518357E+03</rscale>
<asrwt>0</asrwt>
<pdfrwt beam="1">  1       21 0.16877019E-01 0.20518357E+03</pdfrwt>
<pdfrwt beam="2">  1       21 0.60844825E-01 0.20518357E+03</pdfrwt>
<totfact> 0.79065307E+04</totfact>
</mgrwt>
</event>
<event>
 4    1  0.4111182E+000  0.1816424E+03  0.7546771E-02  0.1166223E+00
         21   -1    0    0  501  502  0.00000000000E+00  0.00000000000E+00  0.30585292799E+03  0.30585292799E+03  0.00000000000E+00 0.  1.
         21   -1    0    0  502  503 -0.00000000000E+00 -0.00000000000E+00 -0.17550356983E+03  0.17550356983E+03  0.00000000000E+00 0.  1.
          6    1    1    2  501    0  0.42125982227E+02  0.35921413619E+02  0.21457733548E+03  0.28113587326E+03  0.17300000000E+03 0.  1.
         -6    1    1    2    0  503 -0.42125982227E+02 -0.35921413619E+02 -0.84227977321E+02  0.20022062456E+03  0.17300000000E+03 0.  1.
<mgrwt>
<rscale>  2 0.18164236E+03</rscale>
<asrwt>0</asrwt>
<pdfrwt beam="1">  1       21 0.47054297E-01 0.18164236E+03</pdfrwt>
<pdfrwt beam="2">  1       21 0.27000549E-01 0.18164236E+03</pdfrwt>
<totfact> 0.56769148E+04</totfact>
</mgrwt>
</event>
<event>
 4    1  0.4111182E+000  0.2004057E+03  0.7546771E-02  0.1149397E+00
         21   -1    0    0  501  502  0.00000000000E+00  0.00000000000E+00  0.52295908709E+03  0.52295908709E+03  0.00000000000E+00 0.  1.
         21   -1    0    0  502  503 -0.00000000000E+00 -0.00000000000E+00 -0.11317611329E+03  0.11317611329E+03  0.00000000000E+00 0.  1.
          6    1    1    2  501    0 -0.47856907058E+02 -0.89124359959E+02  0.38521799930E+03  0.43422959604E+03  0.17300000000E+03 0.  1.
         -6    1    1    2    0  503  0.47856907058E+02  0.89124359959E+02  0.24564974498E+02  0.20190560434E+03  0.17300000000E+03 0.  1.
<mgrwt>
<rscale>  2 0.20040568E+03</rscale>
<asrwt>0</asrwt>
<pdfrwt beam="1">  1       21 0.80455243E-01 0.20040568E+03</pdfrwt>
<pdfrwt beam="2">  1       21 0.17411710E-01 0.20040568E+03</pdfrwt>
<totfact> 0.40368625E+04</totfact>
</mgrwt>
</event>
<event>
 4    1  0.4111182E+000  0.3232751E+03  0.7546771E-02  0.1074152E+00
         21   -1    0    0  501  502  0.00000000000E+00  0.00000000000E+00  0.15309849509E+03  0.15309849509E+03  0.00000000000E+00 0.  1.
         21   -1    0    0  502  503 -0.00000000000E+00 -0.00000000000E+00 -0.88803183797E+03  0.88803183797E+03  0.00000000000E+00 0. -1.
          6    1    1    2  501    0 -0.20174377706E+02 -0.27234309501E+03 -0.11709641265E+03  0.34382893533E+03  0.17300000000E+03 0.  1.
         -6    1    1    2    0  503  0.20174377706E+02  0.27234309501E+03 -0.61783693023E+03  0.69730139773E+03  0.17300000000E+03 0. -1.
<mgrwt>
<rscale>  2 0.32327506E+03</rscale>
<asrwt>0</asrwt>
<pdfrwt beam="1">  1       21 0.23553614E-01 0.32327506E+03</pdfrwt>
<pdfrwt beam="2">  1       21 0.13662029E+00 0.32327506E+03</pdfrwt>
<totfact> 0.59585258E+03</totfact>
</mgrwt>
</event>
<event>
 4    1  0.4111182E+000  0.2035372E+03  0.7546771E-02  0.1146789E+00
         21   -1    0    0  503  502  0.00000000000E+00  0.00000000000E+00  0.46320310230E+03  0.46320310230E+03  0.00000000000E+00 0. -1.
         21   -1    0    0  501  503 -0.00000000000E+00 -0.00000000000E+00 -0.11029687380E+03  0.11029687380E+03  0.00000000000E+00 0.  1.
          6    1    1    2  501    0  0.78644911065E+01 -0.10694176662E+03  0.51749228344E+02  0.21001279557E+03  0.17300000000E+03 0.  1.
         -6    1    1    2    0  502 -0.78644911065E+01  0.10694176662E+03  0.30115700016E+03  0.36348718053E+03  0.17300000000E+03 0. -1.
<mgrwt>
<rscale>  2 0.20353720E+03</rscale>
<asrwt>0</asrwt>
<pdfrwt beam="1">  1       21 0.71262015E-01 0.20353720E+03</pdfrwt>
<pdfrwt beam="2">  1       21 0.16968750E-01 0.20353720E+03</pdfrwt>
<totfact> 0.55464671E+04</totfact>
</mgrwt>
</event>
<event>
 4    1  0.4111182E+000  0.1750560E+03  0.7546771E-02  0.1172676E+00
         21   -1    0    0  501  502  0.00000000000E+00  0.00000000000E+00  0.23209808185E+03  0.23209808185E+03  0.00000000000E+00 0. -1.
         21   -1    0    0  502  503 -0.00000000000E+00 -0.00000000000E+00 -0.17464035088E+03  0.17464035088E+03  0.00000000000E+00 0. -1.
          6    1    1    2  501    0 -0.15736645356E+02 -0.21632085026E+02  0.12918016412E+03  0.21755942616E+03  0.17300000000E+03 0. -1.
         -6    1    1    2    0  503  0.15736645356E+02  0.21632085026E+02 -0.71722433154E+02  0.18917900657E+03  0.17300000000E+03 0. -1.
<mgrwt>
<rscale>  2 0.17505596E+03</rscale>
<asrwt>0</asrwt>
<pdfrwt beam="1">  1       21 0.35707397E-01 0.17505596E+03</pdfrwt>
<pdfrwt beam="2">  1       21 0.26867746E-01 0.17505596E+03</pdfrwt>
<totfact> 0.10044288E+05</totfact>
</mgrwt>
</event>
<event>
 4    1  0.4111182E+000  0.2229331E+03  0.7546771E-02  0.1131715E+00
         21   -1    0    0  503  502  0.00000000000E+00  0.00000000000E+00  0.28127826834E+02  0.28127826834E+02  0.00000000000E+00 0.  1.
         21   -1    0    0  501  503 -0.00000000000E+00 -0.00000000000E+00 -0.17833134036E+04  0.17833134036E+04  0.00000000000E+00 0.  1.
          6    1    1    2  501    0  0.12860108818E+03  0.56850159084E+02 -0.96447317980E+03  0.98990287151E+03  0.17300000000E+03 0.  1.
         -6    1    1    2    0  502 -0.12860108818E+03 -0.56850159084E+02 -0.79071239701E+03  0.82153835897E+03  0.17300000000E+03 0.  1.
<mgrwt>
<rscale>  2 0.22293313E+03</rscale>
<asrwt>0</asrwt>
<pdfrwt beam="1">  1       21 0.43273588E-02 0.22293313E+03</pdfrwt>
<pdfrwt beam="2">  1       21 0.27435586E+00 0.22293313E+03</pdfrwt>
<totfact> 0.16022414E+04</totfact>
</mgrwt>
</event>
<event>
 4    1  0.4111182E+000  0.1774050E+03  0.7546771E-02  0.1170338E+00
         21   -1    0    0  501  502  0.00000000000E+00  0.00000000000E+00  0.10030399390E+03  0.10030399390E+03  0.00000000000E+00 0.  1.
         21   -1    0    0  502  503 -0.00000000000E+00 -0.00000000000E+00 -0.11367191913E+04  0.11367191913E+04  0.00000000000E+00 0.  1.
          6    1    1    2  501    0  0.26500685764E+02  0.29004530447E+02  0.80608398216E+01  0.17758808032E+03  0.17300000000E+03 0.  1.
         -6    1    1    2    0  503 -0.26500685764E+02 -0.29004530447E+02 -0.10444760372E+04  0.10594351049E+04  0.17300000000E+03 0.  1.
<mgrwt>
<rscale>  2 0.17740504E+03</rscale>
<asrwt>0</asrwt>
<pdfrwt beam="1">  1       21 0.15431383E-01 0.17740504E+03</pdfrwt>
<pdfrwt beam="2">  1       21 0.17487988E+00 0.17740504E+03</pdfrwt>
<totfact> 0.74461672E+03</totfact>
</mgrwt>
</event>
<event>
 4    1  0.4111182E+000  0.2710636E+03  0.7546771E-02  0.1100672E+00
         21   -1    0    0  501  502  0.00000000000E+00  0.00000000000E+00  0.21105422211E+03  0.21105422211E+03  0.00000000000E+00 0. -1.
         21   -1    0    0  502  503 -0.00000000000E+00 -0.00000000000E+00 -0.41792852710E+03  0.41792852710E+03  0.00000000000E+00 0.  1.
          6    1    1    2  501    0 -0.20115257109E+03 -0.55534782763E+02  0.25080777389E+02  0.27222144359E+03  0.17300000000E+03 0. -1.
         -6    1    1    2    0  503  0.20115257109E+03  0.55534782763E+02 -0.23195508237E+03  0.35676130563E+03  0.17300000000E+03 0.  1.
<mgrwt>
<rscale>  2 0.27106359E+03</rscale>
<asrwt>0</asrwt>
<pdfrwt beam="1">  1       21 0.32469881E-01 0.27106359E+03</pdfrwt>
<pdfrwt beam="2">  1       21 0.64296696E-01 0.27106359E+03</pdfrwt>
<totfact> 0.19545154E+04</totfact>
</mgrwt>
</event>
<event>
 4    1  0.4111182E+000  0.2323571E+03  0.7546771E-02  0.1124992E+00
         21   -1    0    0  503  502  0.00000000000E+00  0.00000000000E+00  0.17191553276E+04  0.17191553276E+04  0.00000000000E+00 0.  1.
         21   -1    0    0  501  503 -0.00000000000E+00 -0.00000000000E+00 -0.76584441138E+02  0.76584441138E+02  0.00000000000E+00 0. -1.
          6    1    1    2  501    0 -0.91022447522E+02 -0.12560153054E+03  0.13165847435E+03  0.26706513118E+03  0.17300000000E+03 0. -1.
         -6    1    1    2    0  502  0.91022447522E+02  0.12560153054E+03  0.15109124121E+04  0.15286746376E+04  0.17300000000E+03 0.  1.
<mgrwt>
<rscale>  2 0.23235712E+03</rscale>
<asrwt>0</asrwt>
<pdfrwt beam="1">  1       21 0.26448541E+00 0.23235712E+03</pdfrwt>
<pdfrwt beam="2">  1       21 0.11782223E-01 0.23235712E+03</pdfrwt>
<totfact> 0.31832440E+03</totfact>
</mgrwt>
</event>
<event>
 4    1  0.4111182E+000  0.1978731E+03  0.7546771E-02  0.1151546E+00
         21   -1    0    0  503  502  0.00000000000E+00  0.00000000000E+00  0.19759723630E+03  0.19759723630E+03  0.00000000000E+00 0. -1.
         21   -1    0    0  501  503 -0.00000000000E+00 -0.00000000000E+00 -0.20199111166E+03  0.20199111166E+03  0.00000000000E+00 0.  1.
          6    1    1    2  501    0 -0.37022409799E+02  0.88623302892E+02 -0.29751040411E+02  0.20009715902E+03  0.17300000000E+03 0. -1.
         -6    1    1    2    0  502  0.37022409799E+02 -0.88623302892E+02  0.25357165048E+02  0.19949118893E+03  0.17300000000E+03 0. -1.
<mgrwt>
<rscale>  2 0.19787306E+03</rscale>
<asrwt>0</asrwt>
<pdfrwt beam="1">  1       21 0.30399575E-01 0.19787306E+03</pdfrwt>
<pdfrwt beam="2">  1       21 0.31075556E-01 0.19787306E+03</pdfrwt>
<totfact> 0.10309207E+05</totfact>
</mgrwt>
</event>
<event>
 4    1  0.4111182E+000  0.1857486E+03  0.7546771E-02  0.1162353E+00
         21   -1    0    0  503  502  0.00000000000E+00  0.00000000000E+00  0.68573617324E+02  0.68573617324E+02  0.00000000000E+00 0.  1.
         21   -1    0    0  501  503 -0.00000000000E+00 -0.00000000000E+00 -0.53757909315E+03  0.53757909315E+03  0.00000000000E+00 0.  1.
          6    1    1    2  501    0 -0.32085090805E+02 -0.59532230563E+02 -0.31120692098E+03  0.36242556090E+03  0.17300000000E+03 0. -1.
         -6    1    1    2    0  502  0.32085090805E+02  0.59532230563E+02 -0.15779855485E+03  0.24372714957E+03  0.17300000000E+03 0. -1.
<mgrwt>
<rscale>  2 0.18574859E+03</rscale>
<asrwt>0</asrwt>
<pdfrwt beam="1">  1       21 0.10549787E-01 0.18574859E+03</pdfrwt>
<pdfrwt beam="2">  1       21 0.82704475E-01 0.18574859E+03</pdfrwt>
<totfact> 0.94406958E+04</totfact>
</mgrwt>
</event>
<event>
 4    1  0.4111182E+000  0.2270666E+03  0.7546771E-02  0.1128722E+00
         21   -1    0    0  503  502  0.00000000000E+00  0.00000000000E+00  0.13125288706E+03  0.13125288706E+03  0.00000000000E+00 0. -1.
         21   -1    0    0  501  503 -0.00000000000E+00 -0.00000000000E+00 -0.54311120363E+03  0.54311120363E+03  0.00000000000E+00 0.  1.
          6    1    1    2  501    0  0.14702045603E+03 -0.39049111346E+01 -0.38329961978E+03  0.44550854240E+03  0.17300000000E+03 0.  1.
         -6    1    1    2    0  502 -0.14702045603E+03  0.39049111346E+01 -0.28558696786E+02  0.22885554829E+03  0.17300000000E+03 0. -1.
<mgrwt>
<rscale>  2 0.22706665E+03</rscale>
<asrwt>0</asrwt>
<pdfrwt beam="1">  1       21 0.20192752E-01 0.22706665E+03</pdfrwt>
<pdfrwt beam="2">  1       21 0.83555569E-01 0.22706665E+03</pdfrwt>
<totfact> 0.27726250E+04</totfact>
</mgrwt>
</event>
<event>
 4    1  0.4111182E+000  0.1748519E+03  0.7546771E-02  0.1172880E+00
         21   -1    0    0  503  502  0.00000000000E+00  0.00000000000E+00  0.49362559601E+03  0.49362559601E+03  0.00000000000E+00 0. -1.
         21   -1    0    0  501  503 -0.00000000000E+00 -0.00000000000E+00 -0.63098466764E+02  0.63098466764E+02  0.00000000000E+00 0. -1.
          6    1    1    2  501    0  0.11120631337E+02 -0.22814989105E+02  0.17748095899E+03  0.24914390013E+03  0.17300000000E+03 0. -1.
         -6    1    1    2    0  502 -0.11120631337E+02  0.22814989105E+02  0.25304617026E+03  0.30758016264E+03  0.17300000000E+03 0. -1.
<mgrwt>
<rscale>  2 0.17485191E+03</rscale>
<asrwt>0</asrwt>
<pdfrwt beam="1">  1       21 0.75942397E-01 0.17485191E+03</pdfrwt>
<pdfrwt beam="2">  1       21 0.97074568E-02 0.17485191E+03</pdfrwt>
<totfact> 0.13305872E+05</totfact>
</mgrwt>
</event>
<event>
 4    1  0.4111182E+000  0.1839124E+03  0.7546771E-02  0.1164069E+00
         21   -1    0    0  501  502  0.00000000000E+00  0.00000000000E+00  0.44564976323E+03  0.44564976323E+03  0.00000000000E+00 0.  1.
         21   -1    0    0  502  503 -0.00000000000E+00 -0.00000000000E+00 -0.10424949192E+03  0.10424949192E+03  0.00000000000E+00 0.  1.
          6    1    1    2  501    0 -0.30365034251E+02  0.54522800240E+02  0.31408614548E+03  0.36396961114E+03  0.17300000000E+03 0.  1.
         -6    1    1    2    0  503  0.30365034251E+02 -0.54522800240E+02  0.27314125829E+02  0.18592964401E+03  0.17300000000E+03 0.  1.
<mgrwt>
<rscale>  2 0.18391240E+03</rscale>
<asrwt>0</asrwt>
<pdfrwt beam="1">  1       21 0.68561501E-01 0.18391240E+03</pdfrwt>
<pdfrwt beam="2">  1       21 0.16038384E-01 0.18391240E+03</pdfrwt>
<totfact> 0.67589496E+04</totfact>
</mgrwt>
</event>
<event>
 4    1  0.4111182E+000  0.2072638E+03  0.7546771E-02  0.1143751E+00
         21   -1    0    0  501  502  0.00000000000E+00  0.00000000000E+00  0.25299177174E+04  0.25299177174E+04  0.00000000000E+00 0. -1.
         21   -1    0    0  502  503 -0.00000000000E+00 -0.00000000000E+00 -0.18341500757E+02  0.18341500757E+02  0.00000000000E+00 0.  1.
          6    1    1    2  501    0  0.28607026453E+02  0.11050308332E+03  0.16029138339E+04  0.16162583495E+04  0.17300000000E+03 0. -1.
         -6    1    1    2    0  503 -0.28607026453E+02 -0.11050308332E+03  0.90866238278E+03  0.93200086870E+03  0.17300000000E+03 0.  1.
<mgrwt>
<rscale>  2 0.20726383E+03</rscale>
<asrwt>0</asrwt>
<pdfrwt beam="1">  1       21 0.38921783E+00 0.20726383E+03</pdfrwt>
<pdfrwt beam="2">  1       21 0.28217714E-02 0.20726383E+03</pdfrwt>
<totfact> 0.69821666E+03</totfact>
</mgrwt>
</event>
<event>
 4    1  0.4111182E+000  0.2137716E+03  0.7546771E-02  0.1138614E+00
         21   -1    0    0  501  502  0.00000000000E+00  0.00000000000E+00  0.10765692532E+03  0.10765692532E+03  0.00000000000E+00 0.  1.
         21   -1    0    0  502  503 -0.00000000000E+00 -0.00000000000E+00 -0.44054792503E+03  0.44054792503E+03  0.00000000000E+00 0.  1.
          6    1    1    2  501    0 -0.63717664924E+02  0.10820970310E+03 -0.11409901378E+03  0.24231563221E+03  0.17300000000E+03 0.  1.
         -6    1    1    2    0  503  0.63717664924E+02 -0.10820970310E+03 -0.21879198593E+03  0.30588921814E+03  0.17300000000E+03 0.  1.
<mgrwt>
<rscale>  2 0.21377156E+03</rscale>
<asrwt>0</asrwt>
<pdfrwt beam="1">  1       21 0.16562604E-01 0.21377156E+03</pdfrwt>
<pdfrwt beam="2">  1       21 0.67776604E-01 0.21377156E+03</pdfrwt>
<totfact> 0.64477124E+04</totfact>
</mgrwt>
</event>
<event>
 4    1  0.4111182E+000  0.2076047E+03  0.7546771E-02  0.1143477E+00
         21   -1    0    0  501  502  0.00000000000E+00  0.00000000000E+00  0.13176940571E+03  0.13176940571E+03  0.00000000000E+00 0. -1.
         21   -1    0    0  502  503 -0.00000000000E+00 -0.00000000000E+00 -0.39850087607E+03  0.39850087607E+03  0.00000000000E+00 0. -1.
          6    1    1    2  501    0 -0.38413762429E+02  0.10814390680E+03 -0.21124677104E+02  0.20867672056E+03  0.17300000000E+03 0. -1.
         -6    1    1    2    0  503  0.38413762429E+02 -0.10814390680E+03 -0.24560679326E+03  0.32159356122E+03  0.17300000000E+03 0. -1.
<mgrwt>
<rscale>  2 0.20760472E+03</rscale>
<asrwt>0</asrwt>
<pdfrwt beam="1">  1       21 0.20272216E-01 0.20760472E+03</pdfrwt>
<pdfrwt beam="2">  1       21 0.61307827E-01 0.20760472E+03</pdfrwt>
<totfact> 0.55281444E+04</totfact>
</mgrwt>
</event>
<event>
 4    1  0.4111182E+000  0.2199815E+03  0.7546771E-02  0.1133897E+00
         21   -1    0    0  501  502  0.00000000000E+00  0.00000000000E+00  0.17564523407E+03  0.17564523407E+03  0.00000000000E+00 0.  1.
         21   -1    0    0  502  503 -0.00000000000E+00 -0.00000000000E+00 -0.30496796143E+03  0.30496796143E+03  0.00000000000E+00 0.  1.
          6    1    1    2  501    0  0.55245459977E+02 -0.12414016287E+03  0.10026043406E+02  0.22020981457E+03  0.17300000000E+03 0.  1.
         -6    1    1    2    0  503 -0.55245459977E+02  0.12414016287E+03 -0.13934877077E+03  0.26040338093E+03  0.17300000000E+03 0.  1.
<mgrwt>
<rscale>  2 0.21998146E+03</rscale>
<asrwt>0</asrwt>
<pdfrwt beam="1">  1       21 0.27022344E-01 0.21998146E+03</pdfrwt>
<pdfrwt beam="2">  1       21 0.46918147E-01 0.21998146E+03</pdfrwt>
<totfact> 0.56028432E+04</totfact>
</mgrwt>
</event>
<event>
 4    1  0.4111182E+000  0.2562489E+03  0.7546771E-02  0.1109418E+00
         21   -1    0    0  503  502  0.00000000000E+00  0.00000000000E+00  0.28106281612E+03  0.28106281612E+03  0.00000000000E+00 0.  1.
         21   -1    0    0  501  503 -0.00000000000E+00 -0.00000000000E+00 -0.16959071304E+04  0.16959071304E+04  0.00000000000E+00 0. -1.
          6    1    1    2  501    0  0.16635487448E+03  0.89780552201E+02 -0.16252992339E+04  0.16453756688E+04  0.17300000000E+03 0. -1.
         -6    1    1    2    0  502 -0.16635487448E+03 -0.89780552201E+02  0.21045491962E+03  0.33159427771E+03  0.17300000000E+03 0.  1.
<mgrwt>
<rscale>  2 0.25624889E+03</rscale>
<asrwt>0</asrwt>
<pdfrwt beam="1">  1       21 0.43240434E-01 0.25624889E+03</pdfrwt>
<pdfrwt beam="2">  1       21 0.26090879E+00 0.25624889E+03</pdfrwt>
<totfact> 0.27288310E+02</totfact>
</mgrwt>
</event>
<event>
 4    1  0.4111182E+000  0.1983594E+03  0.7546771E-02  0.1151131E+00
         21   -1    0    0  501  502  0.00000000000E+00  0.00000000000E+00  0.48785323118E+02  0.48785323118E+02  0.00000000000E+00 0.  1.
         21   -1    0    0  502  503 -0.00000000000E+00 -0.00000000000E+00 -0.95850892925E+03  0.95850892925E+03  0.00000000000E+00 0. -1.
          6    1    1    2  501    0 -0.97019956974E+02  0.21446034107E+01 -0.25430824381E+03  0.32252000596E+03  0.17300000000E+03 0.  1.
         -6    1    1    2    0  503  0.97019956974E+02 -0.21446034107E+01 -0.65541536232E+03  0.68477424641E+03  0.17300000000E+03 0. -1.
<mgrwt>
<rscale>  2 0.19835945E+03</rscale>
<asrwt>0</asrwt>
<pdfrwt beam="1">  1       21 0.75054345E-02 0.19835945E+03</pdfrwt>
<pdfrwt beam="2">  1       21 0.14746291E+00 0.19835945E+03</pdfrwt>
<totfact> 0.41770574E+04</totfact>
</mgrwt>
</event>
<event>
 4    1  0.4111182E+000  0.1900628E+03  0.7546771E-02  0.1158405E+00
         21   -1    0    0  501  502  0.00000000000E+00  0.00000000000E+00  0.21144551606E+04  0.21144551606E+04  0.00000000000E+00 0. -1.
         21   -1    0    0  502  503 -0.00000000000E+00 -0.00000000000E+00 -0.62897164471E+02  0.62897164471E+02  0.00000000000E+00 0. -1.
          6    1    1    2  501    0  0.61376041606E+02  0.49273171593E+02  0.19549104854E+04  0.19641280177E+04  0.17300000000E+03 0. -1.
         -6    1    1    2    0  503 -0.61376041606E+02 -0.49273171593E+02  0.96647510691E+02  0.21322430735E+03  0.17300000000E+03 0. -1.
<mgrwt>
<rscale>  2 0.19006279E+03</rscale>
<asrwt>0</asrwt>
<pdfrwt beam="1">  1       21 0.32530074E+00 0.19006279E+03</pdfrwt>
<pdfrwt beam="2">  1       21 0.96764885E-02 0.19006279E+03</pdfrwt>
<totfact> 0.21042541E+03</totfact>
</mgrwt>
</event>
<event>
 4    1  0.4111182E+000  0.1916753E+03  0.7546771E-02  0.1156959E+00
         21   -1    0    0  501  502  0.00000000000E+00  0.00000000000E+00  0.49215617024E+03  0.49215617024E+03  0.00000000000E+00 0. -1.
         21   -1    0    0  502  503 -0.00000000000E+00 -0.00000000000E+00 -0.11526947454E+03  0.11526947454E+03  0.00000000000E+00 0. -1.
          6    1    1    2  501    0  0.64513493590E+02  0.51462793616E+02  0.36873418040E+03  0.41557707562E+03  0.17300000000E+03 0. -1.
         -6    1    1    2    0  503 -0.64513493590E+02 -0.51462793616E+02  0.81525152952E+01  0.19184856916E+03  0.17300000000E+03 0. -1.
<mgrwt>
<rscale>  2 0.19167527E+03</rscale>
<asrwt>0</asrwt>
<pdfrwt beam="1">  1       21 0.75716333E-01 0.19167527E+03</pdfrwt>
<pdfrwt beam="2">  1       21 0.17733766E-01 0.19167527E+03</pdfrwt>
<totfact> 0.44943551E+04</totfact>
</mgrwt>
</event>
<event>
 4    1  0.4111182E+000  0.2386096E+03  0.7546771E-02  0.1120723E+00
         21   -1    0    0  503  502  0.00000000000E+00  0.00000000000E+00  0.26598603131E+03  0.26598603131E+03  0.00000000000E+00 0.  1.
         21   -1    0    0  501  503 -0.00000000000E+00 -0.00000000000E+00 -0.21410968106E+03  0.21410968106E+03  0.00000000000E+00 0.  1.
          6    1    1    2  501    0  0.65241565050E+02  0.15082791735E+03  0.21957359689E+02  0.23961771242E+03  0.17300000000E+03 0.  1.
         -6    1    1    2    0  502 -0.65241565050E+02 -0.15082791735E+03  0.29918990555E+02  0.24047799995E+03  0.17300000000E+03 0.  1.
<mgrwt>
<rscale>  2 0.23860956E+03</rscale>
<asrwt>0</asrwt>
<pdfrwt beam="1">  1       21 0.40920928E-01 0.23860956E+03</pdfrwt>
<pdfrwt beam="2">  1       21 0.32939951E-01 0.23860956E+03</pdfrwt>
<totfact> 0.49981514E+04</totfact>
</mgrwt>
</event>
<event>
 4    1  0.4111182E+000  0.2284504E+03  0.7546771E-02  0.1127735E+00
         21   -1    0    0  503  502  0.00000000000E+00  0.00000000000E+00  0.32583768143E+03  0.32583768143E+03  0.00000000000E+00 0.  1.
         21   -1    0    0  501  503 -0.00000000000E+00 -0.00000000000E+00 -0.26785935159E+03  0.26785935159E+03  0.00000000000E+00 0. -1.
          6    1    1    2  501    0 -0.14710339799E+03  0.24923732244E+02 -0.15923125547E+03  0.27846758312E+03  0.17300000000E+03 0. -1.
         -6    1    1    2    0  502  0.14710339799E+03 -0.24923732244E+02  0.21720958531E+03  0.31522944990E+03  0.17300000000E+03 0.  1.
<mgrwt>
<rscale>  2 0.22845044E+03</rscale>
<asrwt>0</asrwt>
<pdfrwt beam="1">  1       21 0.50128874E-01 0.22845044E+03</pdfrwt>
<pdfrwt beam="2">  1       21 0.41209131E-01 0.22845044E+03</pdfrwt>
<totfact> 0.21062367E+04</totfact>
</mgrwt>
</event>
<event>
 4    1  0.4111182E+000  0.2370680E+03  0.7546771E-02  0.1121762E+00
         21   -1    0    0  503  502  0.00000000000E+00  0.00000000000E+00  0.72383571528E+03  0.72383571528E+03  0.00000000000E+00 0.  1.
         21   -1    0    0  501  503 -0.00000000000E+00 -0.00000000000E+00 -0.85813653810E+02  0.85813653810E+02  0.00000000000E+00 0. -1.
          6    1    1    2  501    0  0.15446576471E+03  0.49117863850E+02  0.19410014646E+03  0.30639207541E+03  0.17300000000E+03 0. -1.
         -6    1    1    2    0  502 -0.15446576471E+03 -0.49117863850E+02  0.44392191501E+03  0.50325729368E+03  0.17300000000E+03 0.  1.
<mgrwt>
<rscale>  2 0.23706800E+03</rscale>
<asrwt>0</asrwt>
<pdfrwt beam="1">  1       21 0.11135934E+00 0.23706800E+03</pdfrwt>
<pdfrwt beam="2">  1       21 0.13202101E-01 0.23706800E+03</pdfrwt>
<totfact> 0.30594308E+04</totfact>
</mgrwt>
</event>
<event>
 4    1  0.4111182E+000  0.2231312E+03  0.7546771E-02  0.1131570E+00
         21   -1    0    0  503  502  0.00000000000E+00  0.00000000000E+00  0.20355777261E+03  0.20355777261E+03  0.00000000000E+00 0.  1.
         21   -1    0    0  501  503 -0.00000000000E+00 -0.00000000000E+00 -0.40060618766E+03  0.40060618766E+03  0.00000000000E+00 0.  1.
          6    1    1    2  501    0  0.12984925159E+03 -0.54751295272E+02 -0.28704330752E+03  0.36356759050E+03  0.17300000000E+03 0.  1.
         -6    1    1    2    0  502 -0.12984925159E+03  0.54751295272E+02  0.89994892468E+02  0.24059636976E+03  0.17300000000E+03 0.  1.
<mgrwt>
<rscale>  2 0.22313120E+03</rscale>
<asrwt>0</asrwt>
<pdfrwt beam="1">  1       21 0.31316581E-01 0.22313120E+03</pdfrwt>
<pdfrwt beam="2">  1       21 0.61631721E-01 0.22313120E+03</pdfrwt>
<totfact> 0.23558774E+04</totfact>
</mgrwt>
</event>
<event>
 4    1  0.4111182E+000  0.1875229E+03  0.7546771E-02  0.1160715E+00
         21   -1    0    0  501  502  0.00000000000E+00  0.00000000000E+00  0.73747343179E+03  0.73747343179E+03  0.00000000000E+00 0.  1.
         21   -1    0    0  502  503 -0.00000000000E+00 -0.00000000000E+00 -0.73471712608E+02  0.73471712608E+02  0.00000000000E+00 0.  1.
          6    1    1    2  501    0  0.52448509891E+02  0.49849655680E+02  0.57222547253E+03  0.60216843638E+03  0.17300000000E+03 0.  1.
         -6    1    1    2    0  503 -0.52448509891E+02 -0.49849655680E+02  0.91776246654E+02  0.20877670802E+03  0.17300000000E+03 0.  1.
<mgrwt>
<rscale>  2 0.18752289E+03</rscale>
<asrwt>0</asrwt>
<pdfrwt beam="1">  1       21 0.11345745E+00 0.18752289E+03</pdfrwt>
<pdfrwt beam="2">  1       21 0.11303341E-01 0.18752289E+03</pdfrwt>
<totfact> 0.39668749E+04</totfact>
</mgrwt>
</event>
<event>
 4    1  0.4111182E+000  0.2140187E+03  0.7546771E-02  0.1138423E+00
         21   -1    0    0  501  502  0.00000000000E+00  0.00000000000E+00  0.67589619426E+03  0.67589619426E+03  0.00000000000E+00 0.  1.
         21   -1    0    0  502  503 -0.00000000000E+00 -0.00000000000E+00 -0.14032763299E+03  0.14032763299E+03  0.00000000000E+00 0. -1.
          6    1    1    2  501    0  0.75569708034E+02 -0.10081775026E+03  0.56124893688E+03  0.60066993323E+03  0.17300000000E+03 0.  1.
         -6    1    1    2    0  503 -0.75569708034E+02  0.10081775026E+03 -0.25680375609E+02  0.21555389403E+03  0.17300000000E+03 0. -1.
<mgrwt>
<rscale>  2 0.21401869E+03</rscale>
<asrwt>0</asrwt>
<pdfrwt beam="1">  1       21 0.10398403E+00 0.21401869E+03</pdfrwt>
<pdfrwt beam="2">  1       21 0.21588867E-01 0.21401869E+03</pdfrwt>
<totfact> 0.14752253E+04</totfact>
</mgrwt>
</event>
<event>
 4    1  0.4111182E+000  0.1831644E+03  0.7546771E-02  0.1164775E+00
         21   -1    0    0  503  502  0.00000000000E+00  0.00000000000E+00  0.73998479299E+03  0.73998479299E+03  0.00000000000E+00 0. -1.
         21   -1    0    0  501  503 -0.00000000000E+00 -0.00000000000E+00 -0.64272428173E+02  0.64272428173E+02  0.00000000000E+00 0. -1.
          6    1    1    2  501    0 -0.23020806482E+02  0.55589853595E+02  0.11959200933E+03  0.21874971554E+03  0.17300000000E+03 0. -1.
         -6    1    1    2    0  502  0.23020806482E+02 -0.55589853595E+02  0.55612035548E+03  0.58550750562E+03  0.17300000000E+03 0. -1.
<mgrwt>
<rscale>  2 0.18316438E+03</rscale>
<asrwt>0</asrwt>
<pdfrwt beam="1">  1       21 0.11384381E+00 0.18316438E+03</pdfrwt>
<pdfrwt beam="2">  1       21 0.98880663E-02 0.18316438E+03</pdfrwt>
<totfact> 0.49978148E+04</totfact>
</mgrwt>
</event>
<event>
 4    1  0.4111182E+000  0.1822299E+03  0.7546771E-02  0.1165662E+00
         21   -1    0    0  501  502  0.00000000000E+00  0.00000000000E+00  0.88100688331E+02  0.88100688331E+02  0.00000000000E+00 0.  1.
         21   -1    0    0  502  503 -0.00000000000E+00 -0.00000000000E+00 -0.43720683382E+03  0.43720683382E+03  0.00000000000E+00 0.  1.
          6    1    1    2  501    0 -0.17884942335E+02  0.54395324656E+02 -0.77027562914E+02  0.19784076414E+03  0.17300000000E+03 0.  1.
         -6    1    1    2    0  503  0.17884942335E+02 -0.54395324656E+02 -0.27207858258E+03  0.32746675802E+03  0.17300000000E+03 0.  1.
<mgrwt>
<rscale>  2 0.18222986E+03</rscale>
<asrwt>0</asrwt>
<pdfrwt beam="1">  1       21 0.13553952E-01 0.18222986E+03</pdfrwt>
<pdfrwt beam="2">  1       21 0.67262589E-01 0.18222986E+03</pdfrwt>
<totfact> 0.95748135E+04</totfact>
</mgrwt>
</event>
<event>
 4    1  0.4111182E+000  0.2170945E+03  0.7546771E-02  0.1136068E+00
         21   -1    0    0  503  502  0.00000000000E+00  0.00000000000E+00  0.41527995542E+02  0.41527995542E+02  0.00000000000E+00 0. -1.
         21   -1    0    0  501  503 -0.00000000000E+00 -0.00000000000E+00 -0.13354110451E+04  0.13354110451E+04  0.00000000000E+00 0.  1.
          6    1    1    2  501    0 -0.10608623359E+03 -0.77115011649E+02 -0.91371903012E+03  0.93915519483E+03  0.17300000000E+03 0.  1.
         -6    1    1    2    0  502  0.10608623359E+03  0.77115011649E+02 -0.38016401946E+03  0.43778384583E+03  0.17300000000E+03 0. -1.
<mgrwt>
<rscale>  2 0.21709448E+03</rscale>
<asrwt>0</asrwt>
<pdfrwt beam="1">  1       21 0.63889221E-02 0.21709448E+03</pdfrwt>
<pdfrwt beam="2">  1       21 0.20544786E+00 0.21709448E+03</pdfrwt>
<totfact> 0.21552087E+04</totfact>
</mgrwt>
</event>
<event>
 4    1  0.4111182E+000  0.1759526E+03  0.7546771E-02  0.1171779E+00
         21   -1    0    0  501  502  0.00000000000E+00  0.00000000000E+00  0.17874186817E+03  0.17874186817E+03  0.00000000000E+00 0. -1.
         21   -1    0    0  502  503 -0.00000000000E+00 -0.00000000000E+00 -0.28440423270E+03  0.28440423270E+03  0.00000000000E+00 0. -1.
          6    1    1    2  501    0  0.63515778662E+01 -0.31463857452E+02  0.91968384098E+02  0.19853841074E+03  0.17300000000E+03 0. -1.
         -6    1    1    2    0  503 -0.63515778662E+01  0.31463857452E+02 -0.19763074863E+03  0.26460769012E+03  0.17300000000E+03 0. -1.
<mgrwt>
<rscale>  2 0.17595260E+03</rscale>
<asrwt>0</asrwt>
<pdfrwt beam="1">  1       21 0.27498749E-01 0.17595260E+03</pdfrwt>
<pdfrwt beam="2">  1       21 0.43754497E-01 0.17595260E+03</pdfrwt>
<totfact> 0.63791832E+04</totfact>
</mgrwt>
</event>
<event>
 4    1  0.4111182E+000  0.2004056E+03  0.7546771E-02  0.1149397E+00
         21   -1    0    0  501  502  0.00000000000E+00  0.00000000000E+00  0.12188748595E+03  0.12188748595E+03  0.00000000000E+00 0.  1.
         21   -1    0    0  502  503 -0.00000000000E+00 -0.00000000000E+00 -0.33843085768E+03  0.33843085768E+03  0.00000000000E+00 0.  1.
          6    1    1    2  501    0 -0.14138083962E+02  0.10016744052E+03 -0.14565218803E+03  0.24774374147E+03  0.17300000000E+03 0.  1.
         -6    1    1    2    0  503  0.14138083962E+02 -0.10016744052E+03 -0.70891183698E+02  0.21257460216E+03  0.17300000000E+03 0.  1.
<mgrwt>
<rscale>  2 0.20040559E+03</rscale>
<asrwt>0</asrwt>
<pdfrwt beam="1">  1       21 0.18751921E-01 0.20040559E+03</pdfrwt>
<pdfrwt beam="2">  1       21 0.52066285E-01 0.20040559E+03</pdfrwt>
<totfact> 0.90823068E+04</totfact>
</mgrwt>
</event>
<event>
 4    1  0.4111182E+000  0.1877589E+03  0.7546771E-02  0.1160498E+00
         21   -1    0    0  501  502  0.00000000000E+00  0.00000000000E+00  0.57941422664E+03  0.57941422664E+03  0.00000000000E+00 0.  1.
         21   -1    0    0  502  503 -0.00000000000E+00 -0.00000000000E+00 -0.63156832701E+02  0.63156832701E+02  0.00000000000E+00 0.  1.
          6    1    1    2  501    0 -0.43215895684E+02  0.58794586670E+02  0.31962202206E+03  0.37069077956E+03  0.17300000000E+03 0.  1.
         -6    1    1    2    0  503  0.43215895684E+02 -0.58794586670E+02  0.19663537187E+03  0.27188027978E+03  0.17300000000E+03 0.  1.
<mgrwt>
<rscale>  2 0.18775893E+03</rscale>
<asrwt>0</asrwt>
<pdfrwt beam="1">  1       21 0.89140647E-01 0.18775893E+03</pdfrwt>
<pdfrwt beam="2">  1       21 0.97164362E-02 0.18775893E+03</pdfrwt>
<totfact> 0.91886206E+04</totfact>
</mgrwt>
</event>
<event>
 4    1  0.4111182E+000  0.2013781E+03  0.7546771E-02  0.1148581E+00
         21   -1    0    0  501  502  0.00000000000E+00  0.00000000000E+00  0.33384022969E+03  0.33384022969E+03  0.00000000000E+00 0. -1.
         21   -1    0    0  502  503 -0.00000000000E+00 -0.00000000000E+00 -0.13369043629E+03  0.13369043629E+03  0.00000000000E+00 0.  1.
          6    1    1    2  501    0  0.10297665964E+03  0.44677816069E+01  0.17073741887E+03  0.26401594593E+03  0.17300000000E+03 0. -1.
         -6    1    1    2    0  503 -0.10297665964E+03 -0.44677816069E+01  0.29412374527E+02  0.20351472006E+03  0.17300000000E+03 0. -1.
<mgrwt>
<rscale>  2 0.20137814E+03</rscale>
<asrwt>0</asrwt>
<pdfrwt beam="1">  1       21 0.51360035E-01 0.20137814E+03</pdfrwt>
<pdfrwt beam="2">  1       21 0.20567760E-01 0.20137814E+03</pdfrwt>
<totfact> 0.78619422E+04</totfact>
</mgrwt>
</event>
<event>
 4    1  0.4111182E+000  0.5033090E+03  0.7546771E-02  0.1012919E+00
         21   -1    0    0  501  502  0.00000000000E+00  0.00000000000E+00  0.44716232994E+03  0.44716232994E+03  0.00000000000E+00 0.  1.
         21   -1    0    0  502  503 -0.00000000000E+00 -0.00000000000E+00 -0.13813073884E+04  0.13813073884E+04  0.00000000000E+00 0.  1.
          6    1    1    2  501    0  0.20383188284E+02  0.47220279304E+03  0.23509154144E+03  0.55550696213E+03  0.17300000000E+03 0.  1.
         -6    1    1    2    0  503 -0.20383188284E+02 -0.47220279304E+03 -0.11692365999E+04  0.12729627562E+04  0.17300000000E+03 0.  1.
<mgrwt>
<rscale>  2 0.50330900E+03</rscale>
<asrwt>0</asrwt>
<pdfrwt beam="1">  1       21 0.68794204E-01 0.50330900E+03</pdfrwt>
<pdfrwt beam="2">  1       21 0.21250883E+00 0.50330900E+03</pdfrwt>
<totfact> 0.16828637E+02</totfact>
</mgrwt>
</event>
<event>
 4    1  0.4111182E+000  0.2343404E+03  0.7546771E-02  0.1123622E+00
         21   -1    0    0  503  502  0.00000000000E+00  0.00000000000E+00  0.79437991960E+03  0.79437991960E+03  0.00000000000E+00 0.  1.
         21   -1    0    0  501  503 -0.00000000000E+00 -0.00000000000E+00 -0.13189319149E+03  0.13189319149E+03  0.00000000000E+00 0.  1.
          6    1    1    2  501    0 -0.14912784641E+03 -0.52414927692E+02  0.11758287466E+02  0.23463524148E+03  0.17300000000E+03 0.  1.
         -6    1    1    2    0  502  0.14912784641E+03  0.52414927692E+02  0.65072844065E+03  0.69163786962E+03  0.17300000000E+03 0.  1.
<mgrwt>
<rscale>  2 0.23434043E+03</rscale>
<asrwt>0</asrwt>
<pdfrwt beam="1">  1       21 0.12221229E+00 0.23434043E+03</pdfrwt>
<pdfrwt beam="2">  1       21 0.20291261E-01 0.23434043E+03</pdfrwt>
<totfact> 0.11026910E+04</totfact>
</mgrwt>
</event>
<event>
 4    1  0.4111182E+000  0.2949910E+03  0.7546771E-02  0.1087772E+00
         21   -1    0    0  501  502  0.00000000000E+00  0.00000000000E+00  0.16867367848E+03  0.16867367848E+03  0.00000000000E+00 0.  1.
         21   -1    0    0  502  503 -0.00000000000E+00 -0.00000000000E+00 -0.57153942137E+03  0.57153942137E+03  0.00000000000E+00 0. -1.
          6    1    1    2  501    0 -0.23613345577E+03 -0.36492345631E+02 -0.85961849984E+02  0.30726070344E+03  0.17300000000E+03 0.  1.
         -6    1    1    2    0  503  0.23613345577E+03  0.36492345631E+02 -0.31690389291E+03  0.43295239642E+03  0.17300000000E+03 0. -1.
<mgrwt>
<rscale>  2 0.29499102E+03</rscale>
<asrwt>0</asrwt>
<pdfrwt beam="1">  1       21 0.25949796E-01 0.29499102E+03</pdfrwt>
<pdfrwt beam="2">  1       21 0.87929142E-01 0.29499102E+03</pdfrwt>
<totfact> 0.14799272E+04</totfact>
</mgrwt>
</event>
<event>
 4    1  0.4111182E+000  0.1774250E+03  0.7546771E-02  0.1170319E+00
         21   -1    0    0  501  502  0.00000000000E+00  0.00000000000E+00  0.18139243763E+03  0.18139243763E+03  0.00000000000E+00 0. -1.
         21   -1    0    0  502  503 -0.00000000000E+00 -0.00000000000E+00 -0.32359910661E+03  0.32359910661E+03  0.00000000000E+00 0. -1.
          6    1    1    2  501    0  0.22897087846E+02  0.32036645992E+02  0.10083606739E+03  0.20407727900E+03  0.17300000000E+03 0. -1.
         -6    1    1    2    0  503 -0.22897087846E+02 -0.32036645992E+02 -0.24304273637E+03  0.30091426524E+03  0.17300000000E+03 0. -1.
<mgrwt>
<rscale>  2 0.17742498E+03</rscale>
<asrwt>0</asrwt>
<pdfrwt beam="1">  1       21 0.27906529E-01 0.17742498E+03</pdfrwt>
<pdfrwt beam="2">  1       21 0.49784478E-01 0.17742498E+03</pdfrwt>
<totfact> 0.47494498E+04</totfact>
</mgrwt>
</event>
<event>
 4    1  0.4111182E+000  0.2049140E+03  0.7546771E-02  0.1145658E+00
         21   -1    0    0  503  502  0.00000000000E+00  0.00000000000E+00  0.48891942254E+03  0.48891942254E+03  0.00000000000E+00 0.  1.
         21   -1    0    0  501  503 -0.00000000000E+00 -0.00000000000E+00 -0.24431506790E+03  0.24431506790E+03  0.00000000000E+00 0. -1.
          6    1    1    2  501    0 -0.40185164928E+02  0.10220509699E+03 -0.17292728406E+03  0.26812977250E+03  0.17300000000E+03 0. -1.
         -6    1    1    2    0  502  0.40185164928E+02 -0.10220509699E+03  0.41753163869E+03  0.46510471793E+03  0.17300000000E+03 0.  1.
<mgrwt>
<rscale>  2 0.20491396E+03</rscale>
<asrwt>0</asrwt>
<pdfrwt beam="1">  1       21 0.75218372E-01 0.20491396E+03</pdfrwt>
<pdfrwt beam="2">  1       21 0.37586934E-01 0.20491396E+03</pdfrwt>
<totfact> 0.10693584E+04</totfact>
</mgrwt>
</event>
<event>
 4    1  0.4111182E+000  0.2101936E+03  0.7546771E-02  0.1141413E+00
         21   -1    0    0  501  502  0.00000000000E+00  0.00000000000E+00  0.16596939226E+03  0.16596939226E+03  0.00000000000E+00 0. -1.
         21   -1    0    0  502  503 -0.00000000000E+00 -0.00000000000E+00 -0.28290030189E+03  0.28290030189E+03  0.00000000000E+00 0. -1.
          6    1    1    2  501    0  0.74874766797E+02  0.92984445092E+02 -0.11299267720E+03  0.23863923154E+03  0.17300000000E+03 0. -1.
         -6    1    1    2    0  503 -0.74874766797E+02 -0.92984445092E+02 -0.39382324311E+01  0.21023046260E+03  0.17300000000E+03 0. -1.
<mgrwt>
<rscale>  2 0.21019357E+03</rscale>
<asrwt>0</asrwt>
<pdfrwt beam="1">  1       21 0.25533753E-01 0.21019357E+03</pdfrwt>
<pdfrwt beam="2">  1       21 0.43523123E-01 0.21019357E+03</pdfrwt>
<totfact> 0.73249043E+04</totfact>
</mgrwt>
</event>
<event>
 4    1  0.4111182E+000  0.2227587E+03  0.7546771E-02  0.1131843E+00
         21   -1    0    0  503  502  0.00000000000E+00  0.00000000000E+00  0.57408392632E+03  0.57408392632E+03  0.00000000000E+00 0.  1.
         21   -1    0    0  501  503 -0.00000000000E+00 -0.00000000000E+00 -0.93149039623E+02  0.93149039623E+02  0.00000000000E+00 0. -1.
          6    1    1    2  501    0 -0.13995124322E+03 -0.10300449179E+02  0.15090585746E+03  0.26906138249E+03  0.17300000000E+03 0.  1.
         -6    1    1    2    0  502  0.13995124322E+03  0.10300449179E+02  0.33002902924E+03  0.39817158346E+03  0.17300000000E+03 0.  1.
<mgrwt>
<rscale>  2 0.22275873E+03</rscale>
<asrwt>0</asrwt>
<pdfrwt beam="1">  1       21 0.88320602E-01 0.22275873E+03</pdfrwt>
<pdfrwt beam="2">  1       21 0.14330622E-01 0.22275873E+03</pdfrwt>
<totfact> 0.46075344E+04</totfact>
</mgrwt>
</event>
<event>
 4    1  0.4111182E+000  0.1913024E+03  0.7546771E-02  0.1157292E+00
         21   -1    0    0  503  502  0.00000000000E+00  0.00000000000E+00  0.35723973954E+03  0.35723973954E+03  0.00000000000E+00 0.  1.
         21   -1    0    0  501  503 -0.00000000000E+00 -0.00000000000E+00 -0.10869348551E+03  0.10869348551E+03  0.00000000000E+00 0.  1.
          6    1    1    2  501    0 -0.29773510619E+02  0.76033888247E+02  0.18014049245E+03  0.26276836019E+03  0.17300000000E+03 0.  1.
         -6    1    1    2    0  502  0.29773510619E+02 -0.76033888247E+02  0.68405761580E+02  0.20316486486E+03  0.17300000000E+03 0.  1.
<mgrwt>
<rscale>  2 0.19130242E+03</rscale>
<asrwt>0</asrwt>
<pdfrwt beam="1">  1       21 0.54959960E-01 0.19130242E+03</pdfrwt>
<pdfrwt beam="2">  1       21 0.16722075E-01 0.19130242E+03</pdfrwt>
<totfact> 0.10051350E+05</totfact>
</mgrwt>
</event>
<event>
 4    1  0.4111182E+000  0.2070935E+03  0.7546771E-02  0.1143888E+00
         21   -1    0    0  501  502  0.00000000000E+00  0.00000000000E+00  0.85070533830E+02  0.85070533830E+02  0.00000000000E+00 0. -1.
         21   -1    0    0  502  503 -0.00000000000E+00 -0.00000000000E+00 -0.51394858338E+03  0.51394858338E+03  0.00000000000E+00 0. -1.
          6    1    1    2  501    0  0.56290903944E+02  0.98944744539E+02 -0.17306918186E+03  0.26989010736E+03  0.17300000000E+03 0. -1.
         -6    1    1    2    0  503 -0.56290903944E+02 -0.98944744539E+02 -0.25580886768E+03  0.32912900985E+03  0.17300000000E+03 0. -1.
<mgrwt>
<rscale>  2 0.20709353E+03</rscale>
<asrwt>0</asrwt>
<pdfrwt beam="1">  1       21 0.13087775E-01 0.20709353E+03</pdfrwt>
<pdfrwt beam="2">  1       21 0.79069012E-01 0.20709353E+03</pdfrwt>
<totfact> 0.70451782E+04</totfact>
</mgrwt>
</event>
<event>
 4    1  0.4111182E+000  0.1757160E+03  0.7546771E-02  0.1172015E+00
         21   -1    0    0  503  502  0.00000000000E+00  0.00000000000E+00  0.35759855460E+02  0.35759855460E+02  0.00000000000E+00 0. -1.
         21   -1    0    0  501  503 -0.00000000000E+00 -0.00000000000E+00 -0.91395011989E+03  0.91395011989E+03  0.00000000000E+00 0. -1.
          6    1    1    2  501    0  0.25784522663E+02 -0.16800828622E+02 -0.55073894337E+03  0.57809124988E+03  0.17300000000E+03 0. -1.
         -6    1    1    2    0  502 -0.25784522663E+02  0.16800828622E+02 -0.32745132106E+03  0.37161872546E+03  0.17300000000E+03 0. -1.
<mgrwt>
<rscale>  2 0.17571599E+03</rscale>
<asrwt>0</asrwt>
<pdfrwt beam="1">  1       21 0.55015157E-02 0.17571599E+03</pdfrwt>
<pdfrwt beam="2">  1       21 0.14060773E+00 0.17571599E+03</pdfrwt>
<totfact> 0.81583923E+04</totfact>
</mgrwt>
</event>
<event>
 4    1  0.4111182E+000  0.2148344E+03  0.7546771E-02  0.1137794E+00
         21   -1    0    0  503  502  0.00000000000E+00  0.00000000000E+00  0.37753123430E+03  0.37753123430E+03  0.00000000000E+00 0. -1.
         21   -1    0    0  501  503 -0.00000000000E+00 -0.00000000000E+00 -0.25621781077E+03  0.25621781077E+03  0.00000000000E+00 0.  1.
          6    1    1    2  501    0  0.12680533349E+03 -0.12051243683E+02 -0.16847235296E+03  0.27301420987E+03  0.17300000000E+03 0.  1.
         -6    1    1    2    0  502 -0.12680533349E+03  0.12051243683E+02  0.28978577649E+03  0.36073483521E+03  0.17300000000E+03 0. -1.
<mgrwt>
<rscale>  2 0.21483441E+03</rscale>
<asrwt>0</asrwt>
<pdfrwt beam="1">  1       21 0.58081729E-01 0.21483441E+03</pdfrwt>
<pdfrwt beam="2">  1       21 0.39418125E-01 0.21483441E+03</pdfrwt>
<totfact> 0.17004037E+04</totfact>
</mgrwt>
</event>
<event>
 4    1  0.4111182E+000  0.2080917E+03  0.7546771E-02  0.1143086E+00
         21   -1    0    0  501  502  0.00000000000E+00  0.00000000000E+00  0.76263930041E+03  0.76263930041E+03  0.00000000000E+00 0.  1.
         21   -1    0    0  502  503 -0.00000000000E+00 -0.00000000000E+00 -0.57142181653E+02  0.57142181653E+02  0.00000000000E+00 0. -1.
          6    1    1    2  501    0 -0.86766953065E+02  0.76450239007E+02  0.38541173660E+03  0.43800039943E+03  0.17300000000E+03 0. -1.
         -6    1    1    2    0  503  0.86766953065E+02 -0.76450239007E+02  0.32008538215E+03  0.38178108263E+03  0.17300000000E+03 0. -1.
<mgrwt>
<rscale>  2 0.20809167E+03</rscale>
<asrwt>0</asrwt>
<pdfrwt beam="1">  1       21 0.11732912E+00 0.20809167E+03</pdfrwt>
<pdfrwt beam="2">  1       21 0.87911054E-02 0.20809167E+03</pdfrwt>
<totfact> 0.56374769E+04</totfact>
</mgrwt>
</event>
<event>
 4    1  0.4111182E+000  0.1755502E+03  0.7546771E-02  0.1172180E+00
         21   -1    0    0  501  502  0.00000000000E+00  0.00000000000E+00  0.42065405551E+02  0.42065405551E+02  0.00000000000E+00 0.  1.
         21   -1    0    0  502  503 -0.00000000000E+00 -0.00000000000E+00 -0.73263109286E+03  0.73263109286E+03  0.00000000000E+00 0.  1.
          6    1    1    2  501    0  0.11117187956E+02  0.27663722626E+02 -0.34692012564E+03  0.38880772496E+03  0.17300000000E+03 0. -1.
         -6    1    1    2    0  503 -0.11117187956E+02 -0.27663722626E+02 -0.34364556167E+03  0.38588877345E+03  0.17300000000E+03 0. -1.
<mgrwt>
<rscale>  2 0.17555020E+03</rscale>
<asrwt>0</asrwt>
<pdfrwt beam="1">  1       21 0.64716009E-02 0.17555020E+03</pdfrwt>
<pdfrwt beam="2">  1       21 0.11271247E+00 0.17555020E+03</pdfrwt>
<totfact> 0.10738044E+05</totfact>
</mgrwt>
</event>
<event>
 4    1  0.4111182E+000  0.2213393E+03  0.7546771E-02  0.1132888E+00
         21   -1    0    0  503  502  0.00000000000E+00  0.00000000000E+00  0.69162484028E+02  0.69162484028E+02  0.00000000000E+00 0.  1.
         21   -1    0    0  501  503 -0.00000000000E+00 -0.00000000000E+00 -0.96380861719E+03  0.96380861719E+03  0.00000000000E+00 0. -1.
          6    1    1    2  501    0 -0.13492809236E+03 -0.29265760623E+02 -0.71322723780E+03  0.74678254371E+03  0.17300000000E+03 0. -1.
         -6    1    1    2    0  502  0.13492809236E+03  0.29265760623E+02 -0.18141889536E+03  0.28618855750E+03  0.17300000000E+03 0.  1.
<mgrwt>
<rscale>  2 0.22133928E+03</rscale>
<asrwt>0</asrwt>
<pdfrwt beam="1">  1       21 0.10640383E-01 0.22133928E+03</pdfrwt>
<pdfrwt beam="2">  1       21 0.14827824E+00 0.22133928E+03</pdfrwt>
<totfact> 0.21993276E+04</totfact>
</mgrwt>
</event>
<event>
 4    1  0.4111182E+000  0.2128951E+03  0.7546771E-02  0.1139294E+00
         21   -1    0    0  501  502  0.00000000000E+00  0.00000000000E+00  0.85228866153E+03  0.85228866153E+03  0.00000000000E+00 0.  1.
         21   -1    0    0  502  503 -0.00000000000E+00 -0.00000000000E+00 -0.62351699678E+02  0.62351699678E+02  0.00000000000E+00 0. -1.
          6    1    1    2  501    0 -0.45122281863E+02  0.11558254331E+03  0.57036917529E+03  0.60880648876E+03  0.17300000000E+03 0. -1.
         -6    1    1    2    0  503  0.45122281863E+02 -0.11558254331E+03  0.21956778656E+03  0.30583387244E+03  0.17300000000E+03 0. -1.
<mgrwt>
<rscale>  2 0.21289515E+03</rscale>
<asrwt>0</asrwt>
<pdfrwt beam="1">  1       21 0.13112132E+00 0.21289515E+03</pdfrwt>
<pdfrwt beam="2">  1       21 0.95925698E-02 0.21289515E+03</pdfrwt>
<totfact> 0.36511793E+04</totfact>
</mgrwt>
</event>
<event>
 4    1  0.4111182E+000  0.1806343E+03  0.7546771E-02  0.1167191E+00
         21   -1    0    0  501  502  0.00000000000E+00  0.00000000000E+00  0.86856703366E+02  0.86856703366E+02  0.00000000000E+00 0. -1.
         21   -1    0    0  502  503 -0.00000000000E+00 -0.00000000000E+00 -0.53170670707E+03  0.53170670707E+03  0.00000000000E+00 0. -1.
          6    1    1    2  501    0 -0.10177133628E+02  0.50952785989E+02 -0.54875661532E+02  0.18878585402E+03  0.17300000000E+03 0. -1.
         -6    1    1    2    0  503  0.10177133628E+02 -0.50952785989E+02 -0.38997434217E+03  0.42977755642E+03  0.17300000000E+03 0. -1.
<mgrwt>
<rscale>  2 0.18063433E+03</rscale>
<asrwt>0</asrwt>
<pdfrwt beam="1">  1       21 0.13362570E-01 0.18063433E+03</pdfrwt>
<pdfrwt beam="2">  1       21 0.81801033E-01 0.18063433E+03</pdfrwt>
<totfact> 0.63602531E+04</totfact>
</mgrwt>
</event>
<event>
 4    1  0.4111182E+000  0.1856446E+03  0.7546771E-02  0.1162449E+00
         21   -1    0    0  501  502  0.00000000000E+00  0.00000000000E+00  0.16103926913E+02  0.16103926913E+02  0.00000000000E+00 0.  1.
         21   -1    0    0  502  503 -0.00000000000E+00 -0.00000000000E+00 -0.21701718736E+04  0.21701718736E+04  0.00000000000E+00 0.  1.
          6    1    1    2  501    0 -0.56779695078E+02  0.36207270256E+02 -0.94833972151E+03  0.96633955088E+03  0.17300000000E+03 0.  1.
         -6    1    1    2    0  503  0.56779695078E+02 -0.36207270256E+02 -0.12057282252E+04  0.12199362497E+04  0.17300000000E+03 0.  1.
<mgrwt>
<rscale>  2 0.18564455E+03</rscale>
<asrwt>0</asrwt>
<pdfrwt beam="1">  1       21 0.24775274E-02 0.18564455E+03</pdfrwt>
<pdfrwt beam="2">  1       21 0.33387257E+00 0.18564455E+03</pdfrwt>
<totfact> 0.19004732E+04</totfact>
</mgrwt>
</event>
<event>
 4    1  0.4111182E+000  0.2209480E+03  0.7546771E-02  0.1133178E+00
         21   -1    0    0  503  502  0.00000000000E+00  0.00000000000E+00  0.91006565994E+03  0.91006565994E+03  0.00000000000E+00 0.  1.
         21   -1    0    0  501  503 -0.00000000000E+00 -0.00000000000E+00 -0.53932336204E+02  0.53932336204E+02  0.00000000000E+00 0. -1.
          6    1    1    2  501    0 -0.10903443983E+03  0.83669004561E+02  0.46341351170E+03  0.51339078120E+03  0.17300000000E+03 0.  1.
         -6    1    1    2    0  502  0.10903443983E+03 -0.83669004561E+02  0.39271981203E+03  0.45060721494E+03  0.17300000000E+03 0. -1.
<mgrwt>
<rscale>  2 0.22094798E+03</rscale>
<asrwt>0</asrwt>
<pdfrwt beam="1">  1       21 0.14001009E+00 0.22094798E+03</pdfrwt>
<pdfrwt beam="2">  1       21 0.82972832E-02 0.22094798E+03</pdfrwt>
<totfact> 0.39650572E+04</totfact>
</mgrwt>
</event>
<event>
 4    1  0.4111182E+000  0.1804030E+03  0.7546771E-02  0.1167414E+00
         21   -1    0    0  503  502  0.00000000000E+00  0.00000000000E+00  0.57499614732E+02  0.57499614732E+02  0.00000000000E+00 0. -1.
         21   -1    0    0  501  503 -0.00000000000E+00 -0.00000000000E+00 -0.73505015754E+03  0.73505015754E+03  0.00000000000E+00 0. -1.
          6    1    1    2  501    0  0.39344591965E+01 -0.50997568894E+02 -0.52881123522E+03  0.55873656986E+03  0.17300000000E+03 0. -1.
         -6    1    1    2    0  502 -0.39344591965E+01  0.50997568894E+02 -0.14873930760E+03  0.23381320242E+03  0.17300000000E+03 0. -1.
<mgrwt>
<rscale>  2 0.18040297E+03</rscale>
<asrwt>0</asrwt>
<pdfrwt beam="1">  1       21 0.88460947E-02 0.18040297E+03</pdfrwt>
<pdfrwt beam="2">  1       21 0.11308464E+00 0.18040297E+03</pdfrwt>
<totfact> 0.61855606E+04</totfact>
</mgrwt>
</event>
<event>
 4    1  0.4111182E+000  0.1752966E+03  0.7546771E-02  0.1172434E+00
         21   -1    0    0  503  502  0.00000000000E+00  0.00000000000E+00  0.13739345263E+03  0.13739345263E+03  0.00000000000E+00 0. -1.
         21   -1    0    0  501  503 -0.00000000000E+00 -0.00000000000E+00 -0.23481924223E+03  0.23481924223E+03  0.00000000000E+00 0. -1.
          6    1    1    2  501    0 -0.25524281446E+02 -0.12182399641E+02 -0.89290396545E+02  0.19672741222E+03  0.17300000000E+03 0. -1.
         -6    1    1    2    0  502  0.25524281446E+02  0.12182399641E+02 -0.81353930569E+01  0.17548528264E+03  0.17300000000E+03 0. -1.
<mgrwt>
<rscale>  2 0.17529661E+03</rscale>
<asrwt>0</asrwt>
<pdfrwt beam="1">  1       21 0.21137454E-01 0.17529661E+03</pdfrwt>
<pdfrwt beam="2">  1       21 0.36126038E-01 0.17529661E+03</pdfrwt>
<totfact> 0.15463538E+05</totfact>
</mgrwt>
</event>
<event>
 4    1  0.4111182E+000  0.2144101E+03  0.7546771E-02  0.1138120E+00
         21   -1    0    0  503  502  0.00000000000E+00  0.00000000000E+00  0.40646914074E+02  0.40646914074E+02  0.00000000000E+00 0.  1.
         21   -1    0    0  501  503 -0.00000000000E+00 -0.00000000000E+00 -0.21274321133E+04  0.21274321133E+04  0.00000000000E+00 0.  1.
          6    1    1    2  501    0  0.12657625221E+03 -0.45987608957E+01 -0.17852849960E+04  0.17981140712E+04  0.17300000000E+03 0.  1.
         -6    1    1    2    0  502 -0.12657625221E+03  0.45987608957E+01 -0.30150020320E+03  0.36996495612E+03  0.17300000000E+03 0.  1.
<mgrwt>
<rscale>  2 0.21441011E+03</rscale>
<asrwt>0</asrwt>
<pdfrwt beam="1">  1       21 0.62533718E-02 0.21441011E+03</pdfrwt>
<pdfrwt beam="2">  1       21 0.32729723E+00 0.21441011E+03</pdfrwt>
<totfact> 0.42505282E+03</totfact>
</mgrwt>
</event>
<event>
 4    1  0.4111182E+000  0.2586131E+03  0.7546771E-02  0.1107979E+00
         21   -1    0    0  501  502  0.00000000000E+00  0.00000000000E+00  0.19247913876E+03  0.19247913876E+03  0.00000000000E+00 0. -1.
         21   -1    0    0  502  503 -0.00000000000E+00 -0.00000000000E+00 -0.66684903030E+03  0.66684903030E+03  0.00000000000E+00 0.  1.
          6    1    1    2  501    0 -0.13408746834E+03 -0.13774001660E+03  0.60165343999E+02  0.26551954722E+03  0.17300000000E+03 0. -1.
         -6    1    1    2    0  503  0.13408746834E+03  0.13774001660E+03 -0.53453523553E+03  0.59380862184E+03  0.17300000000E+03 0.  1.
<mgrwt>
<rscale>  2 0.25861315E+03</rscale>
<asrwt>0</asrwt>
<pdfrwt beam="1">  1       21 0.29612176E-01 0.25861315E+03</pdfrwt>
<pdfrwt beam="2">  1       21 0.10259216E+00 0.25861315E+03</pdfrwt>
<totfact> 0.80873723E+03</totfact>
</mgrwt>
</event>
<event>
 4    1  0.4111182E+000  0.2837581E+03  0.7546771E-02  0.1093654E+00
         21   -1    0    0  503  502  0.00000000000E+00  0.00000000000E+00  0.53242876618E+02  0.53242876618E+02  0.00000000000E+00 0.  1.
         21   -1    0    0  501  503 -0.00000000000E+00 -0.00000000000E+00 -0.16533897055E+04  0.16533897055E+04  0.00000000000E+00 0. -1.
          6    1    1    2  501    0  0.17708165526E+03 -0.13867864171E+03 -0.10493521498E+04  0.10870412194E+04  0.17300000000E+03 0. -1.
         -6    1    1    2    0  502 -0.17708165526E+03  0.13867864171E+03 -0.55079467906E+03  0.61959136274E+03  0.17300000000E+03 0.  1.
<mgrwt>
<rscale>  2 0.28375813E+03</rscale>
<asrwt>0</asrwt>
<pdfrwt beam="1">  1       21 0.81912125E-02 0.28375813E+03</pdfrwt>
<pdfrwt beam="2">  1       21 0.25436762E+00 0.28375813E+03</pdfrwt>
<totfact> 0.66869160E+03</totfact>
</mgrwt>
</event>
<event>
 4    1  0.4111182E+000  0.2102784E+03  0.7546771E-02  0.1141346E+00
         21   -1    0    0  503  502  0.00000000000E+00  0.00000000000E+00  0.70714555433E+03  0.70714555433E+03  0.00000000000E+00 0. -1.
         21   -1    0    0  501  503 -0.00000000000E+00 -0.00000000000E+00 -0.63833680459E+02  0.63833680459E+02  0.00000000000E+00 0. -1.
          6    1    1    2  501    0 -0.10854526375E+03 -0.50059274077E+02  0.26654178107E+03  0.33950187961E+03  0.17300000000E+03 0. -1.
         -6    1    1    2    0  502  0.10854526375E+03  0.50059274077E+02  0.37677009280E+03  0.43147735518E+03  0.17300000000E+03 0. -1.
<mgrwt>
<rscale>  2 0.21027840E+03</rscale>
<asrwt>0</asrwt>
<pdfrwt beam="1">  1       21 0.10879162E+00 0.21027840E+03</pdfrwt>
<pdfrwt beam="2">  1       21 0.98205667E-02 0.21027840E+03</pdfrwt>
<totfact> 0.55702655E+04</totfact>
</mgrwt>
</event>
<event>
 4    1  0.4111182E+000  0.1774695E+03  0.7546771E-02  0.1170275E+00
         21   -1    0    0  503  502  0.00000000000E+00  0.00000000000E+00  0.57086377626E+03  0.57086377626E+03  0.00000000000E+00 0.  1.
         21   -1    0    0  501  503 -0.00000000000E+00 -0.00000000000E+00 -0.56215295992E+02  0.56215295992E+02  0.00000000000E+00 0.  1.
          6    1    1    2  501    0 -0.39232915169E+02  0.52142162405E+01  0.21460010388E+03  0.27847551826E+03  0.17300000000E+03 0.  1.
         -6    1    1    2    0  502  0.39232915169E+02 -0.52142162405E+01  0.30004837639E+03  0.34860355400E+03  0.17300000000E+03 0.  1.
<mgrwt>
<rscale>  2 0.17746946E+03</rscale>
<asrwt>0</asrwt>
<pdfrwt beam="1">  1       21 0.87825192E-01 0.17746946E+03</pdfrwt>
<pdfrwt beam="2">  1       21 0.86485075E-02 0.17746946E+03</pdfrwt>
<totfact> 0.11711053E+05</totfact>
</mgrwt>
</event>
<event>
 4    1  0.4111182E+000  0.2302285E+03  0.7546771E-02  0.1126479E+00
         21   -1    0    0  501  502  0.00000000000E+00  0.00000000000E+00  0.23341257913E+03  0.23341257913E+03  0.00000000000E+00 0. -1.
         21   -1    0    0  502  503 -0.00000000000E+00 -0.00000000000E+00 -0.27227960007E+03  0.27227960007E+03  0.00000000000E+00 0. -1.
          6    1    1    2  501    0 -0.61264358899E+02  0.13900661274E+03  0.83576227810E+02  0.24492885888E+03  0.17300000000E+03 0. -1.
         -6    1    1    2    0  503  0.61264358899E+02 -0.13900661274E+03 -0.12244324875E+03  0.26076332031E+03  0.17300000000E+03 0. -1.
<mgrwt>
<rscale>  2 0.23022850E+03</rscale>
<asrwt>0</asrwt>
<pdfrwt beam="1">  1       21 0.35909628E-01 0.23022850E+03</pdfrwt>
<pdfrwt beam="2">  1       21 0.41889169E-01 0.23022850E+03</pdfrwt>
<totfact> 0.40276462E+04</totfact>
</mgrwt>
</event>
<event>
 4    1  0.4111182E+000  0.2525918E+03  0.7546771E-02  0.1111678E+00
         21   -1    0    0  503  502  0.00000000000E+00  0.00000000000E+00  0.43466678505E+03  0.43466678505E+03  0.00000000000E+00 0. -1.
         21   -1    0    0  501  503 -0.00000000000E+00 -0.00000000000E+00 -0.29582491890E+03  0.29582491890E+03  0.00000000000E+00 0.  1.
          6    1    1    2  501    0 -0.10094779764E+03  0.15389328987E+03 -0.18982926042E+03  0.31597112309E+03  0.17300000000E+03 0. -1.
         -6    1    1    2    0  502  0.10094779764E+03 -0.15389328987E+03  0.32867112658E+03  0.41452058086E+03  0.17300000000E+03 0.  1.
<mgrwt>
<rscale>  2 0.25259177E+03</rscale>
<asrwt>0</asrwt>
<pdfrwt beam="1">  1       21 0.66871813E-01 0.25259177E+03</pdfrwt>
<pdfrwt beam="2">  1       21 0.45511526E-01 0.25259177E+03</pdfrwt>
<totfact> 0.91329677E+03</totfact>
</mgrwt>
</event>
<event>
 4    1  0.4111182E+000  0.1753912E+03  0.7546771E-02  0.1172339E+00
         21   -1    0    0  501  502  0.00000000000E+00  0.00000000000E+00  0.82312910961E+03  0.82312910961E+03  0.00000000000E+00 0.  1.
         21   -1    0    0  502  503 -0.00000000000E+00 -0.00000000000E+00 -0.14643500302E+03  0.14643500302E+03  0.00000000000E+00 0.  1.
          6    1    1    2  501    0 -0.14418905921E+02  0.25003603672E+02  0.75671900459E+03  0.77677907860E+03  0.17300000000E+03 0.  1.
         -6    1    1    2    0  503  0.14418905921E+02 -0.25003603672E+02 -0.80024897998E+02  0.19278503403E+03  0.17300000000E+03 0.  1.
<mgrwt>
<rscale>  2 0.17539123E+03</rscale>
<asrwt>0</asrwt>
<pdfrwt beam="1">  1       21 0.12663524E+00 0.17539123E+03</pdfrwt>
<pdfrwt beam="2">  1       21 0.22528463E-01 0.17539123E+03</pdfrwt>
<totfact> 0.86357609E+03</totfact>
</mgrwt>
</event>
<event>
 4    1  0.4111182E+000  0.1740315E+03  0.7546771E-02  0.1173708E+00
         21   -1    0    0  501  502  0.00000000000E+00  0.00000000000E+00  0.17333962695E+03  0.17333962695E+03  0.00000000000E+00 0.  1.
         21   -1    0    0  502  503 -0.00000000000E+00 -0.00000000000E+00 -0.17472895852E+03  0.17472895852E+03  0.00000000000E+00 0.  1.
          6    1    1    2  501    0 -0.33573797895E+01  0.18619837660E+02 -0.30152057667E-03  0.17403152115E+03  0.17300000000E+03 0. -1.
         -6    1    1    2    0  503  0.33573797895E+01 -0.18619837660E+02 -0.13890300444E+01  0.17403706432E+03  0.17300000000E+03 0. -1.
<mgrwt>
<rscale>  2 0.17403152E+03</rscale>
<asrwt>0</asrwt>
<pdfrwt beam="1">  1       21 0.26667635E-01 0.17403152E+03</pdfrwt>
<pdfrwt beam="2">  1       21 0.26881378E-01 0.17403152E+03</pdfrwt>
<totfact> 0.17740443E+05</totfact>
</mgrwt>
</event>
<event>
 4    1  0.4111182E+000  0.1804870E+03  0.7546771E-02  0.1167333E+00
         21   -1    0    0  501  502  0.00000000000E+00  0.00000000000E+00  0.74976610578E+02  0.74976610578E+02  0.00000000000E+00 0. -1.
         21   -1    0    0  502  503 -0.00000000000E+00 -0.00000000000E+00 -0.44814761493E+03  0.44814761493E+03  0.00000000000E+00 0. -1.
          6    1    1    2  501    0  0.30020599762E+02  0.41777124295E+02 -0.14090103630E+03  0.22897306950E+03  0.17300000000E+03 0. -1.
         -6    1    1    2    0  503 -0.30020599762E+02 -0.41777124295E+02 -0.23226996805E+03  0.29415115601E+03  0.17300000000E+03 0. -1.
<mgrwt>
<rscale>  2 0.18048702E+03</rscale>
<asrwt>0</asrwt>
<pdfrwt beam="1">  1       21 0.11534863E-01 0.18048702E+03</pdfrwt>
<pdfrwt beam="2">  1       21 0.68945787E-01 0.18048702E+03</pdfrwt>
<totfact> 0.12118719E+05</totfact>
</mgrwt>
</event>
<event>
 4    1  0.4111182E+000  0.2095254E+03  0.7546771E-02  0.1141942E+00
         21   -1    0    0  503  502  0.00000000000E+00  0.00000000000E+00  0.32156674013E+02  0.32156674013E+02  0.00000000000E+00 0. -1.
         21   -1    0    0  501  503 -0.00000000000E+00 -0.00000000000E+00 -0.14949749940E+04  0.14949749940E+04  0.00000000000E+00 0. -1.
          6    1    1    2  501    0  0.98118353178E+02  0.65914321305E+02 -0.95636273114E+03  0.97904575097E+03  0.17300000000E+03 0. -1.
         -6    1    1    2    0  502 -0.98118353178E+02 -0.65914321305E+02 -0.50645558883E+03  0.54808591702E+03  0.17300000000E+03 0. -1.
<mgrwt>
<rscale>  2 0.20952544E+03</rscale>
<asrwt>0</asrwt>
<pdfrwt beam="1">  1       21 0.49471796E-02 0.20952544E+03</pdfrwt>
<pdfrwt beam="2">  1       21 0.22999620E+00 0.20952544E+03</pdfrwt>
<totfact> 0.23635611E+04</totfact>
</mgrwt>
</event>
<event>
 4    1  0.4111182E+000  0.2482227E+03  0.7546771E-02  0.1114433E+00
         21   -1    0    0  503  502  0.00000000000E+00  0.00000000000E+00  0.55019516503E+03  0.55019516503E+03  0.00000000000E+00 0.  1.
         21   -1    0    0  501  503 -0.00000000000E+00 -0.00000000000E+00 -0.12870773695E+03  0.12870773695E+03  0.00000000000E+00 0. -1.
          6    1    1    2  501    0  0.16552513603E+03  0.65474700264E+02  0.88392651658E+02  0.26349149493E+03  0.17300000000E+03 0. -1.
         -6    1    1    2    0  502 -0.16552513603E+03 -0.65474700264E+02  0.33309477641E+03  0.41541140705E+03  0.17300000000E+03 0. -1.
<mgrwt>
<rscale>  2 0.24822270E+03</rscale>
<asrwt>0</asrwt>
<pdfrwt beam="1">  1       21 0.84645409E-01 0.24822270E+03</pdfrwt>
<pdfrwt beam="2">  1       21 0.19801191E-01 0.24822270E+03</pdfrwt>
<totfact> 0.27637052E+04</totfact>
</mgrwt>
</event>
<event>
 4    1  0.4111182E+000  0.2287724E+03  0.7546771E-02  0.1127507E+00
         21   -1    0    0  501  502  0.00000000000E+00  0.00000000000E+00  0.14281765351E+03  0.14281765351E+03  0.00000000000E+00 0. -1.
         21   -1    0    0  502  503 -0.00000000000E+00 -0.00000000000E+00 -0.36657453130E+03  0.36657453130E+03  0.00000000000E+00 0. -1.
          6    1    1    2  501    0 -0.12968704818E+03  0.74760032633E+02 -0.11640297751E+03  0.25668355249E+03  0.17300000000E+03 0. -1.
         -6    1    1    2    0  503  0.12968704818E+03 -0.74760032633E+02 -0.10735390028E+03  0.25270863232E+03  0.17300000000E+03 0. -1.
<mgrwt>
<rscale>  2 0.22877236E+03</rscale>
<asrwt>0</asrwt>
<pdfrwt beam="1">  1       21 0.21971947E-01 0.22877236E+03</pdfrwt>
<pdfrwt beam="2">  1       21 0.56396082E-01 0.22877236E+03</pdfrwt>
<totfact> 0.56301022E+04</totfact>
</mgrwt>
</event>
<event>
 4    1  0.4111182E+000  0.1748117E+03  0.7546771E-02  0.1172921E+00
         21   -1    0    0  503  502  0.00000000000E+00  0.00000000000E+00  0.19015494597E+03  0.19015494597E+03  0.00000000000E+00 0. -1.
         21   -1    0    0  501  503 -0.00000000000E+00 -0.00000000000E+00 -0.21392592714E+03  0.21392592714E+03  0.00000000000E+00 0. -1.
          6    1    1    2  501    0  0.17100878870E+02  0.18376185600E+02 -0.11265796737E+03  0.20796860789E+03  0.17300000000E+03 0. -1.
         -6    1    1    2    0  502 -0.17100878870E+02 -0.18376185600E+02  0.88886986198E+02  0.19611226522E+03  0.17300000000E+03 0. -1.
<mgrwt>
<rscale>  2 0.17481168E+03</rscale>
<asrwt>0</asrwt>
<pdfrwt beam="1">  1       21 0.29254607E-01 0.17481168E+03</pdfrwt>
<pdfrwt beam="2">  1       21 0.32911681E-01 0.17481168E+03</pdfrwt>
<totfact> 0.10013377E+05</totfact>
</mgrwt>
</event>
<event>
 4    1  0.4111182E+000  0.1752795E+03  0.7546771E-02  0.1172451E+00
         21   -1    0    0  503  502  0.00000000000E+00  0.00000000000E+00  0.14333766137E+04  0.14333766137E+04  0.00000000000E+00 0.  1.
         21   -1    0    0  501  503 -0.00000000000E+00 -0.00000000000E+00 -0.10387331494E+03  0.10387331494E+03  0.00000000000E+00 0. -1.
          6    1    1    2  501    0  0.17185592461E+02 -0.22328515981E+02 -0.19994876150E+02  0.17641627557E+03  0.17300000000E+03 0. -1.
         -6    1    1    2    0  502 -0.17185592461E+02  0.22328515981E+02  0.13494981749E+04  0.13608336531E+04  0.17300000000E+03 0.  1.
<mgrwt>
<rscale>  2 0.17527951E+03</rscale>
<asrwt>0</asrwt>
<pdfrwt beam="1">  1       21 0.22051947E+00 0.17527951E+03</pdfrwt>
<pdfrwt beam="2">  1       21 0.15980511E-01 0.17527951E+03</pdfrwt>
<totfact> 0.35541101E+03</totfact>
</mgrwt>
</event>
<event>
 4    1  0.4111182E+000  0.2207341E+03  0.7546771E-02  0.1133337E+00
         21   -1    0    0  503  502  0.00000000000E+00  0.00000000000E+00  0.61607905196E+02  0.61607905196E+02  0.00000000000E+00 0. -1.
         21   -1    0    0  501  503 -0.00000000000E+00 -0.00000000000E+00 -0.79370066518E+03  0.79370066518E+03  0.00000000000E+00 0.  1.
          6    1    1    2  501    0  0.21173430724E+02  0.13544817446E+03 -0.34048354030E+03  0.40577402991E+03  0.17300000000E+03 0.  1.
         -6    1    1    2    0  502 -0.21173430724E+02 -0.13544817446E+03 -0.39160921968E+03  0.44953454047E+03  0.17300000000E+03 0. -1.
<mgrwt>
<rscale>  2 0.22073405E+03</rscale>
<asrwt>0</asrwt>
<pdfrwt beam="1">  1       21 0.94781395E-02 0.22073405E+03</pdfrwt>
<pdfrwt beam="2">  1       21 0.12210779E+00 0.22073405E+03</pdfrwt>
<totfact> 0.44438647E+04</totfact>
</mgrwt>
</event>
<event>
 4    1  0.4111182E+000  0.1912520E+03  0.7546771E-02  0.1157337E+00
         21   -1    0    0  501  502  0.00000000000E+00  0.00000000000E+00  0.11710298601E+03  0.11710298601E+03  0.00000000000E+00 0.  1.
         21   -1    0    0  502  503 -0.00000000000E+00 -0.00000000000E+00 -0.45117558012E+03  0.45117558012E+03  0.00000000000E+00 0.  1.
          6    1    1    2  501    0  0.78809841900E+02 -0.20912137527E+02 -0.94237871856E+01  0.19148398482E+03  0.17300000000E+03 0.  1.
         -6    1    1    2    0  503 -0.78809841900E+02  0.20912137527E+02 -0.32464880692E+03  0.37679458132E+03  0.17300000000E+03 0.  1.
<mgrwt>
<rscale>  2 0.19125195E+03</rscale>
<asrwt>0</asrwt>
<pdfrwt beam="1">  1       21 0.18015844E-01 0.19125195E+03</pdfrwt>
<pdfrwt beam="2">  1       21 0.69411629E-01 0.19125195E+03</pdfrwt>
<totfact> 0.52948929E+04</totfact>
</mgrwt>
</event>
<event>
 4    1  0.4111182E+000  0.1932864E+03  0.7546771E-02  0.1155530E+00
         21   -1    0    0  503  502  0.00000000000E+00  0.00000000000E+00  0.16031874703E+03  0.16031874703E+03  0.00000000000E+00 0. -1.
         21   -1    0    0  501  503 -0.00000000000E+00 -0.00000000000E+00 -0.25398610357E+03  0.25398610357E+03  0.00000000000E+00 0.  1.
          6    1    1    2  501    0  0.37513261002E+02  0.77610492439E+02 -0.10633195603E+03  0.22060398492E+03  0.17300000000E+03 0. -1.
         -6    1    1    2    0  502 -0.37513261002E+02 -0.77610492439E+02  0.12664599492E+02  0.19370086569E+03  0.17300000000E+03 0. -1.
<mgrwt>
<rscale>  2 0.19328640E+03</rscale>
<asrwt>0</asrwt>
<pdfrwt beam="1">  1       21 0.24664423E-01 0.19328640E+03</pdfrwt>
<pdfrwt beam="2">  1       21 0.39074785E-01 0.19328640E+03</pdfrwt>
<totfact> 0.98126970E+04</totfact>
</mgrwt>
</event>
<event>
 4    1  0.4111182E+000  0.2393330E+03  0.7546771E-02  0.1120238E+00
         21   -1    0    0  501  502  0.00000000000E+00  0.00000000000E+00  0.35927180406E+03  0.35927180406E+03  0.00000000000E+00 0.  1.
         21   -1    0    0  502  503 -0.00000000000E+00 -0.00000000000E+00 -0.54348918731E+03  0.54348918731E+03  0.00000000000E+00 0.  1.
          6    1    1    2  501    0 -0.15957921235E+03 -0.43425249932E+02  0.28733203019E+03  0.37395183235E+03  0.17300000000E+03 0.  1.
         -6    1    1    2    0  503  0.15957921235E+03  0.43425249932E+02 -0.47154941345E+03  0.52880915902E+03  0.17300000000E+03 0.  1.
<mgrwt>
<rscale>  2 0.23933298E+03</rscale>
<asrwt>0</asrwt>
<pdfrwt beam="1">  1       21 0.55272585E-01 0.23933298E+03</pdfrwt>
<pdfrwt beam="2">  1       21 0.83613721E-01 0.23933298E+03</pdfrwt>
<totfact> 0.37066877E+03</totfact>
</mgrwt>
</event>
<event>
 4    1  0.4111182E+000  0.1751565E+03  0.7546771E-02  0.1172575E+00
         21   -1    0    0  503  502  0.00000000000E+00  0.00000000000E+00  0.27321901851E+03  0.27321901851E+03  0.00000000000E+00 0.  1.
         21   -1    0    0  501  503 -0.00000000000E+00 -0.00000000000E+00 -0.16235159866E+03  0.16235159866E+03  0.00000000000E+00 0.  1.
          6    1    1    2  501    0 -0.22419061363E+02  0.15753474695E+02 -0.65501368851E+02  0.18700325024E+03  0.17300000000E+03 0.  1.
         -6    1    1    2    0  502  0.22419061363E+02 -0.15753474695E+02  0.17636878870E+03  0.24856736694E+03  0.17300000000E+03 0.  1.
<mgrwt>
<rscale>  2 0.17515646E+03</rscale>
<asrwt>0</asrwt>
<pdfrwt beam="1">  1       21 0.42033695E-01 0.17515646E+03</pdfrwt>
<pdfrwt beam="2">  1       21 0.24977169E-01 0.17515646E+03</pdfrwt>
<totfact> 0.83241470E+04</totfact>
</mgrwt>
</event>
<event>
 4    1  0.4111182E+000  0.1742051E+03  0.7546771E-02  0.1173532E+00
         21   -1    0    0  501  502  0.00000000000E+00  0.00000000000E+00  0.67340523072E+03  0.67340523072E+03  0.00000000000E+00 0. -1.
         21   -1    0    0  502  503 -0.00000000000E+00 -0.00000000000E+00 -0.47334978290E+02  0.47334978290E+02  0.00000000000E+00 0. -1.
          6    1    1    2  501    0 -0.11729468105E+02 -0.16757767154E+02  0.39194151901E+03  0.42891206267E+03  0.17300000000E+03 0. -1.
         -6    1    1    2    0  503  0.11729468105E+02  0.16757767154E+02  0.23412873342E+03  0.29182814634E+03  0.17300000000E+03 0. -1.
<mgrwt>
<rscale>  2 0.17420506E+03</rscale>
<asrwt>0</asrwt>
<pdfrwt beam="1">  1       21 0.10360080E+00 0.17420506E+03</pdfrwt>
<pdfrwt beam="2">  1       21 0.72823048E-02 0.17420506E+03</pdfrwt>
<totfact> 0.10739853E+05</totfact>
</mgrwt>
</event>
<event>
 4    1  0.4111182E+000  0.2008870E+03  0.7546771E-02  0.1148993E+00
         21   -1    0    0  503  502  0.00000000000E+00  0.00000000000E+00  0.74761170688E+03  0.74761170688E+03  0.00000000000E+00 0.  1.
         21   -1    0    0  501  503 -0.00000000000E+00 -0.00000000000E+00 -0.91536265544E+02  0.91536265544E+02  0.00000000000E+00 0.  1.
          6    1    1    2  501    0  0.10090076101E+03  0.15671969584E+02  0.59282400241E+02  0.20945161059E+03  0.17300000000E+03 0.  1.
         -6    1    1    2    0  502 -0.10090076101E+03 -0.15671969584E+02  0.59679304109E+03  0.62969636183E+03  0.17300000000E+03 0.  1.
<mgrwt>
<rscale>  2 0.20088697E+03</rscale>
<asrwt>0</asrwt>
<pdfrwt beam="1">  1       21 0.11501718E+00 0.20088697E+03</pdfrwt>
<pdfrwt beam="2">  1       21 0.14082503E-01 0.20088697E+03</pdfrwt>
<totfact> 0.25653942E+04</totfact>
</mgrwt>
</event>
<event>
 4    1  0.4111182E+000  0.3881865E+03  0.7546771E-02  0.1047949E+00
         21   -1    0    0  501  502  0.00000000000E+00  0.00000000000E+00  0.21527210517E+03  0.21527210517E+03  0.00000000000E+00 0.  1.
         21   -1    0    0  502  503 -0.00000000000E+00 -0.00000000000E+00 -0.81072982490E+03  0.81072982490E+03  0.00000000000E+00 0. -1.
          6    1    1    2  501    0 -0.32441366461E+03 -0.12456132139E+03 -0.10813331516E+03  0.40296595690E+03  0.17300000000E+03 0.  1.
         -6    1    1    2    0  503  0.32441366461E+03  0.12456132139E+03 -0.48732440457E+03  0.62303597317E+03  0.17300000000E+03 0. -1.
<mgrwt>
<rscale>  2 0.38818649E+03</rscale>
<asrwt>0</asrwt>
<pdfrwt beam="1">  1       21 0.33118785E-01 0.38818649E+03</pdfrwt>
<pdfrwt beam="2">  1       21 0.12472767E+00 0.38818649E+03</pdfrwt>
<totfact> 0.37517361E+03</totfact>
</mgrwt>
</event>
<event>
 4    1  0.4111182E+000  0.1933908E+03  0.7546771E-02  0.1155438E+00
         21   -1    0    0  503  502  0.00000000000E+00  0.00000000000E+00  0.77221768908E+03  0.77221768908E+03  0.00000000000E+00 0.  1.
         21   -1    0    0  501  503 -0.00000000000E+00 -0.00000000000E+00 -0.69904614814E+02  0.69904614814E+02  0.00000000000E+00 0.  1.
          6    1    1    2  501    0  0.16042477835E+02  0.84933211299E+02  0.11779182566E+03  0.22643967336E+03  0.17300000000E+03 0.  1.
         -6    1    1    2    0  502 -0.16042477835E+02 -0.84933211299E+02  0.58452124861E+03  0.61568263054E+03  0.17300000000E+03 0.  1.
<mgrwt>
<rscale>  2 0.19339083E+03</rscale>
<asrwt>0</asrwt>
<pdfrwt beam="1">  1       21 0.11880272E+00 0.19339083E+03</pdfrwt>
<pdfrwt beam="2">  1       21 0.10754557E-01 0.19339083E+03</pdfrwt>
<totfact> 0.38606910E+04</totfact>
</mgrwt>
</event>
<event>
 4    1  0.4111182E+000  0.1803257E+03  0.7546771E-02  0.1167488E+00
         21   -1    0    0  501  502  0.00000000000E+00  0.00000000000E+00  0.62346588727E+03  0.62346588727E+03  0.00000000000E+00 0. -1.
         21   -1    0    0  502  503 -0.00000000000E+00 -0.00000000000E+00 -0.53298745947E+02  0.53298745947E+02  0.00000000000E+00 0. -1.
          6    1    1    2  501    0  0.83442413513E-01 -0.50875980926E+02  0.33463530721E+03  0.38012913757E+03  0.17300000000E+03 0. -1.
         -6    1    1    2    0  503 -0.83442413513E-01  0.50875980926E+02  0.23553183411E+03  0.29663549565E+03  0.17300000000E+03 0. -1.
<mgrwt>
<rscale>  2 0.18032574E+03</rscale>
<asrwt>0</asrwt>
<pdfrwt beam="1">  1       21 0.95917824E-01 0.18032574E+03</pdfrwt>
<pdfrwt beam="2">  1       21 0.81998075E-02 0.18032574E+03</pdfrwt>
<totfact> 0.10463142E+05</totfact>
</mgrwt>
</event>
<event>
 4    1  0.4111182E+000  0.1943033E+03  0.7546771E-02  0.1154636E+00
         21   -1    0    0  503  502  0.00000000000E+00  0.00000000000E+00  0.46774006281E+02  0.46774006281E+02  0.00000000000E+00 0.  1.
         21   -1    0    0  501  503 -0.00000000000E+00 -0.00000000000E+00 -0.80715305571E+03  0.80715305571E+03  0.00000000000E+00 0.  1.
          6    1    1    2  501    0 -0.86662653318E+02  0.17729836779E+02 -0.38049641781E+03  0.42723680384E+03  0.17300000000E+03 0. -1.
         -6    1    1    2    0  502  0.86662653318E+02 -0.17729836779E+02 -0.37988263162E+03  0.42669025815E+03  0.17300000000E+03 0. -1.
<mgrwt>
<rscale>  2 0.19430327E+03</rscale>
<asrwt>0</asrwt>
<pdfrwt beam="1">  1       21 0.71960011E-02 0.19430327E+03</pdfrwt>
<pdfrwt beam="2">  1       21 0.12417739E+00 0.19430327E+03</pdfrwt>
<totfact> 0.69885162E+04</totfact>
</mgrwt>
</event>
<event>
 4    1  0.4111182E+000  0.1781116E+03  0.7546771E-02  0.1169643E+00
         21   -1    0    0  503  502  0.00000000000E+00  0.00000000000E+00  0.60158253730E+03  0.60158253730E+03  0.00000000000E+00 0.  1.
         21   -1    0    0  501  503 -0.00000000000E+00 -0.00000000000E+00 -0.13831815112E+03  0.13831815112E+03  0.00000000000E+00 0.  1.
          6    1    1    2  501    0 -0.36501298960E+02 -0.21503754201E+02 -0.59373129222E+02  0.18774697000E+03  0.17300000000E+03 0.  1.
         -6    1    1    2    0  502  0.36501298960E+02  0.21503754201E+02  0.52263751540E+03  0.55215371842E+03  0.17300000000E+03 0.  1.
<mgrwt>
<rscale>  2 0.17811164E+03</rscale>
<asrwt>0</asrwt>
<pdfrwt beam="1">  1       21 0.92551158E-01 0.17811164E+03</pdfrwt>
<pdfrwt beam="2">  1       21 0.21279716E-01 0.17811164E+03</pdfrwt>
<totfact> 0.20415418E+04</totfact>
</mgrwt>
</event>
<event>
 4    1  0.4111182E+000  0.2446162E+03  0.7546771E-02  0.1116755E+00
         21   -1    0    0  501  502  0.00000000000E+00  0.00000000000E+00  0.65162578539E+03  0.65162578539E+03  0.00000000000E+00 0. -1.
         21   -1    0    0  502  503 -0.00000000000E+00 -0.00000000000E+00 -0.92084296906E+02  0.92084296906E+02  0.00000000000E+00 0.  1.
          6    1    1    2  501    0 -0.16608661230E+03 -0.48200847076E+02  0.29941260529E+03  0.38663289132E+03  0.17300000000E+03 0. -1.
         -6    1    1    2    0  503  0.16608661230E+03  0.48200847076E+02  0.26012888319E+03  0.35707719097E+03  0.17300000000E+03 0.  1.
<mgrwt>
<rscale>  2 0.24461620E+03</rscale>
<asrwt>0</asrwt>
<pdfrwt beam="1">  1       21 0.10025012E+00 0.24461620E+03</pdfrwt>
<pdfrwt beam="2">  1       21 0.14166815E-01 0.24461620E+03</pdfrwt>
<totfact> 0.34584128E+04</totfact>
</mgrwt>
</event>
<event>
 4    1  0.4111182E+000  0.1908814E+03  0.7546771E-02  0.1157669E+00
         21   -1    0    0  501  502  0.00000000000E+00  0.00000000000E+00  0.10151983630E+04  0.10151983630E+04  0.00000000000E+00 0.  1.
         21   -1    0    0  502  503 -0.00000000000E+00 -0.00000000000E+00 -0.73496874316E+02  0.73496874316E+02  0.00000000000E+00 0. -1.
          6    1    1    2  501    0  0.79315088340E+02  0.14691273021E+02  0.86023115980E+03  0.88115456364E+03  0.17300000000E+03 0.  1.
         -6    1    1    2    0  503 -0.79315088340E+02 -0.14691273021E+02  0.81470328893E+02  0.20754067368E+03  0.17300000000E+03 0. -1.
<mgrwt>
<rscale>  2 0.19088142E+03</rscale>
<asrwt>0</asrwt>
<pdfrwt beam="1">  1       21 0.15618435E+00 0.19088142E+03</pdfrwt>
<pdfrwt beam="2">  1       21 0.11307212E-01 0.19088142E+03</pdfrwt>
<totfact> 0.17546633E+04</totfact>
</mgrwt>
</event>
<event>
 4    1  0.4111182E+000  0.1804108E+03  0.7546771E-02  0.1167406E+00
         21   -1    0    0  503  502  0.00000000000E+00  0.00000000000E+00  0.48154078383E+02  0.48154078383E+02  0.00000000000E+00 0.  1.
         21   -1    0    0  501  503 -0.00000000000E+00 -0.00000000000E+00 -0.67904039389E+03  0.67904039389E+03  0.00000000000E+00 0.  1.
          6    1    1    2  501    0  0.39757461287E+02 -0.32224507788E+02 -0.34010977823E+03  0.38499705957E+03  0.17300000000E+03 0.  1.
         -6    1    1    2    0  502 -0.39757461287E+02  0.32224507788E+02 -0.29077653728E+03  0.34219741271E+03  0.17300000000E+03 0.  1.
<mgrwt>
<rscale>  2 0.18041085E+03</rscale>
<asrwt>0</asrwt>
<pdfrwt beam="1">  1       21 0.74083197E-02 0.18041085E+03</pdfrwt>
<pdfrwt beam="2">  1       21 0.10446775E+00 0.18041085E+03</pdfrwt>
<totfact> 0.10193578E+05</totfact>
</mgrwt>
</event>
<event>
 4    1  0.4111182E+000  0.1961847E+03  0.7546771E-02  0.1152999E+00
         21   -1    0    0  501  502  0.00000000000E+00  0.00000000000E+00  0.77739633075E+02  0.77739633075E+02  0.00000000000E+00 0. -1.
         21   -1    0    0  502  503 -0.00000000000E+00 -0.00000000000E+00 -0.77642037370E+03  0.77642037370E+03  0.00000000000E+00 0.  1.
          6    1    1    2  501    0 -0.47466475732E+02 -0.79412536749E+02 -0.92261676085E+02  0.21679629652E+03  0.17300000000E+03 0. -1.
         -6    1    1    2    0  503  0.47466475732E+02  0.79412536749E+02 -0.60641906454E+03  0.63736371026E+03  0.17300000000E+03 0.  1.
<mgrwt>
<rscale>  2 0.19618465E+03</rscale>
<asrwt>0</asrwt>
<pdfrwt beam="1">  1       21 0.11959944E-01 0.19618465E+03</pdfrwt>
<pdfrwt beam="2">  1       21 0.11944928E+00 0.19618465E+03</pdfrwt>
<totfact> 0.31468838E+04</totfact>
</mgrwt>
</event>
<event>
 4    1  0.4111182E+000  0.2318962E+03  0.7546771E-02  0.1125312E+00
         21   -1    0    0  501  502  0.00000000000E+00  0.00000000000E+00  0.23466249043E+03  0.23466249043E+03  0.00000000000E+00 0. -1.
         21   -1    0    0  502  503 -0.00000000000E+00 -0.00000000000E+00 -0.26930333450E+03  0.26930333450E+03  0.00000000000E+00 0. -1.
          6    1    1    2  501    0 -0.48840014942E+02 -0.14649741108E+03  0.79964050144E+02  0.24529591890E+03  0.17300000000E+03 0. -1.
         -6    1    1    2    0  503  0.48840014942E+02  0.14649741108E+03 -0.11460489421E+03  0.25866990604E+03  0.17300000000E+03 0. -1.
<mgrwt>
<rscale>  2 0.23189618E+03</rscale>
<asrwt>0</asrwt>
<pdfrwt beam="1">  1       21 0.36101922E-01 0.23189618E+03</pdfrwt>
<pdfrwt beam="2">  1       21 0.41431282E-01 0.23189618E+03</pdfrwt>
<totfact> 0.40721884E+04</totfact>
</mgrwt>
</event>
<event>
 4    1  0.4111182E+000  0.1901254E+03  0.7546771E-02  0.1158348E+00
         21   -1    0    0  503  502  0.00000000000E+00  0.00000000000E+00  0.24843194455E+03  0.24843194455E+03  0.00000000000E+00 0.  1.
         21   -1    0    0  501  503 -0.00000000000E+00 -0.00000000000E+00 -0.15046487794E+03  0.15046487794E+03  0.00000000000E+00 0.  1.
          6    1    1    2  501    0  0.78829319410E+02 -0.21465086250E+01  0.12765681674E+02  0.19055348784E+03  0.17300000000E+03 0.  1.
         -6    1    1    2    0  502 -0.78829319410E+02  0.21465086250E+01  0.85201384945E+02  0.20834333465E+03  0.17300000000E+03 0.  1.
<mgrwt>
<rscale>  2 0.19012540E+03</rscale>
<asrwt>0</asrwt>
<pdfrwt beam="1">  1       21 0.38220299E-01 0.19012540E+03</pdfrwt>
<pdfrwt beam="2">  1       21 0.23148443E-01 0.19012540E+03</pdfrwt>
<totfact> 0.11585674E+05</totfact>
</mgrwt>
</event>
<event>
 4    1  0.4111182E+000  0.1813424E+03  0.7546771E-02  0.1166510E+00
         21   -1    0    0  501  502  0.00000000000E+00  0.00000000000E+00  0.20527632961E+03  0.20527632961E+03  0.00000000000E+00 0.  1.
         21   -1    0    0  502  503 -0.00000000000E+00 -0.00000000000E+00 -0.16031808879E+03  0.16031808879E+03  0.00000000000E+00 0.  1.
          6    1    1    2  501    0 -0.22895623372E+02 -0.49313761155E+02  0.27461858683E+02  0.18340995145E+03  0.17300000000E+03 0.  1.
         -6    1    1    2    0  503  0.22895623372E+02  0.49313761155E+02  0.17496382137E+02  0.18218446695E+03  0.17300000000E+03 0.  1.
<mgrwt>
<rscale>  2 0.18134237E+03</rscale>
<asrwt>0</asrwt>
<pdfrwt beam="1">  1       21 0.31580974E-01 0.18134237E+03</pdfrwt>
<pdfrwt beam="2">  1       21 0.24664321E-01 0.18134237E+03</pdfrwt>
<totfact> 0.15034665E+05</totfact>
</mgrwt>
</event>
<event>
 4    1  0.4111182E+000  0.1839497E+03  0.7546771E-02  0.1164034E+00
         21   -1    0    0  503  502  0.00000000000E+00  0.00000000000E+00  0.79311159409E+03  0.79311159409E+03  0.00000000000E+00 0. -1.
         21   -1    0    0  501  503 -0.00000000000E+00 -0.00000000000E+00 -0.42902256278E+02  0.42902256278E+02  0.00000000000E+00 0. -1.
          6    1    1    2  501    0  0.36110608547E+02  0.51034502328E+02  0.34396925098E+03  0.39006709948E+03  0.17300000000E+03 0. -1.
         -6    1    1    2    0  502 -0.36110608547E+02 -0.51034502328E+02  0.40624008683E+03  0.44594675089E+03  0.17300000000E+03 0. -1.
<mgrwt>
<rscale>  2 0.18394971E+03</rscale>
<asrwt>0</asrwt>
<pdfrwt beam="1">  1       21 0.12201716E+00 0.18394971E+03</pdfrwt>
<pdfrwt beam="2">  1       21 0.66003477E-02 0.18394971E+03</pdfrwt>
<totfact> 0.85153226E+04</totfact>
</mgrwt>
</event>
<event>
 4    1  0.4111182E+000  0.1920628E+03  0.7546771E-02  0.1156614E+00
         21   -1    0    0  501  502  0.00000000000E+00  0.00000000000E+00  0.53502227451E+03  0.53502227451E+03  0.00000000000E+00 0.  1.
         21   -1    0    0  502  503 -0.00000000000E+00 -0.00000000000E+00 -0.71193466351E+02  0.71193466351E+02  0.00000000000E+00 0. -1.
          6    1    1    2  501    0  0.19858109115E+02  0.81023312036E+02  0.28575846322E+03  0.34430512760E+03  0.17300000000E+03 0.  1.
         -6    1    1    2    0  503 -0.19858109115E+02 -0.81023312036E+02  0.17807034494E+03  0.26191061326E+03  0.17300000000E+03 0.  1.
<mgrwt>
<rscale>  2 0.19206281E+03</rscale>
<asrwt>0</asrwt>
<pdfrwt beam="1">  1       21 0.82311116E-01 0.19206281E+03</pdfrwt>
<pdfrwt beam="2">  1       21 0.10952841E-01 0.19206281E+03</pdfrwt>
<totfact> 0.89069157E+04</totfact>
</mgrwt>
</event>
<event>
 4    1  0.4111182E+000  0.3095192E+03  0.7546771E-02  0.1080577E+00
         21   -1    0    0  503  502  0.00000000000E+00  0.00000000000E+00  0.92754369740E+03  0.92754369740E+03  0.00000000000E+00 0.  1.
         21   -1    0    0  501  503 -0.00000000000E+00 -0.00000000000E+00 -0.12466244784E+03  0.12466244784E+03  0.00000000000E+00 0. -1.
          6    1    1    2  501    0  0.13784643470E+03 -0.21649829807E+03  0.18358330346E+03  0.35986800627E+03  0.17300000000E+03 0. -1.
         -6    1    1    2    0  502 -0.13784643470E+03  0.21649829807E+03  0.61929794610E+03  0.69233813897E+03  0.17300000000E+03 0.  1.
<mgrwt>
<rscale>  2 0.30951923E+03</rscale>
<asrwt>0</asrwt>
<pdfrwt beam="1">  1       21 0.14269903E+00 0.30951923E+03</pdfrwt>
<pdfrwt beam="2">  1       21 0.19178839E-01 0.30951923E+03</pdfrwt>
<totfact> 0.79057975E+03</totfact>
</mgrwt>
</event>
<event>
 4    1  0.4111182E+000  0.2103328E+03  0.7546771E-02  0.1141303E+00
         21   -1    0    0  503  502  0.00000000000E+00  0.00000000000E+00  0.83350115940E+03  0.83350115940E+03  0.00000000000E+00 0. -1.
         21   -1    0    0  501  503 -0.00000000000E+00 -0.00000000000E+00 -0.95391078379E+02  0.95391078379E+02  0.00000000000E+00 0.  1.
          6    1    1    2  501    0  0.11912376045E+03 -0.10973595534E+02  0.59724369150E+02  0.21864786844E+03  0.17300000000E+03 0.  1.
         -6    1    1    2    0  502 -0.11912376045E+03  0.10973595534E+02  0.67838571187E+03  0.71024436933E+03  0.17300000000E+03 0. -1.
<mgrwt>
<rscale>  2 0.21033281E+03</rscale>
<asrwt>0</asrwt>
<pdfrwt beam="1">  1       21 0.12823094E+00 0.21033281E+03</pdfrwt>
<pdfrwt beam="2">  1       21 0.14675551E-01 0.21033281E+03</pdfrwt>
<totfact> 0.18055517E+04</totfact>
</mgrwt>
</event>
<event>
 4    1  0.4111182E+000  0.1767524E+03  0.7546771E-02  0.1170984E+00
         21   -1    0    0  501  502  0.00000000000E+00  0.00000000000E+00  0.26769830737E+02  0.26769830737E+02  0.00000000000E+00 0. -1.
         21   -1    0    0  502  503 -0.00000000000E+00 -0.00000000000E+00 -0.17760757130E+04  0.17760757130E+04  0.00000000000E+00 0. -1.
          6    1    1    2  501    0 -0.17025134041E+02  0.31977648931E+02 -0.34679182234E+03  0.38923770791E+03  0.17300000000E+03 0. -1.
         -6    1    1    2    0  503  0.17025134041E+02 -0.31977648931E+02 -0.14025140600E+04  0.14136078359E+04  0.17300000000E+03 0. -1.
<mgrwt>
<rscale>  2 0.17675244E+03</rscale>
<asrwt>0</asrwt>
<pdfrwt beam="1">  1       21 0.41184357E-02 0.17675244E+03</pdfrwt>
<pdfrwt beam="2">  1       21 0.27324240E+00 0.17675244E+03</pdfrwt>
<totfact> 0.18449132E+04</totfact>
</mgrwt>
</event>
<event>
 4    1  0.4111182E+000  0.2180608E+03  0.7546771E-02  0.1135337E+00
         21   -1    0    0  501  502  0.00000000000E+00  0.00000000000E+00  0.59321544605E+03  0.59321544605E+03  0.00000000000E+00 0. -1.
         21   -1    0    0  502  503 -0.00000000000E+00 -0.00000000000E+00 -0.82372857995E+02  0.82372857995E+02  0.00000000000E+00 0. -1.
          6    1    1    2  501    0 -0.82070417643E+02  0.10433579055E+03  0.31082105247E+03  0.37968439170E+03  0.17300000000E+03 0. -1.
         -6    1    1    2    0  503  0.82070417643E+02 -0.10433579055E+03  0.20002153558E+03  0.29590391234E+03  0.17300000000E+03 0. -1.
<mgrwt>
<rscale>  2 0.21806080E+03</rscale>
<asrwt>0</asrwt>
<pdfrwt beam="1">  1       21 0.91263912E-01 0.21806080E+03</pdfrwt>
<pdfrwt beam="2">  1       21 0.12672748E-01 0.21806080E+03</pdfrwt>
<totfact> 0.53464171E+04</totfact>
</mgrwt>
</event>
<event>
 4    1  0.4111182E+000  0.2411738E+03  0.7546771E-02  0.1119013E+00
         21   -1    0    0  501  502  0.00000000000E+00  0.00000000000E+00  0.11919256388E+03  0.11919256388E+03  0.00000000000E+00 0. -1.
         21   -1    0    0  502  503 -0.00000000000E+00 -0.00000000000E+00 -0.57729901560E+03  0.57729901560E+03  0.00000000000E+00 0. -1.
          6    1    1    2  501    0 -0.15678348474E+03  0.60454624997E+02 -0.92081089525E+02  0.25815450765E+03  0.17300000000E+03 0. -1.
         -6    1    1    2    0  503  0.15678348474E+03 -0.60454624997E+02 -0.36602536219E+03  0.43833707183E+03  0.17300000000E+03 0. -1.
<mgrwt>
<rscale>  2 0.24117384E+03</rscale>
<asrwt>0</asrwt>
<pdfrwt beam="1">  1       21 0.18337317E-01 0.24117384E+03</pdfrwt>
<pdfrwt beam="2">  1       21 0.88815234E-01 0.24117384E+03</pdfrwt>
<totfact> 0.28641532E+04</totfact>
</mgrwt>
</event>
<event>
 4    1  0.4111182E+000  0.1757905E+03  0.7546771E-02  0.1171940E+00
         21   -1    0    0  501  502  0.00000000000E+00  0.00000000000E+00  0.15969022699E+04  0.15969022699E+04  0.00000000000E+00 0.  1.
         21   -1    0    0  502  503 -0.00000000000E+00 -0.00000000000E+00 -0.25117789280E+02  0.25117789280E+02  0.00000000000E+00 0.  1.
          6    1    1    2  501    0 -0.31165559598E+02  0.14208915076E+01  0.11744782043E+04  0.11875610988E+04  0.17300000000E+03 0.  1.
         -6    1    1    2    0  503  0.31165559598E+02 -0.14208915076E+01  0.39730627630E+03  0.43445896035E+03  0.17300000000E+03 0.  1.
<mgrwt>
<rscale>  2 0.17579053E+03</rscale>
<asrwt>0</asrwt>
<pdfrwt beam="1">  1       21 0.24567719E+00 0.17579053E+03</pdfrwt>
<pdfrwt beam="2">  1       21 0.38642765E-02 0.17579053E+03</pdfrwt>
<totfact> 0.29693966E+04</totfact>
</mgrwt>
</event>
<event>
 4    1  0.4111182E+000  0.1832471E+03  0.7546771E-02  0.1164697E+00
         21   -1    0    0  503  502  0.00000000000E+00  0.00000000000E+00  0.92656562516E+03  0.92656562516E+03  0.00000000000E+00 0. -1.
         21   -1    0    0  501  503 -0.00000000000E+00 -0.00000000000E+00 -0.64230106596E+02  0.64230106596E+02  0.00000000000E+00 0.  1.
          6    1    1    2  501    0 -0.57568752141E+02 -0.18339918677E+02  0.10414303195E+03  0.21077306503E+03  0.17300000000E+03 0.  1.
         -6    1    1    2    0  502  0.57568752141E+02  0.18339918677E+02  0.75819248661E+03  0.78002266672E+03  0.17300000000E+03 0. -1.
<mgrwt>
<rscale>  2 0.18324714E+03</rscale>
<asrwt>0</asrwt>
<pdfrwt beam="1">  1       21 0.14254855E+00 0.18324714E+03</pdfrwt>
<pdfrwt beam="2">  1       21 0.98815555E-02 0.18324714E+03</pdfrwt>
<totfact> 0.28464453E+04</totfact>
</mgrwt>
</event>
<event>
 4    1  0.4111182E+000  0.1849748E+03  0.7546771E-02  0.1163073E+00
         21   -1    0    0  503  502  0.00000000000E+00  0.00000000000E+00  0.63670743011E+03  0.63670743011E+03  0.00000000000E+00 0.  1.
         21   -1    0    0  501  503 -0.00000000000E+00 -0.00000000000E+00 -0.12285115537E+03  0.12285115537E+03  0.00000000000E+00 0. -1.
          6    1    1    2  501    0 -0.30623466247E+02 -0.57869453055E+02 -0.27924736938E+02  0.18707073853E+03  0.17300000000E+03 0. -1.
         -6    1    1    2    0  502  0.30623466247E+02  0.57869453055E+02  0.54178101168E+03  0.57248784694E+03  0.17300000000E+03 0.  1.
<mgrwt>
<rscale>  2 0.18497478E+03</rscale>
<asrwt>0</asrwt>
<pdfrwt beam="1">  1       21 0.97954987E-01 0.18497478E+03</pdfrwt>
<pdfrwt beam="2">  1       21 0.18900178E-01 0.18497478E+03</pdfrwt>
<totfact> 0.22211636E+04</totfact>
</mgrwt>
</event>
<event>
 4    1  0.4111182E+000  0.2084836E+03  0.7546771E-02  0.1142772E+00
         21   -1    0    0  501  502  0.00000000000E+00  0.00000000000E+00  0.47249430354E+03  0.47249430354E+03  0.00000000000E+00 0.  1.
         21   -1    0    0  502  503 -0.00000000000E+00 -0.00000000000E+00 -0.32108667649E+03  0.32108667649E+03  0.00000000000E+00 0.  1.
          6    1    1    2  501    0 -0.46079907497E+02 -0.10683190566E+03  0.41086844018E+03  0.46073668085E+03  0.17300000000E+03 0.  1.
         -6    1    1    2    0  503  0.46079907497E+02  0.10683190566E+03 -0.25946081314E+03  0.33284429918E+03  0.17300000000E+03 0.  1.
<mgrwt>
<rscale>  2 0.20848361E+03</rscale>
<asrwt>0</asrwt>
<pdfrwt beam="1">  1       21 0.72691431E-01 0.20848361E+03</pdfrwt>
<pdfrwt beam="2">  1       21 0.49397951E-01 0.20848361E+03</pdfrwt>
<totfact> 0.65837686E+03</totfact>
</mgrwt>
</event>
<event>
 4    1  0.4111182E+000  0.2082198E+03  0.7546771E-02  0.1142983E+00
         21   -1    0    0  501  502  0.00000000000E+00  0.00000000000E+00  0.75570374082E+02  0.75570374082E+02  0.00000000000E+00 0.  1.
         21   -1    0    0  502  503 -0.00000000000E+00 -0.00000000000E+00 -0.63229676374E+03  0.63229676374E+03  0.00000000000E+00 0.  1.
          6    1    1    2  501    0 -0.81726715199E+02  0.82141593504E+02 -0.17062736896E+03  0.26920103343E+03  0.17300000000E+03 0.  1.
         -6    1    1    2    0  503  0.81726715199E+02 -0.82141593504E+02 -0.38609902069E+03  0.43866610439E+03  0.17300000000E+03 0.  1.
<mgrwt>
<rscale>  2 0.20821983E+03</rscale>
<asrwt>0</asrwt>
<pdfrwt beam="1">  1       21 0.11626211E-01 0.20821983E+03</pdfrwt>
<pdfrwt beam="2">  1       21 0.97276427E-01 0.20821983E+03</pdfrwt>
<totfact> 0.53991735E+04</totfact>
</mgrwt>
</event>
<event>
 4    1  0.4111182E+000  0.1797745E+03  0.7546771E-02  0.1168021E+00
         21   -1    0    0  501  502  0.00000000000E+00  0.00000000000E+00  0.17828147137E+03  0.17828147137E+03  0.00000000000E+00 0.  1.
         21   -1    0    0  502  503 -0.00000000000E+00 -0.00000000000E+00 -0.26416444376E+03  0.26416444376E+03  0.00000000000E+00 0.  1.
          6    1    1    2  501    0 -0.45600477201E+02 -0.17619909646E+02  0.80975126331E+02  0.19716956109E+03  0.17300000000E+03 0.  1.
         -6    1    1    2    0  503  0.45600477201E+02  0.17619909646E+02 -0.16685809872E+03  0.24527635403E+03  0.17300000000E+03 0.  1.
<mgrwt>
<rscale>  2 0.17977448E+03</rscale>
<asrwt>0</asrwt>
<pdfrwt beam="1">  1       21 0.27427919E-01 0.17977448E+03</pdfrwt>
<pdfrwt beam="2">  1       21 0.40640683E-01 0.17977448E+03</pdfrwt>
<totfact> 0.74354784E+04</totfact>
</mgrwt>
</event>
<event>
 4    1  0.4111182E+000  0.2393390E+03  0.7546771E-02  0.1120234E+00
         21   -1    0    0  501  502  0.00000000000E+00  0.00000000000E+00  0.17973460012E+03  0.17973460012E+03  0.00000000000E+00 0.  1.
         21   -1    0    0  502  503 -0.00000000000E+00 -0.00000000000E+00 -0.32070557910E+03  0.32070557910E+03  0.00000000000E+00 0. -1.
          6    1    1    2  501    0 -0.16533655017E+03 -0.42396721850E+01 -0.90225282483E+02  0.25578067019E+03  0.17300000000E+03 0.  1.
         -6    1    1    2    0  503  0.16533655017E+03  0.42396721850E+01 -0.50745696496E+02  0.24465950902E+03  0.17300000000E+03 0.  1.
<mgrwt>
<rscale>  2 0.23933898E+03</rscale>
<asrwt>0</asrwt>
<pdfrwt beam="1">  1       21 0.27651477E-01 0.23933898E+03</pdfrwt>
<pdfrwt beam="2">  1       21 0.49339319E-01 0.23933898E+03</pdfrwt>
<totfact> 0.47859242E+04</totfact>
</mgrwt>
</event>
<event>
 4    1  0.4111182E+000  0.1823540E+03  0.7546771E-02  0.1165544E+00
         21   -1    0    0  501  502  0.00000000000E+00  0.00000000000E+00  0.11498164040E+04  0.11498164040E+04  0.00000000000E+00 0. -1.
         21   -1    0    0  502  503 -0.00000000000E+00 -0.00000000000E+00 -0.33988458047E+02  0.33988458047E+02  0.00000000000E+00 0.  1.
          6    1    1    2  501    0 -0.29242050889E+02  0.49687912361E+02  0.78647980010E+03  0.80734345984E+03  0.17300000000E+03 0. -1.
         -6    1    1    2    0  503  0.29242050889E+02 -0.49687912361E+02  0.32934814583E+03  0.37646140218E+03  0.17300000000E+03 0.  1.
<mgrwt>
<rscale>  2 0.18235401E+03</rscale>
<asrwt>0</asrwt>
<pdfrwt beam="1">  1       21 0.17689480E+00 0.18235401E+03</pdfrwt>
<pdfrwt beam="2">  1       21 0.52289944E-02 0.18235401E+03</pdfrwt>
<totfact> 0.47939234E+04</totfact>
</mgrwt>
</event>
<event>
 4    1  0.4111182E+000  0.1872789E+03  0.7546771E-02  0.1160939E+00
         21   -1    0    0  501  502  0.00000000000E+00  0.00000000000E+00  0.97895076966E+02  0.97895076966E+02  0.00000000000E+00 0. -1.
         21   -1    0    0  502  503 -0.00000000000E+00 -0.00000000000E+00 -0.39088450210E+03  0.39088450210E+03  0.00000000000E+00 0. -1.
          6    1    1    2  501    0 -0.29331462216E+02  0.65452557162E+02 -0.75906852428E+02  0.20207726780E+03  0.17300000000E+03 0. -1.
         -6    1    1    2    0  503  0.29331462216E+02 -0.65452557162E+02 -0.21708257271E+03  0.28670231127E+03  0.17300000000E+03 0. -1.
<mgrwt>
<rscale>  2 0.18727886E+03</rscale>
<asrwt>0</asrwt>
<pdfrwt beam="1">  1       21 0.15060781E-01 0.18727886E+03</pdfrwt>
<pdfrwt beam="2">  1       21 0.60136077E-01 0.18727886E+03</pdfrwt>
<totfact> 0.10061890E+05</totfact>
</mgrwt>
</event>
<event>
 4    1  0.4111182E+000  0.2113839E+03  0.7546771E-02  0.1140475E+00
         21   -1    0    0  501  502  0.00000000000E+00  0.00000000000E+00  0.19700697564E+03  0.19700697564E+03  0.00000000000E+00 0. -1.
         21   -1    0    0  502  503 -0.00000000000E+00 -0.00000000000E+00 -0.25363742073E+03  0.25363742073E+03  0.00000000000E+00 0. -1.
          6    1    1    2  501    0  0.49632266366E+02 -0.11086376479E+03  0.44965109803E+02  0.21611338993E+03  0.17300000000E+03 0. -1.
         -6    1    1    2    0  503 -0.49632266366E+02  0.11086376479E+03 -0.10159555489E+03  0.23453100644E+03  0.17300000000E+03 0. -1.
<mgrwt>
<rscale>  2 0.21138386E+03</rscale>
<asrwt>0</asrwt>
<pdfrwt beam="1">  1       21 0.30308766E-01 0.21138386E+03</pdfrwt>
<pdfrwt beam="2">  1       21 0.39021141E-01 0.21138386E+03</pdfrwt>
<totfact> 0.65588769E+04</totfact>
</mgrwt>
</event>
<event>
 4    1  0.4111182E+000  0.2323217E+03  0.7546771E-02  0.1125016E+00
         21   -1    0    0  503  502  0.00000000000E+00  0.00000000000E+00  0.53577095472E+02  0.53577095472E+02  0.00000000000E+00 0.  1.
         21   -1    0    0  501  503 -0.00000000000E+00 -0.00000000000E+00 -0.10127718730E+04  0.10127718730E+04  0.00000000000E+00 0.  1.
          6    1    1    2  501    0  0.74076561376E+02  0.13622418724E+03 -0.44075310345E+03  0.49823354396E+03  0.17300000000E+03 0.  1.
         -6    1    1    2    0  502 -0.74076561376E+02 -0.13622418724E+03 -0.51844167407E+03  0.56811542450E+03  0.17300000000E+03 0.  1.
<mgrwt>
<rscale>  2 0.23232169E+03</rscale>
<asrwt>0</asrwt>
<pdfrwt beam="1">  1       21 0.82426300E-02 0.23232169E+03</pdfrwt>
<pdfrwt beam="2">  1       21 0.15581106E+00 0.23232169E+03</pdfrwt>
<totfact> 0.30063399E+04</totfact>
</mgrwt>
</event>
<event>
 4    1  0.4111182E+000  0.1892769E+03  0.7546771E-02  0.1159115E+00
         21   -1    0    0  503  502  0.00000000000E+00  0.00000000000E+00  0.89884629652E+03  0.89884629652E+03  0.00000000000E+00 0.  1.
         21   -1    0    0  501  503 -0.00000000000E+00 -0.00000000000E+00 -0.12847279216E+03  0.12847279216E+03  0.00000000000E+00 0.  1.
          6    1    1    2  501    0  0.76426317360E+02 -0.74672348088E+01 -0.41416522476E+02  0.19375518036E+03  0.17300000000E+03 0.  1.
         -6    1    1    2    0  502 -0.76426317360E+02  0.74672348088E+01  0.81179002684E+03  0.83356390832E+03  0.17300000000E+03 0.  1.
<mgrwt>
<rscale>  2 0.18927689E+03</rscale>
<asrwt>0</asrwt>
<pdfrwt beam="1">  1       21 0.13828404E+00 0.18927689E+03</pdfrwt>
<pdfrwt beam="2">  1       21 0.19765045E-01 0.18927689E+03</pdfrwt>
<totfact> 0.87395608E+03</totfact>
</mgrwt>
</event>
<event>
 4    1  0.4111182E+000  0.1883576E+03  0.7546771E-02  0.1159951E+00
         21   -1    0    0  503  502  0.00000000000E+00  0.00000000000E+00  0.43668733249E+03  0.43668733249E+03  0.00000000000E+00 0. -1.
         21   -1    0    0  501  503 -0.00000000000E+00 -0.00000000000E+00 -0.26495084136E+03  0.26495084136E+03  0.00000000000E+00 0. -1.
          6    1    1    2  501    0 -0.72594741439E+02 -0.16720887747E+02 -0.20625240277E+03  0.27931816665E+03  0.17300000000E+03 0. -1.
         -6    1    1    2    0  502  0.72594741439E+02  0.16720887747E+02  0.37798889389E+03  0.42232000720E+03  0.17300000000E+03 0. -1.
<mgrwt>
<rscale>  2 0.18835760E+03</rscale>
<asrwt>0</asrwt>
<pdfrwt beam="1">  1       21 0.67182666E-01 0.18835760E+03</pdfrwt>
<pdfrwt beam="2">  1       21 0.40761668E-01 0.18835760E+03</pdfrwt>
<totfact> 0.11791508E+04</totfact>
</mgrwt>
</event>
<event>
 4    1  0.4111182E+000  0.2104367E+03  0.7546771E-02  0.1141221E+00
         21   -1    0    0  503  502  0.00000000000E+00  0.00000000000E+00  0.21078354029E+03  0.21078354029E+03  0.00000000000E+00 0.  1.
         21   -1    0    0  501  503 -0.00000000000E+00 -0.00000000000E+00 -0.37646004561E+03  0.37646004561E+03  0.00000000000E+00 0.  1.
          6    1    1    2  501    0  0.67550041100E+02  0.98952392976E+02 -0.27803203269E+03  0.34869097397E+03  0.17300000000E+03 0.  1.
         -6    1    1    2    0  502 -0.67550041100E+02 -0.98952392976E+02  0.11235552737E+03  0.23855261193E+03  0.17300000000E+03 0.  1.
<mgrwt>
<rscale>  2 0.21043665E+03</rscale>
<asrwt>0</asrwt>
<pdfrwt beam="1">  1       21 0.32428237E-01 0.21043665E+03</pdfrwt>
<pdfrwt beam="2">  1       21 0.57916929E-01 0.21043665E+03</pdfrwt>
<totfact> 0.25316694E+04</totfact>
</mgrwt>
</event>
<event>
 4    1  0.4111182E+000  0.1929198E+03  0.7546771E-02  0.1155854E+00
         21   -1    0    0  501  502  0.00000000000E+00  0.00000000000E+00  0.29552115733E+03  0.29552115733E+03  0.00000000000E+00 0. -1.
         21   -1    0    0  502  503 -0.00000000000E+00 -0.00000000000E+00 -0.13634591807E+03  0.13634591807E+03  0.00000000000E+00 0. -1.
          6    1    1    2  501    0 -0.68205924649E+02  0.51351813705E+02  0.13924038610E+03  0.23792003289E+03  0.17300000000E+03 0. -1.
         -6    1    1    2    0  503  0.68205924649E+02 -0.51351813705E+02  0.19934853159E+02  0.19394704251E+03  0.17300000000E+03 0. -1.
<mgrwt>
<rscale>  2 0.19291982E+03</rscale>
<asrwt>0</asrwt>
<pdfrwt beam="1">  1       21 0.45464793E-01 0.19291982E+03</pdfrwt>
<pdfrwt beam="2">  1       21 0.20976295E-01 0.19291982E+03</pdfrwt>
<totfact> 0.97951957E+04</totfact>
</mgrwt>
</event>
<event>
 4    1  0.4111182E+000  0.1928123E+03  0.7546771E-02  0.1155949E+00
         21   -1    0    0  501  502  0.00000000000E+00  0.00000000000E+00  0.39605628532E+03  0.39605628532E+03  0.00000000000E+00 0. -1.
         21   -1    0    0  502  503 -0.00000000000E+00 -0.00000000000E+00 -0.11953464891E+03  0.11953464891E+03  0.00000000000E+00 0.  1.
          6    1    1    2  501    0 -0.69826764993E+01  0.84845955407E+02  0.25772064319E+03  0.32186413880E+03  0.17300000000E+03 0. -1.
         -6    1    1    2    0  503  0.69826764993E+01 -0.84845955407E+02  0.18800993220E+02  0.19372679543E+03  0.17300000000E+03 0.  1.
<mgrwt>
<rscale>  2 0.19281233E+03</rscale>
<asrwt>0</asrwt>
<pdfrwt beam="1">  1       21 0.60931736E-01 0.19281233E+03</pdfrwt>
<pdfrwt beam="2">  1       21 0.18389946E-01 0.19281233E+03</pdfrwt>
<totfact> 0.67641968E+04</totfact>
</mgrwt>
</event>
<event>
 4    1  0.4111182E+000  0.1763425E+03  0.7546771E-02  0.1171391E+00
         21   -1    0    0  503  502  0.00000000000E+00  0.00000000000E+00  0.80255509026E+03  0.80255509026E+03  0.00000000000E+00 0.  1.
         21   -1    0    0  501  503 -0.00000000000E+00 -0.00000000000E+00 -0.48105724754E+02  0.48105724754E+02  0.00000000000E+00 0.  1.
          6    1    1    2  501    0 -0.28712766575E+02  0.18526778904E+02  0.18962392689E+03  0.25894767454E+03  0.17300000000E+03 0.  1.
         -6    1    1    2    0  502  0.28712766575E+02 -0.18526778904E+02  0.56482543861E+03  0.59171314047E+03  0.17300000000E+03 0.  1.
<mgrwt>
<rscale>  2 0.17634246E+03</rscale>
<asrwt>0</asrwt>
<pdfrwt beam="1">  1       21 0.12347000E+00 0.17634246E+03</pdfrwt>
<pdfrwt beam="2">  1       21 0.74008813E-02 0.17634246E+03</pdfrwt>
<totfact> 0.68119710E+04</totfact>
</mgrwt>
</event>
<event>
 4    1  0.4111182E+000  0.1775879E+03  0.7546771E-02  0.1170158E+00
         21   -1    0    0  503  502  0.00000000000E+00  0.00000000000E+00  0.30826587570E+03  0.30826587570E+03  0.00000000000E+00 0. -1.
         21   -1    0    0  501  503 -0.00000000000E+00 -0.00000000000E+00 -0.13735467452E+03  0.13735467452E+03  0.00000000000E+00 0. -1.
          6    1    1    2  501    0  0.11607689164E+02 -0.38388890790E+02 -0.27095399474E+02  0.17964299612E+03  0.17300000000E+03 0. -1.
         -6    1    1    2    0  502 -0.11607689164E+02  0.38388890790E+02  0.19800660065E+03  0.26597755410E+03  0.17300000000E+03 0. -1.
<mgrwt>
<rscale>  2 0.17758785E+03</rscale>
<asrwt>0</asrwt>
<pdfrwt beam="1">  1       21 0.47425519E-01 0.17758785E+03</pdfrwt>
<pdfrwt beam="2">  1       21 0.21131489E-01 0.17758785E+03</pdfrwt>
<totfact> 0.89079771E+04</totfact>
</mgrwt>
</event>
<event>
 4    1  0.4111182E+000  0.1843194E+03  0.7546771E-02  0.1163687E+00
         21   -1    0    0  503  502  0.00000000000E+00  0.00000000000E+00  0.61055935803E+03  0.61055935803E+03  0.00000000000E+00 0. -1.
         21   -1    0    0  501  503 -0.00000000000E+00 -0.00000000000E+00 -0.90306824363E+02  0.90306824363E+02  0.00000000000E+00 0. -1.
          6    1    1    2  501    0  0.84551564817E+01  0.63032846776E+02  0.43016060707E+02  0.18927231948E+03  0.17300000000E+03 0. -1.
         -6    1    1    2    0  502 -0.84551564817E+01 -0.63032846776E+02  0.47723647296E+03  0.51159386291E+03  0.17300000000E+03 0. -1.
<mgrwt>
<rscale>  2 0.18431937E+03</rscale>
<asrwt>0</asrwt>
<pdfrwt beam="1">  1       21 0.93932206E-01 0.18431937E+03</pdfrwt>
<pdfrwt beam="2">  1       21 0.13893358E-01 0.18431937E+03</pdfrwt>
<totfact> 0.43064732E+04</totfact>
</mgrwt>
</event>
<event>
 4    1  0.4111182E+000  0.2477494E+03  0.7546771E-02  0.1114735E+00
         21   -1    0    0  503  502  0.00000000000E+00  0.00000000000E+00  0.68970922704E+03  0.68970922704E+03  0.00000000000E+00 0.  1.
         21   -1    0    0  501  503 -0.00000000000E+00 -0.00000000000E+00 -0.18114544163E+03  0.18114544163E+03  0.00000000000E+00 0.  1.
          6    1    1    2  501    0  0.25593878764E+02  0.17548706747E+03 -0.56284044763E+02  0.25406229782E+03  0.17300000000E+03 0.  1.
         -6    1    1    2    0  502 -0.25593878764E+02 -0.17548706747E+03  0.56484783018E+03  0.61679237085E+03  0.17300000000E+03 0.  1.
<mgrwt>
<rscale>  2 0.24774938E+03</rscale>
<asrwt>0</asrwt>
<pdfrwt beam="1">  1       21 0.10610911E+00 0.24774938E+03</pdfrwt>
<pdfrwt beam="2">  1       21 0.27868530E-01 0.24774938E+03</pdfrwt>
<totfact> 0.84443438E+03</totfact>
</mgrwt>
</event>
<event>
 4    1  0.4111182E+000  0.1816417E+03  0.7546771E-02  0.1166224E+00
         21   -1    0    0  501  502  0.00000000000E+00  0.00000000000E+00  0.18801995765E+03  0.18801995765E+03  0.00000000000E+00 0. -1.
         21   -1    0    0  502  503 -0.00000000000E+00 -0.00000000000E+00 -0.22802820432E+03  0.22802820432E+03  0.00000000000E+00 0. -1.
          6    1    1    2  501    0  0.13612114225E+02  0.53660051209E+02  0.79857678625E+02  0.19842111678E+03  0.17300000000E+03 0. -1.
         -6    1    1    2    0  503 -0.13612114225E+02 -0.53660051209E+02 -0.11986592529E+03  0.21762704518E+03  0.17300000000E+03 0. -1.
<mgrwt>
<rscale>  2 0.18164165E+03</rscale>
<asrwt>0</asrwt>
<pdfrwt beam="1">  1       21 0.28926147E-01 0.18164165E+03</pdfrwt>
<pdfrwt beam="2">  1       21 0.35081262E-01 0.18164165E+03</pdfrwt>
<totfact> 0.89989650E+04</totfact>
</mgrwt>
</event>
<event>
 4    1  0.4111182E+000  0.2632593E+03  0.7546771E-02  0.1105201E+00
         21   -1    0    0  501  502  0.00000000000E+00  0.00000000000E+00  0.23031483806E+03  0.23031483806E+03  0.00000000000E+00 0.  1.
         21   -1    0    0  502  503 -0.00000000000E+00 -0.00000000000E+00 -0.30658778048E+03  0.30658778048E+03  0.00000000000E+00 0.  1.
          6    1    1    2  501    0 -0.31795602936E+02 -0.19587115589E+03 -0.16241489065E+01  0.26326433092E+03  0.17300000000E+03 0.  1.
         -6    1    1    2    0  503  0.31795602936E+02  0.19587115589E+03 -0.74648793509E+02  0.27363828762E+03  0.17300000000E+03 0.  1.
<mgrwt>
<rscale>  2 0.26325932E+03</rscale>
<asrwt>0</asrwt>
<pdfrwt beam="1">  1       21 0.35433052E-01 0.26325932E+03</pdfrwt>
<pdfrwt beam="2">  1       21 0.47167351E-01 0.26325932E+03</pdfrwt>
<totfact> 0.31928750E+04</totfact>
</mgrwt>
</event>
<event>
 4    1  0.4111182E+000  0.2017309E+03  0.7546771E-02  0.1148287E+00
         21   -1    0    0  503  502  0.00000000000E+00  0.00000000000E+00  0.58439153292E+03  0.58439153292E+03  0.00000000000E+00 0. -1.
         21   -1    0    0  501  503 -0.00000000000E+00 -0.00000000000E+00 -0.21589500315E+03  0.21589500315E+03  0.00000000000E+00 0. -1.
          6    1    1    2  501    0  0.66495386476E+01 -0.10354768768E+03 -0.14509885469E+03  0.24849349613E+03  0.17300000000E+03 0. -1.
         -6    1    1    2    0  502 -0.66495386476E+01  0.10354768768E+03  0.51359538446E+03  0.55179303994E+03  0.17300000000E+03 0. -1.
<mgrwt>
<rscale>  2 0.20173086E+03</rscale>
<asrwt>0</asrwt>
<pdfrwt beam="1">  1       21 0.89906389E-01 0.20173086E+03</pdfrwt>
<pdfrwt beam="2">  1       21 0.33214616E-01 0.20173086E+03</pdfrwt>
<totfact> 0.91328199E+03</totfact>
</mgrwt>
</event>
<event>
 4    1  0.4111182E+000  0.2392900E+03  0.7546771E-02  0.1120267E+00
         21   -1    0    0  501  502  0.00000000000E+00  0.00000000000E+00  0.49566025182E+03  0.49566025182E+03  0.00000000000E+00 0. -1.
         21   -1    0    0  502  503 -0.00000000000E+00 -0.00000000000E+00 -0.12241231566E+03  0.12241231566E+03  0.00000000000E+00 0. -1.
          6    1    1    2  501    0  0.49247652063E+02 -0.15781429106E+03  0.25994276414E+03  0.35331278257E+03  0.17300000000E+03 0. -1.
         -6    1    1    2    0  503 -0.49247652063E+02  0.15781429106E+03  0.11330517202E+03  0.26475978491E+03  0.17300000000E+03 0. -1.
<mgrwt>
<rscale>  2 0.23928995E+03</rscale>
<asrwt>0</asrwt>
<pdfrwt beam="1">  1       21 0.76255422E-01 0.23928995E+03</pdfrwt>
<pdfrwt beam="2">  1       21 0.18832664E-01 0.23928995E+03</pdfrwt>
<totfact> 0.38657477E+04</totfact>
</mgrwt>
</event>
<event>
 4    1  0.4111182E+000  0.2564006E+03  0.7546771E-02  0.1109325E+00
         21   -1    0    0  501  502  0.00000000000E+00  0.00000000000E+00  0.87573123729E+02  0.87573123729E+02  0.00000000000E+00 0. -1.
         21   -1    0    0  502  503 -0.00000000000E+00 -0.00000000000E+00 -0.81015227978E+03  0.81015227978E+03  0.00000000000E+00 0. -1.
          6    1    1    2  501    0 -0.12029814083E+03  0.14608433413E+03 -0.23969646798E+03  0.35099241036E+03  0.17300000000E+03 0. -1.
         -6    1    1    2    0  503  0.12029814083E+03 -0.14608433413E+03 -0.48288268806E+03  0.54673299315E+03  0.17300000000E+03 0. -1.
<mgrwt>
<rscale>  2 0.25640061E+03</rscale>
<asrwt>0</asrwt>
<pdfrwt beam="1">  1       21 0.13472788E-01 0.25640061E+03</pdfrwt>
<pdfrwt beam="2">  1       21 0.12463881E+00 0.25640061E+03</pdfrwt>
<totfact> 0.22089788E+04</totfact>
</mgrwt>
</event>
<event>
 4    1  0.4111182E+000  0.1918201E+03  0.7546771E-02  0.1156830E+00
         21   -1    0    0  501  502  0.00000000000E+00  0.00000000000E+00  0.73901858322E+02  0.73901858322E+02  0.00000000000E+00 0. -1.
         21   -1    0    0  502  503 -0.00000000000E+00 -0.00000000000E+00 -0.61733186168E+03  0.61733186168E+03  0.00000000000E+00 0. -1.
          6    1    1    2  501    0  0.82278351429E+02 -0.98101823126E+01 -0.11969015277E+03  0.22609887098E+03  0.17300000000E+03 0. -1.
         -6    1    1    2    0  503 -0.82278351429E+02  0.98101823126E+01 -0.42373985059E+03  0.46513484901E+03  0.17300000000E+03 0. -1.
<mgrwt>
<rscale>  2 0.19182014E+03</rscale>
<asrwt>0</asrwt>
<pdfrwt beam="1">  1       21 0.11369517E-01 0.19182014E+03</pdfrwt>
<pdfrwt beam="2">  1       21 0.94974130E-01 0.19182014E+03</pdfrwt>
<totfact> 0.59923530E+04</totfact>
</mgrwt>
</event>
<event>
 4    1  0.4111182E+000  0.2468222E+03  0.7546771E-02  0.1115330E+00
         21   -1    0    0  503  502  0.00000000000E+00  0.00000000000E+00  0.14852542072E+03  0.14852542072E+03  0.00000000000E+00 0. -1.
         21   -1    0    0  501  503 -0.00000000000E+00 -0.00000000000E+00 -0.50959531145E+03  0.50959531145E+03  0.00000000000E+00 0.  1.
          6    1    1    2  501    0  0.15998741907E+03  0.73459144230E+02 -0.32588101147E+03  0.40880270763E+03  0.17300000000E+03 0.  1.
         -6    1    1    2    0  502 -0.15998741907E+03 -0.73459144230E+02 -0.35188879265E+02  0.24931802453E+03  0.17300000000E+03 0. -1.
<mgrwt>
<rscale>  2 0.24682224E+03</rscale>
<asrwt>0</asrwt>
<pdfrwt beam="1">  1       21 0.22850065E-01 0.24682224E+03</pdfrwt>
<pdfrwt beam="2">  1       21 0.78399278E-01 0.24682224E+03</pdfrwt>
<totfact> 0.25133752E+04</totfact>
</mgrwt>
</event>
<event>
 4    1  0.4111182E+000  0.2072127E+03  0.7546771E-02  0.1143792E+00
         21   -1    0    0  501  502  0.00000000000E+00  0.00000000000E+00  0.33306697058E+03  0.33306697058E+03  0.00000000000E+00 0.  1.
         21   -1    0    0  502  503 -0.00000000000E+00 -0.00000000000E+00 -0.17249219001E+03  0.17249219001E+03  0.00000000000E+00 0.  1.
          6    1    1    2  501    0  0.28173821114E+02  0.11051854639E+03  0.20734190489E+03  0.29313440401E+03  0.17300000000E+03 0.  1.
         -6    1    1    2    0  503 -0.28173821114E+02 -0.11051854639E+03 -0.46767124321E+02  0.21242475658E+03  0.17300000000E+03 0.  1.
<mgrwt>
<rscale>  2 0.20721272E+03</rscale>
<asrwt>0</asrwt>
<pdfrwt beam="1">  1       21 0.51241072E-01 0.20721272E+03</pdfrwt>
<pdfrwt beam="2">  1       21 0.26537260E-01 0.20721272E+03</pdfrwt>
<totfact> 0.48564567E+04</totfact>
</mgrwt>
</event>
<event>
 4    1  0.4111182E+000  0.1765262E+03  0.7546771E-02  0.1171208E+00
         21   -1    0    0  501  502  0.00000000000E+00  0.00000000000E+00  0.19913833000E+03  0.19913833000E+03  0.00000000000E+00 0.  1.
         21   -1    0    0  502  503 -0.00000000000E+00 -0.00000000000E+00 -0.19394184342E+03  0.19394184342E+03  0.00000000000E+00 0.  1.
          6    1    1    2  501    0 -0.28306560726E+02 -0.20766224059E+02  0.88975678515E+02  0.19768198909E+03  0.17300000000E+03 0.  1.
         -6    1    1    2    0  503  0.28306560726E+02  0.20766224059E+02 -0.83779191934E+02  0.19539818434E+03  0.17300000000E+03 0.  1.
<mgrwt>
<rscale>  2 0.17652619E+03</rscale>
<asrwt>0</asrwt>
<pdfrwt beam="1">  1       21 0.30636666E-01 0.17652619E+03</pdfrwt>
<pdfrwt beam="2">  1       21 0.29837207E-01 0.17652619E+03</pdfrwt>
<totfact> 0.11080514E+05</totfact>
</mgrwt>
</event>
<event>
 4    1  0.4111182E+000  0.1932206E+03  0.7546771E-02  0.1155588E+00
         21   -1    0    0  503  502  0.00000000000E+00  0.00000000000E+00  0.16508034054E+04  0.16508034054E+04  0.00000000000E+00 0. -1.
         21   -1    0    0  501  503 -0.00000000000E+00 -0.00000000000E+00 -0.24439458703E+02  0.24439458703E+02  0.00000000000E+00 0. -1.
          6    1    1    2  501    0 -0.77640278167E+02 -0.37110566732E+02  0.58437137861E+03  0.61548689271E+03  0.17300000000E+03 0. -1.
         -6    1    1    2    0  502  0.77640278167E+02  0.37110566732E+02  0.10419925681E+04  0.10597559714E+04  0.17300000000E+03 0. -1.
<mgrwt>
<rscale>  2 0.19322062E+03</rscale>
<asrwt>0</asrwt>
<pdfrwt beam="1">  1       21 0.25396967E+00 0.19322062E+03</pdfrwt>
<pdfrwt beam="2">  1       21 0.37599180E-02 0.19322062E+03</pdfrwt>
<totfact> 0.27377151E+04</totfact>
</mgrwt>
</event>
<event>
 4    1  0.4111182E+000  0.4058838E+03  0.7546771E-02  0.1041761E+00
         21   -1    0    0  501  502  0.00000000000E+00  0.00000000000E+00  0.17790665309E+03  0.17790665309E+03  0.00000000000E+00 0.  1.
         21   -1    0    0  502  503 -0.00000000000E+00 -0.00000000000E+00 -0.24413318066E+04  0.24413318066E+04  0.00000000000E+00 0. -1.
          6    1    1    2  501    0  0.24405192825E+02 -0.36635642122E+03 -0.99936523867E+02  0.41800592055E+03  0.17300000000E+03 0.  1.
         -6    1    1    2    0  503 -0.24405192825E+02  0.36635642122E+03 -0.21634886296E+04  0.22012325392E+04  0.17300000000E+03 0. -1.
<mgrwt>
<rscale>  2 0.40588378E+03</rscale>
<asrwt>0</asrwt>
<pdfrwt beam="1">  1       21 0.27370257E-01 0.40588378E+03</pdfrwt>
<pdfrwt beam="2">  1       21 0.37558947E+00 0.40588378E+03</pdfrwt>
<totfact> 0.12269962E+02</totfact>
</mgrwt>
</event>
<event>
 4    1  0.4111182E+000  0.1960185E+03  0.7546771E-02  0.1153142E+00
         21   -1    0    0  503  502  0.00000000000E+00  0.00000000000E+00  0.21031545481E+03  0.21031545481E+03  0.00000000000E+00 0.  1.
         21   -1    0    0  501  503 -0.00000000000E+00 -0.00000000000E+00 -0.18354589156E+03  0.18354589156E+03  0.00000000000E+00 0. -1.
          6    1    1    2  501    0 -0.86245661547E+02  0.32495348828E+02 -0.35644637750E-01  0.19601852744E+03  0.17300000000E+03 0. -1.
         -6    1    1    2    0  502  0.86245661547E+02 -0.32495348828E+02  0.26805207880E+02  0.19784281893E+03  0.17300000000E+03 0.  1.
<mgrwt>
<rscale>  2 0.19601852E+03</rscale>
<asrwt>0</asrwt>
<pdfrwt beam="1">  1       21 0.32356224E-01 0.19601852E+03</pdfrwt>
<pdfrwt beam="2">  1       21 0.28237830E-01 0.19601852E+03</pdfrwt>
<totfact> 0.11001069E+05</totfact>
</mgrwt>
</event>
<event>
 4    1  0.4111182E+000  0.1935811E+03  0.7546771E-02  0.1155271E+00
         21   -1    0    0  501  502  0.00000000000E+00  0.00000000000E+00  0.11653514533E+03  0.11653514533E+03  0.00000000000E+00 0. -1.
         21   -1    0    0  502  503 -0.00000000000E+00 -0.00000000000E+00 -0.43386406845E+03  0.43386406845E+03  0.00000000000E+00 0. -1.
          6    1    1    2  501    0  0.72453058596E+02 -0.47908170296E+02 -0.18654542786E+02  0.19447784051E+03  0.17300000000E+03 0. -1.
         -6    1    1    2    0  503 -0.72453058596E+02  0.47908170296E+02 -0.29867438034E+03  0.35592137327E+03  0.17300000000E+03 0. -1.
<mgrwt>
<rscale>  2 0.19358109E+03</rscale>
<asrwt>0</asrwt>
<pdfrwt beam="1">  1       21 0.17928484E-01 0.19358109E+03</pdfrwt>
<pdfrwt beam="2">  1       21 0.66748318E-01 0.19358109E+03</pdfrwt>
<totfact> 0.58153395E+04</totfact>
</mgrwt>
</event>
<event>
 4    1  0.4111182E+000  0.1937882E+03  0.7546771E-02  0.1155088E+00
         21   -1    0    0  503  502  0.00000000000E+00  0.00000000000E+00  0.76064110700E+03  0.76064110700E+03  0.00000000000E+00 0. -1.
         21   -1    0    0  501  503 -0.00000000000E+00 -0.00000000000E+00 -0.49478192185E+02  0.49478192185E+02  0.00000000000E+00 0.  1.
          6    1    1    2  501    0  0.86833653689E+02 -0.92087344386E+01  0.37440354230E+03  0.42158260956E+03  0.17300000000E+03 0.  1.
         -6    1    1    2    0  502 -0.86833653689E+02  0.92087344386E+01  0.33675937252E+03  0.38853668962E+03  0.17300000000E+03 0. -1.
<mgrwt>
<rscale>  2 0.19378825E+03</rscale>
<asrwt>0</asrwt>
<pdfrwt beam="1">  1       21 0.11702170E+00 0.19378825E+03</pdfrwt>
<pdfrwt beam="2">  1       21 0.76120302E-02 0.19378825E+03</pdfrwt>
<totfact> 0.73469700E+04</totfact>
</mgrwt>
</event>
<event>
 4    1  0.4111182E+000  0.1819365E+03  0.7546771E-02  0.1165942E+00
         21   -1    0    0  503  502  0.00000000000E+00  0.00000000000E+00  0.63012434873E+02  0.63012434873E+02  0.00000000000E+00 0.  1.
         21   -1    0    0  501  503 -0.00000000000E+00 -0.00000000000E+00 -0.66588007038E+03  0.66588007038E+03  0.00000000000E+00 0. -1.
          6    1    1    2  501    0 -0.44374674579E+02  0.34681028372E+02 -0.46888423858E+03  0.50294464373E+03  0.17300000000E+03 0. -1.
         -6    1    1    2    0  502  0.44374674579E+02 -0.34681028372E+02 -0.13398339693E+03  0.22594786152E+03  0.17300000000E+03 0.  1.
<mgrwt>
<rscale>  2 0.18193649E+03</rscale>
<asrwt>0</asrwt>
<pdfrwt beam="1">  1       21 0.96942209E-02 0.18193649E+03</pdfrwt>
<pdfrwt beam="2">  1       21 0.10244309E+00 0.18193649E+03</pdfrwt>
<totfact> 0.66766072E+04</totfact>
</mgrwt>
</event>
<event>
 4    1  0.4111182E+000  0.2064151E+03  0.7546771E-02  0.1144437E+00
         21   -1    0    0  501  502  0.00000000000E+00  0.00000000000E+00  0.49502106847E+02  0.49502106847E+02  0.00000000000E+00 0. -1.
         21   -1    0    0  502  503 -0.00000000000E+00 -0.00000000000E+00 -0.87241719747E+03  0.87241719747E+03  0.00000000000E+00 0. -1.
          6    1    1    2  501    0  0.11072879506E+03 -0.20428379068E+02 -0.35806969302E+03  0.41330508076E+03  0.17300000000E+03 0. -1.
         -6    1    1    2    0  503 -0.11072879506E+03  0.20428379068E+02 -0.46484539761E+03  0.50861422356E+03  0.17300000000E+03 0. -1.
<mgrwt>
<rscale>  2 0.20641508E+03</rscale>
<asrwt>0</asrwt>
<pdfrwt beam="1">  1       21 0.76157090E-02 0.20641508E+03</pdfrwt>
<pdfrwt beam="2">  1       21 0.13421803E+00 0.20641508E+03</pdfrwt>
<totfact> 0.51730149E+04</totfact>
</mgrwt>
</event>
<event>
 4    1  0.4111182E+000  0.2234032E+03  0.7546771E-02  0.1131371E+00
         21   -1    0    0  503  502  0.00000000000E+00  0.00000000000E+00  0.71240337793E+02  0.71240337793E+02  0.00000000000E+00 0.  1.
         21   -1    0    0  501  503 -0.00000000000E+00 -0.00000000000E+00 -0.11684851257E+04  0.11684851257E+04  0.00000000000E+00 0.  1.
          6    1    1    2  501    0 -0.50105684227E+01  0.14126168879E+03 -0.94087573021E+03  0.96703469959E+03  0.17300000000E+03 0.  1.
         -6    1    1    2    0  502  0.50105684227E+01 -0.14126168879E+03 -0.15636905771E+03  0.27269076391E+03  0.17300000000E+03 0.  1.
<mgrwt>
<rscale>  2 0.22340316E+03</rscale>
<asrwt>0</asrwt>
<pdfrwt beam="1">  1       21 0.10960053E-01 0.22340316E+03</pdfrwt>
<pdfrwt beam="2">  1       21 0.17976692E+00 0.22340316E+03</pdfrwt>
<totfact> 0.12311352E+04</totfact>
</mgrwt>
</event>
<event>
 4    1  0.4111182E+000  0.2092396E+03  0.7546771E-02  0.1142170E+00
         21   -1    0    0  501  502  0.00000000000E+00  0.00000000000E+00  0.12210616393E+03  0.12210616393E+03  0.00000000000E+00 0. -1.
         21   -1    0    0  502  503 -0.00000000000E+00 -0.00000000000E+00 -0.17512576641E+04  0.17512576641E+04  0.00000000000E+00 0. -1.
          6    1    1    2  501    0 -0.11385768376E+03  0.29809937009E+02  0.20733022877E+02  0.21026426880E+03  0.17300000000E+03 0. -1.
         -6    1    1    2    0  503  0.11385768376E+03 -0.29809937009E+02 -0.16498845230E+04  0.16630995592E+04  0.17300000000E+03 0. -1.
<mgrwt>
<rscale>  2 0.20923959E+03</rscale>
<asrwt>0</asrwt>
<pdfrwt beam="1">  1       21 0.18785564E-01 0.20923959E+03</pdfrwt>
<pdfrwt beam="2">  1       21 0.26942425E+00 0.20923959E+03</pdfrwt>
<totfact> 0.13024708E+03</totfact>
</mgrwt>
</event>
<event>
 4    1  0.4111182E+000  0.1955335E+03  0.7546771E-02  0.1153563E+00
         21   -1    0    0  501  502  0.00000000000E+00  0.00000000000E+00  0.97129619728E+02  0.97129619728E+02  0.00000000000E+00 0.  1.
         21   -1    0    0  502  503 -0.00000000000E+00 -0.00000000000E+00 -0.70173213583E+03  0.70173213583E+03  0.00000000000E+00 0.  1.
          6    1    1    2  501    0 -0.54349591356E+02  0.73146791998E+02 -0.37632998108E+02  0.19912200734E+03  0.17300000000E+03 0.  1.
         -6    1    1    2    0  503  0.54349591356E+02 -0.73146791998E+02 -0.56696951800E+03  0.59973974822E+03  0.17300000000E+03 0.  1.
<mgrwt>
<rscale>  2 0.19553345E+03</rscale>
<asrwt>0</asrwt>
<pdfrwt beam="1">  1       21 0.14943018E-01 0.19553345E+03</pdfrwt>
<pdfrwt beam="2">  1       21 0.10795879E+00 0.19553345E+03</pdfrwt>
<totfact> 0.26947433E+04</totfact>
</mgrwt>
</event>
<event>
 4    1  0.4111182E+000  0.1781182E+03  0.7546771E-02  0.1169637E+00
         21   -1    0    0  501  502  0.00000000000E+00  0.00000000000E+00  0.69715149933E+03  0.69715149933E+03  0.00000000000E+00 0. -1.
         21   -1    0    0  502  503 -0.00000000000E+00 -0.00000000000E+00 -0.45666385861E+02  0.45666385861E+02  0.00000000000E+00 0. -1.
          6    1    1    2  501    0 -0.97584054059E+01 -0.41253568679E+02  0.34760456004E+03  0.39058291510E+03  0.17300000000E+03 0. -1.
         -6    1    1    2    0  503  0.97584054059E+01  0.41253568679E+02  0.30388055342E+03  0.35223497009E+03  0.17300000000E+03 0. -1.
<mgrwt>
<rscale>  2 0.17811817E+03</rscale>
<asrwt>0</asrwt>
<pdfrwt beam="1">  1       21 0.10725407E+00 0.17811817E+03</pdfrwt>
<pdfrwt beam="2">  1       21 0.70255983E-02 0.17811817E+03</pdfrwt>
<totfact> 0.10498184E+05</totfact>
</mgrwt>
</event>
<event>
 4    1  0.4111182E+000  0.2679782E+03  0.7546771E-02  0.1102442E+00
         21   -1    0    0  501  502  0.00000000000E+00  0.00000000000E+00  0.66333059216E+03  0.66333059216E+03  0.00000000000E+00 0. -1.
         21   -1    0    0  502  503 -0.00000000000E+00 -0.00000000000E+00 -0.12397449901E+03  0.12397449901E+03  0.00000000000E+00 0. -1.
          6    1    1    2  501    0 -0.20097464040E+03  0.38632691927E+02  0.40982854004E+03  0.48966490910E+03  0.17300000000E+03 0. -1.
         -6    1    1    2    0  503  0.20097464040E+03 -0.38632691927E+02  0.12952755312E+03  0.29764018208E+03  0.17300000000E+03 0. -1.
<mgrwt>
<rscale>  2 0.26797815E+03</rscale>
<asrwt>0</asrwt>
<pdfrwt beam="1">  1       21 0.10205086E+00 0.26797815E+03</pdfrwt>
<pdfrwt beam="2">  1       21 0.19073000E-01 0.26797815E+03</pdfrwt>
<totfact> 0.18924751E+04</totfact>
</mgrwt>
</event>
<event>
 4    1  0.4111182E+000  0.1731180E+03  0.7546771E-02  0.1174635E+00
         21   -1    0    0  503  502  0.00000000000E+00  0.00000000000E+00  0.12901709069E+04  0.12901709069E+04  0.00000000000E+00 0.  1.
         21   -1    0    0  501  503 -0.00000000000E+00 -0.00000000000E+00 -0.95614801508E+02  0.95614801508E+02  0.00000000000E+00 0.  1.
          6    1    1    2  501    0  0.35495302548E+01 -0.53146670652E+01 -0.55995245615E+01  0.17320854346E+03  0.17300000000E+03 0.  1.
         -6    1    1    2    0  502 -0.35495302548E+01  0.53146670652E+01  0.12001556299E+04  0.12125771649E+04  0.17300000000E+03 0.  1.
<mgrwt>
<rscale>  2 0.17311801E+03</rscale>
<asrwt>0</asrwt>
<pdfrwt beam="1">  1       21 0.19848782E+00 0.17311801E+03</pdfrwt>
<pdfrwt beam="2">  1       21 0.14709970E-01 0.17311801E+03</pdfrwt>
<totfact> 0.56851767E+03</totfact>
</mgrwt>
</event>
<event>
 4    1  0.4111182E+000  0.1775678E+03  0.7546771E-02  0.1170178E+00
         21   -1    0    0  501  502  0.00000000000E+00  0.00000000000E+00  0.29417609029E+02  0.29417609029E+02  0.00000000000E+00 0.  1.
         21   -1    0    0  502  503 -0.00000000000E+00 -0.00000000000E+00 -0.10886604566E+04  0.10886604566E+04  0.00000000000E+00 0.  1.
          6    1    1    2  501    0 -0.38126054195E+02  0.12154093804E+02 -0.46008685585E+03  0.49316349513E+03  0.17300000000E+03 0.  1.
         -6    1    1    2    0  503  0.38126054195E+02 -0.12154093804E+02 -0.59915599172E+03  0.62491457050E+03  0.17300000000E+03 0.  1.
<mgrwt>
<rscale>  2 0.17756778E+03</rscale>
<asrwt>0</asrwt>
<pdfrwt beam="1">  1       21 0.45257866E-02 0.17756778E+03</pdfrwt>
<pdfrwt beam="2">  1       21 0.16748620E+00 0.17756778E+03</pdfrwt>
<totfact> 0.71359387E+04</totfact>
</mgrwt>
</event>
<event>
 4    1  0.4111182E+000  0.2318685E+03  0.7546771E-02  0.1125332E+00
         21   -1    0    0  501  502  0.00000000000E+00  0.00000000000E+00  0.34248817247E+03  0.34248817247E+03  0.00000000000E+00 0. -1.
         21   -1    0    0  502  503 -0.00000000000E+00 -0.00000000000E+00 -0.34366593903E+03  0.34366593903E+03  0.00000000000E+00 0. -1.
          6    1    1    2  501    0 -0.15369620845E+03  0.14542060838E+02  0.25227216899E+03  0.34264302601E+03  0.17300000000E+03 0. -1.
         -6    1    1    2    0  503  0.15369620845E+03 -0.14542060838E+02 -0.25344993554E+03  0.34351108549E+03  0.17300000000E+03 0. -1.
<mgrwt>
<rscale>  2 0.23186849E+03</rscale>
<asrwt>0</asrwt>
<pdfrwt beam="1">  1       21 0.52690488E-01 0.23186849E+03</pdfrwt>
<pdfrwt beam="2">  1       21 0.52871683E-01 0.23186849E+03</pdfrwt>
<totfact> 0.11290063E+04</totfact>
</mgrwt>
</event>
<event>
 4    1  0.4111182E+000  0.2150207E+03  0.7546771E-02  0.1137651E+00
         21   -1    0    0  501  502  0.00000000000E+00  0.00000000000E+00  0.28400809347E+03  0.28400809347E+03  0.00000000000E+00 0.  1.
         21   -1    0    0  502  503 -0.00000000000E+00 -0.00000000000E+00 -0.16444860278E+03  0.16444860278E+03  0.00000000000E+00 0. -1.
          6    1    1    2  501    0 -0.33581454319E+02 -0.12319578107E+03  0.82292950715E+02  0.23023041564E+03  0.17300000000E+03 0.  1.
         -6    1    1    2    0  503  0.33581454319E+02  0.12319578107E+03  0.37266539972E+02  0.21822628061E+03  0.17300000000E+03 0. -1.
<mgrwt>
<rscale>  2 0.21502073E+03</rscale>
<asrwt>0</asrwt>
<pdfrwt beam="1">  1       21 0.43693553E-01 0.21502073E+03</pdfrwt>
<pdfrwt beam="2">  1       21 0.25299785E-01 0.21502073E+03</pdfrwt>
<totfact> 0.73808654E+04</totfact>
</mgrwt>
</event>
<event>
 4    1  0.4111182E+000  0.1770984E+03  0.7546771E-02  0.1170641E+00
         21   -1    0    0  501  502  0.00000000000E+00  0.00000000000E+00  0.70769509200E+02  0.70769509200E+02  0.00000000000E+00 0.  1.
         21   -1    0    0  502  503 -0.00000000000E+00 -0.00000000000E+00 -0.12690674752E+04  0.12690674752E+04  0.00000000000E+00 0.  1.
          6    1    1    2  501    0 -0.31486079802E+02  0.21058682647E+02 -0.58719208538E+02  0.18657917029E+03  0.17300000000E+03 0.  1.
         -6    1    1    2    0  503  0.31486079802E+02 -0.21058682647E+02 -0.11395787574E+04  0.11532578141E+04  0.17300000000E+03 0.  1.
<mgrwt>
<rscale>  2 0.17709839E+03</rscale>
<asrwt>0</asrwt>
<pdfrwt beam="1">  1       21 0.10887616E-01 0.17709839E+03</pdfrwt>
<pdfrwt beam="2">  1       21 0.19524116E+00 0.17709839E+03</pdfrwt>
<totfact> 0.10193277E+04</totfact>
</mgrwt>
</event>
<event>
 4    1  0.4111182E+000  0.1759125E+03  0.7546771E-02  0.1171819E+00
         21   -1    0    0  501  502  0.00000000000E+00  0.00000000000E+00  0.80161088584E+02  0.80161088584E+02  0.00000000000E+00 0. -1.
         21   -1    0    0  502  503 -0.00000000000E+00 -0.00000000000E+00 -0.66080208552E+03  0.66080208552E+03  0.00000000000E+00 0. -1.
          6    1    1    2  501    0 -0.24067225515E+01  0.31786976767E+02 -0.51423261640E+02  0.18327453736E+03  0.17300000000E+03 0. -1.
         -6    1    1    2    0  503  0.24067225515E+01 -0.31786976767E+02 -0.52921773530E+03  0.55768863675E+03  0.17300000000E+03 0. -1.
<mgrwt>
<rscale>  2 0.17591249E+03</rscale>
<asrwt>0</asrwt>
<pdfrwt beam="1">  1       21 0.12332476E-01 0.17591249E+03</pdfrwt>
<pdfrwt beam="2">  1       21 0.10166185E+00 0.17591249E+03</pdfrwt>
<totfact> 0.44494766E+04</totfact>
</mgrwt>
</event>
<event>
 4    1  0.4111182E+000  0.1755527E+03  0.7546771E-02  0.1172178E+00
         21   -1    0    0  501  502  0.00000000000E+00  0.00000000000E+00  0.55604302279E+03  0.55604302279E+03  0.00000000000E+00 0. -1.
         21   -1    0    0  502  503 -0.00000000000E+00 -0.00000000000E+00 -0.55569775684E+02  0.55569775684E+02  0.00000000000E+00 0. -1.
          6    1    1    2  501    0  0.19421968989E+02  0.22639029828E+02  0.26584038547E+03  0.31857471510E+03  0.17300000000E+03 0.  1.
         -6    1    1    2    0  503 -0.19421968989E+02 -0.22639029828E+02  0.23463286163E+03  0.29303808337E+03  0.17300000000E+03 0.  1.
<mgrwt>
<rscale>  2 0.17555267E+03</rscale>
<asrwt>0</asrwt>
<pdfrwt beam="1">  1       21 0.85545077E-01 0.17555267E+03</pdfrwt>
<pdfrwt beam="2">  1       21 0.85491966E-02 0.17555267E+03</pdfrwt>
<totfact> 0.12701091E+05</totfact>
</mgrwt>
</event>
<event>
 4    1  0.4111182E+000  0.2105021E+03  0.7546771E-02  0.1141169E+00
         21   -1    0    0  503  502  0.00000000000E+00  0.00000000000E+00  0.91313287429E+02  0.91313287429E+02  0.00000000000E+00 0.  1.
         21   -1    0    0  501  503 -0.00000000000E+00 -0.00000000000E+00 -0.48529559971E+03  0.48529559971E+03  0.00000000000E+00 0. -1.
          6    1    1    2  501    0 -0.40520790955E+02  0.11287246443E+03 -0.19469582081E+03  0.28673609882E+03  0.17300000000E+03 0.  1.
         -6    1    1    2    0  502  0.40520790955E+02 -0.11287246443E+03 -0.19928649147E+03  0.28987278832E+03  0.17300000000E+03 0. -1.
<mgrwt>
<rscale>  2 0.21050208E+03</rscale>
<asrwt>0</asrwt>
<pdfrwt beam="1">  1       21 0.14048198E-01 0.21050208E+03</pdfrwt>
<pdfrwt beam="2">  1       21 0.74660861E-01 0.21050208E+03</pdfrwt>
<totfact> 0.70399758E+04</totfact>
</mgrwt>
</event>
<event>
 4    1  0.4111182E+000  0.1872620E+03  0.7546771E-02  0.1160954E+00
         21   -1    0    0  501  502  0.00000000000E+00  0.00000000000E+00  0.17174366819E+04  0.17174366819E+04  0.00000000000E+00 0. -1.
         21   -1    0    0  502  503 -0.00000000000E+00 -0.00000000000E+00 -0.20716520649E+02  0.20716520649E+02  0.00000000000E+00 0. -1.
          6    1    1    2  501    0  0.30702013222E+02 -0.64772362143E+02  0.95263887803E+03  0.97086966399E+03  0.17300000000E+03 0. -1.
         -6    1    1    2    0  503 -0.30702013222E+02  0.64772362143E+02  0.74408128326E+03  0.76728353861E+03  0.17300000000E+03 0. -1.
<mgrwt>
<rscale>  2 0.18726204E+03</rscale>
<asrwt>0</asrwt>
<pdfrwt beam="1">  1       21 0.26422092E+00 0.18726204E+03</pdfrwt>
<pdfrwt beam="2">  1       21 0.31871584E-02 0.18726204E+03</pdfrwt>
<totfact> 0.31577823E+04</totfact>
</mgrwt>
</event>
<event>
 4    1  0.4111182E+000  0.2235564E+03  0.7546771E-02  0.1131259E+00
         21   -1    0    0  503  502  0.00000000000E+00  0.00000000000E+00  0.73375991630E+02  0.73375991630E+02  0.00000000000E+00 0. -1.
         21   -1    0    0  501  503 -0.00000000000E+00 -0.00000000000E+00 -0.92431842301E+03  0.92431842301E+03  0.00000000000E+00 0.  1.
          6    1    1    2  501    0 -0.24091938096E+02  0.13952793198E+03 -0.68135446988E+03  0.71709230850E+03  0.17300000000E+03 0. -1.
         -6    1    1    2    0  502  0.24091938096E+02 -0.13952793198E+03 -0.16958796150E+03  0.28060210614E+03  0.17300000000E+03 0. -1.
<mgrwt>
<rscale>  2 0.22355640E+03</rscale>
<asrwt>0</asrwt>
<pdfrwt beam="1">  1       21 0.11288615E-01 0.22355640E+03</pdfrwt>
<pdfrwt beam="2">  1       21 0.14220283E+00 0.22355640E+03</pdfrwt>
<totfact> 0.22058606E+04</totfact>
</mgrwt>
</event>
<event>
 4    1  0.4111182E+000  0.1766395E+03  0.7546771E-02  0.1171096E+00
         21   -1    0    0  503  502  0.00000000000E+00  0.00000000000E+00  0.38074750393E+03  0.38074750393E+03  0.00000000000E+00 0. -1.
         21   -1    0    0  501  503 -0.00000000000E+00 -0.00000000000E+00 -0.23622452759E+03  0.23622452759E+03  0.00000000000E+00 0. -1.
          6    1    1    2  501    0 -0.21783759962E+02  0.28248567933E+02 -0.17703884014E+03  0.25008851375E+03  0.17300000000E+03 0. -1.
         -6    1    1    2    0  502  0.21783759962E+02 -0.28248567933E+02  0.32156181649E+03  0.36688351777E+03  0.17300000000E+03 0. -1.
<mgrwt>
<rscale>  2 0.17663950E+03</rscale>
<asrwt>0</asrwt>
<pdfrwt beam="1">  1       21 0.58576539E-01 0.17663950E+03</pdfrwt>
<pdfrwt beam="2">  1       21 0.36342235E-01 0.17663950E+03</pdfrwt>
<totfact> 0.20111900E+04</totfact>
</mgrwt>
</event>
<event>
 4    1  0.4111182E+000  0.3227816E+03  0.7546771E-02  0.1074376E+00
         21   -1    0    0  503  502  0.00000000000E+00  0.00000000000E+00  0.25537518377E+03  0.25537518377E+03  0.00000000000E+00 0.  1.
         21   -1    0    0  501  503 -0.00000000000E+00 -0.00000000000E+00 -0.41255627193E+03  0.41255627193E+03  0.00000000000E+00 0.  1.
          6    1    1    2  501    0 -0.27036012161E+03  0.34123269956E+02 -0.43417375841E+02  0.32568859580E+03  0.17300000000E+03 0.  1.
         -6    1    1    2    0  502  0.27036012161E+03 -0.34123269956E+02 -0.11376371232E+03  0.34224285990E+03  0.17300000000E+03 0.  1.
<mgrwt>
<rscale>  2 0.32278165E+03</rscale>
<asrwt>0</asrwt>
<pdfrwt beam="1">  1       21 0.39288490E-01 0.32278165E+03</pdfrwt>
<pdfrwt beam="2">  1       21 0.63470195E-01 0.32278165E+03</pdfrwt>
<totfact> 0.13411745E+04</totfact>
</mgrwt>
</event>
<event>
 4    1  0.4111182E+000  0.1931191E+03  0.7546771E-02  0.1155678E+00
         21   -1    0    0  503  502  0.00000000000E+00  0.00000000000E+00  0.59159937876E+03  0.59159937876E+03  0.00000000000E+00 0.  1.
         21   -1    0    0  501  503 -0.00000000000E+00 -0.00000000000E+00 -0.14868239249E+03  0.14868239249E+03  0.00000000000E+00 0.  1.
          6    1    1    2  501    0  0.24471451986E+02  0.82262671639E+02 -0.59459284277E+02  0.20206534981E+03  0.17300000000E+03 0.  1.
         -6    1    1    2    0  502 -0.24471451986E+02 -0.82262671639E+02  0.50237627054E+03  0.53821642145E+03  0.17300000000E+03 0.  1.
<mgrwt>
<rscale>  2 0.19311913E+03</rscale>
<asrwt>0</asrwt>
<pdfrwt beam="1">  1       21 0.91015288E-01 0.19311913E+03</pdfrwt>
<pdfrwt beam="2">  1       21 0.22874214E-01 0.19311913E+03</pdfrwt>
<totfact> 0.18353304E+04</totfact>
</mgrwt>
</event>
<event>
 4    1  0.4111182E+000  0.1753334E+03  0.7546771E-02  0.1172397E+00
         21   -1    0    0  503  502  0.00000000000E+00  0.00000000000E+00  0.13725909358E+04  0.13725909358E+04  0.00000000000E+00 0.  1.
         21   -1    0    0  501  503 -0.00000000000E+00 -0.00000000000E+00 -0.38206519061E+02  0.38206519061E+02  0.00000000000E+00 0.  1.
          6    1    1    2  501    0 -0.16849797707E+02  0.22997825110E+02  0.21343211191E+03  0.27621564409E+03  0.17300000000E+03 0.  1.
         -6    1    1    2    0  502  0.16849797707E+02 -0.22997825110E+02  0.11209523048E+04  0.11345818107E+04  0.17300000000E+03 0.  1.
<mgrwt>
<rscale>  2 0.17533344E+03</rscale>
<asrwt>0</asrwt>
<pdfrwt beam="1">  1       21 0.21116780E+00 0.17533344E+03</pdfrwt>
<pdfrwt beam="2">  1       21 0.58779271E-02 0.17533344E+03</pdfrwt>
<totfact> 0.23622881E+04</totfact>
</mgrwt>
</event>
<event>
 4    1  0.4111182E+000  0.2167821E+03  0.7546771E-02  0.1136305E+00
         21   -1    0    0  501  502  0.00000000000E+00  0.00000000000E+00  0.30890136278E+03  0.30890136278E+03  0.00000000000E+00 0. -1.
         21   -1    0    0  502  503 -0.00000000000E+00 -0.00000000000E+00 -0.15600117050E+03  0.15600117050E+03  0.00000000000E+00 0. -1.
          6    1    1    2  501    0  0.28637118738E+02 -0.12745741418E+03  0.11304753028E+03  0.24448767065E+03  0.17300000000E+03 0. -1.
         -6    1    1    2    0  503 -0.28637118738E+02  0.12745741418E+03  0.39852661993E+02  0.22041486263E+03  0.17300000000E+03 0. -1.
<mgrwt>
<rscale>  2 0.21678210E+03</rscale>
<asrwt>0</asrwt>
<pdfrwt beam="1">  1       21 0.47523286E-01 0.21678210E+03</pdfrwt>
<pdfrwt beam="2">  1       21 0.24000180E-01 0.21678210E+03</pdfrwt>
<totfact> 0.68593576E+04</totfact>
</mgrwt>
</event>
<event>
 4    1  0.4111182E+000  0.1961906E+03  0.7546771E-02  0.1152993E+00
         21   -1    0    0  501  502  0.00000000000E+00  0.00000000000E+00  0.33276216855E+03  0.33276216855E+03  0.00000000000E+00 0. -1.
         21   -1    0    0  502  503 -0.00000000000E+00 -0.00000000000E+00 -0.17614145601E+03  0.17614145601E+03  0.00000000000E+00 0. -1.
          6    1    1    2  501    0 -0.78453729723E+02 -0.49058654960E+02  0.22740033987E+03  0.30033590180E+03  0.17300000000E+03 0. -1.
         -6    1    1    2    0  503  0.78453729723E+02  0.49058654960E+02 -0.70779627332E+02  0.20856772276E+03  0.17300000000E+03 0. -1.
<mgrwt>
<rscale>  2 0.19619057E+03</rscale>
<asrwt>0</asrwt>
<pdfrwt beam="1">  1       21 0.51194180E-01 0.19619057E+03</pdfrwt>
<pdfrwt beam="2">  1       21 0.27098686E-01 0.19619057E+03</pdfrwt>
<totfact> 0.46990743E+04</totfact>
</mgrwt>
</event>
<event>
 4    1  0.4111182E+000  0.1807372E+03  0.7546771E-02  0.1167091E+00
         21   -1    0    0  501  502  0.00000000000E+00  0.00000000000E+00  0.40681131238E+03  0.40681131238E+03  0.00000000000E+00 0.  1.
         21   -1    0    0  502  503 -0.00000000000E+00 -0.00000000000E+00 -0.89308837792E+02  0.89308837792E+02  0.00000000000E+00 0.  1.
          6    1    1    2  501    0 -0.34522862018E+02 -0.39308001367E+02  0.23754709036E+03  0.29848713056E+03  0.17300000000E+03 0.  1.
         -6    1    1    2    0  503  0.34522862018E+02  0.39308001367E+02  0.79955384232E+02  0.19763301961E+03  0.17300000000E+03 0.  1.
<mgrwt>
<rscale>  2 0.18073723E+03</rscale>
<asrwt>0</asrwt>
<pdfrwt beam="1">  1       21 0.62586355E-01 0.18073723E+03</pdfrwt>
<pdfrwt beam="2">  1       21 0.13739821E-01 0.18073723E+03</pdfrwt>
<totfact> 0.10931624E+05</totfact>
</mgrwt>
</event>
<event>
 4    1  0.4111182E+000  0.1962285E+03  0.7546771E-02  0.1152961E+00
         21   -1    0    0  503  502  0.00000000000E+00  0.00000000000E+00  0.39394521453E+03  0.39394521453E+03  0.00000000000E+00 0. -1.
         21   -1    0    0  501  503 -0.00000000000E+00 -0.00000000000E+00 -0.32321245300E+03  0.32321245300E+03  0.00000000000E+00 0. -1.
          6    1    1    2  501    0 -0.44248606351E+02  0.81355239306E+02 -0.26412471054E+03  0.32904023591E+03  0.17300000000E+03 0. -1.
         -6    1    1    2    0  502  0.44248606351E+02 -0.81355239306E+02  0.33485747207E+03  0.38811743162E+03  0.17300000000E+03 0. -1.
<mgrwt>
<rscale>  2 0.19622847E+03</rscale>
<asrwt>0</asrwt>
<pdfrwt beam="1">  1       21 0.60606956E-01 0.19622847E+03</pdfrwt>
<pdfrwt beam="2">  1       21 0.49724993E-01 0.19622847E+03</pdfrwt>
<totfact> 0.97499919E+03</totfact>
</mgrwt>
</event>
<event>
 4    1  0.4111182E+000  0.2228930E+03  0.7546771E-02  0.1131744E+00
         21   -1    0    0  501  502  0.00000000000E+00  0.00000000000E+00  0.12682460288E+03  0.12682460288E+03  0.00000000000E+00 0.  1.
         21   -1    0    0  502  503 -0.00000000000E+00 -0.00000000000E+00 -0.73496319564E+03  0.73496319564E+03  0.00000000000E+00 0. -1.
          6    1    1    2  501    0 -0.12296606555E+03 -0.68056102464E+02 -0.96062700474E+01  0.22309990315E+03  0.17300000000E+03 0.  1.
         -6    1    1    2    0  503  0.12296606555E+03  0.68056102464E+02 -0.59853232271E+03  0.63868789537E+03  0.17300000000E+03 0. -1.
<mgrwt>
<rscale>  2 0.22289299E+03</rscale>
<asrwt>0</asrwt>
<pdfrwt beam="1">  1       21 0.19511477E-01 0.22289299E+03</pdfrwt>
<pdfrwt beam="2">  1       21 0.11307126E+00 0.22289299E+03</pdfrwt>
<totfact> 0.14481929E+04</totfact>
</mgrwt>
</event>
<event>
 4    1  0.4111182E+000  0.1795662E+03  0.7546771E-02  0.1168224E+00
         21   -1    0    0  501  502  0.00000000000E+00  0.00000000000E+00  0.13358028257E+03  0.13358028257E+03  0.00000000000E+00 0.  1.
         21   -1    0    0  502  503 -0.00000000000E+00 -0.00000000000E+00 -0.45261528822E+03  0.45261528822E+03  0.00000000000E+00 0.  1.
          6    1    1    2  501    0  0.30493228735E+02  0.37218226132E+02  0.40711919508E+02  0.18412358281E+03  0.17300000000E+03 0.  1.
         -6    1    1    2    0  503 -0.30493228735E+02 -0.37218226132E+02 -0.35974692516E+03  0.40207198798E+03  0.17300000000E+03 0.  1.
<mgrwt>
<rscale>  2 0.17956624E+03</rscale>
<asrwt>0</asrwt>
<pdfrwt beam="1">  1       21 0.20550812E-01 0.17956624E+03</pdfrwt>
<pdfrwt beam="2">  1       21 0.69633123E-01 0.17956624E+03</pdfrwt>
<totfact> 0.41397460E+04</totfact>
</mgrwt>
</event>
<event>
 4    1  0.4111182E+000  0.2185385E+03  0.7546771E-02  0.1134977E+00
         21   -1    0    0  503  502  0.00000000000E+00  0.00000000000E+00  0.78649186827E+03  0.78649186827E+03  0.00000000000E+00 0. -1.
         21   -1    0    0  501  503 -0.00000000000E+00 -0.00000000000E+00 -0.67349703265E+02  0.67349703265E+02  0.00000000000E+00 0. -1.
          6    1    1    2  501    0 -0.11084786239E+03  0.74450076773E+02  0.22566817189E+03  0.31414198435E+03  0.17300000000E+03 0. -1.
         -6    1    1    2    0  502  0.11084786239E+03 -0.74450076773E+02  0.49347399311E+03  0.53969958718E+03  0.17300000000E+03 0. -1.
<mgrwt>
<rscale>  2 0.21853847E+03</rscale>
<asrwt>0</asrwt>
<pdfrwt beam="1">  1       21 0.12099874E+00 0.21853847E+03</pdfrwt>
<pdfrwt beam="2">  1       21 0.10361493E-01 0.21853847E+03</pdfrwt>
<totfact> 0.38870297E+04</totfact>
</mgrwt>
</event>
<event>
 4    1  0.4111182E+000  0.3063949E+03  0.7546771E-02  0.1082087E+00
         21   -1    0    0  503  502  0.00000000000E+00  0.00000000000E+00  0.15571449443E+03  0.15571449443E+03  0.00000000000E+00 0.  1.
         21   -1    0    0  501  503 -0.00000000000E+00 -0.00000000000E+00 -0.62958123233E+03  0.62958123233E+03  0.00000000000E+00 0. -1.
          6    1    1    2  501    0 -0.24566837333E+03  0.59965708601E+02 -0.31778846757E+03  0.44143781667E+03  0.17300000000E+03 0.  1.
         -6    1    1    2    0  502  0.24566837333E+03 -0.59965708601E+02 -0.15607827033E+03  0.34385791009E+03  0.17300000000E+03 0. -1.
<mgrwt>
<rscale>  2 0.30639490E+03</rscale>
<asrwt>0</asrwt>
<pdfrwt beam="1">  1       21 0.23956076E-01 0.30639490E+03</pdfrwt>
<pdfrwt beam="2">  1       21 0.96858652E-01 0.30639490E+03</pdfrwt>
<totfact> 0.13679802E+04</totfact>
</mgrwt>
</event>
<event>
 4    1  0.4111182E+000  0.2061127E+03  0.7546771E-02  0.1144682E+00
         21   -1    0    0  501  502  0.00000000000E+00  0.00000000000E+00  0.13401967445E+04  0.13401967445E+04  0.00000000000E+00 0. -1.
         21   -1    0    0  502  503 -0.00000000000E+00 -0.00000000000E+00 -0.16042076001E+03  0.16042076001E+03  0.00000000000E+00 0.  1.
          6    1    1    2  501    0 -0.70173529173E+02  0.87344817042E+02  0.12619916910E+04  0.12787124264E+04  0.17300000000E+03 0. -1.
         -6    1    1    2    0  503  0.70173529173E+02 -0.87344817042E+02 -0.82215706573E+02  0.22190507806E+03  0.17300000000E+03 0.  1.
<mgrwt>
<rscale>  2 0.20611269E+03</rscale>
<asrwt>0</asrwt>
<pdfrwt beam="1">  1       21 0.20618411E+00 0.20611269E+03</pdfrwt>
<pdfrwt beam="2">  1       21 0.24680118E-01 0.20611269E+03</pdfrwt>
<totfact> 0.18772192E+03</totfact>
</mgrwt>
</event>
<event>
 4    1  0.4111182E+000  0.1892364E+03  0.7546771E-02  0.1159152E+00
         21   -1    0    0  503  502  0.00000000000E+00  0.00000000000E+00  0.44078843803E+03  0.44078843803E+03  0.00000000000E+00 0.  1.
         21   -1    0    0  501  503 -0.00000000000E+00 -0.00000000000E+00 -0.12962099293E+03  0.12962099293E+03  0.00000000000E+00 0.  1.
          6    1    1    2  501    0 -0.27149739387E+02  0.71723848174E+02 -0.18656580641E+02  0.19015385020E+03  0.17300000000E+03 0.  1.
         -6    1    1    2    0  502  0.27149739387E+02 -0.71723848174E+02  0.32982402574E+03  0.38025558076E+03  0.17300000000E+03 0.  1.
<mgrwt>
<rscale>  2 0.18923641E+03</rscale>
<asrwt>0</asrwt>
<pdfrwt beam="1">  1       21 0.67813605E-01 0.18923641E+03</pdfrwt>
<pdfrwt beam="2">  1       21 0.19941691E-01 0.18923641E+03</pdfrwt>
<totfact> 0.46189486E+04</totfact>
</mgrwt>
</event>
<event>
 4    1  0.4111182E+000  0.1771049E+03  0.7546771E-02  0.1170635E+00
         21   -1    0    0  503  502  0.00000000000E+00  0.00000000000E+00  0.60993729419E+03  0.60993729419E+03  0.00000000000E+00 0. -1.
         21   -1    0    0  501  503 -0.00000000000E+00 -0.00000000000E+00 -0.63555072556E+02  0.63555072556E+02  0.00000000000E+00 0. -1.
          6    1    1    2  501    0  0.21496976133E+02  0.31225429691E+02  0.12607654012E+03  0.21739696735E+03  0.17300000000E+03 0.  1.
         -6    1    1    2    0  502 -0.21496976133E+02 -0.31225429691E+02  0.42030568152E+03  0.45609539940E+03  0.17300000000E+03 0.  1.
<mgrwt>
<rscale>  2 0.17710491E+03</rscale>
<asrwt>0</asrwt>
<pdfrwt beam="1">  1       21 0.93836503E-01 0.17710491E+03</pdfrwt>
<pdfrwt beam="2">  1       21 0.97777039E-02 0.17710491E+03</pdfrwt>
<totfact> 0.81043247E+04</totfact>
</mgrwt>
</event>
<event>
 4    1  0.4111182E+000  0.2504155E+03  0.7546771E-02  0.1113042E+00
         21   -1    0    0  503  502  0.00000000000E+00  0.00000000000E+00  0.80520871969E+02  0.80520871969E+02  0.00000000000E+00 0.  1.
         21   -1    0    0  501  503 -0.00000000000E+00 -0.00000000000E+00 -0.83699919313E+03  0.83699919313E+03  0.00000000000E+00 0.  1.
          6    1    1    2  501    0 -0.12216499100E+03 -0.13362132434E+03 -0.49923232627E+03  0.55851665950E+03  0.17300000000E+03 0.  1.
         -6    1    1    2    0  502  0.12216499100E+03  0.13362132434E+03 -0.25724599489E+03  0.35900340560E+03  0.17300000000E+03 0.  1.
<mgrwt>
<rscale>  2 0.25041554E+03</rscale>
<asrwt>0</asrwt>
<pdfrwt beam="1">  1       21 0.12387826E-01 0.25041554E+03</pdfrwt>
<pdfrwt beam="2">  1       21 0.12876911E+00 0.25041554E+03</pdfrwt>
<totfact> 0.23748749E+04</totfact>
</mgrwt>
</event>
<event>
 4    1  0.4111182E+000  0.2572715E+03  0.7546771E-02  0.1108794E+00
         21   -1    0    0  503  502  0.00000000000E+00  0.00000000000E+00  0.31811943608E+03  0.31811943608E+03  0.00000000000E+00 0. -1.
         21   -1    0    0  501  503 -0.00000000000E+00 -0.00000000000E+00 -0.55952315047E+03  0.55952315047E+03  0.00000000000E+00 0. -1.
          6    1    1    2  501    0 -0.18611176830E+03 -0.40274515130E+02 -0.46849195123E+03  0.53448417679E+03  0.17300000000E+03 0. -1.
         -6    1    1    2    0  502  0.18611176830E+03  0.40274515130E+02  0.22708823685E+03  0.34315840975E+03  0.17300000000E+03 0. -1.
<mgrwt>
<rscale>  2 0.25727150E+03</rscale>
<asrwt>0</asrwt>
<pdfrwt beam="1">  1       21 0.48941452E-01 0.25727150E+03</pdfrwt>
<pdfrwt beam="2">  1       21 0.86080483E-01 0.25727150E+03</pdfrwt>
<totfact> 0.44301661E+03</totfact>
</mgrwt>
</event>
<event>
 4    1  0.4111182E+000  0.2841504E+03  0.7546771E-02  0.1093443E+00
         21   -1    0    0  503  502  0.00000000000E+00  0.00000000000E+00  0.22028016089E+04  0.22028016089E+04  0.00000000000E+00 0.  1.
         21   -1    0    0  501  503 -0.00000000000E+00 -0.00000000000E+00 -0.38854387328E+02  0.38854387328E+02  0.00000000000E+00 0.  1.
          6    1    1    2  501    0 -0.71332728613E+02 -0.21383187149E+03  0.81524394760E+03  0.86334472926E+03  0.17300000000E+03 0.  1.
         -6    1    1    2    0  502  0.71332728613E+02  0.21383187149E+03  0.13487032740E+04  0.13783112670E+04  0.17300000000E+03 0.  1.
<mgrwt>
<rscale>  2 0.28415036E+03</rscale>
<asrwt>0</asrwt>
<pdfrwt beam="1">  1       21 0.33889246E+00 0.28415036E+03</pdfrwt>
<pdfrwt beam="2">  1       21 0.59775998E-02 0.28415036E+03</pdfrwt>
<totfact> 0.36634509E+03</totfact>
</mgrwt>
</event>
<event>
 4    1  0.4111182E+000  0.1861597E+03  0.7546771E-02  0.1161971E+00
         21   -1    0    0  501  502  0.00000000000E+00  0.00000000000E+00  0.34124623472E+03  0.34124623472E+03  0.00000000000E+00 0.  1.
         21   -1    0    0  502  503 -0.00000000000E+00 -0.00000000000E+00 -0.13889523896E+03  0.13889523896E+03  0.00000000000E+00 0.  1.
          6    1    1    2  501    0  0.68456873081E+02  0.63327627482E+01  0.22565015043E+03  0.29252937929E+03  0.17300000000E+03 0.  1.
         -6    1    1    2    0  503 -0.68456873081E+02 -0.63327627482E+01 -0.23299154670E+02  0.18761209440E+03  0.17300000000E+03 0.  1.
<mgrwt>
<rscale>  2 0.18615974E+03</rscale>
<asrwt>0</asrwt>
<pdfrwt beam="1">  1       21 0.52499421E-01 0.18615974E+03</pdfrwt>
<pdfrwt beam="2">  1       21 0.21368498E-01 0.18615974E+03</pdfrwt>
<totfact> 0.70351090E+04</totfact>
</mgrwt>
</event>
<event>
 4    1  0.4111182E+000  0.2024691E+03  0.7546771E-02  0.1147672E+00
         21   -1    0    0  501  502  0.00000000000E+00  0.00000000000E+00  0.61056406143E+03  0.61056406143E+03  0.00000000000E+00 0. -1.
         21   -1    0    0  502  503 -0.00000000000E+00 -0.00000000000E+00 -0.16306383857E+03  0.16306383857E+03  0.00000000000E+00 0.  1.
          6    1    1    2  501    0  0.10442988965E+03 -0.12614590176E+02  0.52042778959E+03  0.55842529842E+03  0.17300000000E+03 0. -1.
         -6    1    1    2    0  503 -0.10442988965E+03  0.12614590176E+02 -0.72927566737E+02  0.21520260158E+03  0.17300000000E+03 0.  1.
<mgrwt>
<rscale>  2 0.20246908E+03</rscale>
<asrwt>0</asrwt>
<pdfrwt beam="1">  1       21 0.93932931E-01 0.20246908E+03</pdfrwt>
<pdfrwt beam="2">  1       21 0.25086745E-01 0.20246908E+03</pdfrwt>
<totfact> 0.14219469E+04</totfact>
</mgrwt>
</event>
<event>
 4    1  0.4111182E+000  0.1807348E+03  0.7546771E-02  0.1167094E+00
         21   -1    0    0  501  502  0.00000000000E+00  0.00000000000E+00  0.27538123417E+03  0.27538123417E+03  0.00000000000E+00 0.  1.
         21   -1    0    0  502  503 -0.00000000000E+00 -0.00000000000E+00 -0.16716497044E+03  0.16716497044E+03  0.00000000000E+00 0.  1.
          6    1    1    2  501    0  0.17413446981E+01 -0.52278297542E+02  0.17335280271E+03  0.25043212031E+03  0.17300000000E+03 0. -1.
         -6    1    1    2    0  503 -0.17413446981E+01  0.52278297542E+02 -0.65136538980E+02  0.19211408430E+03  0.17300000000E+03 0. -1.
<mgrwt>
<rscale>  2 0.18073476E+03</rscale>
<asrwt>0</asrwt>
<pdfrwt beam="1">  1       21 0.42366344E-01 0.18073476E+03</pdfrwt>
<pdfrwt beam="2">  1       21 0.25717688E-01 0.18073476E+03</pdfrwt>
<totfact> 0.77296533E+04</totfact>
</mgrwt>
</event>
<event>
 4    1  0.4111182E+000  0.2065155E+03  0.7546771E-02  0.1144355E+00
         21   -1    0    0  501  502  0.00000000000E+00  0.00000000000E+00  0.16264262523E+03  0.16264262523E+03  0.00000000000E+00 0.  1.
         21   -1    0    0  502  503 -0.00000000000E+00 -0.00000000000E+00 -0.35758644427E+03  0.35758644427E+03  0.00000000000E+00 0.  1.
          6    1    1    2  501    0  0.63184403831E+02 -0.93420572860E+02  0.36855477974E+02  0.20977845118E+03  0.17300000000E+03 0.  1.
         -6    1    1    2    0  503 -0.63184403831E+02  0.93420572860E+02 -0.23179929702E+03  0.31045061832E+03  0.17300000000E+03 0.  1.
<mgrwt>
<rscale>  2 0.20651555E+03</rscale>
<asrwt>0</asrwt>
<pdfrwt beam="1">  1       21 0.25021943E-01 0.20651555E+03</pdfrwt>
<pdfrwt beam="2">  1       21 0.55013299E-01 0.20651555E+03</pdfrwt>
<totfact> 0.46819396E+04</totfact>
</mgrwt>
</event>
<event>
 4    1  0.4111182E+000  0.2002072E+03  0.7546771E-02  0.1149564E+00
         21   -1    0    0  501  502  0.00000000000E+00  0.00000000000E+00  0.60262107593E+03  0.60262107593E+03  0.00000000000E+00 0.  1.
         21   -1    0    0  502  503 -0.00000000000E+00 -0.00000000000E+00 -0.10734777331E+03  0.10734777331E+03  0.00000000000E+00 0.  1.
          6    1    1    2  501    0  0.10068178174E+03 -0.41376906693E+01  0.46657444626E+03  0.50771513230E+03  0.17300000000E+03 0.  1.
         -6    1    1    2    0  503 -0.10068178174E+03  0.41376906693E+01  0.28698856361E+02  0.20225371694E+03  0.17300000000E+03 0.  1.
<mgrwt>
<rscale>  2 0.20020725E+03</rscale>
<asrwt>0</asrwt>
<pdfrwt beam="1">  1       21 0.92710933E-01 0.20020725E+03</pdfrwt>
<pdfrwt beam="2">  1       21 0.16515042E-01 0.20020725E+03</pdfrwt>
<totfact> 0.32127477E+04</totfact>
</mgrwt>
</event>
<event>
 4    1  0.4111182E+000  0.2007160E+03  0.7546771E-02  0.1149136E+00
         21   -1    0    0  503  502  0.00000000000E+00  0.00000000000E+00  0.31109839014E+03  0.31109839014E+03  0.00000000000E+00 0.  1.
         21   -1    0    0  501  503 -0.00000000000E+00 -0.00000000000E+00 -0.27847458415E+03  0.27847458415E+03  0.00000000000E+00 0. -1.
          6    1    1    2  501    0 -0.84378575446E+02 -0.56905047158E+02 -0.19929980893E+03  0.28285569152E+03  0.17300000000E+03 0. -1.
         -6    1    1    2    0  502  0.84378575446E+02  0.56905047158E+02  0.23192361493E+03  0.30671728277E+03  0.17300000000E+03 0.  1.
<mgrwt>
<rscale>  2 0.20071604E+03</rscale>
<asrwt>0</asrwt>
<pdfrwt beam="1">  1       21 0.47861291E-01 0.20071604E+03</pdfrwt>
<pdfrwt beam="2">  1       21 0.42842244E-01 0.20071604E+03</pdfrwt>
<totfact> 0.21761640E+04</totfact>
</mgrwt>
</event>
<event>
 4    1  0.4111182E+000  0.1852855E+03  0.7546771E-02  0.1162784E+00
         21   -1    0    0  503  502  0.00000000000E+00  0.00000000000E+00  0.74502864905E+02  0.74502864905E+02  0.00000000000E+00 0. -1.
         21   -1    0    0  501  503 -0.00000000000E+00 -0.00000000000E+00 -0.49692079876E+03  0.49692079876E+03  0.00000000000E+00 0.  1.
          6    1    1    2  501    0 -0.63299510539E+01  0.66042678146E+02 -0.28824267128E+03  0.34265805282E+03  0.17300000000E+03 0.  1.
         -6    1    1    2    0  502  0.63299510539E+01 -0.66042678146E+02 -0.13417526257E+03  0.22876561084E+03  0.17300000000E+03 0. -1.
<mgrwt>
<rscale>  2 0.18528547E+03</rscale>
<asrwt>0</asrwt>
<pdfrwt beam="1">  1       21 0.11461979E-01 0.18528547E+03</pdfrwt>
<pdfrwt beam="2">  1       21 0.76449354E-01 0.18528547E+03</pdfrwt>
<totfact> 0.97303680E+04</totfact>
</mgrwt>
</event>
<event>
 4    1  0.4111182E+000  0.2943852E+03  0.7546771E-02  0.1088082E+00
         21   -1    0    0  503  502  0.00000000000E+00  0.00000000000E+00  0.25166838743E+04  0.25166838743E+04  0.00000000000E+00 0. -1.
         21   -1    0    0  501  503 -0.00000000000E+00 -0.00000000000E+00 -0.75859570537E+02  0.75859570537E+02  0.00000000000E+00 0.  1.
          6    1    1    2  501    0 -0.18111094528E+03  0.15470119673E+03  0.26251570644E+03  0.39443266966E+03  0.17300000000E+03 0.  1.
         -6    1    1    2    0  502  0.18111094528E+03 -0.15470119673E+03  0.21783085973E+04  0.21981107752E+04  0.17300000000E+03 0. -1.
<mgrwt>
<rscale>  2 0.29438518E+03</rscale>
<asrwt>0</asrwt>
<pdfrwt beam="1">  1       21 0.38718207E+00 0.29438518E+03</pdfrwt>
<pdfrwt beam="2">  1       21 0.11670705E-01 0.29438518E+03</pdfrwt>
<totfact> 0.56690541E+02</totfact>
</mgrwt>
</event>
<event>
 4    1  0.4111182E+000  0.1868859E+03  0.7546771E-02  0.1161300E+00
         21   -1    0    0  501  502  0.00000000000E+00  0.00000000000E+00  0.58868988532E+02  0.58868988532E+02  0.00000000000E+00 0.  1.
         21   -1    0    0  502  503 -0.00000000000E+00 -0.00000000000E+00 -0.79160415636E+03  0.79160415636E+03  0.00000000000E+00 0.  1.
          6    1    1    2  501    0  0.57796901219E+02 -0.40704494946E+02 -0.15352708796E+03  0.24186133307E+03  0.17300000000E+03 0.  1.
         -6    1    1    2    0  503 -0.57796901219E+02  0.40704494946E+02 -0.57920807987E+03  0.60861181182E+03  0.17300000000E+03 0.  1.
<mgrwt>
<rscale>  2 0.18688589E+03</rscale>
<asrwt>0</asrwt>
<pdfrwt beam="1">  1       21 0.90567678E-02 0.18688589E+03</pdfrwt>
<pdfrwt beam="2">  1       21 0.12178525E+00 0.18688589E+03</pdfrwt>
<totfact> 0.49329677E+04</totfact>
</mgrwt>
</event>
<event>
 4    1  0.4111182E+000  0.2149583E+03  0.7546771E-02  0.1137699E+00
         21   -1    0    0  501  502  0.00000000000E+00  0.00000000000E+00  0.18505909042E+03  0.18505909042E+03  0.00000000000E+00 0. -1.
         21   -1    0    0  502  503 -0.00000000000E+00 -0.00000000000E+00 -0.32891702088E+03  0.32891702088E+03  0.00000000000E+00 0. -1.
          6    1    1    2  501    0 -0.10840182487E+03 -0.67283938029E+02  0.54198936751E+02  0.22168583333E+03  0.17300000000E+03 0. -1.
         -6    1    1    2    0  503  0.10840182487E+03  0.67283938029E+02 -0.19805686721E+03  0.29229027798E+03  0.17300000000E+03 0. -1.
<mgrwt>
<rscale>  2 0.21495833E+03</rscale>
<asrwt>0</asrwt>
<pdfrwt beam="1">  1       21 0.28470629E-01 0.21495833E+03</pdfrwt>
<pdfrwt beam="2">  1       21 0.50602618E-01 0.21495833E+03</pdfrwt>
<totfact> 0.43357817E+04</totfact>
</mgrwt>
</event>
<event>
 4    1  0.4111182E+000  0.2867201E+03  0.7546771E-02  0.1092074E+00
         21   -1    0    0  501  502  0.00000000000E+00  0.00000000000E+00  0.96785094403E+02  0.96785094403E+02  0.00000000000E+00 0. -1.
         21   -1    0    0  502  503 -0.00000000000E+00 -0.00000000000E+00 -0.17418596368E+04  0.17418596368E+04  0.00000000000E+00 0.  1.
          6    1    1    2  501    0 -0.21079482360E+03  0.88571634342E+02 -0.16448904967E+03  0.33055262747E+03  0.17300000000E+03 0. -1.
         -6    1    1    2    0  503  0.21079482360E+03 -0.88571634342E+02 -0.14805854928E+04  0.15080921038E+04  0.17300000000E+03 0.  1.
<mgrwt>
<rscale>  2 0.28672006E+03</rscale>
<asrwt>0</asrwt>
<pdfrwt beam="1">  1       21 0.14890015E-01 0.28672006E+03</pdfrwt>
<pdfrwt beam="2">  1       21 0.26797839E+00 0.28672006E+03</pdfrwt>
<totfact> 0.18936193E+03</totfact>
</mgrwt>
</event>
<event>
 4    1  0.4111182E+000  0.1811406E+03  0.7546771E-02  0.1166704E+00
         21   -1    0    0  501  502  0.00000000000E+00  0.00000000000E+00  0.65452557499E+03  0.65452557499E+03  0.00000000000E+00 0.  1.
         21   -1    0    0  502  503 -0.00000000000E+00 -0.00000000000E+00 -0.33985040726E+03  0.33985040726E+03  0.00000000000E+00 0.  1.
          6    1    1    2  501    0 -0.11445002709E+01  0.53680692020E+02  0.61639354968E+03  0.64245850813E+03  0.17300000000E+03 0.  1.
         -6    1    1    2    0  503  0.11445002709E+01 -0.53680692020E+02 -0.30171838196E+03  0.35191747411E+03  0.17300000000E+03 0.  1.
<mgrwt>
<rscale>  2 0.18114063E+03</rscale>
<asrwt>0</asrwt>
<pdfrwt beam="1">  1       21 0.10069624E+00 0.18114063E+03</pdfrwt>
<pdfrwt beam="2">  1       21 0.52284678E-01 0.18114063E+03</pdfrwt>
<totfact> 0.28310800E+03</totfact>
</mgrwt>
</event>
<event>
 4    1  0.4111182E+000  0.1798047E+03  0.7546771E-02  0.1167992E+00
         21   -1    0    0  501  502  0.00000000000E+00  0.00000000000E+00  0.66421912861E+02  0.66421912861E+02  0.00000000000E+00 0. -1.
         21   -1    0    0  502  503 -0.00000000000E+00 -0.00000000000E+00 -0.49037603696E+03  0.49037603696E+03  0.00000000000E+00 0. -1.
          6    1    1    2  501    0  0.48807425845E+02  0.43083243391E+01 -0.23597335560E+03  0.29667010471E+03  0.17300000000E+03 0. -1.
         -6    1    1    2    0  503 -0.48807425845E+02 -0.43083243391E+01 -0.18798076850E+03  0.26012784511E+03  0.17300000000E+03 0. -1.
<mgrwt>
<rscale>  2 0.17980469E+03</rscale>
<asrwt>0</asrwt>
<pdfrwt beam="1">  1       21 0.10218756E-01 0.17980469E+03</pdfrwt>
<pdfrwt beam="2">  1       21 0.75442467E-01 0.17980469E+03</pdfrwt>
<totfact> 0.12312641E+05</totfact>
</mgrwt>
</event>
<event>
 4    1  0.4111182E+000  0.2451572E+03  0.7546771E-02  0.1116404E+00
         21   -1    0    0  501  502  0.00000000000E+00  0.00000000000E+00  0.10561587513E+03  0.10561587513E+03  0.00000000000E+00 0. -1.
         21   -1    0    0  502  503 -0.00000000000E+00 -0.00000000000E+00 -0.59363200950E+03  0.59363200950E+03  0.00000000000E+00 0. -1.
          6    1    1    2  501    0 -0.64933618559E+02 -0.16111069474E+03 -0.17287999829E+03  0.29998254047E+03  0.17300000000E+03 0. -1.
         -6    1    1    2    0  503  0.64933618559E+02  0.16111069474E+03 -0.31513613609E+03  0.39926534416E+03  0.17300000000E+03 0. -1.
<mgrwt>
<rscale>  2 0.24515716E+03</rscale>
<asrwt>0</asrwt>
<pdfrwt beam="1">  1       21 0.16248596E-01 0.24515716E+03</pdfrwt>
<pdfrwt beam="2">  1       21 0.91328002E-01 0.24515716E+03</pdfrwt>
<totfact> 0.33515230E+04</totfact>
</mgrwt>
</event>
<event>
 4    1  0.4111182E+000  0.2613315E+03  0.7546771E-02  0.1106346E+00
         21   -1    0    0  501  502  0.00000000000E+00  0.00000000000E+00  0.62477502975E+02  0.62477502975E+02  0.00000000000E+00 0.  1.
         21   -1    0    0  502  503 -0.00000000000E+00 -0.00000000000E+00 -0.11200858468E+04  0.11200858468E+04  0.00000000000E+00 0. -1.
          6    1    1    2  501    0 -0.19167785996E+03  0.40307942041E+02 -0.43702583606E+03  0.50920105418E+03  0.17300000000E+03 0.  1.
         -6    1    1    2    0  503  0.19167785996E+03 -0.40307942041E+02 -0.62058250773E+03  0.67336229557E+03  0.17300000000E+03 0. -1.
<mgrwt>
<rscale>  2 0.26133146E+03</rscale>
<asrwt>0</asrwt>
<pdfrwt beam="1">  1       21 0.96119233E-02 0.26133146E+03</pdfrwt>
<pdfrwt beam="2">  1       21 0.17232090E+00 0.26133146E+03</pdfrwt>
<totfact> 0.17114184E+04</totfact>
</mgrwt>
</event>
<event>
 4    1  0.4111182E+000  0.1765224E+03  0.7546771E-02  0.1171212E+00
         21   -1    0    0  501  502  0.00000000000E+00  0.00000000000E+00  0.93424776026E+02  0.93424776026E+02  0.00000000000E+00 0.  1.
         21   -1    0    0  502  503 -0.00000000000E+00 -0.00000000000E+00 -0.43039133956E+03  0.43039133956E+03  0.00000000000E+00 0.  1.
          6    1    1    2  501    0  0.27677948223E+02  0.21566008976E+02 -0.44235790070E+02  0.18198067668E+03  0.17300000000E+03 0.  1.
         -6    1    1    2    0  503 -0.27677948223E+02 -0.21566008976E+02 -0.29273077347E+03  0.34183543891E+03  0.17300000000E+03 0.  1.
<mgrwt>
<rscale>  2 0.17652241E+03</rscale>
<asrwt>0</asrwt>
<pdfrwt beam="1">  1       21 0.14373042E-01 0.17652241E+03</pdfrwt>
<pdfrwt beam="2">  1       21 0.66214053E-01 0.17652241E+03</pdfrwt>
<totfact> 0.89323742E+04</totfact>
</mgrwt>
</event>
<event>
 4    1  0.4111182E+000  0.2597157E+03  0.7546771E-02  0.1107314E+00
         21   -1    0    0  503  502  0.00000000000E+00  0.00000000000E+00  0.27725813888E+03  0.27725813888E+03  0.00000000000E+00 0.  1.
         21   -1    0    0  501  503 -0.00000000000E+00 -0.00000000000E+00 -0.30307452296E+03  0.30307452296E+03  0.00000000000E+00 0. -1.
          6    1    1    2  501    0 -0.16928827141E+03  0.94152661754E+02 -0.14178994846E+03  0.29589969928E+03  0.17300000000E+03 0. -1.
         -6    1    1    2    0  502  0.16928827141E+03 -0.94152661754E+02  0.11597356438E+03  0.28443296255E+03  0.17300000000E+03 0.  1.
<mgrwt>
<rscale>  2 0.25971570E+03</rscale>
<asrwt>0</asrwt>
<pdfrwt beam="1">  1       21 0.42655098E-01 0.25971570E+03</pdfrwt>
<pdfrwt beam="2">  1       21 0.46626850E-01 0.25971570E+03</pdfrwt>
<totfact> 0.22487302E+04</totfact>
</mgrwt>
</event>
<event>
 4    1  0.4111182E+000  0.2183561E+03  0.7546771E-02  0.1135115E+00
         21   -1    0    0  503  502  0.00000000000E+00  0.00000000000E+00  0.17582936122E+04  0.17582936122E+04  0.00000000000E+00 0.  1.
         21   -1    0    0  501  503 -0.00000000000E+00 -0.00000000000E+00 -0.27284168552E+02  0.27284168552E+02  0.00000000000E+00 0.  1.
          6    1    1    2  501    0  0.10996606873E+03  0.75218600762E+02  0.79558932629E+03  0.82501015162E+03  0.17300000000E+03 0.  1.
         -6    1    1    2    0  502 -0.10996606873E+03 -0.75218600762E+02  0.93542011734E+03  0.96056762911E+03  0.17300000000E+03 0.  1.
<mgrwt>
<rscale>  2 0.21835607E+03</rscale>
<asrwt>0</asrwt>
<pdfrwt beam="1">  1       21 0.27050662E+00 0.21835607E+03</pdfrwt>
<pdfrwt beam="2">  1       21 0.41975658E-02 0.21835607E+03</pdfrwt>
<totfact> 0.17831621E+04</totfact>
</mgrwt>
</event>
<event>
 4    1  0.4111182E+000  0.3177435E+03  0.7546771E-02  0.1076693E+00
         21   -1    0    0  503  502  0.00000000000E+00  0.00000000000E+00  0.89431606997E+02  0.89431606997E+02  0.00000000000E+00 0.  1.
         21   -1    0    0  501  503 -0.00000000000E+00 -0.00000000000E+00 -0.11753087493E+04  0.11753087493E+04  0.00000000000E+00 0.  1.
          6    1    1    2  501    0  0.14769880084E+03  0.22184906175E+03 -0.41730330683E+03  0.52450261378E+03  0.17300000000E+03 0.  1.
         -6    1    1    2    0  502 -0.14769880084E+03 -0.22184906175E+03 -0.66857383547E+03  0.74023774252E+03  0.17300000000E+03 0.  1.
<mgrwt>
<rscale>  2 0.31774352E+03</rscale>
<asrwt>0</asrwt>
<pdfrwt beam="1">  1       21 0.13758710E-01 0.31774352E+03</pdfrwt>
<pdfrwt beam="2">  1       21 0.18081672E+00 0.31774352E+03</pdfrwt>
<totfact> 0.75915358E+03</totfact>
</mgrwt>
</event>
<event>
 4    1  0.4111182E+000  0.2291987E+03  0.7546771E-02  0.1127205E+00
         21   -1    0    0  503  502  0.00000000000E+00  0.00000000000E+00  0.88221790418E+02  0.88221790418E+02  0.00000000000E+00 0. -1.
         21   -1    0    0  501  503 -0.00000000000E+00 -0.00000000000E+00 -0.68344962400E+03  0.68344962400E+03  0.00000000000E+00 0. -1.
          6    1    1    2  501    0 -0.15023480855E+03  0.57038344324E+01 -0.43605956991E+03  0.49262559813E+03  0.17300000000E+03 0. -1.
         -6    1    1    2    0  502  0.15023480855E+03 -0.57038344324E+01 -0.15916826367E+03  0.27904581629E+03  0.17300000000E+03 0. -1.
<mgrwt>
<rscale>  2 0.22919867E+03</rscale>
<asrwt>0</asrwt>
<pdfrwt beam="1">  1       21 0.13572584E-01 0.22919867E+03</pdfrwt>
<pdfrwt beam="2">  1       21 0.10514609E+00 0.22919867E+03</pdfrwt>
<totfact> 0.33579468E+04</totfact>
</mgrwt>
</event>
<event>
 4    1  0.4111182E+000  0.1973829E+03  0.7546771E-02  0.1151966E+00
         21   -1    0    0  501  502  0.00000000000E+00  0.00000000000E+00  0.23619585796E+03  0.23619585796E+03  0.00000000000E+00 0.  1.
         21   -1    0    0  502  503 -0.00000000000E+00 -0.00000000000E+00 -0.17430241887E+03  0.17430241887E+03  0.00000000000E+00 0.  1.
          6    1    1    2  501    0  0.78459303914E+02  0.53620336605E+02  0.78495692301E+02  0.21241839981E+03  0.17300000000E+03 0.  1.
         -6    1    1    2    0  503 -0.78459303914E+02 -0.53620336605E+02 -0.16602253218E+02  0.19807987702E+03  0.17300000000E+03 0.  1.
<mgrwt>
<rscale>  2 0.19738288E+03</rscale>
<asrwt>0</asrwt>
<pdfrwt beam="1">  1       21 0.36337825E-01 0.19738288E+03</pdfrwt>
<pdfrwt beam="2">  1       21 0.26815757E-01 0.19738288E+03</pdfrwt>
<totfact> 0.96533207E+04</totfact>
</mgrwt>
</event>
<event>
 4    1  0.4111182E+000  0.2162890E+03  0.7546771E-02  0.1136680E+00
         21   -1    0    0  501  502  0.00000000000E+00  0.00000000000E+00  0.66539850478E+03  0.66539850478E+03  0.00000000000E+00 0. -1.
         21   -1    0    0  502  503 -0.00000000000E+00 -0.00000000000E+00 -0.73443240116E+02  0.73443240116E+02  0.00000000000E+00 0. -1.
          6    1    1    2  501    0  0.10017280833E+03 -0.82567160877E+02  0.37234005311E+03  0.43060195394E+03  0.17300000000E+03 0. -1.
         -6    1    1    2    0  503 -0.10017280833E+03  0.82567160877E+02  0.21961521155E+03  0.30823979096E+03  0.17300000000E+03 0. -1.
<mgrwt>
<rscale>  2 0.21628899E+03</rscale>
<asrwt>0</asrwt>
<pdfrwt beam="1">  1       21 0.10236900E+00 0.21628899E+03</pdfrwt>
<pdfrwt beam="2">  1       21 0.11298960E-01 0.21628899E+03</pdfrwt>
<totfact> 0.50129002E+04</totfact>
</mgrwt>
</event>
<event>
 4    1  0.4111182E+000  0.2219931E+03  0.7546771E-02  0.1132406E+00
         21   -1    0    0  503  502  0.00000000000E+00  0.00000000000E+00  0.11550862255E+03  0.11550862255E+03  0.00000000000E+00 0.  1.
         21   -1    0    0  501  503 -0.00000000000E+00 -0.00000000000E+00 -0.52161509583E+03  0.52161509583E+03  0.00000000000E+00 0.  1.
          6    1    1    2  501    0 -0.11505132719E+03  0.78199202786E+02 -0.33898381006E+03  0.40520482066E+03  0.17300000000E+03 0.  1.
         -6    1    1    2    0  502  0.11505132719E+03 -0.78199202786E+02 -0.67122663222E+02  0.23191889772E+03  0.17300000000E+03 0.  1.
<mgrwt>
<rscale>  2 0.22199307E+03</rscale>
<asrwt>0</asrwt>
<pdfrwt beam="1">  1       21 0.17770558E-01 0.22199307E+03</pdfrwt>
<pdfrwt beam="2">  1       21 0.80248475E-01 0.22199307E+03</pdfrwt>
<totfact> 0.38678073E+04</totfact>
</mgrwt>
</event>
<event>
 4    1  0.4111182E+000  0.1925510E+03  0.7546771E-02  0.1156180E+00
         21   -1    0    0  503  502  0.00000000000E+00  0.00000000000E+00  0.84732472222E+02  0.84732472222E+02  0.00000000000E+00 0.  1.
         21   -1    0    0  501  503 -0.00000000000E+00 -0.00000000000E+00 -0.92961352983E+03  0.92961352983E+03  0.00000000000E+00 0.  1.
          6    1    1    2  501    0 -0.10262633006E+02 -0.83914030732E+02 -0.79142601499E+03  0.81451275214E+03  0.17300000000E+03 0.  1.
         -6    1    1    2    0  502  0.10262633006E+02  0.83914030732E+02 -0.53455042616E+02  0.19983324991E+03  0.17300000000E+03 0.  1.
<mgrwt>
<rscale>  2 0.19255100E+03</rscale>
<asrwt>0</asrwt>
<pdfrwt beam="1">  1       21 0.13035766E-01 0.19255100E+03</pdfrwt>
<pdfrwt beam="2">  1       21 0.14301746E+00 0.19255100E+03</pdfrwt>
<totfact> 0.17127877E+04</totfact>
</mgrwt>
</event>
<event>
 4    1  0.4111182E+000  0.2270768E+03  0.7546771E-02  0.1128714E+00
         21   -1    0    0  501  502  0.00000000000E+00  0.00000000000E+00  0.16776975842E+03  0.16776975842E+03  0.00000000000E+00 0.  1.
         21   -1    0    0  502  503 -0.00000000000E+00 -0.00000000000E+00 -0.33848384408E+03  0.33848384408E+03  0.00000000000E+00 0.  1.
          6    1    1    2  501    0 -0.87752303799E+02 -0.11804411786E+03 -0.85869683968E+01  0.22723911769E+03  0.17300000000E+03 0.  1.
         -6    1    1    2    0  503  0.87752303799E+02  0.11804411786E+03 -0.16212711726E+03  0.27901448481E+03  0.17300000000E+03 0.  1.
<mgrwt>
<rscale>  2 0.22707682E+03</rscale>
<asrwt>0</asrwt>
<pdfrwt beam="1">  1       21 0.25810732E-01 0.22707682E+03</pdfrwt>
<pdfrwt beam="2">  1       21 0.52074438E-01 0.22707682E+03</pdfrwt>
<totfact> 0.49072278E+04</totfact>
</mgrwt>
</event>
<event>
 4    1  0.4111182E+000  0.1889962E+03  0.7546771E-02  0.1159370E+00
         21   -1    0    0  503  502  0.00000000000E+00  0.00000000000E+00  0.17418158769E+03  0.17418158769E+03  0.00000000000E+00 0. -1.
         21   -1    0    0  501  503 -0.00000000000E+00 -0.00000000000E+00 -0.34112913471E+03  0.34112913471E+03  0.00000000000E+00 0. -1.
          6    1    1    2  501    0 -0.45438880802E+02  0.61039901449E+02 -0.24619429102E+03  0.31037266372E+03  0.17300000000E+03 0. -1.
         -6    1    1    2    0  502  0.45438880802E+02 -0.61039901449E+02  0.79246743995E+02  0.20493805867E+03  0.17300000000E+03 0. -1.
<mgrwt>
<rscale>  2 0.18899619E+03</rscale>
<asrwt>0</asrwt>
<pdfrwt beam="1">  1       21 0.26797167E-01 0.18899619E+03</pdfrwt>
<pdfrwt beam="2">  1       21 0.52481405E-01 0.18899619E+03</pdfrwt>
<totfact> 0.45737724E+04</totfact>
</mgrwt>
</event>
<event>
 4    1  0.4111182E+000  0.1784811E+03  0.7546771E-02  0.1169281E+00
         21   -1    0    0  501  502  0.00000000000E+00  0.00000000000E+00  0.24639975997E+03  0.24639975997E+03  0.00000000000E+00 0.  1.
         21   -1    0    0  502  503 -0.00000000000E+00 -0.00000000000E+00 -0.15535566908E+03  0.15535566908E+03  0.00000000000E+00 0.  1.
          6    1    1    2  501    0 -0.43721446042E+02  0.38668328015E+01  0.12781328698E+03  0.21952620247E+03  0.17300000000E+03 0.  1.
         -6    1    1    2    0  503  0.43721446042E+02 -0.38668328015E+01 -0.36769196096E+02  0.18222922658E+03  0.17300000000E+03 0.  1.
<mgrwt>
<rscale>  2 0.17848114E+03</rscale>
<asrwt>0</asrwt>
<pdfrwt beam="1">  1       21 0.37907655E-01 0.17848114E+03</pdfrwt>
<pdfrwt beam="2">  1       21 0.23900872E-01 0.17848114E+03</pdfrwt>
<totfact> 0.11131318E+05</totfact>
</mgrwt>
</event>
<event>
 4    1  0.4111182E+000  0.1870743E+03  0.7546771E-02  0.1161127E+00
         21   -1    0    0  503  502  0.00000000000E+00  0.00000000000E+00  0.77779885658E+02  0.77779885658E+02  0.00000000000E+00 0. -1.
         21   -1    0    0  501  503 -0.00000000000E+00 -0.00000000000E+00 -0.46837072711E+03  0.46837072711E+03  0.00000000000E+00 0. -1.
          6    1    1    2  501    0  0.99390611590E+01 -0.70491151305E+02 -0.24945586182E+03  0.31180925956E+03  0.17300000000E+03 0. -1.
         -6    1    1    2    0  502 -0.99390611590E+01  0.70491151305E+02 -0.14113497963E+03  0.23434135321E+03  0.17300000000E+03 0. -1.
<mgrwt>
<rscale>  2 0.18707428E+03</rscale>
<asrwt>0</asrwt>
<pdfrwt beam="1">  1       21 0.11966136E-01 0.18707428E+03</pdfrwt>
<pdfrwt beam="2">  1       21 0.72057034E-01 0.18707428E+03</pdfrwt>
<totfact> 0.10272618E+05</totfact>
</mgrwt>
</event>
<event>
 4    1  0.4111182E+000  0.2005249E+03  0.7546771E-02  0.1149297E+00
         21   -1    0    0  503  502  0.00000000000E+00  0.00000000000E+00  0.20269531304E+03  0.20269531304E+03  0.00000000000E+00 0. -1.
         21   -1    0    0  501  503 -0.00000000000E+00 -0.00000000000E+00 -0.21041232261E+03  0.21041232261E+03  0.00000000000E+00 0.  1.
          6    1    1    2  501    0 -0.48685735785E+02  0.88943492268E+02 -0.53256859375E+02  0.20747659809E+03  0.17300000000E+03 0.  1.
         -6    1    1    2    0  502  0.48685735785E+02 -0.88943492268E+02  0.45539849812E+02  0.20563103756E+03  0.17300000000E+03 0.  1.
<mgrwt>
<rscale>  2 0.20052493E+03</rscale>
<asrwt>0</asrwt>
<pdfrwt beam="1">  1       21 0.31183894E-01 0.20052493E+03</pdfrwt>
<pdfrwt beam="2">  1       21 0.32371127E-01 0.20052493E+03</pdfrwt>
<totfact> 0.90423630E+04</totfact>
</mgrwt>
</event>
<event>
 4    1  0.4111182E+000  0.2096097E+03  0.7546771E-02  0.1141875E+00
         21   -1    0    0  501  502  0.00000000000E+00  0.00000000000E+00  0.23360943514E+03  0.23360943514E+03  0.00000000000E+00 0. -1.
         21   -1    0    0  502  503 -0.00000000000E+00 -0.00000000000E+00 -0.27775087710E+03  0.27775087710E+03  0.00000000000E+00 0. -1.
          6    1    1    2  501    0 -0.30470997088E+02  0.11436225861E+03  0.12320931710E+03  0.24313935033E+03  0.17300000000E+03 0. -1.
         -6    1    1    2    0  503  0.30470997088E+02 -0.11436225861E+03 -0.16735075906E+03  0.26822096192E+03  0.17300000000E+03 0. -1.
<mgrwt>
<rscale>  2 0.20960966E+03</rscale>
<asrwt>0</asrwt>
<pdfrwt beam="1">  1       21 0.35939913E-01 0.20960966E+03</pdfrwt>
<pdfrwt beam="2">  1       21 0.42730904E-01 0.20960966E+03</pdfrwt>
<totfact> 0.38986576E+04</totfact>
</mgrwt>
</event>
<event>
 4    1  0.4111182E+000  0.1842447E+03  0.7546771E-02  0.1163757E+00
         21   -1    0    0  501  502  0.00000000000E+00  0.00000000000E+00  0.40794548124E+03  0.40794548124E+03  0.00000000000E+00 0.  1.
         21   -1    0    0  502  503 -0.00000000000E+00 -0.00000000000E+00 -0.10529718980E+04  0.10529718980E+04  0.00000000000E+00 0.  1.
          6    1    1    2  501    0 -0.83617897633E+01 -0.62826811092E+02  0.37848884091E+03  0.42095122095E+03  0.17300000000E+03 0.  1.
         -6    1    1    2    0  503  0.83617897633E+01  0.62826811092E+02 -0.10235152577E+04  0.10399661583E+04  0.17300000000E+03 0.  1.
<mgrwt>
<rscale>  2 0.18424475E+03</rscale>
<asrwt>0</asrwt>
<pdfrwt beam="1">  1       21 0.62760844E-01 0.18424475E+03</pdfrwt>
<pdfrwt beam="2">  1       21 0.16199567E+00 0.18424475E+03</pdfrwt>
<totfact> 0.57805534E+02</totfact>
</mgrwt>
</event>
<event>
 4    1  0.4111182E+000  0.2034853E+03  0.7546771E-02  0.1146831E+00
         21   -1    0    0  503  502  0.00000000000E+00  0.00000000000E+00  0.31366186315E+02  0.31366186315E+02  0.00000000000E+00 0. -1.
         21   -1    0    0  501  503 -0.00000000000E+00 -0.00000000000E+00 -0.13496276418E+04  0.13496276418E+04  0.00000000000E+00 0. -1.
          6    1    1    2  501    0 -0.40765667441E+02 -0.99072843105E+02 -0.76127738412E+03  0.78800350473E+03  0.17300000000E+03 0. -1.
         -6    1    1    2    0  502  0.40765667441E+02  0.99072843105E+02 -0.55698407137E+03  0.59299032340E+03  0.17300000000E+03 0. -1.
<mgrwt>
<rscale>  2 0.20348530E+03</rscale>
<asrwt>0</asrwt>
<pdfrwt beam="1">  1       21 0.48255667E-02 0.20348530E+03</pdfrwt>
<pdfrwt beam="2">  1       21 0.20763504E+00 0.20348530E+03</pdfrwt>
<totfact> 0.34038203E+04</totfact>
</mgrwt>
</event>
<event>
 4    1  0.4111182E+000  0.1784626E+03  0.7546771E-02  0.1169299E+00
         21   -1    0    0  503  502  0.00000000000E+00  0.00000000000E+00  0.72668468045E+03  0.72668468045E+03  0.00000000000E+00 0. -1.
         21   -1    0    0  501  503 -0.00000000000E+00 -0.00000000000E+00 -0.67501781473E+02  0.67501781473E+02  0.00000000000E+00 0. -1.
          6    1    1    2  501    0  0.41570957332E+02 -0.13847216870E+02  0.94426933136E+02  0.20190427338E+03  0.17300000000E+03 0. -1.
         -6    1    1    2    0  502 -0.41570957332E+02  0.13847216870E+02  0.56475596584E+03  0.59228218854E+03  0.17300000000E+03 0. -1.
<mgrwt>
<rscale>  2 0.17846257E+03</rscale>
<asrwt>0</asrwt>
<pdfrwt beam="1">  1       21 0.11179764E+00 0.17846257E+03</pdfrwt>
<pdfrwt beam="2">  1       21 0.10384890E-01 0.17846257E+03</pdfrwt>
<totfact> 0.48013543E+04</totfact>
</mgrwt>
</event>
<event>
 4    1  0.4111182E+000  0.2130284E+03  0.7546771E-02  0.1139190E+00
         21   -1    0    0  501  502  0.00000000000E+00  0.00000000000E+00  0.13391555811E+03  0.13391555811E+03  0.00000000000E+00 0. -1.
         21   -1    0    0  502  503 -0.00000000000E+00 -0.00000000000E+00 -0.50064306218E+03  0.50064306218E+03  0.00000000000E+00 0. -1.
          6    1    1    2  501    0  0.11711717148E+03 -0.41661111003E+02 -0.30123263829E+01  0.21304965181E+03  0.17300000000E+03 0. -1.
         -6    1    1    2    0  503 -0.11711717148E+03  0.41661111003E+02 -0.36371517769E+03  0.42150896848E+03  0.17300000000E+03 0. -1.
<mgrwt>
<rscale>  2 0.21302835E+03</rscale>
<asrwt>0</asrwt>
<pdfrwt beam="1">  1       21 0.20602394E-01 0.21302835E+03</pdfrwt>
<pdfrwt beam="2">  1       21 0.77022008E-01 0.21302835E+03</pdfrwt>
<totfact> 0.32353037E+04</totfact>
</mgrwt>
</event>
<event>
 4    1  0.4111182E+000  0.2027544E+03  0.7546771E-02  0.1147436E+00
         21   -1    0    0  503  502  0.00000000000E+00  0.00000000000E+00  0.11892334365E+04  0.11892334365E+04  0.00000000000E+00 0.  1.
         21   -1    0    0  501  503 -0.00000000000E+00 -0.00000000000E+00 -0.75707168047E+02  0.75707168047E+02  0.00000000000E+00 0. -1.
          6    1    1    2  501    0  0.58227779566E+02  0.88260254953E+02  0.90533665165E+02  0.22204884923E+03  0.17300000000E+03 0. -1.
         -6    1    1    2    0  502 -0.58227779566E+02 -0.88260254953E+02  0.10229926032E+04  0.10428917553E+04  0.17300000000E+03 0.  1.
<mgrwt>
<rscale>  2 0.20275440E+03</rscale>
<asrwt>0</asrwt>
<pdfrwt beam="1">  1       21 0.18295898E+00 0.20275440E+03</pdfrwt>
<pdfrwt beam="2">  1       21 0.11647257E-01 0.20275440E+03</pdfrwt>
<totfact> 0.10668409E+04</totfact>
</mgrwt>
</event>
<event>
 4    1  0.4111182E+000  0.2211212E+03  0.7546771E-02  0.1133050E+00
         21   -1    0    0  503  502  0.00000000000E+00  0.00000000000E+00  0.15445154383E+04  0.15445154383E+04  0.00000000000E+00 0.  1.
         21   -1    0    0  501  503 -0.00000000000E+00 -0.00000000000E+00 -0.31734523081E+02  0.31734523081E+02  0.00000000000E+00 0. -1.
          6    1    1    2  501    0  0.92631665680E+02  0.10190661056E+03  0.79536695749E+03  0.82553205863E+03  0.17300000000E+03 0. -1.
         -6    1    1    2    0  502 -0.92631665680E+02 -0.10190661056E+03  0.71741395771E+03  0.75071790273E+03  0.17300000000E+03 0. -1.
<mgrwt>
<rscale>  2 0.22112119E+03</rscale>
<asrwt>0</asrwt>
<pdfrwt beam="1">  1       21 0.23761770E+00 0.22112119E+03</pdfrwt>
<pdfrwt beam="2">  1       21 0.48822355E-02 0.22112119E+03</pdfrwt>
<totfact> 0.21550546E+04</totfact>
</mgrwt>
</event>
<event>
 4    1  0.4111182E+000  0.3774668E+03  0.7546771E-02  0.1051874E+00
         21   -1    0    0  503  502  0.00000000000E+00  0.00000000000E+00  0.65942816229E+03  0.65942816229E+03  0.00000000000E+00 0. -1.
         21   -1    0    0  501  503 -0.00000000000E+00 -0.00000000000E+00 -0.25514432075E+03  0.25514432075E+03  0.00000000000E+00 0.  1.
          6    1    1    2  501    0 -0.14489581820E+03  0.30258449125E+03  0.23183024283E+02  0.37817803360E+03  0.17300000000E+03 0.  1.
         -6    1    1    2    0  502  0.14489581820E+03 -0.30258449125E+03  0.38110081725E+03  0.53639444944E+03  0.17300000000E+03 0. -1.
<mgrwt>
<rscale>  2 0.37746678E+03</rscale>
<asrwt>0</asrwt>
<pdfrwt beam="1">  1       21 0.10145049E+00 0.37746678E+03</pdfrwt>
<pdfrwt beam="2">  1       21 0.39252973E-01 0.37746678E+03</pdfrwt>
<totfact> 0.44658312E+03</totfact>
</mgrwt>
</event>
<event>
 4    1  0.4111182E+000  0.2623632E+03  0.7546771E-02  0.1105732E+00
         21   -1    0    0  503  502  0.00000000000E+00  0.00000000000E+00  0.83377812479E+03  0.83377812479E+03  0.00000000000E+00 0. -1.
         21   -1    0    0  501  503 -0.00000000000E+00 -0.00000000000E+00 -0.23900262973E+03  0.23900262973E+03  0.00000000000E+00 0.  1.
          6    1    1    2  501    0 -0.90031909432E+02  0.17549837430E+03 -0.13658356090E+03  0.29578622890E+03  0.17300000000E+03 0.  1.
         -6    1    1    2    0  502  0.90031909432E+02 -0.17549837430E+03  0.73135905597E+03  0.77699452562E+03  0.17300000000E+03 0. -1.
<mgrwt>
<rscale>  2 0.26236315E+03</rscale>
<asrwt>0</asrwt>
<pdfrwt beam="1">  1       21 0.12827356E+00 0.26236315E+03</pdfrwt>
<pdfrwt beam="2">  1       21 0.36769636E-01 0.26236315E+03</pdfrwt>
<totfact> 0.30228295E+03</totfact>
</mgrwt>
</event>
<event>
 4    1  0.4111182E+000  0.1735288E+03  0.7546771E-02  0.1174217E+00
         21   -1    0    0  503  502  0.00000000000E+00  0.00000000000E+00  0.38536906139E+03  0.38536906139E+03  0.00000000000E+00 0.  1.
         21   -1    0    0  501  503 -0.00000000000E+00 -0.00000000000E+00 -0.24424027298E+03  0.24424027298E+03  0.00000000000E+00 0.  1.
          6    1    1    2  501    0 -0.13142386794E+01 -0.13473256956E+02 -0.18904436070E+03  0.25661259943E+03  0.17300000000E+03 0.  1.
         -6    1    1    2    0  502  0.13142386794E+01  0.13473256956E+02  0.33017314911E+03  0.37299673493E+03  0.17300000000E+03 0.  1.
<mgrwt>
<rscale>  2 0.17352883E+03</rscale>
<asrwt>0</asrwt>
<pdfrwt beam="1">  1       21 0.59287548E-01 0.17352883E+03</pdfrwt>
<pdfrwt beam="2">  1       21 0.37575427E-01 0.17352883E+03</pdfrwt>
<totfact> 0.18375099E+04</totfact>
</mgrwt>
</event>
<event>
 4    1  0.4111182E+000  0.1730291E+03  0.7546771E-02  0.1174725E+00
         21   -1    0    0  501  502  0.00000000000E+00  0.00000000000E+00  0.96659682780E+02  0.96659682780E+02  0.00000000000E+00 0.  1.
         21   -1    0    0  502  503 -0.00000000000E+00 -0.00000000000E+00 -0.53469323133E+03  0.53469323133E+03  0.00000000000E+00 0.  1.
          6    1    1    2  501    0 -0.97035084804E+00 -0.30229857743E+01 -0.14259723401E+02  0.17361572433E+03  0.17300000000E+03 0.  1.
         -6    1    1    2    0  503  0.97035084804E+00  0.30229857743E+01 -0.42377382514E+03  0.45773718977E+03  0.17300000000E+03 0.  1.
<mgrwt>
<rscale>  2 0.17302913E+03</rscale>
<asrwt>0</asrwt>
<pdfrwt beam="1">  1       21 0.14870721E-01 0.17302913E+03</pdfrwt>
<pdfrwt beam="2">  1       21 0.82260496E-01 0.17302913E+03</pdfrwt>
<totfact> 0.51950383E+04</totfact>
</mgrwt>
</event>
<event>
 4    1  0.4111182E+000  0.1816357E+03  0.7546771E-02  0.1166229E+00
         21   -1    0    0  503  502  0.00000000000E+00  0.00000000000E+00  0.76276555304E+03  0.76276555304E+03  0.00000000000E+00 0. -1.
         21   -1    0    0  501  503 -0.00000000000E+00 -0.00000000000E+00 -0.71315558061E+02  0.71315558061E+02  0.00000000000E+00 0. -1.
          6    1    1    2  501    0 -0.54980736943E+02 -0.62951420830E+01  0.84115374655E+02  0.20016719637E+03  0.17300000000E+03 0. -1.
         -6    1    1    2    0  502  0.54980736943E+02  0.62951420830E+01  0.60733462033E+03  0.63391391474E+03  0.17300000000E+03 0. -1.
<mgrwt>
<rscale>  2 0.18163565E+03</rscale>
<asrwt>0</asrwt>
<pdfrwt beam="1">  1       21 0.11734854E+00 0.18163565E+03</pdfrwt>
<pdfrwt beam="2">  1       21 0.10971625E-01 0.18163565E+03</pdfrwt>
<totfact> 0.38651272E+04</totfact>
</mgrwt>
</event>
<event>
 4    1  0.4111182E+000  0.2365034E+03  0.7546771E-02  0.1122144E+00
         21   -1    0    0  501  502  0.00000000000E+00  0.00000000000E+00  0.58128728060E+03  0.58128728060E+03  0.00000000000E+00 0. -1.
         21   -1    0    0  502  503 -0.00000000000E+00 -0.00000000000E+00 -0.98458809151E+02  0.98458809151E+02  0.00000000000E+00 0.  1.
          6    1    1    2  501    0 -0.14613434564E+03  0.68188172375E+02  0.29261720984E+03  0.37624288076E+03  0.17300000000E+03 0. -1.
         -6    1    1    2    0  503  0.14613434564E+03 -0.68188172375E+02  0.19021126162E+03  0.30350320900E+03  0.17300000000E+03 0. -1.
<mgrwt>
<rscale>  2 0.23650343E+03</rscale>
<asrwt>0</asrwt>
<pdfrwt beam="1">  1       21 0.89428810E-01 0.23650343E+03</pdfrwt>
<pdfrwt beam="2">  1       21 0.15147509E-01 0.23650343E+03</pdfrwt>
<totfact> 0.40197441E+04</totfact>
</mgrwt>
</event>
<event>
 4    1  0.4111182E+000  0.2989879E+03  0.7546771E-02  0.1085748E+00
         21   -1    0    0  501  502  0.00000000000E+00  0.00000000000E+00  0.56498783318E+03  0.56498783318E+03  0.00000000000E+00 0.  1.
         21   -1    0    0  502  503 -0.00000000000E+00 -0.00000000000E+00 -0.15984825613E+03  0.15984825613E+03  0.00000000000E+00 0.  1.
          6    1    1    2  501    0 -0.20838710686E+03  0.12664737799E+03  0.23912031808E+03  0.38284758218E+03  0.17300000000E+03 0.  1.
         -6    1    1    2    0  503  0.20838710686E+03 -0.12664737799E+03  0.16601925897E+03  0.34198850713E+03  0.17300000000E+03 0.  1.
<mgrwt>
<rscale>  2 0.29898787E+03</rscale>
<asrwt>0</asrwt>
<pdfrwt beam="1">  1       21 0.86921204E-01 0.29898787E+03</pdfrwt>
<pdfrwt beam="2">  1       21 0.24592040E-01 0.29898787E+03</pdfrwt>
<totfact> 0.16835201E+04</totfact>
</mgrwt>
</event>
<event>
 4    1  0.4111182E+000  0.2061888E+03  0.7546771E-02  0.1144620E+00
         21   -1    0    0  501  502  0.00000000000E+00  0.00000000000E+00  0.21270782999E+04  0.21270782999E+04  0.00000000000E+00 0. -1.
         21   -1    0    0  502  503 -0.00000000000E+00 -0.00000000000E+00 -0.88427995537E+02  0.88427995537E+02  0.00000000000E+00 0. -1.
          6    1    1    2  501    0  0.92564378029E+02 -0.63376983370E+02  0.19938803058E+04  0.20045130281E+04  0.17300000000E+03 0. -1.
         -6    1    1    2    0  503 -0.92564378029E+02  0.63376983370E+02  0.44769998638E+02  0.21099326738E+03  0.17300000000E+03 0. -1.
<mgrwt>
<rscale>  2 0.20618876E+03</rscale>
<asrwt>0</asrwt>
<pdfrwt beam="1">  1       21 0.32724278E+00 0.20618876E+03</pdfrwt>
<pdfrwt beam="2">  1       21 0.13604309E-01 0.20618876E+03</pdfrwt>
<totfact> 0.10924864E+03</totfact>
</mgrwt>
</event>
<event>
 4    1  0.4111182E+000  0.2434148E+03  0.7546771E-02  0.1117539E+00
         21   -1    0    0  501  502  0.00000000000E+00  0.00000000000E+00  0.41252529974E+03  0.41252529974E+03  0.00000000000E+00 0.  1.
         21   -1    0    0  502  503 -0.00000000000E+00 -0.00000000000E+00 -0.15221788671E+03  0.15221788671E+03  0.00000000000E+00 0. -1.
          6    1    1    2  501    0  0.11867826328E+03  0.12343911593E+03  0.19722666314E+03  0.31328757104E+03  0.17300000000E+03 0. -1.
         -6    1    1    2    0  503 -0.11867826328E+03 -0.12343911593E+03  0.63080749881E+02  0.25145561541E+03  0.17300000000E+03 0.  1.
<mgrwt>
<rscale>  2 0.24341476E+03</rscale>
<asrwt>0</asrwt>
<pdfrwt beam="1">  1       21 0.63465430E-01 0.24341476E+03</pdfrwt>
<pdfrwt beam="2">  1       21 0.23418137E-01 0.24341476E+03</pdfrwt>
<totfact> 0.38421064E+04</totfact>
</mgrwt>
</event>
<event>
 4    1  0.4111182E+000  0.1763306E+03  0.7546771E-02  0.1171402E+00
         21   -1    0    0  501  502  0.00000000000E+00  0.00000000000E+00  0.33946369831E+03  0.33946369831E+03  0.00000000000E+00 0.  1.
         21   -1    0    0  502  503 -0.00000000000E+00 -0.00000000000E+00 -0.13174158675E+03  0.13174158675E+03  0.00000000000E+00 0.  1.
          6    1    1    2  501    0  0.12249157599E+02  0.31834331446E+02  0.23392423133E+03  0.29293858149E+03  0.17300000000E+03 0.  1.
         -6    1    1    2    0  503 -0.12249157599E+02 -0.31834331446E+02 -0.26202119774E+02  0.17826670357E+03  0.17300000000E+03 0.  1.
<mgrwt>
<rscale>  2 0.17633056E+03</rscale>
<asrwt>0</asrwt>
<pdfrwt beam="1">  1       21 0.52225184E-01 0.17633056E+03</pdfrwt>
<pdfrwt beam="2">  1       21 0.20267937E-01 0.17633056E+03</pdfrwt>
<totfact> 0.78857221E+04</totfact>
</mgrwt>
</event>
<event>
 4    1  0.4111182E+000  0.1734639E+03  0.7546771E-02  0.1174283E+00
         21   -1    0    0  503  502  0.00000000000E+00  0.00000000000E+00  0.15354067293E+03  0.15354067293E+03  0.00000000000E+00 0. -1.
         21   -1    0    0  501  503 -0.00000000000E+00 -0.00000000000E+00 -0.21471656294E+03  0.21471656294E+03  0.00000000000E+00 0. -1.
          6    1    1    2  501    0 -0.11417392530E+02 -0.55121601144E+01 -0.84990719409E+02  0.19316615425E+03  0.17300000000E+03 0. -1.
         -6    1    1    2    0  502  0.11417392530E+02  0.55121601144E+01  0.23814829399E+02  0.17509108161E+03  0.17300000000E+03 0. -1.
<mgrwt>
<rscale>  2 0.17346395E+03</rscale>
<asrwt>0</asrwt>
<pdfrwt beam="1">  1       21 0.23621642E-01 0.17346395E+03</pdfrwt>
<pdfrwt beam="2">  1       21 0.33033318E-01 0.17346395E+03</pdfrwt>
<totfact> 0.14980738E+05</totfact>
</mgrwt>
</event>
<event>
 4    1  0.4111182E+000  0.1979084E+03  0.7546771E-02  0.1151516E+00
         21   -1    0    0  501  502  0.00000000000E+00  0.00000000000E+00  0.77996011816E+03  0.77996011816E+03  0.00000000000E+00 0.  1.
         21   -1    0    0  502  503 -0.00000000000E+00 -0.00000000000E+00 -0.89616805054E+02  0.89616805054E+02  0.00000000000E+00 0. -1.
          6    1    1    2  501    0  0.94487818189E+02 -0.17628981537E+02  0.63345993619E+03  0.66365594967E+03  0.17300000000E+03 0.  1.
         -6    1    1    2    0  503 -0.94487818189E+02  0.17628981537E+02  0.56883376918E+02  0.20592097355E+03  0.17300000000E+03 0. -1.
<mgrwt>
<rscale>  2 0.19790838E+03</rscale>
<asrwt>0</asrwt>
<pdfrwt beam="1">  1       21 0.11999386E+00 0.19790838E+03</pdfrwt>
<pdfrwt beam="2">  1       21 0.13787201E-01 0.19790838E+03</pdfrwt>
<totfact> 0.24066421E+04</totfact>
</mgrwt>
</event>
<event>
 4    1  0.4111182E+000  0.1855834E+03  0.7546771E-02  0.1162506E+00
         21   -1    0    0  503  502  0.00000000000E+00  0.00000000000E+00  0.23110654449E+03  0.23110654449E+03  0.00000000000E+00 0. -1.
         21   -1    0    0  501  503 -0.00000000000E+00 -0.00000000000E+00 -0.22471920851E+03  0.22471920851E+03  0.00000000000E+00 0.  1.
          6    1    1    2  501    0 -0.53588020341E+02 -0.40503349672E+02 -0.12907998013E+03  0.22605936948E+03  0.17300000000E+03 0.  1.
         -6    1    1    2    0  502  0.53588020341E+02  0.40503349672E+02  0.13546731611E+03  0.22976638351E+03  0.17300000000E+03 0. -1.
<mgrwt>
<rscale>  2 0.18558340E+03</rscale>
<asrwt>0</asrwt>
<pdfrwt beam="1">  1       21 0.35554853E-01 0.18558340E+03</pdfrwt>
<pdfrwt beam="2">  1       21 0.34572186E-01 0.18558340E+03</pdfrwt>
<totfact> 0.61695018E+04</totfact>
</mgrwt>
</event>
<event>
 4    1  0.4111182E+000  0.2682279E+03  0.7546771E-02  0.1102298E+00
         21   -1    0    0  503  502  0.00000000000E+00  0.00000000000E+00  0.27107237653E+03  0.27107237653E+03  0.00000000000E+00 0.  1.
         21   -1    0    0  501  503 -0.00000000000E+00 -0.00000000000E+00 -0.30230323180E+03  0.30230323180E+03  0.00000000000E+00 0. -1.
          6    1    1    2  501    0 -0.18146647121E+03  0.95326320476E+02 -0.11576343755E+03  0.29214270660E+03  0.17300000000E+03 0. -1.
         -6    1    1    2    0  502  0.18146647121E+03 -0.95326320476E+02  0.84532582281E+02  0.28123290173E+03  0.17300000000E+03 0.  1.
<mgrwt>
<rscale>  2 0.26822786E+03</rscale>
<asrwt>0</asrwt>
<pdfrwt beam="1">  1       21 0.41703443E-01 0.26822786E+03</pdfrwt>
<pdfrwt beam="2">  1       21 0.46508189E-01 0.26822786E+03</pdfrwt>
<totfact> 0.23588525E+04</totfact>
</mgrwt>
</event>
<event>
 4    1  0.4111182E+000  0.4917925E+03  0.7546771E-02  0.1015944E+00
         21   -1    0    0  501  502  0.00000000000E+00  0.00000000000E+00  0.82348540006E+03  0.82348540006E+03  0.00000000000E+00 0.  1.
         21   -1    0    0  502  503 -0.00000000000E+00 -0.00000000000E+00 -0.40261925243E+03  0.40261925243E+03  0.00000000000E+00 0. -1.
          6    1    1    2  501    0  0.43231880818E+03 -0.15821289702E+03  0.52929102371E+03  0.72250180655E+03  0.17300000000E+03 0.  1.
         -6    1    1    2    0  503 -0.43231880818E+03  0.15821289702E+03 -0.10842487609E+03  0.50360284594E+03  0.17300000000E+03 0. -1.
<mgrwt>
<rscale>  2 0.49179251E+03</rscale>
<asrwt>0</asrwt>
<pdfrwt beam="1">  1       21 0.12669006E+00 0.49179251E+03</pdfrwt>
<pdfrwt beam="2">  1       21 0.61941424E-01 0.49179251E+03</pdfrwt>
<totfact> 0.92930820E+02</totfact>
</mgrwt>
</event>
<event>
 4    1  0.4111182E+000  0.1995080E+03  0.7546771E-02  0.1150155E+00
         21   -1    0    0  503  502  0.00000000000E+00  0.00000000000E+00  0.40849442871E+03  0.40849442871E+03  0.00000000000E+00 0.  1.
         21   -1    0    0  501  503 -0.00000000000E+00 -0.00000000000E+00 -0.55078203448E+03  0.55078203448E+03  0.00000000000E+00 0.  1.
          6    1    1    2  501    0 -0.96453802546E+02 -0.23897409580E+02 -0.50629203870E+03  0.54418292023E+03  0.17300000000E+03 0.  1.
         -6    1    1    2    0  502  0.96453802546E+02  0.23897409580E+02  0.36400443293E+03  0.41509354296E+03  0.17300000000E+03 0.  1.
<mgrwt>
<rscale>  2 0.19950795E+03</rscale>
<asrwt>0</asrwt>
<pdfrwt beam="1">  1       21 0.62845297E-01 0.19950795E+03</pdfrwt>
<pdfrwt beam="2">  1       21 0.84735697E-01 0.19950795E+03</pdfrwt>
<totfact> 0.28132892E+03</totfact>
</mgrwt>
</event>
<event>
 4    1  0.4111182E+000  0.1778875E+03  0.7546771E-02  0.1169863E+00
         21   -1    0    0  501  502  0.00000000000E+00  0.00000000000E+00  0.42843864959E+02  0.42843864959E+02  0.00000000000E+00 0.  1.
         21   -1    0    0  502  503 -0.00000000000E+00 -0.00000000000E+00 -0.75710743068E+03  0.75710743068E+03  0.00000000000E+00 0.  1.
          6    1    1    2  501    0  0.40086151717E+01 -0.41217562298E+02 -0.29457551547E+03  0.34412016906E+03  0.17300000000E+03 0.  1.
         -6    1    1    2    0  503 -0.40086151717E+01  0.41217562298E+02 -0.41968805025E+03  0.45583112658E+03  0.17300000000E+03 0.  1.
<mgrwt>
<rscale>  2 0.17788748E+03</rscale>
<asrwt>0</asrwt>
<pdfrwt beam="1">  1       21 0.65913641E-02 0.17788748E+03</pdfrwt>
<pdfrwt beam="2">  1       21 0.11647806E+00 0.17788748E+03</pdfrwt>
<totfact> 0.95968352E+04</totfact>
</mgrwt>
</event>
<event>
 4    1  0.4111182E+000  0.2989367E+03  0.7546771E-02  0.1085773E+00
         21   -1    0    0  501  502  0.00000000000E+00  0.00000000000E+00  0.53719049070E+03  0.53719049070E+03  0.00000000000E+00 0. -1.
         21   -1    0    0  502  503 -0.00000000000E+00 -0.00000000000E+00 -0.18828839290E+03  0.18828839290E+03  0.00000000000E+00 0.  1.
          6    1    1    2  501    0 -0.23922939396E+03 -0.46940705548E+02  0.29826166072E+03  0.42228325923E+03  0.17300000000E+03 0. -1.
         -6    1    1    2    0  503  0.23922939396E+03  0.46940705548E+02  0.50640437084E+02  0.30319562437E+03  0.17300000000E+03 0.  1.
<mgrwt>
<rscale>  2 0.29893667E+03</rscale>
<asrwt>0</asrwt>
<pdfrwt beam="1">  1       21 0.82644690E-01 0.29893667E+03</pdfrwt>
<pdfrwt beam="2">  1       21 0.28967445E-01 0.29893667E+03</pdfrwt>
<totfact> 0.13764434E+04</totfact>
</mgrwt>
</event>
<event>
 4    1  0.4111182E+000  0.1798028E+03  0.7546771E-02  0.1167994E+00
         21   -1    0    0  501  502  0.00000000000E+00  0.00000000000E+00  0.44326966399E+03  0.44326966399E+03  0.00000000000E+00 0. -1.
         21   -1    0    0  502  503 -0.00000000000E+00 -0.00000000000E+00 -0.75677363025E+02  0.75677363025E+02  0.00000000000E+00 0. -1.
          6    1    1    2  501    0 -0.37816519941E+02  0.31144187788E+02  0.23320668290E+03  0.29447309990E+03  0.17300000000E+03 0. -1.
         -6    1    1    2    0  503  0.37816519941E+02 -0.31144187788E+02  0.13438561806E+03  0.22447392712E+03  0.17300000000E+03 0. -1.
<mgrwt>
<rscale>  2 0.17980281E+03</rscale>
<asrwt>0</asrwt>
<pdfrwt beam="1">  1       21 0.68195331E-01 0.17980281E+03</pdfrwt>
<pdfrwt beam="2">  1       21 0.11642672E-01 0.17980281E+03</pdfrwt>
<totfact> 0.12212089E+05</totfact>
</mgrwt>
</event>
<event>
 4    1  0.4111182E+000  0.1820273E+03  0.7546771E-02  0.1165855E+00
         21   -1    0    0  503  502  0.00000000000E+00  0.00000000000E+00  0.64107772766E+02  0.64107772766E+02  0.00000000000E+00 0.  1.
         21   -1    0    0  501  503 -0.00000000000E+00 -0.00000000000E+00 -0.51808775985E+03  0.51808775985E+03  0.00000000000E+00 0.  1.
          6    1    1    2  501    0  0.52635653694E+02  0.20842641074E+02 -0.24123401958E+03  0.30220486417E+03  0.17300000000E+03 0.  1.
         -6    1    1    2    0  502 -0.52635653694E+02 -0.20842641074E+02 -0.21274596751E+03  0.27999066845E+03  0.17300000000E+03 0.  1.
<mgrwt>
<rscale>  2 0.18202727E+03</rscale>
<asrwt>0</asrwt>
<pdfrwt beam="1">  1       21 0.98627345E-02 0.18202727E+03</pdfrwt>
<pdfrwt beam="2">  1       21 0.79705807E-01 0.18202727E+03</pdfrwt>
<totfact> 0.11577588E+05</totfact>
</mgrwt>
</event>
<event>
 4    1  0.4111182E+000  0.2752126E+03  0.7546771E-02  0.1098333E+00
         21   -1    0    0  503  502  0.00000000000E+00  0.00000000000E+00  0.52281737258E+03  0.52281737258E+03  0.00000000000E+00 0.  1.
         21   -1    0    0  501  503 -0.00000000000E+00 -0.00000000000E+00 -0.15976099569E+03  0.15976099569E+03  0.00000000000E+00 0.  1.
          6    1    1    2  501    0  0.17090778850E+03 -0.12885449869E+03  0.77342053276E+02  0.28587365602E+03  0.17300000000E+03 0.  1.
         -6    1    1    2    0  502 -0.17090778850E+03  0.12885449869E+03  0.28571432361E+03  0.39670471225E+03  0.17300000000E+03 0.  1.
<mgrwt>
<rscale>  2 0.27521256E+03</rscale>
<asrwt>0</asrwt>
<pdfrwt beam="1">  1       21 0.80433441E-01 0.27521256E+03</pdfrwt>
<pdfrwt beam="2">  1       21 0.24578615E-01 0.27521256E+03</pdfrwt>
<totfact> 0.20358966E+04</totfact>
</mgrwt>
</event>
<event>
 4    1  0.4111182E+000  0.1793233E+03  0.7546771E-02  0.1168460E+00
         21   -1    0    0  501  502  0.00000000000E+00  0.00000000000E+00  0.59901131539E+02  0.59901131539E+02  0.00000000000E+00 0.  1.
         21   -1    0    0  502  503 -0.00000000000E+00 -0.00000000000E+00 -0.55413633755E+03  0.55413633755E+03  0.00000000000E+00 0.  1.
          6    1    1    2  501    0 -0.56311871001E+01  0.46863067260E+02 -0.19286365984E+03  0.26335004961E+03  0.17300000000E+03 0. -1.
         -6    1    1    2    0  503  0.56311871001E+01 -0.46863067260E+02 -0.30137154617E+03  0.35068741948E+03  0.17300000000E+03 0. -1.
<mgrwt>
<rscale>  2 0.17932333E+03</rscale>
<asrwt>0</asrwt>
<pdfrwt beam="1">  1       21 0.92155588E-02 0.17932333E+03</pdfrwt>
<pdfrwt beam="2">  1       21 0.85251743E-01 0.17932333E+03</pdfrwt>
<totfact> 0.11209907E+05</totfact>
</mgrwt>
</event>
<event>
 4    1  0.4111182E+000  0.2112552E+03  0.7546771E-02  0.1140576E+00
         21   -1    0    0  501  502  0.00000000000E+00  0.00000000000E+00  0.30009398409E+03  0.30009398409E+03  0.00000000000E+00 0. -1.
         21   -1    0    0  502  503 -0.00000000000E+00 -0.00000000000E+00 -0.15296070025E+03  0.15296070025E+03  0.00000000000E+00 0. -1.
          6    1    1    2  501    0  0.10938721799E+03  0.52289437502E+02  0.11130291611E+03  0.23878251165E+03  0.17300000000E+03 0. -1.
         -6    1    1    2    0  503 -0.10938721799E+03 -0.52289437502E+02  0.35830367730E+02  0.21427217268E+03  0.17300000000E+03 0. -1.
<mgrwt>
<rscale>  2 0.21125517E+03</rscale>
<asrwt>0</asrwt>
<pdfrwt beam="1">  1       21 0.46168305E-01 0.21125517E+03</pdfrwt>
<pdfrwt beam="2">  1       21 0.23532416E-01 0.21125517E+03</pdfrwt>
<totfact> 0.75784550E+04</totfact>
</mgrwt>
</event>
<event>
 4    1  0.4111182E+000  0.2049740E+03  0.7546771E-02  0.1145609E+00
         21   -1    0    0  501  502  0.00000000000E+00  0.00000000000E+00  0.31689594594E+03  0.31689594594E+03  0.00000000000E+00 0.  1.
         21   -1    0    0  502  503 -0.00000000000E+00 -0.00000000000E+00 -0.50370197166E+03  0.50370197166E+03  0.00000000000E+00 0.  1.
          6    1    1    2  501    0  0.14726477316E+02 -0.10894248010E+03  0.25878245104E+03  0.33012526421E+03  0.17300000000E+03 0.  1.
         -6    1    1    2    0  503 -0.14726477316E+02  0.10894248010E+03 -0.44558847675E+03  0.49047265339E+03  0.17300000000E+03 0.  1.
<mgrwt>
<rscale>  2 0.20497398E+03</rscale>
<asrwt>0</asrwt>
<pdfrwt beam="1">  1       21 0.48753222E-01 0.20497398E+03</pdfrwt>
<pdfrwt beam="2">  1       21 0.77492611E-01 0.20497398E+03</pdfrwt>
<totfact> 0.58792981E+03</totfact>
</mgrwt>
</event>
<event>
 4    1  0.4111182E+000  0.7144076E+03  0.7546771E-02  0.9692906E-01
         21   -1    0    0  501  502  0.00000000000E+00  0.00000000000E+00  0.11116555948E+04  0.11116555948E+04  0.00000000000E+00 0. -1.
         21   -1    0    0  502  503 -0.00000000000E+00 -0.00000000000E+00 -0.55941699597E+03  0.55941699597E+03  0.00000000000E+00 0.  1.
          6    1    1    2  501    0 -0.69305805603E+03  0.10944124136E+02  0.62991401031E+03  0.95245467255E+03  0.17300000000E+03 0. -1.
         -6    1    1    2    0  503  0.69305805603E+03 -0.10944124136E+02 -0.77675411451E+02  0.71861791824E+03  0.17300000000E+03 0.  1.
<mgrwt>
<rscale>  2 0.71440762E+03</rscale>
<asrwt>0</asrwt>
<pdfrwt beam="1">  1       21 0.17102394E+00 0.71440762E+03</pdfrwt>
<pdfrwt beam="2">  1       21 0.86064153E-01 0.71440762E+03</pdfrwt>
<totfact> 0.17868496E+02</totfact>
</mgrwt>
</event>
<event>
 4    1  0.4111182E+000  0.1746839E+03  0.7546771E-02  0.1173049E+00
         21   -1    0    0  503  502  0.00000000000E+00  0.00000000000E+00  0.19772679409E+03  0.19772679409E+03  0.00000000000E+00 0. -1.
         21   -1    0    0  501  503 -0.00000000000E+00 -0.00000000000E+00 -0.17113033232E+03  0.17113033232E+03  0.00000000000E+00 0. -1.
          6    1    1    2  501    0  0.15371987064E+02 -0.18686149330E+02 -0.44494040781E+02  0.18026144854E+03  0.17300000000E+03 0. -1.
         -6    1    1    2    0  502 -0.15371987064E+02  0.18686149330E+02  0.71090502552E+02  0.18859567788E+03  0.17300000000E+03 0. -1.
<mgrwt>
<rscale>  2 0.17468392E+03</rscale>
<asrwt>0</asrwt>
<pdfrwt beam="1">  1       21 0.30419507E-01 0.17468392E+03</pdfrwt>
<pdfrwt beam="2">  1       21 0.26327743E-01 0.17468392E+03</pdfrwt>
<totfact> 0.14312460E+05</totfact>
</mgrwt>
</event>
<event>
 4    1  0.4111182E+000  0.1841859E+03  0.7546771E-02  0.1163812E+00
         21   -1    0    0  503  502  0.00000000000E+00  0.00000000000E+00  0.55527737184E+02  0.55527737184E+02  0.00000000000E+00 0.  1.
         21   -1    0    0  501  503 -0.00000000000E+00 -0.00000000000E+00 -0.75540182946E+03  0.75540182946E+03  0.00000000000E+00 0.  1.
          6    1    1    2  501    0 -0.55268790778E+02 -0.30672734479E+02 -0.52724632819E+03  0.55849184995E+03  0.17300000000E+03 0. -1.
         -6    1    1    2    0  502  0.55268790778E+02  0.30672734479E+02 -0.17262776409E+03  0.25243771669E+03  0.17300000000E+03 0. -1.
<mgrwt>
<rscale>  2 0.18418593E+03</rscale>
<asrwt>0</asrwt>
<pdfrwt beam="1">  1       21 0.85427294E-02 0.18418593E+03</pdfrwt>
<pdfrwt beam="2">  1       21 0.11621566E+00 0.18418593E+03</pdfrwt>
<totfact> 0.61404696E+04</totfact>
</mgrwt>
</event>
<event>
 4    1  0.4111182E+000  0.1898613E+03  0.7546771E-02  0.1158586E+00
         21   -1    0    0  501  502  0.00000000000E+00  0.00000000000E+00  0.42757253256E+03  0.42757253256E+03  0.00000000000E+00 0.  1.
         21   -1    0    0  502  503 -0.00000000000E+00 -0.00000000000E+00 -0.10146093014E+03  0.10146093014E+03  0.00000000000E+00 0.  1.
          6    1    1    2  501    0 -0.77277343731E+02  0.12105362610E+02  0.27182011644E+03  0.33156221643E+03  0.17300000000E+03 0.  1.
         -6    1    1    2    0  503  0.77277343731E+02 -0.12105362610E+02  0.54291485976E+02  0.19747124628E+03  0.17300000000E+03 0.  1.
<mgrwt>
<rscale>  2 0.18986134E+03</rscale>
<asrwt>0</asrwt>
<pdfrwt beam="1">  1       21 0.65780388E-01 0.18986134E+03</pdfrwt>
<pdfrwt beam="2">  1       21 0.15609374E-01 0.18986134E+03</pdfrwt>
<totfact> 0.77559904E+04</totfact>
</mgrwt>
</event>
<event>
 4    1  0.4111182E+000  0.1786341E+03  0.7546771E-02  0.1169132E+00
         21   -1    0    0  503  502  0.00000000000E+00  0.00000000000E+00  0.20192897189E+03  0.20192897189E+03  0.00000000000E+00 0.  1.
         21   -1    0    0  501  503 -0.00000000000E+00 -0.00000000000E+00 -0.99084013387E+03  0.99084013387E+03  0.00000000000E+00 0.  1.
          6    1    1    2  501    0  0.41641260312E+02 -0.15720791186E+02 -0.94121779423E+03  0.95801934950E+03  0.17300000000E+03 0.  1.
         -6    1    1    2    0  502 -0.41641260312E+02  0.15720791186E+02  0.15230663225E+03  0.23474975626E+03  0.17300000000E+03 0.  1.
<mgrwt>
<rscale>  2 0.17863409E+03</rscale>
<asrwt>0</asrwt>
<pdfrwt beam="1">  1       21 0.31065995E-01 0.17863409E+03</pdfrwt>
<pdfrwt beam="2">  1       21 0.15243695E+00 0.17863409E+03</pdfrwt>
<totfact> 0.28892027E+03</totfact>
</mgrwt>
</event>
<event>
 4    1  0.4111182E+000  0.1804745E+03  0.7546771E-02  0.1167345E+00
         21   -1    0    0  501  502  0.00000000000E+00  0.00000000000E+00  0.17100448583E+03  0.17100448583E+03  0.00000000000E+00 0. -1.
         21   -1    0    0  502  503 -0.00000000000E+00 -0.00000000000E+00 -0.21058853430E+03  0.21058853430E+03  0.00000000000E+00 0. -1.
          6    1    1    2  501    0  0.14593478620E+02  0.49285542740E+02  0.39182335047E+02  0.18467888272E+03  0.17300000000E+03 0. -1.
         -6    1    1    2    0  503 -0.14593478620E+02 -0.49285542740E+02 -0.78766383515E+02  0.19691413741E+03  0.17300000000E+03 0. -1.
<mgrwt>
<rscale>  2 0.18047447E+03</rscale>
<asrwt>0</asrwt>
<pdfrwt beam="1">  1       21 0.26308382E-01 0.18047447E+03</pdfrwt>
<pdfrwt beam="2">  1       21 0.32398236E-01 0.18047447E+03</pdfrwt>
<totfact> 0.12645731E+05</totfact>
</mgrwt>
</event>
<event>
 4    1  0.4111182E+000  0.2212310E+03  0.7546771E-02  0.1132969E+00
         21   -1    0    0  501  502  0.00000000000E+00  0.00000000000E+00  0.42750154113E+03  0.42750154113E+03  0.00000000000E+00 0. -1.
         21   -1    0    0  502  503 -0.00000000000E+00 -0.00000000000E+00 -0.12746965126E+03  0.12746965126E+03  0.00000000000E+00 0. -1.
          6    1    1    2  501    0 -0.13774819034E+03 -0.62937222998E+01  0.23857364595E+03  0.32536219729E+03  0.17300000000E+03 0. -1.
         -6    1    1    2    0  503  0.13774819034E+03  0.62937222998E+01  0.61458243921E+02  0.22960899509E+03  0.17300000000E+03 0. -1.
<mgrwt>
<rscale>  2 0.22123104E+03</rscale>
<asrwt>0</asrwt>
<pdfrwt beam="1">  1       21 0.65769467E-01 0.22123104E+03</pdfrwt>
<pdfrwt beam="2">  1       21 0.19610716E-01 0.22123104E+03</pdfrwt>
<totfact> 0.50178858E+04</totfact>
</mgrwt>
</event>
<event>
 4    1  0.4111182E+000  0.2997830E+03  0.7546771E-02  0.1085349E+00
         21   -1    0    0  501  502  0.00000000000E+00  0.00000000000E+00  0.67521864232E+03  0.67521864232E+03  0.00000000000E+00 0.  1.
         21   -1    0    0  502  503 -0.00000000000E+00 -0.00000000000E+00 -0.22817908546E+03  0.22817908546E+03  0.00000000000E+00 0. -1.
          6    1    1    2  501    0  0.20538887314E+03  0.13325257720E+03  0.51510099306E+03  0.59598563036E+03  0.17300000000E+03 0.  1.
         -6    1    1    2    0  503 -0.20538887314E+03 -0.13325257720E+03 -0.68061436198E+02  0.30741209742E+03  0.17300000000E+03 0. -1.
<mgrwt>
<rscale>  2 0.29978299E+03</rscale>
<asrwt>0</asrwt>
<pdfrwt beam="1">  1       21 0.10387979E+00 0.29978299E+03</pdfrwt>
<pdfrwt beam="2">  1       21 0.35104475E-01 0.29978299E+03</pdfrwt>
<totfact> 0.54777553E+03</totfact>
</mgrwt>
</event>
<event>
 4    1  0.4111182E+000  0.2738163E+03  0.7546771E-02  0.1099115E+00
         21   -1    0    0  503  502  0.00000000000E+00  0.00000000000E+00  0.43251432289E+03  0.43251432289E+03  0.00000000000E+00 0.  1.
         21   -1    0    0  501  503 -0.00000000000E+00 -0.00000000000E+00 -0.17675935588E+03  0.17675935588E+03  0.00000000000E+00 0.  1.
          6    1    1    2  501    0 -0.21186873557E+03 -0.12569194220E+02  0.85554490163E+02  0.28687090571E+03  0.17300000000E+03 0.  1.
         -6    1    1    2    0  502  0.21186873557E+03  0.12569194220E+02  0.17020047685E+03  0.32240277306E+03  0.17300000000E+03 0.  1.
<mgrwt>
<rscale>  2 0.27381626E+03</rscale>
<asrwt>0</asrwt>
<pdfrwt beam="1">  1       21 0.66540665E-01 0.27381626E+03</pdfrwt>
<pdfrwt beam="2">  1       21 0.27193747E-01 0.27381626E+03</pdfrwt>
<totfact> 0.25642147E+04</totfact>
</mgrwt>
</event>
<event>
 4    1  0.4111182E+000  0.2029318E+03  0.7546771E-02  0.1147289E+00
         21   -1    0    0  501  502  0.00000000000E+00  0.00000000000E+00  0.39463143818E+03  0.39463143818E+03  0.00000000000E+00 0.  1.
         21   -1    0    0  502  503 -0.00000000000E+00 -0.00000000000E+00 -0.13470707284E+03  0.13470707284E+03  0.00000000000E+00 0.  1.
          6    1    1    2  501    0  0.77491835577E+02  0.72438394671E+02  0.25559722179E+03  0.32636060637E+03  0.17300000000E+03 0.  1.
         -6    1    1    2    0  503 -0.77491835577E+02 -0.72438394671E+02  0.43271435478E+01  0.20297790465E+03  0.17300000000E+03 0.  1.
<mgrwt>
<rscale>  2 0.20293178E+03</rscale>
<asrwt>0</asrwt>
<pdfrwt beam="1">  1       21 0.60712529E-01 0.20293178E+03</pdfrwt>
<pdfrwt beam="2">  1       21 0.20724165E-01 0.20293178E+03</pdfrwt>
<totfact> 0.54290352E+04</totfact>
</mgrwt>
</event>
<event>
 4    1  0.4111182E+000  0.2709223E+03  0.7546771E-02  0.1100753E+00
         21   -1    0    0  501  502  0.00000000000E+00  0.00000000000E+00  0.67458614561E+03  0.67458614561E+03  0.00000000000E+00 0.  1.
         21   -1    0    0  502  503 -0.00000000000E+00 -0.00000000000E+00 -0.13868773382E+03  0.13868773382E+03  0.00000000000E+00 0. -1.
          6    1    1    2  501    0  0.17254238958E+03  0.11704279500E+03  0.45670143041E+03  0.53101326594E+03  0.17300000000E+03 0.  1.
         -6    1    1    2    0  503 -0.17254238958E+03 -0.11704279500E+03  0.79196981375E+02  0.28226061348E+03  0.17300000000E+03 0.  1.
<mgrwt>
<rscale>  2 0.27092230E+03</rscale>
<asrwt>0</asrwt>
<pdfrwt beam="1">  1       21 0.10378248E+00 0.27092230E+03</pdfrwt>
<pdfrwt beam="2">  1       21 0.21336575E-01 0.27092230E+03</pdfrwt>
<totfact> 0.14688911E+04</totfact>
</mgrwt>
</event>
<event>
 4    1  0.4111182E+000  0.2160214E+03  0.7546771E-02  0.1136884E+00
         21   -1    0    0  503  502  0.00000000000E+00  0.00000000000E+00  0.23766372380E+04  0.23766372380E+04  0.00000000000E+00 0. -1.
         21   -1    0    0  501  503 -0.00000000000E+00 -0.00000000000E+00 -0.19688804441E+02  0.19688804441E+02  0.00000000000E+00 0. -1.
          6    1    1    2  501    0 -0.12351209400E+03  0.38483763556E+02  0.11158309648E+04  0.11365491540E+04  0.17300000000E+03 0.  1.
         -6    1    1    2    0  502  0.12351209400E+03 -0.38483763556E+02  0.12411174688E+04  0.12597768884E+04  0.17300000000E+03 0.  1.
<mgrwt>
<rscale>  2 0.21602138E+03</rscale>
<asrwt>0</asrwt>
<pdfrwt beam="1">  1       21 0.36563627E+00 0.21602138E+03</pdfrwt>
<pdfrwt beam="2">  1       21 0.30290487E-02 0.21602138E+03</pdfrwt>
<totfact> 0.85528687E+03</totfact>
</mgrwt>
</event>
<event>
 4    1  0.4111182E+000  0.1808879E+03  0.7546771E-02  0.1166947E+00
         21   -1    0    0  503  502  0.00000000000E+00  0.00000000000E+00  0.15153568226E+04  0.15153568226E+04  0.00000000000E+00 0. -1.
         21   -1    0    0  501  503 -0.00000000000E+00 -0.00000000000E+00 -0.21646703202E+02  0.21646703202E+02  0.00000000000E+00 0. -1.
          6    1    1    2  501    0 -0.80032058923E+01  0.52224242737E+02  0.70841817674E+03  0.73114754734E+03  0.17300000000E+03 0.  1.
         -6    1    1    2    0  502  0.80032058923E+01 -0.52224242737E+02  0.78529194268E+03  0.80585597849E+03  0.17300000000E+03 0.  1.
<mgrwt>
<rscale>  2 0.18088787E+03</rscale>
<asrwt>0</asrwt>
<pdfrwt beam="1">  1       21 0.23313173E+00 0.18088787E+03</pdfrwt>
<pdfrwt beam="2">  1       21 0.33302632E-02 0.18088787E+03</pdfrwt>
<totfact> 0.44952233E+04</totfact>
</mgrwt>
</event>
<event>
 4    1  0.4111182E+000  0.1935750E+03  0.7546771E-02  0.1155276E+00
         21   -1    0    0  501  502  0.00000000000E+00  0.00000000000E+00  0.20083784037E+04  0.20083784037E+04  0.00000000000E+00 0. -1.
         21   -1    0    0  502  503 -0.00000000000E+00 -0.00000000000E+00 -0.12255650190E+03  0.12255650190E+03  0.00000000000E+00 0. -1.
          6    1    1    2  501    0 -0.86589851126E+02 -0.66687106564E+01  0.19239306883E+04  0.19336443746E+04  0.17300000000E+03 0. -1.
         -6    1    1    2    0  503  0.86589851126E+02  0.66687106564E+01 -0.38108786487E+02  0.19729053101E+03  0.17300000000E+03 0. -1.
<mgrwt>
<rscale>  2 0.19357498E+03</rscale>
<asrwt>0</asrwt>
<pdfrwt beam="1">  1       21 0.30898127E+00 0.19357498E+03</pdfrwt>
<pdfrwt beam="2">  1       21 0.18854848E-01 0.19357498E+03</pdfrwt>
<totfact> 0.77963979E+02</totfact>
</mgrwt>
</event>
<event>
 4    1  0.4111182E+000  0.1903759E+03  0.7546771E-02  0.1158123E+00
         21   -1    0    0  503  502  0.00000000000E+00  0.00000000000E+00  0.83308328554E+02  0.83308328554E+02  0.00000000000E+00 0. -1.
         21   -1    0    0  501  503 -0.00000000000E+00 -0.00000000000E+00 -0.47142216799E+03  0.47142216799E+03  0.00000000000E+00 0. -1.
          6    1    1    2  501    0 -0.76891831198E+02  0.20040437932E+02 -0.27110365611E+03  0.33127053176E+03  0.17300000000E+03 0. -1.
         -6    1    1    2    0  502  0.76891831198E+02 -0.20040437932E+02 -0.11701018332E+03  0.22345996478E+03  0.17300000000E+03 0. -1.
<mgrwt>
<rscale>  2 0.19037587E+03</rscale>
<asrwt>0</asrwt>
<pdfrwt beam="1">  1       21 0.12816666E-01 0.19037587E+03</pdfrwt>
<pdfrwt beam="2">  1       21 0.72526489E-01 0.19037587E+03</pdfrwt>
<totfact> 0.89419159E+04</totfact>
</mgrwt>
</event>
<event>
 4    1  0.4111182E+000  0.1858311E+03  0.7546771E-02  0.1162276E+00
         21   -1    0    0  501  502  0.00000000000E+00  0.00000000000E+00  0.97921186769E+02  0.97921186769E+02  0.00000000000E+00 0. -1.
         21   -1    0    0  502  503 -0.00000000000E+00 -0.00000000000E+00 -0.38105859804E+03  0.38105859804E+03  0.00000000000E+00 0. -1.
          6    1    1    2  501    0  0.66238677952E+02 -0.14717944190E+02 -0.76192945751E+02  0.20084458001E+03  0.17300000000E+03 0. -1.
         -6    1    1    2    0  503 -0.66238677952E+02  0.14717944190E+02 -0.20694446552E+03  0.27813520479E+03  0.17300000000E+03 0. -1.
<mgrwt>
<rscale>  2 0.18583105E+03</rscale>
<asrwt>0</asrwt>
<pdfrwt beam="1">  1       21 0.15064798E-01 0.18583105E+03</pdfrwt>
<pdfrwt beam="2">  1       21 0.58624400E-01 0.18583105E+03</pdfrwt>
<totfact> 0.10626324E+05</totfact>
</mgrwt>
</event>
<event>
 4    1  0.4111182E+000  0.2053255E+03  0.7546771E-02  0.1145322E+00
         21   -1    0    0  501  502  0.00000000000E+00  0.00000000000E+00  0.16471090493E+04  0.16471090493E+04  0.00000000000E+00 0. -1.
         21   -1    0    0  502  503 -0.00000000000E+00 -0.00000000000E+00 -0.58954264879E+02  0.58954264879E+02  0.00000000000E+00 0. -1.
          6    1    1    2  501    0 -0.20215565814E+02 -0.10872399004E+03  0.14357485720E+04  0.14503560036E+04  0.17300000000E+03 0. -1.
         -6    1    1    2    0  503  0.20215565814E+02  0.10872399004E+03  0.15240621242E+03  0.25570731060E+03  0.17300000000E+03 0. -1.
<mgrwt>
<rscale>  2 0.20532553E+03</rscale>
<asrwt>0</asrwt>
<pdfrwt beam="1">  1       21 0.25340136E+00 0.20532553E+03</pdfrwt>
<pdfrwt beam="2">  1       21 0.90698882E-02 0.20532553E+03</pdfrwt>
<totfact> 0.60424415E+03</totfact>
</mgrwt>
</event>
<event>
 4    1  0.4111182E+000  0.1754716E+03  0.7546771E-02  0.1172259E+00
         21   -1    0    0  501  502  0.00000000000E+00  0.00000000000E+00  0.33791728178E+03  0.33791728178E+03  0.00000000000E+00 0. -1.
         21   -1    0    0  502  503 -0.00000000000E+00 -0.00000000000E+00 -0.91279257201E+02  0.91279257201E+02  0.00000000000E+00 0. -1.
          6    1    1    2  501    0 -0.22164668124E+01 -0.29263734131E+02  0.13234449875E+03  0.21978477020E+03  0.17300000000E+03 0.  1.
         -6    1    1    2    0  503  0.22164668124E+01  0.29263734131E+02  0.11429352583E+03  0.20941176879E+03  0.17300000000E+03 0.  1.
<mgrwt>
<rscale>  2 0.17547159E+03</rscale>
<asrwt>0</asrwt>
<pdfrwt beam="1">  1       21 0.51987274E-01 0.17547159E+03</pdfrwt>
<pdfrwt beam="2">  1       21 0.14042963E-01 0.17547159E+03</pdfrwt>
<totfact> 0.15616767E+05</totfact>
</mgrwt>
</event>
<event>
 4    1  0.4111182E+000  0.2247227E+03  0.7546771E-02  0.1130410E+00
         21   -1    0    0  503  502  0.00000000000E+00  0.00000000000E+00  0.75270458083E+02  0.75270458083E+02  0.00000000000E+00 0. -1.
         21   -1    0    0  501  503 -0.00000000000E+00 -0.00000000000E+00 -0.19854483138E+04  0.19854483138E+04  0.00000000000E+00 0.  1.
          6    1    1    2  501    0 -0.14057585975E+03 -0.28455809076E+02 -0.17934763246E+04  0.18075003824E+04  0.17300000000E+03 0.  1.
         -6    1    1    2    0  502  0.14057585975E+03  0.28455809076E+02 -0.11670153112E+03  0.25321838950E+03  0.17300000000E+03 0. -1.
<mgrwt>
<rscale>  2 0.22472273E+03</rscale>
<asrwt>0</asrwt>
<pdfrwt beam="1">  1       21 0.11580070E-01 0.22472273E+03</pdfrwt>
<pdfrwt beam="2">  1       21 0.30545361E+00 0.22472273E+03</pdfrwt>
<totfact> 0.19107256E+03</totfact>
</mgrwt>
</event>
<event>
 4    1  0.4111182E+000  0.2150544E+03  0.7546771E-02  0.1137625E+00
         21   -1    0    0  503  502  0.00000000000E+00  0.00000000000E+00  0.78444056472E+03  0.78444056472E+03  0.00000000000E+00 0.  1.
         21   -1    0    0  501  503 -0.00000000000E+00 -0.00000000000E+00 -0.95599256598E+02  0.95599256598E+02  0.00000000000E+00 0. -1.
          6    1    1    2  501    0  0.88357001231E+02 -0.92262817160E+02  0.72003008848E+02  0.22678805167E+03  0.17300000000E+03 0. -1.
         -6    1    1    2    0  502 -0.88357001231E+02  0.92262817160E+02  0.61683829927E+03  0.65325176965E+03  0.17300000000E+03 0.  1.
<mgrwt>
<rscale>  2 0.21505438E+03</rscale>
<asrwt>0</asrwt>
<pdfrwt beam="1">  1       21 0.12068316E+00 0.21505438E+03</pdfrwt>
<pdfrwt beam="2">  1       21 0.14707578E-01 0.21505438E+03</pdfrwt>
<totfact> 0.20879259E+04</totfact>
</mgrwt>
</event>
<event>
 4    1  0.4111182E+000  0.2035564E+03  0.7546771E-02  0.1146773E+00
         21   -1    0    0  503  502  0.00000000000E+00  0.00000000000E+00  0.84439662197E+03  0.84439662197E+03  0.00000000000E+00 0.  1.
         21   -1    0    0  501  503 -0.00000000000E+00 -0.00000000000E+00 -0.10327593080E+03  0.10327593080E+03  0.00000000000E+00 0. -1.
          6    1    1    2  501    0  0.10483479558E+03  0.22712678686E+02  0.27279928018E+02  0.20537622698E+03  0.17300000000E+03 0. -1.
         -6    1    1    2    0  502 -0.10483479558E+03 -0.22712678686E+02  0.71384076315E+03  0.74229632579E+03  0.17300000000E+03 0.  1.
<mgrwt>
<rscale>  2 0.20355638E+03</rscale>
<asrwt>0</asrwt>
<pdfrwt beam="1">  1       21 0.12990717E+00 0.20355638E+03</pdfrwt>
<pdfrwt beam="2">  1       21 0.15888605E-01 0.20355638E+03</pdfrwt>
<totfact> 0.15180214E+04</totfact>
</mgrwt>
</event>
<event>
 4    1  0.4111182E+000  0.1931334E+03  0.7546771E-02  0.1155665E+00
         21   -1    0    0  501  502  0.00000000000E+00  0.00000000000E+00  0.40067606418E+02  0.40067606418E+02  0.00000000000E+00 0. -1.
         21   -1    0    0  502  503 -0.00000000000E+00 -0.00000000000E+00 -0.96113400444E+03  0.96113400444E+03  0.00000000000E+00 0. -1.
          6    1    1    2  501    0  0.66405009988E+02  0.54423257787E+02 -0.37180457811E+03  0.41897393791E+03  0.17300000000E+03 0. -1.
         -6    1    1    2    0  503 -0.66405009988E+02 -0.54423257787E+02 -0.54926181991E+03  0.58222767295E+03  0.17300000000E+03 0. -1.
<mgrwt>
<rscale>  2 0.19313342E+03</rscale>
<asrwt>0</asrwt>
<pdfrwt beam="1">  1       21 0.61642475E-02 0.19313342E+03</pdfrwt>
<pdfrwt beam="2">  1       21 0.14786676E+00 0.19313342E+03</pdfrwt>
<totfact> 0.58418175E+04</totfact>
</mgrwt>
</event>
<event>
 4    1  0.4111182E+000  0.2091652E+03  0.7546771E-02  0.1142229E+00
         21   -1    0    0  503  502  0.00000000000E+00  0.00000000000E+00  0.39281215441E+03  0.39281215441E+03  0.00000000000E+00 0.  1.
         21   -1    0    0  501  503 -0.00000000000E+00 -0.00000000000E+00 -0.26806049633E+03  0.26806049633E+03  0.00000000000E+00 0. -1.
          6    1    1    2  501    0 -0.72849844827E+02  0.92271325095E+02 -0.19025334564E+03  0.28274800239E+03  0.17300000000E+03 0. -1.
         -6    1    1    2    0  502  0.72849844827E+02 -0.92271325095E+02  0.31500500372E+03  0.37812464835E+03  0.17300000000E+03 0.  1.
<mgrwt>
<rscale>  2 0.20916524E+03</rscale>
<asrwt>0</asrwt>
<pdfrwt beam="1">  1       21 0.60432639E-01 0.20916524E+03</pdfrwt>
<pdfrwt beam="2">  1       21 0.41240076E-01 0.20916524E+03</pdfrwt>
<totfact> 0.14296434E+04</totfact>
</mgrwt>
</event>
<event>
 4    1  0.4111182E+000  0.2445391E+03  0.7546771E-02  0.1116805E+00
         21   -1    0    0  503  502  0.00000000000E+00  0.00000000000E+00  0.53246583238E+02  0.53246583238E+02  0.00000000000E+00 0.  1.
         21   -1    0    0  501  503 -0.00000000000E+00 -0.00000000000E+00 -0.14105706639E+04  0.14105706639E+04  0.00000000000E+00 0.  1.
          6    1    1    2  501    0 -0.35007585712E+02 -0.16924793218E+03 -0.10090942426E+04  0.10383017789E+04  0.17300000000E+03 0.  1.
         -6    1    1    2    0  502  0.35007585712E+02  0.16924793218E+03 -0.34822983811E+03  0.42551546829E+03  0.17300000000E+03 0.  1.
<mgrwt>
<rscale>  2 0.24453915E+03</rscale>
<asrwt>0</asrwt>
<pdfrwt beam="1">  1       21 0.81917811E-02 0.24453915E+03</pdfrwt>
<pdfrwt beam="2">  1       21 0.21701090E+00 0.24453915E+03</pdfrwt>
<totfact> 0.11604970E+04</totfact>
</mgrwt>
</event>
<event>
 4    1  0.4111182E+000  0.2011380E+03  0.7546771E-02  0.1148782E+00
         21   -1    0    0  501  502  0.00000000000E+00  0.00000000000E+00  0.42958219946E+03  0.42958219946E+03  0.00000000000E+00 0. -1.
         21   -1    0    0  502  503 -0.00000000000E+00 -0.00000000000E+00 -0.10784328266E+03  0.10784328266E+03  0.00000000000E+00 0. -1.
          6    1    1    2  501    0 -0.70437366417E+02 -0.74606148888E+02  0.25652863268E+03  0.32598073474E+03  0.17300000000E+03 0. -1.
         -6    1    1    2    0  503  0.70437366417E+02  0.74606148888E+02  0.65210284120E+02  0.21144474738E+03  0.17300000000E+03 0. -1.
<mgrwt>
<rscale>  2 0.20113801E+03</rscale>
<asrwt>0</asrwt>
<pdfrwt beam="1">  1       21 0.66089568E-01 0.20113801E+03</pdfrwt>
<pdfrwt beam="2">  1       21 0.16591274E-01 0.20113801E+03</pdfrwt>
<totfact> 0.68308550E+04</totfact>
</mgrwt>
</event>
<event>
 4    1  0.4111182E+000  0.1877256E+03  0.7546771E-02  0.1160529E+00
         21   -1    0    0  501  502  0.00000000000E+00  0.00000000000E+00  0.72985324093E+02  0.72985324093E+02  0.00000000000E+00 0.  1.
         21   -1    0    0  502  503 -0.00000000000E+00 -0.00000000000E+00 -0.80381216474E+03  0.80381216474E+03  0.00000000000E+00 0.  1.
          6    1    1    2  501    0 -0.57189798798E+02  0.45179993677E+02 -0.88388090934E+02  0.20749303491E+03  0.17300000000E+03 0.  1.
         -6    1    1    2    0  503  0.57189798798E+02 -0.45179993677E+02 -0.64243874972E+03  0.66930445393E+03  0.17300000000E+03 0.  1.
<mgrwt>
<rscale>  2 0.18772561E+03</rscale>
<asrwt>0</asrwt>
<pdfrwt beam="1">  1       21 0.11228512E-01 0.18772561E+03</pdfrwt>
<pdfrwt beam="2">  1       21 0.12366341E+00 0.18772561E+03</pdfrwt>
<totfact> 0.32467998E+04</totfact>
</mgrwt>
</event>
<event>
 4    1  0.4111182E+000  0.2734962E+03  0.7546771E-02  0.1099295E+00
         21   -1    0    0  503  502  0.00000000000E+00  0.00000000000E+00  0.34697029817E+03  0.34697029817E+03  0.00000000000E+00 0.  1.
         21   -1    0    0  501  503 -0.00000000000E+00 -0.00000000000E+00 -0.37230211726E+03  0.37230211726E+03  0.00000000000E+00 0.  1.
          6    1    1    2  501    0  0.19976081321E+03 -0.70475379171E+02 -0.24600074701E+03  0.36785395076E+03  0.17300000000E+03 0.  1.
         -6    1    1    2    0  502 -0.19976081321E+03  0.70475379171E+02  0.22066892792E+03  0.35141846467E+03  0.17300000000E+03 0.  1.
<mgrwt>
<rscale>  2 0.27349618E+03</rscale>
<asrwt>0</asrwt>
<pdfrwt beam="1">  1       21 0.53380046E-01 0.27349618E+03</pdfrwt>
<pdfrwt beam="2">  1       21 0.57277249E-01 0.27349618E+03</pdfrwt>
<totfact> 0.90555206E+03</totfact>
</mgrwt>
</event>
<event>
 4    1  0.4111182E+000  0.2257012E+03  0.7546771E-02  0.1129703E+00
         21   -1    0    0  501  502  0.00000000000E+00  0.00000000000E+00  0.38314196704E+03  0.38314196704E+03  0.00000000000E+00 0. -1.
         21   -1    0    0  502  503 -0.00000000000E+00 -0.00000000000E+00 -0.20293871042E+03  0.20293871042E+03  0.00000000000E+00 0. -1.
          6    1    1    2  501    0 -0.28495242014E+02  0.14212691439E+03  0.26218551853E+03  0.34595127509E+03  0.17300000000E+03 0. -1.
         -6    1    1    2    0  503  0.28495242014E+02 -0.14212691439E+03 -0.81982261910E+02  0.24012940236E+03  0.17300000000E+03 0. -1.
<mgrwt>
<rscale>  2 0.22570122E+03</rscale>
<asrwt>0</asrwt>
<pdfrwt beam="1">  1       21 0.58944918E-01 0.22570122E+03</pdfrwt>
<pdfrwt beam="2">  1       21 0.31221340E-01 0.22570122E+03</pdfrwt>
<totfact> 0.26057656E+04</totfact>
</mgrwt>
</event>
<event>
 4    1  0.4111182E+000  0.2003203E+03  0.7546771E-02  0.1149469E+00
         21   -1    0    0  501  502  0.00000000000E+00  0.00000000000E+00  0.85725928221E+03  0.85725928221E+03  0.00000000000E+00 0.  1.
         21   -1    0    0  502  503 -0.00000000000E+00 -0.00000000000E+00 -0.75640433558E+02  0.75640433558E+02  0.00000000000E+00 0. -1.
          6    1    1    2  501    0 -0.41835228695E+02  0.91918724271E+02  0.67878400282E+03  0.70772590790E+03  0.17300000000E+03 0.  1.
         -6    1    1    2    0  503  0.41835228695E+02 -0.91918724271E+02  0.10283484583E+03  0.22517380787E+03  0.17300000000E+03 0. -1.
<mgrwt>
<rscale>  2 0.20032034E+03</rscale>
<asrwt>0</asrwt>
<pdfrwt beam="1">  1       21 0.13188604E+00 0.20032034E+03</pdfrwt>
<pdfrwt beam="2">  1       21 0.11636990E-01 0.20032034E+03</pdfrwt>
<totfact> 0.25715808E+04</totfact>
</mgrwt>
</event>
<event>
 4    1  0.4111182E+000  0.2045896E+03  0.7546771E-02  0.1145924E+00
         21   -1    0    0  501  502  0.00000000000E+00  0.00000000000E+00  0.17377107549E+03  0.17377107549E+03  0.00000000000E+00 0.  1.
         21   -1    0    0  502  503 -0.00000000000E+00 -0.00000000000E+00 -0.90559464783E+03  0.90559464783E+03  0.00000000000E+00 0. -1.
          6    1    1    2  501    0 -0.82978616588E+02 -0.71010263201E+02  0.96460011154E+02  0.22618895208E+03  0.17300000000E+03 0.  1.
         -6    1    1    2    0  503  0.82978616588E+02  0.71010263201E+02 -0.82828358350E+03  0.85317677124E+03  0.17300000000E+03 0. -1.
<mgrwt>
<rscale>  2 0.20458961E+03</rscale>
<asrwt>0</asrwt>
<pdfrwt beam="1">  1       21 0.26734011E-01 0.20458961E+03</pdfrwt>
<pdfrwt beam="2">  1       21 0.13932226E+00 0.20458961E+03</pdfrwt>
<totfact> 0.47791476E+03</totfact>
</mgrwt>
</event>
<event>
 4    1  0.4111182E+000  0.2029517E+03  0.7546771E-02  0.1147272E+00
         21   -1    0    0  503  502  0.00000000000E+00  0.00000000000E+00  0.39298280179E+03  0.39298280179E+03  0.00000000000E+00 0.  1.
         21   -1    0    0  501  503 -0.00000000000E+00 -0.00000000000E+00 -0.11585782651E+03  0.11585782651E+03  0.00000000000E+00 0. -1.
          6    1    1    2  501    0  0.99109932236E+02  0.37916117929E+02  0.60005767943E+02  0.21163672378E+03  0.17300000000E+03 0. -1.
         -6    1    1    2    0  502 -0.99109932236E+02 -0.37916117929E+02  0.21711920734E+03  0.29720390452E+03  0.17300000000E+03 0. -1.
<mgrwt>
<rscale>  2 0.20295174E+03</rscale>
<asrwt>0</asrwt>
<pdfrwt beam="1">  1       21 0.60458892E-01 0.20295174E+03</pdfrwt>
<pdfrwt beam="2">  1       21 0.17824281E-01 0.20295174E+03</pdfrwt>
<totfact> 0.72543133E+04</totfact>
</mgrwt>
</event>
<event>
 4    1  0.4111182E+000  0.2528525E+03  0.7546771E-02  0.1111515E+00
         21   -1    0    0  503  502  0.00000000000E+00  0.00000000000E+00  0.22559594693E+04  0.22559594693E+04  0.00000000000E+00 0.  1.
         21   -1    0    0  501  503 -0.00000000000E+00 -0.00000000000E+00 -0.31083279004E+02  0.31083279004E+02  0.00000000000E+00 0.  1.
          6    1    1    2  501    0  0.17736275325E+03  0.50476009745E+02  0.77273544512E+03  0.81305254562E+03  0.17300000000E+03 0.  1.
         -6    1    1    2    0  502 -0.17736275325E+03 -0.50476009745E+02  0.14521407452E+04  0.14739902027E+04  0.17300000000E+03 0.  1.
<mgrwt>
<rscale>  2 0.25285247E+03</rscale>
<asrwt>0</asrwt>
<pdfrwt beam="1">  1       21 0.34707056E+00 0.25285247E+03</pdfrwt>
<pdfrwt beam="2">  1       21 0.47820447E-02 0.25285247E+03</pdfrwt>
<totfact> 0.49385103E+03</totfact>
</mgrwt>
</event>
<event>
 4    1  0.4111182E+000  0.2234757E+03  0.7546771E-02  0.1131318E+00
         21   -1    0    0  503  502  0.00000000000E+00  0.00000000000E+00  0.10070556754E+04  0.10070556754E+04  0.00000000000E+00 0. -1.
         21   -1    0    0  501  503 -0.00000000000E+00 -0.00000000000E+00 -0.60662097434E+02  0.60662097434E+02  0.00000000000E+00 0. -1.
          6    1    1    2  501    0 -0.11254261241E+03  0.85712034694E+02  0.24513450456E+03  0.33171119641E+03  0.17300000000E+03 0. -1.
         -6    1    1    2    0  502  0.11254261241E+03 -0.85712034694E+02  0.70125907340E+03  0.73600657641E+03  0.17300000000E+03 0. -1.
<mgrwt>
<rscale>  2 0.22347571E+03</rscale>
<asrwt>0</asrwt>
<pdfrwt beam="1">  1       21 0.15493163E+00 0.22347571E+03</pdfrwt>
<pdfrwt beam="2">  1       21 0.93326311E-02 0.22347571E+03</pdfrwt>
<totfact> 0.24663283E+04</totfact>
</mgrwt>
</event>
<event>
 4    1  0.4111182E+000  0.1756788E+03  0.7546771E-02  0.1172052E+00
         21   -1    0    0  501  502  0.00000000000E+00  0.00000000000E+00  0.50765436786E+02  0.50765436786E+02  0.00000000000E+00 0.  1.
         21   -1    0    0  502  503 -0.00000000000E+00 -0.00000000000E+00 -0.65057776060E+03  0.65057776060E+03  0.00000000000E+00 0.  1.
          6    1    1    2  501    0  0.30097173130E+02  0.53100476660E+01 -0.21014710817E+03  0.27390663283E+03  0.17300000000E+03 0. -1.
         -6    1    1    2    0  503 -0.30097173130E+02 -0.53100476660E+01 -0.38966521564E+03  0.42743656455E+03  0.17300000000E+03 0. -1.
<mgrwt>
<rscale>  2 0.17567879E+03</rscale>
<asrwt>0</asrwt>
<pdfrwt beam="1">  1       21 0.78100679E-02 0.17567879E+03</pdfrwt>
<pdfrwt beam="2">  1       21 0.10008888E+00 0.17567879E+03</pdfrwt>
<totfact> 0.10322362E+05</totfact>
</mgrwt>
</event>
<event>
 4    1  0.4111182E+000  0.1810746E+03  0.7546771E-02  0.1166767E+00
         21   -1    0    0  501  502  0.00000000000E+00  0.00000000000E+00  0.39446082174E+03  0.39446082174E+03  0.00000000000E+00 0.  1.
         21   -1    0    0  502  503 -0.00000000000E+00 -0.00000000000E+00 -0.12734992681E+03  0.12734992681E+03  0.00000000000E+00 0.  1.
          6    1    1    2  501    0  0.62372678510E+01  0.53104825040E+02  0.28731293672E+03  0.33961264635E+03  0.17300000000E+03 0.  1.
         -6    1    1    2    0  503 -0.62372678510E+01 -0.53104825040E+02 -0.20202041785E+02  0.18219810220E+03  0.17300000000E+03 0.  1.
<mgrwt>
<rscale>  2 0.18107464E+03</rscale>
<asrwt>0</asrwt>
<pdfrwt beam="1">  1       21 0.60686280E-01 0.18107464E+03</pdfrwt>
<pdfrwt beam="2">  1       21 0.19592297E-01 0.18107464E+03</pdfrwt>
<totfact> 0.60970540E+04</totfact>
</mgrwt>
</event>
<event>
 4    1  0.4111182E+000  0.3387706E+03  0.7546771E-02  0.1067321E+00
         21   -1    0    0  501  502  0.00000000000E+00  0.00000000000E+00  0.24166716293E+03  0.24166716293E+03  0.00000000000E+00 0.  1.
         21   -1    0    0  502  503 -0.00000000000E+00 -0.00000000000E+00 -0.76465891817E+03  0.76465891817E+03  0.00000000000E+00 0.  1.
          6    1    1    2  501    0  0.25931095399E+03 -0.13264377361E+03  0.48246097568E+02  0.34218887689E+03  0.17300000000E+03 0.  1.
         -6    1    1    2    0  503 -0.25931095399E+03  0.13264377361E+03 -0.57123785280E+03  0.66413720421E+03  0.17300000000E+03 0.  1.
<mgrwt>
<rscale>  2 0.33877063E+03</rscale>
<asrwt>0</asrwt>
<pdfrwt beam="1">  1       21 0.37179564E-01 0.33877063E+03</pdfrwt>
<pdfrwt beam="2">  1       21 0.11763983E+00 0.33877063E+03</pdfrwt>
<totfact> 0.35236249E+03</totfact>
</mgrwt>
</event>
<event>
 4    1  0.4111182E+000  0.1842842E+03  0.7546771E-02  0.1163720E+00
         21   -1    0    0  503  502  0.00000000000E+00  0.00000000000E+00  0.16567782891E+04  0.16567782891E+04  0.00000000000E+00 0. -1.
         21   -1    0    0  501  503 -0.00000000000E+00 -0.00000000000E+00 -0.21668209568E+02  0.21668209568E+02  0.00000000000E+00 0.  1.
          6    1    1    2  501    0 -0.63494654069E+02 -0.29792712704E+00  0.62252758857E+03  0.64923128266E+03  0.17300000000E+03 0.  1.
         -6    1    1    2    0  502  0.63494654069E+02  0.29792712704E+00  0.10125824910E+04  0.10292152160E+04  0.17300000000E+03 0. -1.
<mgrwt>
<rscale>  2 0.18428418E+03</rscale>
<asrwt>0</asrwt>
<pdfrwt beam="1">  1       21 0.25488887E+00 0.18428418E+03</pdfrwt>
<pdfrwt beam="2">  1       21 0.33335720E-02 0.18428418E+03</pdfrwt>
<totfact> 0.33297244E+04</totfact>
</mgrwt>
</event>
<event>
 4    1  0.4111182E+000  0.2108800E+03  0.7546771E-02  0.1140871E+00
         21   -1    0    0  501  502  0.00000000000E+00  0.00000000000E+00  0.21226904232E+03  0.21226904232E+03  0.00000000000E+00 0. -1.
         21   -1    0    0  502  503 -0.00000000000E+00 -0.00000000000E+00 -0.39150889685E+03  0.39150889685E+03  0.00000000000E+00 0. -1.
          6    1    1    2  501    0  0.90556525895E+01  0.12024711887E+03  0.11621671052E+03  0.24078350908E+03  0.17300000000E+03 0. -1.
         -6    1    1    2    0  503 -0.90556525895E+01 -0.12024711887E+03 -0.29545656505E+03  0.36299443008E+03  0.17300000000E+03 0. -1.
<mgrwt>
<rscale>  2 0.21088000E+03</rscale>
<asrwt>0</asrwt>
<pdfrwt beam="1">  1       21 0.32656776E-01 0.21088000E+03</pdfrwt>
<pdfrwt beam="2">  1       21 0.60232138E-01 0.21088000E+03</pdfrwt>
<totfact> 0.22948047E+04</totfact>
</mgrwt>
</event>
<event>
 4    1  0.4111182E+000  0.1733873E+03  0.7546771E-02  0.1174361E+00
         21   -1    0    0  503  502  0.00000000000E+00  0.00000000000E+00  0.98226334260E+02  0.98226334260E+02  0.00000000000E+00 0.  1.
         21   -1    0    0  501  503 -0.00000000000E+00 -0.00000000000E+00 -0.48966488376E+03  0.48966488376E+03  0.00000000000E+00 0.  1.
          6    1    1    2  501    0 -0.11573388656E+02 -0.44930845253E+00 -0.37571396417E+03  0.41379237314E+03  0.17300000000E+03 0.  1.
         -6    1    1    2    0  502  0.11573388656E+02  0.44930845253E+00 -0.15724585334E+02  0.17409884488E+03  0.17300000000E+03 0.  1.
<mgrwt>
<rscale>  2 0.17338727E+03</rscale>
<asrwt>0</asrwt>
<pdfrwt beam="1">  1       21 0.15111744E-01 0.17338727E+03</pdfrwt>
<pdfrwt beam="2">  1       21 0.75333060E-01 0.17338727E+03</pdfrwt>
<totfact> 0.61469698E+04</totfact>
</mgrwt>
</event>
<event>
 4    1  0.4111182E+000  0.1742041E+03  0.7546771E-02  0.1173533E+00
         21   -1    0    0  501  502  0.00000000000E+00  0.00000000000E+00  0.20405003005E+03  0.20405003005E+03  0.00000000000E+00 0.  1.
         21   -1    0    0  502  503 -0.00000000000E+00 -0.00000000000E+00 -0.23153592605E+03  0.23153592605E+03  0.00000000000E+00 0.  1.
          6    1    1    2  501    0 -0.12264859229E+02  0.16360250017E+02  0.11650826972E+03  0.20957399998E+03  0.17300000000E+03 0.  1.
         -6    1    1    2    0  503  0.12264859229E+02 -0.16360250017E+02 -0.14399416571E+03  0.22601195613E+03  0.17300000000E+03 0.  1.
<mgrwt>
<rscale>  2 0.17420415E+03</rscale>
<asrwt>0</asrwt>
<pdfrwt beam="1">  1       21 0.31392312E-01 0.17420415E+03</pdfrwt>
<pdfrwt beam="2">  1       21 0.35620912E-01 0.17420415E+03</pdfrwt>
<totfact> 0.74685250E+04</totfact>
</mgrwt>
</event>
<event>
 4    1  0.4111182E+000  0.3066714E+03  0.7546771E-02  0.1081952E+00
         21   -1    0    0  501  502  0.00000000000E+00  0.00000000000E+00  0.10837527653E+03  0.10837527653E+03  0.00000000000E+00 0. -1.
         21   -1    0    0  502  503 -0.00000000000E+00 -0.00000000000E+00 -0.18453686757E+04  0.18453686757E+04  0.00000000000E+00 0. -1.
          6    1    1    2  501    0  0.20830863599E+03  0.14396473799E+03 -0.15749405459E+03  0.34474876482E+03  0.17300000000E+03 0. -1.
         -6    1    1    2    0  503 -0.20830863599E+03 -0.14396473799E+03 -0.15794993445E+04  0.16089951874E+04  0.17300000000E+03 0. -1.
<mgrwt>
<rscale>  2 0.30667138E+03</rscale>
<asrwt>0</asrwt>
<pdfrwt beam="1">  1       21 0.16673120E-01 0.30667138E+03</pdfrwt>
<pdfrwt beam="2">  1       21 0.28390287E+00 0.30667138E+03</pdfrwt>
<totfact> 0.12179029E+03</totfact>
</mgrwt>
</event>
<event>
 4    1  0.4111182E+000  0.2015792E+03  0.7546771E-02  0.1148413E+00
         21   -1    0    0  503  502  0.00000000000E+00  0.00000000000E+00  0.78213284982E+03  0.78213284982E+03  0.00000000000E+00 0. -1.
         21   -1    0    0  501  503 -0.00000000000E+00 -0.00000000000E+00 -0.59328919127E+02  0.59328919127E+02  0.00000000000E+00 0. -1.
          6    1    1    2  501    0 -0.27716825796E+01  0.10342876273E+03  0.21305535722E+03  0.29330321584E+03  0.17300000000E+03 0. -1.
         -6    1    1    2    0  502  0.27716825796E+01 -0.10342876273E+03  0.50974857348E+03  0.54815855311E+03  0.17300000000E+03 0. -1.
<mgrwt>
<rscale>  2 0.20157924E+03</rscale>
<asrwt>0</asrwt>
<pdfrwt beam="1">  1       21 0.12032812E+00 0.20157924E+03</pdfrwt>
<pdfrwt beam="2">  1       21 0.91275266E-02 0.20157924E+03</pdfrwt>
<totfact> 0.49750635E+04</totfact>
</mgrwt>
</event>
<event>
 4    1  0.4111182E+000  0.3533543E+03  0.7546771E-02  0.1061247E+00
         21   -1    0    0  503  502  0.00000000000E+00  0.00000000000E+00  0.61540325001E+02  0.61540325001E+02  0.00000000000E+00 0.  1.
         21   -1    0    0  501  503 -0.00000000000E+00 -0.00000000000E+00 -0.20735475350E+04  0.20735475350E+04  0.00000000000E+00 0. -1.
          6    1    1    2  501    0 -0.30750974402E+03 -0.19184282438E+02 -0.11626493106E+04  0.12151595364E+04  0.17300000000E+03 0. -1.
         -6    1    1    2    0  502  0.30750974402E+03  0.19184282438E+02 -0.84935789932E+03  0.91992832356E+03  0.17300000000E+03 0. -1.
<mgrwt>
<rscale>  2 0.35335433E+03</rscale>
<asrwt>0</asrwt>
<pdfrwt beam="1">  1       21 0.94677418E-02 0.35335433E+03</pdfrwt>
<pdfrwt beam="2">  1       21 0.31900733E+00 0.35335433E+03</pdfrwt>
<totfact> 0.20388387E+03</totfact>
</mgrwt>
</event>
<event>
 4    1  0.4111182E+000  0.2009415E+03  0.7546771E-02  0.1148947E+00
         21   -1    0    0  501  502  0.00000000000E+00  0.00000000000E+00  0.19083115812E+03  0.19083115812E+03  0.00000000000E+00 0.  1.
         21   -1    0    0  502  503 -0.00000000000E+00 -0.00000000000E+00 -0.21597912945E+03  0.21597912945E+03  0.00000000000E+00 0.  1.
          6    1    1    2  501    0 -0.11833013173E+02  0.10153057918E+03  0.16430903097E+02  0.20161213576E+03  0.17300000000E+03 0.  1.
         -6    1    1    2    0  503  0.11833013173E+02 -0.10153057918E+03 -0.41578874423E+02  0.20519815181E+03  0.17300000000E+03 0.  1.
<mgrwt>
<rscale>  2 0.20094148E+03</rscale>
<asrwt>0</asrwt>
<pdfrwt beam="1">  1       21 0.29358640E-01 0.20094148E+03</pdfrwt>
<pdfrwt beam="2">  1       21 0.33227558E-01 0.20094148E+03</pdfrwt>
<totfact> 0.96606211E+04</totfact>
</mgrwt>
</event>
<event>
 4    1  0.4111182E+000  0.1987702E+03  0.7546771E-02  0.1150781E+00
         21   -1    0    0  501  502  0.00000000000E+00  0.00000000000E+00  0.13469668860E+03  0.13469668860E+03  0.00000000000E+00 0.  1.
         21   -1    0    0  502  503 -0.00000000000E+00 -0.00000000000E+00 -0.38540072703E+03  0.38540072703E+03  0.00000000000E+00 0. -1.
          6    1    1    2  501    0 -0.90903563843E+02  0.36292535558E+02  0.17569709509E+01  0.19877799929E+03  0.17300000000E+03 0.  1.
         -6    1    1    2    0  503  0.90903563843E+02 -0.36292535558E+02 -0.25246100938E+03  0.32131941634E+03  0.17300000000E+03 0.  1.
<mgrwt>
<rscale>  2 0.19877023E+03</rscale>
<asrwt>0</asrwt>
<pdfrwt beam="1">  1       21 0.20722567E-01 0.19877023E+03</pdfrwt>
<pdfrwt beam="2">  1       21 0.59292420E-01 0.19877023E+03</pdfrwt>
<totfact> 0.57246426E+04</totfact>
</mgrwt>
</event>
<event>
 4    1  0.4111182E+000  0.1887968E+03  0.7546771E-02  0.1159551E+00
         21   -1    0    0  501  502  0.00000000000E+00  0.00000000000E+00  0.11838263694E+03  0.11838263694E+03  0.00000000000E+00 0. -1.
         21   -1    0    0  502  503 -0.00000000000E+00 -0.00000000000E+00 -0.30254700837E+03  0.30254700837E+03  0.00000000000E+00 0.  1.
          6    1    1    2  501    0 -0.36679237049E+02  0.66104965402E+02 -0.77493909233E+02  0.20408218651E+03  0.17300000000E+03 0.  1.
         -6    1    1    2    0  503  0.36679237049E+02 -0.66104965402E+02 -0.10667046220E+03  0.21684745880E+03  0.17300000000E+03 0.  1.
<mgrwt>
<rscale>  2 0.18879680E+03</rscale>
<asrwt>0</asrwt>
<pdfrwt beam="1">  1       21 0.18212713E-01 0.18879680E+03</pdfrwt>
<pdfrwt beam="2">  1       21 0.46545694E-01 0.18879680E+03</pdfrwt>
<totfact> 0.12160442E+05</totfact>
</mgrwt>
</event>
<event>
 4    1  0.4111182E+000  0.2148974E+03  0.7546771E-02  0.1137745E+00
         21   -1    0    0  501  502  0.00000000000E+00  0.00000000000E+00  0.46857902318E+03  0.46857902318E+03  0.00000000000E+00 0. -1.
         21   -1    0    0  502  503 -0.00000000000E+00 -0.00000000000E+00 -0.31790806879E+03  0.31790806879E+03  0.00000000000E+00 0.  1.
          6    1    1    2  501    0  0.12357308320E+03 -0.31330456597E+02  0.40198533753E+03  0.45582136412E+03  0.17300000000E+03 0. -1.
         -6    1    1    2    0  503 -0.12357308320E+03  0.31330456597E+02 -0.25131438314E+03  0.33066572785E+03  0.17300000000E+03 0.  1.
<mgrwt>
<rscale>  2 0.21489743E+03</rscale>
<asrwt>0</asrwt>
<pdfrwt beam="1">  1       21 0.72089080E-01 0.21489743E+03</pdfrwt>
<pdfrwt beam="2">  1       21 0.48908934E-01 0.21489743E+03</pdfrwt>
<totfact> 0.68164786E+03</totfact>
</mgrwt>
</event>
<event>
 4    1  0.4111182E+000  0.2776768E+03  0.7546771E-02  0.1096965E+00
         21   -1    0    0  501  502  0.00000000000E+00  0.00000000000E+00  0.36367545405E+03  0.36367545405E+03  0.00000000000E+00 0. -1.
         21   -1    0    0  502  503 -0.00000000000E+00 -0.00000000000E+00 -0.23405547372E+03  0.23405547372E+03  0.00000000000E+00 0.  1.
          6    1    1    2  501    0  0.16893212225E+03 -0.13651856534E+03  0.15652367204E+03  0.31875388707E+03  0.17300000000E+03 0. -1.
         -6    1    1    2    0  503 -0.16893212225E+03  0.13651856534E+03 -0.26903691706E+02  0.27897704070E+03  0.17300000000E+03 0.  1.
<mgrwt>
<rscale>  2 0.27767676E+03</rscale>
<asrwt>0</asrwt>
<pdfrwt beam="1">  1       21 0.55950070E-01 0.27767676E+03</pdfrwt>
<pdfrwt beam="2">  1       21 0.36008534E-01 0.27767676E+03</pdfrwt>
<totfact> 0.21425212E+04</totfact>
</mgrwt>
</event>
<event>
 4    1  0.4111182E+000  0.2525705E+03  0.7546771E-02  0.1111691E+00
         21   -1    0    0  503  502  0.00000000000E+00  0.00000000000E+00  0.93035729587E+03  0.93035729587E+03  0.00000000000E+00 0.  1.
         21   -1    0    0  501  503 -0.00000000000E+00 -0.00000000000E+00 -0.99105047741E+02  0.99105047741E+02  0.00000000000E+00 0. -1.
          6    1    1    2  501    0  0.82229806631E+02  0.16462411364E+03  0.12989800738E+03  0.28401642948E+03  0.17300000000E+03 0. -1.
         -6    1    1    2    0  502 -0.82229806631E+02 -0.16462411364E+03  0.70135424074E+03  0.74544591413E+03  0.17300000000E+03 0.  1.
<mgrwt>
<rscale>  2 0.25257047E+03</rscale>
<asrwt>0</asrwt>
<pdfrwt beam="1">  1       21 0.14313189E+00 0.25257047E+03</pdfrwt>
<pdfrwt beam="2">  1       21 0.15246931E-01 0.25257047E+03</pdfrwt>
<totfact> 0.12375264E+04</totfact>
</mgrwt>
</event>
<event>
 4    1  0.4111182E+000  0.1907307E+03  0.7546771E-02  0.1157804E+00
         21   -1    0    0  501  502  0.00000000000E+00  0.00000000000E+00  0.13127892592E+03  0.13127892592E+03  0.00000000000E+00 0.  1.
         21   -1    0    0  502  503 -0.00000000000E+00 -0.00000000000E+00 -0.37585714086E+03  0.37585714086E+03  0.00000000000E+00 0. -1.
          6    1    1    2  501    0 -0.64352761464E+02 -0.48040789652E+02  0.76841100190E+01  0.19088541308E+03  0.17300000000E+03 0.  1.
         -6    1    1    2    0  503  0.64352761464E+02  0.48040789652E+02 -0.25226232496E+03  0.31625065371E+03  0.17300000000E+03 0. -1.
<mgrwt>
<rscale>  2 0.19073069E+03</rscale>
<asrwt>0</asrwt>
<pdfrwt beam="1">  1       21 0.20196758E-01 0.19073069E+03</pdfrwt>
<pdfrwt beam="2">  1       21 0.57824174E-01 0.19073069E+03</pdfrwt>
<totfact> 0.63616879E+04</totfact>
</mgrwt>
</event>
<event>
 4    1  0.4111182E+000  0.2058232E+03  0.7546771E-02  0.1144917E+00
         21   -1    0    0  503  502  0.00000000000E+00  0.00000000000E+00  0.18361448067E+03  0.18361448067E+03  0.00000000000E+00 0. -1.
         21   -1    0    0  501  503 -0.00000000000E+00 -0.00000000000E+00 -0.23124196398E+03  0.23124196398E+03  0.00000000000E+00 0. -1.
          6    1    1    2  501    0 -0.10173736400E+03 -0.45647398274E+02 -0.13940457330E+02  0.20629472256E+03  0.17300000000E+03 0. -1.
         -6    1    1    2    0  502  0.10173736400E+03  0.45647398274E+02 -0.33687025980E+02  0.20856172209E+03  0.17300000000E+03 0. -1.
<mgrwt>
<rscale>  2 0.20582317E+03</rscale>
<asrwt>0</asrwt>
<pdfrwt beam="1">  1       21 0.28248382E-01 0.20582317E+03</pdfrwt>
<pdfrwt beam="2">  1       21 0.35575687E-01 0.20582317E+03</pdfrwt>
<totfact> 0.90750825E+04</totfact>
</mgrwt>
</event>
<event>
 4    1  0.4111182E+000  0.2741026E+03  0.7546771E-02  0.1098954E+00
         21   -1    0    0  503  502  0.00000000000E+00  0.00000000000E+00  0.13417101266E+04  0.13417101266E+04  0.00000000000E+00 0.  1.
         21   -1    0    0  501  503 -0.00000000000E+00 -0.00000000000E+00 -0.33578211576E+03  0.33578211576E+03  0.00000000000E+00 0. -1.
          6    1    1    2  501    0  0.98559696609E+02 -0.18838578857E+03 -0.26265687901E+03  0.37963252656E+03  0.17300000000E+03 0. -1.
         -6    1    1    2    0  502 -0.98559696609E+02  0.18838578857E+03  0.12685848899E+04  0.12978597158E+04  0.17300000000E+03 0.  1.
<mgrwt>
<rscale>  2 0.27410257E+03</rscale>
<asrwt>0</asrwt>
<pdfrwt beam="1">  1       21 0.20641694E+00 0.27410257E+03</pdfrwt>
<pdfrwt beam="2">  1       21 0.51658788E-01 0.27410257E+03</pdfrwt>
<totfact> 0.39912573E+02</totfact>
</mgrwt>
</event>
<event>
 4    1  0.4111182E+000  0.1942945E+03  0.7546771E-02  0.1154644E+00
         21   -1    0    0  503  502  0.00000000000E+00  0.00000000000E+00  0.17333797995E+04  0.17333797995E+04  0.00000000000E+00 0. -1.
         21   -1    0    0  501  503 -0.00000000000E+00 -0.00000000000E+00 -0.28124361229E+02  0.28124361229E+02  0.00000000000E+00 0.  1.
          6    1    1    2  501    0  0.74761485660E+02 -0.47244936992E+02  0.43425960258E+03  0.47574338276E+03  0.17300000000E+03 0.  1.
         -6    1    1    2    0  502 -0.74761485660E+02  0.47244936992E+02  0.12709958356E+04  0.12857607779E+04  0.17300000000E+03 0. -1.
<mgrwt>
<rscale>  2 0.19429453E+03</rscale>
<asrwt>0</asrwt>
<pdfrwt beam="1">  1       21 0.26667373E+00 0.19429453E+03</pdfrwt>
<pdfrwt beam="2">  1       21 0.43268262E-02 0.19429453E+03</pdfrwt>
<totfact> 0.18222533E+04</totfact>
</mgrwt>
</event>
<event>
 4    1  0.4111182E+000  0.3516826E+03  0.7546771E-02  0.1061927E+00
         21   -1    0    0  503  502  0.00000000000E+00  0.00000000000E+00  0.10664551930E+04  0.10664551930E+04  0.00000000000E+00 0. -1.
         21   -1    0    0  501  503 -0.00000000000E+00 -0.00000000000E+00 -0.13404359384E+03  0.13404359384E+03  0.00000000000E+00 0.  1.
          6    1    1    2  501    0  0.17581666989E+03 -0.25067933411E+03  0.24581782002E+03  0.42907695184E+03  0.17300000000E+03 0.  1.
         -6    1    1    2    0  502 -0.17581666989E+03  0.25067933411E+03  0.68659377917E+03  0.77142183503E+03  0.17300000000E+03 0. -1.
<mgrwt>
<rscale>  2 0.35168257E+03</rscale>
<asrwt>0</asrwt>
<pdfrwt beam="1">  1       21 0.16407002E+00 0.35168257E+03</pdfrwt>
<pdfrwt beam="2">  1       21 0.20622092E-01 0.35168257E+03</pdfrwt>
<totfact> 0.46271025E+03</totfact>
</mgrwt>
</event>
<event>
 4    1  0.4111182E+000  0.1960347E+03  0.7546771E-02  0.1153128E+00
         21   -1    0    0  503  502  0.00000000000E+00  0.00000000000E+00  0.17886744680E+03  0.17886744680E+03  0.00000000000E+00 0. -1.
         21   -1    0    0  501  503 -0.00000000000E+00 -0.00000000000E+00 -0.23270176256E+03  0.23270176256E+03  0.00000000000E+00 0. -1.
          6    1    1    2  501    0 -0.86429317185E+02  0.32102398420E+02 -0.83915082398E+02  0.21324008044E+03  0.17300000000E+03 0. -1.
         -6    1    1    2    0  502  0.86429317185E+02 -0.32102398420E+02  0.30080766637E+02  0.19832912891E+03  0.17300000000E+03 0. -1.
<mgrwt>
<rscale>  2 0.19603467E+03</rscale>
<asrwt>0</asrwt>
<pdfrwt beam="1">  1       21 0.27518069E-01 0.19603467E+03</pdfrwt>
<pdfrwt beam="2">  1       21 0.35800271E-01 0.19603467E+03</pdfrwt>
<totfact> 0.94663134E+04</totfact>
</mgrwt>
</event>
<event>
 4    1  0.4111182E+000  0.1894780E+03  0.7546771E-02  0.1158933E+00
         21   -1    0    0  503  502  0.00000000000E+00  0.00000000000E+00  0.40463170588E+03  0.40463170588E+03  0.00000000000E+00 0. -1.
         21   -1    0    0  501  503 -0.00000000000E+00 -0.00000000000E+00 -0.10020233223E+03  0.10020233223E+03  0.00000000000E+00 0. -1.
          6    1    1    2  501    0 -0.57097677351E+02 -0.52084408065E+02  0.66795729854E+02  0.20090694326E+03  0.17300000000E+03 0.  1.
         -6    1    1    2    0  502  0.57097677351E+02  0.52084408065E+02  0.23763364379E+03  0.30392709485E+03  0.17300000000E+03 0.  1.
<mgrwt>
<rscale>  2 0.18947805E+03</rscale>
<asrwt>0</asrwt>
<pdfrwt beam="1">  1       21 0.62251031E-01 0.18947805E+03</pdfrwt>
<pdfrwt beam="2">  1       21 0.15415744E-01 0.18947805E+03</pdfrwt>
<totfact> 0.89446190E+04</totfact>
</mgrwt>
</event>
<event>
 4    1  0.4111182E+000  0.2976143E+03  0.7546771E-02  0.1086439E+00
         21   -1    0    0  503  502  0.00000000000E+00  0.00000000000E+00  0.88818431280E+03  0.88818431280E+03  0.00000000000E+00 0.  1.
         21   -1    0    0  501  503 -0.00000000000E+00 -0.00000000000E+00 -0.10311168037E+03  0.10311168037E+03  0.00000000000E+00 0. -1.
          6    1    1    2  501    0  0.24124080420E+03  0.21169951706E+02  0.48236156974E+03  0.56678653515E+03  0.17300000000E+03 0. -1.
         -6    1    1    2    0  502 -0.24124080420E+03 -0.21169951706E+02  0.30271106269E+03  0.42450945801E+03  0.17300000000E+03 0.  1.
<mgrwt>
<rscale>  2 0.29761434E+03</rscale>
<asrwt>0</asrwt>
<pdfrwt beam="1">  1       21 0.13664374E+00 0.29761434E+03</pdfrwt>
<pdfrwt beam="2">  1       21 0.15863336E-01 0.29761434E+03</pdfrwt>
<totfact> 0.12689865E+04</totfact>
</mgrwt>
</event>
<event>
 4    1  0.4111182E+000  0.2099658E+03  0.7546771E-02  0.1141593E+00
         21   -1    0    0  501  502  0.00000000000E+00  0.00000000000E+00  0.60069884021E+03  0.60069884021E+03  0.00000000000E+00 0.  1.
         21   -1    0    0  502  503 -0.00000000000E+00 -0.00000000000E+00 -0.84050229508E+02  0.84050229508E+02  0.00000000000E+00 0.  1.
          6    1    1    2  501    0 -0.11488212690E+03 -0.30963525095E+02  0.38025224624E+03  0.43437013449E+03  0.17300000000E+03 0.  1.
         -6    1    1    2    0  503  0.11488212690E+03  0.30963525095E+02  0.13639636447E+03  0.25037893523E+03  0.17300000000E+03 0.  1.
<mgrwt>
<rscale>  2 0.20996581E+03</rscale>
<asrwt>0</asrwt>
<pdfrwt beam="1">  1       21 0.92415203E-01 0.20996581E+03</pdfrwt>
<pdfrwt beam="2">  1       21 0.12930805E-01 0.20996581E+03</pdfrwt>
<totfact> 0.50264946E+04</totfact>
</mgrwt>
</event>
<event>
 4    1  0.4111182E+000  0.1828065E+03  0.7546771E-02  0.1165114E+00
         21   -1    0    0  503  502  0.00000000000E+00  0.00000000000E+00  0.22618495274E+03  0.22618495274E+03  0.00000000000E+00 0. -1.
         21   -1    0    0  501  503 -0.00000000000E+00 -0.00000000000E+00 -0.15979460674E+03  0.15979460674E+03  0.00000000000E+00 0. -1.
          6    1    1    2  501    0  0.57238031179E+02 -0.14594852899E+02 -0.19795490984E+02  0.18387512993E+03  0.17300000000E+03 0. -1.
         -6    1    1    2    0  502 -0.57238031179E+02  0.14594852899E+02  0.86185836986E+02  0.20210442954E+03  0.17300000000E+03 0. -1.
<mgrwt>
<rscale>  2 0.18280646E+03</rscale>
<asrwt>0</asrwt>
<pdfrwt beam="1">  1       21 0.34797685E-01 0.18280646E+03</pdfrwt>
<pdfrwt beam="2">  1       21 0.24583786E-01 0.18280646E+03</pdfrwt>
<totfact> 0.12492135E+05</totfact>
</mgrwt>
</event>
<event>
 4    1  0.4111182E+000  0.1824654E+03  0.7546771E-02  0.1165438E+00
         21   -1    0    0  501  502  0.00000000000E+00  0.00000000000E+00  0.40580108742E+03  0.40580108742E+03  0.00000000000E+00 0.  1.
         21   -1    0    0  502  503 -0.00000000000E+00 -0.00000000000E+00 -0.11682425633E+03  0.11682425633E+03  0.00000000000E+00 0.  1.
          6    1    1    2  501    0 -0.40741601845E+02 -0.41288678231E+02  0.28706853795E+03  0.34014993539E+03  0.17300000000E+03 0. -1.
         -6    1    1    2    0  503  0.40741601845E+02  0.41288678231E+02  0.19082931505E+01  0.18247540835E+03  0.17300000000E+03 0. -1.
<mgrwt>
<rscale>  2 0.18246543E+03</rscale>
<asrwt>0</asrwt>
<pdfrwt beam="1">  1       21 0.62430936E-01 0.18246543E+03</pdfrwt>
<pdfrwt beam="2">  1       21 0.17972963E-01 0.18246543E+03</pdfrwt>
<totfact> 0.67266725E+04</totfact>
</mgrwt>
</event>
<event>
 4    1  0.4111182E+000  0.2867786E+03  0.7546771E-02  0.1092043E+00
         21   -1    0    0  503  502  0.00000000000E+00  0.00000000000E+00  0.15371847217E+03  0.15371847217E+03  0.00000000000E+00 0.  1.
         21   -1    0    0  501  503 -0.00000000000E+00 -0.00000000000E+00 -0.55198676875E+03  0.55198676875E+03  0.00000000000E+00 0.  1.
          6    1    1    2  501    0  0.18074778282E+03 -0.14015416375E+03 -0.13726548409E+03  0.31793672914E+03  0.17300000000E+03 0.  1.
         -6    1    1    2    0  502 -0.18074778282E+03  0.14015416375E+03 -0.26100281248E+03  0.38776851179E+03  0.17300000000E+03 0.  1.
<mgrwt>
<rscale>  2 0.28677857E+03</rscale>
<asrwt>0</asrwt>
<pdfrwt beam="1">  1       21 0.23648996E-01 0.28677857E+03</pdfrwt>
<pdfrwt beam="2">  1       21 0.84921041E-01 0.28677857E+03</pdfrwt>
<totfact> 0.19253954E+04</totfact>
</mgrwt>
</event>
<event>
 4    1  0.4111182E+000  0.2228701E+03  0.7546771E-02  0.1131761E+00
         21   -1    0    0  503  502  0.00000000000E+00  0.00000000000E+00  0.10176687178E+03  0.10176687178E+03  0.00000000000E+00 0. -1.
         21   -1    0    0  501  503 -0.00000000000E+00 -0.00000000000E+00 -0.57090366843E+03  0.57090366843E+03  0.00000000000E+00 0.  1.
          6    1    1    2  501    0 -0.52407461095E+02  0.13036686889E+03 -0.36266880510E+03  0.42567560968E+03  0.17300000000E+03 0.  1.
         -6    1    1    2    0  502  0.52407461095E+02 -0.13036686889E+03 -0.10646799155E+03  0.24699493053E+03  0.17300000000E+03 0. -1.
<mgrwt>
<rscale>  2 0.22287006E+03</rscale>
<asrwt>0</asrwt>
<pdfrwt beam="1">  1       21 0.15656442E-01 0.22287006E+03</pdfrwt>
<pdfrwt beam="2">  1       21 0.87831335E-01 0.22287006E+03</pdfrwt>
<totfact> 0.39702989E+04</totfact>
</mgrwt>
</event>
<event>
 4    1  0.4111182E+000  0.2349463E+03  0.7546771E-02  0.1123206E+00
         21   -1    0    0  503  502  0.00000000000E+00  0.00000000000E+00  0.36729752997E+03  0.36729752997E+03  0.00000000000E+00 0. -1.
         21   -1    0    0  501  503 -0.00000000000E+00 -0.00000000000E+00 -0.31683083729E+03  0.31683083729E+03  0.00000000000E+00 0. -1.
          6    1    1    2  501    0  0.23631662054E+02 -0.15720155837E+03 -0.22277087982E+03  0.32376944004E+03  0.17300000000E+03 0. -1.
         -6    1    1    2    0  502 -0.23631662054E+02  0.15720155837E+03  0.27323757250E+03  0.36035892722E+03  0.17300000000E+03 0. -1.
<mgrwt>
<rscale>  2 0.23494635E+03</rscale>
<asrwt>0</asrwt>
<pdfrwt beam="1">  1       21 0.56507312E-01 0.23494635E+03</pdfrwt>
<pdfrwt beam="2">  1       21 0.48743206E-01 0.23494635E+03</pdfrwt>
<totfact> 0.11523601E+04</totfact>
</mgrwt>
</event>
<event>
 4    1  0.4111182E+000  0.1806389E+03  0.7546771E-02  0.1167186E+00
         21   -1    0    0  501  502  0.00000000000E+00  0.00000000000E+00  0.35037093296E+02  0.35037093296E+02  0.00000000000E+00 0. -1.
         21   -1    0    0  502  503 -0.00000000000E+00 -0.00000000000E+00 -0.11196806347E+04  0.11196806347E+04  0.00000000000E+00 0. -1.
          6    1    1    2  501    0  0.49746774182E+02  0.15056127646E+02 -0.30550946642E+03  0.35491754337E+03  0.17300000000E+03 0. -1.
         -6    1    1    2    0  503 -0.49746774182E+02 -0.15056127646E+02 -0.77913407497E+03  0.79980018461E+03  0.17300000000E+03 0. -1.
<mgrwt>
<rscale>  2 0.18063895E+03</rscale>
<asrwt>0</asrwt>
<pdfrwt beam="1">  1       21 0.53903228E-02 0.18063895E+03</pdfrwt>
<pdfrwt beam="2">  1       21 0.17225853E+00 0.18063895E+03</pdfrwt>
<totfact> 0.49065783E+04</totfact>
</mgrwt>
</event>
<event>
 4    1  0.4111182E+000  0.2226782E+03  0.7546771E-02  0.1131902E+00
         21   -1    0    0  503  502  0.00000000000E+00  0.00000000000E+00  0.24241708982E+03  0.24241708982E+03  0.00000000000E+00 0. -1.
         21   -1    0    0  501  503 -0.00000000000E+00 -0.00000000000E+00 -0.30002776312E+03  0.30002776312E+03  0.00000000000E+00 0.  1.
          6    1    1    2  501    0 -0.13886911589E+03  0.19285473165E+02 -0.18180976944E+03  0.28747235187E+03  0.17300000000E+03 0.  1.
         -6    1    1    2    0  502  0.13886911589E+03 -0.19285473165E+02  0.12419909614E+03  0.25497250108E+03  0.17300000000E+03 0. -1.
<mgrwt>
<rscale>  2 0.22267816E+03</rscale>
<asrwt>0</asrwt>
<pdfrwt beam="1">  1       21 0.37294937E-01 0.22267816E+03</pdfrwt>
<pdfrwt beam="2">  1       21 0.46158117E-01 0.22267816E+03</pdfrwt>
<totfact> 0.30693203E+04</totfact>
</mgrwt>
</event>
<event>
 4    1  0.4111182E+000  0.1873619E+03  0.7546771E-02  0.1160862E+00
         21   -1    0    0  503  502  0.00000000000E+00  0.00000000000E+00  0.26771946436E+03  0.26771946436E+03  0.00000000000E+00 0. -1.
         21   -1    0    0  501  503 -0.00000000000E+00 -0.00000000000E+00 -0.26397455951E+03  0.26397455951E+03  0.00000000000E+00 0. -1.
          6    1    1    2  501    0 -0.71636003890E+02  0.66166130017E+01 -0.18672340002E+03  0.26451866614E+03  0.17300000000E+03 0. -1.
         -6    1    1    2    0  502  0.71636003890E+02 -0.66166130017E+01  0.19046830487E+03  0.26717535773E+03  0.17300000000E+03 0. -1.
<mgrwt>
<rscale>  2 0.18736194E+03</rscale>
<asrwt>0</asrwt>
<pdfrwt beam="1">  1       21 0.41187610E-01 0.18736194E+03</pdfrwt>
<pdfrwt beam="2">  1       21 0.40611471E-01 0.18736194E+03</pdfrwt>
<totfact> 0.33254328E+04</totfact>
</mgrwt>
</event>
<event>
 4    1  0.4111182E+000  0.1803697E+03  0.7546771E-02  0.1167446E+00
         21   -1    0    0  503  502  0.00000000000E+00  0.00000000000E+00  0.81317566993E+03  0.81317566993E+03  0.00000000000E+00 0. -1.
         21   -1    0    0  501  503 -0.00000000000E+00 -0.00000000000E+00 -0.40075673209E+02  0.40075673209E+02  0.00000000000E+00 0. -1.
          6    1    1    2  501    0  0.40927598254E+02 -0.30482117282E+02  0.36897023945E+03  0.41069729166E+03  0.17300000000E+03 0. -1.
         -6    1    1    2    0  502 -0.40927598254E+02  0.30482117282E+02  0.40412975726E+03  0.44255405148E+03  0.17300000000E+03 0. -1.
<mgrwt>
<rscale>  2 0.18036970E+03</rscale>
<asrwt>0</asrwt>
<pdfrwt beam="1">  1       21 0.12510394E+00 0.18036970E+03</pdfrwt>
<pdfrwt beam="2">  1       21 0.61654888E-02 0.18036970E+03</pdfrwt>
<totfact> 0.90088473E+04</totfact>
</mgrwt>
</event>
<event>
 4    1  0.4111182E+000  0.1850479E+03  0.7546771E-02  0.1163005E+00
         21   -1    0    0  503  502  0.00000000000E+00  0.00000000000E+00  0.38873717272E+03  0.38873717272E+03  0.00000000000E+00 0.  1.
         21   -1    0    0  501  503 -0.00000000000E+00 -0.00000000000E+00 -0.17609432535E+03  0.17609432535E+03  0.00000000000E+00 0. -1.
          6    1    1    2  501    0 -0.38333699969E+02  0.53331531977E+02 -0.93331387501E+02  0.20725219601E+03  0.17300000000E+03 0. -1.
         -6    1    1    2    0  502  0.38333699969E+02 -0.53331531977E+02  0.30597423488E+03  0.35757930206E+03  0.17300000000E+03 0.  1.
<mgrwt>
<rscale>  2 0.18504790E+03</rscale>
<asrwt>0</asrwt>
<pdfrwt beam="1">  1       21 0.59805719E-01 0.18504790E+03</pdfrwt>
<pdfrwt beam="2">  1       21 0.27091435E-01 0.18504790E+03</pdfrwt>
<totfact> 0.34015277E+04</totfact>
</mgrwt>
</event>
<event>
 4    1  0.4111182E+000  0.1767621E+03  0.7546771E-02  0.1170974E+00
         21   -1    0    0  501  502  0.00000000000E+00  0.00000000000E+00  0.30284447865E+03  0.30284447865E+03  0.00000000000E+00 0. -1.
         21   -1    0    0  502  503 -0.00000000000E+00 -0.00000000000E+00 -0.10727043364E+03  0.10727043364E+03  0.00000000000E+00 0. -1.
          6    1    1    2  501    0  0.16245021727E+02  0.32433597399E+02  0.13787231090E+03  0.22417317655E+03  0.17300000000E+03 0. -1.
         -6    1    1    2    0  503 -0.16245021727E+02 -0.32433597399E+02  0.57701734114E+02  0.18594173574E+03  0.17300000000E+03 0. -1.
<mgrwt>
<rscale>  2 0.17676210E+03</rscale>
<asrwt>0</asrwt>
<pdfrwt beam="1">  1       21 0.46591458E-01 0.17676210E+03</pdfrwt>
<pdfrwt beam="2">  1       21 0.16503144E-01 0.17676210E+03</pdfrwt>
<totfact> 0.14609667E+05</totfact>
</mgrwt>
</event>
<event>
 4    1  0.4111182E+000  0.2100478E+03  0.7546771E-02  0.1141528E+00
         21   -1    0    0  503  502  0.00000000000E+00  0.00000000000E+00  0.17482275289E+03  0.17482275289E+03  0.00000000000E+00 0. -1.
         21   -1    0    0  501  503 -0.00000000000E+00 -0.00000000000E+00 -0.42213007343E+03  0.42213007343E+03  0.00000000000E+00 0. -1.
          6    1    1    2  501    0 -0.59877304512E+02 -0.10298448404E+03 -0.31293337873E+03  0.37689175511E+03  0.17300000000E+03 0. -1.
         -6    1    1    2    0  502  0.59877304512E+02  0.10298448404E+03  0.65626058186E+02  0.22006107121E+03  0.17300000000E+03 0. -1.
<mgrwt>
<rscale>  2 0.21004784E+03</rscale>
<asrwt>0</asrwt>
<pdfrwt beam="1">  1       21 0.26895808E-01 0.21004784E+03</pdfrwt>
<pdfrwt beam="2">  1       21 0.64943088E-01 0.21004784E+03</pdfrwt>
<totfact> 0.28475793E+04</totfact>
</mgrwt>
</event>
<event>
 4    1  0.4111182E+000  0.1770904E+03  0.7546771E-02  0.1170649E+00
         21   -1    0    0  501  502  0.00000000000E+00  0.00000000000E+00  0.69796991676E+02  0.69796991676E+02  0.00000000000E+00 0.  1.
         21   -1    0    0  502  503 -0.00000000000E+00 -0.00000000000E+00 -0.44999360520E+03  0.44999360520E+03  0.00000000000E+00 0. -1.
          6    1    1    2  501    0 -0.34476487616E+02 -0.15600578010E+02 -0.18002391496E+03  0.25252646632E+03  0.17300000000E+03 0. -1.
         -6    1    1    2    0  503  0.34476487616E+02  0.15600578010E+02 -0.20017269856E+03  0.26726413056E+03  0.17300000000E+03 0. -1.
<mgrwt>
<rscale>  2 0.17709039E+03</rscale>
<asrwt>0</asrwt>
<pdfrwt beam="1">  1       21 0.10737999E-01 0.17709039E+03</pdfrwt>
<pdfrwt beam="2">  1       21 0.69229786E-01 0.17709039E+03</pdfrwt>
<totfact> 0.13655249E+05</totfact>
</mgrwt>
</event>
<event>
 4    1  0.4111182E+000  0.1820505E+03  0.7546771E-02  0.1165833E+00
         21   -1    0    0  503  502  0.00000000000E+00  0.00000000000E+00  0.11563374614E+03  0.11563374614E+03  0.00000000000E+00 0.  1.
         21   -1    0    0  501  503 -0.00000000000E+00 -0.00000000000E+00 -0.32365490820E+03  0.32365490820E+03  0.00000000000E+00 0.  1.
          6    1    1    2  501    0 -0.33562371443E+02  0.45683209890E+02 -0.17831466986E+03  0.25483035520E+03  0.17300000000E+03 0. -1.
         -6    1    1    2    0  502  0.33562371443E+02 -0.45683209890E+02 -0.29706492199E+02  0.18445829914E+03  0.17300000000E+03 0. -1.
<mgrwt>
<rscale>  2 0.18205051E+03</rscale>
<asrwt>0</asrwt>
<pdfrwt beam="1">  1       21 0.17789807E-01 0.18205051E+03</pdfrwt>
<pdfrwt beam="2">  1       21 0.49793062E-01 0.18205051E+03</pdfrwt>
<totfact> 0.11070387E+05</totfact>
</mgrwt>
</event>
<event>
 4    1  0.4111182E+000  0.2474154E+03  0.7546771E-02  0.1114949E+00
         21   -1    0    0  503  502  0.00000000000E+00  0.00000000000E+00  0.34517758936E+03  0.34517758936E+03  0.00000000000E+00 0.  1.
         21   -1    0    0  501  503 -0.00000000000E+00 -0.00000000000E+00 -0.18651165902E+03  0.18651165902E+03  0.00000000000E+00 0. -1.
          6    1    1    2  501    0  0.72797825653E+02 -0.16120133140E+03  0.20386501912E+02  0.24825390657E+03  0.17300000000E+03 0.  1.
         -6    1    1    2    0  502 -0.72797825653E+02  0.16120133140E+03  0.13827942842E+03  0.28343534182E+03  0.17300000000E+03 0.  1.
<mgrwt>
<rscale>  2 0.24741543E+03</rscale>
<asrwt>0</asrwt>
<pdfrwt beam="1">  1       21 0.53104245E-01 0.24741543E+03</pdfrwt>
<pdfrwt beam="2">  1       21 0.28694101E-01 0.24741543E+03</pdfrwt>
<totfact> 0.38018695E+04</totfact>
</mgrwt>
</event>
<event>
 4    1  0.4111182E+000  0.3865172E+03  0.7546771E-02  0.1048551E+00
         21   -1    0    0  501  502  0.00000000000E+00  0.00000000000E+00  0.10522747036E+04  0.10522747036E+04  0.00000000000E+00 0. -1.
         21   -1    0    0  502  503 -0.00000000000E+00 -0.00000000000E+00 -0.15677015719E+03  0.15677015719E+03  0.00000000000E+00 0.  1.
          6    1    1    2  501    0 -0.34557711443E+03  0.65592779799E+01  0.63347127609E+03  0.74207912231E+03  0.17300000000E+03 0. -1.
         -6    1    1    2    0  503  0.34557711443E+03 -0.65592779799E+01  0.26203327028E+03  0.46696573844E+03  0.17300000000E+03 0.  1.
<mgrwt>
<rscale>  2 0.38651723E+03</rscale>
<asrwt>0</asrwt>
<pdfrwt beam="1">  1       21 0.16188841E+00 0.38651723E+03</pdfrwt>
<pdfrwt beam="2">  1       21 0.24118486E-01 0.38651723E+03</pdfrwt>
<totfact> 0.35014910E+03</totfact>
</mgrwt>
</event>
<event>
 4    1  0.4111182E+000  0.1831772E+03  0.7546771E-02  0.1164763E+00
         21   -1    0    0  503  502  0.00000000000E+00  0.00000000000E+00  0.72545960056E+02  0.72545960056E+02  0.00000000000E+00 0.  1.
         21   -1    0    0  501  503 -0.00000000000E+00 -0.00000000000E+00 -0.18461431223E+04  0.18461431223E+04  0.00000000000E+00 0.  1.
          6    1    1    2  501    0  0.45900457254E+02 -0.38962092969E+02 -0.17173202393E+04  0.17270618695E+04  0.17300000000E+03 0.  1.
         -6    1    1    2    0  502 -0.45900457254E+02  0.38962092969E+02 -0.56276922951E+02  0.19162721289E+03  0.17300000000E+03 0.  1.
<mgrwt>
<rscale>  2 0.18317723E+03</rscale>
<asrwt>0</asrwt>
<pdfrwt beam="1">  1       21 0.11160918E-01 0.18317723E+03</pdfrwt>
<pdfrwt beam="2">  1       21 0.28402200E+00 0.18317723E+03</pdfrwt>
<totfact> 0.28503405E+03</totfact>
</mgrwt>
</event>
<event>
 4    1  0.4111182E+000  0.2971490E+03  0.7546771E-02  0.1086675E+00
         21   -1    0    0  503  502  0.00000000000E+00  0.00000000000E+00  0.25027461664E+03  0.25027461664E+03  0.00000000000E+00 0. -1.
         21   -1    0    0  501  503 -0.00000000000E+00 -0.00000000000E+00 -0.39477928568E+03  0.39477928568E+03  0.00000000000E+00 0.  1.
          6    1    1    2  501    0 -0.15023841230E+03 -0.18920086980E+03 -0.17742251325E+03  0.34608712468E+03  0.17300000000E+03 0.  1.
         -6    1    1    2    0  502  0.15023841230E+03  0.18920086980E+03  0.32917844206E+02  0.29896677764E+03  0.17300000000E+03 0. -1.
<mgrwt>
<rscale>  2 0.29714904E+03</rscale>
<asrwt>0</asrwt>
<pdfrwt beam="1">  1       21 0.38503787E-01 0.29714904E+03</pdfrwt>
<pdfrwt beam="2">  1       21 0.60735274E-01 0.29714904E+03</pdfrwt>
<totfact> 0.15547957E+04</totfact>
</mgrwt>
</event>
<event>
 4    1  0.4111182E+000  0.1875235E+03  0.7546771E-02  0.1160714E+00
         21   -1    0    0  501  502  0.00000000000E+00  0.00000000000E+00  0.21932147913E+04  0.21932147913E+04  0.00000000000E+00 0.  1.
         21   -1    0    0  502  503 -0.00000000000E+00 -0.00000000000E+00 -0.28087525962E+02  0.28087525962E+02  0.00000000000E+00 0.  1.
          6    1    1    2  501    0 -0.49696401576E+02  0.52595854513E+02  0.18101520644E+04  0.18198394304E+04  0.17300000000E+03 0.  1.
         -6    1    1    2    0  503  0.49696401576E+02 -0.52595854513E+02  0.35497520102E+03  0.40146288693E+03  0.17300000000E+03 0.  1.
<mgrwt>
<rscale>  2 0.18752348E+03</rscale>
<asrwt>0</asrwt>
<pdfrwt beam="1">  1       21 0.33741753E+00 0.18752348E+03</pdfrwt>
<pdfrwt beam="2">  1       21 0.43211596E-02 0.18752348E+03</pdfrwt>
<totfact> 0.71798807E+03</totfact>
</mgrwt>
</event>
<event>
 4    1  0.4111182E+000  0.2491681E+03  0.7546771E-02  0.1113832E+00
         21   -1    0    0  501  502  0.00000000000E+00  0.00000000000E+00  0.32133729210E+03  0.32133729210E+03  0.00000000000E+00 0. -1.
         21   -1    0    0  502  503 -0.00000000000E+00 -0.00000000000E+00 -0.19536286458E+03  0.19536286458E+03  0.00000000000E+00 0. -1.
          6    1    1    2  501    0  0.13956248561E+03  0.11259689212E+03  0.90123882815E+02  0.26496615210E+03  0.17300000000E+03 0. -1.
         -6    1    1    2    0  503 -0.13956248561E+03 -0.11259689212E+03  0.35850544703E+02  0.25173400458E+03  0.17300000000E+03 0. -1.
<mgrwt>
<rscale>  2 0.24916811E+03</rscale>
<asrwt>0</asrwt>
<pdfrwt beam="1">  1       21 0.49436506E-01 0.24916811E+03</pdfrwt>
<pdfrwt beam="2">  1       21 0.30055825E-01 0.24916811E+03</pdfrwt>
<totfact> 0.40341081E+04</totfact>
</mgrwt>
</event>
<event>
 4    1  0.4111182E+000  0.2605945E+03  0.7546771E-02  0.1106787E+00
         21   -1    0    0  501  502  0.00000000000E+00  0.00000000000E+00  0.37275661787E+03  0.37275661787E+03  0.00000000000E+00 0.  1.
         21   -1    0    0  502  503 -0.00000000000E+00 -0.00000000000E+00 -0.19875387382E+03  0.19875387382E+03  0.00000000000E+00 0.  1.
          6    1    1    2  501    0 -0.24471057256E+02  0.19334331517E+03  0.16951484961E+03  0.31087739449E+03  0.17300000000E+03 0.  1.
         -6    1    1    2    0  503  0.24471057256E+02 -0.19334331517E+03  0.44878944322E+01  0.26063309721E+03  0.17300000000E+03 0.  1.
<mgrwt>
<rscale>  2 0.26059446E+03</rscale>
<asrwt>0</asrwt>
<pdfrwt beam="1">  1       21 0.57347172E-01 0.26059446E+03</pdfrwt>
<pdfrwt beam="2">  1       21 0.30577519E-01 0.26059446E+03</pdfrwt>
<totfact> 0.28334047E+04</totfact>
</mgrwt>
</event>
<event>
 4    1  0.4111182E+000  0.2211053E+03  0.7546771E-02  0.1133062E+00
         21   -1    0    0  503  502  0.00000000000E+00  0.00000000000E+00  0.11792864882E+04  0.11792864882E+04  0.00000000000E+00 0. -1.
         21   -1    0    0  501  503 -0.00000000000E+00 -0.00000000000E+00 -0.47224232922E+02  0.47224232922E+02  0.00000000000E+00 0.  1.
          6    1    1    2  501    0 -0.13704694847E+03  0.13291975809E+02  0.35168735564E+03  0.41541730684E+03  0.17300000000E+03 0.  1.
         -6    1    1    2    0  502  0.13704694847E+03 -0.13291975809E+02  0.78037489963E+03  0.81109341427E+03  0.17300000000E+03 0. -1.
<mgrwt>
<rscale>  2 0.22110528E+03</rscale>
<asrwt>0</asrwt>
<pdfrwt beam="1">  1       21 0.18142867E+00 0.22110528E+03</pdfrwt>
<pdfrwt beam="2">  1       21 0.72652675E-02 0.22110528E+03</pdfrwt>
<totfact> 0.24759397E+04</totfact>
</mgrwt>
</event>
<event>
 4    1  0.4111182E+000  0.2805793E+03  0.7546771E-02  0.1095373E+00
         21   -1    0    0  503  502  0.00000000000E+00  0.00000000000E+00  0.12441823698E+04  0.12441823698E+04  0.00000000000E+00 0. -1.
         21   -1    0    0  501  503 -0.00000000000E+00 -0.00000000000E+00 -0.63274301121E+02  0.63274301121E+02  0.00000000000E+00 0. -1.
          6    1    1    2  501    0  0.14132457230E+03  0.16977377528E+03  0.59050110425E+03  0.65377084948E+03  0.17300000000E+03 0. -1.
         -6    1    1    2    0  502 -0.14132457230E+03 -0.16977377528E+03  0.59040696446E+03  0.65368582147E+03  0.17300000000E+03 0. -1.
<mgrwt>
<rscale>  2 0.28057935E+03</rscale>
<asrwt>0</asrwt>
<pdfrwt beam="1">  1       21 0.19141265E+00 0.28057935E+03</pdfrwt>
<pdfrwt beam="2">  1       21 0.97345088E-02 0.28057935E+03</pdfrwt>
<totfact> 0.12238994E+04</totfact>
</mgrwt>
</event>
<event>
 4    1  0.4111182E+000  0.2064794E+03  0.7546771E-02  0.1144385E+00
         21   -1    0    0  501  502  0.00000000000E+00  0.00000000000E+00  0.55992482502E+02  0.55992482502E+02  0.00000000000E+00 0. -1.
         21   -1    0    0  502  503 -0.00000000000E+00 -0.00000000000E+00 -0.76162811036E+03  0.76162811036E+03  0.00000000000E+00 0. -1.
          6    1    1    2  501    0  0.51568813600E+02 -0.10022680737E+03 -0.34604838557E+03  0.40296803919E+03  0.17300000000E+03 0. -1.
         -6    1    1    2    0  503 -0.51568813600E+02  0.10022680737E+03 -0.35958724229E+03  0.41465255367E+03  0.17300000000E+03 0. -1.
<mgrwt>
<rscale>  2 0.20647943E+03</rscale>
<asrwt>0</asrwt>
<pdfrwt beam="1">  1       21 0.86142278E-02 0.20647943E+03</pdfrwt>
<pdfrwt beam="2">  1       21 0.11717356E+00 0.20647943E+03</pdfrwt>
<totfact> 0.58656830E+04</totfact>
</mgrwt>
</event>
<event>
 4    1  0.4111182E+000  0.1930128E+03  0.7546771E-02  0.1155772E+00
         21   -1    0    0  501  502  0.00000000000E+00  0.00000000000E+00  0.88221198743E+03  0.88221198743E+03  0.00000000000E+00 0.  1.
         21   -1    0    0  502  503 -0.00000000000E+00 -0.00000000000E+00 -0.61205634496E+02  0.61205634496E+02  0.00000000000E+00 0. -1.
          6    1    1    2  501    0  0.59901190727E+02 -0.61129183049E+02  0.67316736016E+03  0.70029152819E+03  0.17300000000E+03 0.  1.
         -6    1    1    2    0  503 -0.59901190727E+02  0.61129183049E+02  0.14783899278E+03  0.24312609374E+03  0.17300000000E+03 0. -1.
<mgrwt>
<rscale>  2 0.19301277E+03</rscale>
<asrwt>0</asrwt>
<pdfrwt beam="1">  1       21 0.13572491E+00 0.19301277E+03</pdfrwt>
<pdfrwt beam="2">  1       21 0.94162521E-02 0.19301277E+03</pdfrwt>
<totfact> 0.34957519E+04</totfact>
</mgrwt>
</event>
<event>
 4    1  0.4111182E+000  0.1745842E+03  0.7546771E-02  0.1173150E+00
         21   -1    0    0  503  502  0.00000000000E+00  0.00000000000E+00  0.16762689635E+03  0.16762689635E+03  0.00000000000E+00 0.  1.
         21   -1    0    0  501  503 -0.00000000000E+00 -0.00000000000E+00 -0.29205712572E+03  0.29205712572E+03  0.00000000000E+00 0.  1.
          6    1    1    2  501    0 -0.22813409455E+02  0.54946834583E+01 -0.20341658741E+03  0.26806333437E+03  0.17300000000E+03 0.  1.
         -6    1    1    2    0  502  0.22813409455E+02 -0.54946834583E+01  0.78986358052E+02  0.19162068770E+03  0.17300000000E+03 0.  1.
<mgrwt>
<rscale>  2 0.17458420E+03</rscale>
<asrwt>0</asrwt>
<pdfrwt beam="1">  1       21 0.25788754E-01 0.17458420E+03</pdfrwt>
<pdfrwt beam="2">  1       21 0.44931865E-01 0.17458420E+03</pdfrwt>
<totfact> 0.68379719E+04</totfact>
</mgrwt>
</event>
<event>
 4    1  0.4111182E+000  0.1999746E+03  0.7546771E-02  0.1149760E+00
         21   -1    0    0  501  502  0.00000000000E+00  0.00000000000E+00  0.12466895021E+03  0.12466895021E+03  0.00000000000E+00 0. -1.
         21   -1    0    0  502  503 -0.00000000000E+00 -0.00000000000E+00 -0.55401212362E+03  0.55401212362E+03  0.00000000000E+00 0.  1.
          6    1    1    2  501    0 -0.35290697185E+02 -0.93890380615E+02  0.55101341714E+01  0.20005048977E+03  0.17300000000E+03 0. -1.
         -6    1    1    2    0  503  0.35290697185E+02  0.93890380615E+02 -0.43485330758E+03  0.47863058405E+03  0.17300000000E+03 0.  1.
<mgrwt>
<rscale>  2 0.19997459E+03</rscale>
<asrwt>0</asrwt>
<pdfrwt beam="1">  1       21 0.19179839E-01 0.19997459E+03</pdfrwt>
<pdfrwt beam="2">  1       21 0.85232633E-01 0.19997459E+03</pdfrwt>
<totfact> 0.29595733E+04</totfact>
</mgrwt>
</event>
<event>
 4    1  0.4111182E+000  0.2601918E+03  0.7546771E-02  0.1107028E+00
         21   -1    0    0  503  502  0.00000000000E+00  0.00000000000E+00  0.17994771100E+03  0.17994771100E+03  0.00000000000E+00 0. -1.
         21   -1    0    0  501  503 -0.00000000000E+00 -0.00000000000E+00 -0.58149442295E+03  0.58149442295E+03  0.00000000000E+00 0. -1.
          6    1    1    2  501    0  0.75135084660E+02  0.17923588407E+03 -0.42697846151E+03  0.50001038957E+03  0.17300000000E+03 0. -1.
         -6    1    1    2    0  502 -0.75135084660E+02 -0.17923588407E+03  0.25431749560E+02  0.26143174438E+03  0.17300000000E+03 0. -1.
<mgrwt>
<rscale>  2 0.26019182E+03</rscale>
<asrwt>0</asrwt>
<pdfrwt beam="1">  1       21 0.27684263E-01 0.26019182E+03</pdfrwt>
<pdfrwt beam="2">  1       21 0.89460680E-01 0.26019182E+03</pdfrwt>
<totfact> 0.12746216E+04</totfact>
</mgrwt>
</event>
<event>
 4    1  0.4111182E+000  0.1776351E+03  0.7546771E-02  0.1170112E+00
         21   -1    0    0  501  502  0.00000000000E+00  0.00000000000E+00  0.61168953406E+03  0.61168953406E+03  0.00000000000E+00 0. -1.
         21   -1    0    0  502  503 -0.00000000000E+00 -0.00000000000E+00 -0.51679013272E+02  0.51679013272E+02  0.00000000000E+00 0. -1.
          6    1    1    2  501    0 -0.32038810859E+02 -0.24469428383E+02  0.29412341906E+03  0.34360271240E+03  0.17300000000E+03 0. -1.
         -6    1    1    2    0  503  0.32038810859E+02  0.24469428383E+02  0.26588710172E+03  0.31976583493E+03  0.17300000000E+03 0. -1.
<mgrwt>
<rscale>  2 0.17763513E+03</rscale>
<asrwt>0</asrwt>
<pdfrwt beam="1">  1       21 0.94106077E-01 0.17763513E+03</pdfrwt>
<pdfrwt beam="2">  1       21 0.79506178E-02 0.17763513E+03</pdfrwt>
<totfact> 0.11555360E+05</totfact>
</mgrwt>
</event>
<event>
 4    1  0.4111182E+000  0.2067148E+03  0.7546771E-02  0.1144194E+00
         21   -1    0    0  503  502  0.00000000000E+00  0.00000000000E+00  0.11978081136E+03  0.11978081136E+03  0.00000000000E+00 0. -1.
         21   -1    0    0  501  503 -0.00000000000E+00 -0.00000000000E+00 -0.41643304488E+03  0.41643304488E+03  0.00000000000E+00 0.  1.
          6    1    1    2  501    0 -0.61432956738E+02  0.95015894898E+02 -0.24983043063E+03  0.32426265978E+03  0.17300000000E+03 0.  1.
         -6    1    1    2    0  502  0.61432956738E+02 -0.95015894898E+02 -0.46821802879E+02  0.21195119646E+03  0.17300000000E+03 0. -1.
<mgrwt>
<rscale>  2 0.20671485E+03</rscale>
<asrwt>0</asrwt>
<pdfrwt beam="1">  1       21 0.18427817E-01 0.20671485E+03</pdfrwt>
<pdfrwt beam="2">  1       21 0.64066622E-01 0.20671485E+03</pdfrwt>
<totfact> 0.60061573E+04</totfact>
</mgrwt>
</event>
<event>
 4    1  0.4111182E+000  0.2102622E+03  0.7546771E-02  0.1141359E+00
         21   -1    0    0  501  502  0.00000000000E+00  0.00000000000E+00  0.55454666831E+02  0.55454666831E+02  0.00000000000E+00 0.  1.
         21   -1    0    0  502  503 -0.00000000000E+00 -0.00000000000E+00 -0.80121440724E+03  0.80121440724E+03  0.00000000000E+00 0.  1.
          6    1    1    2  501    0 -0.89499505583E+02  0.79189906750E+02 -0.34267944001E+03  0.40204402923E+03  0.17300000000E+03 0.  1.
         -6    1    1    2    0  503  0.89499505583E+02 -0.79189906750E+02 -0.40308030039E+03  0.45462504484E+03  0.17300000000E+03 0.  1.
<mgrwt>
<rscale>  2 0.21026222E+03</rscale>
<asrwt>0</asrwt>
<pdfrwt beam="1">  1       21 0.85314875E-02 0.21026222E+03</pdfrwt>
<pdfrwt beam="2">  1       21 0.12326375E+00 0.21026222E+03</pdfrwt>
<totfact> 0.52502815E+04</totfact>
</mgrwt>
</event>
<event>
 4    1  0.4111182E+000  0.1938510E+03  0.7546771E-02  0.1155033E+00
         21   -1    0    0  503  502  0.00000000000E+00  0.00000000000E+00  0.80077151890E+03  0.80077151890E+03  0.00000000000E+00 0.  1.
         21   -1    0    0  501  503 -0.00000000000E+00 -0.00000000000E+00 -0.58262219362E+02  0.58262219362E+02  0.00000000000E+00 0.  1.
          6    1    1    2  501    0 -0.89219630628E+01  0.87003390074E+02  0.18180559727E+03  0.26576581140E+03  0.17300000000E+03 0.  1.
         -6    1    1    2    0  502  0.89219630628E+01 -0.87003390074E+02  0.56070370227E+03  0.59326792687E+03  0.17300000000E+03 0.  1.
<mgrwt>
<rscale>  2 0.19385095E+03</rscale>
<asrwt>0</asrwt>
<pdfrwt beam="1">  1       21 0.12319561E+00 0.19385095E+03</pdfrwt>
<pdfrwt beam="2">  1       21 0.89634190E-02 0.19385095E+03</pdfrwt>
<totfact> 0.48638673E+04</totfact>
</mgrwt>
</event>
<event>
 4    1  0.4111182E+000  0.1739903E+03  0.7546771E-02  0.1173749E+00
         21   -1    0    0  501  502  0.00000000000E+00  0.00000000000E+00  0.50998265369E+03  0.50998265369E+03  0.00000000000E+00 0. -1.
         21   -1    0    0  502  503 -0.00000000000E+00 -0.00000000000E+00 -0.11053517137E+03  0.11053517137E+03  0.00000000000E+00 0. -1.
          6    1    1    2  501    0 -0.47483235822E+00 -0.18530710981E+02  0.41083107534E+03  0.44615556164E+03  0.17300000000E+03 0. -1.
         -6    1    1    2    0  503  0.47483235822E+00  0.18530710981E+02 -0.11383593022E+02  0.17436226342E+03  0.17300000000E+03 0. -1.
<mgrwt>
<rscale>  2 0.17399027E+03</rscale>
<asrwt>0</asrwt>
<pdfrwt beam="1">  1       21 0.78458868E-01 0.17399027E+03</pdfrwt>
<pdfrwt beam="2">  1       21 0.17005411E-01 0.17399027E+03</pdfrwt>
<totfact> 0.45227875E+04</totfact>
</mgrwt>
</event>
<event>
 4    1  0.4111182E+000  0.1898537E+03  0.7546771E-02  0.1158593E+00
         21   -1    0    0  501  502  0.00000000000E+00  0.00000000000E+00  0.30040936365E+03  0.30040936365E+03  0.00000000000E+00 0. -1.
         21   -1    0    0  502  503 -0.00000000000E+00 -0.00000000000E+00 -0.12250360373E+03  0.12250360373E+03  0.00000000000E+00 0.  1.
          6    1    1    2  501    0  0.63770989206E+02 -0.45262595877E+02  0.58629545455E+02  0.19870044099E+03  0.17300000000E+03 0. -1.
         -6    1    1    2    0  503 -0.63770989206E+02  0.45262595877E+02  0.11927621447E+03  0.22421252639E+03  0.17300000000E+03 0. -1.
<mgrwt>
<rscale>  2 0.18985374E+03</rscale>
<asrwt>0</asrwt>
<pdfrwt beam="1">  1       21 0.46216825E-01 0.18985374E+03</pdfrwt>
<pdfrwt beam="2">  1       21 0.18846708E-01 0.18985374E+03</pdfrwt>
<totfact> 0.11577157E+05</totfact>
</mgrwt>
</event>
<event>
 4    1  0.4111182E+000  0.2576181E+03  0.7546771E-02  0.1108583E+00
         21   -1    0    0  501  502  0.00000000000E+00  0.00000000000E+00  0.13431029639E+03  0.13431029639E+03  0.00000000000E+00 0. -1.
         21   -1    0    0  502  503 -0.00000000000E+00 -0.00000000000E+00 -0.49477850363E+03  0.49477850363E+03  0.00000000000E+00 0.  1.
          6    1    1    2  501    0 -0.15007683735E+03  0.11796200055E+03 -0.19159921316E+03  0.32105661364E+03  0.17300000000E+03 0.  1.
         -6    1    1    2    0  503  0.15007683735E+03 -0.11796200055E+03 -0.16886899408E+03  0.30803218637E+03  0.17300000000E+03 0. -1.
<mgrwt>
<rscale>  2 0.25761811E+03</rscale>
<asrwt>0</asrwt>
<pdfrwt beam="1">  1       21 0.20663122E-01 0.25761811E+03</pdfrwt>
<pdfrwt beam="2">  1       21 0.76119771E-01 0.25761811E+03</pdfrwt>
<totfact> 0.32352620E+04</totfact>
</mgrwt>
</event>
<event>
 4    1  0.4111182E+000  0.4926052E+03  0.7546771E-02  0.1015727E+00
         21   -1    0    0  503  502  0.00000000000E+00  0.00000000000E+00  0.54782916559E+03  0.54782916559E+03  0.00000000000E+00 0. -1.
         21   -1    0    0  501  503 -0.00000000000E+00 -0.00000000000E+00 -0.78597741370E+03  0.78597741370E+03  0.00000000000E+00 0. -1.
          6    1    1    2  501    0 -0.45320781917E+03 -0.85635943612E+02 -0.55965282372E+03  0.74556765306E+03  0.17300000000E+03 0. -1.
         -6    1    1    2    0  502  0.45320781917E+03  0.85635943612E+02  0.32150457561E+03  0.58823892623E+03  0.17300000000E+03 0. -1.
<mgrwt>
<rscale>  2 0.49260516E+03</rscale>
<asrwt>0</asrwt>
<pdfrwt beam="1">  1       21 0.84281410E-01 0.49260516E+03</pdfrwt>
<pdfrwt beam="2">  1       21 0.12091960E+00 0.49260516E+03</pdfrwt>
<totfact> 0.52036652E+02</totfact>
</mgrwt>
</event>
<event>
 4    1  0.4111182E+000  0.1754419E+03  0.7546771E-02  0.1172289E+00
         21   -1    0    0  501  502  0.00000000000E+00  0.00000000000E+00  0.15876100025E+03  0.15876100025E+03  0.00000000000E+00 0. -1.
         21   -1    0    0  502  503 -0.00000000000E+00 -0.00000000000E+00 -0.50504022884E+03  0.50504022884E+03  0.00000000000E+00 0. -1.
          6    1    1    2  501    0 -0.28886149997E+02 -0.40560169327E+01  0.87379914416E+02  0.19599773054E+03  0.17300000000E+03 0. -1.
         -6    1    1    2    0  503  0.28886149997E+02  0.40560169327E+01 -0.43365914301E+03  0.46780349855E+03  0.17300000000E+03 0. -1.
<mgrwt>
<rscale>  2 0.17544190E+03</rscale>
<asrwt>0</asrwt>
<pdfrwt beam="1">  1       21 0.24424769E-01 0.17544190E+03</pdfrwt>
<pdfrwt beam="2">  1       21 0.77698497E-01 0.17544190E+03</pdfrwt>
<totfact> 0.23495482E+04</totfact>
</mgrwt>
</event>
<event>
 4    1  0.4111182E+000  0.2226658E+03  0.7546771E-02  0.1131911E+00
         21   -1    0    0  503  502  0.00000000000E+00  0.00000000000E+00  0.67311372401E+03  0.67311372401E+03  0.00000000000E+00 0.  1.
         21   -1    0    0  501  503 -0.00000000000E+00 -0.00000000000E+00 -0.18212708802E+03  0.18212708802E+03  0.00000000000E+00 0. -1.
          6    1    1    2  501    0  0.75133297648E+02 -0.11834719135E+03 -0.84514753396E+02  0.23816551736E+03  0.17300000000E+03 0. -1.
         -6    1    1    2    0  502 -0.75133297648E+02  0.11834719135E+03  0.57550138939E+03  0.61707529468E+03  0.17300000000E+03 0.  1.
<mgrwt>
<rscale>  2 0.22266583E+03</rscale>
<asrwt>0</asrwt>
<pdfrwt beam="1">  1       21 0.10355596E+00 0.22266583E+03</pdfrwt>
<pdfrwt beam="2">  1       21 0.28019552E-01 0.22266583E+03</pdfrwt>
<totfact> 0.90003297E+03</totfact>
</mgrwt>
</event>
<event>
 4    1  0.4111182E+000  0.1938468E+03  0.7546771E-02  0.1155037E+00
         21   -1    0    0  501  502  0.00000000000E+00  0.00000000000E+00  0.48159625621E+03  0.48159625621E+03  0.00000000000E+00 0.  1.
         21   -1    0    0  502  503 -0.00000000000E+00 -0.00000000000E+00 -0.88386698169E+02  0.88386698169E+02  0.00000000000E+00 0. -1.
          6    1    1    2  501    0 -0.87447508778E+02  0.71630029945E+00  0.29418290969E+03  0.35230691766E+03  0.17300000000E+03 0.  1.
         -6    1    1    2    0  503  0.87447508778E+02 -0.71630029945E+00  0.99026648350E+02  0.21767603672E+03  0.17300000000E+03 0. -1.
<mgrwt>
<rscale>  2 0.19384679E+03</rscale>
<asrwt>0</asrwt>
<pdfrwt beam="1">  1       21 0.74091730E-01 0.19384679E+03</pdfrwt>
<pdfrwt beam="2">  1       21 0.13597954E-01 0.19384679E+03</pdfrwt>
<totfact> 0.76537390E+04</totfact>
</mgrwt>
</event>
<event>
 4    1  0.4111182E+000  0.2469474E+03  0.7546771E-02  0.1115249E+00
         21   -1    0    0  501  502  0.00000000000E+00  0.00000000000E+00  0.10411343122E+03  0.10411343122E+03  0.00000000000E+00 0. -1.
         21   -1    0    0  502  503 -0.00000000000E+00 -0.00000000000E+00 -0.70104158955E+03  0.70104158955E+03  0.00000000000E+00 0.  1.
          6    1    1    2  501    0  0.10984564695E+03  0.13779674047E+03 -0.13519558743E+03  0.28153304371E+03  0.17300000000E+03 0. -1.
         -6    1    1    2    0  503 -0.10984564695E+03 -0.13779674047E+03 -0.46173257090E+03  0.52362197706E+03  0.17300000000E+03 0.  1.
<mgrwt>
<rscale>  2 0.24694738E+03</rscale>
<asrwt>0</asrwt>
<pdfrwt beam="1">  1       21 0.16017450E-01 0.24694738E+03</pdfrwt>
<pdfrwt beam="2">  1       21 0.10785256E+00 0.24694738E+03</pdfrwt>
<totfact> 0.23124725E+04</totfact>
</mgrwt>
</event>
<event>
 4    1  0.4111182E+000  0.2252001E+03  0.7546771E-02  0.1130065E+00
         21   -1    0    0  501  502  0.00000000000E+00  0.00000000000E+00  0.57509584760E+03  0.57509584760E+03  0.00000000000E+00 0.  1.
         21   -1    0    0  502  503 -0.00000000000E+00 -0.00000000000E+00 -0.94989561142E+02  0.94989561142E+02  0.00000000000E+00 0.  1.
          6    1    1    2  501    0 -0.13879320751E+03  0.39019492610E+02  0.32972342347E+03  0.39929013416E+03  0.17300000000E+03 0.  1.
         -6    1    1    2    0  503  0.13879320751E+03 -0.39019492610E+02  0.15038286300E+03  0.27079527459E+03  0.17300000000E+03 0.  1.
<mgrwt>
<rscale>  2 0.22520008E+03</rscale>
<asrwt>0</asrwt>
<pdfrwt beam="1">  1       21 0.88476282E-01 0.22520008E+03</pdfrwt>
<pdfrwt beam="2">  1       21 0.14613779E-01 0.22520008E+03</pdfrwt>
<totfact> 0.44230121E+04</totfact>
</mgrwt>
</event>
<event>
 4    1  0.4111182E+000  0.1818326E+03  0.7546771E-02  0.1166041E+00
         21   -1    0    0  501  502  0.00000000000E+00  0.00000000000E+00  0.20605247143E+03  0.20605247143E+03  0.00000000000E+00 0. -1.
         21   -1    0    0  502  503 -0.00000000000E+00 -0.00000000000E+00 -0.27549412817E+03  0.27549412817E+03  0.00000000000E+00 0. -1.
          6    1    1    2  501    0  0.25235808782E+02 -0.49972374529E+02  0.12086368907E+03  0.21833716036E+03  0.17300000000E+03 0. -1.
         -6    1    1    2    0  503 -0.25235808782E+02  0.49972374529E+02 -0.19030534580E+03  0.26320943923E+03  0.17300000000E+03 0. -1.
<mgrwt>
<rscale>  2 0.18183257E+03</rscale>
<asrwt>0</asrwt>
<pdfrwt beam="1">  1       21 0.31700380E-01 0.18183257E+03</pdfrwt>
<pdfrwt beam="2">  1       21 0.42383712E-01 0.18183257E+03</pdfrwt>
<totfact> 0.51502174E+04</totfact>
</mgrwt>
</event>
<event>
 4    1  0.4111182E+000  0.1793530E+03  0.7546771E-02  0.1168431E+00
         21   -1    0    0  501  502  0.00000000000E+00  0.00000000000E+00  0.14721371362E+04  0.14721371362E+04  0.00000000000E+00 0.  1.
         21   -1    0    0  502  503 -0.00000000000E+00 -0.00000000000E+00 -0.30120379074E+02  0.30120379074E+02  0.00000000000E+00 0.  1.
          6    1    1    2  501    0 -0.44247344254E+02 -0.16753403435E+02  0.11145798031E+04  0.11289179074E+04  0.17300000000E+03 0.  1.
         -6    1    1    2    0  503  0.44247344254E+02  0.16753403435E+02  0.32743695400E+03  0.37333960792E+03  0.17300000000E+03 0.  1.
<mgrwt>
<rscale>  2 0.17935302E+03</rscale>
<asrwt>0</asrwt>
<pdfrwt beam="1">  1       21 0.22648258E+00 0.17935302E+03</pdfrwt>
<pdfrwt beam="2">  1       21 0.46339056E-02 0.17935302E+03</pdfrwt>
<totfact> 0.28395489E+04</totfact>
</mgrwt>
</event>
<event>
 4    1  0.4111182E+000  0.2205023E+03  0.7546771E-02  0.1133509E+00
         21   -1    0    0  501  502  0.00000000000E+00  0.00000000000E+00  0.15560149531E+04  0.15560149531E+04  0.00000000000E+00 0.  1.
         21   -1    0    0  502  503 -0.00000000000E+00 -0.00000000000E+00 -0.31335679386E+02  0.31335679386E+02  0.00000000000E+00 0.  1.
          6    1    1    2  501    0 -0.12229995496E+03 -0.61114514335E+02  0.80449024652E+03  0.83416174666E+03  0.17300000000E+03 0.  1.
         -6    1    1    2    0  503  0.12229995496E+03  0.61114514335E+02  0.72018902723E+03  0.75318888587E+03  0.17300000000E+03 0.  1.
<mgrwt>
<rscale>  2 0.22050230E+03</rscale>
<asrwt>0</asrwt>
<pdfrwt beam="1">  1       21 0.23938686E+00 0.22050230E+03</pdfrwt>
<pdfrwt beam="2">  1       21 0.48208750E-02 0.22050230E+03</pdfrwt>
<totfact> 0.21496641E+04</totfact>
</mgrwt>
</event>
<event>
 4    1  0.4111182E+000  0.2030807E+03  0.7546771E-02  0.1147166E+00
         21   -1    0    0  501  502  0.00000000000E+00  0.00000000000E+00  0.10235880540E+03  0.10235880540E+03  0.00000000000E+00 0.  1.
         21   -1    0    0  502  503 -0.00000000000E+00 -0.00000000000E+00 -0.69867531008E+03  0.69867531008E+03  0.00000000000E+00 0.  1.
          6    1    1    2  501    0 -0.23658167993E+02 -0.10369689882E+03 -0.37570328161E+02  0.20652671812E+03  0.17300000000E+03 0.  1.
         -6    1    1    2    0  503  0.23658167993E+02  0.10369689882E+03 -0.55874617653E+03  0.59450739736E+03  0.17300000000E+03 0.  1.
<mgrwt>
<rscale>  2 0.20308066E+03</rscale>
<asrwt>0</asrwt>
<pdfrwt beam="1">  1       21 0.15747508E-01 0.20308066E+03</pdfrwt>
<pdfrwt beam="2">  1       21 0.10748851E+00 0.20308066E+03</pdfrwt>
<totfact> 0.24634711E+04</totfact>
</mgrwt>
</event>
<event>
 4    1  0.4111182E+000  0.1783760E+03  0.7546771E-02  0.1169384E+00
         21   -1    0    0  503  502  0.00000000000E+00  0.00000000000E+00  0.51676295104E+03  0.51676295104E+03  0.00000000000E+00 0.  1.
         21   -1    0    0  501  503 -0.00000000000E+00 -0.00000000000E+00 -0.92507135957E+02  0.92507135957E+02  0.00000000000E+00 0.  1.
          6    1    1    2  501    0  0.41538142454E+01 -0.43263838970E+02  0.35962832705E+02  0.18196521445E+03  0.17300000000E+03 0. -1.
         -6    1    1    2    0  502 -0.41538142454E+01  0.43263838970E+02  0.38829298238E+03  0.42730487255E+03  0.17300000000E+03 0. -1.
<mgrwt>
<rscale>  2 0.17837605E+03</rscale>
<asrwt>0</asrwt>
<pdfrwt beam="1">  1       21 0.79501990E-01 0.17837605E+03</pdfrwt>
<pdfrwt beam="2">  1       21 0.14231867E-01 0.17837605E+03</pdfrwt>
<totfact> 0.60600348E+04</totfact>
</mgrwt>
</event>
<event>
 4    1  0.4111182E+000  0.1752231E+03  0.7546771E-02  0.1172508E+00
         21   -1    0    0  501  502  0.00000000000E+00  0.00000000000E+00  0.38319433682E+03  0.38319433682E+03  0.00000000000E+00 0.  1.
         21   -1    0    0  502  503 -0.00000000000E+00 -0.00000000000E+00 -0.95053386740E+02  0.95053386740E+02  0.00000000000E+00 0.  1.
          6    1    1    2  501    0  0.15903555038E+02 -0.22829756069E+02  0.23883764450E+03  0.29622042680E+03  0.17300000000E+03 0.  1.
         -6    1    1    2    0  503 -0.15903555038E+02  0.22829756069E+02  0.49303305585E+02  0.18202729676E+03  0.17300000000E+03 0.  1.
<mgrwt>
<rscale>  2 0.17522306E+03</rscale>
<asrwt>0</asrwt>
<pdfrwt beam="1">  1       21 0.58952974E-01 0.17522306E+03</pdfrwt>
<pdfrwt beam="2">  1       21 0.14623598E-01 0.17522306E+03</pdfrwt>
<totfact> 0.11127166E+05</totfact>
</mgrwt>
</event>
<event>
 4    1  0.4111182E+000  0.1818034E+03  0.7546771E-02  0.1166069E+00
         21   -1    0    0  503  502  0.00000000000E+00  0.00000000000E+00  0.15010386830E+03  0.15010386830E+03  0.00000000000E+00 0. -1.
         21   -1    0    0  501  503 -0.00000000000E+00 -0.00000000000E+00 -0.51692344244E+03  0.51692344244E+03  0.00000000000E+00 0. -1.
          6    1    1    2  501    0 -0.80657384010E+01 -0.55302822730E+02 -0.43609419926E+03  0.47247286585E+03  0.17300000000E+03 0. -1.
         -6    1    1    2    0  502  0.80657384010E+01  0.55302822730E+02  0.69274625131E+02  0.19455444489E+03  0.17300000000E+03 0. -1.
<mgrwt>
<rscale>  2 0.18180335E+03</rscale>
<asrwt>0</asrwt>
<pdfrwt beam="1">  1       21 0.23092902E-01 0.18180335E+03</pdfrwt>
<pdfrwt beam="2">  1       21 0.79526685E-01 0.18180335E+03</pdfrwt>
<totfact> 0.24705384E+04</totfact>
</mgrwt>
</event>
<event>
 4    1  0.4111182E+000  0.1891811E+03  0.7546771E-02  0.1159202E+00
         21   -1    0    0  503  502  0.00000000000E+00  0.00000000000E+00  0.11780440549E+03  0.11780440549E+03  0.00000000000E+00 0. -1.
         21   -1    0    0  501  503 -0.00000000000E+00 -0.00000000000E+00 -0.64444799866E+03  0.64444799866E+03  0.00000000000E+00 0. -1.
          6    1    1    2  501    0 -0.10034481941E+02  0.75893340463E+02 -0.54041445559E+03  0.57257075874E+03  0.17300000000E+03 0. -1.
         -6    1    1    2    0  502  0.10034481941E+02 -0.75893340463E+02  0.13770862422E+02  0.18968164541E+03  0.17300000000E+03 0. -1.
<mgrwt>
<rscale>  2 0.18918110E+03</rscale>
<asrwt>0</asrwt>
<pdfrwt beam="1">  1       21 0.18123755E-01 0.18918110E+03</pdfrwt>
<pdfrwt beam="2">  1       21 0.99145843E-01 0.18918110E+03</pdfrwt>
<totfact> 0.23273857E+04</totfact>
</mgrwt>
</event>
<event>
 4    1  0.4111182E+000  0.1838115E+03  0.7546771E-02  0.1164164E+00
         21   -1    0    0  503  502  0.00000000000E+00  0.00000000000E+00  0.48099005081E+03  0.48099005081E+03  0.00000000000E+00 0.  1.
         21   -1    0    0  501  503 -0.00000000000E+00 -0.00000000000E+00 -0.74221031919E+02  0.74221031919E+02  0.00000000000E+00 0.  1.
          6    1    1    2  501    0 -0.61580892424E+02  0.80900488827E+01  0.13912383165E+03  0.23052569431E+03  0.17300000000E+03 0.  1.
         -6    1    1    2    0  502  0.61580892424E+02 -0.80900488827E+01  0.26764518724E+03  0.32468538842E+03  0.17300000000E+03 0.  1.
<mgrwt>
<rscale>  2 0.18381147E+03</rscale>
<asrwt>0</asrwt>
<pdfrwt beam="1">  1       21 0.73998467E-01 0.18381147E+03</pdfrwt>
<pdfrwt beam="2">  1       21 0.11418621E-01 0.18381147E+03</pdfrwt>
<totfact> 0.10541042E+05</totfact>
</mgrwt>
</event>
<event>
 4    1  0.4111182E+000  0.1774548E+03  0.7546771E-02  0.1170289E+00
         21   -1    0    0  503  502  0.00000000000E+00  0.00000000000E+00  0.52098384770E+02  0.52098384770E+02  0.00000000000E+00 0.  1.
         21   -1    0    0  501  503 -0.00000000000E+00 -0.00000000000E+00 -0.68507622847E+03  0.68507622847E+03  0.00000000000E+00 0.  1.
          6    1    1    2  501    0 -0.37118174549E+02 -0.13543851697E+02 -0.44294622969E+03  0.47717036496E+03  0.17300000000E+03 0.  1.
         -6    1    1    2    0  502  0.37118174549E+02  0.13543851697E+02 -0.19003161401E+03  0.26000424828E+03  0.17300000000E+03 0.  1.
<mgrwt>
<rscale>  2 0.17745477E+03</rscale>
<asrwt>0</asrwt>
<pdfrwt beam="1">  1       21 0.80151364E-02 0.17745477E+03</pdfrwt>
<pdfrwt beam="2">  1       21 0.10539634E+00 0.17745477E+03</pdfrwt>
<totfact> 0.87175694E+04</totfact>
</mgrwt>
</event>
<event>
 4    1  0.4111182E+000  0.1739008E+03  0.7546771E-02  0.1173840E+00
         21   -1    0    0  503  502  0.00000000000E+00  0.00000000000E+00  0.12237109967E+03  0.12237109967E+03  0.00000000000E+00 0. -1.
         21   -1    0    0  501  503 -0.00000000000E+00 -0.00000000000E+00 -0.99231003976E+03  0.99231003976E+03  0.00000000000E+00 0. -1.
          6    1    1    2  501    0 -0.17660150191E+02  0.77219704701E+00 -0.91794796286E+03  0.93427508782E+03  0.17300000000E+03 0. -1.
         -6    1    1    2    0  502  0.17660150191E+02 -0.77219704701E+00  0.48009022773E+02  0.18040605162E+03  0.17300000000E+03 0. -1.
<mgrwt>
<rscale>  2 0.17390077E+03</rscale>
<asrwt>0</asrwt>
<pdfrwt beam="1">  1       21 0.18826323E-01 0.17390077E+03</pdfrwt>
<pdfrwt beam="2">  1       21 0.15266309E+00 0.17390077E+03</pdfrwt>
<totfact> 0.74863438E+03</totfact>
</mgrwt>
</event>
<event>
 4    1  0.4111182E+000  0.1921168E+03  0.7546771E-02  0.1156566E+00
         21   -1    0    0  501  502  0.00000000000E+00  0.00000000000E+00  0.15847771191E+03  0.15847771191E+03  0.00000000000E+00 0.  1.
         21   -1    0    0  502  503 -0.00000000000E+00 -0.00000000000E+00 -0.25247370484E+03  0.25247370484E+03  0.00000000000E+00 0.  1.
          6    1    1    2  501    0  0.36555397879E+02  0.75123617426E+02  0.10219810924E+02  0.19238840803E+03  0.17300000000E+03 0.  1.
         -6    1    1    2    0  503 -0.36555397879E+02 -0.75123617426E+02 -0.10421580385E+03  0.21856300872E+03  0.17300000000E+03 0.  1.
<mgrwt>
<rscale>  2 0.19211677E+03</rscale>
<asrwt>0</asrwt>
<pdfrwt beam="1">  1       21 0.24381187E-01 0.19211677E+03</pdfrwt>
<pdfrwt beam="2">  1       21 0.38842108E-01 0.19211677E+03</pdfrwt>
<totfact> 0.10156703E+05</totfact>
</mgrwt>
</event>
<event>
 4    1  0.4111182E+000  0.4374254E+03  0.7546771E-02  0.1031540E+00
         21   -1    0    0  501  502  0.00000000000E+00  0.00000000000E+00  0.58055838423E+03  0.58055838423E+03  0.00000000000E+00 0. -1.
         21   -1    0    0  502  503 -0.00000000000E+00 -0.00000000000E+00 -0.38268719534E+03  0.38268719534E+03  0.00000000000E+00 0. -1.
          6    1    1    2  501    0  0.37846856779E+03  0.13480912321E+03  0.27835030737E+03  0.51847839889E+03  0.17300000000E+03 0. -1.
         -6    1    1    2    0  503 -0.37846856779E+03 -0.13480912321E+03 -0.80479118479E+02  0.44476718069E+03  0.17300000000E+03 0. -1.
<mgrwt>
<rscale>  2 0.43742537E+03</rscale>
<asrwt>0</asrwt>
<pdfrwt beam="1">  1       21 0.89316675E-01 0.43742537E+03</pdfrwt>
<pdfrwt beam="2">  1       21 0.58874953E-01 0.43742537E+03</pdfrwt>
<totfact> 0.25136416E+03</totfact>
</mgrwt>
</event>
<event>
 4    1  0.4111182E+000  0.2067004E+03  0.7546771E-02  0.1144206E+00
         21   -1    0    0  503  502  0.00000000000E+00  0.00000000000E+00  0.35626400540E+03  0.35626400540E+03  0.00000000000E+00 0. -1.
         21   -1    0    0  501  503 -0.00000000000E+00 -0.00000000000E+00 -0.12429097213E+03  0.12429097213E+03  0.00000000000E+00 0. -1.
          6    1    1    2  501    0 -0.10258346502E+03 -0.47672508388E+02  0.70954295285E+02  0.21853957850E+03  0.17300000000E+03 0. -1.
         -6    1    1    2    0  502  0.10258346502E+03  0.47672508388E+02  0.16101873799E+03  0.26201539904E+03  0.17300000000E+03 0. -1.
<mgrwt>
<rscale>  2 0.20670035E+03</rscale>
<asrwt>0</asrwt>
<pdfrwt beam="1">  1       21 0.54809846E-01 0.20670035E+03</pdfrwt>
<pdfrwt beam="2">  1       21 0.19121688E-01 0.20670035E+03</pdfrwt>
<totfact> 0.78382943E+04</totfact>
</mgrwt>
</event>
<event>
 4    1  0.4111182E+000  0.1848182E+03  0.7546771E-02  0.1163220E+00
         21   -1    0    0  501  502  0.00000000000E+00  0.00000000000E+00  0.62501601343E+03  0.62501601343E+03  0.00000000000E+00 0. -1.
         21   -1    0    0  502  503 -0.00000000000E+00 -0.00000000000E+00 -0.18390771621E+03  0.18390771621E+03  0.00000000000E+00 0. -1.
          6    1    1    2  501    0  0.26416313889E+02  0.59421651234E+02  0.55963569286E+03  0.58936394782E+03  0.17300000000E+03 0. -1.
         -6    1    1    2    0  503 -0.26416313889E+02 -0.59421651234E+02 -0.11852739564E+03  0.21955978182E+03  0.17300000000E+03 0. -1.
<mgrwt>
<rscale>  2 0.18481817E+03</rscale>
<asrwt>0</asrwt>
<pdfrwt beam="1">  1       21 0.96156309E-01 0.18481817E+03</pdfrwt>
<pdfrwt beam="2">  1       21 0.28293495E-01 0.18481817E+03</pdfrwt>
<totfact> 0.10809962E+04</totfact>
</mgrwt>
</event>
<event>
 4    1  0.4111182E+000  0.1730936E+03  0.7546771E-02  0.1174660E+00
         21   -1    0    0  503  502  0.00000000000E+00  0.00000000000E+00  0.19771891605E+03  0.19771891605E+03  0.00000000000E+00 0.  1.
         21   -1    0    0  501  503 -0.00000000000E+00 -0.00000000000E+00 -0.18144169891E+03  0.18144169891E+03  0.00000000000E+00 0.  1.
          6    1    1    2  501    0 -0.47049159610E+01  0.32027572735E+01 -0.68828785525E+02  0.18627612731E+03  0.17300000000E+03 0.  1.
         -6    1    1    2    0  502  0.47049159610E+01 -0.32027572735E+01  0.85106002657E+02  0.19288448765E+03  0.17300000000E+03 0.  1.
<mgrwt>
<rscale>  2 0.17309360E+03</rscale>
<asrwt>0</asrwt>
<pdfrwt beam="1">  1       21 0.30418295E-01 0.17309360E+03</pdfrwt>
<pdfrwt beam="2">  1       21 0.27914107E-01 0.17309360E+03</pdfrwt>
<totfact> 0.12798835E+05</totfact>
</mgrwt>
</event>
<event>
 4    1  0.4111182E+000  0.1801290E+03  0.7546771E-02  0.1167678E+00
         21   -1    0    0  501  502  0.00000000000E+00  0.00000000000E+00  0.35223239750E+02  0.35223239750E+02  0.00000000000E+00 0.  1.
         21   -1    0    0  502  503 -0.00000000000E+00 -0.00000000000E+00 -0.14758530659E+04  0.14758530659E+04  0.00000000000E+00 0.  1.
          6    1    1    2  501    0 -0.31171716336E+02  0.39316333254E+02 -0.25712523927E+03  0.31394241292E+03  0.17300000000E+03 0.  1.
         -6    1    1    2    0  503  0.31171716336E+02 -0.39316333254E+02 -0.11835045869E+04  0.11971338928E+04  0.17300000000E+03 0.  1.
<mgrwt>
<rscale>  2 0.18012898E+03</rscale>
<asrwt>0</asrwt>
<pdfrwt beam="1">  1       21 0.54189602E-02 0.18012898E+03</pdfrwt>
<pdfrwt beam="2">  1       21 0.22705431E+00 0.18012898E+03</pdfrwt>
<totfact> 0.21599879E+04</totfact>
</mgrwt>
</event>
<event>
 4    1  0.4111182E+000  0.2461255E+03  0.7546771E-02  0.1115778E+00
         21   -1    0    0  501  502  0.00000000000E+00  0.00000000000E+00  0.13163871077E+04  0.13163871077E+04  0.00000000000E+00 0.  1.
         21   -1    0    0  502  503 -0.00000000000E+00 -0.00000000000E+00 -0.63519210047E+02  0.63519210047E+02  0.00000000000E+00 0.  1.
          6    1    1    2  501    0 -0.71992672878E+02  0.15958011373E+03  0.98859245611E+03  0.10187702400E+04  0.17300000000E+03 0.  1.
         -6    1    1    2    0  503  0.71992672878E+02 -0.15958011373E+03  0.26427544155E+03  0.36113607775E+03  0.17300000000E+03 0.  1.
<mgrwt>
<rscale>  2 0.24612549E+03</rscale>
<asrwt>0</asrwt>
<pdfrwt beam="1">  1       21 0.20252107E+00 0.24612549E+03</pdfrwt>
<pdfrwt beam="2">  1       21 0.97721871E-02 0.24612549E+03</pdfrwt>
<totfact> 0.10496979E+04</totfact>
</mgrwt>
</event>
<event>
 4    1  0.4111182E+000  0.2017406E+03  0.7546771E-02  0.1148279E+00
         21   -1    0    0  503  502  0.00000000000E+00  0.00000000000E+00  0.12233342351E+03  0.12233342351E+03  0.00000000000E+00 0. -1.
         21   -1    0    0  501  503 -0.00000000000E+00 -0.00000000000E+00 -0.33433533470E+03  0.33433533470E+03  0.00000000000E+00 0. -1.
          6    1    1    2  501    0 -0.46955418275E+02 -0.92549806750E+02 -0.12201209869E+03  0.23576732229E+03  0.17300000000E+03 0.  1.
         -6    1    1    2    0  502  0.46955418275E+02  0.92549806750E+02 -0.89989812503E+02  0.22090143591E+03  0.17300000000E+03 0.  1.
<mgrwt>
<rscale>  2 0.20174062E+03</rscale>
<asrwt>0</asrwt>
<pdfrwt beam="1">  1       21 0.18820527E-01 0.20174062E+03</pdfrwt>
<pdfrwt beam="2">  1       21 0.51436206E-01 0.20174062E+03</pdfrwt>
<totfact> 0.92490961E+04</totfact>
</mgrwt>
</event>
<event>
 4    1  0.4111182E+000  0.2263587E+03  0.7546771E-02  0.1129229E+00
         21   -1    0    0  501  502  0.00000000000E+00  0.00000000000E+00  0.16703658343E+04  0.16703658343E+04  0.00000000000E+00 0.  1.
         21   -1    0    0  502  503 -0.00000000000E+00 -0.00000000000E+00 -0.41786213847E+02  0.41786213847E+02  0.00000000000E+00 0. -1.
          6    1    1    2  501    0 -0.38244703802E+02 -0.14087802833E+03  0.12557371112E+04  0.12759756928E+04  0.17300000000E+03 0.  1.
         -6    1    1    2    0  503  0.38244703802E+02  0.14087802833E+03  0.37284250926E+03  0.43617635532E+03  0.17300000000E+03 0.  1.
<mgrwt>
<rscale>  2 0.22635873E+03</rscale>
<asrwt>0</asrwt>
<pdfrwt beam="1">  1       21 0.25697931E+00 0.22635873E+03</pdfrwt>
<pdfrwt beam="2">  1       21 0.64286496E-02 0.22635873E+03</pdfrwt>
<totfact> 0.10279226E+04</totfact>
</mgrwt>
</event>
<event>
 4    1  0.4111182E+000  0.1870339E+03  0.7546771E-02  0.1161164E+00
         21   -1    0    0  503  502  0.00000000000E+00  0.00000000000E+00  0.42034562535E+02  0.42034562535E+02  0.00000000000E+00 0.  1.
         21   -1    0    0  501  503 -0.00000000000E+00 -0.00000000000E+00 -0.16029918401E+04  0.16029918401E+04  0.00000000000E+00 0.  1.
          6    1    1    2  501    0  0.26729743611E+02  0.65865142850E+02 -0.13508296308E+04  0.13637163883E+04  0.17300000000E+03 0.  1.
         -6    1    1    2    0  502 -0.26729743611E+02 -0.65865142850E+02 -0.21012764675E+03  0.28131001434E+03  0.17300000000E+03 0.  1.
<mgrwt>
<rscale>  2 0.18703394E+03</rscale>
<asrwt>0</asrwt>
<pdfrwt beam="1">  1       21 0.64668553E-02 0.18703394E+03</pdfrwt>
<pdfrwt beam="2">  1       21 0.24661415E+00 0.18703394E+03</pdfrwt>
<totfact> 0.12135053E+04</totfact>
</mgrwt>
</event>
<event>
 4    1  0.4111182E+000  0.2203168E+03  0.7546771E-02  0.1133647E+00
         21   -1    0    0  503  502  0.00000000000E+00  0.00000000000E+00  0.17340878221E+03  0.17340878221E+03  0.00000000000E+00 0. -1.
         21   -1    0    0  501  503 -0.00000000000E+00 -0.00000000000E+00 -0.31349356783E+03  0.31349356783E+03  0.00000000000E+00 0. -1.
          6    1    1    2  501    0 -0.13490698171E+03  0.20263546686E+02 -0.14972006387E+03  0.26637492856E+03  0.17300000000E+03 0. -1.
         -6    1    1    2    0  502  0.13490698171E+03 -0.20263546686E+02  0.96352782497E+01  0.22052742148E+03  0.17300000000E+03 0. -1.
<mgrwt>
<rscale>  2 0.22031683E+03</rscale>
<asrwt>0</asrwt>
<pdfrwt beam="1">  1       21 0.26678274E-01 0.22031683E+03</pdfrwt>
<pdfrwt beam="2">  1       21 0.48229780E-01 0.22031683E+03</pdfrwt>
<totfact> 0.54226915E+04</totfact>
</mgrwt>
</event>
<event>
 4    1  0.4111182E+000  0.2298397E+03  0.7546771E-02  0.1126753E+00
         21   -1    0    0  501  502  0.00000000000E+00  0.00000000000E+00  0.14239150940E+04  0.14239150940E+04  0.00000000000E+00 0. -1.
         21   -1    0    0  502  503 -0.00000000000E+00 -0.00000000000E+00 -0.56832041715E+02  0.56832041715E+02  0.00000000000E+00 0.  1.
          6    1    1    2  501    0 -0.14978715616E+03 -0.21472630223E+02  0.11198040358E+04  0.11431479977E+04  0.17300000000E+03 0. -1.
         -6    1    1    2    0  503  0.14978715616E+03  0.21472630223E+02  0.24727901643E+03  0.33759913798E+03  0.17300000000E+03 0. -1.
<mgrwt>
<rscale>  2 0.22983965E+03</rscale>
<asrwt>0</asrwt>
<pdfrwt beam="1">  1       21 0.21906383E+00 0.22983965E+03</pdfrwt>
<pdfrwt beam="2">  1       21 0.87433921E-02 0.22983965E+03</pdfrwt>
<totfact> 0.10157442E+04</totfact>
</mgrwt>
</event>
<event>
 4    1  0.4111182E+000  0.1978610E+03  0.7546771E-02  0.1151556E+00
         21   -1    0    0  503  502  0.00000000000E+00  0.00000000000E+00  0.22239019946E+02  0.22239019946E+02  0.00000000000E+00 0. -1.
         21   -1    0    0  501  503 -0.00000000000E+00 -0.00000000000E+00 -0.28136626402E+04  0.28136626402E+04  0.00000000000E+00 0. -1.
          6    1    1    2  501    0  0.10376225177E+02 -0.95458327036E+02 -0.22632711244E+04  0.22719034180E+04  0.17300000000E+03 0. -1.
         -6    1    1    2    0  502 -0.10376225177E+02  0.95458327036E+02 -0.52815249585E+03  0.56399824213E+03  0.17300000000E+03 0. -1.
<mgrwt>
<rscale>  2 0.19786096E+03</rscale>
<asrwt>0</asrwt>
<pdfrwt beam="1">  1       21 0.34213905E-02 0.19786096E+03</pdfrwt>
<pdfrwt beam="2">  1       21 0.43287082E+00 0.19786096E+03</pdfrwt>
<totfact> 0.27204303E+03</totfact>
</mgrwt>
</event>
<event>
 4    1  0.4111182E+000  0.1866617E+03  0.7546771E-02  0.1161507E+00
         21   -1    0    0  501  502  0.00000000000E+00  0.00000000000E+00  0.49837610269E+03  0.49837610269E+03  0.00000000000E+00 0.  1.
         21   -1    0    0  502  503 -0.00000000000E+00 -0.00000000000E+00 -0.71428943155E+02  0.71428943155E+02  0.00000000000E+00 0.  1.
          6    1    1    2  501    0 -0.21686109268E+02  0.66658202558E+02  0.25498863026E+03  0.31600918478E+03  0.17300000000E+03 0.  1.
         -6    1    1    2    0  503  0.21686109268E+02 -0.66658202558E+02  0.17195852928E+03  0.25379586107E+03  0.17300000000E+03 0.  1.
<mgrwt>
<rscale>  2 0.18666173E+03</rscale>
<asrwt>0</asrwt>
<pdfrwt beam="1">  1       21 0.76673244E-01 0.18666173E+03</pdfrwt>
<pdfrwt beam="2">  1       21 0.10989068E-01 0.18666173E+03</pdfrwt>
<totfact> 0.10413798E+05</totfact>
</mgrwt>
</event>
<event>
 4    1  0.4111182E+000  0.3854267E+03  0.7546771E-02  0.1048946E+00
         21   -1    0    0  503  502  0.00000000000E+00  0.00000000000E+00  0.11961137541E+04  0.11961137541E+04  0.00000000000E+00 0.  1.
         21   -1    0    0  501  503 -0.00000000000E+00 -0.00000000000E+00 -0.13714873890E+03  0.13714873890E+03  0.00000000000E+00 0.  1.
          6    1    1    2  501    0  0.34179310020E+03 -0.42452720483E+02  0.32462420951E+03  0.50391927351E+03  0.17300000000E+03 0.  1.
         -6    1    1    2    0  502 -0.34179310020E+03  0.42452720483E+02  0.73434080570E+03  0.82934321950E+03  0.17300000000E+03 0.  1.
<mgrwt>
<rscale>  2 0.38542672E+03</rscale>
<asrwt>0</asrwt>
<pdfrwt beam="1">  1       21 0.18401749E+00 0.38542672E+03</pdfrwt>
<pdfrwt beam="2">  1       21 0.21099807E-01 0.38542672E+03</pdfrwt>
<totfact> 0.31418465E+03</totfact>
</mgrwt>
</event>
<event>
 4    1  0.4111182E+000  0.1788024E+03  0.7546771E-02  0.1168967E+00
         21   -1    0    0  501  502  0.00000000000E+00  0.00000000000E+00  0.48822495242E+03  0.48822495242E+03  0.00000000000E+00 0.  1.
         21   -1    0    0  502  503 -0.00000000000E+00 -0.00000000000E+00 -0.83915907875E+02  0.83915907875E+02  0.00000000000E+00 0. -1.
          6    1    1    2  501    0  0.27106115622E+02 -0.36146196702E+02  0.33623058801E+03  0.38081661906E+03  0.17300000000E+03 0.  1.
         -6    1    1    2    0  503 -0.27106115622E+02  0.36146196702E+02  0.68078456538E+02  0.19132424124E+03  0.17300000000E+03 0. -1.
<mgrwt>
<rscale>  2 0.17880237E+03</rscale>
<asrwt>0</asrwt>
<pdfrwt beam="1">  1       21 0.75111530E-01 0.17880237E+03</pdfrwt>
<pdfrwt beam="2">  1       21 0.12910140E-01 0.17880237E+03</pdfrwt>
<totfact> 0.82034576E+04</totfact>
</mgrwt>
</event>
<event>
 4    1  0.4111182E+000  0.1899451E+03  0.7546771E-02  0.1158511E+00
         21   -1    0    0  503  502  0.00000000000E+00  0.00000000000E+00  0.73217085248E+02  0.73217085248E+02  0.00000000000E+00 0. -1.
         21   -1    0    0  501  503 -0.00000000000E+00 -0.00000000000E+00 -0.53868725142E+03  0.53868725142E+03  0.00000000000E+00 0. -1.
          6    1    1    2  501    0 -0.25327177524E+02  0.74220478088E+02 -0.32206060666E+03  0.37390129667E+03  0.17300000000E+03 0. -1.
         -6    1    1    2    0  502  0.25327177524E+02 -0.74220478088E+02 -0.14340955951E+03  0.23800304000E+03  0.17300000000E+03 0. -1.
<mgrwt>
<rscale>  2 0.18994511E+03</rscale>
<asrwt>0</asrwt>
<pdfrwt beam="1">  1       21 0.11264167E-01 0.18994511E+03</pdfrwt>
<pdfrwt beam="2">  1       21 0.82874962E-01 0.18994511E+03</pdfrwt>
<totfact> 0.83502845E+04</totfact>
</mgrwt>
</event>
<event>
 4    1  0.4111182E+000  0.1967691E+03  0.7546771E-02  0.1152494E+00
         21   -1    0    0  501  502  0.00000000000E+00  0.00000000000E+00  0.20460908355E+03  0.20460908355E+03  0.00000000000E+00 0.  1.
         21   -1    0    0  502  503 -0.00000000000E+00 -0.00000000000E+00 -0.45171086620E+03  0.45171086620E+03  0.00000000000E+00 0.  1.
          6    1    1    2  501    0 -0.93579568516E+02  0.56503906134E+01  0.12660148242E+03  0.23397862703E+03  0.17300000000E+03 0.  1.
         -6    1    1    2    0  503  0.93579568516E+02 -0.56503906134E+01 -0.37370326506E+03  0.42234132272E+03  0.17300000000E+03 0.  1.
<mgrwt>
<rscale>  2 0.19676906E+03</rscale>
<asrwt>0</asrwt>
<pdfrwt beam="1">  1       21 0.31478321E-01 0.19676906E+03</pdfrwt>
<pdfrwt beam="2">  1       21 0.69493979E-01 0.19676906E+03</pdfrwt>
<totfact> 0.18216906E+04</totfact>
</mgrwt>
</event>
<event>
 4    1  0.4111182E+000  0.1947167E+03  0.7546771E-02  0.1154275E+00
         21   -1    0    0  501  502  0.00000000000E+00  0.00000000000E+00  0.85379860121E+03  0.85379860121E+03  0.00000000000E+00 0.  1.
         21   -1    0    0  502  503 -0.00000000000E+00 -0.00000000000E+00 -0.69084352388E+02  0.69084352388E+02  0.00000000000E+00 0.  1.
          6    1    1    2  501    0  0.49192250279E+02  0.74603780525E+02  0.66814578396E+03  0.69594065134E+03  0.17300000000E+03 0.  1.
         -6    1    1    2    0  503 -0.49192250279E+02 -0.74603780525E+02  0.11656846486E+03  0.22694230226E+03  0.17300000000E+03 0.  1.
<mgrwt>
<rscale>  2 0.19471672E+03</rscale>
<asrwt>0</asrwt>
<pdfrwt beam="1">  1       21 0.13135362E+00 0.19471672E+03</pdfrwt>
<pdfrwt beam="2">  1       21 0.10628362E-01 0.19471672E+03</pdfrwt>
<totfact> 0.30637948E+04</totfact>
</mgrwt>
</event>
<event>
 4    1  0.4111182E+000  0.1946722E+03  0.7546771E-02  0.1154314E+00
         21   -1    0    0  501  502  0.00000000000E+00  0.00000000000E+00  0.14526223867E+03  0.14526223867E+03  0.00000000000E+00 0.  1.
         21   -1    0    0  502  503 -0.00000000000E+00 -0.00000000000E+00 -0.30740229751E+03  0.30740229751E+03  0.00000000000E+00 0.  1.
          6    1    1    2  501    0  0.88598142289E+02 -0.10892172620E+02  0.69705902882E+01  0.19479696961E+03  0.17300000000E+03 0.  1.
         -6    1    1    2    0  503 -0.88598142289E+02  0.10892172620E+02 -0.16911064913E+03  0.25786756657E+03  0.17300000000E+03 0.  1.
<mgrwt>
<rscale>  2 0.19467221E+03</rscale>
<asrwt>0</asrwt>
<pdfrwt beam="1">  1       21 0.22348037E-01 0.19467221E+03</pdfrwt>
<pdfrwt beam="2">  1       21 0.47292661E-01 0.19467221E+03</pdfrwt>
<totfact> 0.80092604E+04</totfact>
</mgrwt>
</event>
<event>
 4    1  0.4111182E+000  0.1892257E+03  0.7546771E-02  0.1159162E+00
         21   -1    0    0  501  502  0.00000000000E+00  0.00000000000E+00  0.33290927107E+02  0.33290927107E+02  0.00000000000E+00 0. -1.
         21   -1    0    0  502  503 -0.00000000000E+00 -0.00000000000E+00 -0.11636112256E+04  0.11636112256E+04  0.00000000000E+00 0. -1.
          6    1    1    2  501    0  0.72539789204E+02  0.24806340481E+02 -0.40053603848E+03  0.44298475557E+03  0.17300000000E+03 0. -1.
         -6    1    1    2    0  503 -0.72539789204E+02 -0.24806340481E+02 -0.72978426006E+03  0.75391739719E+03  0.17300000000E+03 0. -1.
<mgrwt>
<rscale>  2 0.18922573E+03</rscale>
<asrwt>0</asrwt>
<pdfrwt beam="1">  1       21 0.51216825E-02 0.18922573E+03</pdfrwt>
<pdfrwt beam="2">  1       21 0.17901706E+00 0.18922573E+03</pdfrwt>
<totfact> 0.47820387E+04</totfact>
</mgrwt>
</event>
<event>
 4    1  0.4111182E+000  0.3216254E+03  0.7546771E-02  0.1074904E+00
         21   -1    0    0  501  502  0.00000000000E+00  0.00000000000E+00  0.74970311460E+03  0.74970311460E+03  0.00000000000E+00 0.  1.
         21   -1    0    0  502  503 -0.00000000000E+00 -0.00000000000E+00 -0.14263227053E+03  0.14263227053E+03  0.00000000000E+00 0.  1.
          6    1    1    2  501    0  0.90933854614E+02 -0.25543084551E+03  0.22294313602E+03  0.39133939828E+03  0.17300000000E+03 0.  1.
         -6    1    1    2    0  503 -0.90933854614E+02  0.25543084551E+03  0.38412770805E+03  0.50099598685E+03  0.17300000000E+03 0.  1.
<mgrwt>
<rscale>  2 0.32162538E+03</rscale>
<asrwt>0</asrwt>
<pdfrwt beam="1">  1       21 0.11533894E+00 0.32162538E+03</pdfrwt>
<pdfrwt beam="2">  1       21 0.21943427E-01 0.32162538E+03</pdfrwt>
<totfact> 0.10505825E+04</totfact>
</mgrwt>
</event>
<event>
 4    1  0.4111182E+000  0.2087455E+03  0.7546771E-02  0.1142563E+00
         21   -1    0    0  503  502  0.00000000000E+00  0.00000000000E+00  0.23355834986E+03  0.23355834986E+03  0.00000000000E+00 0.  1.
         21   -1    0    0  501  503 -0.00000000000E+00 -0.00000000000E+00 -0.47751801526E+03  0.47751801526E+03  0.00000000000E+00 0. -1.
          6    1    1    2  501    0  0.10655232414E+03 -0.47877929924E+02 -0.39950347422E+03  0.45075239308E+03  0.17300000000E+03 0. -1.
         -6    1    1    2    0  502 -0.10655232414E+03  0.47877929924E+02  0.15554380883E+03  0.26032397204E+03  0.17300000000E+03 0.  1.
<mgrwt>
<rscale>  2 0.20874552E+03</rscale>
<asrwt>0</asrwt>
<pdfrwt beam="1">  1       21 0.35932054E-01 0.20874552E+03</pdfrwt>
<pdfrwt beam="2">  1       21 0.73464309E-01 0.20874552E+03</pdfrwt>
<totfact> 0.12303726E+04</totfact>
</mgrwt>
</event>
<event>
 4    1  0.4111182E+000  0.1889458E+03  0.7546771E-02  0.1159416E+00
         21   -1    0    0  503  502  0.00000000000E+00  0.00000000000E+00  0.29852852501E+03  0.29852852501E+03  0.00000000000E+00 0. -1.
         21   -1    0    0  501  503 -0.00000000000E+00 -0.00000000000E+00 -0.11959696290E+03  0.11959696290E+03  0.00000000000E+00 0.  1.
          6    1    1    2  501    0 -0.71645251496E+02 -0.25268256577E+02  0.91242307247E+02  0.20982298607E+03  0.17300000000E+03 0.  1.
         -6    1    1    2    0  502  0.71645251496E+02  0.25268256577E+02  0.87689254863E+02  0.20830250184E+03  0.17300000000E+03 0. -1.
<mgrwt>
<rscale>  2 0.18894583E+03</rscale>
<asrwt>0</asrwt>
<pdfrwt beam="1">  1       21 0.45927465E-01 0.18894583E+03</pdfrwt>
<pdfrwt beam="2">  1       21 0.18399533E-01 0.18894583E+03</pdfrwt>
<totfact> 0.12265627E+05</totfact>
</mgrwt>
</event>
<event>
 4    1  0.4111182E+000  0.2003352E+03  0.7546771E-02  0.1149456E+00
         21   -1    0    0  503  502  0.00000000000E+00  0.00000000000E+00  0.12344492086E+03  0.12344492086E+03  0.00000000000E+00 0.  1.
         21   -1    0    0  501  503 -0.00000000000E+00 -0.00000000000E+00 -0.10484969117E+04  0.10484969117E+04  0.00000000000E+00 0.  1.
          6    1    1    2  501    0  0.90344940753E+02 -0.45199440653E+02 -0.94924166387E+03  0.97015150064E+03  0.17300000000E+03 0.  1.
         -6    1    1    2    0  502 -0.90344940753E+02  0.45199440653E+02  0.24189673073E+02  0.20179033188E+03  0.17300000000E+03 0.  1.
<mgrwt>
<rscale>  2 0.20033521E+03</rscale>
<asrwt>0</asrwt>
<pdfrwt beam="1">  1       21 0.18991526E-01 0.20033521E+03</pdfrwt>
<pdfrwt beam="2">  1       21 0.16130722E+00 0.20033521E+03</pdfrwt>
<totfact> 0.62190592E+03</totfact>
</mgrwt>
</event>
<event>
 4    1  0.4111182E+000  0.2013274E+03  0.7546771E-02  0.1148624E+00
         21   -1    0    0  501  502  0.00000000000E+00  0.00000000000E+00  0.92958343494E+03  0.92958343494E+03  0.00000000000E+00 0.  1.
         21   -1    0    0  502  503 -0.00000000000E+00 -0.00000000000E+00 -0.44297440393E+02  0.44297440393E+02  0.00000000000E+00 0. -1.
          6    1    1    2  501    0  0.16271357545E+02  0.10168060879E+03  0.50360766178E+03  0.54235908795E+03  0.17300000000E+03 0. -1.
         -6    1    1    2    0  503 -0.16271357545E+02 -0.10168060879E+03  0.38167833277E+03  0.43152178738E+03  0.17300000000E+03 0. -1.
<mgrwt>
<rscale>  2 0.20132735E+03</rscale>
<asrwt>0</asrwt>
<pdfrwt beam="1">  1       21 0.14301282E+00 0.20132735E+03</pdfrwt>
<pdfrwt beam="2">  1       21 0.68149915E-02 0.20132735E+03</pdfrwt>
<totfact> 0.53388447E+04</totfact>
</mgrwt>
</event>
<event>
 4    1  0.4111182E+000  0.2748259E+03  0.7546771E-02  0.1098549E+00
         21   -1    0    0  501  502  0.00000000000E+00  0.00000000000E+00  0.24009064546E+03  0.24009064546E+03  0.00000000000E+00 0.  1.
         21   -1    0    0  502  503 -0.00000000000E+00 -0.00000000000E+00 -0.36329649542E+03  0.36329649542E+03  0.00000000000E+00 0. -1.
          6    1    1    2  501    0 -0.76424409708E+02 -0.19939801917E+03  0.48867183553E+02  0.27913663693E+03  0.17300000000E+03 0.  1.
         -6    1    1    2    0  503  0.76424409708E+02  0.19939801917E+03 -0.17207303351E+03  0.32425050395E+03  0.17300000000E+03 0. -1.
<mgrwt>
<rscale>  2 0.27482587E+03</rscale>
<asrwt>0</asrwt>
<pdfrwt beam="1">  1       21 0.36937023E-01 0.27482587E+03</pdfrwt>
<pdfrwt beam="2">  1       21 0.55891768E-01 0.27482587E+03</pdfrwt>
<totfact> 0.20425855E+04</totfact>
</mgrwt>
</event>
<event>
 4    1  0.4111182E+000  0.2375622E+03  0.7546771E-02  0.1121428E+00
         21   -1    0    0  503  502  0.00000000000E+00  0.00000000000E+00  0.12753524231E+03  0.12753524231E+03  0.00000000000E+00 0.  1.
         21   -1    0    0  501  503 -0.00000000000E+00 -0.00000000000E+00 -0.60643297045E+03  0.60643297045E+03  0.00000000000E+00 0. -1.
          6    1    1    2  501    0  0.11111671109E+03  0.11899527158E+03 -0.43024690518E+03  0.49147553099E+03  0.17300000000E+03 0. -1.
         -6    1    1    2    0  502 -0.11111671109E+03 -0.11899527158E+03 -0.48650822956E+02  0.24249268178E+03  0.17300000000E+03 0.  1.
<mgrwt>
<rscale>  2 0.23756220E+03</rscale>
<asrwt>0</asrwt>
<pdfrwt beam="1">  1       21 0.19620806E-01 0.23756220E+03</pdfrwt>
<pdfrwt beam="2">  1       21 0.93297380E-01 0.23756220E+03</pdfrwt>
<totfact> 0.22540547E+04</totfact>
</mgrwt>
</event>
<event>
 4    1  0.4111182E+000  0.1821624E+03  0.7546771E-02  0.1165727E+00
         21   -1    0    0  501  502  0.00000000000E+00  0.00000000000E+00  0.40764099504E+02  0.40764099504E+02  0.00000000000E+00 0. -1.
         21   -1    0    0  502  503 -0.00000000000E+00 -0.00000000000E+00 -0.13009354332E+04  0.13009354332E+04  0.00000000000E+00 0. -1.
          6    1    1    2  501    0  0.48687394245E+02 -0.29726581309E+02 -0.21967328466E+03  0.28537603962E+03  0.17300000000E+03 0. -1.
         -6    1    1    2    0  503 -0.48687394245E+02  0.29726581309E+02 -0.10404980490E+04  0.10563234931E+04  0.17300000000E+03 0. -1.
<mgrwt>
<rscale>  2 0.18216238E+03</rscale>
<asrwt>0</asrwt>
<pdfrwt beam="1">  1       21 0.62714006E-02 0.18216238E+03</pdfrwt>
<pdfrwt beam="2">  1       21 0.20014389E+00 0.18216238E+03</pdfrwt>
<totfact> 0.24681241E+04</totfact>
</mgrwt>
</event>
<event>
 4    1  0.4111182E+000  0.1964234E+03  0.7546771E-02  0.1152792E+00
         21   -1    0    0  501  502  0.00000000000E+00  0.00000000000E+00  0.14007589373E+03  0.14007589373E+03  0.00000000000E+00 0.  1.
         21   -1    0    0  502  503 -0.00000000000E+00 -0.00000000000E+00 -0.30421618380E+03  0.30421618380E+03  0.00000000000E+00 0.  1.
          6    1    1    2  501    0  0.85335047494E+02 -0.37028152369E+02 -0.13744638884E+02  0.19690370615E+03  0.17300000000E+03 0.  1.
         -6    1    1    2    0  503 -0.85335047494E+02  0.37028152369E+02 -0.15039565119E+03  0.24738837138E+03  0.17300000000E+03 0.  1.
<mgrwt>
<rscale>  2 0.19642341E+03</rscale>
<asrwt>0</asrwt>
<pdfrwt beam="1">  1       21 0.21550138E-01 0.19642341E+03</pdfrwt>
<pdfrwt beam="2">  1       21 0.46802489E-01 0.19642341E+03</pdfrwt>
<totfact> 0.87574395E+04</totfact>
</mgrwt>
</event>
<event>
 4    1  0.4111182E+000  0.1865441E+03  0.7546771E-02  0.1161616E+00
         21   -1    0    0  503  502  0.00000000000E+00  0.00000000000E+00  0.96067129467E+02  0.96067129467E+02  0.00000000000E+00 0.  1.
         21   -1    0    0  501  503 -0.00000000000E+00 -0.00000000000E+00 -0.36448997182E+03  0.36448997182E+03  0.00000000000E+00 0.  1.
          6    1    1    2  501    0 -0.69771748203E+02 -0.12706643035E+01 -0.15233094561E+03  0.24083900935E+03  0.17300000000E+03 0.  1.
         -6    1    1    2    0  502  0.69771748203E+02  0.12706643035E+01 -0.11609189674E+03  0.21971809194E+03  0.17300000000E+03 0.  1.
<mgrwt>
<rscale>  2 0.18654413E+03</rscale>
<asrwt>0</asrwt>
<pdfrwt beam="1">  1       21 0.14779559E-01 0.18654413E+03</pdfrwt>
<pdfrwt beam="2">  1       21 0.56075380E-01 0.18654413E+03</pdfrwt>
<totfact> 0.12091090E+05</totfact>
</mgrwt>
</event>
<event>
 4    1  0.4111182E+000  0.2361768E+03  0.7546771E-02  0.1122366E+00
         21   -1    0    0  503  502  0.00000000000E+00  0.00000000000E+00  0.51525585789E+03  0.51525585789E+03  0.00000000000E+00 0. -1.
         21   -1    0    0  501  503 -0.00000000000E+00 -0.00000000000E+00 -0.77229590285E+03  0.77229590285E+03  0.00000000000E+00 0. -1.
          6    1    1    2  501    0  0.14139337534E+03 -0.76540034499E+02 -0.72547279292E+03  0.76294838406E+03  0.17300000000E+03 0. -1.
         -6    1    1    2    0  502 -0.14139337534E+03  0.76540034499E+02  0.46843274796E+03  0.52460337669E+03  0.17300000000E+03 0. -1.
<mgrwt>
<rscale>  2 0.23617676E+03</rscale>
<asrwt>0</asrwt>
<pdfrwt beam="1">  1       21 0.79270132E-01 0.23617676E+03</pdfrwt>
<pdfrwt beam="2">  1       21 0.11881475E+00 0.23617676E+03</pdfrwt>
<totfact> 0.72832425E+02</totfact>
</mgrwt>
</event>
<event>
 4    1  0.4111182E+000  0.1987705E+03  0.7546771E-02  0.1150781E+00
         21   -1    0    0  503  502  0.00000000000E+00  0.00000000000E+00  0.59908695080E+03  0.59908695080E+03  0.00000000000E+00 0. -1.
         21   -1    0    0  501  503 -0.00000000000E+00 -0.00000000000E+00 -0.71585570815E+02  0.71585570815E+02  0.00000000000E+00 0. -1.
          6    1    1    2  501    0 -0.78535798077E+02  0.58419449168E+02  0.16966102490E+03  0.26133229229E+03  0.17300000000E+03 0. -1.
         -6    1    1    2    0  502  0.78535798077E+02 -0.58419449168E+02  0.35784035508E+03  0.40934022933E+03  0.17300000000E+03 0. -1.
<mgrwt>
<rscale>  2 0.19877048E+03</rscale>
<asrwt>0</asrwt>
<pdfrwt beam="1">  1       21 0.92167220E-01 0.19877048E+03</pdfrwt>
<pdfrwt beam="2">  1       21 0.11013165E-01 0.19877048E+03</pdfrwt>
<totfact> 0.67792030E+04</totfact>
</mgrwt>
</event>
<event>
 4    1  0.4111182E+000  0.2252045E+03  0.7546771E-02  0.1130061E+00
         21   -1    0    0  503  502  0.00000000000E+00  0.00000000000E+00  0.84229275792E+02  0.84229275792E+02  0.00000000000E+00 0. -1.
         21   -1    0    0  501  503 -0.00000000000E+00 -0.00000000000E+00 -0.61752501683E+03  0.61752501683E+03  0.00000000000E+00 0.  1.
          6    1    1    2  501    0 -0.10746377348E+03 -0.96122814245E+02 -0.32204710813E+03  0.39297760481E+03  0.17300000000E+03 0.  1.
         -6    1    1    2    0  502  0.10746377348E+03  0.96122814245E+02 -0.21124863290E+03  0.30877668781E+03  0.17300000000E+03 0. -1.
<mgrwt>
<rscale>  2 0.22520448E+03</rscale>
<asrwt>0</asrwt>
<pdfrwt beam="1">  1       21 0.12958351E-01 0.22520448E+03</pdfrwt>
<pdfrwt beam="2">  1       21 0.95003846E-01 0.22520448E+03</pdfrwt>
<totfact> 0.46594776E+04</totfact>
</mgrwt>
</event>
<event>
 4    1  0.4111182E+000  0.2057279E+03  0.7546771E-02  0.1144994E+00
         21   -1    0    0  503  502  0.00000000000E+00  0.00000000000E+00  0.14126241447E+03  0.14126241447E+03  0.00000000000E+00 0.  1.
         21   -1    0    0  501  503 -0.00000000000E+00 -0.00000000000E+00 -0.42292449124E+03  0.42292449124E+03  0.00000000000E+00 0. -1.
          6    1    1    2  501    0  0.45992739534E+02  0.10138863893E+03 -0.29315359009E+03  0.35813826321E+03  0.17300000000E+03 0. -1.
         -6    1    1    2    0  502 -0.45992739534E+02 -0.10138863893E+03  0.11491513320E+02  0.20604864249E+03  0.17300000000E+03 0.  1.
<mgrwt>
<rscale>  2 0.20572795E+03</rscale>
<asrwt>0</asrwt>
<pdfrwt beam="1">  1       21 0.21732679E-01 0.20572795E+03</pdfrwt>
<pdfrwt beam="2">  1       21 0.65065306E-01 0.20572795E+03</pdfrwt>
<totfact> 0.42671395E+04</totfact>
</mgrwt>
</event>
<event>
 4    1  0.4111182E+000  0.1874464E+03  0.7546771E-02  0.1160785E+00
         21   -1    0    0  503  502  0.00000000000E+00  0.00000000000E+00  0.55485699203E+03  0.55485699203E+03  0.00000000000E+00 0. -1.
         21   -1    0    0  501  503 -0.00000000000E+00 -0.00000000000E+00 -0.11068013025E+03  0.11068013025E+03  0.00000000000E+00 0. -1.
          6    1    1    2  501    0  0.53471904614E+02 -0.48455054065E+02  0.44214861658E+01  0.18749849703E+03  0.17300000000E+03 0.  1.
         -6    1    1    2    0  502 -0.53471904614E+02  0.48455054065E+02  0.43975537562E+03  0.47803862525E+03  0.17300000000E+03 0.  1.
<mgrwt>
<rscale>  2 0.18744636E+03</rscale>
<asrwt>0</asrwt>
<pdfrwt beam="1">  1       21 0.85362613E-01 0.18744636E+03</pdfrwt>
<pdfrwt beam="2">  1       21 0.17027713E-01 0.18744636E+03</pdfrwt>
<totfact> 0.37009537E+04</totfact>
</mgrwt>
</event>
<event>
 4    1  0.4111182E+000  0.2074345E+03  0.7546771E-02  0.1143614E+00
         21   -1    0    0  503  502  0.00000000000E+00  0.00000000000E+00  0.10757830141E+03  0.10757830141E+03  0.00000000000E+00 0. -1.
         21   -1    0    0  501  503 -0.00000000000E+00 -0.00000000000E+00 -0.41268929978E+03  0.41268929978E+03  0.00000000000E+00 0. -1.
          6    1    1    2  501    0 -0.93822204749E+02  0.65555171359E+02 -0.19820742266E+03  0.28690637670E+03  0.17300000000E+03 0. -1.
         -6    1    1    2    0  502  0.93822204749E+02 -0.65555171359E+02 -0.10690357571E+03  0.23336122449E+03  0.17300000000E+03 0. -1.
<mgrwt>
<rscale>  2 0.20743454E+03</rscale>
<asrwt>0</asrwt>
<pdfrwt beam="1">  1       21 0.16550508E-01 0.20743454E+03</pdfrwt>
<pdfrwt beam="2">  1       21 0.63490662E-01 0.20743454E+03</pdfrwt>
<totfact> 0.74675217E+04</totfact>
</mgrwt>
</event>
<event>
 4    1  0.4111182E+000  0.2523372E+03  0.7546771E-02  0.1111837E+00
         21   -1    0    0  501  502  0.00000000000E+00  0.00000000000E+00  0.10767314048E+04  0.10767314048E+04  0.00000000000E+00 0.  1.
         21   -1    0    0  502  503 -0.00000000000E+00 -0.00000000000E+00 -0.66642167907E+02  0.66642167907E+02  0.00000000000E+00 0. -1.
          6    1    1    2  501    0 -0.17325664150E+02 -0.18287939369E+03  0.69690278752E+03  0.74117983414E+03  0.17300000000E+03 0.  1.
         -6    1    1    2    0  503  0.17325664150E+02  0.18287939369E+03  0.31318644935E+03  0.40219373855E+03  0.17300000000E+03 0. -1.
<mgrwt>
<rscale>  2 0.25233718E+03</rscale>
<asrwt>0</asrwt>
<pdfrwt beam="1">  1       21 0.16565097E+00 0.25233718E+03</pdfrwt>
<pdfrwt beam="2">  1       21 0.10252642E-01 0.25233718E+03</pdfrwt>
<totfact> 0.17115072E+04</totfact>
</mgrwt>
</event>
<event>
 4    1  0.4111182E+000  0.1747087E+03  0.7546771E-02  0.1173025E+00
         21   -1    0    0  503  502  0.00000000000E+00  0.00000000000E+00  0.59040652082E+03  0.59040652082E+03  0.00000000000E+00 0.  1.
         21   -1    0    0  501  503 -0.00000000000E+00 -0.00000000000E+00 -0.64782312909E+02  0.64782312909E+02  0.00000000000E+00 0.  1.
          6    1    1    2  501    0 -0.66918699995E+01  0.23438136938E+02  0.11558914384E+03  0.20948502944E+03  0.17300000000E+03 0.  1.
         -6    1    1    2    0  502  0.66918699995E+01 -0.23438136938E+02  0.41003506407E+03  0.44570380428E+03  0.17300000000E+03 0.  1.
<mgrwt>
<rscale>  2 0.17470869E+03</rscale>
<asrwt>0</asrwt>
<pdfrwt beam="1">  1       21 0.90831769E-01 0.17470869E+03</pdfrwt>
<pdfrwt beam="2">  1       21 0.99665101E-02 0.17470869E+03</pdfrwt>
<totfact> 0.84595981E+04</totfact>
</mgrwt>
</event>
<event>
 4    1  0.4111182E+000  0.2020023E+03  0.7546771E-02  0.1148061E+00
         21   -1    0    0  501  502  0.00000000000E+00  0.00000000000E+00  0.18575218958E+03  0.18575218958E+03  0.00000000000E+00 0.  1.
         21   -1    0    0  502  503 -0.00000000000E+00 -0.00000000000E+00 -0.22978882854E+03  0.22978882854E+03  0.00000000000E+00 0. -1.
          6    1    1    2  501    0 -0.10266869295E+03  0.18304626593E+02  0.21572945977E+02  0.20315095832E+03  0.17300000000E+03 0.  1.
         -6    1    1    2    0  503  0.10266869295E+03 -0.18304626593E+02 -0.65609584930E+02  0.21239005980E+03  0.17300000000E+03 0. -1.
<mgrwt>
<rscale>  2 0.20200228E+03</rscale>
<asrwt>0</asrwt>
<pdfrwt beam="1">  1       21 0.28577260E-01 0.20200228E+03</pdfrwt>
<pdfrwt beam="2">  1       21 0.35352127E-01 0.20200228E+03</pdfrwt>
<totfact> 0.89998046E+04</totfact>
</mgrwt>
</event>
<event>
 4    1  0.4111182E+000  0.1836697E+03  0.7546771E-02  0.1164298E+00
         21   -1    0    0  501  502  0.00000000000E+00  0.00000000000E+00  0.46425347812E+03  0.46425347812E+03  0.00000000000E+00 0.  1.
         21   -1    0    0  502  503 -0.00000000000E+00 -0.00000000000E+00 -0.76217380972E+02  0.76217380972E+02  0.00000000000E+00 0.  1.
          6    1    1    2  501    0  0.36711582929E+02  0.49576366811E+02  0.25236667937E+03  0.31212737355E+03  0.17300000000E+03 0.  1.
         -6    1    1    2    0  503 -0.36711582929E+02 -0.49576366811E+02  0.13566941779E+03  0.22834348554E+03  0.17300000000E+03 0.  1.
<mgrwt>
<rscale>  2 0.18366969E+03</rscale>
<asrwt>0</asrwt>
<pdfrwt beam="1">  1       21 0.71423610E-01 0.18366969E+03</pdfrwt>
<pdfrwt beam="2">  1       21 0.11725751E-01 0.18366969E+03</pdfrwt>
<totfact> 0.10875818E+05</totfact>
</mgrwt>
</event>
<event>
 4    1  0.4111182E+000  0.2082423E+03  0.7546771E-02  0.1142965E+00
         21   -1    0    0  503  502  0.00000000000E+00  0.00000000000E+00  0.43913223418E+03  0.43913223418E+03  0.00000000000E+00 0.  1.
         21   -1    0    0  501  503 -0.00000000000E+00 -0.00000000000E+00 -0.18346953915E+03  0.18346953915E+03  0.00000000000E+00 0.  1.
          6    1    1    2  501    0  0.61206700117E+02  0.98435776602E+02 -0.83705939691E+02  0.22443606349E+03  0.17300000000E+03 0.  1.
         -6    1    1    2    0  502 -0.61206700117E+02 -0.98435776602E+02  0.33936863473E+03  0.39816570984E+03  0.17300000000E+03 0.  1.
<mgrwt>
<rscale>  2 0.20824232E+03</rscale>
<asrwt>0</asrwt>
<pdfrwt beam="1">  1       21 0.67558805E-01 0.20824232E+03</pdfrwt>
<pdfrwt beam="2">  1       21 0.28226083E-01 0.20824232E+03</pdfrwt>
<totfact> 0.23814138E+04</totfact>
</mgrwt>
</event>
<event>
 4    1  0.4111182E+000  0.1882403E+03  0.7546771E-02  0.1160058E+00
         21   -1    0    0  503  502  0.00000000000E+00  0.00000000000E+00  0.21331153253E+04  0.21331153253E+04  0.00000000000E+00 0.  1.
         21   -1    0    0  501  503 -0.00000000000E+00 -0.00000000000E+00 -0.81970567288E+02  0.81970567288E+02  0.00000000000E+00 0.  1.
          6    1    1    2  501    0 -0.16189648037E+02 -0.72410767227E+02  0.36599800847E+02  0.19176540182E+03  0.17300000000E+03 0.  1.
         -6    1    1    2    0  502  0.16189648037E+02  0.72410767227E+02  0.20145449572E+04  0.20233204908E+04  0.17300000000E+03 0.  1.
<mgrwt>
<rscale>  2 0.18824034E+03</rscale>
<asrwt>0</asrwt>
<pdfrwt beam="1">  1       21 0.32817155E+00 0.18824034E+03</pdfrwt>
<pdfrwt beam="2">  1       21 0.12610858E-01 0.18824034E+03</pdfrwt>
<totfact> 0.12677453E+03</totfact>
</mgrwt>
</event>
<event>
 4    1  0.4111182E+000  0.2094080E+03  0.7546771E-02  0.1142036E+00
         21   -1    0    0  503  502  0.00000000000E+00  0.00000000000E+00  0.55907885547E+03  0.55907885547E+03  0.00000000000E+00 0.  1.
         21   -1    0    0  501  503 -0.00000000000E+00 -0.00000000000E+00 -0.14604305543E+03  0.14604305543E+03  0.00000000000E+00 0. -1.
          6    1    1    2  501    0  0.10065909603E+03 -0.61566564033E+02 -0.33360419324E+02  0.21204860999E+03  0.17300000000E+03 0. -1.
         -6    1    1    2    0  502 -0.10065909603E+03  0.61566564033E+02  0.44639621936E+03  0.49307330092E+03  0.17300000000E+03 0.  1.
<mgrwt>
<rscale>  2 0.20940796E+03</rscale>
<asrwt>0</asrwt>
<pdfrwt beam="1">  1       21 0.86012130E-01 0.20940796E+03</pdfrwt>
<pdfrwt beam="2">  1       21 0.22468163E-01 0.20940796E+03</pdfrwt>
<totfact> 0.21418808E+04</totfact>
</mgrwt>
</event>
<event>
 4    1  0.4111182E+000  0.2272072E+03  0.7546771E-02  0.1128621E+00
         21   -1    0    0  503  502  0.00000000000E+00  0.00000000000E+00  0.68325897495E+03  0.68325897495E+03  0.00000000000E+00 0. -1.
         21   -1    0    0  501  503 -0.00000000000E+00 -0.00000000000E+00 -0.78056131055E+02  0.78056131055E+02  0.00000000000E+00 0. -1.
          6    1    1    2  501    0  0.14680296834E+03  0.11957863729E+02  0.23445132481E+03  0.32648204502E+03  0.17300000000E+03 0. -1.
         -6    1    1    2    0  502 -0.14680296834E+03 -0.11957863729E+02  0.37075151909E+03  0.43483306098E+03  0.17300000000E+03 0. -1.
<mgrwt>
<rscale>  2 0.22720718E+03</rscale>
<asrwt>0</asrwt>
<pdfrwt beam="1">  1       21 0.10511676E+00 0.22720718E+03</pdfrwt>
<pdfrwt beam="2">  1       21 0.12008636E-01 0.22720718E+03</pdfrwt>
<totfact> 0.41951360E+04</totfact>
</mgrwt>
</event>
<event>
 4    1  0.4111182E+000  0.1782875E+03  0.7546771E-02  0.1169471E+00
         21   -1    0    0  501  502  0.00000000000E+00  0.00000000000E+00  0.21477457861E+02  0.21477457861E+02  0.00000000000E+00 0.  1.
         21   -1    0    0  502  503 -0.00000000000E+00 -0.00000000000E+00 -0.15559669357E+04  0.15559669357E+04  0.00000000000E+00 0.  1.
          6    1    1    2  501    0 -0.43002384321E+02 -0.28688722726E+01 -0.94153097378E+03  0.95826249539E+03  0.17300000000E+03 0. -1.
         -6    1    1    2    0  503  0.43002384321E+02  0.28688722726E+01 -0.59295850407E+03  0.61918189818E+03  0.17300000000E+03 0. -1.
<mgrwt>
<rscale>  2 0.17828751E+03</rscale>
<asrwt>0</asrwt>
<pdfrwt beam="1">  1       21 0.33042233E-02 0.17828751E+03</pdfrwt>
<pdfrwt beam="2">  1       21 0.23937960E+00 0.17828751E+03</pdfrwt>
<totfact> 0.41888744E+04</totfact>
</mgrwt>
</event>
<event>
 4    1  0.4111182E+000  0.2047685E+03  0.7546771E-02  0.1145777E+00
         21   -1    0    0  501  502  0.00000000000E+00  0.00000000000E+00  0.10278257209E+03  0.10278257209E+03  0.00000000000E+00 0. -1.
         21   -1    0    0  502  503 -0.00000000000E+00 -0.00000000000E+00 -0.79793272030E+03  0.79793272030E+03  0.00000000000E+00 0. -1.
          6    1    1    2  501    0 -0.34843160800E+02  0.10386096062E+03 -0.32729846785E+02  0.20736775995E+03  0.17300000000E+03 0. -1.
         -6    1    1    2    0  503  0.34843160800E+02 -0.10386096062E+03 -0.66242030143E+03  0.69334753244E+03  0.17300000000E+03 0. -1.
<mgrwt>
<rscale>  2 0.20476852E+03</rscale>
<asrwt>0</asrwt>
<pdfrwt beam="1">  1       21 0.15812703E-01 0.20476852E+03</pdfrwt>
<pdfrwt beam="2">  1       21 0.12275888E+00 0.20476852E+03</pdfrwt>
<totfact> 0.17640425E+04</totfact>
</mgrwt>
</event>
<event>
 4    1  0.4111182E+000  0.2137036E+03  0.7546771E-02  0.1138666E+00
         21   -1    0    0  501  502  0.00000000000E+00  0.00000000000E+00  0.76524415571E+03  0.76524415571E+03  0.00000000000E+00 0.  1.
         21   -1    0    0  502  503 -0.00000000000E+00 -0.00000000000E+00 -0.29732169740E+03  0.29732169740E+03  0.00000000000E+00 0. -1.
          6    1    1    2  501    0 -0.34904212579E+02 -0.12050691859E+03  0.70894036942E+03  0.74044963966E+03  0.17300000000E+03 0.  1.
         -6    1    1    2    0  503  0.34904212579E+02  0.12050691859E+03 -0.24101791112E+03  0.32211621344E+03  0.17300000000E+03 0. -1.
<mgrwt>
<rscale>  2 0.21370358E+03</rscale>
<asrwt>0</asrwt>
<pdfrwt beam="1">  1       21 0.11772987E+00 0.21370358E+03</pdfrwt>
<pdfrwt beam="2">  1       21 0.45741800E-01 0.21370358E+03</pdfrwt>
<totfact> 0.24905306E+03</totfact>
</mgrwt>
</event>
<event>
 4    1  0.4111182E+000  0.1746714E+03  0.7546771E-02  0.1173062E+00
         21   -1    0    0  503  502  0.00000000000E+00  0.00000000000E+00  0.61310607619E+02  0.61310607619E+02  0.00000000000E+00 0.  1.
         21   -1    0    0  501  503 -0.00000000000E+00 -0.00000000000E+00 -0.86658759482E+03  0.86658759482E+03  0.00000000000E+00 0.  1.
          6    1    1    2  501    0 -0.96628129505E+01 -0.22084654730E+02 -0.70536561431E+03  0.72667100656E+03  0.17300000000E+03 0.  1.
         -6    1    1    2    0  502  0.96628129505E+01  0.22084654730E+02 -0.99911372900E+02  0.20122719588E+03  0.17300000000E+03 0.  1.
<mgrwt>
<rscale>  2 0.17467141E+03</rscale>
<asrwt>0</asrwt>
<pdfrwt beam="1">  1       21 0.94324005E-02 0.17467141E+03</pdfrwt>
<pdfrwt beam="2">  1       21 0.13332118E+00 0.17467141E+03</pdfrwt>
<totfact> 0.36861383E+04</totfact>
</mgrwt>
</event>
<event>
 4    1  0.4111182E+000  0.1830167E+03  0.7546771E-02  0.1164915E+00
         21   -1    0    0  503  502  0.00000000000E+00  0.00000000000E+00  0.14869979310E+04  0.14869979310E+04  0.00000000000E+00 0.  1.
         21   -1    0    0  501  503 -0.00000000000E+00 -0.00000000000E+00 -0.50179227298E+02  0.50179227298E+02  0.00000000000E+00 0.  1.
          6    1    1    2  501    0 -0.45002639674E+02 -0.39253812257E+02  0.14783766229E+03  0.23526808909E+03  0.17300000000E+03 0.  1.
         -6    1    1    2    0  502  0.45002639674E+02  0.39253812257E+02  0.12889810414E+04  0.13019090692E+04  0.17300000000E+03 0.  1.
<mgrwt>
<rscale>  2 0.18301666E+03</rscale>
<asrwt>0</asrwt>
<pdfrwt beam="1">  1       21 0.22876888E+00 0.18301666E+03</pdfrwt>
<pdfrwt beam="2">  1       21 0.77198822E-02 0.18301666E+03</pdfrwt>
<totfact> 0.11458034E+04</totfact>
</mgrwt>
</event>
<event>
 4    1  0.4111182E+000  0.2416906E+03  0.7546771E-02  0.1118672E+00
         21   -1    0    0  501  502  0.00000000000E+00  0.00000000000E+00  0.42864041803E+03  0.42864041803E+03  0.00000000000E+00 0.  1.
         21   -1    0    0  502  503 -0.00000000000E+00 -0.00000000000E+00 -0.14213429623E+03  0.14213429623E+03  0.00000000000E+00 0.  1.
          6    1    1    2  501    0  0.30680564460E+02  0.16596396306E+03  0.20118129675E+03  0.31446501909E+03  0.17300000000E+03 0.  1.
         -6    1    1    2    0  503 -0.30680564460E+02 -0.16596396306E+03  0.85324825042E+02  0.25630969517E+03  0.17300000000E+03 0.  1.
<mgrwt>
<rscale>  2 0.24169058E+03</rscale>
<asrwt>0</asrwt>
<pdfrwt beam="1">  1       21 0.65944679E-01 0.24169058E+03</pdfrwt>
<pdfrwt beam="2">  1       21 0.21866815E-01 0.24169058E+03</pdfrwt>
<totfact> 0.40276767E+04</totfact>
</mgrwt>
</event>
<event>
 4    1  0.4111182E+000  0.2644333E+03  0.7546771E-02  0.1104509E+00
         21   -1    0    0  501  502  0.00000000000E+00  0.00000000000E+00  0.22785547883E+04  0.22785547883E+04  0.00000000000E+00 0. -1.
         21   -1    0    0  502  503 -0.00000000000E+00 -0.00000000000E+00 -0.41218470010E+02  0.41218470010E+02  0.00000000000E+00 0.  1.
          6    1    1    2  501    0  0.16097571813E+03 -0.11867081647E+03  0.17049245054E+04  0.17253093965E+04  0.17300000000E+03 0. -1.
         -6    1    1    2    0  503 -0.16097571813E+03  0.11867081647E+03  0.53241181293E+03  0.59446386186E+03  0.17300000000E+03 0. -1.
<mgrwt>
<rscale>  2 0.26443325E+03</rscale>
<asrwt>0</asrwt>
<pdfrwt beam="1">  1       21 0.35054679E+00 0.26443325E+03</pdfrwt>
<pdfrwt beam="2">  1       21 0.63413049E-02 0.26443325E+03</pdfrwt>
<totfact> 0.28690859E+03</totfact>
</mgrwt>
</event>
<event>
 4    1  0.4111182E+000  0.1928138E+03  0.7546771E-02  0.1155948E+00
         21   -1    0    0  503  502  0.00000000000E+00  0.00000000000E+00  0.37863109887E+03  0.37863109887E+03  0.00000000000E+00 0. -1.
         21   -1    0    0  501  503 -0.00000000000E+00 -0.00000000000E+00 -0.14749233885E+03  0.14749233885E+03  0.00000000000E+00 0.  1.
          6    1    1    2  501    0  0.32181322032E+02  0.78819675201E+02 -0.36525209949E+02  0.19624288433E+03  0.17300000000E+03 0.  1.
         -6    1    1    2    0  502 -0.32181322032E+02 -0.78819675201E+02  0.26766396997E+03  0.32988055339E+03  0.17300000000E+03 0. -1.
<mgrwt>
<rscale>  2 0.19281384E+03</rscale>
<asrwt>0</asrwt>
<pdfrwt beam="1">  1       21 0.58250938E-01 0.19281384E+03</pdfrwt>
<pdfrwt beam="2">  1       21 0.22691129E-01 0.19281384E+03</pdfrwt>
<totfact> 0.50267548E+04</totfact>
</mgrwt>
</event>
<event>
 4    1  0.4111182E+000  0.2250431E+03  0.7546771E-02  0.1130178E+00
         21   -1    0    0  501  502  0.00000000000E+00  0.00000000000E+00  0.18336334416E+03  0.18336334416E+03  0.00000000000E+00 0. -1.
         21   -1    0    0  502  503 -0.00000000000E+00 -0.00000000000E+00 -0.43881173443E+03  0.43881173443E+03  0.00000000000E+00 0. -1.
          6    1    1    2  501    0  0.92686056286E+02 -0.11011209684E+03  0.61651238632E+02  0.23333506836E+03  0.17300000000E+03 0. -1.
         -6    1    1    2    0  503 -0.92686056286E+02  0.11011209684E+03 -0.31709962891E+03  0.38884001023E+03  0.17300000000E+03 0. -1.
<mgrwt>
<rscale>  2 0.22504306E+03</rscale>
<asrwt>0</asrwt>
<pdfrwt beam="1">  1       21 0.28209746E-01 0.22504306E+03</pdfrwt>
<pdfrwt beam="2">  1       21 0.67509496E-01 0.22504306E+03</pdfrwt>
<totfact> 0.23662222E+04</totfact>
</mgrwt>
</event>
<event>
 4    1  0.4111182E+000  0.2112035E+03  0.7546771E-02  0.1140616E+00
         21   -1    0    0  503  502  0.00000000000E+00  0.00000000000E+00  0.16702970624E+03  0.16702970624E+03  0.00000000000E+00 0.  1.
         21   -1    0    0  501  503 -0.00000000000E+00 -0.00000000000E+00 -0.59657237858E+03  0.59657237858E+03  0.00000000000E+00 0. -1.
          6    1    1    2  501    0  0.69266122406E+02  0.99398762659E+02 -0.49852506552E+03  0.54141864642E+03  0.17300000000E+03 0. -1.
         -6    1    1    2    0  502 -0.69266122406E+02 -0.99398762659E+02  0.68982393191E+02  0.22218343841E+03  0.17300000000E+03 0.  1.
<mgrwt>
<rscale>  2 0.21120348E+03</rscale>
<asrwt>0</asrwt>
<pdfrwt beam="1">  1       21 0.25696878E-01 0.21120348E+03</pdfrwt>
<pdfrwt beam="2">  1       21 0.91780365E-01 0.21120348E+03</pdfrwt>
<totfact> 0.14255261E+04</totfact>
</mgrwt>
</event>
<event>
 4    1  0.4111182E+000  0.1992941E+03  0.7546771E-02  0.1150336E+00
         21   -1    0    0  503  502  0.00000000000E+00  0.00000000000E+00  0.29057022925E+03  0.29057022925E+03  0.00000000000E+00 0. -1.
         21   -1    0    0  501  503 -0.00000000000E+00 -0.00000000000E+00 -0.18678555918E+03  0.18678555918E+03  0.00000000000E+00 0. -1.
          6    1    1    2  501    0  0.54015201281E+02  0.82894414080E+02 -0.71713493998E+02  0.21180403933E+03  0.17300000000E+03 0. -1.
         -6    1    1    2    0  502 -0.54015201281E+02 -0.82894414080E+02  0.17549816407E+03  0.26555174910E+03  0.17300000000E+03 0. -1.
<mgrwt>
<rscale>  2 0.19929407E+03</rscale>
<asrwt>0</asrwt>
<pdfrwt beam="1">  1       21 0.44703112E-01 0.19929407E+03</pdfrwt>
<pdfrwt beam="2">  1       21 0.28736240E-01 0.19929407E+03</pdfrwt>
<totfact> 0.55478978E+04</totfact>
</mgrwt>
</event>
<event>
 4    1  0.4111182E+000  0.3432040E+03  0.7546771E-02  0.1065439E+00
         21   -1    0    0  501  502  0.00000000000E+00  0.00000000000E+00  0.40899984279E+03  0.40899984279E+03  0.00000000000E+00 0. -1.
         21   -1    0    0  502  503 -0.00000000000E+00 -0.00000000000E+00 -0.40418543462E+03  0.40418543462E+03  0.00000000000E+00 0.  1.
          6    1    1    2  501    0 -0.29640189214E+03  0.24246895140E+01  0.22040831473E+03  0.40788329946E+03  0.17300000000E+03 0. -1.
         -6    1    1    2    0  503  0.29640189214E+03 -0.24246895140E+01 -0.21559390656E+03  0.40530197794E+03  0.17300000000E+03 0.  1.
<mgrwt>
<rscale>  2 0.34320396E+03</rscale>
<asrwt>0</asrwt>
<pdfrwt beam="1">  1       21 0.62923052E-01 0.34320396E+03</pdfrwt>
<pdfrwt beam="2">  1       21 0.62182375E-01 0.34320396E+03</pdfrwt>
<totfact> 0.51401581E+03</totfact>
</mgrwt>
</event>
<event>
 4    1  0.4111182E+000  0.1800738E+03  0.7546771E-02  0.1167732E+00
         21   -1    0    0  503  502  0.00000000000E+00  0.00000000000E+00  0.26653209275E+03  0.26653209275E+03  0.00000000000E+00 0.  1.
         21   -1    0    0  501  503 -0.00000000000E+00 -0.00000000000E+00 -0.66433413489E+03  0.66433413489E+03  0.00000000000E+00 0.  1.
          6    1    1    2  501    0  0.49511119746E+02  0.67980387987E+01 -0.61956289346E+03  0.64520131995E+03  0.17300000000E+03 0.  1.
         -6    1    1    2    0  502 -0.49511119746E+02 -0.67980387987E+01  0.22176085131E+03  0.28566490769E+03  0.17300000000E+03 0.  1.
<mgrwt>
<rscale>  2 0.18007377E+03</rscale>
<asrwt>0</asrwt>
<pdfrwt beam="1">  1       21 0.41004939E-01 0.18007377E+03</pdfrwt>
<pdfrwt beam="2">  1       21 0.10220525E+00 0.18007377E+03</pdfrwt>
<totfact> 0.45110406E+03</totfact>
</mgrwt>
</event>
<event>
 4    1  0.4111182E+000  0.2183821E+03  0.7546771E-02  0.1135095E+00
         21   -1    0    0  501  502  0.00000000000E+00  0.00000000000E+00  0.55338951353E+03  0.55338951353E+03  0.00000000000E+00 0. -1.
         21   -1    0    0  502  503 -0.00000000000E+00 -0.00000000000E+00 -0.14890679008E+03  0.14890679008E+03  0.00000000000E+00 0.  1.
          6    1    1    2  501    0  0.12848874644E+03  0.35389184892E+02  0.43015058152E+03  0.48241089867E+03  0.17300000000E+03 0. -1.
         -6    1    1    2    0  503 -0.12848874644E+03 -0.35389184892E+02 -0.25667858070E+02  0.21988540494E+03  0.17300000000E+03 0.  1.
<mgrwt>
<rscale>  2 0.21838212E+03</rscale>
<asrwt>0</asrwt>
<pdfrwt beam="1">  1       21 0.85136847E-01 0.21838212E+03</pdfrwt>
<pdfrwt beam="2">  1       21 0.22908737E-01 0.21838212E+03</pdfrwt>
<totfact> 0.21027894E+04</totfact>
</mgrwt>
</event>
<event>
 4    1  0.4111182E+000  0.1809898E+03  0.7546771E-02  0.1166849E+00
         21   -1    0    0  501  502  0.00000000000E+00  0.00000000000E+00  0.73333767389E+02  0.73333767389E+02  0.00000000000E+00 0. -1.
         21   -1    0    0  502  503 -0.00000000000E+00 -0.00000000000E+00 -0.77803196899E+03  0.77803196899E+03  0.00000000000E+00 0. -1.
          6    1    1    2  501    0  0.51738836730E+02 -0.12304732899E+02 -0.74552461218E+02  0.19574315608E+03  0.17300000000E+03 0. -1.
         -6    1    1    2    0  503 -0.51738836730E+02  0.12304732899E+02 -0.63014574039E+03  0.65562258030E+03  0.17300000000E+03 0. -1.
<mgrwt>
<rscale>  2 0.18098982E+03</rscale>
<asrwt>0</asrwt>
<pdfrwt beam="1">  1       21 0.11282117E-01 0.18098982E+03</pdfrwt>
<pdfrwt beam="2">  1       21 0.11969723E+00 0.18098982E+03</pdfrwt>
<totfact> 0.35044676E+04</totfact>
</mgrwt>
</event>
<event>
 4    1  0.4111182E+000  0.2473818E+03  0.7546771E-02  0.1114971E+00
         21   -1    0    0  501  502  0.00000000000E+00  0.00000000000E+00  0.55289484617E+02  0.55289484617E+02  0.00000000000E+00 0.  1.
         21   -1    0    0  502  503 -0.00000000000E+00 -0.00000000000E+00 -0.11693966355E+04  0.11693966355E+04  0.00000000000E+00 0. -1.
          6    1    1    2  501    0 -0.17463506959E+03  0.27772792687E+02 -0.41544808462E+03  0.48352336713E+03  0.17300000000E+03 0.  1.
         -6    1    1    2    0  503  0.17463506959E+03 -0.27772792687E+02 -0.69865906627E+03  0.74116275300E+03  0.17300000000E+03 0.  1.
<mgrwt>
<rscale>  2 0.24738176E+03</rscale>
<asrwt>0</asrwt>
<pdfrwt beam="1">  1       21 0.85060745E-02 0.24738176E+03</pdfrwt>
<pdfrwt beam="2">  1       21 0.17990718E+00 0.24738176E+03</pdfrwt>
<totfact> 0.18949217E+04</totfact>
</mgrwt>
</event>
<event>
 4    1  0.4111182E+000  0.1738047E+03  0.7546771E-02  0.1173937E+00
         21   -1    0    0  501  502  0.00000000000E+00  0.00000000000E+00  0.20502099702E+04  0.20502099702E+04  0.00000000000E+00 0. -1.
         21   -1    0    0  502  503 -0.00000000000E+00 -0.00000000000E+00 -0.26026487180E+02  0.26026487180E+02  0.00000000000E+00 0. -1.
          6    1    1    2  501    0 -0.15492206913E+02  0.62497588722E+01  0.16958951643E+04  0.17047781311E+04  0.17300000000E+03 0.  1.
         -6    1    1    2    0  503  0.15492206913E+02 -0.62497588722E+01  0.32828831874E+03  0.37145832630E+03  0.17300000000E+03 0.  1.
<mgrwt>
<rscale>  2 0.17380468E+03</rscale>
<asrwt>0</asrwt>
<pdfrwt beam="1">  1       21 0.31541679E+00 0.17380468E+03</pdfrwt>
<pdfrwt beam="2">  1       21 0.40040765E-02 0.17380468E+03</pdfrwt>
<totfact> 0.11121935E+04</totfact>
</mgrwt>
</event>
<event>
 4    1  0.4111182E+000  0.2597265E+03  0.7546771E-02  0.1107308E+00
         21   -1    0    0  503  502  0.00000000000E+00  0.00000000000E+00  0.21991553129E+03  0.21991553129E+03  0.00000000000E+00 0.  1.
         21   -1    0    0  501  503 -0.00000000000E+00 -0.00000000000E+00 -0.48492741856E+03  0.48492741856E+03  0.00000000000E+00 0. -1.
          6    1    1    2  501    0 -0.15207282185E+03  0.12001122471E+03 -0.34613349557E+03  0.43274268793E+03  0.17300000000E+03 0. -1.
         -6    1    1    2    0  502  0.15207282185E+03 -0.12001122471E+03  0.81121608294E+02  0.27210026192E+03  0.17300000000E+03 0.  1.
<mgrwt>
<rscale>  2 0.25972647E+03</rscale>
<asrwt>0</asrwt>
<pdfrwt beam="1">  1       21 0.33833159E-01 0.25972647E+03</pdfrwt>
<pdfrwt beam="2">  1       21 0.74604218E-01 0.25972647E+03</pdfrwt>
<totfact> 0.13019163E+04</totfact>
</mgrwt>
</event>
<event>
 4    1  0.4111182E+000  0.2119834E+03  0.7546771E-02  0.1140005E+00
         21   -1    0    0  501  502  0.00000000000E+00  0.00000000000E+00  0.61963361412E+02  0.61963361412E+02  0.00000000000E+00 0.  1.
         21   -1    0    0  502  503 -0.00000000000E+00 -0.00000000000E+00 -0.13318300991E+04  0.13318300991E+04  0.00000000000E+00 0.  1.
          6    1    1    2  501    0  0.61007739760E+02 -0.10623567558E+03 -0.16460687459E+03  0.26838849871E+03  0.17300000000E+03 0.  1.
         -6    1    1    2    0  503 -0.61007739760E+02  0.10623567558E+03 -0.11052598631E+04  0.11254049618E+04  0.17300000000E+03 0.  1.
<mgrwt>
<rscale>  2 0.21198340E+03</rscale>
<asrwt>0</asrwt>
<pdfrwt beam="1">  1       21 0.95328253E-02 0.21198340E+03</pdfrwt>
<pdfrwt beam="2">  1       21 0.20489693E+00 0.21198340E+03</pdfrwt>
<totfact> 0.10858125E+04</totfact>
</mgrwt>
</event>
<event>
 4    1  0.4111182E+000  0.1808067E+03  0.7546771E-02  0.1167025E+00
         21   -1    0    0  501  502  0.00000000000E+00  0.00000000000E+00  0.81268330670E+02  0.81268330670E+02  0.00000000000E+00 0. -1.
         21   -1    0    0  502  503 -0.00000000000E+00 -0.00000000000E+00 -0.40612898110E+03  0.40612898110E+03  0.00000000000E+00 0. -1.
          6    1    1    2  501    0  0.50507290361E+02  0.14527953944E+02 -0.13864629134E+03  0.22784609263E+03  0.17300000000E+03 0. -1.
         -6    1    1    2    0  503 -0.50507290361E+02 -0.14527953944E+02 -0.18621435910E+03  0.25955121914E+03  0.17300000000E+03 0. -1.
<mgrwt>
<rscale>  2 0.18080666E+03</rscale>
<asrwt>0</asrwt>
<pdfrwt beam="1">  1       21 0.12502820E-01 0.18080666E+03</pdfrwt>
<pdfrwt beam="2">  1       21 0.62481382E-01 0.18080666E+03</pdfrwt>
<totfact> 0.13000059E+05</totfact>
</mgrwt>
</event>
<event>
 4    1  0.4111182E+000  0.2379031E+03  0.7546771E-02  0.1121198E+00
         21   -1    0    0  501  502  0.00000000000E+00  0.00000000000E+00  0.16143025683E+04  0.16143025683E+04  0.00000000000E+00 0. -1.
         21   -1    0    0  502  503 -0.00000000000E+00 -0.00000000000E+00 -0.26576425893E+03  0.26576425893E+03  0.00000000000E+00 0.  1.
          6    1    1    2  501    0  0.10775117067E+03  0.12271328135E+03  0.15501047001E+04  0.15682545856E+04  0.17300000000E+03 0. -1.
         -6    1    1    2    0  503 -0.10775117067E+03 -0.12271328135E+03 -0.20156639065E+03  0.31181224165E+03  0.17300000000E+03 0.  1.
<mgrwt>
<rscale>  2 0.23790306E+03</rscale>
<asrwt>0</asrwt>
<pdfrwt beam="1">  1       21 0.24835424E+00 0.23790306E+03</pdfrwt>
<pdfrwt beam="2">  1       21 0.40886810E-01 0.23790306E+03</pdfrwt>
<totfact> 0.37052607E+02</totfact>
</mgrwt>
</event>
<event>
 4    1  0.4111182E+000  0.4837488E+03  0.7546771E-02  0.1018110E+00
         21   -1    0    0  501  502  0.00000000000E+00  0.00000000000E+00  0.15850746388E+04  0.15850746388E+04  0.00000000000E+00 0.  1.
         21   -1    0    0  502  503 -0.00000000000E+00 -0.00000000000E+00 -0.14829432803E+03  0.14829432803E+03  0.00000000000E+00 0. -1.
          6    1    1    2  501    0  0.38094344912E+03  0.24282908042E+03  0.77616924127E+03  0.91457726017E+03  0.17300000000E+03 0.  1.
         -6    1    1    2    0  503 -0.38094344912E+03 -0.24282908042E+03  0.66061106946E+03  0.81879170661E+03  0.17300000000E+03 0. -1.
<mgrwt>
<rscale>  2 0.48374877E+03</rscale>
<asrwt>0</asrwt>
<pdfrwt beam="1">  1       21 0.24385762E+00 0.48374877E+03</pdfrwt>
<pdfrwt beam="2">  1       21 0.22814513E-01 0.48374877E+03</pdfrwt>
<totfact> 0.10565213E+03</totfact>
</mgrwt>
</event>
<event>
 4    1  0.4111182E+000  0.1935599E+03  0.7546771E-02  0.1155289E+00
         21   -1    0    0  501  502  0.00000000000E+00  0.00000000000E+00  0.29663016065E+02  0.29663016065E+02  0.00000000000E+00 0. -1.
         21   -1    0    0  502  503 -0.00000000000E+00 -0.00000000000E+00 -0.47017354791E+04  0.47017354791E+04  0.00000000000E+00 0. -1.
          6    1    1    2  501    0 -0.82312332061E+02  0.27588324145E+02 -0.31288851572E+03  0.36791936468E+03  0.17300000000E+03 0. -1.
         -6    1    1    2    0  503  0.82312332061E+02 -0.27588324145E+02 -0.43591839473E+04  0.43634791305E+04  0.17300000000E+03 0. -1.
<mgrwt>
<rscale>  2 0.19355990E+03</rscale>
<asrwt>0</asrwt>
<pdfrwt beam="1">  1       21 0.45635466E-02 0.19355990E+03</pdfrwt>
<pdfrwt beam="2">  1       21 0.72334301E+00 0.19355990E+03</pdfrwt>
<totfact> 0.93436612E+00</totfact>
</mgrwt>
</event>
<event>
 4    1  0.4111182E+000  0.2255912E+03  0.7546771E-02  0.1129782E+00
         21   -1    0    0  503  502  0.00000000000E+00  0.00000000000E+00  0.18719592328E+03  0.18719592328E+03  0.00000000000E+00 0.  1.
         21   -1    0    0  501  503 -0.00000000000E+00 -0.00000000000E+00 -0.29514931459E+03  0.29514931459E+03  0.00000000000E+00 0. -1.
          6    1    1    2  501    0 -0.53168442457E+02 -0.13466818605E+03 -0.12172049176E+03  0.25633431632E+03  0.17300000000E+03 0.  1.
         -6    1    1    2    0  502  0.53168442457E+02  0.13466818605E+03  0.13767100453E+02  0.22601092156E+03  0.17300000000E+03 0.  1.
<mgrwt>
<rscale>  2 0.22559123E+03</rscale>
<asrwt>0</asrwt>
<pdfrwt beam="1">  1       21 0.28799373E-01 0.22559123E+03</pdfrwt>
<pdfrwt beam="2">  1       21 0.45407587E-01 0.22559123E+03</pdfrwt>
<totfact> 0.52856264E+04</totfact>
</mgrwt>
</event>
<event>
 4    1  0.4111182E+000  0.2099894E+03  0.7546771E-02  0.1141574E+00
         21   -1    0    0  503  502  0.00000000000E+00  0.00000000000E+00  0.15907764973E+03  0.15907764973E+03  0.00000000000E+00 0.  1.
         21   -1    0    0  501  503 -0.00000000000E+00 -0.00000000000E+00 -0.28143227073E+03  0.28143227073E+03  0.00000000000E+00 0.  1.
          6    1    1    2  501    0 -0.33321622162E+02  0.11426380048E+03 -0.34151655804E+02  0.21274840116E+03  0.17300000000E+03 0.  1.
         -6    1    1    2    0  502  0.33321622162E+02 -0.11426380048E+03 -0.88202965194E+02  0.22776151930E+03  0.17300000000E+03 0.  1.
<mgrwt>
<rscale>  2 0.20998940E+03</rscale>
<asrwt>0</asrwt>
<pdfrwt beam="1">  1       21 0.24473485E-01 0.20998940E+03</pdfrwt>
<pdfrwt beam="2">  1       21 0.43297272E-01 0.20998940E+03</pdfrwt>
<totfact> 0.80297580E+04</totfact>
</mgrwt>
</event>
<event>
 4    1  0.4111182E+000  0.1771796E+03  0.7546771E-02  0.1170561E+00
         21   -1    0    0  501  502  0.00000000000E+00  0.00000000000E+00  0.90516259907E+02  0.90516259907E+02  0.00000000000E+00 0. -1.
         21   -1    0    0  502  503 -0.00000000000E+00 -0.00000000000E+00 -0.34682975391E+03  0.34682975391E+03  0.00000000000E+00 0. -1.
          6    1    1    2  501    0 -0.12569970944E+02  0.36133390386E+02 -0.12685877099E+03  0.21791230770E+03  0.17300000000E+03 0. -1.
         -6    1    1    2    0  503  0.12569970944E+02 -0.36133390386E+02 -0.12945472302E+03  0.21943370612E+03  0.17300000000E+03 0. -1.
<mgrwt>
<rscale>  2 0.17717964E+03</rscale>
<asrwt>0</asrwt>
<pdfrwt beam="1">  1       21 0.13925579E-01 0.17717964E+03</pdfrwt>
<pdfrwt beam="2">  1       21 0.53358423E-01 0.17717964E+03</pdfrwt>
<totfact> 0.15004598E+05</totfact>
</mgrwt>
</event>
<event>
 4    1  0.4111182E+000  0.2463804E+03  0.7546771E-02  0.1115614E+00
         21   -1    0    0  501  502  0.00000000000E+00  0.00000000000E+00  0.12486045997E+03  0.12486045997E+03  0.00000000000E+00 0. -1.
         21   -1    0    0  502  503 -0.00000000000E+00 -0.00000000000E+00 -0.48924403050E+03  0.48924403050E+03  0.00000000000E+00 0.  1.
          6    1    1    2  501    0 -0.38762630550E+02 -0.17108991793E+03 -0.15784930391E+03  0.29260844876E+03  0.17300000000E+03 0. -1.
         -6    1    1    2    0  503  0.38762630550E+02  0.17108991793E+03 -0.20653426663E+03  0.32149604171E+03  0.17300000000E+03 0.  1.
<mgrwt>
<rscale>  2 0.24638040E+03</rscale>
<asrwt>0</asrwt>
<pdfrwt beam="1">  1       21 0.19209302E-01 0.24638040E+03</pdfrwt>
<pdfrwt beam="2">  1       21 0.75268311E-01 0.24638040E+03</pdfrwt>
<totfact> 0.38242644E+04</totfact>
</mgrwt>
</event>
<event>
 4    1  0.4111182E+000  0.2058492E+03  0.7546771E-02  0.1144896E+00
         21   -1    0    0  503  502  0.00000000000E+00  0.00000000000E+00  0.15804553445E+03  0.15804553445E+03  0.00000000000E+00 0.  1.
         21   -1    0    0  501  503 -0.00000000000E+00 -0.00000000000E+00 -0.70630815693E+03  0.70630815693E+03  0.00000000000E+00 0.  1.
          6    1    1    2  501    0  0.62551282225E+02 -0.92370175700E+02 -0.61453843637E+03  0.64809829659E+03  0.17300000000E+03 0.  1.
         -6    1    1    2    0  502 -0.62551282225E+02  0.92370175700E+02  0.66275813888E+02  0.21625539478E+03  0.17300000000E+03 0.  1.
<mgrwt>
<rscale>  2 0.20584925E+03</rscale>
<asrwt>0</asrwt>
<pdfrwt beam="1">  1       21 0.24314698E-01 0.20584925E+03</pdfrwt>
<pdfrwt beam="2">  1       21 0.10866279E+00 0.20584925E+03</pdfrwt>
<totfact> 0.10644861E+04</totfact>
</mgrwt>
</event>
<event>
 4    1  0.4111182E+000  0.1757369E+03  0.7546771E-02  0.1171994E+00
         21   -1    0    0  501  502  0.00000000000E+00  0.00000000000E+00  0.12466688199E+03  0.12466688199E+03  0.00000000000E+00 0.  1.
         21   -1    0    0  502  503 -0.00000000000E+00 -0.00000000000E+00 -0.30074951378E+03  0.30074951378E+03  0.00000000000E+00 0.  1.
          6    1    1    2  501    0 -0.29616030644E+02  0.87949426249E+01  0.12703896283E+01  0.17574149816E+03  0.17300000000E+03 0.  1.
         -6    1    1    2    0  503  0.29616030644E+02 -0.87949426249E+01 -0.17735302142E+03  0.24967489761E+03  0.17300000000E+03 0.  1.
<mgrwt>
<rscale>  2 0.17573691E+03</rscale>
<asrwt>0</asrwt>
<pdfrwt beam="1">  1       21 0.19179521E-01 0.17573691E+03</pdfrwt>
<pdfrwt beam="2">  1       21 0.46269155E-01 0.17573691E+03</pdfrwt>
<totfact> 0.11238079E+05</totfact>
</mgrwt>
</event>
<event>
 4    1  0.4111182E+000  0.1747567E+03  0.7546771E-02  0.1172976E+00
         21   -1    0    0  501  502  0.00000000000E+00  0.00000000000E+00  0.19249896972E+02  0.19249896972E+02  0.00000000000E+00 0. -1.
         21   -1    0    0  502  503 -0.00000000000E+00 -0.00000000000E+00 -0.16504653611E+04  0.16504653611E+04  0.00000000000E+00 0. -1.
          6    1    1    2  501    0 -0.24481753390E+02  0.33967972049E+01 -0.65124874050E+03  0.67428837784E+03  0.17300000000E+03 0. -1.
         -6    1    1    2    0  503  0.24481753390E+02 -0.33967972049E+01 -0.97996672367E+03  0.99542688028E+03  0.17300000000E+03 0. -1.
<mgrwt>
<rscale>  2 0.17475667E+03</rscale>
<asrwt>0</asrwt>
<pdfrwt beam="1">  1       21 0.29615229E-02 0.17475667E+03</pdfrwt>
<pdfrwt beam="2">  1       21 0.25391773E+00 0.17475667E+03</pdfrwt>
<totfact> 0.41372386E+04</totfact>
</mgrwt>
</event>
<event>
 4    1  0.4111182E+000  0.2108758E+03  0.7546771E-02  0.1140874E+00
         21   -1    0    0  501  502  0.00000000000E+00  0.00000000000E+00  0.11867094036E+03  0.11867094036E+03  0.00000000000E+00 0.  1.
         21   -1    0    0  502  503 -0.00000000000E+00 -0.00000000000E+00 -0.53152111880E+03  0.53152111880E+03  0.00000000000E+00 0.  1.
          6    1    1    2  501    0  0.29053273096E+02  0.11702787439E+03 -0.29852548655E+02  0.21297838088E+03  0.17300000000E+03 0.  1.
         -6    1    1    2    0  503 -0.29053273096E+02 -0.11702787439E+03 -0.38299762978E+03  0.43721367828E+03  0.17300000000E+03 0.  1.
<mgrwt>
<rscale>  2 0.21087583E+03</rscale>
<asrwt>0</asrwt>
<pdfrwt beam="1">  1       21 0.18257067E-01 0.21087583E+03</pdfrwt>
<pdfrwt beam="2">  1       21 0.81772482E-01 0.21087583E+03</pdfrwt>
<totfact> 0.35445577E+04</totfact>
</mgrwt>
</event>
<event>
 4    1  0.4111182E+000  0.2732766E+03  0.7546771E-02  0.1099419E+00
         21   -1    0    0  503  502  0.00000000000E+00  0.00000000000E+00  0.33907408018E+03  0.33907408018E+03  0.00000000000E+00 0. -1.
         21   -1    0    0  501  503 -0.00000000000E+00 -0.00000000000E+00 -0.24773867705E+03  0.24773867705E+03  0.00000000000E+00 0.  1.
          6    1    1    2  501    0 -0.18172921090E+03  0.10828465951E+03 -0.52072377683E+02  0.27819346883E+03  0.17300000000E+03 0.  1.
         -6    1    1    2    0  502  0.18172921090E+03 -0.10828465951E+03  0.14340778081E+03  0.30861928841E+03  0.17300000000E+03 0. -1.
<mgrwt>
<rscale>  2 0.27327655E+03</rscale>
<asrwt>0</asrwt>
<pdfrwt beam="1">  1       21 0.52165243E-01 0.27327655E+03</pdfrwt>
<pdfrwt beam="2">  1       21 0.38113642E-01 0.27327655E+03</pdfrwt>
<totfact> 0.22220054E+04</totfact>
</mgrwt>
</event>
<event>
 4    1  0.4111182E+000  0.2975207E+03  0.7546771E-02  0.1086487E+00
         21   -1    0    0  501  502  0.00000000000E+00  0.00000000000E+00  0.52584006505E+03  0.52584006505E+03  0.00000000000E+00 0. -1.
         21   -1    0    0  502  503 -0.00000000000E+00 -0.00000000000E+00 -0.54411498983E+03  0.54411498983E+03  0.00000000000E+00 0. -1.
          6    1    1    2  501    0  0.21099584091E+03 -0.11861840646E+03  0.43544835906E+03  0.52738396319E+03  0.17300000000E+03 0. -1.
         -6    1    1    2    0  503 -0.21099584091E+03  0.11861840646E+03 -0.45372328384E+03  0.54257109168E+03  0.17300000000E+03 0. -1.
<mgrwt>
<rscale>  2 0.29752071E+03</rscale>
<asrwt>0</asrwt>
<pdfrwt beam="1">  1       21 0.80898472E-01 0.29752071E+03</pdfrwt>
<pdfrwt beam="2">  1       21 0.83709998E-01 0.29752071E+03</pdfrwt>
<totfact> 0.15361921E+03</totfact>
</mgrwt>
</event>
<event>
 4    1  0.4111182E+000  0.1844622E+03  0.7546771E-02  0.1163553E+00
         21   -1    0    0  501  502  0.00000000000E+00  0.00000000000E+00  0.20184031963E+03  0.20184031963E+03  0.00000000000E+00 0. -1.
         21   -1    0    0  502  503 -0.00000000000E+00 -0.00000000000E+00 -0.21234216290E+03  0.21234216290E+03  0.00000000000E+00 0. -1.
          6    1    1    2  501    0 -0.60167317583E+02 -0.21844632689E+02  0.88762898291E+02  0.20470746492E+03  0.17300000000E+03 0. -1.
         -6    1    1    2    0  503  0.60167317583E+02  0.21844632689E+02 -0.99264741558E+02  0.20947501760E+03  0.17300000000E+03 0. -1.
<mgrwt>
<rscale>  2 0.18446218E+03</rscale>
<asrwt>0</asrwt>
<pdfrwt beam="1">  1       21 0.31052357E-01 0.18446218E+03</pdfrwt>
<pdfrwt beam="2">  1       21 0.32668025E-01 0.18446218E+03</pdfrwt>
<totfact> 0.90130183E+04</totfact>
</mgrwt>
</event>
<event>
 4    1  0.4111182E+000  0.1769735E+03  0.7546771E-02  0.1170765E+00
         21   -1    0    0  503  502  0.00000000000E+00  0.00000000000E+00  0.69629788581E+02  0.69629788581E+02  0.00000000000E+00 0.  1.
         21   -1    0    0  501  503 -0.00000000000E+00 -0.00000000000E+00 -0.46146800607E+03  0.46146800607E+03  0.00000000000E+00 0.  1.
          6    1    1    2  501    0  0.12330956807E+02 -0.35193414368E+02 -0.23814044073E+03  0.29669934011E+03  0.17300000000E+03 0.  1.
         -6    1    1    2    0  502 -0.12330956807E+02  0.35193414368E+02 -0.15369777676E+03  0.23439845454E+03  0.17300000000E+03 0.  1.
<mgrwt>
<rscale>  2 0.17697353E+03</rscale>
<asrwt>0</asrwt>
<pdfrwt beam="1">  1       21 0.10712275E-01 0.17697353E+03</pdfrwt>
<pdfrwt beam="2">  1       21 0.70995077E-01 0.17697353E+03</pdfrwt>
<totfact> 0.12974833E+05</totfact>
</mgrwt>
</event>
<event>
 4    1  0.4111182E+000  0.2164698E+03  0.7546771E-02  0.1136543E+00
         21   -1    0    0  501  502  0.00000000000E+00  0.00000000000E+00  0.98334856989E+03  0.98334856989E+03  0.00000000000E+00 0.  1.
         21   -1    0    0  502  503 -0.00000000000E+00 -0.00000000000E+00 -0.52969189367E+02  0.52969189367E+02  0.00000000000E+00 0.  1.
          6    1    1    2  501    0  0.56273128354E+02 -0.11731798349E+03  0.62934896513E+03  0.66553684657E+03  0.17300000000E+03 0.  1.
         -6    1    1    2    0  503 -0.56273128354E+02  0.11731798349E+03  0.30103041539E+03  0.37078091269E+03  0.17300000000E+03 0.  1.
<mgrwt>
<rscale>  2 0.21646980E+03</rscale>
<asrwt>0</asrwt>
<pdfrwt beam="1">  1       21 0.15128438E+00 0.21646980E+03</pdfrwt>
<pdfrwt beam="2">  1       21 0.81491068E-02 0.21646980E+03</pdfrwt>
<totfact> 0.33478524E+04</totfact>
</mgrwt>
</event>
<event>
 4    1  0.4111182E+000  0.2416717E+03  0.7546771E-02  0.1118684E+00
         21   -1    0    0  501  502  0.00000000000E+00  0.00000000000E+00  0.32992840327E+03  0.32992840327E+03  0.00000000000E+00 0. -1.
         21   -1    0    0  502  503 -0.00000000000E+00 -0.00000000000E+00 -0.25341785131E+03  0.25341785131E+03  0.00000000000E+00 0. -1.
          6    1    1    2  501    0  0.15266330366E+03  0.71903489158E+02  0.19839808645E+03  0.31267714459E+03  0.17300000000E+03 0. -1.
         -6    1    1    2    0  503 -0.15266330366E+03 -0.71903489158E+02 -0.12188753450E+03  0.27066910999E+03  0.17300000000E+03 0. -1.
<mgrwt>
<rscale>  2 0.24167167E+03</rscale>
<asrwt>0</asrwt>
<pdfrwt beam="1">  1       21 0.50758216E-01 0.24167167E+03</pdfrwt>
<pdfrwt beam="2">  1       21 0.38987361E-01 0.24167167E+03</pdfrwt>
<totfact> 0.22810430E+04</totfact>
</mgrwt>
</event>
<event>
 4    1  0.4111182E+000  0.1933062E+03  0.7546771E-02  0.1155513E+00
         21   -1    0    0  503  502  0.00000000000E+00  0.00000000000E+00  0.98014474232E+03  0.98014474232E+03  0.00000000000E+00 0.  1.
         21   -1    0    0  501  503 -0.00000000000E+00 -0.00000000000E+00 -0.38144022766E+02  0.38144022766E+02  0.00000000000E+00 0.  1.
          6    1    1    2  501    0  0.82952136261E+02  0.23606121526E+02  0.45941506662E+03  0.49842703510E+03  0.17300000000E+03 0.  1.
         -6    1    1    2    0  502 -0.82952136261E+02 -0.23606121526E+02  0.48258565294E+03  0.51986172999E+03  0.17300000000E+03 0.  1.
<mgrwt>
<rscale>  2 0.19330625E+03</rscale>
<asrwt>0</asrwt>
<pdfrwt beam="1">  1       21 0.15079148E+00 0.19330625E+03</pdfrwt>
<pdfrwt beam="2">  1       21 0.58683119E-02 0.19330625E+03</pdfrwt>
<totfact> 0.60355997E+04</totfact>
</mgrwt>
</event>
<event>
 4    1  0.4111182E+000  0.2155808E+03  0.7546771E-02  0.1137221E+00
         21   -1    0    0  503  502  0.00000000000E+00  0.00000000000E+00  0.53064387941E+03  0.53064387941E+03  0.00000000000E+00 0. -1.
         21   -1    0    0  501  503 -0.00000000000E+00 -0.00000000000E+00 -0.11966687870E+03  0.11966687870E+03  0.00000000000E+00 0.  1.
          6    1    1    2  501    0  0.51034589151E+02 -0.11807437262E+03  0.37123749851E+02  0.21875387897E+03  0.17300000000E+03 0.  1.
         -6    1    1    2    0  502 -0.51034589151E+02  0.11807437262E+03  0.37385325086E+03  0.43155687914E+03  0.17300000000E+03 0. -1.
<mgrwt>
<rscale>  2 0.21558081E+03</rscale>
<asrwt>0</asrwt>
<pdfrwt beam="1">  1       21 0.81637518E-01 0.21558081E+03</pdfrwt>
<pdfrwt beam="2">  1       21 0.18410289E-01 0.21558081E+03</pdfrwt>
<totfact> 0.34946880E+04</totfact>
</mgrwt>
</event>
<event>
 4    1  0.4111182E+000  0.1839388E+03  0.7546771E-02  0.1164045E+00
         21   -1    0    0  501  502  0.00000000000E+00  0.00000000000E+00  0.31565801087E+03  0.31565801087E+03  0.00000000000E+00 0.  1.
         21   -1    0    0  502  503 -0.00000000000E+00 -0.00000000000E+00 -0.14892737106E+03  0.14892737106E+03  0.00000000000E+00 0.  1.
          6    1    1    2  501    0  0.59563945293E+02  0.18883971874E+02  0.20634755356E+03  0.27642861797E+03  0.17300000000E+03 0.  1.
         -6    1    1    2    0  503 -0.59563945293E+02 -0.18883971874E+02 -0.39616913747E+02  0.18815676397E+03  0.17300000000E+03 0.  1.
<mgrwt>
<rscale>  2 0.18393876E+03</rscale>
<asrwt>0</asrwt>
<pdfrwt beam="1">  1       21 0.48562771E-01 0.18393876E+03</pdfrwt>
<pdfrwt beam="2">  1       21 0.22911903E-01 0.18393876E+03</pdfrwt>
<totfact> 0.72648721E+04</totfact>
</mgrwt>
</event>
<event>
 4    1  0.4111182E+000  0.1858883E+03  0.7546771E-02  0.1162223E+00
         21   -1    0    0  501  502  0.00000000000E+00  0.00000000000E+00  0.94957483661E+02  0.94957483661E+02  0.00000000000E+00 0. -1.
         21   -1    0    0  502  503 -0.00000000000E+00 -0.00000000000E+00 -0.58270545969E+03  0.58270545969E+03  0.00000000000E+00 0.  1.
          6    1    1    2  501    0  0.34854133961E+02  0.58400755716E+02 -0.36242017157E+02  0.18938833842E+03  0.17300000000E+03 0. -1.
         -6    1    1    2    0  503 -0.34854133961E+02 -0.58400755716E+02 -0.45150595888E+03  0.48827460493E+03  0.17300000000E+03 0.  1.
<mgrwt>
<rscale>  2 0.18588830E+03</rscale>
<asrwt>0</asrwt>
<pdfrwt beam="1">  1       21 0.14608844E-01 0.18588830E+03</pdfrwt>
<pdfrwt beam="2">  1       21 0.89646991E-01 0.18588830E+03</pdfrwt>
<totfact> 0.43785945E+04</totfact>
</mgrwt>
</event>
<event>
 4    1  0.4111182E+000  0.2622520E+03  0.7546771E-02  0.1105798E+00
         21   -1    0    0  503  502  0.00000000000E+00  0.00000000000E+00  0.20368404229E+03  0.20368404229E+03  0.00000000000E+00 0. -1.
         21   -1    0    0  501  503 -0.00000000000E+00 -0.00000000000E+00 -0.74701964297E+03  0.74701964297E+03  0.00000000000E+00 0.  1.
          6    1    1    2  501    0  0.16848670500E+03 -0.10227083968E+03 -0.62355325627E+03  0.67645750629E+03  0.17300000000E+03 0.  1.
         -6    1    1    2    0  502 -0.16848670500E+03  0.10227083968E+03  0.80217655594E+02  0.27424617897E+03  0.17300000000E+03 0. -1.
<mgrwt>
<rscale>  2 0.26225197E+03</rscale>
<asrwt>0</asrwt>
<pdfrwt beam="1">  1       21 0.31336007E-01 0.26225197E+03</pdfrwt>
<pdfrwt beam="2">  1       21 0.11492610E+00 0.26225197E+03</pdfrwt>
<totfact> 0.54752823E+03</totfact>
</mgrwt>
</event>
<event>
 4    1  0.4111182E+000  0.2256154E+03  0.7546771E-02  0.1129764E+00
         21   -1    0    0  501  502  0.00000000000E+00  0.00000000000E+00  0.43935052070E+02  0.43935052070E+02  0.00000000000E+00 0.  1.
         21   -1    0    0  502  503 -0.00000000000E+00 -0.00000000000E+00 -0.13047445726E+04  0.13047445726E+04  0.00000000000E+00 0.  1.
          6    1    1    2  501    0 -0.17055995151E+02  0.14381381807E+03 -0.40470272884E+03  0.46334287517E+03  0.17300000000E+03 0.  1.
         -6    1    1    2    0  503  0.17055995151E+02 -0.14381381807E+03 -0.85610679164E+03  0.88533674945E+03  0.17300000000E+03 0.  1.
<mgrwt>
<rscale>  2 0.22561543E+03</rscale>
<asrwt>0</asrwt>
<pdfrwt beam="1">  1       21 0.67592393E-02 0.22561543E+03</pdfrwt>
<pdfrwt beam="2">  1       21 0.20072992E+00 0.22561543E+03</pdfrwt>
<totfact> 0.20841105E+04</totfact>
</mgrwt>
</event>
<event>
 4    1  0.4111182E+000  0.1941783E+03  0.7546771E-02  0.1154746E+00
         21   -1    0    0  503  502  0.00000000000E+00  0.00000000000E+00  0.16842292514E+04  0.16842292514E+04  0.00000000000E+00 0. -1.
         21   -1    0    0  501  503 -0.00000000000E+00 -0.00000000000E+00 -0.12241757971E+03  0.12241757971E+03  0.00000000000E+00 0. -1.
          6    1    1    2  501    0  0.87824473298E+02 -0.79419440071E+01 -0.35652631218E+02  0.19742422014E+03  0.17300000000E+03 0. -1.
         -6    1    1    2    0  502 -0.87824473298E+02  0.79419440071E+01  0.15974643029E+04  0.16092226109E+04  0.17300000000E+03 0. -1.
<mgrwt>
<rscale>  2 0.19417830E+03</rscale>
<asrwt>0</asrwt>
<pdfrwt beam="1">  1       21 0.25911218E+00 0.19417830E+03</pdfrwt>
<pdfrwt beam="2">  1       21 0.18833475E-01 0.19417830E+03</pdfrwt>
<totfact> 0.15154083E+03</totfact>
</mgrwt>
</event>
<event>
 4    1  0.4111182E+000  0.2800900E+03  0.7546771E-02  0.1095640E+00
         21   -1    0    0  503  502  0.00000000000E+00  0.00000000000E+00  0.39784595505E+03  0.39784595505E+03  0.00000000000E+00 0. -1.
         21   -1    0    0  501  503 -0.00000000000E+00 -0.00000000000E+00 -0.30833275844E+03  0.30833275844E+03  0.00000000000E+00 0. -1.
          6    1    1    2  501    0 -0.21341958728E+03 -0.54529628521E+02 -0.16723542472E+03  0.32621785344E+03  0.17300000000E+03 0. -1.
         -6    1    1    2    0  502  0.21341958728E+03  0.54529628521E+02  0.25674862132E+03  0.37996086005E+03  0.17300000000E+03 0. -1.
<mgrwt>
<rscale>  2 0.28008999E+03</rscale>
<asrwt>0</asrwt>
<pdfrwt beam="1">  1       21 0.61207070E-01 0.28008999E+03</pdfrwt>
<pdfrwt beam="2">  1       21 0.47435809E-01 0.28008999E+03</pdfrwt>
<totfact> 0.10026335E+04</totfact>
</mgrwt>
</event>
<event>
 4    1  0.4111182E+000  0.2813817E+03  0.7546771E-02  0.1094937E+00
         21   -1    0    0  501  502  0.00000000000E+00  0.00000000000E+00  0.59874735748E+03  0.59874735748E+03  0.00000000000E+00 0. -1.
         21   -1    0    0  502  503 -0.00000000000E+00 -0.00000000000E+00 -0.14213137314E+03  0.14213137314E+03  0.00000000000E+00 0.  1.
          6    1    1    2  501    0 -0.17865418263E+03  0.13164104875E+03  0.32605382335E+03  0.43068176001E+03  0.17300000000E+03 0. -1.
         -6    1    1    2    0  503  0.17865418263E+03 -0.13164104875E+03  0.13056216099E+03  0.31019697060E+03  0.17300000000E+03 0.  1.
<mgrwt>
<rscale>  2 0.28138174E+03</rscale>
<asrwt>0</asrwt>
<pdfrwt beam="1">  1       21 0.92114976E-01 0.28138174E+03</pdfrwt>
<pdfrwt beam="2">  1       21 0.21866365E-01 0.28138174E+03</pdfrwt>
<totfact> 0.18541334E+04</totfact>
</mgrwt>
</event>
<event>
 4    1  0.4111182E+000  0.2239399E+03  0.7546771E-02  0.1130979E+00
         21   -1    0    0  503  502  0.00000000000E+00  0.00000000000E+00  0.90040586451E+02  0.90040586451E+02  0.00000000000E+00 0.  1.
         21   -1    0    0  501  503 -0.00000000000E+00 -0.00000000000E+00 -0.10504219441E+04  0.10504219441E+04  0.00000000000E+00 0.  1.
          6    1    1    2  501    0  0.14072535358E+03 -0.20406701457E+02 -0.87102770805E+03  0.89935439444E+03  0.17300000000E+03 0.  1.
         -6    1    1    2    0  502 -0.14072535358E+03  0.20406701457E+02 -0.89353649604E+02  0.24110813612E+03  0.17300000000E+03 0.  1.
<mgrwt>
<rscale>  2 0.22393985E+03</rscale>
<asrwt>0</asrwt>
<pdfrwt beam="1">  1       21 0.13852397E-01 0.22393985E+03</pdfrwt>
<pdfrwt beam="2">  1       21 0.16160338E+00 0.22393985E+03</pdfrwt>
<totfact> 0.10853589E+04</totfact>
</mgrwt>
</event>
<event>
 4    1  0.4111182E+000  0.2599389E+03  0.7546771E-02  0.1107180E+00
         21   -1    0    0  503  502  0.00000000000E+00  0.00000000000E+00  0.35939810364E+03  0.35939810364E+03  0.00000000000E+00 0.  1.
         21   -1    0    0  501  503 -0.00000000000E+00 -0.00000000000E+00 -0.29346249272E+03  0.29346249272E+03  0.00000000000E+00 0. -1.
          6    1    1    2  501    0 -0.19022005097E+03  0.38151814811E+02 -0.16271615984E+03  0.30666720959E+03  0.17300000000E+03 0. -1.
         -6    1    1    2    0  502  0.19022005097E+03 -0.38151814811E+02  0.22865177076E+03  0.34619338676E+03  0.17300000000E+03 0.  1.
<mgrwt>
<rscale>  2 0.25993889E+03</rscale>
<asrwt>0</asrwt>
<pdfrwt beam="1">  1       21 0.55292016E-01 0.25993889E+03</pdfrwt>
<pdfrwt beam="2">  1       21 0.45148076E-01 0.25993889E+03</pdfrwt>
<totfact> 0.13968918E+04</totfact>
</mgrwt>
</event>
<event>
 4    1  0.4111182E+000  0.1765224E+03  0.7546771E-02  0.1171212E+00
         21   -1    0    0  503  502  0.00000000000E+00  0.00000000000E+00  0.63742579961E+03  0.63742579961E+03  0.00000000000E+00 0. -1.
         21   -1    0    0  501  503 -0.00000000000E+00 -0.00000000000E+00 -0.23109308524E+03  0.23109308524E+03  0.00000000000E+00 0. -1.
          6    1    1    2  501    0 -0.34991348758E+02  0.26027598792E+01 -0.18243659384E+03  0.25385680928E+03  0.17300000000E+03 0. -1.
         -6    1    1    2    0  502  0.34991348758E+02 -0.26027598792E+01  0.58876930821E+03  0.61466207556E+03  0.17300000000E+03 0. -1.
<mgrwt>
<rscale>  2 0.17652243E+03</rscale>
<asrwt>0</asrwt>
<pdfrwt beam="1">  1       21 0.98065507E-01 0.17652243E+03</pdfrwt>
<pdfrwt beam="2">  1       21 0.35552783E-01 0.17652243E+03</pdfrwt>
<totfact> 0.66404911E+03</totfact>
</mgrwt>
</event>
<event>
 4    1  0.4111182E+000  0.2173253E+03  0.7546771E-02  0.1135893E+00
         21   -1    0    0  503  502  0.00000000000E+00  0.00000000000E+00  0.23594730657E+03  0.23594730657E+03  0.00000000000E+00 0. -1.
         21   -1    0    0  501  503 -0.00000000000E+00 -0.00000000000E+00 -0.20253867388E+03  0.20253867388E+03  0.00000000000E+00 0. -1.
          6    1    1    2  501    0  0.22132326028E+02 -0.12965898849E+03 -0.69899973554E+01  0.21743769961E+03  0.17300000000E+03 0. -1.
         -6    1    1    2    0  502 -0.22132326028E+02  0.12965898849E+03  0.40398630051E+02  0.22104828084E+03  0.17300000000E+03 0. -1.
<mgrwt>
<rscale>  2 0.21732532E+03</rscale>
<asrwt>0</asrwt>
<pdfrwt beam="1">  1       21 0.36299586E-01 0.21732532E+03</pdfrwt>
<pdfrwt beam="2">  1       21 0.31159796E-01 0.21732532E+03</pdfrwt>
<totfact> 0.71652049E+04</totfact>
</mgrwt>
</event>
<event>
 4    1  0.4111182E+000  0.1742403E+03  0.7546771E-02  0.1173497E+00
         21   -1    0    0  501  502  0.00000000000E+00  0.00000000000E+00  0.86537291345E+02  0.86537291345E+02  0.00000000000E+00 0. -1.
         21   -1    0    0  502  503 -0.00000000000E+00 -0.00000000000E+00 -0.37342397903E+03  0.37342397903E+03  0.00000000000E+00 0. -1.
          6    1    1    2  501    0 -0.20743783883E+02  0.60539647578E+00 -0.86870305993E+02  0.19469494379E+03  0.17300000000E+03 0. -1.
         -6    1    1    2    0  503  0.20743783883E+02 -0.60539647578E+00 -0.20001638169E+03  0.26526632659E+03  0.17300000000E+03 0. -1.
<mgrwt>
<rscale>  2 0.17424027E+03</rscale>
<asrwt>0</asrwt>
<pdfrwt beam="1">  1       21 0.13313429E-01 0.17424027E+03</pdfrwt>
<pdfrwt beam="2">  1       21 0.57449843E-01 0.17424027E+03</pdfrwt>
<totfact> 0.13933984E+05</totfact>
</mgrwt>
</event>
<event>
 4    1  0.4111182E+000  0.2711700E+03  0.7546771E-02  0.1100612E+00
         21   -1    0    0  503  502  0.00000000000E+00  0.00000000000E+00  0.11925593135E+03  0.11925593135E+03  0.00000000000E+00 0.  1.
         21   -1    0    0  501  503 -0.00000000000E+00 -0.00000000000E+00 -0.84432887262E+03  0.84432887262E+03  0.00000000000E+00 0. -1.
          6    1    1    2  501    0  0.20616249067E+03 -0.33184007165E+02 -0.61275163418E+03  0.67007291848E+03  0.17300000000E+03 0.  1.
         -6    1    1    2    0  502 -0.20616249067E+03  0.33184007165E+02 -0.11232130709E+03  0.29351188548E+03  0.17300000000E+03 0.  1.
<mgrwt>
<rscale>  2 0.27116997E+03</rscale>
<asrwt>0</asrwt>
<pdfrwt beam="1">  1       21 0.18347067E-01 0.27116997E+03</pdfrwt>
<pdfrwt beam="2">  1       21 0.12989675E+00 0.27116997E+03</pdfrwt>
<totfact> 0.11178841E+04</totfact>
</mgrwt>
</event>
<event>
 4    1  0.4111182E+000  0.2406739E+03  0.7546771E-02  0.1119345E+00
         21   -1    0    0  503  502  0.00000000000E+00  0.00000000000E+00  0.39060569853E+03  0.39060569853E+03  0.00000000000E+00 0. -1.
         21   -1    0    0  501  503 -0.00000000000E+00 -0.00000000000E+00 -0.16657477732E+03  0.16657477732E+03  0.00000000000E+00 0.  1.
          6    1    1    2  501    0  0.32727388311E+02  0.16408480718E+03  0.19720900283E+02  0.24148047499E+03  0.17300000000E+03 0.  1.
         -6    1    1    2    0  502 -0.32727388311E+02 -0.16408480718E+03  0.20431002093E+03  0.31570000086E+03  0.17300000000E+03 0. -1.
<mgrwt>
<rscale>  2 0.24067386E+03</rscale>
<asrwt>0</asrwt>
<pdfrwt beam="1">  1       21 0.60093184E-01 0.24067386E+03</pdfrwt>
<pdfrwt beam="2">  1       21 0.25626889E-01 0.24067386E+03</pdfrwt>
<totfact> 0.36439275E+04</totfact>
</mgrwt>
</event>
<event>
 4    1  0.4111182E+000  0.2030133E+03  0.7546771E-02  0.1147221E+00
         21   -1    0    0  503  502  0.00000000000E+00  0.00000000000E+00  0.75661646152E+03  0.75661646152E+03  0.00000000000E+00 0.  1.
         21   -1    0    0  501  503 -0.00000000000E+00 -0.00000000000E+00 -0.58022739805E+02  0.58022739805E+02  0.00000000000E+00 0. -1.
          6    1    1    2  501    0  0.33056299194E+02  0.10095874352E+03  0.24853465997E+03  0.32091099080E+03  0.17300000000E+03 0. -1.
         -6    1    1    2    0  502 -0.33056299194E+02 -0.10095874352E+03  0.45005906174E+03  0.49372821052E+03  0.17300000000E+03 0.  1.
<mgrwt>
<rscale>  2 0.20301327E+03</rscale>
<asrwt>0</asrwt>
<pdfrwt beam="1">  1       21 0.11640253E+00 0.20301327E+03</pdfrwt>
<pdfrwt beam="2">  1       21 0.89265759E-02 0.20301327E+03</pdfrwt>
<totfact> 0.56102534E+04</totfact>
</mgrwt>
</event>
<event>
 4    1  0.4111182E+000  0.1866848E+03  0.7546771E-02  0.1161486E+00
         21   -1    0    0  501  502  0.00000000000E+00  0.00000000000E+00  0.13448231303E+04  0.13448231303E+04  0.00000000000E+00 0.  1.
         21   -1    0    0  502  503 -0.00000000000E+00 -0.00000000000E+00 -0.60318105620E+02  0.60318105620E+02  0.00000000000E+00 0.  1.
          6    1    1    2  501    0 -0.66637351419E+02  0.21947577623E+02  0.11728489105E+04  0.11876134892E+04  0.17300000000E+03 0.  1.
         -6    1    1    2    0  503  0.66637351419E+02 -0.21947577623E+02  0.11165611413E+03  0.21752774672E+03  0.17300000000E+03 0.  1.
<mgrwt>
<rscale>  2 0.18668485E+03</rscale>
<asrwt>0</asrwt>
<pdfrwt beam="1">  1       21 0.20689584E+00 0.18668485E+03</pdfrwt>
<pdfrwt beam="2">  1       21 0.92797095E-02 0.18668485E+03</pdfrwt>
<totfact> 0.11292374E+04</totfact>
</mgrwt>
</event>
<event>
 4    1  0.4111182E+000  0.3074400E+03  0.7546771E-02  0.1081579E+00
         21   -1    0    0  503  502  0.00000000000E+00  0.00000000000E+00  0.17381847479E+03  0.17381847479E+03  0.00000000000E+00 0.  1.
         21   -1    0    0  501  503 -0.00000000000E+00 -0.00000000000E+00 -0.16543013327E+04  0.16543013327E+04  0.00000000000E+00 0. -1.
          6    1    1    2  501    0  0.20034407200E+03 -0.15637332231E+03 -0.14891527653E+04  0.15205575693E+04  0.17300000000E+03 0. -1.
         -6    1    1    2    0  502 -0.20034407200E+03  0.15637332231E+03  0.86699073152E+01  0.30756223827E+03  0.17300000000E+03 0.  1.
<mgrwt>
<rscale>  2 0.30744002E+03</rscale>
<asrwt>0</asrwt>
<pdfrwt beam="1">  1       21 0.26741303E-01 0.30744002E+03</pdfrwt>
<pdfrwt beam="2">  1       21 0.25450790E+00 0.30744002E+03</pdfrwt>
<totfact> 0.74245797E+02</totfact>
</mgrwt>
</event>
<event>
 4    1  0.4111182E+000  0.1989684E+03  0.7546771E-02  0.1150612E+00
         21   -1    0    0  501  502  0.00000000000E+00  0.00000000000E+00  0.21711725912E+03  0.21711725912E+03  0.00000000000E+00 0.  1.
         21   -1    0    0  502  503 -0.00000000000E+00 -0.00000000000E+00 -0.33162438088E+03  0.33162438088E+03  0.00000000000E+00 0. -1.
          6    1    1    2  501    0  0.96842011967E+02 -0.16764098750E+02  0.12683504567E+03  0.23595664665E+03  0.17300000000E+03 0.  1.
         -6    1    1    2    0  503 -0.96842011967E+02  0.16764098750E+02 -0.24134216743E+03  0.31278499335E+03  0.17300000000E+03 0. -1.
<mgrwt>
<rscale>  2 0.19896837E+03</rscale>
<asrwt>0</asrwt>
<pdfrwt beam="1">  1       21 0.33402655E-01 0.19896837E+03</pdfrwt>
<pdfrwt beam="2">  1       21 0.51019135E-01 0.19896837E+03</pdfrwt>
<totfact> 0.31424662E+04</totfact>
</mgrwt>
</event>
<event>
 4    1  0.4111182E+000  0.2234545E+03  0.7546771E-02  0.1131333E+00
         21   -1    0    0  503  502  0.00000000000E+00  0.00000000000E+00  0.10120486320E+04  0.10120486320E+04  0.00000000000E+00 0.  1.
         21   -1    0    0  501  503 -0.00000000000E+00 -0.00000000000E+00 -0.51373922209E+02  0.51373922209E+02  0.00000000000E+00 0. -1.
          6    1    1    2  501    0  0.83687329131E+02  0.11401471831E+03  0.37447513772E+03  0.43607746309E+03  0.17300000000E+03 0. -1.
         -6    1    1    2    0  502 -0.83687329131E+02 -0.11401471831E+03  0.58619957205E+03  0.62734509109E+03  0.17300000000E+03 0.  1.
<mgrwt>
<rscale>  2 0.22345453E+03</rscale>
<asrwt>0</asrwt>
<pdfrwt beam="1">  1       21 0.15569977E+00 0.22345453E+03</pdfrwt>
<pdfrwt beam="2">  1       21 0.79036811E-02 0.22345453E+03</pdfrwt>
<totfact> 0.32578218E+04</totfact>
</mgrwt>
</event>
<event>
 4    1  0.4111182E+000  0.2495701E+03  0.7546771E-02  0.1113577E+00
         21   -1    0    0  501  502  0.00000000000E+00  0.00000000000E+00  0.11940424677E+03  0.11940424677E+03  0.00000000000E+00 0.  1.
         21   -1    0    0  502  503 -0.00000000000E+00 -0.00000000000E+00 -0.76405230575E+03  0.76405230575E+03  0.00000000000E+00 0.  1.
          6    1    1    2  501    0  0.10715697057E+03 -0.14447705725E+03 -0.73508805521E+02  0.26017067649E+03  0.17300000000E+03 0.  1.
         -6    1    1    2    0  503 -0.10715697057E+03  0.14447705725E+03 -0.57113925346E+03  0.62328587603E+03  0.17300000000E+03 0.  1.
<mgrwt>
<rscale>  2 0.24957010E+03</rscale>
<asrwt>0</asrwt>
<pdfrwt beam="1">  1       21 0.18369884E-01 0.24957010E+03</pdfrwt>
<pdfrwt beam="2">  1       21 0.11754651E+00 0.24957010E+03</pdfrwt>
<totfact> 0.14511932E+04</totfact>
</mgrwt>
</event>
<event>
 4    1  0.4111182E+000  0.2532977E+03  0.7546771E-02  0.1111238E+00
         21   -1    0    0  503  502  0.00000000000E+00  0.00000000000E+00  0.44825115954E+03  0.44825115954E+03  0.00000000000E+00 0.  1.
         21   -1    0    0  501  503 -0.00000000000E+00 -0.00000000000E+00 -0.22086781026E+03  0.22086781026E+03  0.00000000000E+00 0.  1.
          6    1    1    2  501    0  0.93353529204E+02  0.15973673492E+03 -0.84786990014E+02  0.26711147406E+03  0.17300000000E+03 0.  1.
         -6    1    1    2    0  502 -0.93353529204E+02 -0.15973673492E+03  0.31217033929E+03  0.40200749574E+03  0.17300000000E+03 0.  1.
<mgrwt>
<rscale>  2 0.25329766E+03</rscale>
<asrwt>0</asrwt>
<pdfrwt beam="1">  1       21 0.68961717E-01 0.25329766E+03</pdfrwt>
<pdfrwt beam="2">  1       21 0.33979663E-01 0.25329766E+03</pdfrwt>
<totfact> 0.15433423E+04</totfact>
</mgrwt>
</event>
<event>
 4    1  0.4111182E+000  0.1899063E+03  0.7546771E-02  0.1158546E+00
         21   -1    0    0  503  502  0.00000000000E+00  0.00000000000E+00  0.12925676336E+03  0.12925676336E+03  0.00000000000E+00 0.  1.
         21   -1    0    0  501  503 -0.00000000000E+00 -0.00000000000E+00 -0.69475542409E+03  0.69475542409E+03  0.00000000000E+00 0. -1.
          6    1    1    2  501    0 -0.77646425731E+02  0.10316328221E+02 -0.60146214691E+03  0.63073061462E+03  0.17300000000E+03 0. -1.
         -6    1    1    2    0  502  0.77646425731E+02 -0.10316328221E+02  0.35963486186E+02  0.19328157283E+03  0.17300000000E+03 0.  1.
<mgrwt>
<rscale>  2 0.18990628E+03</rscale>
<asrwt>0</asrwt>
<pdfrwt beam="1">  1       21 0.19885655E-01 0.18990628E+03</pdfrwt>
<pdfrwt beam="2">  1       21 0.10688545E+00 0.18990628E+03</pdfrwt>
<totfact> 0.16361434E+04</totfact>
</mgrwt>
</event>
<event>
 4    1  0.4111182E+000  0.1821191E+03  0.7546771E-02  0.1165768E+00
         21   -1    0    0  501  502  0.00000000000E+00  0.00000000000E+00  0.19224978437E+03  0.19224978437E+03  0.00000000000E+00 0. -1.
         21   -1    0    0  502  503 -0.00000000000E+00 -0.00000000000E+00 -0.46631530276E+03  0.46631530276E+03  0.00000000000E+00 0. -1.
          6    1    1    2  501    0 -0.51385679148E+02 -0.24451644123E+02  0.12433355509E+03  0.22051350037E+03  0.17300000000E+03 0. -1.
         -6    1    1    2    0  503  0.51385679148E+02  0.24451644123E+02 -0.39839907348E+03  0.43805158677E+03  0.17300000000E+03 0. -1.
<mgrwt>
<rscale>  2 0.18211911E+03</rscale>
<asrwt>0</asrwt>
<pdfrwt beam="1">  1       21 0.29576890E-01 0.18211911E+03</pdfrwt>
<pdfrwt beam="2">  1       21 0.71740815E-01 0.18211911E+03</pdfrwt>
<totfact> 0.19348984E+04</totfact>
</mgrwt>
</event>
<event>
 4    1  0.4111182E+000  0.2263471E+03  0.7546771E-02  0.1129238E+00
         21   -1    0    0  503  502  0.00000000000E+00  0.00000000000E+00  0.79826584849E+02  0.79826584849E+02  0.00000000000E+00 0.  1.
         21   -1    0    0  501  503 -0.00000000000E+00 -0.00000000000E+00 -0.81631545097E+03  0.81631545097E+03  0.00000000000E+00 0.  1.
          6    1    1    2  501    0  0.71292719487E+02 -0.12736300648E+03 -0.57541609172E+03  0.61833378194E+03  0.17300000000E+03 0.  1.
         -6    1    1    2    0  502 -0.71292719487E+02  0.12736300648E+03 -0.16107277440E+03  0.27780825388E+03  0.17300000000E+03 0.  1.
<mgrwt>
<rscale>  2 0.22634705E+03</rscale>
<asrwt>0</asrwt>
<pdfrwt beam="1">  1       21 0.12281013E-01 0.22634705E+03</pdfrwt>
<pdfrwt beam="2">  1       21 0.12558700E+00 0.22634705E+03</pdfrwt>
<totfact> 0.26023168E+04</totfact>
</mgrwt>
</event>
<event>
 4    1  0.4111182E+000  0.3715143E+03  0.7546771E-02  0.1054115E+00
         21   -1    0    0  501  502  0.00000000000E+00  0.00000000000E+00  0.33873165441E+03  0.33873165441E+03  0.00000000000E+00 0. -1.
         21   -1    0    0  502  503 -0.00000000000E+00 -0.00000000000E+00 -0.44595389515E+03  0.44595389515E+03  0.00000000000E+00 0.  1.
          6    1    1    2  501    0  0.31861416402E+03  0.81110284291E+02  0.61644535634E+02  0.37659382961E+03  0.17300000000E+03 0. -1.
         -6    1    1    2    0  503 -0.31861416402E+03 -0.81110284291E+02 -0.16886677637E+03  0.40809171995E+03  0.17300000000E+03 0.  1.
<mgrwt>
<rscale>  2 0.37151428E+03</rscale>
<asrwt>0</asrwt>
<pdfrwt beam="1">  1       21 0.52112563E-01 0.37151428E+03</pdfrwt>
<pdfrwt beam="2">  1       21 0.68608291E-01 0.37151428E+03</pdfrwt>
<totfact> 0.61449047E+03</totfact>
</mgrwt>
</event>
<event>
 4    1  0.4111182E+000  0.1867387E+03  0.7546771E-02  0.1161436E+00
         21   -1    0    0  503  502  0.00000000000E+00  0.00000000000E+00  0.11279353804E+03  0.11279353804E+03  0.00000000000E+00 0. -1.
         21   -1    0    0  501  503 -0.00000000000E+00 -0.00000000000E+00 -0.81312622412E+03  0.81312622412E+03  0.00000000000E+00 0. -1.
          6    1    1    2  501    0 -0.11911753310E+02 -0.69285341498E+02 -0.71463879991E+03  0.73863384891E+03  0.17300000000E+03 0. -1.
         -6    1    1    2    0  502  0.11911753310E+02  0.69285341498E+02  0.14306113828E+02  0.18728591326E+03  0.17300000000E+03 0. -1.
<mgrwt>
<rscale>  2 0.18673872E+03</rscale>
<asrwt>0</asrwt>
<pdfrwt beam="1">  1       21 0.17352852E-01 0.18673872E+03</pdfrwt>
<pdfrwt beam="2">  1       21 0.12509634E+00 0.18673872E+03</pdfrwt>
<totfact> 0.14359390E+04</totfact>
</mgrwt>
</event>
<event>
 4    1  0.4111182E+000  0.1910280E+03  0.7546771E-02  0.1157537E+00
         21   -1    0    0  503  502  0.00000000000E+00  0.00000000000E+00  0.56785496948E+03  0.56785496948E+03  0.00000000000E+00 0.  1.
         21   -1    0    0  501  503 -0.00000000000E+00 -0.00000000000E+00 -0.14393386927E+03  0.14393386927E+03  0.00000000000E+00 0.  1.
          6    1    1    2  501    0 -0.60436618605E+02 -0.53945566955E+02 -0.52823096427E+02  0.19819684301E+03  0.17300000000E+03 0.  1.
         -6    1    1    2    0  502  0.60436618605E+02  0.53945566955E+02  0.47674419664E+03  0.51359199575E+03  0.17300000000E+03 0.  1.
<mgrwt>
<rscale>  2 0.19102803E+03</rscale>
<asrwt>0</asrwt>
<pdfrwt beam="1">  1       21 0.87362302E-01 0.19102803E+03</pdfrwt>
<pdfrwt beam="2">  1       21 0.22143673E-01 0.19102803E+03</pdfrwt>
<totfact> 0.21476889E+04</totfact>
</mgrwt>
</event>
<event>
 4    1  0.4111182E+000  0.2021706E+03  0.7546771E-02  0.1147920E+00
         21   -1    0    0  501  502  0.00000000000E+00  0.00000000000E+00  0.31414237755E+02  0.31414237755E+02  0.00000000000E+00 0.  1.
         21   -1    0    0  502  503 -0.00000000000E+00 -0.00000000000E+00 -0.14021379113E+04  0.14021379113E+04  0.00000000000E+00 0.  1.
          6    1    1    2  501    0 -0.31402860706E+02 -0.99788898760E+02 -0.49294759751E+03  0.53279479903E+03  0.17300000000E+03 0.  1.
         -6    1    1    2    0  503  0.31402860706E+02  0.99788898760E+02 -0.87777607602E+03  0.90075735002E+03  0.17300000000E+03 0.  1.
<mgrwt>
<rscale>  2 0.20217063E+03</rscale>
<asrwt>0</asrwt>
<pdfrwt beam="1">  1       21 0.48329603E-02 0.20217063E+03</pdfrwt>
<pdfrwt beam="2">  1       21 0.21571350E+00 0.20217063E+03</pdfrwt>
<totfact> 0.30246472E+04</totfact>
</mgrwt>
</event>
<event>
 4    1  0.4111182E+000  0.4797918E+03  0.7546771E-02  0.1019192E+00
         21   -1    0    0  503  502  0.00000000000E+00  0.00000000000E+00  0.39584807653E+03  0.39584807653E+03  0.00000000000E+00 0.  1.
         21   -1    0    0  501  503 -0.00000000000E+00 -0.00000000000E+00 -0.63943649230E+03  0.63943649230E+03  0.00000000000E+00 0. -1.
          6    1    1    2  501    0 -0.21848791849E+03  0.39055624287E+03 -0.27755920397E+03  0.55429167510E+03  0.17300000000E+03 0. -1.
         -6    1    1    2    0  502  0.21848791849E+03 -0.39055624287E+03  0.33970788190E+02  0.48099289374E+03  0.17300000000E+03 0.  1.
<mgrwt>
<rscale>  2 0.47979178E+03</rscale>
<asrwt>0</asrwt>
<pdfrwt beam="1">  1       21 0.60899704E-01 0.47979178E+03</pdfrwt>
<pdfrwt beam="2">  1       21 0.98374845E-01 0.47979178E+03</pdfrwt>
<totfact> 0.18241354E+03</totfact>
</mgrwt>
</event>
<event>
 4    1  0.4111182E+000  0.3636353E+03  0.7546771E-02  0.1057154E+00
         21   -1    0    0  501  502  0.00000000000E+00  0.00000000000E+00  0.19218434582E+03  0.19218434582E+03  0.00000000000E+00 0. -1.
         21   -1    0    0  502  503 -0.00000000000E+00 -0.00000000000E+00 -0.12615346459E+04  0.12615346459E+04  0.00000000000E+00 0. -1.
          6    1    1    2  501    0 -0.28916129622E+03 -0.13670180514E+03 -0.44597020396E+02  0.36635984085E+03  0.17300000000E+03 0. -1.
         -6    1    1    2    0  503  0.28916129622E+03  0.13670180514E+03 -0.10247532797E+04  0.10873591509E+04  0.17300000000E+03 0. -1.
<mgrwt>
<rscale>  2 0.36363531E+03</rscale>
<asrwt>0</asrwt>
<pdfrwt beam="1">  1       21 0.29566822E-01 0.36363531E+03</pdfrwt>
<pdfrwt beam="2">  1       21 0.19408226E+00 0.36363531E+03</pdfrwt>
<totfact> 0.14104339E+03</totfact>
</mgrwt>
</event>
<event>
 4    1  0.4111182E+000  0.1749329E+03  0.7546771E-02  0.1172799E+00
         21   -1    0    0  503  502  0.00000000000E+00  0.00000000000E+00  0.13707462091E+03  0.13707462091E+03  0.00000000000E+00 0.  1.
         21   -1    0    0  501  503 -0.00000000000E+00 -0.00000000000E+00 -0.10561776271E+04  0.10561776271E+04  0.00000000000E+00 0.  1.
          6    1    1    2  501    0 -0.21838892359E+02  0.13984893541E+02 -0.98938348281E+03  0.10047294116E+04  0.17300000000E+03 0.  1.
         -6    1    1    2    0  502  0.21838892359E+02 -0.13984893541E+02  0.70280476605E+02  0.18852283644E+03  0.17300000000E+03 0.  1.
<mgrwt>
<rscale>  2 0.17493289E+03</rscale>
<asrwt>0</asrwt>
<pdfrwt beam="1">  1       21 0.21088403E-01 0.17493289E+03</pdfrwt>
<pdfrwt beam="2">  1       21 0.16248887E+00 0.17493289E+03</pdfrwt>
<totfact> 0.51258836E+03</totfact>
</mgrwt>
</event>
<event>
 4    1  0.4111182E+000  0.2025130E+03  0.7546771E-02  0.1147636E+00
         21   -1    0    0  503  502  0.00000000000E+00  0.00000000000E+00  0.65613537756E+03  0.65613537756E+03  0.00000000000E+00 0. -1.
         21   -1    0    0  501  503 -0.00000000000E+00 -0.00000000000E+00 -0.66617071570E+02  0.66617071570E+02  0.00000000000E+00 0. -1.
          6    1    1    2  501    0  0.37478697563E+02 -0.98376074024E+02  0.20497158289E+03  0.28814033821E+03  0.17300000000E+03 0. -1.
         -6    1    1    2    0  502 -0.37478697563E+02  0.98376074024E+02  0.38454672309E+03  0.43461211091E+03  0.17300000000E+03 0. -1.
<mgrwt>
<rscale>  2 0.20251297E+03</rscale>
<asrwt>0</asrwt>
<pdfrwt beam="1">  1       21 0.10094390E+00 0.20251297E+03</pdfrwt>
<pdfrwt beam="2">  1       21 0.10248781E-01 0.20251297E+03</pdfrwt>
<totfact> 0.62074479E+04</totfact>
</mgrwt>
</event>
<event>
 4    1  0.4111182E+000  0.2514945E+03  0.7546771E-02  0.1112364E+00
         21   -1    0    0  501  502  0.00000000000E+00  0.00000000000E+00  0.49696391485E+02  0.49696391485E+02  0.00000000000E+00 0.  1.
         21   -1    0    0  502  503 -0.00000000000E+00 -0.00000000000E+00 -0.16469767764E+04  0.16469767764E+04  0.00000000000E+00 0. -1.
          6    1    1    2  501    0  0.10479562392E+03 -0.14946015321E+03 -0.39424049110E+03  0.46762701485E+03  0.17300000000E+03 0.  1.
         -6    1    1    2    0  503 -0.10479562392E+03  0.14946015321E+03 -0.12030398938E+04  0.12290461530E+04  0.17300000000E+03 0. -1.
<mgrwt>
<rscale>  2 0.25149445E+03</rscale>
<asrwt>0</asrwt>
<pdfrwt beam="1">  1       21 0.76456001E-02 0.25149445E+03</pdfrwt>
<pdfrwt beam="2">  1       21 0.25338100E+00 0.25149445E+03</pdfrwt>
<totfact> 0.78315694E+03</totfact>
</mgrwt>
</event>
<event>
 4    1  0.4111182E+000  0.1737884E+03  0.7546771E-02  0.1173954E+00
         21   -1    0    0  503  502  0.00000000000E+00  0.00000000000E+00  0.35078249921E+03  0.35078249921E+03  0.00000000000E+00 0.  1.
         21   -1    0    0  501  503 -0.00000000000E+00 -0.00000000000E+00 -0.23904282903E+03  0.23904282903E+03  0.00000000000E+00 0.  1.
          6    1    1    2  501    0 -0.11061738630E+02 -0.12290737695E+02 -0.18002580553E+03  0.25022333015E+03  0.17300000000E+03 0.  1.
         -6    1    1    2    0  502  0.11061738630E+02  0.12290737695E+02  0.29176547571E+03  0.33960199810E+03  0.17300000000E+03 0.  1.
<mgrwt>
<rscale>  2 0.17378845E+03</rscale>
<asrwt>0</asrwt>
<pdfrwt beam="1">  1       21 0.53966538E-01 0.17378845E+03</pdfrwt>
<pdfrwt beam="2">  1       21 0.36775820E-01 0.17378845E+03</pdfrwt>
<totfact> 0.23408202E+04</totfact>
</mgrwt>
</event>
<event>
 4    1  0.4111182E+000  0.2144862E+03  0.7546771E-02  0.1138062E+00
         21   -1    0    0  503  502  0.00000000000E+00  0.00000000000E+00  0.17351168390E+04  0.17351168390E+04  0.00000000000E+00 0.  1.
         21   -1    0    0  501  503 -0.00000000000E+00 -0.00000000000E+00 -0.30381854678E+02  0.30381854678E+02  0.00000000000E+00 0.  1.
          6    1    1    2  501    0  0.11958079356E+03 -0.42139841608E+02  0.11673477317E+04  0.11868888150E+04  0.17300000000E+03 0.  1.
         -6    1    1    2    0  502 -0.11958079356E+03  0.42139841608E+02  0.53738725261E+03  0.57860987868E+03  0.17300000000E+03 0.  1.
<mgrwt>
<rscale>  2 0.21448621E+03</rscale>
<asrwt>0</asrwt>
<pdfrwt beam="1">  1       21 0.26694097E+00 0.21448621E+03</pdfrwt>
<pdfrwt beam="2">  1       21 0.46741328E-02 0.21448621E+03</pdfrwt>
<totfact> 0.15651169E+04</totfact>
</mgrwt>
</event>
<event>
 4    1  0.4111182E+000  0.2968077E+03  0.7546771E-02  0.1086847E+00
         21   -1    0    0  501  502  0.00000000000E+00  0.00000000000E+00  0.74965697281E+03  0.74965697281E+03  0.00000000000E+00 0.  1.
         21   -1    0    0  502  503 -0.00000000000E+00 -0.00000000000E+00 -0.22250490374E+03  0.22250490374E+03  0.00000000000E+00 0.  1.
          6    1    1    2  501    0 -0.57370651160E+02 -0.23425294008E+03  0.59747542151E+03  0.66713695061E+03  0.17300000000E+03 0.  1.
         -6    1    1    2    0  503  0.57370651160E+02  0.23425294008E+03 -0.70323352440E+02  0.30502492595E+03  0.17300000000E+03 0.  1.
<mgrwt>
<rscale>  2 0.29680773E+03</rscale>
<asrwt>0</asrwt>
<pdfrwt beam="1">  1       21 0.11533184E+00 0.29680773E+03</pdfrwt>
<pdfrwt beam="2">  1       21 0.34231524E-01 0.29680773E+03</pdfrwt>
<totfact> 0.44657162E+03</totfact>
</mgrwt>
</event>
<event>
 4    1  0.4111182E+000  0.2018907E+03  0.7546771E-02  0.1148154E+00
         21   -1    0    0  503  502  0.00000000000E+00  0.00000000000E+00  0.16339441139E+02  0.16339441139E+02  0.00000000000E+00 0. -1.
         21   -1    0    0  501  503 -0.00000000000E+00 -0.00000000000E+00 -0.24947990342E+04  0.24947990342E+04  0.00000000000E+00 0. -1.
          6    1    1    2  501    0  0.70539717142E+02 -0.76518101919E+02 -0.12271866346E+04  0.12436828003E+04  0.17300000000E+03 0.  1.
         -6    1    1    2    0  502 -0.70539717142E+02  0.76518101919E+02 -0.12512729584E+04  0.12674556750E+04  0.17300000000E+03 0.  1.
<mgrwt>
<rscale>  2 0.20189074E+03</rscale>
<asrwt>0</asrwt>
<pdfrwt beam="1">  1       21 0.25137616E-02 0.20189074E+03</pdfrwt>
<pdfrwt beam="2">  1       21 0.38381502E+00 0.20189074E+03</pdfrwt>
<totfact> 0.91779882E+03</totfact>
</mgrwt>
</event>
<event>
 4    1  0.4111182E+000  0.1779781E+03  0.7546771E-02  0.1169774E+00
         21   -1    0    0  501  502  0.00000000000E+00  0.00000000000E+00  0.50852937703E+02  0.50852937703E+02  0.00000000000E+00 0.  1.
         21   -1    0    0  502  503 -0.00000000000E+00 -0.00000000000E+00 -0.72902151417E+03  0.72902151417E+03  0.00000000000E+00 0.  1.
          6    1    1    2  501    0  0.24159945051E+02 -0.34110136805E+02 -0.19030931307E+03  0.26056446231E+03  0.17300000000E+03 0.  1.
         -6    1    1    2    0  503 -0.24159945051E+02  0.34110136805E+02 -0.48785926340E+03  0.51930998957E+03  0.17300000000E+03 0.  1.
<mgrwt>
<rscale>  2 0.17797810E+03</rscale>
<asrwt>0</asrwt>
<pdfrwt beam="1">  1       21 0.78235291E-02 0.17797810E+03</pdfrwt>
<pdfrwt beam="2">  1       21 0.11215715E+00 0.17797810E+03</pdfrwt>
<totfact> 0.78250796E+04</totfact>
</mgrwt>
</event>
<event>
 4    1  0.4111182E+000  0.2144785E+03  0.7546771E-02  0.1138068E+00
         21   -1    0    0  503  502  0.00000000000E+00  0.00000000000E+00  0.30266448181E+03  0.30266448181E+03  0.00000000000E+00 0.  1.
         21   -1    0    0  501  503 -0.00000000000E+00 -0.00000000000E+00 -0.25807525037E+03  0.25807525037E+03  0.00000000000E+00 0.  1.
          6    1    1    2  501    0 -0.93607089840E+02  0.85497079524E+02 -0.15746494299E+03  0.26607563990E+03  0.17300000000E+03 0.  1.
         -6    1    1    2    0  502  0.93607089840E+02 -0.85497079524E+02  0.20205417444E+03  0.29466409229E+03  0.17300000000E+03 0.  1.
<mgrwt>
<rscale>  2 0.21447853E+03</rscale>
<asrwt>0</asrwt>
<pdfrwt beam="1">  1       21 0.46563767E-01 0.21447853E+03</pdfrwt>
<pdfrwt beam="2">  1       21 0.39703884E-01 0.21447853E+03</pdfrwt>
<totfact> 0.26682770E+04</totfact>
</mgrwt>
</event>
<event>
 4    1  0.4111182E+000  0.1861729E+03  0.7546771E-02  0.1161959E+00
         21   -1    0    0  503  502  0.00000000000E+00  0.00000000000E+00  0.57135589944E+03  0.57135589944E+03  0.00000000000E+00 0.  1.
         21   -1    0    0  501  503 -0.00000000000E+00 -0.00000000000E+00 -0.62387653160E+02  0.62387653160E+02  0.00000000000E+00 0. -1.
          6    1    1    2  501    0 -0.68747630150E+02 -0.22641436859E+01  0.20180469828E+03  0.27456419877E+03  0.17300000000E+03 0. -1.
         -6    1    1    2    0  502  0.68747630150E+02  0.22641436859E+01  0.30716354800E+03  0.35917935383E+03  0.17300000000E+03 0.  1.
<mgrwt>
<rscale>  2 0.18617294E+03</rscale>
<asrwt>0</asrwt>
<pdfrwt beam="1">  1       21 0.87900904E-01 0.18617294E+03</pdfrwt>
<pdfrwt beam="2">  1       21 0.95981008E-02 0.18617294E+03</pdfrwt>
<totfact> 0.97032486E+04</totfact>
</mgrwt>
</event>
<event>
 4    1  0.4111182E+000  0.2268823E+03  0.7546771E-02  0.1128854E+00
         21   -1    0    0  501  502  0.00000000000E+00  0.00000000000E+00  0.65955286358E+02  0.65955286358E+02  0.00000000000E+00 0.  1.
         21   -1    0    0  502  503 -0.00000000000E+00 -0.00000000000E+00 -0.13781283403E+04  0.13781283403E+04  0.00000000000E+00 0.  1.
          6    1    1    2  501    0  0.12364675897E+03 -0.79107936714E+02 -0.18059042667E+03  0.28998015253E+03  0.17300000000E+03 0.  1.
         -6    1    1    2    0  503 -0.12364675897E+03  0.79107936714E+02 -0.11315826272E+04  0.11541034741E+04  0.17300000000E+03 0.  1.
<mgrwt>
<rscale>  2 0.22688232E+03</rscale>
<asrwt>0</asrwt>
<pdfrwt beam="1">  1       21 0.10146968E-01 0.22688232E+03</pdfrwt>
<pdfrwt beam="2">  1       21 0.21201972E+00 0.22688232E+03</pdfrwt>
<totfact> 0.86616245E+03</totfact>
</mgrwt>
</event>
<event>
 4    1  0.4111182E+000  0.2367278E+03  0.7546771E-02  0.1121992E+00
         21   -1    0    0  501  502  0.00000000000E+00  0.00000000000E+00  0.96188254489E+03  0.96188254489E+03  0.00000000000E+00 0. -1.
         21   -1    0    0  502  503 -0.00000000000E+00 -0.00000000000E+00 -0.13886746047E+03  0.13886746047E+03  0.00000000000E+00 0. -1.
          6    1    1    2  501    0  0.12114920500E+03 -0.10692949767E+03  0.83082593843E+03  0.86389338886E+03  0.17300000000E+03 0. -1.
         -6    1    1    2    0  503 -0.12114920500E+03  0.10692949767E+03 -0.78108540087E+01  0.23685661651E+03  0.17300000000E+03 0. -1.
<mgrwt>
<rscale>  2 0.23672779E+03</rscale>
<asrwt>0</asrwt>
<pdfrwt beam="1">  1       21 0.14798193E+00 0.23672779E+03</pdfrwt>
<pdfrwt beam="2">  1       21 0.21364225E-01 0.23672779E+03</pdfrwt>
<totfact> 0.61107313E+03</totfact>
</mgrwt>
</event>
<event>
 4    1  0.4111182E+000  0.1880496E+03  0.7546771E-02  0.1160232E+00
         21   -1    0    0  501  502  0.00000000000E+00  0.00000000000E+00  0.16000144239E+02  0.16000144239E+02  0.00000000000E+00 0. -1.
         21   -1    0    0  502  503 -0.00000000000E+00 -0.00000000000E+00 -0.27033070145E+04  0.27033070145E+04  0.00000000000E+00 0. -1.
          6    1    1    2  501    0 -0.49882732112E+02 -0.54271304374E+02 -0.76292275537E+03  0.78575682759E+03  0.17300000000E+03 0. -1.
         -6    1    1    2    0  503  0.49882732112E+02  0.54271304374E+02 -0.19243841149E+04  0.19335503311E+04  0.17300000000E+03 0. -1.
<mgrwt>
<rscale>  2 0.18804962E+03</rscale>
<asrwt>0</asrwt>
<pdfrwt beam="1">  1       21 0.24615602E-02 0.18804962E+03</pdfrwt>
<pdfrwt beam="2">  1       21 0.41589346E+00 0.18804962E+03</pdfrwt>
<totfact> 0.61077461E+03</totfact>
</mgrwt>
</event>
<event>
 4    1  0.4111182E+000  0.1820945E+03  0.7546771E-02  0.1165791E+00
         21   -1    0    0  501  502  0.00000000000E+00  0.00000000000E+00  0.60486578999E+03  0.60486578999E+03  0.00000000000E+00 0.  1.
         21   -1    0    0  502  503 -0.00000000000E+00 -0.00000000000E+00 -0.11053678115E+03  0.11053678115E+03  0.00000000000E+00 0.  1.
          6    1    1    2  501    0 -0.46792079550E+01 -0.56634859028E+02  0.50112273732E+03  0.53318139512E+03  0.17300000000E+03 0.  1.
         -6    1    1    2    0  503  0.46792079550E+01  0.56634859028E+02 -0.67937284858E+01  0.18222117602E+03  0.17300000000E+03 0.  1.
<mgrwt>
<rscale>  2 0.18209449E+03</rscale>
<asrwt>0</asrwt>
<pdfrwt beam="1">  1       21 0.93056273E-01 0.18209449E+03</pdfrwt>
<pdfrwt beam="2">  1       21 0.17005659E-01 0.18209449E+03</pdfrwt>
<totfact> 0.30488949E+04</totfact>
</mgrwt>
</event>
<event>
 4    1  0.4111182E+000  0.2108408E+03  0.7546771E-02  0.1140902E+00
         21   -1    0    0  503  502  0.00000000000E+00  0.00000000000E+00  0.32150387818E+03  0.32150387818E+03  0.00000000000E+00 0.  1.
         21   -1    0    0  501  503 -0.00000000000E+00 -0.00000000000E+00 -0.19347094518E+03  0.19347094518E+03  0.00000000000E+00 0.  1.
          6    1    1    2  501    0 -0.23193449435E+02  0.11826629014E+03 -0.73523012313E+02  0.22329237519E+03  0.17300000000E+03 0.  1.
         -6    1    1    2    0  502  0.23193449435E+02 -0.11826629014E+03  0.20155594531E+03  0.29168244817E+03  0.17300000000E+03 0.  1.
<mgrwt>
<rscale>  2 0.21084082E+03</rscale>
<asrwt>0</asrwt>
<pdfrwt beam="1">  1       21 0.49462135E-01 0.21084082E+03</pdfrwt>
<pdfrwt beam="2">  1       21 0.29764761E-01 0.21084082E+03</pdfrwt>
<totfact> 0.41786616E+04</totfact>
</mgrwt>
</event>
<event>
 4    1  0.4111182E+000  0.2569002E+03  0.7546771E-02  0.1109020E+00
         21   -1    0    0  501  502  0.00000000000E+00  0.00000000000E+00  0.38515681387E+03  0.38515681387E+03  0.00000000000E+00 0.  1.
         21   -1    0    0  502  503 -0.00000000000E+00 -0.00000000000E+00 -0.17301235885E+03  0.17301235885E+03  0.00000000000E+00 0. -1.
          6    1    1    2  501    0 -0.10549694188E+03  0.15792122073E+03  0.13340523568E+03  0.28947309652E+03  0.17300000000E+03 0.  1.
         -6    1    1    2    0  503  0.10549694188E+03 -0.15792122073E+03  0.78739219339E+02  0.26869607620E+03  0.17300000000E+03 0. -1.
<mgrwt>
<rscale>  2 0.25690021E+03</rscale>
<asrwt>0</asrwt>
<pdfrwt beam="1">  1       21 0.59254894E-01 0.25690021E+03</pdfrwt>
<pdfrwt beam="2">  1       21 0.26617286E-01 0.25690021E+03</pdfrwt>
<totfact> 0.34669099E+04</totfact>
</mgrwt>
</event>
<event>
 4    1  0.4111182E+000  0.1786238E+03  0.7546771E-02  0.1169142E+00
         21   -1    0    0  501  502  0.00000000000E+00  0.00000000000E+00  0.45580404897E+03  0.45580404897E+03  0.00000000000E+00 0. -1.
         21   -1    0    0  502  503 -0.00000000000E+00 -0.00000000000E+00 -0.86873914166E+02  0.86873914166E+02  0.00000000000E+00 0. -1.
          6    1    1    2  501    0  0.28950574814E+02 -0.33753680550E+02  0.30404844149E+03  0.35263564979E+03  0.17300000000E+03 0. -1.
         -6    1    1    2    0  503 -0.28950574814E+02  0.33753680550E+02  0.64881693311E+02  0.19004231334E+03  0.17300000000E+03 0. -1.
<mgrwt>
<rscale>  2 0.17862376E+03</rscale>
<asrwt>0</asrwt>
<pdfrwt beam="1">  1       21 0.70123699E-01 0.17862376E+03</pdfrwt>
<pdfrwt beam="2">  1       21 0.13365218E-01 0.17862376E+03</pdfrwt>
<totfact> 0.89754777E+04</totfact>
</mgrwt>
</event>
<event>
 4    1  0.4111182E+000  0.2539709E+03  0.7546771E-02  0.1110821E+00
         21   -1    0    0  501  502  0.00000000000E+00  0.00000000000E+00  0.92268234369E+02  0.92268234369E+02  0.00000000000E+00 0. -1.
         21   -1    0    0  502  503 -0.00000000000E+00 -0.00000000000E+00 -0.70215923627E+03  0.70215923627E+03  0.00000000000E+00 0. -1.
          6    1    1    2  501    0  0.38939309326E+02 -0.18181297138E+03 -0.33132618686E+03  0.41746648784E+03  0.17300000000E+03 0. -1.
         -6    1    1    2    0  503 -0.38939309326E+02  0.18181297138E+03 -0.27856481504E+03  0.37696098279E+03  0.17300000000E+03 0. -1.
<mgrwt>
<rscale>  2 0.25397092E+03</rscale>
<asrwt>0</asrwt>
<pdfrwt beam="1">  1       21 0.14195112E-01 0.25397092E+03</pdfrwt>
<pdfrwt beam="2">  1       21 0.10802450E+00 0.25397092E+03</pdfrwt>
<totfact> 0.28646753E+04</totfact>
</mgrwt>
</event>
<event>
 4    1  0.4111182E+000  0.3180990E+03  0.7546771E-02  0.1076528E+00
         21   -1    0    0  501  502  0.00000000000E+00  0.00000000000E+00  0.25402746627E+03  0.25402746627E+03  0.00000000000E+00 0.  1.
         21   -1    0    0  502  503 -0.00000000000E+00 -0.00000000000E+00 -0.15809817177E+04  0.15809817177E+04  0.00000000000E+00 0. -1.
          6    1    1    2  501    0 -0.20417702012E+03 -0.17195842665E+03  0.13007071604E+03  0.34366458533E+03  0.17300000000E+03 0.  1.
         -6    1    1    2    0  503  0.20417702012E+03  0.17195842665E+03 -0.14570249675E+04  0.14913445987E+04  0.17300000000E+03 0. -1.
<mgrwt>
<rscale>  2 0.31809897E+03</rscale>
<asrwt>0</asrwt>
<pdfrwt beam="1">  1       21 0.39081149E-01 0.31809897E+03</pdfrwt>
<pdfrwt beam="2">  1       21 0.24322795E+00 0.31809897E+03</pdfrwt>
<totfact> 0.40492240E+02</totfact>
</mgrwt>
</event>
<event>
 4    1  0.4111182E+000  0.1808170E+03  0.7546771E-02  0.1167015E+00
         21   -1    0    0  501  502  0.00000000000E+00  0.00000000000E+00  0.62103908870E+02  0.62103908870E+02  0.00000000000E+00 0.  1.
         21   -1    0    0  502  503 -0.00000000000E+00 -0.00000000000E+00 -0.85759464016E+03  0.85759464016E+03  0.00000000000E+00 0.  1.
          6    1    1    2  501    0 -0.70351765746E+01 -0.52118059399E+02 -0.11199854341E+03  0.21269334628E+03  0.17300000000E+03 0.  1.
         -6    1    1    2    0  503  0.70351765746E+01  0.52118059399E+02 -0.68349218788E+03  0.70700520275E+03  0.17300000000E+03 0.  1.
<mgrwt>
<rscale>  2 0.18081700E+03</rscale>
<asrwt>0</asrwt>
<pdfrwt beam="1">  1       21 0.95544476E-02 0.18081700E+03</pdfrwt>
<pdfrwt beam="2">  1       21 0.13193764E+00 0.18081700E+03</pdfrwt>
<totfact> 0.36865648E+04</totfact>
</mgrwt>
</event>
<event>
 4    1  0.4111182E+000  0.1885251E+03  0.7546771E-02  0.1159798E+00
         21   -1    0    0  501  502  0.00000000000E+00  0.00000000000E+00  0.11742294961E+04  0.11742294961E+04  0.00000000000E+00 0. -1.
         21   -1    0    0  502  503 -0.00000000000E+00 -0.00000000000E+00 -0.36566391965E+02  0.36566391965E+02  0.00000000000E+00 0. -1.
          6    1    1    2  501    0 -0.43195341028E+02  0.61211733847E+02  0.82008426023E+03  0.84147484082E+03  0.17300000000E+03 0. -1.
         -6    1    1    2    0  503  0.43195341028E+02 -0.61211733847E+02  0.31757884391E+03  0.36932104726E+03  0.17300000000E+03 0. -1.
<mgrwt>
<rscale>  2 0.18852510E+03</rscale>
<asrwt>0</asrwt>
<pdfrwt beam="1">  1       21 0.18065066E+00 0.18852510E+03</pdfrwt>
<pdfrwt beam="2">  1       21 0.56255997E-02 0.18852510E+03</pdfrwt>
<totfact> 0.39753193E+04</totfact>
</mgrwt>
</event>
<event>
 4    1  0.4111182E+000  0.2114355E+03  0.7546771E-02  0.1140434E+00
         21   -1    0    0  501  502  0.00000000000E+00  0.00000000000E+00  0.10062602851E+04  0.10062602851E+04  0.00000000000E+00 0. -1.
         21   -1    0    0  502  503 -0.00000000000E+00 -0.00000000000E+00 -0.72918102733E+02  0.72918102733E+02  0.00000000000E+00 0. -1.
          6    1    1    2  501    0  0.98808665533E+02  0.70801143092E+02  0.80395955816E+03  0.83129773571E+03  0.17300000000E+03 0. -1.
         -6    1    1    2    0  503 -0.98808665533E+02 -0.70801143092E+02  0.12938262421E+03  0.24788065212E+03  0.17300000000E+03 0. -1.
<mgrwt>
<rscale>  2 0.21143546E+03</rscale>
<asrwt>0</asrwt>
<pdfrwt beam="1">  1       21 0.15480926E+00 0.21143546E+03</pdfrwt>
<pdfrwt beam="2">  1       21 0.11218170E-01 0.21143546E+03</pdfrwt>
<totfact> 0.17965838E+04</totfact>
</mgrwt>
</event>
<event>
 4    1  0.4111182E+000  0.2395944E+03  0.7546771E-02  0.1120063E+00
         21   -1    0    0  501  502  0.00000000000E+00  0.00000000000E+00  0.10005014717E+03  0.10005014717E+03  0.00000000000E+00 0.  1.
         21   -1    0    0  502  503 -0.00000000000E+00 -0.00000000000E+00 -0.65198076037E+03  0.65198076037E+03  0.00000000000E+00 0. -1.
          6    1    1    2  501    0 -0.84121094242E+02  0.14282890335E+03 -0.14572949962E+03  0.28043277481E+03  0.17300000000E+03 0.  1.
         -6    1    1    2    0  503  0.84121094242E+02 -0.14282890335E+03 -0.40620111357E+03  0.47159813273E+03  0.17300000000E+03 0. -1.
<mgrwt>
<rscale>  2 0.23959435E+03</rscale>
<asrwt>0</asrwt>
<pdfrwt beam="1">  1       21 0.15392330E-01 0.23959435E+03</pdfrwt>
<pdfrwt beam="2">  1       21 0.10030473E+00 0.23959435E+03</pdfrwt>
<totfact> 0.29747574E+04</totfact>
</mgrwt>
</event>
<event>
 4    1  0.4111182E+000  0.2179371E+03  0.7546771E-02  0.1135430E+00
         21   -1    0    0  503  502  0.00000000000E+00  0.00000000000E+00  0.14623402575E+04  0.14623402575E+04  0.00000000000E+00 0.  1.
         21   -1    0    0  501  503 -0.00000000000E+00 -0.00000000000E+00 -0.36878288401E+02  0.36878288401E+02  0.00000000000E+00 0. -1.
          6    1    1    2  501    0  0.10206325397E+03  0.84561668385E+02  0.45385061432E+03  0.50346495775E+03  0.17300000000E+03 0. -1.
         -6    1    1    2    0  502 -0.10206325397E+03 -0.84561668385E+02  0.97161135482E+03  0.99575358818E+03  0.17300000000E+03 0.  1.
<mgrwt>
<rscale>  2 0.21793711E+03</rscale>
<asrwt>0</asrwt>
<pdfrwt beam="1">  1       21 0.22497538E+00 0.21793711E+03</pdfrwt>
<pdfrwt beam="2">  1       21 0.56735840E-02 0.21793711E+03</pdfrwt>
<totfact> 0.19950355E+04</totfact>
</mgrwt>
</event>
<event>
 4    1  0.4111182E+000  0.2617373E+03  0.7546771E-02  0.1106104E+00
         21   -1    0    0  503  502  0.00000000000E+00  0.00000000000E+00  0.32647749879E+03  0.32647749879E+03  0.00000000000E+00 0. -1.
         21   -1    0    0  501  503 -0.00000000000E+00 -0.00000000000E+00 -0.27087640953E+03  0.27087640953E+03  0.00000000000E+00 0.  1.
          6    1    1    2  501    0  0.12170193992E+02  0.19603397275E+03 -0.11398374567E+03  0.28547981780E+03  0.17300000000E+03 0.  1.
         -6    1    1    2    0  502 -0.12170193992E+02 -0.19603397275E+03  0.16958483493E+03  0.31187409051E+03  0.17300000000E+03 0. -1.
<mgrwt>
<rscale>  2 0.26173733E+03</rscale>
<asrwt>0</asrwt>
<pdfrwt beam="1">  1       21 0.50227308E-01 0.26173733E+03</pdfrwt>
<pdfrwt beam="2">  1       21 0.41673293E-01 0.26173733E+03</pdfrwt>
<totfact> 0.20171327E+04</totfact>
</mgrwt>
</event>
<event>
 4    1  0.4111182E+000  0.1827290E+03  0.7546771E-02  0.1165188E+00
         21   -1    0    0  501  502  0.00000000000E+00  0.00000000000E+00  0.10194249022E+03  0.10194249022E+03  0.00000000000E+00 0. -1.
         21   -1    0    0  502  503 -0.00000000000E+00 -0.00000000000E+00 -0.75287836741E+03  0.75287836741E+03  0.00000000000E+00 0. -1.
          6    1    1    2  501    0  0.56594594900E+02  0.16060643763E+02 -0.42115728209E+01  0.18277754182E+03  0.17300000000E+03 0. -1.
         -6    1    1    2    0  503 -0.56594594900E+02 -0.16060643763E+02 -0.64672430438E+03  0.67204331581E+03  0.17300000000E+03 0. -1.
<mgrwt>
<rscale>  2 0.18272901E+03</rscale>
<asrwt>0</asrwt>
<pdfrwt beam="1">  1       21 0.15683461E-01 0.18272901E+03</pdfrwt>
<pdfrwt beam="2">  1       21 0.11582744E+00 0.18272901E+03</pdfrwt>
<totfact> 0.20964605E+04</totfact>
</mgrwt>
</event>
<event>
 4    1  0.4111182E+000  0.1978063E+03  0.7546771E-02  0.1151603E+00
         21   -1    0    0  501  502  0.00000000000E+00  0.00000000000E+00  0.12109689388E+03  0.12109689388E+03  0.00000000000E+00 0. -1.
         21   -1    0    0  502  503 -0.00000000000E+00 -0.00000000000E+00 -0.45713629789E+03  0.45713629789E+03  0.00000000000E+00 0. -1.
          6    1    1    2  501    0  0.42308437583E+02 -0.86071691144E+02 -0.11471208927E+02  0.19813865989E+03  0.17300000000E+03 0. -1.
         -6    1    1    2    0  503 -0.42308437583E+02  0.86071691144E+02 -0.32456819509E+03  0.38009453189E+03  0.17300000000E+03 0. -1.
<mgrwt>
<rscale>  2 0.19780632E+03</rscale>
<asrwt>0</asrwt>
<pdfrwt beam="1">  1       21 0.18630291E-01 0.19780632E+03</pdfrwt>
<pdfrwt beam="2">  1       21 0.70328661E-01 0.19780632E+03</pdfrwt>
<totfact> 0.48184377E+04</totfact>
</mgrwt>
</event>
<event>
 4    1  0.4111182E+000  0.1748129E+03  0.7546771E-02  0.1172920E+00
         21   -1    0    0  501  502  0.00000000000E+00  0.00000000000E+00  0.45391053673E+02  0.45391053673E+02  0.00000000000E+00 0.  1.
         21   -1    0    0  502  503 -0.00000000000E+00 -0.00000000000E+00 -0.67780464273E+03  0.67780464273E+03  0.00000000000E+00 0.  1.
          6    1    1    2  501    0  0.24973738566E+02 -0.26167335867E+01 -0.28656583257E+03  0.33567768962E+03  0.17300000000E+03 0.  1.
         -6    1    1    2    0  503 -0.24973738566E+02  0.26167335867E+01 -0.34584775649E+03  0.38751800678E+03  0.17300000000E+03 0.  1.
<mgrwt>
<rscale>  2 0.17481286E+03</rscale>
<asrwt>0</asrwt>
<pdfrwt beam="1">  1       21 0.69832393E-02 0.17481286E+03</pdfrwt>
<pdfrwt beam="2">  1       21 0.10427763E+00 0.17481286E+03</pdfrwt>
<totfact> 0.11364410E+05</totfact>
</mgrwt>
</event>
<event>
 4    1  0.4111182E+000  0.1739695E+03  0.7546771E-02  0.1173770E+00
         21   -1    0    0  501  502  0.00000000000E+00  0.00000000000E+00  0.22267955591E+03  0.22267955591E+03  0.00000000000E+00 0. -1.
         21   -1    0    0  502  503 -0.00000000000E+00 -0.00000000000E+00 -0.27381045685E+03  0.27381045685E+03  0.00000000000E+00 0. -1.
          6    1    1    2  501    0  0.76841595298E+01  0.16653712546E+02  0.15060423869E+03  0.23010221459E+03  0.17300000000E+03 0. -1.
         -6    1    1    2    0  503 -0.76841595298E+01 -0.16653712546E+02 -0.20173513964E+03  0.26638779817E+03  0.17300000000E+03 0. -1.
<mgrwt>
<rscale>  2 0.17396952E+03</rscale>
<asrwt>0</asrwt>
<pdfrwt beam="1">  1       21 0.34258393E-01 0.17396952E+03</pdfrwt>
<pdfrwt beam="2">  1       21 0.42124686E-01 0.17396952E+03</pdfrwt>
<totfact> 0.44940220E+04</totfact>
</mgrwt>
</event>
<event>
 4    1  0.4111182E+000  0.2366040E+03  0.7546771E-02  0.1122076E+00
         21   -1    0    0  501  502  0.00000000000E+00  0.00000000000E+00  0.72393659813E+02  0.72393659813E+02  0.00000000000E+00 0. -1.
         21   -1    0    0  502  503 -0.00000000000E+00 -0.00000000000E+00 -0.87523349277E+03  0.87523349277E+03  0.00000000000E+00 0. -1.
          6    1    1    2  501    0  0.52368981269E+02  0.15267597643E+03 -0.23971610160E+03  0.33681637927E+03  0.17300000000E+03 0. -1.
         -6    1    1    2    0  503 -0.52368981269E+02 -0.15267597643E+03 -0.56312373136E+03  0.61081077332E+03  0.17300000000E+03 0. -1.
<mgrwt>
<rscale>  2 0.23660402E+03</rscale>
<asrwt>0</asrwt>
<pdfrwt beam="1">  1       21 0.11137487E-01 0.23660402E+03</pdfrwt>
<pdfrwt beam="2">  1       21 0.13465130E+00 0.23660402E+03</pdfrwt>
<totfact> 0.25835437E+04</totfact>
</mgrwt>
</event>
<event>
 4    1  0.4111182E+000  0.2430285E+03  0.7546771E-02  0.1117792E+00
         21   -1    0    0  503  502  0.00000000000E+00  0.00000000000E+00  0.47564957987E+02  0.47564957987E+02  0.00000000000E+00 0.  1.
         21   -1    0    0  501  503 -0.00000000000E+00 -0.00000000000E+00 -0.12533925734E+04  0.12533925734E+04  0.00000000000E+00 0. -1.
          6    1    1    2  501    0 -0.27789714491E+02  0.16840894166E+03 -0.66565965212E+03  0.70863644581E+03  0.17300000000E+03 0. -1.
         -6    1    1    2    0  502  0.27789714491E+02 -0.16840894166E+03 -0.54016796332E+03  0.59232108561E+03  0.17300000000E+03 0.  1.
<mgrwt>
<rscale>  2 0.24302848E+03</rscale>
<asrwt>0</asrwt>
<pdfrwt beam="1">  1       21 0.73176866E-02 0.24302848E+03</pdfrwt>
<pdfrwt beam="2">  1       21 0.19282961E+00 0.24302848E+03</pdfrwt>
<totfact> 0.20226133E+04</totfact>
</mgrwt>
</event>
<event>
 4    1  0.4111182E+000  0.1875119E+03  0.7546771E-02  0.1160725E+00
         21   -1    0    0  501  502  0.00000000000E+00  0.00000000000E+00  0.25673098306E+03  0.25673098306E+03  0.00000000000E+00 0.  1.
         21   -1    0    0  502  503 -0.00000000000E+00 -0.00000000000E+00 -0.14251362159E+03  0.14251362159E+03  0.00000000000E+00 0. -1.
          6    1    1    2  501    0 -0.44134456110E+02 -0.57305133504E+02  0.96531131236E+02  0.21090042162E+03  0.17300000000E+03 0.  1.
         -6    1    1    2    0  503  0.44134456110E+02  0.57305133504E+02  0.17686230239E+02  0.18834418303E+03  0.17300000000E+03 0. -1.
<mgrwt>
<rscale>  2 0.18751194E+03</rscale>
<asrwt>0</asrwt>
<pdfrwt beam="1">  1       21 0.39497074E-01 0.18751194E+03</pdfrwt>
<pdfrwt beam="2">  1       21 0.21925173E-01 0.18751194E+03</pdfrwt>
<totfact> 0.12026701E+05</totfact>
</mgrwt>
</event>
<event>
 4    1  0.4111182E+000  0.1853367E+03  0.7546771E-02  0.1162736E+00
         21   -1    0    0  503  502  0.00000000000E+00  0.00000000000E+00  0.52139011376E+02  0.52139011376E+02  0.00000000000E+00 0.  1.
         21   -1    0    0  501  503 -0.00000000000E+00 -0.00000000000E+00 -0.74891559393E+03  0.74891559393E+03  0.00000000000E+00 0.  1.
          6    1    1    2  501    0  0.10701732366E+01  0.66479692966E+02 -0.48731696842E+03  0.52137081099E+03  0.17300000000E+03 0.  1.
         -6    1    1    2    0  502 -0.10701732366E+01 -0.66479692966E+02 -0.20945961414E+03  0.27968379432E+03  0.17300000000E+03 0.  1.
<mgrwt>
<rscale>  2 0.18533671E+03</rscale>
<asrwt>0</asrwt>
<pdfrwt beam="1">  1       21 0.80213867E-02 0.18533671E+03</pdfrwt>
<pdfrwt beam="2">  1       21 0.11521778E+00 0.18533671E+03</pdfrwt>
<totfact> 0.69943631E+04</totfact>
</mgrwt>
</event>
<event>
 4    1  0.4111182E+000  0.2320098E+03  0.7546771E-02  0.1125233E+00
         21   -1    0    0  501  502  0.00000000000E+00  0.00000000000E+00  0.22285029535E+03  0.22285029535E+03  0.00000000000E+00 0.  1.
         21   -1    0    0  502  503 -0.00000000000E+00 -0.00000000000E+00 -0.47853595708E+03  0.47853595708E+03  0.00000000000E+00 0. -1.
          6    1    1    2  501    0 -0.13028715978E+03  0.83215479965E+02  0.11895144936E+03  0.26072592394E+03  0.17300000000E+03 0.  1.
         -6    1    1    2    0  503  0.13028715978E+03 -0.83215479965E+02 -0.37463711109E+03  0.44066032850E+03  0.17300000000E+03 0. -1.
<mgrwt>
<rscale>  2 0.23200983E+03</rscale>
<asrwt>0</asrwt>
<pdfrwt beam="1">  1       21 0.34284661E-01 0.23200983E+03</pdfrwt>
<pdfrwt beam="2">  1       21 0.73620916E-01 0.23200983E+03</pdfrwt>
<totfact> 0.13257460E+04</totfact>
</mgrwt>
</event>
<event>
 4    1  0.4111182E+000  0.2511636E+03  0.7546771E-02  0.1112572E+00
         21   -1    0    0  503  502  0.00000000000E+00  0.00000000000E+00  0.68759086772E+03  0.68759086772E+03  0.00000000000E+00 0. -1.
         21   -1    0    0  501  503 -0.00000000000E+00 -0.00000000000E+00 -0.98437613947E+02  0.98437613947E+02  0.00000000000E+00 0. -1.
          6    1    1    2  501    0  0.10137499051E+03  0.15125225504E+03  0.19210102390E+03  0.31620552927E+03  0.17300000000E+03 0. -1.
         -6    1    1    2    0  502 -0.10137499051E+03 -0.15125225504E+03  0.39705222987E+03  0.46982295240E+03  0.17300000000E+03 0. -1.
<mgrwt>
<rscale>  2 0.25116356E+03</rscale>
<asrwt>0</asrwt>
<pdfrwt beam="1">  1       21 0.10578321E+00 0.25116356E+03</pdfrwt>
<pdfrwt beam="2">  1       21 0.15144249E-01 0.25116356E+03</pdfrwt>
<totfact> 0.26813076E+04</totfact>
</mgrwt>
</event>
<event>
 4    1  0.4111182E+000  0.2258917E+03  0.7546771E-02  0.1129565E+00
         21   -1    0    0  501  502  0.00000000000E+00  0.00000000000E+00  0.39416783082E+03  0.39416783082E+03  0.00000000000E+00 0. -1.
         21   -1    0    0  502  503 -0.00000000000E+00 -0.00000000000E+00 -0.13514770566E+03  0.13514770566E+03  0.00000000000E+00 0. -1.
          6    1    1    2  501    0 -0.73920505471E+01  0.14506352336E+03  0.18382668233E+03  0.29123756172E+03  0.17300000000E+03 0. -1.
         -6    1    1    2    0  503  0.73920505471E+01 -0.14506352336E+03  0.75193442829E+02  0.23807797476E+03  0.17300000000E+03 0. -1.
<mgrwt>
<rscale>  2 0.22589172E+03</rscale>
<asrwt>0</asrwt>
<pdfrwt beam="1">  1       21 0.60641204E-01 0.22589172E+03</pdfrwt>
<pdfrwt beam="2">  1       21 0.20791955E-01 0.22589172E+03</pdfrwt>
<totfact> 0.53532840E+04</totfact>
</mgrwt>
</event>
<event>
 4    1  0.4111182E+000  0.1774102E+03  0.7546771E-02  0.1170333E+00
         21   -1    0    0  501  502  0.00000000000E+00  0.00000000000E+00  0.14864332302E+03  0.14864332302E+03  0.00000000000E+00 0.  1.
         21   -1    0    0  502  503 -0.00000000000E+00 -0.00000000000E+00 -0.30475913042E+03  0.30475913042E+03  0.00000000000E+00 0.  1.
          6    1    1    2  501    0 -0.27619556323E+02 -0.27973849952E+02  0.47184562215E+02  0.18357766499E+03  0.17300000000E+03 0.  1.
         -6    1    1    2    0  503  0.27619556323E+02  0.27973849952E+02 -0.20330036962E+03  0.26982478844E+03  0.17300000000E+03 0.  1.
<mgrwt>
<rscale>  2 0.17741019E+03</rscale>
<asrwt>0</asrwt>
<pdfrwt beam="1">  1       21 0.22868204E-01 0.17741019E+03</pdfrwt>
<pdfrwt beam="2">  1       21 0.46886019E-01 0.17741019E+03</pdfrwt>
<totfact> 0.78621526E+04</totfact>
</mgrwt>
</event>
<event>
 4    1  0.4111182E+000  0.1981658E+03  0.7546771E-02  0.1151296E+00
         21   -1    0    0  501  502  0.00000000000E+00  0.00000000000E+00  0.36512027970E+02  0.36512027970E+02  0.00000000000E+00 0.  1.
         21   -1    0    0  502  503 -0.00000000000E+00 -0.00000000000E+00 -0.10781001695E+04  0.10781001695E+04  0.00000000000E+00 0.  1.
          6    1    1    2  501    0  0.43871667184E+02 -0.86115881091E+02 -0.54802152921E+03  0.58274974443E+03  0.17300000000E+03 0.  1.
         -6    1    1    2    0  503 -0.43871667184E+02  0.86115881091E+02 -0.49356661235E+03  0.53186245307E+03  0.17300000000E+03 0.  1.
<mgrwt>
<rscale>  2 0.19816576E+03</rscale>
<asrwt>0</asrwt>
<pdfrwt beam="1">  1       21 0.56172347E-02 0.19816576E+03</pdfrwt>
<pdfrwt beam="2">  1       21 0.16586158E+00 0.19816576E+03</pdfrwt>
<totfact> 0.50215039E+04</totfact>
</mgrwt>
</event>
<event>
 4    1  0.4111182E+000  0.1959120E+03  0.7546771E-02  0.1153235E+00
         21   -1    0    0  503  502  0.00000000000E+00  0.00000000000E+00  0.18532859478E+03  0.18532859478E+03  0.00000000000E+00 0. -1.
         21   -1    0    0  501  503 -0.00000000000E+00 -0.00000000000E+00 -0.30418263423E+03  0.30418263423E+03  0.00000000000E+00 0. -1.
          6    1    1    2  501    0 -0.26909946293E+02 -0.87911125205E+02 -0.19769980895E+03  0.27832844915E+03  0.17300000000E+03 0. -1.
         -6    1    1    2    0  502  0.26909946293E+02  0.87911125205E+02  0.78845769501E+02  0.21118277987E+03  0.17300000000E+03 0. -1.
<mgrwt>
<rscale>  2 0.19591200E+03</rscale>
<asrwt>0</asrwt>
<pdfrwt beam="1">  1       21 0.28512092E-01 0.19591200E+03</pdfrwt>
<pdfrwt beam="2">  1       21 0.46797328E-01 0.19591200E+03</pdfrwt>
<totfact> 0.51344249E+04</totfact>
</mgrwt>
</event>
<event>
 4    1  0.4111182E+000  0.2125280E+03  0.7546771E-02  0.1139580E+00
         21   -1    0    0  501  502  0.00000000000E+00  0.00000000000E+00  0.14800594295E+03  0.14800594295E+03  0.00000000000E+00 0. -1.
         21   -1    0    0  502  503 -0.00000000000E+00 -0.00000000000E+00 -0.35714544047E+03  0.35714544047E+03  0.00000000000E+00 0. -1.
          6    1    1    2  501    0 -0.12302356446E+03  0.10214647381E+02 -0.82234004310E+01  0.21268700183E+03  0.17300000000E+03 0. -1.
         -6    1    1    2    0  503  0.12302356446E+03 -0.10214647381E+02 -0.20091609708E+03  0.29246438159E+03  0.17300000000E+03 0. -1.
<mgrwt>
<rscale>  2 0.21252797E+03</rscale>
<asrwt>0</asrwt>
<pdfrwt beam="1">  1       21 0.22770145E-01 0.21252797E+03</pdfrwt>
<pdfrwt beam="2">  1       21 0.54945453E-01 0.21252797E+03</pdfrwt>
<totfact> 0.56016327E+04</totfact>
</mgrwt>
</event>
<event>
 4    1  0.4111182E+000  0.2209134E+03  0.7546771E-02  0.1133204E+00
         21   -1    0    0  501  502  0.00000000000E+00  0.00000000000E+00  0.83583607476E+02  0.83583607476E+02  0.00000000000E+00 0.  1.
         21   -1    0    0  502  503 -0.00000000000E+00 -0.00000000000E+00 -0.59096091320E+03  0.59096091320E+03  0.00000000000E+00 0.  1.
          6    1    1    2  501    0  0.10251476536E+03 -0.91457312523E+02 -0.21676751441E+03  0.30950100555E+03  0.17300000000E+03 0.  1.
         -6    1    1    2    0  503 -0.10251476536E+03  0.91457312523E+02 -0.29060979131E+03  0.36504351513E+03  0.17300000000E+03 0.  1.
<mgrwt>
<rscale>  2 0.22091337E+03</rscale>
<asrwt>0</asrwt>
<pdfrwt beam="1">  1       21 0.12859017E-01 0.22091337E+03</pdfrwt>
<pdfrwt beam="2">  1       21 0.90917062E-01 0.22091337E+03</pdfrwt>
<totfact> 0.52471018E+04</totfact>
</mgrwt>
</event>
<event>
 4    1  0.4111182E+000  0.2250170E+03  0.7546771E-02  0.1130197E+00
         21   -1    0    0  501  502  0.00000000000E+00  0.00000000000E+00  0.36902550710E+03  0.36902550710E+03  0.00000000000E+00 0. -1.
         21   -1    0    0  502  503 -0.00000000000E+00 -0.00000000000E+00 -0.19590227307E+03  0.19590227307E+03  0.00000000000E+00 0.  1.
          6    1    1    2  501    0 -0.78294181136E+02  0.12072148403E+03  0.24117498486E+03  0.32984546204E+03  0.17300000000E+03 0. -1.
         -6    1    1    2    0  503  0.78294181136E+02 -0.12072148403E+03 -0.68051750829E+02  0.23508231813E+03  0.17300000000E+03 0.  1.
<mgrwt>
<rscale>  2 0.22501701E+03</rscale>
<asrwt>0</asrwt>
<pdfrwt beam="1">  1       21 0.56773155E-01 0.22501701E+03</pdfrwt>
<pdfrwt beam="2">  1       21 0.30138811E-01 0.22501701E+03</pdfrwt>
<totfact> 0.30274420E+04</totfact>
</mgrwt>
</event>
<event>
 4    1  0.4111182E+000  0.2312909E+03  0.7546771E-02  0.1125734E+00
         21   -1    0    0  503  502  0.00000000000E+00  0.00000000000E+00  0.73980314363E+03  0.73980314363E+03  0.00000000000E+00 0.  1.
         21   -1    0    0  501  503 -0.00000000000E+00 -0.00000000000E+00 -0.89365445680E+02  0.89365445680E+02  0.00000000000E+00 0.  1.
          6    1    1    2  501    0 -0.15287907580E+03 -0.13945669096E+02  0.14410405699E+03  0.27250958285E+03  0.17300000000E+03 0.  1.
         -6    1    1    2    0  502  0.15287907580E+03  0.13945669096E+02  0.50633364096E+03  0.55665900646E+03  0.17300000000E+03 0.  1.
<mgrwt>
<rscale>  2 0.23129093E+03</rscale>
<asrwt>0</asrwt>
<pdfrwt beam="1">  1       21 0.11381586E+00 0.23129093E+03</pdfrwt>
<pdfrwt beam="2">  1       21 0.13748531E-01 0.23129093E+03</pdfrwt>
<totfact> 0.27026873E+04</totfact>
</mgrwt>
</event>
<event>
 4    1  0.4111182E+000  0.2816607E+03  0.7546771E-02  0.1094785E+00
         21   -1    0    0  501  502  0.00000000000E+00  0.00000000000E+00  0.39782711914E+03  0.39782711914E+03  0.00000000000E+00 0.  1.
         21   -1    0    0  502  503 -0.00000000000E+00 -0.00000000000E+00 -0.20158043354E+03  0.20158043354E+03  0.00000000000E+00 0. -1.
          6    1    1    2  501    0 -0.22225950039E+03  0.21135893014E+01  0.12918509029E+03  0.30987342630E+03  0.17300000000E+03 0.  1.
         -6    1    1    2    0  503  0.22225950039E+03 -0.21135893014E+01  0.67061595321E+02  0.28953412638E+03  0.17300000000E+03 0.  1.
<mgrwt>
<rscale>  2 0.28166071E+03</rscale>
<asrwt>0</asrwt>
<pdfrwt beam="1">  1       21 0.61204172E-01 0.28166071E+03</pdfrwt>
<pdfrwt beam="2">  1       21 0.31012374E-01 0.28166071E+03</pdfrwt>
<totfact> 0.23727946E+04</totfact>
</mgrwt>
</event>
<event>
 4    1  0.4111182E+000  0.2010886E+03  0.7546771E-02  0.1148824E+00
         21   -1    0    0  501  502  0.00000000000E+00  0.00000000000E+00  0.18788684151E+03  0.18788684151E+03  0.00000000000E+00 0.  1.
         21   -1    0    0  502  503 -0.00000000000E+00 -0.00000000000E+00 -0.29840725566E+03  0.29840725566E+03  0.00000000000E+00 0.  1.
          6    1    1    2  501    0  0.16975009917E+02 -0.10109144514E+03  0.73119954659E+02  0.21396999559E+03  0.17300000000E+03 0.  1.
         -6    1    1    2    0  503 -0.16975009917E+02  0.10109144514E+03 -0.18364036881E+03  0.27232410158E+03  0.17300000000E+03 0.  1.
<mgrwt>
<rscale>  2 0.20108862E+03</rscale>
<asrwt>0</asrwt>
<pdfrwt beam="1">  1       21 0.28905668E-01 0.20108862E+03</pdfrwt>
<pdfrwt beam="2">  1       21 0.45908808E-01 0.20108862E+03</pdfrwt>
<totfact> 0.51881542E+04</totfact>
</mgrwt>
</event>
<event>
 4    1  0.4111182E+000  0.1751949E+03  0.7546771E-02  0.1172536E+00
         21   -1    0    0  501  502  0.00000000000E+00  0.00000000000E+00  0.38963111732E+02  0.38963111732E+02  0.00000000000E+00 0. -1.
         21   -1    0    0  502  503 -0.00000000000E+00 -0.00000000000E+00 -0.12188498799E+04  0.12188498799E+04  0.00000000000E+00 0. -1.
          6    1    1    2  501    0  0.22755735965E+02  0.15697811765E+02 -0.21591959142E+03  0.27805487726E+03  0.17300000000E+03 0. -1.
         -6    1    1    2    0  503 -0.22755735965E+02 -0.15697811765E+02 -0.96396717677E+03  0.97975811438E+03  0.17300000000E+03 0. -1.
<mgrwt>
<rscale>  2 0.17519488E+03</rscale>
<asrwt>0</asrwt>
<pdfrwt beam="1">  1       21 0.59943255E-02 0.17519488E+03</pdfrwt>
<pdfrwt beam="2">  1       21 0.18751535E+00 0.17519488E+03</pdfrwt>
<totfact> 0.32380652E+04</totfact>
</mgrwt>
</event>
<event>
 4    1  0.4111182E+000  0.1883901E+03  0.7546771E-02  0.1159921E+00
         21   -1    0    0  503  502  0.00000000000E+00  0.00000000000E+00  0.32907754599E+03  0.32907754599E+03  0.00000000000E+00 0. -1.
         21   -1    0    0  501  503 -0.00000000000E+00 -0.00000000000E+00 -0.11333962304E+03  0.11333962304E+03  0.00000000000E+00 0.  1.
          6    1    1    2  501    0 -0.66674826942E+02  0.33411221066E+02  0.59183093008E+02  0.19746767011E+03  0.17300000000E+03 0.  1.
         -6    1    1    2    0  502  0.66674826942E+02 -0.33411221066E+02  0.15655482994E+03  0.24494949892E+03  0.17300000000E+03 0. -1.
<mgrwt>
<rscale>  2 0.18839013E+03</rscale>
<asrwt>0</asrwt>
<pdfrwt beam="1">  1       21 0.50627314E-01 0.18839013E+03</pdfrwt>
<pdfrwt beam="2">  1       21 0.17436865E-01 0.18839013E+03</pdfrwt>
<totfact> 0.11070564E+05</totfact>
</mgrwt>
</event>
<event>
 4    1  0.4111182E+000  0.2004444E+03  0.7546771E-02  0.1149365E+00
         21   -1    0    0  503  502  0.00000000000E+00  0.00000000000E+00  0.10189194697E+04  0.10189194697E+04  0.00000000000E+00 0.  1.
         21   -1    0    0  501  503 -0.00000000000E+00 -0.00000000000E+00 -0.41139815838E+02  0.41139815838E+02  0.00000000000E+00 0. -1.
          6    1    1    2  501    0  0.72965654837E+02  0.70178264617E+02  0.38089657770E+03  0.43041860846E+03  0.17300000000E+03 0. -1.
         -6    1    1    2    0  502 -0.72965654837E+02 -0.70178264617E+02  0.59688307612E+03  0.62964067703E+03  0.17300000000E+03 0.  1.
<mgrwt>
<rscale>  2 0.20044445E+03</rscale>
<asrwt>0</asrwt>
<pdfrwt beam="1">  1       21 0.15675682E+00 0.20044445E+03</pdfrwt>
<pdfrwt beam="2">  1       21 0.63292032E-02 0.20044445E+03</pdfrwt>
<totfact> 0.47631086E+04</totfact>
</mgrwt>
</event>
<event>
 4    1  0.4111182E+000  0.1750469E+03  0.7546771E-02  0.1172685E+00
         21   -1    0    0  503  502  0.00000000000E+00  0.00000000000E+00  0.58070117105E+02  0.58070117105E+02  0.00000000000E+00 0. -1.
         21   -1    0    0  501  503 -0.00000000000E+00 -0.00000000000E+00 -0.59033420100E+03  0.59033420100E+03  0.00000000000E+00 0. -1.
          6    1    1    2  501    0  0.67134575772E+01  0.25833362194E+02 -0.37176564123E+03  0.41091498527E+03  0.17300000000E+03 0. -1.
         -6    1    1    2    0  502 -0.67134575772E+01 -0.25833362194E+02 -0.16049844266E+03  0.23748933284E+03  0.17300000000E+03 0. -1.
<mgrwt>
<rscale>  2 0.17504695E+03</rscale>
<asrwt>0</asrwt>
<pdfrwt beam="1">  1       21 0.89338635E-02 0.17504695E+03</pdfrwt>
<pdfrwt beam="2">  1       21 0.90820654E-01 0.17504695E+03</pdfrwt>
<totfact> 0.10252214E+05</totfact>
</mgrwt>
</event>
<event>
 4    1  0.4111182E+000  0.2048335E+03  0.7546771E-02  0.1145724E+00
         21   -1    0    0  501  502  0.00000000000E+00  0.00000000000E+00  0.79296649784E+02  0.79296649784E+02  0.00000000000E+00 0. -1.
         21   -1    0    0  502  503 -0.00000000000E+00 -0.00000000000E+00 -0.23853127566E+04  0.23853127566E+04  0.00000000000E+00 0.  1.
          6    1    1    2  501    0 -0.10875305159E+03 -0.14161515842E+02 -0.65936919229E+02  0.21518469295E+03  0.17300000000E+03 0. -1.
         -6    1    1    2    0  503  0.10875305159E+03  0.14161515842E+02 -0.22400791876E+04  0.22494247135E+04  0.17300000000E+03 0.  1.
<mgrwt>
<rscale>  2 0.20483353E+03</rscale>
<asrwt>0</asrwt>
<pdfrwt beam="1">  1       21 0.12199484E-01 0.20483353E+03</pdfrwt>
<pdfrwt beam="2">  1       21 0.36697121E+00 0.20483353E+03</pdfrwt>
<totfact> 0.77562120E+02</totfact>
</mgrwt>
</event>
<event>
 4    1  0.4111182E+000  0.4654674E+03  0.7546771E-02  0.1023207E+00
         21   -1    0    0  503  502  0.00000000000E+00  0.00000000000E+00  0.84639259310E+03  0.84639259310E+03  0.00000000000E+00 0. -1.
         21   -1    0    0  501  503 -0.00000000000E+00 -0.00000000000E+00 -0.51997781817E+03  0.51997781817E+03  0.00000000000E+00 0.  1.
          6    1    1    2  501    0  0.43034765145E+03 -0.39138061051E+02 -0.32358738871E+03  0.56689389400E+03  0.17300000000E+03 0.  1.
         -6    1    1    2    0  502 -0.43034765145E+03  0.39138061051E+02  0.65000216364E+03  0.79947651727E+03  0.17300000000E+03 0. -1.
<mgrwt>
<rscale>  2 0.46546739E+03</rscale>
<asrwt>0</asrwt>
<pdfrwt beam="1">  1       21 0.13021425E+00 0.46546739E+03</pdfrwt>
<pdfrwt beam="2">  1       21 0.79996587E-01 0.46546739E+03</pdfrwt>
<totfact> 0.49107549E+02</totfact>
</mgrwt>
</event>
<event>
 4    1  0.4111182E+000  0.1913187E+03  0.7546771E-02  0.1157277E+00
         21   -1    0    0  501  502  0.00000000000E+00  0.00000000000E+00  0.19172847069E+03  0.19172847069E+03  0.00000000000E+00 0. -1.
         21   -1    0    0  502  503 -0.00000000000E+00 -0.00000000000E+00 -0.20815371578E+03  0.20815371578E+03  0.00000000000E+00 0. -1.
          6    1    1    2  501    0 -0.78944030930E+02 -0.21016524641E+02  0.49334981435E+02  0.19757731327E+03  0.17300000000E+03 0. -1.
         -6    1    1    2    0  503  0.78944030930E+02  0.21016524641E+02 -0.65760226522E+02  0.20230487320E+03  0.17300000000E+03 0. -1.
<mgrwt>
<rscale>  2 0.19131872E+03</rscale>
<asrwt>0</asrwt>
<pdfrwt beam="1">  1       21 0.29496688E-01 0.19131872E+03</pdfrwt>
<pdfrwt beam="2">  1       21 0.32023649E-01 0.19131872E+03</pdfrwt>
<totfact> 0.10334378E+05</totfact>
</mgrwt>
</event>
<event>
 4    1  0.4111182E+000  0.1962237E+03  0.7546771E-02  0.1152965E+00
         21   -1    0    0  501  502  0.00000000000E+00  0.00000000000E+00  0.26325396130E+03  0.26325396130E+03  0.00000000000E+00 0. -1.
         21   -1    0    0  502  503 -0.00000000000E+00 -0.00000000000E+00 -0.31799076396E+03  0.31799076396E+03  0.00000000000E+00 0. -1.
          6    1    1    2  501    0  0.83567275628E+02 -0.39890339141E+02  0.18620385975E+03  0.27050990019E+03  0.17300000000E+03 0. -1.
         -6    1    1    2    0  503 -0.83567275628E+02  0.39890339141E+02 -0.24094066241E+03  0.31073482507E+03  0.17300000000E+03 0. -1.
<mgrwt>
<rscale>  2 0.19622367E+03</rscale>
<asrwt>0</asrwt>
<pdfrwt beam="1">  1       21 0.40500609E-01 0.19622367E+03</pdfrwt>
<pdfrwt beam="2">  1       21 0.48921656E-01 0.19622367E+03</pdfrwt>
<totfact> 0.23373270E+04</totfact>
</mgrwt>
</event>
<event>
 4    1  0.4111182E+000  0.1936255E+03  0.7546771E-02  0.1155231E+00
         21   -1    0    0  501  502  0.00000000000E+00  0.00000000000E+00  0.11507102289E+03  0.11507102289E+03  0.00000000000E+00 0.  1.
         21   -1    0    0  502  503 -0.00000000000E+00 -0.00000000000E+00 -0.33443701051E+03  0.33443701051E+03  0.00000000000E+00 0.  1.
          6    1    1    2  501    0 -0.76744720869E+02 -0.40891042641E+02 -0.73576846682E+02  0.20713372955E+03  0.17300000000E+03 0.  1.
         -6    1    1    2    0  503  0.76744720869E+02  0.40891042641E+02 -0.14578914094E+03  0.24237430385E+03  0.17300000000E+03 0.  1.
<mgrwt>
<rscale>  2 0.19362549E+03</rscale>
<asrwt>0</asrwt>
<pdfrwt beam="1">  1       21 0.17703235E-01 0.19362549E+03</pdfrwt>
<pdfrwt beam="2">  1       21 0.51451847E-01 0.19362549E+03</pdfrwt>
<totfact> 0.10387926E+05</totfact>
</mgrwt>
</event>
<event>
 4    1  0.4111182E+000  0.1820393E+03  0.7546771E-02  0.1165844E+00
         21   -1    0    0  501  502  0.00000000000E+00  0.00000000000E+00  0.30299398816E+03  0.30299398816E+03  0.00000000000E+00 0.  1.
         21   -1    0    0  502  503 -0.00000000000E+00 -0.00000000000E+00 -0.12798936364E+03  0.12798936364E+03  0.00000000000E+00 0.  1.
          6    1    1    2  501    0  0.38744684363E+02 -0.41329955896E+02  0.16969463166E+03  0.24886659847E+03  0.17300000000E+03 0.  1.
         -6    1    1    2    0  503 -0.38744684363E+02  0.41329955896E+02  0.53099928562E+01  0.18211675333E+03  0.17300000000E+03 0.  1.
<mgrwt>
<rscale>  2 0.18203932E+03</rscale>
<asrwt>0</asrwt>
<pdfrwt beam="1">  1       21 0.46614459E-01 0.18203932E+03</pdfrwt>
<pdfrwt beam="2">  1       21 0.19690671E-01 0.18203932E+03</pdfrwt>
<totfact> 0.10514147E+05</totfact>
</mgrwt>
</event>
<event>
 4    1  0.4111182E+000  0.2017438E+03  0.7546771E-02  0.1148276E+00
         21   -1    0    0  503  502  0.00000000000E+00  0.00000000000E+00  0.68700293443E+03  0.68700293443E+03  0.00000000000E+00 0.  1.
         21   -1    0    0  501  503 -0.00000000000E+00 -0.00000000000E+00 -0.13437153791E+03  0.13437153791E+03  0.00000000000E+00 0.  1.
          6    1    1    2  501    0  0.19179520882E+01  0.10376848597E+03 -0.30768935212E+02  0.20407671252E+03  0.17300000000E+03 0.  1.
         -6    1    1    2    0  502 -0.19179520882E+01 -0.10376848597E+03  0.58340033173E+03  0.61729775982E+03  0.17300000000E+03 0.  1.
<mgrwt>
<rscale>  2 0.20174384E+03</rscale>
<asrwt>0</asrwt>
<pdfrwt beam="1">  1       21 0.10569276E+00 0.20174384E+03</pdfrwt>
<pdfrwt beam="2">  1       21 0.20672545E-01 0.20174384E+03</pdfrwt>
<totfact> 0.15511443E+04</totfact>
</mgrwt>
</event>
<event>
 4    1  0.4111182E+000  0.1859147E+03  0.7546771E-02  0.1162198E+00
         21   -1    0    0  501  502  0.00000000000E+00  0.00000000000E+00  0.41380701688E+03  0.41380701688E+03  0.00000000000E+00 0.  1.
         21   -1    0    0  502  503 -0.00000000000E+00 -0.00000000000E+00 -0.86426363734E+02  0.86426363734E+02  0.00000000000E+00 0.  1.
          6    1    1    2  501    0 -0.31008875051E+02  0.60611183068E+02  0.20949749106E+03  0.28009545624E+03  0.17300000000E+03 0.  1.
         -6    1    1    2    0  503  0.31008875051E+02 -0.60611183068E+02  0.11788316209E+03  0.22013792438E+03  0.17300000000E+03 0.  1.
<mgrwt>
<rscale>  2 0.18591467E+03</rscale>
<asrwt>0</asrwt>
<pdfrwt beam="1">  1       21 0.63662617E-01 0.18591467E+03</pdfrwt>
<pdfrwt beam="2">  1       21 0.13296364E-01 0.18591467E+03</pdfrwt>
<totfact> 0.11156714E+05</totfact>
</mgrwt>
</event>
<event>
 4    1  0.4111182E+000  0.2171612E+03  0.7546771E-02  0.1136017E+00
         21   -1    0    0  503  502  0.00000000000E+00  0.00000000000E+00  0.22309344304E+03  0.22309344304E+03  0.00000000000E+00 0. -1.
         21   -1    0    0  501  503 -0.00000000000E+00 -0.00000000000E+00 -0.63788062044E+03  0.63788062044E+03  0.00000000000E+00 0.  1.
          6    1    1    2  501    0  0.10934086396E+03  0.72626226317E+02 -0.55939692233E+03  0.60006992092E+03  0.17300000000E+03 0.  1.
         -6    1    1    2    0  502 -0.10934086396E+03 -0.72626226317E+02  0.14460974493E+03  0.26090414256E+03  0.17300000000E+03 0. -1.
<mgrwt>
<rscale>  2 0.21716121E+03</rscale>
<asrwt>0</asrwt>
<pdfrwt beam="1">  1       21 0.34322069E-01 0.21716121E+03</pdfrwt>
<pdfrwt beam="2">  1       21 0.98135479E-01 0.21716121E+03</pdfrwt>
<totfact> 0.68970390E+03</totfact>
</mgrwt>
</event>
<event>
 4    1  0.4111182E+000  0.1912753E+03  0.7546771E-02  0.1157316E+00
         21   -1    0    0  503  502  0.00000000000E+00  0.00000000000E+00  0.89247079037E+02  0.89247079037E+02  0.00000000000E+00 0.  1.
         21   -1    0    0  501  503 -0.00000000000E+00 -0.00000000000E+00 -0.41743725029E+03  0.41743725029E+03  0.00000000000E+00 0.  1.
          6    1    1    2  501    0  0.46309181140E+02  0.67176497102E+02 -0.19803992816E+03  0.27532895810E+03  0.17300000000E+03 0.  1.
         -6    1    1    2    0  502 -0.46309181140E+02 -0.67176497102E+02 -0.13015024309E+03  0.23135537123E+03  0.17300000000E+03 0.  1.
<mgrwt>
<rscale>  2 0.19127525E+03</rscale>
<asrwt>0</asrwt>
<pdfrwt beam="1">  1       21 0.13730320E-01 0.19127525E+03</pdfrwt>
<pdfrwt beam="2">  1       21 0.64221115E-01 0.19127525E+03</pdfrwt>
<totfact> 0.10310495E+05</totfact>
</mgrwt>
</event>
<event>
 4    1  0.4111182E+000  0.2558338E+03  0.7546771E-02  0.1109673E+00
         21   -1    0    0  503  502  0.00000000000E+00  0.00000000000E+00  0.32853980676E+02  0.32853980676E+02  0.00000000000E+00 0.  1.
         21   -1    0    0  501  503 -0.00000000000E+00 -0.00000000000E+00 -0.21427919655E+04  0.21427919655E+04  0.00000000000E+00 0.  1.
          6    1    1    2  501    0 -0.12735422935E+03  0.13893458851E+03 -0.13433743899E+04  0.13675180697E+04  0.17300000000E+03 0.  1.
         -6    1    1    2    0  502  0.12735422935E+03 -0.13893458851E+03 -0.76656359497E+03  0.80812787649E+03  0.17300000000E+03 0.  1.
<mgrwt>
<rscale>  2 0.25583377E+03</rscale>
<asrwt>0</asrwt>
<pdfrwt beam="1">  1       21 0.50544579E-02 0.25583377E+03</pdfrwt>
<pdfrwt beam="2">  1       21 0.32966035E+00 0.25583377E+03</pdfrwt>
<totfact> 0.56843669E+03</totfact>
</mgrwt>
</event>
<event>
 4    1  0.4111182E+000  0.1951016E+03  0.7546771E-02  0.1153939E+00
         21   -1    0    0  501  502  0.00000000000E+00  0.00000000000E+00  0.19309235564E+03  0.19309235564E+03  0.00000000000E+00 0.  1.
         21   -1    0    0  502  503 -0.00000000000E+00 -0.00000000000E+00 -0.20878767779E+03  0.20878767779E+03  0.00000000000E+00 0.  1.
          6    1    1    2  501    0  0.71255851650E+00 -0.90194874570E+02  0.39629907766E+02  0.19908579238E+03  0.17300000000E+03 0.  1.
         -6    1    1    2    0  503 -0.71255851650E+00  0.90194874570E+02 -0.55325229913E+02  0.20279424105E+03  0.17300000000E+03 0.  1.
<mgrwt>
<rscale>  2 0.19510157E+03</rscale>
<asrwt>0</asrwt>
<pdfrwt beam="1">  1       21 0.29706516E-01 0.19510157E+03</pdfrwt>
<pdfrwt beam="2">  1       21 0.32121181E-01 0.19510157E+03</pdfrwt>
<totfact> 0.10117215E+05</totfact>
</mgrwt>
</event>
<event>
 4    1  0.4111182E+000  0.1815075E+03  0.7546771E-02  0.1166352E+00
         21   -1    0    0  501  502  0.00000000000E+00  0.00000000000E+00  0.83223451711E+02  0.83223451711E+02  0.00000000000E+00 0. -1.
         21   -1    0    0  502  503 -0.00000000000E+00 -0.00000000000E+00 -0.39912428533E+03  0.39912428533E+03  0.00000000000E+00 0. -1.
          6    1    1    2  501    0  0.53385591355E+02 -0.12881600101E+02 -0.17975627468E+03  0.25545503571E+03  0.17300000000E+03 0. -1.
         -6    1    1    2    0  503 -0.53385591355E+02  0.12881600101E+02 -0.13614455894E+03  0.22689270132E+03  0.17300000000E+03 0. -1.
<mgrwt>
<rscale>  2 0.18150746E+03</rscale>
<asrwt>0</asrwt>
<pdfrwt beam="1">  1       21 0.12803608E-01 0.18150746E+03</pdfrwt>
<pdfrwt beam="2">  1       21 0.61403735E-01 0.18150746E+03</pdfrwt>
<totfact> 0.12930223E+05</totfact>
</mgrwt>
</event>
<event>
 4    1  0.4111182E+000  0.2010562E+03  0.7546771E-02  0.1148851E+00
         21   -1    0    0  503  502  0.00000000000E+00  0.00000000000E+00  0.32675756768E+03  0.32675756768E+03  0.00000000000E+00 0. -1.
         21   -1    0    0  501  503 -0.00000000000E+00 -0.00000000000E+00 -0.15004324505E+03  0.15004324505E+03  0.00000000000E+00 0. -1.
          6    1    1    2  501    0 -0.10216327313E+03 -0.75660296452E+01 -0.11514172620E+02  0.20138558874E+03  0.17300000000E+03 0. -1.
         -6    1    1    2    0  502  0.10216327313E+03  0.75660296452E+01  0.18822849525E+03  0.27541522399E+03  0.17300000000E+03 0. -1.
<mgrwt>
<rscale>  2 0.20105616E+03</rscale>
<asrwt>0</asrwt>
<pdfrwt beam="1">  1       21 0.50270395E-01 0.20105616E+03</pdfrwt>
<pdfrwt beam="2">  1       21 0.23083576E-01 0.20105616E+03</pdfrwt>
<totfact> 0.66161195E+04</totfact>
</mgrwt>
</event>
<event>
 4    1  0.4111182E+000  0.1845448E+03  0.7546771E-02  0.1163476E+00
         21   -1    0    0  503  502  0.00000000000E+00  0.00000000000E+00  0.14436770913E+03  0.14436770913E+03  0.00000000000E+00 0.  1.
         21   -1    0    0  501  503 -0.00000000000E+00 -0.00000000000E+00 -0.37352087726E+03  0.37352087726E+03  0.00000000000E+00 0.  1.
          6    1    1    2  501    0  0.19810844373E+02  0.61117097128E+02 -0.27175264584E+03  0.32849089734E+03  0.17300000000E+03 0.  1.
         -6    1    1    2    0  502 -0.19810844373E+02 -0.61117097128E+02  0.42599477706E+02  0.18939768905E+03  0.17300000000E+03 0.  1.
<mgrwt>
<rscale>  2 0.18454476E+03</rscale>
<asrwt>0</asrwt>
<pdfrwt beam="1">  1       21 0.22210417E-01 0.18454476E+03</pdfrwt>
<pdfrwt beam="2">  1       21 0.57464751E-01 0.18454476E+03</pdfrwt>
<totfact> 0.54084283E+04</totfact>
</mgrwt>
</event>
<event>
 4    1  0.4111182E+000  0.1942370E+03  0.7546771E-02  0.1154694E+00
         21   -1    0    0  501  502  0.00000000000E+00  0.00000000000E+00  0.32876121824E+03  0.32876121824E+03  0.00000000000E+00 0.  1.
         21   -1    0    0  502  503 -0.00000000000E+00 -0.00000000000E+00 -0.16414952032E+03  0.16414952032E+03  0.00000000000E+00 0.  1.
          6    1    1    2  501    0 -0.37599473024E+02 -0.79908012031E+02  0.21749575290E+03  0.29160317778E+03  0.17300000000E+03 0.  1.
         -6    1    1    2    0  503  0.37599473024E+02  0.79908012031E+02 -0.52884054978E+02  0.20130756079E+03  0.17300000000E+03 0.  1.
<mgrwt>
<rscale>  2 0.19423700E+03</rscale>
<asrwt>0</asrwt>
<pdfrwt beam="1">  1       21 0.50578649E-01 0.19423700E+03</pdfrwt>
<pdfrwt beam="2">  1       21 0.25253772E-01 0.19423700E+03</pdfrwt>
<totfact> 0.55231047E+04</totfact>
</mgrwt>
</event>
<event>
 4    1  0.4111182E+000  0.2200422E+03  0.7546771E-02  0.1133852E+00
         21   -1    0    0  501  502  0.00000000000E+00  0.00000000000E+00  0.12195712255E+04  0.12195712255E+04  0.00000000000E+00 0.  1.
         21   -1    0    0  502  503 -0.00000000000E+00 -0.00000000000E+00 -0.58279537546E+02  0.58279537546E+02  0.00000000000E+00 0.  1.
          6    1    1    2  501    0 -0.11637137612E+03 -0.70336741239E+02  0.94138595296E+03  0.96676060469E+03  0.17300000000E+03 0.  1.
         -6    1    1    2    0  503  0.11637137612E+03  0.70336741239E+02  0.21990573503E+03  0.31109015839E+03  0.17300000000E+03 0.  1.
<mgrwt>
<rscale>  2 0.22004216E+03</rscale>
<asrwt>0</asrwt>
<pdfrwt beam="1">  1       21 0.18762632E+00 0.22004216E+03</pdfrwt>
<pdfrwt beam="2">  1       21 0.89660837E-02 0.22004216E+03</pdfrwt>
<totfact> 0.15582792E+04</totfact>
</mgrwt>
</event>
<event>
 4    1  0.4111182E+000  0.2244512E+03  0.7546771E-02  0.1130607E+00
         21   -1    0    0  503  502  0.00000000000E+00  0.00000000000E+00  0.68848531658E+03  0.68848531658E+03  0.00000000000E+00 0. -1.
         21   -1    0    0  501  503 -0.00000000000E+00 -0.00000000000E+00 -0.87691472793E+02  0.87691472793E+02  0.00000000000E+00 0.  1.
          6    1    1    2  501    0  0.12703295103E+03 -0.65665527346E+02  0.14248429006E+03  0.26585730203E+03  0.17300000000E+03 0.  1.
         -6    1    1    2    0  502 -0.12703295103E+03  0.65665527346E+02  0.45830955373E+03  0.51031948735E+03  0.17300000000E+03 0.  1.
<mgrwt>
<rscale>  2 0.22445118E+03</rscale>
<asrwt>0</asrwt>
<pdfrwt beam="1">  1       21 0.10592081E+00 0.22445118E+03</pdfrwt>
<pdfrwt beam="2">  1       21 0.13490996E-01 0.22445118E+03</pdfrwt>
<totfact> 0.33432019E+04</totfact>
</mgrwt>
</event>
<event>
 4    1  0.4111182E+000  0.2122176E+03  0.7546771E-02  0.1139822E+00
         21   -1    0    0  503  502  0.00000000000E+00  0.00000000000E+00  0.15662179692E+03  0.15662179692E+03  0.00000000000E+00 0. -1.
         21   -1    0    0  501  503 -0.00000000000E+00 -0.00000000000E+00 -0.48551450025E+03  0.48551450025E+03  0.00000000000E+00 0. -1.
          6    1    1    2  501    0  0.75051726378E+02  0.97337297979E+02 -0.36946425446E+03  0.42607528271E+03  0.17300000000E+03 0. -1.
         -6    1    1    2    0  502 -0.75051726378E+02 -0.97337297979E+02  0.40571551131E+02  0.21606101446E+03  0.17300000000E+03 0. -1.
<mgrwt>
<rscale>  2 0.21221760E+03</rscale>
<asrwt>0</asrwt>
<pdfrwt beam="1">  1       21 0.24095661E-01 0.21221760E+03</pdfrwt>
<pdfrwt beam="2">  1       21 0.74694537E-01 0.21221760E+03</pdfrwt>
<totfact> 0.25782118E+04</totfact>
</mgrwt>
</event>
<event>
 4    1  0.4111182E+000  0.2193087E+03  0.7546771E-02  0.1134399E+00
         21   -1    0    0  503  502  0.00000000000E+00  0.00000000000E+00  0.19350600066E+02  0.19350600066E+02  0.00000000000E+00 0.  1.
         21   -1    0    0  501  503 -0.00000000000E+00 -0.00000000000E+00 -0.27250421695E+04  0.27250421695E+04  0.00000000000E+00 0.  1.
          6    1    1    2  501    0  0.12321902046E+03 -0.54629456805E+02 -0.17596659435E+04  0.17732795993E+04  0.17300000000E+03 0.  1.
         -6    1    1    2    0  502 -0.12321902046E+03  0.54629456805E+02 -0.94602562589E+03  0.97111317023E+03  0.17300000000E+03 0.  1.
<mgrwt>
<rscale>  2 0.21930870E+03</rscale>
<asrwt>0</asrwt>
<pdfrwt beam="1">  1       21 0.29770155E-02 0.21930870E+03</pdfrwt>
<pdfrwt beam="2">  1       21 0.41923724E+00 0.21930870E+03</pdfrwt>
<totfact> 0.40782695E+03</totfact>
</mgrwt>
</event>
<event>
 4    1  0.4111182E+000  0.1843150E+03  0.7546771E-02  0.1163691E+00
         21   -1    0    0  501  502  0.00000000000E+00  0.00000000000E+00  0.75669501672E+02  0.75669501672E+02  0.00000000000E+00 0.  1.
         21   -1    0    0  502  503 -0.00000000000E+00 -0.00000000000E+00 -0.50615774259E+03  0.50615774259E+03  0.00000000000E+00 0.  1.
          6    1    1    2  501    0 -0.29416182787E+01 -0.63516665793E+02 -0.11744417112E+03  0.21855240397E+03  0.17300000000E+03 0.  1.
         -6    1    1    2    0  503  0.29416182787E+01  0.63516665793E+02 -0.31304406980E+03  0.36327484029E+03  0.17300000000E+03 0.  1.
<mgrwt>
<rscale>  2 0.18431500E+03</rscale>
<asrwt>0</asrwt>
<pdfrwt beam="1">  1       21 0.11641462E-01 0.18431500E+03</pdfrwt>
<pdfrwt beam="2">  1       21 0.77870421E-01 0.18431500E+03</pdfrwt>
<totfact> 0.90852464E+04</totfact>
</mgrwt>
</event>
<event>
 4    1  0.4111182E+000  0.2422620E+03  0.7546771E-02  0.1118295E+00
         21   -1    0    0  501  502  0.00000000000E+00  0.00000000000E+00  0.13611505822E+03  0.13611505822E+03  0.00000000000E+00 0. -1.
         21   -1    0    0  502  503 -0.00000000000E+00 -0.00000000000E+00 -0.10804685399E+04  0.10804685399E+04  0.00000000000E+00 0.  1.
          6    1    1    2  501    0  0.14712124861E+02 -0.16895395011E+03 -0.63209443270E+00  0.24226283954E+03  0.17300000000E+03 0. -1.
         -6    1    1    2    0  503 -0.14712124861E+02  0.16895395011E+03 -0.94372138724E+03  0.97432075859E+03  0.17300000000E+03 0.  1.
<mgrwt>
<rscale>  2 0.24226201E+03</rscale>
<asrwt>0</asrwt>
<pdfrwt beam="1">  1       21 0.20940778E-01 0.24226201E+03</pdfrwt>
<pdfrwt beam="2">  1       21 0.16622593E+00 0.24226201E+03</pdfrwt>
<totfact> 0.46191181E+03</totfact>
</mgrwt>
</event>
<event>
 4    1  0.4111182E+000  0.1861353E+03  0.7546771E-02  0.1161994E+00
         21   -1    0    0  503  502  0.00000000000E+00  0.00000000000E+00  0.64021923478E+03  0.64021923478E+03  0.00000000000E+00 0. -1.
         21   -1    0    0  501  503 -0.00000000000E+00 -0.00000000000E+00 -0.12263172771E+03  0.12263172771E+03  0.00000000000E+00 0. -1.
          6    1    1    2  501    0 -0.62305407360E+02  0.28902762787E+02 -0.26309570830E+02  0.18798544359E+03  0.17300000000E+03 0. -1.
         -6    1    1    2    0  502  0.62305407360E+02 -0.28902762787E+02  0.54389707790E+03  0.57486551891E+03  0.17300000000E+03 0. -1.
<mgrwt>
<rscale>  2 0.18613526E+03</rscale>
<asrwt>0</asrwt>
<pdfrwt beam="1">  1       21 0.98495265E-01 0.18613526E+03</pdfrwt>
<pdfrwt beam="2">  1       21 0.18866420E-01 0.18613526E+03</pdfrwt>
<totfact> 0.21983241E+04</totfact>
</mgrwt>
</event>
<event>
 4    1  0.4111182E+000  0.1883390E+03  0.7546771E-02  0.1159968E+00
         21   -1    0    0  503  502  0.00000000000E+00  0.00000000000E+00  0.15264706522E+03  0.15264706522E+03  0.00000000000E+00 0.  1.
         21   -1    0    0  501  503 -0.00000000000E+00 -0.00000000000E+00 -0.44876868229E+03  0.44876868229E+03  0.00000000000E+00 0. -1.
          6    1    1    2  501    0  0.27160417811E+02  0.69317259855E+02 -0.35687232311E+03  0.40352128297E+03  0.17300000000E+03 0. -1.
         -6    1    1    2    0  502 -0.27160417811E+02 -0.69317259855E+02  0.60750706047E+02  0.19789446454E+03  0.17300000000E+03 0.  1.
<mgrwt>
<rscale>  2 0.18833898E+03</rscale>
<asrwt>0</asrwt>
<pdfrwt beam="1">  1       21 0.23484164E-01 0.18833898E+03</pdfrwt>
<pdfrwt beam="2">  1       21 0.69041336E-01 0.18833898E+03</pdfrwt>
<totfact> 0.32663032E+04</totfact>
</mgrwt>
</event>
<event>
 4    1  0.4111182E+000  0.2109571E+03  0.7546771E-02  0.1140810E+00
         21   -1    0    0  501  502  0.00000000000E+00  0.00000000000E+00  0.42723593447E+03  0.42723593447E+03  0.00000000000E+00 0. -1.
         21   -1    0    0  502  503 -0.00000000000E+00 -0.00000000000E+00 -0.21313283661E+03  0.21313283661E+03  0.00000000000E+00 0.  1.
          6    1    1    2  501    0  0.43000169379E+02 -0.11280465437E+03  0.33599315265E+03  0.39672950891E+03  0.17300000000E+03 0. -1.
         -6    1    1    2    0  503 -0.43000169379E+02  0.11280465437E+03 -0.12189005479E+03  0.24363926217E+03  0.17300000000E+03 0.  1.
<mgrwt>
<rscale>  2 0.21095712E+03</rscale>
<asrwt>0</asrwt>
<pdfrwt beam="1">  1       21 0.65728605E-01 0.21095712E+03</pdfrwt>
<pdfrwt beam="2">  1       21 0.32789667E-01 0.21095712E+03</pdfrwt>
<totfact> 0.18834976E+04</totfact>
</mgrwt>
</event>
<event>
 4    1  0.4111182E+000  0.1834223E+03  0.7546771E-02  0.1164531E+00
         21   -1    0    0  501  502  0.00000000000E+00  0.00000000000E+00  0.39994324337E+02  0.39994324337E+02  0.00000000000E+00 0. -1.
         21   -1    0    0  502  503 -0.00000000000E+00 -0.00000000000E+00 -0.85444476371E+03  0.85444476371E+03  0.00000000000E+00 0. -1.
          6    1    1    2  501    0  0.38968599046E+02  0.46863571787E+02 -0.35157236636E+03  0.39654366072E+03  0.17300000000E+03 0. -1.
         -6    1    1    2    0  503 -0.38968599046E+02 -0.46863571787E+02 -0.46287807301E+03  0.49789542732E+03  0.17300000000E+03 0. -1.
<mgrwt>
<rscale>  2 0.18342232E+03</rscale>
<asrwt>0</asrwt>
<pdfrwt beam="1">  1       21 0.61529729E-02 0.18342232E+03</pdfrwt>
<pdfrwt beam="2">  1       21 0.13145304E+00 0.18342232E+03</pdfrwt>
<totfact> 0.79721396E+04</totfact>
</mgrwt>
</event>
<event>
 4    1  0.4111182E+000  0.2189210E+03  0.7546771E-02  0.1134690E+00
         21   -1    0    0  503  502  0.00000000000E+00  0.00000000000E+00  0.27491271763E+03  0.27491271763E+03  0.00000000000E+00 0. -1.
         21   -1    0    0  501  503 -0.00000000000E+00 -0.00000000000E+00 -0.17466200377E+03  0.17466200377E+03  0.00000000000E+00 0. -1.
          6    1    1    2  501    0 -0.86045682781E+02  0.10292488279E+03  0.40371065297E+02  0.22261225019E+03  0.17300000000E+03 0. -1.
         -6    1    1    2    0  502  0.86045682781E+02 -0.10292488279E+03  0.59879648565E+02  0.22696247120E+03  0.17300000000E+03 0. -1.
<mgrwt>
<rscale>  2 0.21892097E+03</rscale>
<asrwt>0</asrwt>
<pdfrwt beam="1">  1       21 0.42294264E-01 0.21892097E+03</pdfrwt>
<pdfrwt beam="2">  1       21 0.26871078E-01 0.21892097E+03</pdfrwt>
<totfact> 0.70148016E+04</totfact>
</mgrwt>
</event>
<event>
 4    1  0.4111182E+000  0.1749424E+03  0.7546771E-02  0.1172790E+00
         21   -1    0    0  501  502  0.00000000000E+00  0.00000000000E+00  0.17667145198E+03  0.17667145198E+03  0.00000000000E+00 0. -1.
         21   -1    0    0  502  503 -0.00000000000E+00 -0.00000000000E+00 -0.42661521035E+03  0.42661521035E+03  0.00000000000E+00 0. -1.
          6    1    1    2  501    0  0.23861151659E+02 -0.10318529407E+02  0.10749765282E+03  0.20533039709E+03  0.17300000000E+03 0. -1.
         -6    1    1    2    0  503 -0.23861151659E+02  0.10318529407E+02 -0.35744141120E+03  0.39795626524E+03  0.17300000000E+03 0. -1.
<mgrwt>
<rscale>  2 0.17494235E+03</rscale>
<asrwt>0</asrwt>
<pdfrwt beam="1">  1       21 0.27180224E-01 0.17494235E+03</pdfrwt>
<pdfrwt beam="2">  1       21 0.65633109E-01 0.17494235E+03</pdfrwt>
<totfact> 0.27809302E+04</totfact>
</mgrwt>
</event>
<event>
 4    1  0.4111182E+000  0.1800519E+03  0.7546771E-02  0.1167753E+00
         21   -1    0    0  503  502  0.00000000000E+00  0.00000000000E+00  0.59749550804E+02  0.59749550804E+02  0.00000000000E+00 0. -1.
         21   -1    0    0  501  503 -0.00000000000E+00 -0.00000000000E+00 -0.71656118373E+03  0.71656118373E+03  0.00000000000E+00 0. -1.
          6    1    1    2  501    0 -0.47345325776E+02  0.15751012241E+02 -0.51967061534E+03  0.54997838385E+03  0.17300000000E+03 0. -1.
         -6    1    1    2    0  502  0.47345325776E+02 -0.15751012241E+02 -0.13714101759E+03  0.22633235068E+03  0.17300000000E+03 0. -1.
<mgrwt>
<rscale>  2 0.18005187E+03</rscale>
<asrwt>0</asrwt>
<pdfrwt beam="1">  1       21 0.91922383E-02 0.18005187E+03</pdfrwt>
<pdfrwt beam="2">  1       21 0.11024019E+00 0.18005187E+03</pdfrwt>
<totfact> 0.61522773E+04</totfact>
</mgrwt>
</event>
<event>
 4    1  0.4111182E+000  0.1769396E+03  0.7546771E-02  0.1170798E+00
         21   -1    0    0  501  502  0.00000000000E+00  0.00000000000E+00  0.96068183821E+02  0.96068183821E+02  0.00000000000E+00 0. -1.
         21   -1    0    0  502  503 -0.00000000000E+00 -0.00000000000E+00 -0.55968479616E+03  0.55968479616E+03  0.00000000000E+00 0. -1.
          6    1    1    2  501    0  0.25138694224E+02 -0.27325183656E+02 -0.19895922190E+02  0.17805467511E+03  0.17300000000E+03 0. -1.
         -6    1    1    2    0  503 -0.25138694224E+02  0.27325183656E+02 -0.44372069015E+03  0.47769830487E+03  0.17300000000E+03 0. -1.
<mgrwt>
<rscale>  2 0.17693959E+03</rscale>
<asrwt>0</asrwt>
<pdfrwt beam="1">  1       21 0.14779720E-01 0.17693959E+03</pdfrwt>
<pdfrwt beam="2">  1       21 0.86105354E-01 0.17693959E+03</pdfrwt>
<totfact> 0.47248740E+04</totfact>
</mgrwt>
</event>
<event>
 4    1  0.4111182E+000  0.2072253E+03  0.7546771E-02  0.1143782E+00
         21   -1    0    0  501  502  0.00000000000E+00  0.00000000000E+00  0.66405081063E+02  0.66405081063E+02  0.00000000000E+00 0. -1.
         21   -1    0    0  502  503 -0.00000000000E+00 -0.00000000000E+00 -0.11201066107E+04  0.11201066107E+04  0.00000000000E+00 0. -1.
          6    1    1    2  501    0 -0.95259564739E+02 -0.62761072349E+02 -0.14115742544E+03  0.25073443249E+03  0.17300000000E+03 0. -1.
         -6    1    1    2    0  503  0.95259564739E+02  0.62761072349E+02 -0.91254410416E+03  0.93577725924E+03  0.17300000000E+03 0. -1.
<mgrwt>
<rscale>  2 0.20722533E+03</rscale>
<asrwt>0</asrwt>
<pdfrwt beam="1">  1       21 0.10216166E-01 0.20722533E+03</pdfrwt>
<pdfrwt beam="2">  1       21 0.17232410E+00 0.20722533E+03</pdfrwt>
<totfact> 0.15889835E+04</totfact>
</mgrwt>
</event>
<event>
 4    1  0.4111182E+000  0.2705548E+03  0.7546771E-02  0.1100963E+00
         21   -1    0    0  503  502  0.00000000000E+00  0.00000000000E+00  0.17998012339E+03  0.17998012339E+03  0.00000000000E+00 0.  1.
         21   -1    0    0  501  503 -0.00000000000E+00 -0.00000000000E+00 -0.12786835259E+04  0.12786835259E+04  0.00000000000E+00 0.  1.
          6    1    1    2  501    0 -0.17999488998E+03  0.10427238344E+03 -0.11516269811E+04  0.11829812314E+04  0.17300000000E+03 0.  1.
         -6    1    1    2    0  502  0.17999488998E+03 -0.10427238344E+03  0.52923578548E+02  0.27568241789E+03  0.17300000000E+03 0.  1.
<mgrwt>
<rscale>  2 0.27055478E+03</rscale>
<asrwt>0</asrwt>
<pdfrwt beam="1">  1       21 0.27689250E-01 0.27055478E+03</pdfrwt>
<pdfrwt beam="2">  1       21 0.19672054E+00 0.27055478E+03</pdfrwt>
<totfact> 0.16359555E+03</totfact>
</mgrwt>
</event>
<event>
 4    1  0.4111182E+000  0.1888305E+03  0.7546771E-02  0.1159520E+00
         21   -1    0    0  501  502  0.00000000000E+00  0.00000000000E+00  0.20878731324E+03  0.20878731324E+03  0.00000000000E+00 0. -1.
         21   -1    0    0  502  503 -0.00000000000E+00 -0.00000000000E+00 -0.48305455955E+03  0.48305455955E+03  0.00000000000E+00 0. -1.
          6    1    1    2  501    0 -0.61495458139E+02  0.44116719984E+02  0.14099528317E+03  0.23566214424E+03  0.17300000000E+03 0. -1.
         -6    1    1    2    0  503  0.61495458139E+02 -0.44116719984E+02 -0.41526252948E+03  0.45617972855E+03  0.17300000000E+03 0. -1.
<mgrwt>
<rscale>  2 0.18883055E+03</rscale>
<asrwt>0</asrwt>
<pdfrwt beam="1">  1       21 0.32121125E-01 0.18883055E+03</pdfrwt>
<pdfrwt beam="2">  1       21 0.74316085E-01 0.18883055E+03</pdfrwt>
<totfact> 0.15165529E+04</totfact>
</mgrwt>
</event>
<event>
 4    1  0.4111182E+000  0.1776960E+03  0.7546771E-02  0.1170052E+00
         21   -1    0    0  503  502  0.00000000000E+00  0.00000000000E+00  0.39522534789E+03  0.39522534789E+03  0.00000000000E+00 0.  1.
         21   -1    0    0  501  503 -0.00000000000E+00 -0.00000000000E+00 -0.13556742522E+03  0.13556742522E+03  0.00000000000E+00 0.  1.
          6    1    1    2  501    0 -0.28972951130E+02 -0.28415264969E+02 -0.40247422738E+02  0.18219691056E+03  0.17300000000E+03 0.  1.
         -6    1    1    2    0  502  0.28972951130E+02  0.28415264969E+02  0.29990534541E+03  0.34859586255E+03  0.17300000000E+03 0.  1.
<mgrwt>
<rscale>  2 0.17769597E+03</rscale>
<asrwt>0</asrwt>
<pdfrwt beam="1">  1       21 0.60803899E-01 0.17769597E+03</pdfrwt>
<pdfrwt beam="2">  1       21 0.20856527E-01 0.17769597E+03</pdfrwt>
<totfact> 0.54114395E+04</totfact>
</mgrwt>
</event>
<event>
 4    1  0.4111182E+000  0.2089001E+03  0.7546771E-02  0.1142440E+00
         21   -1    0    0  501  502  0.00000000000E+00  0.00000000000E+00  0.16698478274E+03  0.16698478274E+03  0.00000000000E+00 0.  1.
         21   -1    0    0  502  503 -0.00000000000E+00 -0.00000000000E+00 -0.26460447602E+03  0.26460447602E+03  0.00000000000E+00 0. -1.
          6    1    1    2  501    0  0.10094729992E+03 -0.59328832058E+02 -0.24829140330E+02  0.21037051572E+03  0.17300000000E+03 0.  1.
         -6    1    1    2    0  503 -0.10094729992E+03  0.59328832058E+02 -0.72790552944E+02  0.22121874304E+03  0.17300000000E+03 0. -1.
<mgrwt>
<rscale>  2 0.20890014E+03</rscale>
<asrwt>0</asrwt>
<pdfrwt beam="1">  1       21 0.25689966E-01 0.20890014E+03</pdfrwt>
<pdfrwt beam="2">  1       21 0.40708381E-01 0.20890014E+03</pdfrwt>
<totfact> 0.83015561E+04</totfact>
</mgrwt>
</event>
<event>
 4    1  0.4111182E+000  0.2165024E+03  0.7546771E-02  0.1136518E+00
         21   -1    0    0  503  502  0.00000000000E+00  0.00000000000E+00  0.18683484809E+03  0.18683484809E+03  0.00000000000E+00 0. -1.
         21   -1    0    0  501  503 -0.00000000000E+00 -0.00000000000E+00 -0.27728693819E+03  0.27728693819E+03  0.00000000000E+00 0.  1.
          6    1    1    2  501    0 -0.11983670418E+02 -0.12961749628E+03 -0.11683848760E+03  0.24601734874E+03  0.17300000000E+03 0. -1.
         -6    1    1    2    0  502  0.11983670418E+02  0.12961749628E+03  0.26386397501E+02  0.21810443753E+03  0.17300000000E+03 0. -1.
<mgrwt>
<rscale>  2 0.21650243E+03</rscale>
<asrwt>0</asrwt>
<pdfrwt beam="1">  1       21 0.28743823E-01 0.21650243E+03</pdfrwt>
<pdfrwt beam="2">  1       21 0.42659529E-01 0.21650243E+03</pdfrwt>
<totfact> 0.60552330E+04</totfact>
</mgrwt>
</event>
<event>
 4    1  0.4111182E+000  0.1992470E+03  0.7546771E-02  0.1150376E+00
         21   -1    0    0  503  502  0.00000000000E+00  0.00000000000E+00  0.10337087908E+03  0.10337087908E+03  0.00000000000E+00 0.  1.
         21   -1    0    0  501  503 -0.00000000000E+00 -0.00000000000E+00 -0.49240695990E+03  0.49240695990E+03  0.00000000000E+00 0.  1.
          6    1    1    2  501    0  0.87782355480E+02  0.45438222382E+02 -0.33425933938E+03  0.38913838149E+03  0.17300000000E+03 0.  1.
         -6    1    1    2    0  502 -0.87782355480E+02 -0.45438222382E+02 -0.54776741434E+02  0.20663945748E+03  0.17300000000E+03 0.  1.
<mgrwt>
<rscale>  2 0.19924702E+03</rscale>
<asrwt>0</asrwt>
<pdfrwt beam="1">  1       21 0.15903212E-01 0.19924702E+03</pdfrwt>
<pdfrwt beam="2">  1       21 0.75754916E-01 0.19924702E+03</pdfrwt>
<totfact> 0.54640182E+04</totfact>
</mgrwt>
</event>
<event>
 4    1  0.4111182E+000  0.2524542E+03  0.7546771E-02  0.1111764E+00
         21   -1    0    0  501  502  0.00000000000E+00  0.00000000000E+00  0.43016913278E+02  0.43016913278E+02  0.00000000000E+00 0.  1.
         21   -1    0    0  502  503 -0.00000000000E+00 -0.00000000000E+00 -0.19879137855E+04  0.19879137855E+04  0.00000000000E+00 0. -1.
          6    1    1    2  501    0 -0.14142038754E+03  0.11749208034E+03 -0.45996052301E+03  0.52468733326E+03  0.17300000000E+03 0.  1.
         -6    1    1    2    0  503  0.14142038754E+03 -0.11749208034E+03 -0.14849363492E+04  0.15062433655E+04  0.17300000000E+03 0. -1.
<mgrwt>
<rscale>  2 0.25245418E+03</rscale>
<asrwt>0</asrwt>
<pdfrwt beam="1">  1       21 0.66179865E-02 0.25245418E+03</pdfrwt>
<pdfrwt beam="2">  1       21 0.30583290E+00 0.25245418E+03</pdfrwt>
<totfact> 0.49507673E+03</totfact>
</mgrwt>
</event>
<event>
 4    1  0.4111182E+000  0.1790054E+03  0.7546771E-02  0.1168769E+00
         21   -1    0    0  501  502  0.00000000000E+00  0.00000000000E+00  0.45017528245E+02  0.45017528245E+02  0.00000000000E+00 0.  1.
         21   -1    0    0  502  503 -0.00000000000E+00 -0.00000000000E+00 -0.74104622925E+03  0.74104622925E+03  0.00000000000E+00 0.  1.
          6    1    1    2  501    0 -0.26280364514E+02  0.37726165272E+02 -0.26991783333E+03  0.32388046846E+03  0.17300000000E+03 0.  1.
         -6    1    1    2    0  503  0.26280364514E+02 -0.37726165272E+02 -0.42611086768E+03  0.46218328903E+03  0.17300000000E+03 0.  1.
<mgrwt>
<rscale>  2 0.17900537E+03</rscale>
<asrwt>0</asrwt>
<pdfrwt beam="1">  1       21 0.69257739E-02 0.17900537E+03</pdfrwt>
<pdfrwt beam="2">  1       21 0.11400711E+00 0.17900537E+03</pdfrwt>
<totfact> 0.92808091E+04</totfact>
</mgrwt>
</event>
<event>
 4    1  0.4111182E+000  0.2467953E+03  0.7546771E-02  0.1115347E+00
         21   -1    0    0  501  502  0.00000000000E+00  0.00000000000E+00  0.17621559770E+03  0.17621559770E+03  0.00000000000E+00 0.  1.
         21   -1    0    0  502  503 -0.00000000000E+00 -0.00000000000E+00 -0.53082122048E+03  0.53082122048E+03  0.00000000000E+00 0. -1.
          6    1    1    2  501    0 -0.16567036843E+03 -0.59432853340E+02  0.31497529896E+02  0.24879716522E+03  0.17300000000E+03 0.  1.
         -6    1    1    2    0  503  0.16567036843E+03  0.59432853340E+02 -0.38610315268E+03  0.45823965296E+03  0.17300000000E+03 0.  1.
<mgrwt>
<rscale>  2 0.24679533E+03</rscale>
<asrwt>0</asrwt>
<pdfrwt beam="1">  1       21 0.27110092E-01 0.24679533E+03</pdfrwt>
<pdfrwt beam="2">  1       21 0.81664802E-01 0.24679533E+03</pdfrwt>
<totfact> 0.16497384E+04</totfact>
</mgrwt>
</event>
<event>
 4    1  0.4111182E+000  0.2555932E+03  0.7546771E-02  0.1109820E+00
         21   -1    0    0  501  502  0.00000000000E+00  0.00000000000E+00  0.48764874110E+03  0.48764874110E+03  0.00000000000E+00 0.  1.
         21   -1    0    0  502  503 -0.00000000000E+00 -0.00000000000E+00 -0.22776397567E+03  0.22776397567E+03  0.00000000000E+00 0.  1.
          6    1    1    2  501    0  0.16726110818E+03 -0.86154538483E+02  0.35949544948E+03  0.44109507026E+03  0.17300000000E+03 0.  1.
         -6    1    1    2    0  503 -0.16726110818E+03  0.86154538483E+02 -0.99610684054E+02  0.27431764651E+03  0.17300000000E+03 0.  1.
<mgrwt>
<rscale>  2 0.25559320E+03</rscale>
<asrwt>0</asrwt>
<pdfrwt beam="1">  1       21 0.75022883E-01 0.25559320E+03</pdfrwt>
<pdfrwt beam="2">  1       21 0.35040612E-01 0.25559320E+03</pdfrwt>
<totfact> 0.12013248E+04</totfact>
</mgrwt>
</event>
<event>
 4    1  0.4111182E+000  0.2084798E+03  0.7546771E-02  0.1142776E+00
         21   -1    0    0  501  502  0.00000000000E+00  0.00000000000E+00  0.11168713808E+03  0.11168713808E+03  0.00000000000E+00 0. -1.
         21   -1    0    0  502  503 -0.00000000000E+00 -0.00000000000E+00 -0.58480658140E+03  0.58480658140E+03  0.00000000000E+00 0. -1.
          6    1    1    2  501    0 -0.10677916354E+03  0.46184744550E+02 -0.35131343486E+02  0.21141909017E+03  0.17300000000E+03 0. -1.
         -6    1    1    2    0  503  0.10677916354E+03 -0.46184744550E+02 -0.43798809984E+03  0.48507462931E+03  0.17300000000E+03 0. -1.
<mgrwt>
<rscale>  2 0.20847978E+03</rscale>
<asrwt>0</asrwt>
<pdfrwt beam="1">  1       21 0.17182637E-01 0.20847978E+03</pdfrwt>
<pdfrwt beam="2">  1       21 0.89970243E-01 0.20847978E+03</pdfrwt>
<totfact> 0.31880240E+04</totfact>
</mgrwt>
</event>
<event>
 4    1  0.4111182E+000  0.2559752E+03  0.7546771E-02  0.1109586E+00
         21   -1    0    0  503  502  0.00000000000E+00  0.00000000000E+00  0.12230676498E+04  0.12230676498E+04  0.00000000000E+00 0. -1.
         21   -1    0    0  501  503 -0.00000000000E+00 -0.00000000000E+00 -0.53647609097E+02  0.53647609097E+02  0.00000000000E+00 0.  1.
          6    1    1    2  501    0  0.14277990630E+03  0.12332154605E+03  0.56089135281E+03  0.61654068399E+03  0.17300000000E+03 0.  1.
         -6    1    1    2    0  502 -0.14277990630E+03 -0.12332154605E+03  0.60852868792E+03  0.66017457493E+03  0.17300000000E+03 0. -1.
<mgrwt>
<rscale>  2 0.25597520E+03</rscale>
<asrwt>0</asrwt>
<pdfrwt beam="1">  1       21 0.18816423E+00 0.25597520E+03</pdfrwt>
<pdfrwt beam="2">  1       21 0.82534792E-02 0.25597520E+03</pdfrwt>
<totfact> 0.17470157E+04</totfact>
</mgrwt>
</event>
<event>
 4    1  0.4111182E+000  0.1880271E+03  0.7546771E-02  0.1160253E+00
         21   -1    0    0  501  502  0.00000000000E+00  0.00000000000E+00  0.23413049981E+03  0.23413049981E+03  0.00000000000E+00 0. -1.
         21   -1    0    0  502  503 -0.00000000000E+00 -0.00000000000E+00 -0.17756025776E+03  0.17756025776E+03  0.00000000000E+00 0. -1.
          6    1    1    2  501    0 -0.67898066037E+02  0.28549109747E+02  0.10789503327E+03  0.21678454106E+03  0.17300000000E+03 0. -1.
         -6    1    1    2    0  503  0.67898066037E+02 -0.28549109747E+02 -0.51324791221E+02  0.19490621651E+03  0.17300000000E+03 0. -1.
<mgrwt>
<rscale>  2 0.18802712E+03</rscale>
<asrwt>0</asrwt>
<pdfrwt beam="1">  1       21 0.36020077E-01 0.18802712E+03</pdfrwt>
<pdfrwt beam="2">  1       21 0.27316963E-01 0.18802712E+03</pdfrwt>
<totfact> 0.95145520E+04</totfact>
</mgrwt>
</event>
<event>
 4    1  0.4111182E+000  0.1744790E+03  0.7546771E-02  0.1173256E+00
         21   -1    0    0  501  502  0.00000000000E+00  0.00000000000E+00  0.10963845567E+03  0.10963845567E+03  0.00000000000E+00 0.  1.
         21   -1    0    0  502  503 -0.00000000000E+00 -0.00000000000E+00 -0.30101824735E+03  0.30101824735E+03  0.00000000000E+00 0.  1.
          6    1    1    2  501    0  0.38498705562E+01  0.22340766627E+02 -0.38500992608E+02  0.17867640524E+03  0.17300000000E+03 0.  1.
         -6    1    1    2    0  503 -0.38498705562E+01 -0.22340766627E+02 -0.15287879907E+03  0.23198029779E+03  0.17300000000E+03 0.  1.
<mgrwt>
<rscale>  2 0.17447903E+03</rscale>
<asrwt>0</asrwt>
<pdfrwt beam="1">  1       21 0.16867455E-01 0.17447903E+03</pdfrwt>
<pdfrwt beam="2">  1       21 0.46310499E-01 0.17447903E+03</pdfrwt>
<totfact> 0.14223525E+05</totfact>
</mgrwt>
</event>
<event>
 4    1  0.4111182E+000  0.1862396E+03  0.7546771E-02  0.1161897E+00
         21   -1    0    0  501  502  0.00000000000E+00  0.00000000000E+00  0.58595877990E+02  0.58595877990E+02  0.00000000000E+00 0.  1.
         21   -1    0    0  502  503 -0.00000000000E+00 -0.00000000000E+00 -0.14865696911E+04  0.14865696911E+04  0.00000000000E+00 0.  1.
          6    1    1    2  501    0 -0.68326899038E+02 -0.93602326307E+01 -0.11464545923E+03  0.21869787472E+03  0.17300000000E+03 0.  1.
         -6    1    1    2    0  503  0.68326899038E+02  0.93602326307E+01 -0.13133283539E+04  0.13264676944E+04  0.17300000000E+03 0.  1.
<mgrwt>
<rscale>  2 0.18623957E+03</rscale>
<asrwt>0</asrwt>
<pdfrwt beam="1">  1       21 0.90147504E-02 0.18623957E+03</pdfrwt>
<pdfrwt beam="2">  1       21 0.22870303E+00 0.18623957E+03</pdfrwt>
<totfact> 0.87253801E+03</totfact>
</mgrwt>
</event>
<event>
 4    1  0.4111182E+000  0.1792073E+03  0.7546771E-02  0.1168572E+00
         21   -1    0    0  501  502  0.00000000000E+00  0.00000000000E+00  0.43135955856E+03  0.43135955856E+03  0.00000000000E+00 0.  1.
         21   -1    0    0  502  503 -0.00000000000E+00 -0.00000000000E+00 -0.10479472095E+03  0.10479472095E+03  0.00000000000E+00 0.  1.
          6    1    1    2  501    0  0.45602963384E+02 -0.10325935313E+02  0.30753472301E+03  0.35593940645E+03  0.17300000000E+03 0.  1.
         -6    1    1    2    0  503 -0.45602963384E+02  0.10325935313E+02  0.19030114593E+02  0.18021487306E+03  0.17300000000E+03 0.  1.
<mgrwt>
<rscale>  2 0.17920730E+03</rscale>
<asrwt>0</asrwt>
<pdfrwt beam="1">  1       21 0.66363008E-01 0.17920730E+03</pdfrwt>
<pdfrwt beam="2">  1       21 0.16122265E-01 0.17920730E+03</pdfrwt>
<totfact> 0.72042309E+04</totfact>
</mgrwt>
</event>
<event>
 4    1  0.4111182E+000  0.2173180E+03  0.7546771E-02  0.1135899E+00
         21   -1    0    0  503  502  0.00000000000E+00  0.00000000000E+00  0.96171894717E+02  0.96171894717E+02  0.00000000000E+00 0.  1.
         21   -1    0    0  501  503 -0.00000000000E+00 -0.00000000000E+00 -0.50205496879E+03  0.50205496879E+03  0.00000000000E+00 0.  1.
          6    1    1    2  501    0 -0.13034140853E+03 -0.17585191258E+02 -0.24718630026E+03  0.32913247905E+03  0.17300000000E+03 0.  1.
         -6    1    1    2    0  502  0.13034140853E+03  0.17585191258E+02 -0.15869677381E+03  0.26909438445E+03  0.17300000000E+03 0.  1.
<mgrwt>
<rscale>  2 0.21731802E+03</rscale>
<asrwt>0</asrwt>
<pdfrwt beam="1">  1       21 0.14795676E-01 0.21731802E+03</pdfrwt>
<pdfrwt beam="2">  1       21 0.77239226E-01 0.21731802E+03</pdfrwt>
<totfact> 0.59184094E+04</totfact>
</mgrwt>
</event>
<event>
 4    1  0.4111182E+000  0.1755064E+03  0.7546771E-02  0.1172224E+00
         21   -1    0    0  503  502  0.00000000000E+00  0.00000000000E+00  0.15527324520E+03  0.15527324520E+03  0.00000000000E+00 0.  1.
         21   -1    0    0  501  503 -0.00000000000E+00 -0.00000000000E+00 -0.19974005587E+03  0.19974005587E+03  0.00000000000E+00 0.  1.
          6    1    1    2  501    0  0.28682297748E+02 -0.71285269965E+01 -0.36902158241E+02  0.17934396947E+03  0.17300000000E+03 0. -1.
         -6    1    1    2    0  502 -0.28682297748E+02  0.71285269965E+01 -0.75646524260E+01  0.17566933161E+03  0.17300000000E+03 0. -1.
<mgrwt>
<rscale>  2 0.17550638E+03</rscale>
<asrwt>0</asrwt>
<pdfrwt beam="1">  1       21 0.23888192E-01 0.17550638E+03</pdfrwt>
<pdfrwt beam="2">  1       21 0.30729239E-01 0.17550638E+03</pdfrwt>
<totfact> 0.16884308E+05</totfact>
</mgrwt>
</event>
<event>
 4    1  0.4111182E+000  0.2199911E+03  0.7546771E-02  0.1133890E+00
         21   -1    0    0  503  502  0.00000000000E+00  0.00000000000E+00  0.58307383368E+02  0.58307383368E+02  0.00000000000E+00 0.  1.
         21   -1    0    0  501  503 -0.00000000000E+00 -0.00000000000E+00 -0.93900744529E+03  0.93900744529E+03  0.00000000000E+00 0. -1.
          6    1    1    2  501    0 -0.13349726709E+03  0.25408346390E+02 -0.61023794741E+03  0.64868055069E+03  0.17300000000E+03 0. -1.
         -6    1    1    2    0  502  0.13349726709E+03 -0.25408346390E+02 -0.27046211451E+03  0.34863427796E+03  0.17300000000E+03 0. -1.
<mgrwt>
<rscale>  2 0.21999115E+03</rscale>
<asrwt>0</asrwt>
<pdfrwt beam="1">  1       21 0.89703671E-02 0.21999115E+03</pdfrwt>
<pdfrwt beam="2">  1       21 0.14446268E+00 0.21999115E+03</pdfrwt>
<totfact> 0.31885056E+04</totfact>
</mgrwt>
</event>
<event>
 4    1  0.4111182E+000  0.2078802E+03  0.7546771E-02  0.1143256E+00
         21   -1    0    0  503  502  0.00000000000E+00  0.00000000000E+00  0.15149489359E+03  0.15149489359E+03  0.00000000000E+00 0. -1.
         21   -1    0    0  501  503 -0.00000000000E+00 -0.00000000000E+00 -0.28780033635E+03  0.28780033635E+03  0.00000000000E+00 0.  1.
          6    1    1    2  501    0 -0.58634755880E+02  0.99232840309E+02 -0.47483400864E+02  0.21323429497E+03  0.17300000000E+03 0.  1.
         -6    1    1    2    0  502  0.58634755880E+02 -0.99232840309E+02 -0.88822041902E+02  0.22606093497E+03  0.17300000000E+03 0.  1.
<mgrwt>
<rscale>  2 0.20788023E+03</rscale>
<asrwt>0</asrwt>
<pdfrwt beam="1">  1       21 0.23306907E-01 0.20788023E+03</pdfrwt>
<pdfrwt beam="2">  1       21 0.44276974E-01 0.20788023E+03</pdfrwt>
<totfact> 0.84245488E+04</totfact>
</mgrwt>
</event>
<event>
 4    1  0.4111182E+000  0.2705778E+03  0.7546771E-02  0.1100949E+00
         21   -1    0    0  501  502  0.00000000000E+00  0.00000000000E+00  0.11534637385E+04  0.11534637385E+04  0.00000000000E+00 0.  1.
         21   -1    0    0  502  503 -0.00000000000E+00 -0.00000000000E+00 -0.12877295367E+03  0.12877295367E+03  0.00000000000E+00 0. -1.
          6    1    1    2  501    0  0.18924524112E+03  0.86426736043E+02  0.96889347919E+03  0.10059656634E+04  0.17300000000E+03 0.  1.
         -6    1    1    2    0  503 -0.18924524112E+03 -0.86426736043E+02  0.55797305616E+02  0.27627102871E+03  0.17300000000E+03 0. -1.
<mgrwt>
<rscale>  2 0.27057779E+03</rscale>
<asrwt>0</asrwt>
<pdfrwt beam="1">  1       21 0.17745595E+00 0.27057779E+03</pdfrwt>
<pdfrwt beam="2">  1       21 0.19811224E-01 0.27057779E+03</pdfrwt>
<totfact> 0.41883558E+03</totfact>
</mgrwt>
</event>
<event>
 4    1  0.4111182E+000  0.2029162E+03  0.7546771E-02  0.1147302E+00
         21   -1    0    0  501  502  0.00000000000E+00  0.00000000000E+00  0.52482226686E+03  0.52482226686E+03  0.00000000000E+00 0.  1.
         21   -1    0    0  502  503 -0.00000000000E+00 -0.00000000000E+00 -0.12598268878E+03  0.12598268878E+03  0.00000000000E+00 0. -1.
          6    1    1    2  501    0  0.77281926488E+02 -0.72618853039E+02  0.39928546566E+03  0.44788824171E+03  0.17300000000E+03 0.  1.
         -6    1    1    2    0  503 -0.77281926488E+02  0.72618853039E+02 -0.44588758020E+00  0.20291671394E+03  0.17300000000E+03 0. -1.
<mgrwt>
<rscale>  2 0.20291622E+03</rscale>
<asrwt>0</asrwt>
<pdfrwt beam="1">  1       21 0.80741886E-01 0.20291622E+03</pdfrwt>
<pdfrwt beam="2">  1       21 0.19381952E-01 0.20291622E+03</pdfrwt>
<totfact> 0.32780320E+04</totfact>
</mgrwt>
</event>
<event>
 4    1  0.4111182E+000  0.2218343E+03  0.7546771E-02  0.1132523E+00
         21   -1    0    0  503  502  0.00000000000E+00  0.00000000000E+00  0.22341578703E+04  0.22341578703E+04  0.00000000000E+00 0. -1.
         21   -1    0    0  501  503 -0.00000000000E+00 -0.00000000000E+00 -0.48375897238E+02  0.48375897238E+02  0.00000000000E+00 0. -1.
          6    1    1    2  501    0 -0.89534586365E+02 -0.10613679807E+03  0.25060642756E+03  0.33468499159E+03  0.17300000000E+03 0. -1.
         -6    1    1    2    0  502  0.89534586365E+02  0.10613679807E+03  0.19351755455E+04  0.19478487759E+04  0.17300000000E+03 0. -1.
<mgrwt>
<rscale>  2 0.22183431E+03</rscale>
<asrwt>0</asrwt>
<pdfrwt beam="1">  1       21 0.34371652E+00 0.22183431E+03</pdfrwt>
<pdfrwt beam="2">  1       21 0.74424475E-02 0.22183431E+03</pdfrwt>
<totfact> 0.24972264E+03</totfact>
</mgrwt>
</event>
<event>
 4    1  0.4111182E+000  0.2111549E+03  0.7546771E-02  0.1140655E+00
         21   -1    0    0  503  502  0.00000000000E+00  0.00000000000E+00  0.65704158368E+02  0.65704158368E+02  0.00000000000E+00 0. -1.
         21   -1    0    0  501  503 -0.00000000000E+00 -0.00000000000E+00 -0.67888395071E+03  0.67888395071E+03  0.00000000000E+00 0. -1.
          6    1    1    2  501    0  0.10379753278E+03  0.62317460490E+02 -0.29888504069E+03  0.36594898721E+03  0.17300000000E+03 0. -1.
         -6    1    1    2    0  502 -0.10379753278E+03 -0.62317460490E+02 -0.31429475165E+03  0.37863912186E+03  0.17300000000E+03 0. -1.
<mgrwt>
<rscale>  2 0.21115490E+03</rscale>
<asrwt>0</asrwt>
<pdfrwt beam="1">  1       21 0.10108332E-01 0.21115490E+03</pdfrwt>
<pdfrwt beam="2">  1       21 0.10444369E+00 0.21115490E+03</pdfrwt>
<totfact> 0.58378454E+04</totfact>
</mgrwt>
</event>
<event>
 4    1  0.4111182E+000  0.1952361E+03  0.7546771E-02  0.1153822E+00
         21   -1    0    0  503  502  0.00000000000E+00  0.00000000000E+00  0.17545661760E+03  0.17545661760E+03  0.00000000000E+00 0.  1.
         21   -1    0    0  501  503 -0.00000000000E+00 -0.00000000000E+00 -0.24720644724E+03  0.24720644724E+03  0.00000000000E+00 0. -1.
          6    1    1    2  501    0  0.89616203326E+02 -0.12532033842E+02 -0.10944716316E+03  0.22382090451E+03  0.17300000000E+03 0. -1.
         -6    1    1    2    0  502 -0.89616203326E+02  0.12532033842E+02  0.37697333527E+02  0.19884216033E+03  0.17300000000E+03 0.  1.
<mgrwt>
<rscale>  2 0.19523605E+03</rscale>
<asrwt>0</asrwt>
<pdfrwt beam="1">  1       21 0.26993326E-01 0.19523605E+03</pdfrwt>
<pdfrwt beam="2">  1       21 0.38031761E-01 0.19523605E+03</pdfrwt>
<totfact> 0.87089389E+04</totfact>
</mgrwt>
</event>
<event>
 4    1  0.4111182E+000  0.2096892E+03  0.7546771E-02  0.1141812E+00
         21   -1    0    0  501  502  0.00000000000E+00  0.00000000000E+00  0.21203468478E+03  0.21203468478E+03  0.00000000000E+00 0. -1.
         21   -1    0    0  502  503 -0.00000000000E+00 -0.00000000000E+00 -0.21200963510E+03  0.21200963510E+03  0.00000000000E+00 0.  1.
          6    1    1    2  501    0  0.52224978465E+02  0.10636302494E+03  0.31378983109E+02  0.21202401286E+03  0.17300000000E+03 0. -1.
         -6    1    1    2    0  503 -0.52224978465E+02 -0.10636302494E+03 -0.31353933430E+02  0.21202030702E+03  0.17300000000E+03 0.  1.
<mgrwt>
<rscale>  2 0.20968915E+03</rscale>
<asrwt>0</asrwt>
<pdfrwt beam="1">  1       21 0.32620721E-01 0.20968915E+03</pdfrwt>
<pdfrwt beam="2">  1       21 0.32616867E-01 0.20968915E+03</pdfrwt>
<totfact> 0.81226856E+04</totfact>
</mgrwt>
</event>
<event>
 4    1  0.4111182E+000  0.2322367E+03  0.7546771E-02  0.1125075E+00
         21   -1    0    0  501  502  0.00000000000E+00  0.00000000000E+00  0.70042450775E+03  0.70042450775E+03  0.00000000000E+00 0.  1.
         21   -1    0    0  502  503 -0.00000000000E+00 -0.00000000000E+00 -0.94510881065E+02  0.94510881065E+02  0.00000000000E+00 0. -1.
          6    1    1    2  501    0 -0.12941574978E+03 -0.85184762495E+02  0.47403467255E+03  0.52786622437E+03  0.17300000000E+03 0.  1.
         -6    1    1    2    0  503  0.12941574978E+03  0.85184762495E+02  0.13187895414E+03  0.26706916445E+03  0.17300000000E+03 0. -1.
<mgrwt>
<rscale>  2 0.23223669E+03</rscale>
<asrwt>0</asrwt>
<pdfrwt beam="1">  1       21 0.10775761E+00 0.23223669E+03</pdfrwt>
<pdfrwt beam="2">  1       21 0.14540136E-01 0.23223669E+03</pdfrwt>
<totfact> 0.27875035E+04</totfact>
</mgrwt>
</event>
<event>
 4    1  0.4111182E+000  0.2332103E+03  0.7546771E-02  0.1124400E+00
         21   -1    0    0  501  502  0.00000000000E+00  0.00000000000E+00  0.21942901004E+03  0.21942901004E+03  0.00000000000E+00 0.  1.
         21   -1    0    0  502  503 -0.00000000000E+00 -0.00000000000E+00 -0.24969900057E+03  0.24969900057E+03  0.00000000000E+00 0.  1.
          6    1    1    2  501    0  0.14651785706E+03 -0.54685823883E+02  0.50112826932E+01  0.23326408795E+03  0.17300000000E+03 0.  1.
         -6    1    1    2    0  503 -0.14651785706E+03  0.54685823883E+02 -0.35281273220E+02  0.23586392266E+03  0.17300000000E+03 0.  1.
<mgrwt>
<rscale>  2 0.23321025E+03</rscale>
<asrwt>0</asrwt>
<pdfrwt beam="1">  1       21 0.33758309E-01 0.23321025E+03</pdfrwt>
<pdfrwt beam="2">  1       21 0.38415231E-01 0.23321025E+03</pdfrwt>
<totfact> 0.54235579E+04</totfact>
</mgrwt>
</event>
<event>
 4    1  0.4111182E+000  0.2044166E+03  0.7546771E-02  0.1146065E+00
         21   -1    0    0  503  502  0.00000000000E+00  0.00000000000E+00  0.41875221160E+03  0.41875221160E+03  0.00000000000E+00 0. -1.
         21   -1    0    0  501  503 -0.00000000000E+00 -0.00000000000E+00 -0.10627879962E+03  0.10627879962E+03  0.00000000000E+00 0.  1.
          6    1    1    2  501    0 -0.10888130162E+03  0.14222607626E+01  0.91357801103E+02  0.22390267638E+03  0.17300000000E+03 0.  1.
         -6    1    1    2    0  502  0.10888130162E+03 -0.14222607626E+01  0.22111561088E+03  0.30112833484E+03  0.17300000000E+03 0. -1.
<mgrwt>
<rscale>  2 0.20441664E+03</rscale>
<asrwt>0</asrwt>
<pdfrwt beam="1">  1       21 0.64423417E-01 0.20441664E+03</pdfrwt>
<pdfrwt beam="2">  1       21 0.16350585E-01 0.20441664E+03</pdfrwt>
<totfact> 0.74075955E+04</totfact>
</mgrwt>
</event>
<event>
 4    1  0.4111182E+000  0.1918884E+03  0.7546771E-02  0.1156769E+00
         21   -1    0    0  503  502  0.00000000000E+00  0.00000000000E+00  0.64828491056E+03  0.64828491056E+03  0.00000000000E+00 0. -1.
         21   -1    0    0  501  503 -0.00000000000E+00 -0.00000000000E+00 -0.57397452208E+02  0.57397452208E+02  0.00000000000E+00 0.  1.
          6    1    1    2  501    0 -0.45979136367E+02 -0.69123682262E+02  0.33150809970E+03  0.38303888131E+03  0.17300000000E+03 0. -1.
         -6    1    1    2    0  502  0.45979136367E+02  0.69123682262E+02  0.25937935865E+03  0.32264348145E+03  0.17300000000E+03 0.  1.
<mgrwt>
<rscale>  2 0.19188842E+03</rscale>
<asrwt>0</asrwt>
<pdfrwt beam="1">  1       21 0.99736135E-01 0.19188842E+03</pdfrwt>
<pdfrwt beam="2">  1       21 0.88303777E-02 0.19188842E+03</pdfrwt>
<totfact> 0.83465919E+04</totfact>
</mgrwt>
</event>
<event>
 4    1  0.4111182E+000  0.2287224E+03  0.7546771E-02  0.1127542E+00
         21   -1    0    0  501  502  0.00000000000E+00  0.00000000000E+00  0.12877301894E+04  0.12877301894E+04  0.00000000000E+00 0.  1.
         21   -1    0    0  502  503 -0.00000000000E+00 -0.00000000000E+00 -0.60731410762E+02  0.60731410762E+02  0.00000000000E+00 0. -1.
          6    1    1    2  501    0  0.99714374632E+02 -0.11154369869E+03  0.10014441558E+04  0.10272314006E+04  0.17300000000E+03 0.  1.
         -6    1    1    2    0  503 -0.99714374632E+02  0.11154369869E+03  0.22555462289E+03  0.32123019960E+03  0.17300000000E+03 0. -1.
<mgrwt>
<rscale>  2 0.22872244E+03</rscale>
<asrwt>0</asrwt>
<pdfrwt beam="1">  1       21 0.19811232E+00 0.22872244E+03</pdfrwt>
<pdfrwt beam="2">  1       21 0.93432949E-02 0.22872244E+03</pdfrwt>
<totfact> 0.12283393E+04</totfact>
</mgrwt>
</event>
<event>
 4    1  0.4111182E+000  0.3578641E+03  0.7546771E-02  0.1059433E+00
         21   -1    0    0  503  502  0.00000000000E+00  0.00000000000E+00  0.31651849251E+03  0.31651849251E+03  0.00000000000E+00 0. -1.
         21   -1    0    0  501  503 -0.00000000000E+00 -0.00000000000E+00 -0.40492819248E+03  0.40492819248E+03  0.00000000000E+00 0.  1.
          6    1    1    2  501    0 -0.17863530588E+03 -0.25734632034E+03 -0.34100735978E+02  0.35948513362E+03  0.17300000000E+03 0.  1.
         -6    1    1    2    0  502  0.17863530588E+03  0.25734632034E+03 -0.54308963987E+02  0.36196155137E+03  0.17300000000E+03 0.  1.
<mgrwt>
<rscale>  2 0.35786408E+03</rscale>
<asrwt>0</asrwt>
<pdfrwt beam="1">  1       21 0.48695153E-01 0.35786408E+03</pdfrwt>
<pdfrwt beam="2">  1       21 0.62296645E-01 0.35786408E+03</pdfrwt>
<totfact> 0.88312359E+03</totfact>
</mgrwt>
</event>
<event>
 4    1  0.4111182E+000  0.1810949E+03  0.7546771E-02  0.1166748E+00
         21   -1    0    0  503  502  0.00000000000E+00  0.00000000000E+00  0.30971907088E+02  0.30971907088E+02  0.00000000000E+00 0.  1.
         21   -1    0    0  501  503 -0.00000000000E+00 -0.00000000000E+00 -0.23299642331E+04  0.23299642331E+04  0.00000000000E+00 0.  1.
          6    1    1    2  501    0  0.53275001960E+02  0.53050335405E+01 -0.20213981884E+04  0.20294940269E+04  0.17300000000E+03 0.  1.
         -6    1    1    2    0  502 -0.53275001960E+02 -0.53050335405E+01 -0.27759413761E+03  0.33144211327E+03  0.17300000000E+03 0.  1.
<mgrwt>
<rscale>  2 0.18109492E+03</rscale>
<asrwt>0</asrwt>
<pdfrwt beam="1">  1       21 0.47649073E-02 0.18109492E+03</pdfrwt>
<pdfrwt beam="2">  1       21 0.35845615E+00 0.18109492E+03</pdfrwt>
<totfact> 0.46189582E+03</totfact>
</mgrwt>
</event>
<event>
 4    1  0.4111182E+000  0.1775225E+03  0.7546771E-02  0.1170223E+00
         21   -1    0    0  501  502  0.00000000000E+00  0.00000000000E+00  0.36264393494E+03  0.36264393494E+03  0.00000000000E+00 0.  1.
         21   -1    0    0  502  503 -0.00000000000E+00 -0.00000000000E+00 -0.18061676436E+03  0.18061676436E+03  0.00000000000E+00 0.  1.
          6    1    1    2  501    0 -0.29527729245E+02 -0.26708633029E+02  0.28667484271E+03  0.33718941756E+03  0.17300000000E+03 0.  1.
         -6    1    1    2    0  503  0.29527729245E+02  0.26708633029E+02 -0.10464767213E+03  0.20607128173E+03  0.17300000000E+03 0.  1.
<mgrwt>
<rscale>  2 0.17752250E+03</rscale>
<asrwt>0</asrwt>
<pdfrwt beam="1">  1       21 0.55791375E-01 0.17752250E+03</pdfrwt>
<pdfrwt beam="2">  1       21 0.27787195E-01 0.17752250E+03</pdfrwt>
<totfact> 0.37709446E+04</totfact>
</mgrwt>
</event>
<event>
 4    1  0.4111182E+000  0.2206056E+03  0.7546771E-02  0.1133432E+00
         21   -1    0    0  501  502  0.00000000000E+00  0.00000000000E+00  0.10630644197E+04  0.10630644197E+04  0.00000000000E+00 0.  1.
         21   -1    0    0  502  503 -0.00000000000E+00 -0.00000000000E+00 -0.64014804705E+02  0.64014804705E+02  0.00000000000E+00 0. -1.
          6    1    1    2  501    0 -0.98932420553E+02  0.94605502599E+02  0.80029705000E+03  0.83014588670E+03  0.17300000000E+03 0.  1.
         -6    1    1    2    0  503  0.98932420553E+02 -0.94605502599E+02  0.19875256503E+03  0.29693333774E+03  0.17300000000E+03 0. -1.
<mgrwt>
<rscale>  2 0.22060559E+03</rscale>
<asrwt>0</asrwt>
<pdfrwt beam="1">  1       21 0.16354836E+00 0.22060559E+03</pdfrwt>
<pdfrwt beam="2">  1       21 0.98484323E-02 0.22060559E+03</pdfrwt>
<totfact> 0.19403113E+04</totfact>
</mgrwt>
</event>
<event>
 4    1  0.4111182E+000  0.1749959E+03  0.7546771E-02  0.1172736E+00
         21   -1    0    0  501  502  0.00000000000E+00  0.00000000000E+00  0.51261431847E+03  0.51261431847E+03  0.00000000000E+00 0. -1.
         21   -1    0    0  502  503 -0.00000000000E+00 -0.00000000000E+00 -0.71098642279E+02  0.71098642279E+02  0.00000000000E+00 0. -1.
          6    1    1    2  501    0  0.70788930292E+01  0.25385781228E+02  0.33741275425E+03  0.38009329821E+03  0.17300000000E+03 0.  1.
         -6    1    1    2    0  503 -0.70788930292E+01 -0.25385781228E+02  0.10410292194E+03  0.20361966254E+03  0.17300000000E+03 0.  1.
<mgrwt>
<rscale>  2 0.17499585E+03</rscale>
<asrwt>0</asrwt>
<pdfrwt beam="1">  1       21 0.78863739E-01 0.17499585E+03</pdfrwt>
<pdfrwt beam="2">  1       21 0.10938253E-01 0.17499585E+03</pdfrwt>
<totfact> 0.99024079E+04</totfact>
</mgrwt>
</event>
<event>
 4    1  0.4111182E+000  0.2339046E+03  0.7546771E-02  0.1123921E+00
         21   -1    0    0  501  502  0.00000000000E+00  0.00000000000E+00  0.46819373509E+02  0.46819373509E+02  0.00000000000E+00 0. -1.
         21   -1    0    0  502  503 -0.00000000000E+00 -0.00000000000E+00 -0.15088213802E+04  0.15088213802E+04  0.00000000000E+00 0. -1.
          6    1    1    2  501    0 -0.57667480763E+02  0.14648153154E+03 -0.36162816639E+03  0.43068121406E+03  0.17300000000E+03 0. -1.
         -6    1    1    2    0  503  0.57667480763E+02 -0.14648153154E+03 -0.11003738403E+04  0.11249595396E+04  0.17300000000E+03 0. -1.
<mgrwt>
<rscale>  2 0.23390463E+03</rscale>
<asrwt>0</asrwt>
<pdfrwt beam="1">  1       21 0.72029807E-02 0.23390463E+03</pdfrwt>
<pdfrwt beam="2">  1       21 0.23212636E+00 0.23390463E+03</pdfrwt>
<totfact> 0.11812521E+04</totfact>
</mgrwt>
</event>
<event>
 4    1  0.4111182E+000  0.1807894E+03  0.7546771E-02  0.1167041E+00
         21   -1    0    0  503  502  0.00000000000E+00  0.00000000000E+00  0.26722595649E+04  0.26722595649E+04  0.00000000000E+00 0. -1.
         21   -1    0    0  501  503 -0.00000000000E+00 -0.00000000000E+00 -0.22106042922E+02  0.22106042922E+02  0.00000000000E+00 0. -1.
          6    1    1    2  501    0 -0.48605756598E+02 -0.19831164832E+02  0.42467293878E+03  0.46155378842E+03  0.17300000000E+03 0. -1.
         -6    1    1    2    0  502  0.48605756598E+02  0.19831164832E+02  0.22254805832E+04  0.22328118194E+04  0.17300000000E+03 0. -1.
<mgrwt>
<rscale>  2 0.18078937E+03</rscale>
<asrwt>0</asrwt>
<pdfrwt beam="1">  1       21 0.41111660E+00 0.18078937E+03</pdfrwt>
<pdfrwt beam="2">  1       21 0.34009318E-02 0.18078937E+03</pdfrwt>
<totfact> 0.38805406E+03</totfact>
</mgrwt>
</event>
<event>
 4    1  0.4111182E+000  0.1856841E+03  0.7546771E-02  0.1162413E+00
         21   -1    0    0  501  502  0.00000000000E+00  0.00000000000E+00  0.11333440322E+03  0.11333440322E+03  0.00000000000E+00 0. -1.
         21   -1    0    0  502  503 -0.00000000000E+00 -0.00000000000E+00 -0.36316763471E+03  0.36316763471E+03  0.00000000000E+00 0.  1.
          6    1    1    2  501    0  0.39733588513E+02 -0.54505415992E+02 -0.28929225130E+02  0.18792418284E+03  0.17300000000E+03 0. -1.
         -6    1    1    2    0  503 -0.39733588513E+02  0.54505415992E+02 -0.22090400636E+03  0.28857785510E+03  0.17300000000E+03 0.  1.
<mgrwt>
<rscale>  2 0.18568414E+03</rscale>
<asrwt>0</asrwt>
<pdfrwt beam="1">  1       21 0.17436062E-01 0.18568414E+03</pdfrwt>
<pdfrwt beam="2">  1       21 0.55871944E-01 0.18568414E+03</pdfrwt>
<totfact> 0.90077027E+04</totfact>
</mgrwt>
</event>
<event>
 4    1  0.4111182E+000  0.2216236E+03  0.7546771E-02  0.1132678E+00
         21   -1    0    0  501  502  0.00000000000E+00  0.00000000000E+00  0.20006290372E+03  0.20006290372E+03  0.00000000000E+00 0. -1.
         21   -1    0    0  502  503 -0.00000000000E+00 -0.00000000000E+00 -0.27144962821E+03  0.27144962821E+03  0.00000000000E+00 0.  1.
          6    1    1    2  501    0  0.19033751681E+02 -0.13720690452E+03  0.37188301933E+02  0.22472202418E+03  0.17300000000E+03 0. -1.
         -6    1    1    2    0  503 -0.19033751681E+02  0.13720690452E+03 -0.10857502642E+03  0.24679050775E+03  0.17300000000E+03 0.  1.
<mgrwt>
<rscale>  2 0.22162360E+03</rscale>
<asrwt>0</asrwt>
<pdfrwt beam="1">  1       21 0.30778908E-01 0.22162360E+03</pdfrwt>
<pdfrwt beam="2">  1       21 0.41761481E-01 0.22162360E+03</pdfrwt>
<totfact> 0.55208812E+04</totfact>
</mgrwt>
</event>
<event>
 4    1  0.4111182E+000  0.1954322E+03  0.7546771E-02  0.1153651E+00
         21   -1    0    0  501  502  0.00000000000E+00  0.00000000000E+00  0.40036731772E+02  0.40036731772E+02  0.00000000000E+00 0. -1.
         21   -1    0    0  502  503 -0.00000000000E+00 -0.00000000000E+00 -0.10028639313E+04  0.10028639313E+04  0.00000000000E+00 0. -1.
          6    1    1    2  501    0  0.13506932200E+02 -0.89901590502E+02 -0.36627223296E+03  0.41514946926E+03  0.17300000000E+03 0. -1.
         -6    1    1    2    0  503 -0.13506932200E+02  0.89901590502E+02 -0.59655496659E+03  0.62775119384E+03  0.17300000000E+03 0. -1.
<mgrwt>
<rscale>  2 0.19543217E+03</rscale>
<asrwt>0</asrwt>
<pdfrwt beam="1">  1       21 0.61594970E-02 0.19543217E+03</pdfrwt>
<pdfrwt beam="2">  1       21 0.15428676E+00 0.19543217E+03</pdfrwt>
<totfact> 0.52221946E+04</totfact>
</mgrwt>
</event>
<event>
 4    1  0.4111182E+000  0.2103977E+03  0.7546771E-02  0.1141251E+00
         21   -1    0    0  501  502  0.00000000000E+00  0.00000000000E+00  0.69971720024E+02  0.69971720024E+02  0.00000000000E+00 0. -1.
         21   -1    0    0  502  503 -0.00000000000E+00 -0.00000000000E+00 -0.10328929144E+04  0.10328929144E+04  0.00000000000E+00 0. -1.
          6    1    1    2  501    0  0.10283203395E+03  0.61349531626E+02 -0.13819552088E+03  0.25172444106E+03  0.17300000000E+03 0. -1.
         -6    1    1    2    0  503 -0.10283203395E+03 -0.61349531626E+02 -0.82472567349E+03  0.85114019336E+03  0.17300000000E+03 0. -1.
<mgrwt>
<rscale>  2 0.21039770E+03</rscale>
<asrwt>0</asrwt>
<pdfrwt beam="1">  1       21 0.10764881E-01 0.21039770E+03</pdfrwt>
<pdfrwt beam="2">  1       21 0.15890659E+00 0.21039770E+03</pdfrwt>
<totfact> 0.18036716E+04</totfact>
</mgrwt>
</event>
<event>
 4    1  0.4111182E+000  0.1732705E+03  0.7546771E-02  0.1174480E+00
         21   -1    0    0  503  502  0.00000000000E+00  0.00000000000E+00  0.13896261401E+03  0.13896261401E+03  0.00000000000E+00 0. -1.
         21   -1    0    0  501  503 -0.00000000000E+00 -0.00000000000E+00 -0.26625275225E+03  0.26625275225E+03  0.00000000000E+00 0. -1.
          6    1    1    2  501    0 -0.72973901535E+01 -0.63567382015E+01 -0.15162411391E+03  0.23024450470E+03  0.17300000000E+03 0. -1.
         -6    1    1    2    0  502  0.72973901535E+01  0.63567382015E+01  0.24333975670E+02  0.17497086156E+03  0.17300000000E+03 0. -1.
<mgrwt>
<rscale>  2 0.17327048E+03</rscale>
<asrwt>0</asrwt>
<pdfrwt beam="1">  1       21 0.21378864E-01 0.17327048E+03</pdfrwt>
<pdfrwt beam="2">  1       21 0.40961961E-01 0.17327048E+03</pdfrwt>
<totfact> 0.11776816E+05</totfact>
</mgrwt>
</event>
<event>
 4    1  0.4111182E+000  0.1844124E+03  0.7546771E-02  0.1163600E+00
         21   -1    0    0  501  502  0.00000000000E+00  0.00000000000E+00  0.46314413131E+03  0.46314413131E+03  0.00000000000E+00 0. -1.
         21   -1    0    0  502  503 -0.00000000000E+00 -0.00000000000E+00 -0.19726977576E+03  0.19726977576E+03  0.00000000000E+00 0. -1.
          6    1    1    2  501    0  0.58730820200E+02 -0.25092482261E+02  0.39456792856E+03  0.43553621222E+03  0.17300000000E+03 0. -1.
         -6    1    1    2    0  503 -0.58730820200E+02  0.25092482261E+02 -0.12869357301E+03  0.22487769485E+03  0.17300000000E+03 0. -1.
<mgrwt>
<rscale>  2 0.18441242E+03</rscale>
<asrwt>0</asrwt>
<pdfrwt beam="1">  1       21 0.71252943E-01 0.18441242E+03</pdfrwt>
<pdfrwt beam="2">  1       21 0.30349196E-01 0.18441242E+03</pdfrwt>
<totfact> 0.18655659E+04</totfact>
</mgrwt>
</event>
<event>
 4    1  0.4111182E+000  0.1756893E+03  0.7546771E-02  0.1172041E+00
         21   -1    0    0  501  502  0.00000000000E+00  0.00000000000E+00  0.39218528748E+02  0.39218528748E+02  0.00000000000E+00 0.  1.
         21   -1    0    0  502  503 -0.00000000000E+00 -0.00000000000E+00 -0.26511525908E+04  0.26511525908E+04  0.00000000000E+00 0.  1.
          6    1    1    2  501    0 -0.78012354085E+01 -0.29611777245E+02 -0.17798959600E+03  0.25009400815E+03  0.17300000000E+03 0.  1.
         -6    1    1    2    0  503  0.78012354085E+01  0.29611777245E+02 -0.24339444661E+04  0.24402771114E+04  0.17300000000E+03 0.  1.
<mgrwt>
<rscale>  2 0.17568926E+03</rscale>
<asrwt>0</asrwt>
<pdfrwt beam="1">  1       21 0.60336217E-02 0.17568926E+03</pdfrwt>
<pdfrwt beam="2">  1       21 0.40786950E+00 0.17568926E+03</pdfrwt>
<totfact> 0.15609040E+03</totfact>
</mgrwt>
</event>
<event>
 4    1  0.4111182E+000  0.1789847E+03  0.7546771E-02  0.1168789E+00
         21   -1    0    0  503  502  0.00000000000E+00  0.00000000000E+00  0.21212489555E+03  0.21212489555E+03  0.00000000000E+00 0. -1.
         21   -1    0    0  501  503 -0.00000000000E+00 -0.00000000000E+00 -0.15342080019E+03  0.15342080019E+03  0.00000000000E+00 0. -1.
          6    1    1    2  501    0 -0.27887809591E+02  0.36452555009E+02  0.64976540569E+01  0.17910259127E+03  0.17300000000E+03 0. -1.
         -6    1    1    2    0  502  0.27887809591E+02 -0.36452555009E+02  0.52206441299E+02  0.18644310447E+03  0.17300000000E+03 0. -1.
<mgrwt>
<rscale>  2 0.17898469E+03</rscale>
<asrwt>0</asrwt>
<pdfrwt beam="1">  1       21 0.32634600E-01 0.17898469E+03</pdfrwt>
<pdfrwt beam="2">  1       21 0.23603200E-01 0.17898469E+03</pdfrwt>
<totfact> 0.15337125E+05</totfact>
</mgrwt>
</event>
<event>
 4    1  0.4111182E+000  0.1837337E+03  0.7546771E-02  0.1164238E+00
         21   -1    0    0  501  502  0.00000000000E+00  0.00000000000E+00  0.75920283163E+02  0.75920283163E+02  0.00000000000E+00 0. -1.
         21   -1    0    0  502  503 -0.00000000000E+00 -0.00000000000E+00 -0.49197773595E+03  0.49197773595E+03  0.00000000000E+00 0. -1.
          6    1    1    2  501    0  0.56791231249E+02 -0.24572920739E+02 -0.11996068494E+03  0.21942797978E+03  0.17300000000E+03 0.  1.
         -6    1    1    2    0  503 -0.56791231249E+02  0.24572920739E+02 -0.29609676785E+03  0.34847003933E+03  0.17300000000E+03 0.  1.
<mgrwt>
<rscale>  2 0.18373370E+03</rscale>
<asrwt>0</asrwt>
<pdfrwt beam="1">  1       21 0.11680043E-01 0.18373370E+03</pdfrwt>
<pdfrwt beam="2">  1       21 0.75688883E-01 0.18373370E+03</pdfrwt>
<totfact> 0.96274835E+04</totfact>
</mgrwt>
</event>
<event>
 4    1  0.4111182E+000  0.1914662E+03  0.7546771E-02  0.1157146E+00
         21   -1    0    0  503  502  0.00000000000E+00  0.00000000000E+00  0.20861510406E+03  0.20861510406E+03  0.00000000000E+00 0.  1.
         21   -1    0    0  501  503 -0.00000000000E+00 -0.00000000000E+00 -0.29049396377E+03  0.29049396377E+03  0.00000000000E+00 0.  1.
          6    1    1    2  501    0 -0.52983515196E+02 -0.62634262629E+02 -0.19779696220E+03  0.27528701748E+03  0.17300000000E+03 0.  1.
         -6    1    1    2    0  502  0.52983515196E+02  0.62634262629E+02  0.11591810249E+03  0.22382205035E+03  0.17300000000E+03 0.  1.
<mgrwt>
<rscale>  2 0.19146619E+03</rscale>
<asrwt>0</asrwt>
<pdfrwt beam="1">  1       21 0.32094631E-01 0.19146619E+03</pdfrwt>
<pdfrwt beam="2">  1       21 0.44691379E-01 0.19146619E+03</pdfrwt>
<totfact> 0.44906588E+04</totfact>
</mgrwt>
</event>
<event>
 4    1  0.4111182E+000  0.2062823E+03  0.7546771E-02  0.1144544E+00
         21   -1    0    0  501  502  0.00000000000E+00  0.00000000000E+00  0.81421268478E+03  0.81421268478E+03  0.00000000000E+00 0.  1.
         21   -1    0    0  502  503 -0.00000000000E+00 -0.00000000000E+00 -0.52751631789E+02  0.52751631789E+02  0.00000000000E+00 0.  1.
          6    1    1    2  501    0  0.21654097309E+01 -0.11233302413E+03  0.42249244745E+03  0.47016195663E+03  0.17300000000E+03 0.  1.
         -6    1    1    2    0  503 -0.21654097309E+01  0.11233302413E+03  0.33896860554E+03  0.39680235993E+03  0.17300000000E+03 0.  1.
<mgrwt>
<rscale>  2 0.20628232E+03</rscale>
<asrwt>0</asrwt>
<pdfrwt beam="1">  1       21 0.12526348E+00 0.20628232E+03</pdfrwt>
<pdfrwt beam="2">  1       21 0.81156363E-02 0.20628232E+03</pdfrwt>
<totfact> 0.55142561E+04</totfact>
</mgrwt>
</event>
<event>
 4    1  0.4111182E+000  0.2624630E+03  0.7546771E-02  0.1105672E+00
         21   -1    0    0  503  502  0.00000000000E+00  0.00000000000E+00  0.33204583380E+03  0.33204583380E+03  0.00000000000E+00 0.  1.
         21   -1    0    0  501  503 -0.00000000000E+00 -0.00000000000E+00 -0.78917199593E+03  0.78917199593E+03  0.00000000000E+00 0.  1.
          6    1    1    2  501    0  0.21121773075E+02  0.19624397676E+03 -0.70987598285E+03  0.75684261160E+03  0.17300000000E+03 0.  1.
         -6    1    1    2    0  502 -0.21121773075E+02 -0.19624397676E+03  0.25274982071E+03  0.36437521813E+03  0.17300000000E+03 0.  1.
<mgrwt>
<rscale>  2 0.26246300E+03</rscale>
<asrwt>0</asrwt>
<pdfrwt beam="1">  1       21 0.51083975E-01 0.26246300E+03</pdfrwt>
<pdfrwt beam="2">  1       21 0.12141108E+00 0.26246300E+03</pdfrwt>
<totfact> 0.17650710E+03</totfact>
</mgrwt>
</event>
<event>
 4    1  0.4111182E+000  0.1939586E+03  0.7546771E-02  0.1154939E+00
         21   -1    0    0  501  502  0.00000000000E+00  0.00000000000E+00  0.40926863694E+03  0.40926863694E+03  0.00000000000E+00 0.  1.
         21   -1    0    0  502  503 -0.00000000000E+00 -0.00000000000E+00 -0.92202773969E+02  0.92202773969E+02  0.00000000000E+00 0.  1.
          6    1    1    2  501    0  0.46683050202E+02 -0.74240470829E+02  0.17241961276E+03  0.25951585221E+03  0.17300000000E+03 0.  1.
         -6    1    1    2    0  503 -0.46683050202E+02  0.74240470829E+02  0.14464625021E+03  0.24195555870E+03  0.17300000000E+03 0.  1.
<mgrwt>
<rscale>  2 0.19395864E+03</rscale>
<asrwt>0</asrwt>
<pdfrwt beam="1">  1       21 0.62964405E-01 0.19395864E+03</pdfrwt>
<pdfrwt beam="2">  1       21 0.14185042E-01 0.19395864E+03</pdfrwt>
<totfact> 0.10134948E+05</totfact>
</mgrwt>
</event>
<event>
 4    1  0.4111182E+000  0.1802066E+03  0.7546771E-02  0.1167603E+00
         21   -1    0    0  503  502  0.00000000000E+00  0.00000000000E+00  0.17612088850E+03  0.17612088850E+03  0.00000000000E+00 0. -1.
         21   -1    0    0  501  503 -0.00000000000E+00 -0.00000000000E+00 -0.37427792693E+03  0.37427792693E+03  0.00000000000E+00 0.  1.
          6    1    1    2  501    0 -0.50383700540E+02  0.26291312802E+01 -0.29509939125E+03  0.34577171707E+03  0.17300000000E+03 0.  1.
         -6    1    1    2    0  502  0.50383700540E+02 -0.26291312802E+01  0.96942352825E+02  0.20462709836E+03  0.17300000000E+03 0. -1.
<mgrwt>
<rscale>  2 0.18020663E+03</rscale>
<asrwt>0</asrwt>
<pdfrwt beam="1">  1       21 0.27095522E-01 0.18020663E+03</pdfrwt>
<pdfrwt beam="2">  1       21 0.57581219E-01 0.18020663E+03</pdfrwt>
<totfact> 0.36967389E+04</totfact>
</mgrwt>
</event>
<event>
 4    1  0.4111182E+000  0.2184136E+03  0.7546771E-02  0.1135071E+00
         21   -1    0    0  501  502  0.00000000000E+00  0.00000000000E+00  0.17954895294E+04  0.17954895294E+04  0.00000000000E+00 0. -1.
         21   -1    0    0  502  503 -0.00000000000E+00 -0.00000000000E+00 -0.35578494800E+02  0.35578494800E+02  0.00000000000E+00 0. -1.
          6    1    1    2  501    0 -0.13331767557E+03 -0.13710266855E+01  0.13406672714E+04  0.13583420832E+04  0.17300000000E+03 0. -1.
         -6    1    1    2    0  503  0.13331767557E+03  0.13710266855E+01  0.41924376324E+03  0.47272594106E+03  0.17300000000E+03 0. -1.
<mgrwt>
<rscale>  2 0.21841356E+03</rscale>
<asrwt>0</asrwt>
<pdfrwt beam="1">  1       21 0.27622909E+00 0.21841356E+03</pdfrwt>
<pdfrwt beam="2">  1       21 0.54736160E-02 0.21841356E+03</pdfrwt>
<totfact> 0.10526092E+04</totfact>
</mgrwt>
</event>
<event>
 4    1  0.4111182E+000  0.2752508E+03  0.7546771E-02  0.1098311E+00
         21   -1    0    0  503  502  0.00000000000E+00  0.00000000000E+00  0.70342955863E+02  0.70342955863E+02  0.00000000000E+00 0.  1.
         21   -1    0    0  501  503 -0.00000000000E+00 -0.00000000000E+00 -0.12305006911E+04  0.12305006911E+04  0.00000000000E+00 0. -1.
          6    1    1    2  501    0 -0.16561202236E+03  0.13567118178E+03 -0.80976562920E+03  0.85526801983E+03  0.17300000000E+03 0. -1.
         -6    1    1    2    0  502  0.16561202236E+03 -0.13567118178E+03 -0.35039210603E+03  0.44557562712E+03  0.17300000000E+03 0. -1.
<mgrwt>
<rscale>  2 0.27525082E+03</rscale>
<asrwt>0</asrwt>
<pdfrwt beam="1">  1       21 0.10821994E-01 0.27525082E+03</pdfrwt>
<pdfrwt beam="2">  1       21 0.18930778E+00 0.27525082E+03</pdfrwt>
<totfact> 0.10498028E+04</totfact>
</mgrwt>
</event>
<event>
 4    1  0.4111182E+000  0.1912907E+03  0.7546771E-02  0.1157302E+00
         21   -1    0    0  503  502  0.00000000000E+00  0.00000000000E+00  0.56635474736E+03  0.56635474736E+03  0.00000000000E+00 0.  1.
         21   -1    0    0  501  503 -0.00000000000E+00 -0.00000000000E+00 -0.70215865178E+02  0.70215865178E+02  0.00000000000E+00 0.  1.
          6    1    1    2  501    0 -0.81345230523E+02 -0.67893861461E+01  0.33800322839E+03  0.38837909920E+03  0.17300000000E+03 0.  1.
         -6    1    1    2    0  502  0.81345230523E+02  0.67893861461E+01  0.15813565379E+03  0.24819151334E+03  0.17300000000E+03 0.  1.
<mgrwt>
<rscale>  2 0.19129073E+03</rscale>
<asrwt>0</asrwt>
<pdfrwt beam="1">  1       21 0.87131497E-01 0.19129073E+03</pdfrwt>
<pdfrwt beam="2">  1       21 0.10802441E-01 0.19129073E+03</pdfrwt>
<totfact> 0.80174628E+04</totfact>
</mgrwt>
</event>
<event>
 4    1  0.4111182E+000  0.3200399E+03  0.7546771E-02  0.1075631E+00
         21   -1    0    0  501  502  0.00000000000E+00  0.00000000000E+00  0.10978382400E+03  0.10978382400E+03  0.00000000000E+00 0. -1.
         21   -1    0    0  502  503 -0.00000000000E+00 -0.00000000000E+00 -0.12179758376E+04  0.12179758376E+04  0.00000000000E+00 0.  1.
          6    1    1    2  501    0 -0.15446833227E+03  0.22053588522E+03 -0.23295678466E+03  0.39584644228E+03  0.17300000000E+03 0. -1.
         -6    1    1    2    0  503  0.15446833227E+03 -0.22053588522E+03 -0.87523522890E+03  0.93191321927E+03  0.17300000000E+03 0. -1.
<mgrwt>
<rscale>  2 0.32003991E+03</rscale>
<asrwt>0</asrwt>
<pdfrwt beam="1">  1       21 0.16889818E-01 0.32003991E+03</pdfrwt>
<pdfrwt beam="2">  1       21 0.18738091E+00 0.32003991E+03</pdfrwt>
<totfact> 0.46829022E+03</totfact>
</mgrwt>
</event>
<event>
 4    1  0.4111182E+000  0.2163163E+03  0.7546771E-02  0.1136660E+00
         21   -1    0    0  503  502  0.00000000000E+00  0.00000000000E+00  0.29791371255E+03  0.29791371255E+03  0.00000000000E+00 0. -1.
         21   -1    0    0  501  503 -0.00000000000E+00 -0.00000000000E+00 -0.21053232238E+03  0.21053232238E+03  0.00000000000E+00 0. -1.
          6    1    1    2  501    0  0.11690075120E+03  0.56550537793E+02 -0.84420474062E+02  0.23220586857E+03  0.17300000000E+03 0.  1.
         -6    1    1    2    0  502 -0.11690075120E+03 -0.56550537793E+02  0.17180186424E+03  0.27624016636E+03  0.17300000000E+03 0.  1.
<mgrwt>
<rscale>  2 0.21631632E+03</rscale>
<asrwt>0</asrwt>
<pdfrwt beam="1">  1       21 0.45832879E-01 0.21631632E+03</pdfrwt>
<pdfrwt beam="2">  1       21 0.32389588E-01 0.21631632E+03</pdfrwt>
<totfact> 0.41360429E+04</totfact>
</mgrwt>
</event>
<event>
 4    1  0.4111182E+000  0.2226247E+03  0.7546771E-02  0.1131941E+00
         21   -1    0    0  501  502  0.00000000000E+00  0.00000000000E+00  0.93272757678E+03  0.93272757678E+03  0.00000000000E+00 0.  1.
         21   -1    0    0  502  503 -0.00000000000E+00 -0.00000000000E+00 -0.31344331469E+03  0.31344331469E+03  0.00000000000E+00 0.  1.
          6    1    1    2  501    0 -0.13992387812E+03  0.73521636328E+01  0.87746252812E+03  0.90526362692E+03  0.17300000000E+03 0.  1.
         -6    1    1    2    0  503  0.13992387812E+03 -0.73521636328E+01 -0.25817826603E+03  0.34090726456E+03  0.17300000000E+03 0.  1.
<mgrwt>
<rscale>  2 0.22262468E+03</rscale>
<asrwt>0</asrwt>
<pdfrwt beam="1">  1       21 0.14349655E+00 0.22262468E+03</pdfrwt>
<pdfrwt beam="2">  1       21 0.48222049E-01 0.22262468E+03</pdfrwt>
<totfact> 0.13401977E+03</totfact>
</mgrwt>
</event>
<event>
 4    1  0.4111182E+000  0.1821115E+03  0.7546771E-02  0.1165775E+00
         21   -1    0    0  503  502  0.00000000000E+00  0.00000000000E+00  0.17178649849E+03  0.17178649849E+03  0.00000000000E+00 0.  1.
         21   -1    0    0  501  503 -0.00000000000E+00 -0.00000000000E+00 -0.23616326909E+03  0.23616326909E+03  0.00000000000E+00 0.  1.
          6    1    1    2  501    0 -0.12121542669E+02 -0.55575899168E+02 -0.11933288166E+03  0.21772677605E+03  0.17300000000E+03 0. -1.
         -6    1    1    2    0  502  0.12121542669E+02  0.55575899168E+02  0.54956111050E+02  0.19022299153E+03  0.17300000000E+03 0. -1.
<mgrwt>
<rscale>  2 0.18211154E+03</rscale>
<asrwt>0</asrwt>
<pdfrwt beam="1">  1       21 0.26428692E-01 0.18211154E+03</pdfrwt>
<pdfrwt beam="2">  1       21 0.36332810E-01 0.18211154E+03</pdfrwt>
<totfact> 0.99878640E+04</totfact>
</mgrwt>
</event>
<event>
 4    1  0.4111182E+000  0.1862235E+03  0.7546771E-02  0.1161912E+00
         21   -1    0    0  501  502  0.00000000000E+00  0.00000000000E+00  0.23986267157E+03  0.23986267157E+03  0.00000000000E+00 0.  1.
         21   -1    0    0  502  503 -0.00000000000E+00 -0.00000000000E+00 -0.17635440727E+03  0.17635440727E+03  0.00000000000E+00 0.  1.
          6    1    1    2  501    0  0.55879294935E+02 -0.40344598484E+02  0.12009061638E+03  0.22158731546E+03  0.17300000000E+03 0.  1.
         -6    1    1    2    0  503 -0.55879294935E+02  0.40344598484E+02 -0.56582352079E+02  0.19462976339E+03  0.17300000000E+03 0.  1.
<mgrwt>
<rscale>  2 0.18622347E+03</rscale>
<asrwt>0</asrwt>
<pdfrwt beam="1">  1       21 0.36901950E-01 0.18622347E+03</pdfrwt>
<pdfrwt beam="2">  1       21 0.27131447E-01 0.18622347E+03</pdfrwt>
<totfact> 0.91926980E+04</totfact>
</mgrwt>
</event>
<event>
 4    1  0.4111182E+000  0.1963878E+03  0.7546771E-02  0.1152823E+00
         21   -1    0    0  503  502  0.00000000000E+00  0.00000000000E+00  0.61461232801E+03  0.61461232801E+03  0.00000000000E+00 0.  1.
         21   -1    0    0  501  503 -0.00000000000E+00 -0.00000000000E+00 -0.70338113208E+02  0.70338113208E+02  0.00000000000E+00 0.  1.
          6    1    1    2  501    0  0.85504549976E+02  0.36443391008E+02  0.15966530820E+03  0.25310306094E+03  0.17300000000E+03 0.  1.
         -6    1    1    2    0  502 -0.85504549976E+02 -0.36443391008E+02  0.38460890660E+03  0.43184738027E+03  0.17300000000E+03 0.  1.
<mgrwt>
<rscale>  2 0.19638775E+03</rscale>
<asrwt>0</asrwt>
<pdfrwt beam="1">  1       21 0.94555739E-01 0.19638775E+03</pdfrwt>
<pdfrwt beam="2">  1       21 0.10821249E-01 0.19638775E+03</pdfrwt>
<totfact> 0.65965891E+04</totfact>
</mgrwt>
</event>
<event>
 4    1  0.4111182E+000  0.2368758E+03  0.7546771E-02  0.1121892E+00
         21   -1    0    0  503  502  0.00000000000E+00  0.00000000000E+00  0.23764938379E+03  0.23764938379E+03  0.00000000000E+00 0.  1.
         21   -1    0    0  501  503 -0.00000000000E+00 -0.00000000000E+00 -0.45588286985E+03  0.45588286985E+03  0.00000000000E+00 0.  1.
          6    1    1    2  501    0  0.10212569646E+03  0.12550484775E+03 -0.34988673381E+03  0.42252911282E+03  0.17300000000E+03 0.  1.
         -6    1    1    2    0  502 -0.10212569646E+03 -0.12550484775E+03  0.13165324776E+03  0.27100314081E+03  0.17300000000E+03 0.  1.
<mgrwt>
<rscale>  2 0.23687576E+03</rscale>
<asrwt>0</asrwt>
<pdfrwt beam="1">  1       21 0.36561445E-01 0.23687576E+03</pdfrwt>
<pdfrwt beam="2">  1       21 0.70135825E-01 0.23687576E+03</pdfrwt>
<totfact> 0.12954217E+04</totfact>
</mgrwt>
</event>
<event>
 4    1  0.4111182E+000  0.2039453E+03  0.7546771E-02  0.1146452E+00
         21   -1    0    0  501  502  0.00000000000E+00  0.00000000000E+00  0.46684895716E+03  0.46684895716E+03  0.00000000000E+00 0.  1.
         21   -1    0    0  502  503 -0.00000000000E+00 -0.00000000000E+00 -0.12553855823E+03  0.12553855823E+03  0.00000000000E+00 0.  1.
          6    1    1    2  501    0  0.10684389904E+03 -0.15781874885E+02  0.33024331517E+03  0.38814215637E+03  0.17300000000E+03 0.  1.
         -6    1    1    2    0  503 -0.10684389904E+03  0.15781874885E+02  0.11067083760E+02  0.20424535902E+03  0.17300000000E+03 0.  1.
<mgrwt>
<rscale>  2 0.20394530E+03</rscale>
<asrwt>0</asrwt>
<pdfrwt beam="1">  1       21 0.71822915E-01 0.20394530E+03</pdfrwt>
<pdfrwt beam="2">  1       21 0.19313625E-01 0.20394530E+03</pdfrwt>
<totfact> 0.42878338E+04</totfact>
</mgrwt>
</event>
<event>
 4    1  0.4111182E+000  0.1810000E+03  0.7546771E-02  0.1166839E+00
         21   -1    0    0  503  502  0.00000000000E+00  0.00000000000E+00  0.71848972867E+03  0.71848972867E+03  0.00000000000E+00 0. -1.
         21   -1    0    0  501  503 -0.00000000000E+00 -0.00000000000E+00 -0.50947443831E+02  0.50947443831E+02  0.00000000000E+00 0. -1.
          6    1    1    2  501    0 -0.45214309621E+01 -0.53024068478E+02  0.20909716956E+03  0.27655491588E+03  0.17300000000E+03 0. -1.
         -6    1    1    2    0  502  0.45214309621E+01  0.53024068478E+02  0.45844511528E+03  0.49288225663E+03  0.17300000000E+03 0. -1.
<mgrwt>
<rscale>  2 0.18099999E+03</rscale>
<asrwt>0</asrwt>
<pdfrwt beam="1">  1       21 0.11053687E+00 0.18099999E+03</pdfrwt>
<pdfrwt beam="2">  1       21 0.78380688E-02 0.18099999E+03</pdfrwt>
<totfact> 0.80681211E+04</totfact>
</mgrwt>
</event>
<event>
 4    1  0.4111182E+000  0.2236437E+03  0.7546771E-02  0.1131195E+00
         21   -1    0    0  503  502  0.00000000000E+00  0.00000000000E+00  0.19036661370E+04  0.19036661370E+04  0.00000000000E+00 0. -1.
         21   -1    0    0  501  503 -0.00000000000E+00 -0.00000000000E+00 -0.16342979817E+03  0.16342979817E+03  0.00000000000E+00 0. -1.
          6    1    1    2  501    0  0.12334200779E+03 -0.69815851537E+02 -0.76712790818E+02  0.23643467658E+03  0.17300000000E+03 0. -1.
         -6    1    1    2    0  502 -0.12334200779E+03  0.69815851537E+02  0.18169491296E+04  0.18306612586E+04  0.17300000000E+03 0. -1.
<mgrwt>
<rscale>  2 0.22364370E+03</rscale>
<asrwt>0</asrwt>
<pdfrwt beam="1">  1       21 0.29287170E+00 0.22364370E+03</pdfrwt>
<pdfrwt beam="2">  1       21 0.25143047E-01 0.22364370E+03</pdfrwt>
<totfact> 0.53953912E+02</totfact>
</mgrwt>
</event>
<event>
 4    1  0.4111182E+000  0.2123047E+03  0.7546771E-02  0.1139754E+00
         21   -1    0    0  503  502  0.00000000000E+00  0.00000000000E+00  0.52718328409E+03  0.52718328409E+03  0.00000000000E+00 0. -1.
         21   -1    0    0  501  503 -0.00000000000E+00 -0.00000000000E+00 -0.28794217356E+03  0.28794217356E+03  0.00000000000E+00 0. -1.
          6    1    1    2  501    0 -0.68985342582E+02  0.10190837367E+03 -0.22211809638E+03  0.30726168465E+03  0.17300000000E+03 0. -1.
         -6    1    1    2    0  502  0.68985342582E+02 -0.10190837367E+03  0.46135920692E+03  0.50786377300E+03  0.17300000000E+03 0. -1.
<mgrwt>
<rscale>  2 0.21230472E+03</rscale>
<asrwt>0</asrwt>
<pdfrwt beam="1">  1       21 0.81105121E-01 0.21230472E+03</pdfrwt>
<pdfrwt beam="2">  1       21 0.44298796E-01 0.21230472E+03</pdfrwt>
<totfact> 0.64312173E+03</totfact>
</mgrwt>
</event>
<event>
 4    1  0.4111182E+000  0.4687052E+03  0.7546771E-02  0.1022286E+00
         21   -1    0    0  501  502  0.00000000000E+00  0.00000000000E+00  0.47275789309E+03  0.47275789309E+03  0.00000000000E+00 0.  1.
         21   -1    0    0  502  503 -0.00000000000E+00 -0.00000000000E+00 -0.77302657986E+03  0.77302657986E+03  0.00000000000E+00 0. -1.
          6    1    1    2  501    0 -0.11026323827E+03  0.42142329287E+03  0.24326185097E+03  0.52807281849E+03  0.17300000000E+03 0. -1.
         -6    1    1    2    0  503  0.11026323827E+03 -0.42142329287E+03 -0.54353053775E+03  0.71771165446E+03  0.17300000000E+03 0.  1.
<mgrwt>
<rscale>  2 0.46870521E+03</rscale>
<asrwt>0</asrwt>
<pdfrwt beam="1">  1       21 0.72731985E-01 0.46870521E+03</pdfrwt>
<pdfrwt beam="2">  1       21 0.11892716E+00 0.46870521E+03</pdfrwt>
<totfact> 0.77007549E+02</totfact>
</mgrwt>
</event>
<event>
 4    1  0.4111182E+000  0.1748096E+03  0.7546771E-02  0.1172923E+00
         21   -1    0    0  503  502  0.00000000000E+00  0.00000000000E+00  0.23812557041E+03  0.23812557041E+03  0.00000000000E+00 0.  1.
         21   -1    0    0  501  503 -0.00000000000E+00 -0.00000000000E+00 -0.14229485472E+03  0.14229485472E+03  0.00000000000E+00 0.  1.
          6    1    1    2  501    0 -0.55285843256E+01 -0.24471199465E+02 -0.11674691069E+02  0.17519903898E+03  0.17300000000E+03 0.  1.
         -6    1    1    2    0  502  0.55285843256E+01  0.24471199465E+02  0.10750540676E+03  0.20522138614E+03  0.17300000000E+03 0.  1.
<mgrwt>
<rscale>  2 0.17480962E+03</rscale>
<asrwt>0</asrwt>
<pdfrwt beam="1">  1       21 0.36634703E-01 0.17480962E+03</pdfrwt>
<pdfrwt beam="2">  1       21 0.21891516E-01 0.17480962E+03</pdfrwt>
<totfact> 0.14084291E+05</totfact>
</mgrwt>
</event>
<event>
 4    1  0.4111182E+000  0.3362832E+03  0.7546771E-02  0.1068390E+00
         21   -1    0    0  501  502  0.00000000000E+00  0.00000000000E+00  0.16205939507E+03  0.16205939507E+03  0.00000000000E+00 0.  1.
         21   -1    0    0  502  503 -0.00000000000E+00 -0.00000000000E+00 -0.10139890805E+04  0.10139890805E+04  0.00000000000E+00 0. -1.
          6    1    1    2  501    0 -0.14981390032E+03 -0.24640047649E+03 -0.97607837658E+02  0.35016237593E+03  0.17300000000E+03 0.  1.
         -6    1    1    2    0  503  0.14981390032E+03  0.24640047649E+03 -0.75432184779E+03  0.82588609965E+03  0.17300000000E+03 0. -1.
<mgrwt>
<rscale>  2 0.33628321E+03</rscale>
<asrwt>0</asrwt>
<pdfrwt beam="1">  1       21 0.24932215E-01 0.33628321E+03</pdfrwt>
<pdfrwt beam="2">  1       21 0.15599832E+00 0.33628321E+03</pdfrwt>
<totfact> 0.37248358E+03</totfact>
</mgrwt>
</event>
<event>
 4    1  0.4111182E+000  0.2195458E+03  0.7546771E-02  0.1134222E+00
         21   -1    0    0  503  502  0.00000000000E+00  0.00000000000E+00  0.10559557768E+04  0.10559557768E+04  0.00000000000E+00 0.  1.
         21   -1    0    0  501  503 -0.00000000000E+00 -0.00000000000E+00 -0.66869492578E+02  0.66869492578E+02  0.00000000000E+00 0.  1.
          6    1    1    2  501    0  0.10360596493E+03  0.86816906339E+02  0.17826110767E+03  0.28280274699E+03  0.17300000000E+03 0.  1.
         -6    1    1    2    0  502 -0.10360596493E+03 -0.86816906339E+02  0.81082517650E+03  0.84002252234E+03  0.17300000000E+03 0.  1.
<mgrwt>
<rscale>  2 0.21954583E+03</rscale>
<asrwt>0</asrwt>
<pdfrwt beam="1">  1       21 0.16245472E+00 0.21954583E+03</pdfrwt>
<pdfrwt beam="2">  1       21 0.10287615E-01 0.21954583E+03</pdfrwt>
<totfact> 0.18303229E+04</totfact>
</mgrwt>
</event>
<event>
 4    1  0.4111182E+000  0.2347224E+03  0.7546771E-02  0.1123359E+00
         21   -1    0    0  501  502  0.00000000000E+00  0.00000000000E+00  0.98286458564E+02  0.98286458564E+02  0.00000000000E+00 0. -1.
         21   -1    0    0  502  503 -0.00000000000E+00 -0.00000000000E+00 -0.59312584001E+03  0.59312584001E+03  0.00000000000E+00 0. -1.
          6    1    1    2  501    0  0.79064815841E+01  0.15843960957E+03 -0.16640356755E+03  0.28772342557E+03  0.17300000000E+03 0. -1.
         -6    1    1    2    0  503 -0.79064815841E+01 -0.15843960957E+03 -0.32843581389E+03  0.40368887300E+03  0.17300000000E+03 0. -1.
<mgrwt>
<rscale>  2 0.23472244E+03</rscale>
<asrwt>0</asrwt>
<pdfrwt beam="1">  1       21 0.15120993E-01 0.23472244E+03</pdfrwt>
<pdfrwt beam="2">  1       21 0.91250131E-01 0.23472244E+03</pdfrwt>
<totfact> 0.38507346E+04</totfact>
</mgrwt>
</event>
<event>
 4    1  0.4111182E+000  0.2900180E+03  0.7546771E-02  0.1090340E+00
         21   -1    0    0  503  502  0.00000000000E+00  0.00000000000E+00  0.81560730309E+02  0.81560730309E+02  0.00000000000E+00 0. -1.
         21   -1    0    0  501  503 -0.00000000000E+00 -0.00000000000E+00 -0.23495189988E+04  0.23495189988E+04  0.00000000000E+00 0.  1.
          6    1    1    2  501    0 -0.10812584203E+03 -0.20613167789E+03 -0.20444788196E+04  0.20649465150E+04  0.17300000000E+03 0.  1.
         -6    1    1    2    0  502  0.10812584203E+03  0.20613167789E+03 -0.22347944892E+03  0.36613321405E+03  0.17300000000E+03 0. -1.
<mgrwt>
<rscale>  2 0.29001804E+03</rscale>
<asrwt>0</asrwt>
<pdfrwt beam="1">  1       21 0.12547806E-01 0.29001804E+03</pdfrwt>
<pdfrwt beam="2">  1       21 0.36146442E+00 0.29001804E+03</pdfrwt>
<totfact> 0.71913406E+02</totfact>
</mgrwt>
</event>
<event>
 4    1  0.4111182E+000  0.1813952E+03  0.7546771E-02  0.1166460E+00
         21   -1    0    0  501  502  0.00000000000E+00  0.00000000000E+00  0.17386560453E+02  0.17386560453E+02  0.00000000000E+00 0. -1.
         21   -1    0    0  502  503 -0.00000000000E+00 -0.00000000000E+00 -0.25960741879E+04  0.25960741879E+04  0.00000000000E+00 0. -1.
          6    1    1    2  501    0  0.51447963681E+02  0.18119436980E+02 -0.60907607199E+03  0.63551386172E+03  0.17300000000E+03 0. -1.
         -6    1    1    2    0  503 -0.51447963681E+02 -0.18119436980E+02 -0.19696115554E+04  0.19779468866E+04  0.17300000000E+03 0. -1.
<mgrwt>
<rscale>  2 0.18139517E+03</rscale>
<asrwt>0</asrwt>
<pdfrwt beam="1">  1       21 0.26748561E-02 0.18139517E+03</pdfrwt>
<pdfrwt beam="2">  1       21 0.39939594E+00 0.18139517E+03</pdfrwt>
<totfact> 0.68251697E+03</totfact>
</mgrwt>
</event>
<event>
 4    1  0.4111182E+000  0.1878137E+03  0.7546771E-02  0.1160448E+00
         21   -1    0    0  501  502  0.00000000000E+00  0.00000000000E+00  0.34481117873E+03  0.34481117873E+03  0.00000000000E+00 0.  1.
         21   -1    0    0  502  503 -0.00000000000E+00 -0.00000000000E+00 -0.12534843795E+03  0.12534843795E+03  0.00000000000E+00 0. -1.
          6    1    1    2  501    0 -0.70013711052E+02 -0.21049047994E+02  0.21053638041E+03  0.28213392145E+03  0.17300000000E+03 0.  1.
         -6    1    1    2    0  503  0.70013711052E+02  0.21049047994E+02  0.89263603766E+01  0.18802569523E+03  0.17300000000E+03 0. -1.
<mgrwt>
<rscale>  2 0.18781369E+03</rscale>
<asrwt>0</asrwt>
<pdfrwt beam="1">  1       21 0.53047873E-01 0.18781369E+03</pdfrwt>
<pdfrwt beam="2">  1       21 0.19284375E-01 0.18781369E+03</pdfrwt>
<totfact> 0.83330133E+04</totfact>
</mgrwt>
</event>
<event>
 4    1  0.4111182E+000  0.2132106E+03  0.7546771E-02  0.1139049E+00
         21   -1    0    0  503  502  0.00000000000E+00  0.00000000000E+00  0.27541314018E+03  0.27541314018E+03  0.00000000000E+00 0.  1.
         21   -1    0    0  501  503 -0.00000000000E+00 -0.00000000000E+00 -0.35312571450E+03  0.35312571450E+03  0.00000000000E+00 0.  1.
          6    1    1    2  501    0  0.10401966277E+03 -0.68626910348E+02 -0.26820497431E+03  0.34262611009E+03  0.17300000000E+03 0.  1.
         -6    1    1    2    0  502 -0.10401966277E+03  0.68626910348E+02  0.19049239999E+03  0.28591274459E+03  0.17300000000E+03 0.  1.
<mgrwt>
<rscale>  2 0.21321056E+03</rscale>
<asrwt>0</asrwt>
<pdfrwt beam="1">  1       21 0.42371252E-01 0.21321056E+03</pdfrwt>
<pdfrwt beam="2">  1       21 0.54327033E-01 0.21321056E+03</pdfrwt>
<totfact> 0.16943363E+04</totfact>
</mgrwt>
</event>
<event>
 4    1  0.4111182E+000  0.2541291E+03  0.7546771E-02  0.1110723E+00
         21   -1    0    0  501  502  0.00000000000E+00  0.00000000000E+00  0.72248079279E+02  0.72248079279E+02  0.00000000000E+00 0. -1.
         21   -1    0    0  502  503 -0.00000000000E+00 -0.00000000000E+00 -0.10403766636E+04  0.10403766636E+04  0.00000000000E+00 0.  1.
          6    1    1    2  501    0  0.51418219056E+02  0.17890989214E+03 -0.27531373264E+03  0.37467216888E+03  0.17300000000E+03 0. -1.
         -6    1    1    2    0  503 -0.51418219056E+02 -0.17890989214E+03 -0.69281485165E+03  0.73795257396E+03  0.17300000000E+03 0.  1.
<mgrwt>
<rscale>  2 0.25412907E+03</rscale>
<asrwt>0</asrwt>
<pdfrwt beam="1">  1       21 0.11115090E-01 0.25412907E+03</pdfrwt>
<pdfrwt beam="2">  1       21 0.16005794E+00 0.25412907E+03</pdfrwt>
<totfact> 0.16264070E+04</totfact>
</mgrwt>
</event>
<event>
 4    1  0.4111182E+000  0.1784070E+03  0.7546771E-02  0.1169354E+00
         21   -1    0    0  501  502  0.00000000000E+00  0.00000000000E+00  0.31564154642E+03  0.31564154642E+03  0.00000000000E+00 0. -1.
         21   -1    0    0  502  503 -0.00000000000E+00 -0.00000000000E+00 -0.12240013591E+03  0.12240013591E+03  0.00000000000E+00 0.  1.
          6    1    1    2  501    0 -0.41825299885E+02  0.12275912303E+02  0.18854448880E+03  0.25957287607E+03  0.17300000000E+03 0. -1.
         -6    1    1    2    0  503  0.41825299885E+02 -0.12275912303E+02  0.46969217077E+01  0.17846880626E+03  0.17300000000E+03 0.  1.
<mgrwt>
<rscale>  2 0.17840699E+03</rscale>
<asrwt>0</asrwt>
<pdfrwt beam="1">  1       21 0.48560238E-01 0.17840699E+03</pdfrwt>
<pdfrwt beam="2">  1       21 0.18830790E-01 0.17840699E+03</pdfrwt>
<totfact> 0.10512503E+05</totfact>
</mgrwt>
</event>
<event>
 4    1  0.4111182E+000  0.1800899E+03  0.7546771E-02  0.1167716E+00
         21   -1    0    0  501  502  0.00000000000E+00  0.00000000000E+00  0.17154442057E+03  0.17154442057E+03  0.00000000000E+00 0. -1.
         21   -1    0    0  502  503 -0.00000000000E+00 -0.00000000000E+00 -0.27084427542E+03  0.27084427542E+03  0.00000000000E+00 0. -1.
          6    1    1    2  501    0 -0.46588744491E+02 -0.18244651398E+02  0.71897607516E+02  0.19391143438E+03  0.17300000000E+03 0. -1.
         -6    1    1    2    0  503  0.46588744491E+02  0.18244651398E+02 -0.17119746236E+03  0.24847726161E+03  0.17300000000E+03 0. -1.
<mgrwt>
<rscale>  2 0.18008992E+03</rscale>
<asrwt>0</asrwt>
<pdfrwt beam="1">  1       21 0.26391449E-01 0.18008992E+03</pdfrwt>
<pdfrwt beam="2">  1       21 0.41668350E-01 0.18008992E+03</pdfrwt>
<totfact> 0.76107786E+04</totfact>
</mgrwt>
</event>
<event>
 4    1  0.4111182E+000  0.2437399E+03  0.7546771E-02  0.1117326E+00
         21   -1    0    0  503  502  0.00000000000E+00  0.00000000000E+00  0.12978569349E+03  0.12978569349E+03  0.00000000000E+00 0. -1.
         21   -1    0    0  501  503 -0.00000000000E+00 -0.00000000000E+00 -0.46918479250E+03  0.46918479250E+03  0.00000000000E+00 0.  1.
          6    1    1    2  501    0  0.13249192342E+03 -0.10920627428E+03 -0.12294124748E+03  0.27299023874E+03  0.17300000000E+03 0.  1.
         -6    1    1    2    0  502 -0.13249192342E+03  0.10920627428E+03 -0.21645785153E+03  0.32598024726E+03  0.17300000000E+03 0.  1.
<mgrwt>
<rscale>  2 0.24373986E+03</rscale>
<asrwt>0</asrwt>
<pdfrwt beam="1">  1       21 0.19967030E-01 0.24373986E+03</pdfrwt>
<pdfrwt beam="2">  1       21 0.72182276E-01 0.24373986E+03</pdfrwt>
<totfact> 0.39107950E+04</totfact>
</mgrwt>
</event>
<event>
 4    1  0.4111182E+000  0.2335386E+03  0.7546771E-02  0.1124174E+00
         21   -1    0    0  503  502  0.00000000000E+00  0.00000000000E+00  0.14776200022E+03  0.14776200022E+03  0.00000000000E+00 0.  1.
         21   -1    0    0  501  503 -0.00000000000E+00 -0.00000000000E+00 -0.78536225928E+03  0.78536225928E+03  0.00000000000E+00 0.  1.
          6    1    1    2  501    0 -0.13999345419E+03  0.70803484301E+02 -0.65846703647E+03  0.69865523595E+03  0.17300000000E+03 0.  1.
         -6    1    1    2    0  502  0.13999345419E+03 -0.70803484301E+02  0.20866777415E+02  0.23446902355E+03  0.17300000000E+03 0.  1.
<mgrwt>
<rscale>  2 0.23353865E+03</rscale>
<asrwt>0</asrwt>
<pdfrwt beam="1">  1       21 0.22732616E-01 0.23353865E+03</pdfrwt>
<pdfrwt beam="2">  1       21 0.12082496E+00 0.23353865E+03</pdfrwt>
<totfact> 0.91592956E+03</totfact>
</mgrwt>
</event>
<event>
 4    1  0.4111182E+000  0.1787320E+03  0.7546771E-02  0.1169036E+00
         21   -1    0    0  501  502  0.00000000000E+00  0.00000000000E+00  0.59230794867E+02  0.59230794867E+02  0.00000000000E+00 0. -1.
         21   -1    0    0  502  503 -0.00000000000E+00 -0.00000000000E+00 -0.11217729622E+04  0.11217729622E+04  0.00000000000E+00 0. -1.
          6    1    1    2  501    0  0.44890041676E+02  0.10116130505E+01 -0.10577626542E+03  0.20768668115E+03  0.17300000000E+03 0. -1.
         -6    1    1    2    0  503 -0.44890041676E+02 -0.10116130505E+01 -0.95676590195E+03  0.97331707595E+03  0.17300000000E+03 0. -1.
<mgrwt>
<rscale>  2 0.17873203E+03</rscale>
<asrwt>0</asrwt>
<pdfrwt beam="1">  1       21 0.91124299E-02 0.17873203E+03</pdfrwt>
<pdfrwt beam="2">  1       21 0.17258046E+00 0.17873203E+03</pdfrwt>
<totfact> 0.19761118E+04</totfact>
</mgrwt>
</event>
<event>
 4    1  0.4111182E+000  0.3648647E+03  0.7546771E-02  0.1056674E+00
         21   -1    0    0  503  502  0.00000000000E+00  0.00000000000E+00  0.67442410452E+03  0.67442410452E+03  0.00000000000E+00 0. -1.
         21   -1    0    0  501  503 -0.00000000000E+00 -0.00000000000E+00 -0.19768071119E+03  0.19768071119E+03  0.00000000000E+00 0.  1.
          6    1    1    2  501    0 -0.15126132452E+03  0.28340302757E+03  0.25502142609E+03  0.44515412173E+03  0.17300000000E+03 0. -1.
         -6    1    1    2    0  502  0.15126132452E+03 -0.28340302757E+03  0.22172196725E+03  0.42695069398E+03  0.17300000000E+03 0. -1.
<mgrwt>
<rscale>  2 0.36486472E+03</rscale>
<asrwt>0</asrwt>
<pdfrwt beam="1">  1       21 0.10375755E+00 0.36486472E+03</pdfrwt>
<pdfrwt beam="2">  1       21 0.30412417E-01 0.36486472E+03</pdfrwt>
<totfact> 0.71015390E+03</totfact>
</mgrwt>
</event>
<event>
 4    1  0.4111182E+000  0.2250077E+03  0.7546771E-02  0.1130204E+00
         21   -1    0    0  503  502  0.00000000000E+00  0.00000000000E+00  0.10047509402E+03  0.10047509402E+03  0.00000000000E+00 0. -1.
         21   -1    0    0  501  503 -0.00000000000E+00 -0.00000000000E+00 -0.54789979510E+03  0.54789979510E+03  0.00000000000E+00 0.  1.
          6    1    1    2  501    0  0.80862835797E+02 -0.11899851573E+03 -0.31559168655E+03  0.38759070884E+03  0.17300000000E+03 0.  1.
         -6    1    1    2    0  502 -0.80862835797E+02  0.11899851573E+03 -0.13183301453E+03  0.26078418027E+03  0.17300000000E+03 0. -1.
<mgrwt>
<rscale>  2 0.22500766E+03</rscale>
<asrwt>0</asrwt>
<pdfrwt beam="1">  1       21 0.15457707E-01 0.22500766E+03</pdfrwt>
<pdfrwt beam="2">  1       21 0.84292277E-01 0.22500766E+03</pdfrwt>
<totfact> 0.44636272E+04</totfact>
</mgrwt>
</event>
<event>
 4    1  0.4111182E+000  0.2159691E+03  0.7546771E-02  0.1136924E+00
         21   -1    0    0  503  502  0.00000000000E+00  0.00000000000E+00  0.36453762929E+02  0.36453762929E+02  0.00000000000E+00 0. -1.
         21   -1    0    0  501  503 -0.00000000000E+00 -0.00000000000E+00 -0.19804559373E+04  0.19804559373E+04  0.00000000000E+00 0.  1.
          6    1    1    2  501    0 -0.22325972134E+02 -0.12733887565E+03 -0.15719562751E+04  0.15867227763E+04  0.17300000000E+03 0.  1.
         -6    1    1    2    0  502  0.22325972134E+02  0.12733887565E+03 -0.37204589933E+03  0.43018692389E+03  0.17300000000E+03 0. -1.
<mgrwt>
<rscale>  2 0.21596907E+03</rscale>
<asrwt>0</asrwt>
<pdfrwt beam="1">  1       21 0.56082713E-02 0.21596907E+03</pdfrwt>
<pdfrwt beam="2">  1       21 0.30468553E+00 0.21596907E+03</pdfrwt>
<totfact> 0.69225519E+03</totfact>
</mgrwt>
</event>
<event>
 4    1  0.4111182E+000  0.1748349E+03  0.7546771E-02  0.1172898E+00
         21   -1    0    0  501  502  0.00000000000E+00  0.00000000000E+00  0.13716175238E+03  0.13716175238E+03  0.00000000000E+00 0. -1.
         21   -1    0    0  502  503 -0.00000000000E+00 -0.00000000000E+00 -0.24410536669E+03  0.24410536669E+03  0.00000000000E+00 0. -1.
          6    1    1    2  501    0 -0.14855054877E+02  0.20434461955E+02  0.27739307945E+01  0.17485689744E+03  0.17300000000E+03 0.  1.
         -6    1    1    2    0  503  0.14855054877E+02 -0.20434461955E+02 -0.10971754510E+03  0.20641022163E+03  0.17300000000E+03 0.  1.
<mgrwt>
<rscale>  2 0.17483489E+03</rscale>
<asrwt>0</asrwt>
<pdfrwt beam="1">  1       21 0.21101808E-01 0.17483489E+03</pdfrwt>
<pdfrwt beam="2">  1       21 0.37554671E-01 0.17483489E+03</pdfrwt>
<totfact> 0.14361011E+05</totfact>
</mgrwt>
</event>
<event>
 4    1  0.4111182E+000  0.1765724E+03  0.7546771E-02  0.1171162E+00
         21   -1    0    0  503  502  0.00000000000E+00  0.00000000000E+00  0.10949813404E+03  0.10949813404E+03  0.00000000000E+00 0. -1.
         21   -1    0    0  501  503 -0.00000000000E+00 -0.00000000000E+00 -0.29063178436E+03  0.29063178436E+03  0.00000000000E+00 0.  1.
          6    1    1    2  501    0  0.30355874414E+02 -0.18092801221E+02 -0.11906705320E+03  0.21296664463E+03  0.17300000000E+03 0. -1.
         -6    1    1    2    0  502 -0.30355874414E+02  0.18092801221E+02 -0.62066597123E+02  0.18716327376E+03  0.17300000000E+03 0. -1.
<mgrwt>
<rscale>  2 0.17657245E+03</rscale>
<asrwt>0</asrwt>
<pdfrwt beam="1">  1       21 0.16845867E-01 0.17657245E+03</pdfrwt>
<pdfrwt beam="2">  1       21 0.44712582E-01 0.17657245E+03</pdfrwt>
<totfact> 0.15311212E+05</totfact>
</mgrwt>
</event>
<event>
 4    1  0.4111182E+000  0.2824765E+03  0.7546771E-02  0.1094344E+00
         21   -1    0    0  503  502  0.00000000000E+00  0.00000000000E+00  0.33371493016E+04  0.33371493016E+04  0.00000000000E+00 0.  1.
         21   -1    0    0  501  503 -0.00000000000E+00 -0.00000000000E+00 -0.29217108024E+02  0.29217108024E+02  0.00000000000E+00 0.  1.
          6    1    1    2  501    0  0.20648607479E+03 -0.85014387972E+02  0.93663306699E+03  0.97830181816E+03  0.17300000000E+03 0.  1.
         -6    1    1    2    0  502 -0.20648607479E+03  0.85014387972E+02  0.23712991266E+04  0.23880645915E+04  0.17300000000E+03 0.  1.
<mgrwt>
<rscale>  2 0.28247645E+03</rscale>
<asrwt>0</asrwt>
<pdfrwt beam="1">  1       21 0.51340728E+00 0.28247645E+03</pdfrwt>
<pdfrwt beam="2">  1       21 0.44949423E-02 0.28247645E+03</pdfrwt>
<totfact> 0.43303988E+02</totfact>
</mgrwt>
</event>
<event>
 4    1  0.4111182E+000  0.1826788E+03  0.7546771E-02  0.1165235E+00
         21   -1    0    0  501  502  0.00000000000E+00  0.00000000000E+00  0.85908863982E+02  0.85908863982E+02  0.00000000000E+00 0.  1.
         21   -1    0    0  502  503 -0.00000000000E+00 -0.00000000000E+00 -0.45037750877E+03  0.45037750877E+03  0.00000000000E+00 0.  1.
          6    1    1    2  501    0  0.23004539346E+02 -0.53975357400E+02 -0.82806019568E+02  0.20057014961E+03  0.17300000000E+03 0.  1.
         -6    1    1    2    0  503 -0.23004539346E+02  0.53975357400E+02 -0.28166262522E+03  0.33571622315E+03  0.17300000000E+03 0.  1.
<mgrwt>
<rscale>  2 0.18267881E+03</rscale>
<asrwt>0</asrwt>
<pdfrwt beam="1">  1       21 0.13216748E-01 0.18267881E+03</pdfrwt>
<pdfrwt beam="2">  1       21 0.69288849E-01 0.18267881E+03</pdfrwt>
<totfact> 0.93868609E+04</totfact>
</mgrwt>
</event>
<event>
 4    1  0.4111182E+000  0.2292527E+03  0.7546771E-02  0.1127167E+00
         21   -1    0    0  501  502  0.00000000000E+00  0.00000000000E+00  0.22593166698E+03  0.22593166698E+03  0.00000000000E+00 0.  1.
         21   -1    0    0  502  503 -0.00000000000E+00 -0.00000000000E+00 -0.24039592210E+03  0.24039592210E+03  0.00000000000E+00 0. -1.
          6    1    1    2  501    0  0.51304072002E+02  0.14140616948E+03  0.34695549574E+02  0.23186330829E+03  0.17300000000E+03 0.  1.
         -6    1    1    2    0  503 -0.51304072002E+02 -0.14140616948E+03 -0.49159804696E+02  0.23446428080E+03  0.17300000000E+03 0.  1.
<mgrwt>
<rscale>  2 0.22925273E+03</rscale>
<asrwt>0</asrwt>
<pdfrwt beam="1">  1       21 0.34758718E-01 0.22925273E+03</pdfrwt>
<pdfrwt beam="2">  1       21 0.36983988E-01 0.22925273E+03</pdfrwt>
<totfact> 0.55330353E+04</totfact>
</mgrwt>
</event>
<event>
 4    1  0.4111182E+000  0.2141480E+03  0.7546771E-02  0.1138323E+00
         21   -1    0    0  503  502  0.00000000000E+00  0.00000000000E+00  0.56580550622E+03  0.56580550622E+03  0.00000000000E+00 0. -1.
         21   -1    0    0  501  503 -0.00000000000E+00 -0.00000000000E+00 -0.10770308358E+03  0.10770308358E+03  0.00000000000E+00 0.  1.
          6    1    1    2  501    0 -0.11304073694E+03 -0.56144221105E+02  0.61533538777E+02  0.22281328095E+03  0.17300000000E+03 0.  1.
         -6    1    1    2    0  502  0.11304073694E+03  0.56144221105E+02  0.39656888386E+03  0.45069530885E+03  0.17300000000E+03 0. -1.
<mgrwt>
<rscale>  2 0.21414804E+03</rscale>
<asrwt>0</asrwt>
<pdfrwt beam="1">  1       21 0.87047000E-01 0.21414804E+03</pdfrwt>
<pdfrwt beam="2">  1       21 0.16569705E-01 0.21414804E+03</pdfrwt>
<totfact> 0.36683459E+04</totfact>
</mgrwt>
</event>
<event>
 4    1  0.4111182E+000  0.2510525E+03  0.7546771E-02  0.1112641E+00
         21   -1    0    0  501  502  0.00000000000E+00  0.00000000000E+00  0.40015650313E+02  0.40015650313E+02  0.00000000000E+00 0.  1.
         21   -1    0    0  502  503 -0.00000000000E+00 -0.00000000000E+00 -0.19746945859E+04  0.19746945859E+04  0.00000000000E+00 0.  1.
          6    1    1    2  501    0 -0.18118267767E+03 -0.16468273538E+02 -0.51417081076E+03  0.57218789690E+03  0.17300000000E+03 0.  1.
         -6    1    1    2    0  503  0.18118267767E+03  0.16468273538E+02 -0.14205081248E+04  0.14425223393E+04  0.17300000000E+03 0.  1.
<mgrwt>
<rscale>  2 0.25105252E+03</rscale>
<asrwt>0</asrwt>
<pdfrwt beam="1">  1       21 0.61562540E-02 0.25105252E+03</pdfrwt>
<pdfrwt beam="2">  1       21 0.30379916E+00 0.25105252E+03</pdfrwt>
<totfact> 0.57728355E+03</totfact>
</mgrwt>
</event>
<event>
 4    1  0.4111182E+000  0.2634076E+03  0.7546771E-02  0.1105113E+00
         21   -1    0    0  501  502  0.00000000000E+00  0.00000000000E+00  0.82332815113E+03  0.82332815113E+03  0.00000000000E+00 0.  1.
         21   -1    0    0  502  503 -0.00000000000E+00 -0.00000000000E+00 -0.85340052393E+02  0.85340052393E+02  0.00000000000E+00 0. -1.
          6    1    1    2  501    0 -0.30976436679E+02  0.19620146872E+03  0.41981979997E+03  0.49561297441E+03  0.17300000000E+03 0. -1.
         -6    1    1    2    0  503  0.30976436679E+02 -0.19620146872E+03  0.31816829877E+03  0.41305522912E+03  0.17300000000E+03 0.  1.
<mgrwt>
<rscale>  2 0.26340759E+03</rscale>
<asrwt>0</asrwt>
<pdfrwt beam="1">  1       21 0.12666586E+00 0.26340759E+03</pdfrwt>
<pdfrwt beam="2">  1       21 0.13129239E-01 0.26340759E+03</pdfrwt>
<totfact> 0.22148869E+04</totfact>
</mgrwt>
</event>
<event>
 4    1  0.4111182E+000  0.1761035E+03  0.7546771E-02  0.1171628E+00
         21   -1    0    0  503  502  0.00000000000E+00  0.00000000000E+00  0.10945173044E+03  0.10945173044E+03  0.00000000000E+00 0.  1.
         21   -1    0    0  501  503 -0.00000000000E+00 -0.00000000000E+00 -0.39170816393E+03  0.39170816393E+03  0.00000000000E+00 0.  1.
          6    1    1    2  501    0 -0.32898881802E+02 -0.10483596072E+01 -0.27292622966E+03  0.32480942461E+03  0.17300000000E+03 0.  1.
         -6    1    1    2    0  502  0.32898881802E+02  0.10483596072E+01 -0.93302038345E+01  0.17635046976E+03  0.17300000000E+03 0.  1.
<mgrwt>
<rscale>  2 0.17610348E+03</rscale>
<asrwt>0</asrwt>
<pdfrwt beam="1">  1       21 0.16838728E-01 0.17610348E+03</pdfrwt>
<pdfrwt beam="2">  1       21 0.60262795E-01 0.17610348E+03</pdfrwt>
<totfact> 0.82056125E+04</totfact>
</mgrwt>
</event>
<event>
 4    1  0.4111182E+000  0.1896559E+03  0.7546771E-02  0.1158772E+00
         21   -1    0    0  501  502  0.00000000000E+00  0.00000000000E+00  0.14516812605E+03  0.14516812605E+03  0.00000000000E+00 0. -1.
         21   -1    0    0  502  503 -0.00000000000E+00 -0.00000000000E+00 -0.38159299488E+03  0.38159299488E+03  0.00000000000E+00 0. -1.
          6    1    1    2  501    0 -0.90876162877E+01 -0.77186529587E+02  0.37756205331E+02  0.19337754823E+03  0.17300000000E+03 0. -1.
         -6    1    1    2    0  503  0.90876162877E+01  0.77186529587E+02 -0.27418107415E+03  0.33338357270E+03  0.17300000000E+03 0. -1.
<mgrwt>
<rscale>  2 0.18965586E+03</rscale>
<asrwt>0</asrwt>
<pdfrwt beam="1">  1       21 0.22333558E-01 0.18965586E+03</pdfrwt>
<pdfrwt beam="2">  1       21 0.58706615E-01 0.18965586E+03</pdfrwt>
<totfact> 0.51015964E+04</totfact>
</mgrwt>
</event>
<event>
 4    1  0.4111182E+000  0.1820515E+03  0.7546771E-02  0.1165832E+00
         21   -1    0    0  501  502  0.00000000000E+00  0.00000000000E+00  0.72734166850E+02  0.72734166850E+02  0.00000000000E+00 0.  1.
         21   -1    0    0  502  503 -0.00000000000E+00 -0.00000000000E+00 -0.72358150879E+03  0.72358150879E+03  0.00000000000E+00 0.  1.
          6    1    1    2  501    0 -0.51965221365E+02  0.22657584464E+02 -0.83149268968E+02  0.20014132830E+03  0.17300000000E+03 0.  1.
         -6    1    1    2    0  503  0.51965221365E+02 -0.22657584464E+02 -0.56769807298E+03  0.59617434734E+03  0.17300000000E+03 0.  1.
<mgrwt>
<rscale>  2 0.18205150E+03</rscale>
<asrwt>0</asrwt>
<pdfrwt beam="1">  1       21 0.11189872E-01 0.18205150E+03</pdfrwt>
<pdfrwt beam="2">  1       21 0.11132023E+00 0.18205150E+03</pdfrwt>
<totfact> 0.42417847E+04</totfact>
</mgrwt>
</event>
<event>
 4    1  0.4111182E+000  0.2027328E+03  0.7546771E-02  0.1147454E+00
         21   -1    0    0  501  502  0.00000000000E+00  0.00000000000E+00  0.16914911200E+04  0.16914911200E+04  0.00000000000E+00 0. -1.
         21   -1    0    0  502  503 -0.00000000000E+00 -0.00000000000E+00 -0.25465471587E+02  0.25465471587E+02  0.00000000000E+00 0. -1.
          6    1    1    2  501    0  0.38000788162E+02  0.98628308966E+02  0.10167909897E+04  0.10368049576E+04  0.17300000000E+03 0.  1.
         -6    1    1    2    0  503 -0.38000788162E+02 -0.98628308966E+02  0.64923465869E+03  0.68015163403E+03  0.17300000000E+03 0.  1.
<mgrwt>
<rscale>  2 0.20273284E+03</rscale>
<asrwt>0</asrwt>
<pdfrwt beam="1">  1       21 0.26022932E+00 0.20273284E+03</pdfrwt>
<pdfrwt beam="2">  1       21 0.39177662E-02 0.20273284E+03</pdfrwt>
<totfact> 0.23298845E+04</totfact>
</mgrwt>
</event>
<event>
 4    1  0.4111182E+000  0.2245651E+03  0.7546771E-02  0.1130525E+00
         21   -1    0    0  501  502  0.00000000000E+00  0.00000000000E+00  0.20683459962E+03  0.20683459962E+03  0.00000000000E+00 0. -1.
         21   -1    0    0  502  503 -0.00000000000E+00 -0.00000000000E+00 -0.49340571213E+03  0.49340571213E+03  0.00000000000E+00 0.  1.
          6    1    1    2  501    0  0.37374837843E+02  0.13821574072E+03  0.10573136049E+03  0.24821077752E+03  0.17300000000E+03 0. -1.
         -6    1    1    2    0  503 -0.37374837843E+02 -0.13821574072E+03 -0.39230247300E+03  0.45202953423E+03  0.17300000000E+03 0.  1.
<mgrwt>
<rscale>  2 0.22456507E+03</rscale>
<asrwt>0</asrwt>
<pdfrwt beam="1">  1       21 0.31820708E-01 0.22456507E+03</pdfrwt>
<pdfrwt beam="2">  1       21 0.75908571E-01 0.22456507E+03</pdfrwt>
<totfact> 0.14409226E+04</totfact>
</mgrwt>
</event>
<event>
 4    1  0.4111182E+000  0.2554234E+03  0.7546771E-02  0.1109925E+00
         21   -1    0    0  503  502  0.00000000000E+00  0.00000000000E+00  0.13749790117E+03  0.13749790117E+03  0.00000000000E+00 0.  1.
         21   -1    0    0  501  503 -0.00000000000E+00 -0.00000000000E+00 -0.52801917881E+03  0.52801917881E+03  0.00000000000E+00 0.  1.
          6    1    1    2  501    0 -0.13716590157E+03 -0.12844305989E+03 -0.30121229832E+03  0.39493031391E+03  0.17300000000E+03 0.  1.
         -6    1    1    2    0  502  0.13716590157E+03  0.12844305989E+03 -0.89308979322E+02  0.27058676607E+03  0.17300000000E+03 0.  1.
<mgrwt>
<rscale>  2 0.25542338E+03</rscale>
<asrwt>0</asrwt>
<pdfrwt beam="1">  1       21 0.21153523E-01 0.25542338E+03</pdfrwt>
<pdfrwt beam="2">  1       21 0.81233721E-01 0.25542338E+03</pdfrwt>
<totfact> 0.26729249E+04</totfact>
</mgrwt>
</event>
<event>
 4    1  0.4111182E+000  0.2004098E+03  0.7546771E-02  0.1149394E+00
         21   -1    0    0  501  502  0.00000000000E+00  0.00000000000E+00  0.50415252870E+02  0.50415252870E+02  0.00000000000E+00 0.  1.
         21   -1    0    0  502  503 -0.00000000000E+00 -0.00000000000E+00 -0.10479210725E+04  0.10479210725E+04  0.00000000000E+00 0.  1.
          6    1    1    2  501    0 -0.37761993090E+02  0.93856871425E+02 -0.22984775643E+03  0.30494929345E+03  0.17300000000E+03 0.  1.
         -6    1    1    2    0  503  0.37761993090E+02 -0.93856871425E+02 -0.76765806319E+03  0.79338703192E+03  0.17300000000E+03 0.  1.
<mgrwt>
<rscale>  2 0.20040978E+03</rscale>
<asrwt>0</asrwt>
<pdfrwt beam="1">  1       21 0.77561932E-02 0.20040978E+03</pdfrwt>
<pdfrwt beam="2">  1       21 0.16121862E+00 0.20040978E+03</pdfrwt>
<totfact> 0.31072876E+04</totfact>
</mgrwt>
</event>
<event>
 4    1  0.4111182E+000  0.1861390E+03  0.7546771E-02  0.1161991E+00
         21   -1    0    0  503  502  0.00000000000E+00  0.00000000000E+00  0.26935614494E+02  0.26935614494E+02  0.00000000000E+00 0. -1.
         21   -1    0    0  501  503 -0.00000000000E+00 -0.00000000000E+00 -0.13367468488E+04  0.13367468488E+04  0.00000000000E+00 0. -1.
          6    1    1    2  501    0  0.45177145706E+02  0.51746896834E+02 -0.78734165688E+03  0.80904548728E+03  0.17300000000E+03 0.  1.
         -6    1    1    2    0  502 -0.45177145706E+02 -0.51746896834E+02 -0.52246957738E+03  0.55463697597E+03  0.17300000000E+03 0.  1.
<mgrwt>
<rscale>  2 0.18613897E+03</rscale>
<asrwt>0</asrwt>
<pdfrwt beam="1">  1       21 0.41439405E-02 0.18613897E+03</pdfrwt>
<pdfrwt beam="2">  1       21 0.20565337E+00 0.18613897E+03</pdfrwt>
<totfact> 0.45838643E+04</totfact>
</mgrwt>
</event>
<event>
 4    1  0.4111182E+000  0.2652007E+03  0.7546771E-02  0.1104058E+00
         21   -1    0    0  501  502  0.00000000000E+00  0.00000000000E+00  0.62264858359E+03  0.62264858359E+03  0.00000000000E+00 0. -1.
         21   -1    0    0  502  503 -0.00000000000E+00 -0.00000000000E+00 -0.12241648303E+03  0.12241648303E+03  0.00000000000E+00 0.  1.
          6    1    1    2  501    0 -0.63730869577E+02 -0.19063266166E+03  0.35368219127E+03  0.44206620301E+03  0.17300000000E+03 0. -1.
         -6    1    1    2    0  503  0.63730869577E+02  0.19063266166E+03  0.14654990930E+03  0.30299886360E+03  0.17300000000E+03 0.  1.
<mgrwt>
<rscale>  2 0.26520075E+03</rscale>
<asrwt>0</asrwt>
<pdfrwt beam="1">  1       21 0.95792088E-01 0.26520075E+03</pdfrwt>
<pdfrwt beam="2">  1       21 0.18833305E-01 0.26520075E+03</pdfrwt>
<totfact> 0.22568816E+04</totfact>
</mgrwt>
</event>
<event>
 4    1  0.4111182E+000  0.1849925E+03  0.7546771E-02  0.1163057E+00
         21   -1    0    0  503  502  0.00000000000E+00  0.00000000000E+00  0.84278307506E+03  0.84278307506E+03  0.00000000000E+00 0. -1.
         21   -1    0    0  501  503 -0.00000000000E+00 -0.00000000000E+00 -0.41839595233E+02  0.41839595233E+02  0.00000000000E+00 0. -1.
          6    1    1    2  501    0  0.54597154901E+01  0.65294715207E+02  0.32452878230E+03  0.37355205643E+03  0.17300000000E+03 0.  1.
         -6    1    1    2    0  502 -0.54597154901E+01 -0.65294715207E+02  0.47641469753E+03  0.51107061386E+03  0.17300000000E+03 0.  1.
<mgrwt>
<rscale>  2 0.18499245E+03</rscale>
<asrwt>0</asrwt>
<pdfrwt beam="1">  1       21 0.12965892E+00 0.18499245E+03</pdfrwt>
<pdfrwt beam="2">  1       21 0.64368614E-02 0.18499245E+03</pdfrwt>
<totfact> 0.76331023E+04</totfact>
</mgrwt>
</event>
<event>
 4    1  0.4111182E+000  0.2095059E+03  0.7546771E-02  0.1141958E+00
         21   -1    0    0  501  502  0.00000000000E+00  0.00000000000E+00  0.14055836641E+04  0.14055836641E+04  0.00000000000E+00 0.  1.
         21   -1    0    0  502  503 -0.00000000000E+00 -0.00000000000E+00 -0.53952847668E+02  0.53952847668E+02  0.00000000000E+00 0.  1.
          6    1    1    2  501    0 -0.47950018533E+02 -0.10800248840E+03  0.11494396032E+04  0.11683767129E+04  0.17300000000E+03 0.  1.
         -6    1    1    2    0  503  0.47950018533E+02  0.10800248840E+03  0.20219121320E+03  0.29115979886E+03  0.17300000000E+03 0.  1.
<mgrwt>
<rscale>  2 0.20950595E+03</rscale>
<asrwt>0</asrwt>
<pdfrwt beam="1">  1       21 0.21624361E+00 0.20950595E+03</pdfrwt>
<pdfrwt beam="2">  1       21 0.83004391E-02 0.20950595E+03</pdfrwt>
<totfact> 0.11772662E+04</totfact>
</mgrwt>
</event>
<event>
 4    1  0.4111182E+000  0.2248682E+03  0.7546771E-02  0.1130305E+00
         21   -1    0    0  501  502  0.00000000000E+00  0.00000000000E+00  0.70380197691E+03  0.70380197691E+03  0.00000000000E+00 0. -1.
         21   -1    0    0  502  503 -0.00000000000E+00 -0.00000000000E+00 -0.89583884019E+02  0.89583884019E+02  0.00000000000E+00 0.  1.
          6    1    1    2  501    0 -0.12822260850E+03  0.64774078774E+02  0.48362506761E+03  0.53334690833E+03  0.17300000000E+03 0. -1.
         -6    1    1    2    0  503  0.12822260850E+03 -0.64774078774E+02  0.13059302528E+03  0.26003895259E+03  0.17300000000E+03 0.  1.
<mgrwt>
<rscale>  2 0.22486822E+03</rscale>
<asrwt>0</asrwt>
<pdfrwt beam="1">  1       21 0.10827722E+00 0.22486822E+03</pdfrwt>
<pdfrwt beam="2">  1       21 0.13782137E-01 0.22486822E+03</pdfrwt>
<totfact> 0.30487287E+04</totfact>
</mgrwt>
</event>
<event>
 4    1  0.4111182E+000  0.2718992E+03  0.7546771E-02  0.1100198E+00
         21   -1    0    0  503  502  0.00000000000E+00  0.00000000000E+00  0.31420064742E+03  0.31420064742E+03  0.00000000000E+00 0. -1.
         21   -1    0    0  501  503 -0.00000000000E+00 -0.00000000000E+00 -0.35623206086E+03  0.35623206086E+03  0.00000000000E+00 0. -1.
          6    1    1    2  501    0 -0.15451176518E+03  0.14186716504E+03 -0.21633367211E+03  0.34746141625E+03  0.17300000000E+03 0. -1.
         -6    1    1    2    0  502  0.15451176518E+03 -0.14186716504E+03  0.17430225867E+03  0.32297129202E+03  0.17300000000E+03 0. -1.
<mgrwt>
<rscale>  2 0.27189921E+03</rscale>
<asrwt>0</asrwt>
<pdfrwt beam="1">  1       21 0.48338561E-01 0.27189921E+03</pdfrwt>
<pdfrwt beam="2">  1       21 0.54804932E-01 0.27189921E+03</pdfrwt>
<totfact> 0.12277219E+04</totfact>
</mgrwt>
</event>
<event>
 4    1  0.4111182E+000  0.4104010E+03  0.7546771E-02  0.1040237E+00
         21   -1    0    0  503  502  0.00000000000E+00  0.00000000000E+00  0.26808285093E+03  0.26808285093E+03  0.00000000000E+00 0.  1.
         21   -1    0    0  501  503 -0.00000000000E+00 -0.00000000000E+00 -0.19749213930E+04  0.19749213930E+04  0.00000000000E+00 0. -1.
          6    1    1    2  501    0 -0.29049982832E+03 -0.23261516277E+03 -0.17795076898E+04  0.18262192043E+04  0.17300000000E+03 0. -1.
         -6    1    1    2    0  502  0.29049982832E+03  0.23261516277E+03  0.72669147733E+02  0.41678503961E+03  0.17300000000E+03 0.  1.
<mgrwt>
<rscale>  2 0.41040098E+03</rscale>
<asrwt>0</asrwt>
<pdfrwt beam="1">  1       21 0.41243516E-01 0.41040098E+03</pdfrwt>
<pdfrwt beam="2">  1       21 0.30383406E+00 0.41040098E+03</pdfrwt>
<totfact> 0.14654092E+02</totfact>
</mgrwt>
</event>
<event>
 4    1  0.4111182E+000  0.1850245E+03  0.7546771E-02  0.1163027E+00
         21   -1    0    0  503  502  0.00000000000E+00  0.00000000000E+00  0.13938316392E+03  0.13938316392E+03  0.00000000000E+00 0.  1.
         21   -1    0    0  501  503 -0.00000000000E+00 -0.00000000000E+00 -0.27852417631E+03  0.27852417631E+03  0.00000000000E+00 0.  1.
          6    1    1    2  501    0 -0.26664218535E+00 -0.65612456176E+02 -0.14139989376E+03  0.23286905217E+03  0.17300000000E+03 0.  1.
         -6    1    1    2    0  502  0.26664218535E+00  0.65612456176E+02  0.22588813692E+01  0.18503828806E+03  0.17300000000E+03 0.  1.
<mgrwt>
<rscale>  2 0.18502450E+03</rscale>
<asrwt>0</asrwt>
<pdfrwt beam="1">  1       21 0.21443564E-01 0.18502450E+03</pdfrwt>
<pdfrwt beam="2">  1       21 0.42849873E-01 0.18502450E+03</pdfrwt>
<totfact> 0.10640444E+05</totfact>
</mgrwt>
</event>
<event>
 4    1  0.4111182E+000  0.4523915E+03  0.7546771E-02  0.1027011E+00
         21   -1    0    0  501  502  0.00000000000E+00  0.00000000000E+00  0.41419564234E+03  0.41419564234E+03  0.00000000000E+00 0.  1.
         21   -1    0    0  502  503 -0.00000000000E+00 -0.00000000000E+00 -0.60942472238E+03  0.60942472238E+03  0.00000000000E+00 0. -1.
          6    1    1    2  501    0  0.38725723581E+03  0.15735611193E+03  0.12501957006E+03  0.46934849052E+03  0.17300000000E+03 0.  1.
         -6    1    1    2    0  503 -0.38725723581E+03 -0.15735611193E+03 -0.32024865010E+03  0.55427187421E+03  0.17300000000E+03 0. -1.
<mgrwt>
<rscale>  2 0.45239155E+03</rscale>
<asrwt>0</asrwt>
<pdfrwt beam="1">  1       21 0.63722406E-01 0.45239155E+03</pdfrwt>
<pdfrwt beam="2">  1       21 0.93757650E-01 0.45239155E+03</pdfrwt>
<totfact> 0.18716104E+03</totfact>
</mgrwt>
</event>
<event>
 4    1  0.4111182E+000  0.1839461E+03  0.7546771E-02  0.1164038E+00
         21   -1    0    0  501  502  0.00000000000E+00  0.00000000000E+00  0.57222027637E+03  0.57222027637E+03  0.00000000000E+00 0.  1.
         21   -1    0    0  502  503 -0.00000000000E+00 -0.00000000000E+00 -0.65872257160E+02  0.65872257160E+02  0.00000000000E+00 0. -1.
          6    1    1    2  501    0 -0.42437155787E+01 -0.62363240959E+02  0.35523508303E+03  0.40003518240E+03  0.17300000000E+03 0.  1.
         -6    1    1    2    0  503  0.42437155787E+01  0.62363240959E+02  0.15111293618E+03  0.23805735113E+03  0.17300000000E+03 0.  1.
<mgrwt>
<rscale>  2 0.18394614E+03</rscale>
<asrwt>0</asrwt>
<pdfrwt beam="1">  1       21 0.88033885E-01 0.18394614E+03</pdfrwt>
<pdfrwt beam="2">  1       21 0.10134194E-01 0.18394614E+03</pdfrwt>
<totfact> 0.87938794E+04</totfact>
</mgrwt>
</event>
<event>
 4    1  0.4111182E+000  0.1998066E+03  0.7546771E-02  0.1149902E+00
         21   -1    0    0  501  502  0.00000000000E+00  0.00000000000E+00  0.14344782550E+03  0.14344782550E+03  0.00000000000E+00 0. -1.
         21   -1    0    0  502  503 -0.00000000000E+00 -0.00000000000E+00 -0.27908853767E+03  0.27908853767E+03  0.00000000000E+00 0. -1.
          6    1    1    2  501    0  0.71806747867E+02 -0.69551967438E+02 -0.56647996440E+02  0.20768168122E+03  0.17300000000E+03 0. -1.
         -6    1    1    2    0  503 -0.71806747867E+02  0.69551967438E+02 -0.78992715729E+02  0.21485468194E+03  0.17300000000E+03 0. -1.
<mgrwt>
<rscale>  2 0.19980662E+03</rscale>
<asrwt>0</asrwt>
<pdfrwt beam="1">  1       21 0.22068896E-01 0.19980662E+03</pdfrwt>
<pdfrwt beam="2">  1       21 0.42936698E-01 0.19980662E+03</pdfrwt>
<totfact> 0.99814290E+04</totfact>
</mgrwt>
</event>
<event>
 4    1  0.4111182E+000  0.2360851E+03  0.7546771E-02  0.1122429E+00
         21   -1    0    0  503  502  0.00000000000E+00  0.00000000000E+00  0.83730335862E+03  0.83730335862E+03  0.00000000000E+00 0.  1.
         21   -1    0    0  501  503 -0.00000000000E+00 -0.00000000000E+00 -0.13983897800E+03  0.13983897800E+03  0.00000000000E+00 0. -1.
          6    1    1    2  501    0  0.11884512952E+03 -0.10808799642E+03 -0.49268550867E+01  0.23613651493E+03  0.17300000000E+03 0. -1.
         -6    1    1    2    0  502 -0.11884512952E+03  0.10808799642E+03  0.70239123571E+03  0.74100582169E+03  0.17300000000E+03 0.  1.
<mgrwt>
<rscale>  2 0.23608511E+03</rscale>
<asrwt>0</asrwt>
<pdfrwt beam="1">  1       21 0.12881590E+00 0.23608511E+03</pdfrwt>
<pdfrwt beam="2">  1       21 0.21513689E-01 0.23608511E+03</pdfrwt>
<totfact> 0.86393562E+03</totfact>
</mgrwt>
</event>
<event>
 4    1  0.4111182E+000  0.1871777E+03  0.7546771E-02  0.1161032E+00
         21   -1    0    0  503  502  0.00000000000E+00  0.00000000000E+00  0.39168855786E+02  0.39168855786E+02  0.00000000000E+00 0. -1.
         21   -1    0    0  501  503 -0.00000000000E+00 -0.00000000000E+00 -0.10533802311E+04  0.10533802311E+04  0.00000000000E+00 0. -1.
          6    1    1    2  501    0 -0.47442187090E+02 -0.53438966120E+02 -0.71927872893E+03  0.74323440051E+03  0.17300000000E+03 0.  1.
         -6    1    1    2    0  502  0.47442187090E+02  0.53438966120E+02 -0.29493264642E+03  0.34931468641E+03  0.17300000000E+03 0.  1.
<mgrwt>
<rscale>  2 0.18717768E+03</rscale>
<asrwt>0</asrwt>
<pdfrwt beam="1">  1       21 0.60259782E-02 0.18717768E+03</pdfrwt>
<pdfrwt beam="2">  1       21 0.16205849E+00 0.18717768E+03</pdfrwt>
<totfact> 0.47742381E+04</totfact>
</mgrwt>
</event>
<event>
 4    1  0.4111182E+000  0.2212683E+03  0.7546771E-02  0.1132941E+00
         21   -1    0    0  503  502  0.00000000000E+00  0.00000000000E+00  0.56714650975E+02  0.56714650975E+02  0.00000000000E+00 0. -1.
         21   -1    0    0  501  503 -0.00000000000E+00 -0.00000000000E+00 -0.91787338008E+03  0.91787338008E+03  0.00000000000E+00 0.  1.
          6    1    1    2  501    0  0.91030454293E+02 -0.10365376579E+03 -0.54944004155E+03  0.59232086408E+03  0.17300000000E+03 0.  1.
         -6    1    1    2    0  502 -0.91030454293E+02  0.10365376579E+03 -0.31171868756E+03  0.38226716697E+03  0.17300000000E+03 0.  1.
<mgrwt>
<rscale>  2 0.22126827E+03</rscale>
<asrwt>0</asrwt>
<pdfrwt beam="1">  1       21 0.87253301E-02 0.22126827E+03</pdfrwt>
<pdfrwt beam="2">  1       21 0.14121130E+00 0.22126827E+03</pdfrwt>
<totfact> 0.35500404E+04</totfact>
</mgrwt>
</event>
<event>
 4    1  0.4111182E+000  0.1781700E+03  0.7546771E-02  0.1169586E+00
         21   -1    0    0  503  502  0.00000000000E+00  0.00000000000E+00  0.14450312439E+04  0.14450312439E+04  0.00000000000E+00 0.  1.
         21   -1    0    0  501  503 -0.00000000000E+00 -0.00000000000E+00 -0.31800593412E+02  0.31800593412E+02  0.00000000000E+00 0.  1.
          6    1    1    2  501    0  0.36220911967E+02  0.22440772639E+02  0.29601810384E+03  0.34550146243E+03  0.17300000000E+03 0.  1.
         -6    1    1    2    0  502 -0.36220911967E+02 -0.22440772639E+02  0.11172125467E+04  0.11313303749E+04  0.17300000000E+03 0.  1.
<mgrwt>
<rscale>  2 0.17816998E+03</rscale>
<asrwt>0</asrwt>
<pdfrwt beam="1">  1       21 0.22231245E+00 0.17816998E+03</pdfrwt>
<pdfrwt beam="2">  1       21 0.48924001E-02 0.17816998E+03</pdfrwt>
<totfact> 0.27487222E+04</totfact>
</mgrwt>
</event>
<event>
 4    1  0.4111182E+000  0.1801505E+03  0.7546771E-02  0.1167657E+00
         21   -1    0    0  503  502  0.00000000000E+00  0.00000000000E+00  0.33304469694E+03  0.33304469694E+03  0.00000000000E+00 0.  1.
         21   -1    0    0  501  503 -0.00000000000E+00 -0.00000000000E+00 -0.98854672757E+02  0.98854672757E+02  0.00000000000E+00 0. -1.
          6    1    1    2  501    0 -0.56162591283E+01 -0.49936634231E+02  0.91325669835E+02  0.20197670107E+03  0.17300000000E+03 0. -1.
         -6    1    1    2    0  502  0.56162591283E+01  0.49936634231E+02  0.14286435435E+03  0.22992266863E+03  0.17300000000E+03 0.  1.
<mgrwt>
<rscale>  2 0.18015052E+03</rscale>
<asrwt>0</asrwt>
<pdfrwt beam="1">  1       21 0.51237645E-01 0.18015052E+03</pdfrwt>
<pdfrwt beam="2">  1       21 0.15208411E-01 0.18015052E+03</pdfrwt>
<totfact> 0.13909007E+05</totfact>
</mgrwt>
</event>
<event>
 4    1  0.4111182E+000  0.2612438E+03  0.7546771E-02  0.1106398E+00
         21   -1    0    0  503  502  0.00000000000E+00  0.00000000000E+00  0.11115956292E+04  0.11115956292E+04  0.00000000000E+00 0. -1.
         21   -1    0    0  501  503 -0.00000000000E+00 -0.00000000000E+00 -0.78309478184E+02  0.78309478184E+02  0.00000000000E+00 0. -1.
          6    1    1    2  501    0 -0.89930331028E+02  0.17387309099E+03  0.24015112254E+03  0.35485331881E+03  0.17300000000E+03 0. -1.
         -6    1    1    2    0  502  0.89930331028E+02 -0.17387309099E+03  0.79313502843E+03  0.83505178853E+03  0.17300000000E+03 0. -1.
<mgrwt>
<rscale>  2 0.26124379E+03</rscale>
<asrwt>0</asrwt>
<pdfrwt beam="1">  1       21 0.17101470E+00 0.26124379E+03</pdfrwt>
<pdfrwt beam="2">  1       21 0.12047613E-01 0.26124379E+03</pdfrwt>
<totfact> 0.11674845E+04</totfact>
</mgrwt>
</event>
<event>
 4    1  0.4111182E+000  0.2902164E+03  0.7546771E-02  0.1090236E+00
         21   -1    0    0  501  502  0.00000000000E+00  0.00000000000E+00  0.18597328002E+03  0.18597328002E+03  0.00000000000E+00 0.  1.
         21   -1    0    0  502  503 -0.00000000000E+00 -0.00000000000E+00 -0.45379803187E+03  0.45379803187E+03  0.00000000000E+00 0. -1.
          6    1    1    2  501    0  0.17561789096E+03  0.15314995138E+03 -0.14821676673E+03  0.32587384242E+03  0.17300000000E+03 0.  1.
         -6    1    1    2    0  503 -0.17561789096E+03 -0.15314995138E+03 -0.11960798511E+03  0.31389746946E+03  0.17300000000E+03 0. -1.
<mgrwt>
<rscale>  2 0.29021639E+03</rscale>
<asrwt>0</asrwt>
<pdfrwt beam="1">  1       21 0.28611274E-01 0.29021639E+03</pdfrwt>
<pdfrwt beam="2">  1       21 0.69815081E-01 0.29021639E+03</pdfrwt>
<totfact> 0.20735802E+04</totfact>
</mgrwt>
</event>
<event>
 4    1  0.4111182E+000  0.2770817E+03  0.7546771E-02  0.1097294E+00
         21   -1    0    0  503  502  0.00000000000E+00  0.00000000000E+00  0.10687036499E+03  0.10687036499E+03  0.00000000000E+00 0.  1.
         21   -1    0    0  501  503 -0.00000000000E+00 -0.00000000000E+00 -0.87273214324E+03  0.87273214324E+03  0.00000000000E+00 0. -1.
          6    1    1    2  501    0 -0.14028439142E+03 -0.16481975597E+03 -0.58891140150E+03  0.65083861383E+03  0.17300000000E+03 0. -1.
         -6    1    1    2    0  502  0.14028439142E+03  0.16481975597E+03 -0.17695037674E+03  0.32876389440E+03  0.17300000000E+03 0.  1.
<mgrwt>
<rscale>  2 0.27708169E+03</rscale>
<asrwt>0</asrwt>
<pdfrwt beam="1">  1       21 0.16441594E-01 0.27708169E+03</pdfrwt>
<pdfrwt beam="2">  1       21 0.13426649E+00 0.27708169E+03</pdfrwt>
<totfact> 0.12552482E+04</totfact>
</mgrwt>
</event>
<event>
 4    1  0.4111182E+000  0.1755264E+03  0.7546771E-02  0.1172204E+00
         21   -1    0    0  501  502  0.00000000000E+00  0.00000000000E+00  0.41061675863E+02  0.41061675863E+02  0.00000000000E+00 0. -1.
         21   -1    0    0  502  503 -0.00000000000E+00 -0.00000000000E+00 -0.76570288146E+03  0.76570288146E+03  0.00000000000E+00 0. -1.
          6    1    1    2  501    0 -0.27111760791E+02 -0.12060801106E+02 -0.30515084220E+03  0.35203202552E+03  0.17300000000E+03 0.  1.
         -6    1    1    2    0  503  0.27111760791E+02  0.12060801106E+02 -0.41949036340E+03  0.45473253180E+03  0.17300000000E+03 0.  1.
<mgrwt>
<rscale>  2 0.17552638E+03</rscale>
<asrwt>0</asrwt>
<pdfrwt beam="1">  1       21 0.63171815E-02 0.17552638E+03</pdfrwt>
<pdfrwt beam="2">  1       21 0.11780043E+00 0.17552638E+03</pdfrwt>
<totfact> 0.10052777E+05</totfact>
</mgrwt>
</event>
<event>
 4    1  0.4111182E+000  0.2015444E+03  0.7546771E-02  0.1148443E+00
         21   -1    0    0  501  502  0.00000000000E+00  0.00000000000E+00  0.82484178281E+02  0.82484178281E+02  0.00000000000E+00 0.  1.
         21   -1    0    0  502  503 -0.00000000000E+00 -0.00000000000E+00 -0.50589725264E+03  0.50589725264E+03  0.00000000000E+00 0. -1.
          6    1    1    2  501    0 -0.10227213635E+03 -0.15216471538E+02 -0.25965320632E+03  0.32869426285E+03  0.17300000000E+03 0. -1.
         -6    1    1    2    0  503  0.10227213635E+03  0.15216471538E+02 -0.16375986804E+03  0.25968716807E+03  0.17300000000E+03 0. -1.
<mgrwt>
<rscale>  2 0.20154436E+03</rscale>
<asrwt>0</asrwt>
<pdfrwt beam="1">  1       21 0.12689874E-01 0.20154436E+03</pdfrwt>
<pdfrwt beam="2">  1       21 0.77830346E-01 0.20154436E+03</pdfrwt>
<totfact> 0.77372967E+04</totfact>
</mgrwt>
</event>
<event>
 4    1  0.4111182E+000  0.2031253E+03  0.7546771E-02  0.1147129E+00
         21   -1    0    0  501  502  0.00000000000E+00  0.00000000000E+00  0.22587535285E+03  0.22587535285E+03  0.00000000000E+00 0.  1.
         21   -1    0    0  502  503 -0.00000000000E+00 -0.00000000000E+00 -0.20323987312E+03  0.20323987312E+03  0.00000000000E+00 0.  1.
          6    1    1    2  501    0  0.10643411237E+03  0.16326128919E+01  0.79581629150E+02  0.21815847772E+03  0.17300000000E+03 0.  1.
         -6    1    1    2    0  503 -0.10643411237E+03 -0.16326128919E+01 -0.56946149417E+02  0.21095674826E+03  0.17300000000E+03 0.  1.
<mgrwt>
<rscale>  2 0.20312530E+03</rscale>
<asrwt>0</asrwt>
<pdfrwt beam="1">  1       21 0.34750054E-01 0.20312530E+03</pdfrwt>
<pdfrwt beam="2">  1       21 0.31267673E-01 0.20312530E+03</pdfrwt>
<totfact> 0.78097219E+04</totfact>
</mgrwt>
</event>
<event>
 4    1  0.4111182E+000  0.1980784E+03  0.7546771E-02  0.1151370E+00
         21   -1    0    0  501  502  0.00000000000E+00  0.00000000000E+00  0.17504859427E+03  0.17504859427E+03  0.00000000000E+00 0. -1.
         21   -1    0    0  502  503 -0.00000000000E+00 -0.00000000000E+00 -0.23433446298E+03  0.23433446298E+03  0.00000000000E+00 0. -1.
          6    1    1    2  501    0 -0.75207490169E+02  0.60414328819E+02  0.13054780123E+02  0.19850814842E+03  0.17300000000E+03 0. -1.
         -6    1    1    2    0  503  0.75207490169E+02 -0.60414328819E+02 -0.72340648834E+02  0.21087490884E+03  0.17300000000E+03 0. -1.
<mgrwt>
<rscale>  2 0.19807841E+03</rscale>
<asrwt>0</asrwt>
<pdfrwt beam="1">  1       21 0.26930553E-01 0.19807841E+03</pdfrwt>
<pdfrwt beam="2">  1       21 0.36051456E-01 0.19807841E+03</pdfrwt>
<totfact> 0.97237323E+04</totfact>
</mgrwt>
</event>
<event>
 4    1  0.4111182E+000  0.1939721E+03  0.7546771E-02  0.1154927E+00
         21   -1    0    0  501  502  0.00000000000E+00  0.00000000000E+00  0.20100228806E+03  0.20100228806E+03  0.00000000000E+00 0.  1.
         21   -1    0    0  502  503 -0.00000000000E+00 -0.00000000000E+00 -0.22789006261E+03  0.22789006261E+03  0.00000000000E+00 0.  1.
          6    1    1    2  501    0  0.68067610436E+02 -0.55344267906E+02  0.77184568965E+02  0.20876456899E+03  0.17300000000E+03 0.  1.
         -6    1    1    2    0  503 -0.68067610436E+02  0.55344267906E+02 -0.10407234352E+03  0.22012778168E+03  0.17300000000E+03 0.  1.
<mgrwt>
<rscale>  2 0.19397213E+03</rscale>
<asrwt>0</asrwt>
<pdfrwt beam="1">  1       21 0.30923429E-01 0.19397213E+03</pdfrwt>
<pdfrwt beam="2">  1       21 0.35060009E-01 0.19397213E+03</pdfrwt>
<totfact> 0.78730353E+04</totfact>
</mgrwt>
</event>
<event>
 4    1  0.4111182E+000  0.2056298E+03  0.7546771E-02  0.1145074E+00
         21   -1    0    0  503  502  0.00000000000E+00  0.00000000000E+00  0.40936447630E+03  0.40936447630E+03  0.00000000000E+00 0.  1.
         21   -1    0    0  501  503 -0.00000000000E+00 -0.00000000000E+00 -0.19434371684E+03  0.19434371684E+03  0.00000000000E+00 0.  1.
          6    1    1    2  501    0  0.10965119368E+03 -0.18199852273E+02 -0.99103052186E+02  0.22826527079E+03  0.17300000000E+03 0.  1.
         -6    1    1    2    0  502 -0.10965119368E+03  0.18199852273E+02  0.31412381164E+03  0.37544292235E+03  0.17300000000E+03 0.  1.
<mgrwt>
<rscale>  2 0.20562981E+03</rscale>
<asrwt>0</asrwt>
<pdfrwt beam="1">  1       21 0.62979150E-01 0.20562981E+03</pdfrwt>
<pdfrwt beam="2">  1       21 0.29899033E-01 0.20562981E+03</pdfrwt>
<totfact> 0.24851009E+04</totfact>
</mgrwt>
</event>
<event>
 4    1  0.4111182E+000  0.1854996E+03  0.7546771E-02  0.1162584E+00
         21   -1    0    0  503  502  0.00000000000E+00  0.00000000000E+00  0.16775902959E+03  0.16775902959E+03  0.00000000000E+00 0.  1.
         21   -1    0    0  501  503 -0.00000000000E+00 -0.00000000000E+00 -0.21144489257E+03  0.21144489257E+03  0.00000000000E+00 0.  1.
          6    1    1    2  501    0  0.66924611487E+02 -0.14791360994E+01  0.10959185972E+02  0.18582302124E+03  0.17300000000E+03 0.  1.
         -6    1    1    2    0  502 -0.66924611487E+02  0.14791360994E+01 -0.54645048946E+02  0.19338090092E+03  0.17300000000E+03 0.  1.
<mgrwt>
<rscale>  2 0.18549957E+03</rscale>
<asrwt>0</asrwt>
<pdfrwt beam="1">  1       21 0.25809082E-01 0.18549957E+03</pdfrwt>
<pdfrwt beam="2">  1       21 0.32529983E-01 0.18549957E+03</pdfrwt>
<totfact> 0.12991818E+05</totfact>
</mgrwt>
</event>
<event>
 4    1  0.4111182E+000  0.1732826E+03  0.7546771E-02  0.1174467E+00
         21   -1    0    0  503  502  0.00000000000E+00  0.00000000000E+00  0.19784151104E+04  0.19784151104E+04  0.00000000000E+00 0.  1.
         21   -1    0    0  501  503 -0.00000000000E+00 -0.00000000000E+00 -0.47674144074E+02  0.47674144074E+02  0.00000000000E+00 0.  1.
          6    1    1    2  501    0 -0.97826099131E+01  0.14685893361E+01  0.12898169384E+03  0.21601651223E+03  0.17300000000E+03 0.  1.
         -6    1    1    2    0  502  0.97826099131E+01 -0.14685893361E+01  0.18017592725E+04  0.18100727422E+04  0.17300000000E+03 0.  1.
<mgrwt>
<rscale>  2 0.17328259E+03</rscale>
<asrwt>0</asrwt>
<pdfrwt beam="1">  1       21 0.30437149E+00 0.17328259E+03</pdfrwt>
<pdfrwt beam="2">  1       21 0.73344852E-02 0.17328259E+03</pdfrwt>
<totfact> 0.46040516E+03</totfact>
</mgrwt>
</event>
<event>
 4    1  0.4111182E+000  0.2045933E+03  0.7546771E-02  0.1145920E+00
         21   -1    0    0  503  502  0.00000000000E+00  0.00000000000E+00  0.37736757745E+03  0.37736757745E+03  0.00000000000E+00 0. -1.
         21   -1    0    0  501  503 -0.00000000000E+00 -0.00000000000E+00 -0.14441078212E+03  0.14441078212E+03  0.00000000000E+00 0. -1.
          6    1    1    2  501    0  0.99152175982E+02  0.45806883757E+02 -0.91549506952E+01  0.20479804131E+03  0.17300000000E+03 0. -1.
         -6    1    1    2    0  502 -0.99152175982E+02 -0.45806883757E+02  0.24211174603E+03  0.31698031826E+03  0.17300000000E+03 0. -1.
<mgrwt>
<rscale>  2 0.20459332E+03</rscale>
<asrwt>0</asrwt>
<pdfrwt beam="1">  1       21 0.58056550E-01 0.20459332E+03</pdfrwt>
<pdfrwt beam="2">  1       21 0.22217044E-01 0.20459332E+03</pdfrwt>
<totfact> 0.52384056E+04</totfact>
</mgrwt>
</event>
<event>
 4    1  0.4111182E+000  0.2079436E+03  0.7546771E-02  0.1143205E+00
         21   -1    0    0  501  502  0.00000000000E+00  0.00000000000E+00  0.29925617326E+03  0.29925617326E+03  0.00000000000E+00 0.  1.
         21   -1    0    0  502  503 -0.00000000000E+00 -0.00000000000E+00 -0.14844417795E+03  0.14844417795E+03  0.00000000000E+00 0.  1.
          6    1    1    2  501    0 -0.11492228516E+03  0.10218840495E+02  0.11192463165E+03  0.23615181451E+03  0.17300000000E+03 0.  1.
         -6    1    1    2    0  503  0.11492228516E+03 -0.10218840495E+02  0.38887363666E+02  0.21154853670E+03  0.17300000000E+03 0.  1.
<mgrwt>
<rscale>  2 0.20794364E+03</rscale>
<asrwt>0</asrwt>
<pdfrwt beam="1">  1       21 0.46039411E-01 0.20794364E+03</pdfrwt>
<pdfrwt beam="2">  1       21 0.22837566E-01 0.20794364E+03</pdfrwt>
<totfact> 0.80798074E+04</totfact>
</mgrwt>
</event>
<event>
 4    1  0.4111182E+000  0.3940552E+03  0.7546771E-02  0.1045858E+00
         21   -1    0    0  503  502  0.00000000000E+00  0.00000000000E+00  0.97305008596E+03  0.97305008596E+03  0.00000000000E+00 0.  1.
         21   -1    0    0  501  503 -0.00000000000E+00 -0.00000000000E+00 -0.27067708842E+03  0.27067708842E+03  0.00000000000E+00 0. -1.
          6    1    1    2  501    0  0.15279427989E+03  0.31938127472E+03 -0.47214484027E+02  0.39687365510E+03  0.17300000000E+03 0. -1.
         -6    1    1    2    0  502 -0.15279427989E+03 -0.31938127472E+03  0.74958748156E+03  0.84685351928E+03  0.17300000000E+03 0.  1.
<mgrwt>
<rscale>  2 0.39405519E+03</rscale>
<asrwt>0</asrwt>
<pdfrwt beam="1">  1       21 0.14970001E+00 0.39405519E+03</pdfrwt>
<pdfrwt beam="2">  1       21 0.41642630E-01 0.39405519E+03</pdfrwt>
<totfact> 0.14543974E+03</totfact>
</mgrwt>
</event>
<event>
 4    1  0.4111182E+000  0.1764700E+03  0.7546771E-02  0.1171264E+00
         21   -1    0    0  503  502  0.00000000000E+00  0.00000000000E+00  0.29847538308E+03  0.29847538308E+03  0.00000000000E+00 0.  1.
         21   -1    0    0  501  503 -0.00000000000E+00 -0.00000000000E+00 -0.10817691871E+03  0.10817691871E+03  0.00000000000E+00 0.  1.
          6    1    1    2  501    0  0.73217536689E+01  0.34044625718E+02  0.56835081267E+02  0.18539652391E+03  0.17300000000E+03 0.  1.
         -6    1    1    2    0  502 -0.73217536689E+01 -0.34044625718E+02  0.13346338310E+03  0.22125577788E+03  0.17300000000E+03 0.  1.
<mgrwt>
<rscale>  2 0.17646995E+03</rscale>
<asrwt>0</asrwt>
<pdfrwt beam="1">  1       21 0.45919289E-01 0.17646995E+03</pdfrwt>
<pdfrwt beam="2">  1       21 0.16642603E-01 0.17646995E+03</pdfrwt>
<totfact> 0.14824170E+05</totfact>
</mgrwt>
</event>
<event>
 4    1  0.4111182E+000  0.1999028E+03  0.7546771E-02  0.1149821E+00
         21   -1    0    0  503  502  0.00000000000E+00  0.00000000000E+00  0.20915220828E+03  0.20915220828E+03  0.00000000000E+00 0.  1.
         21   -1    0    0  501  503 -0.00000000000E+00 -0.00000000000E+00 -0.28117322910E+03  0.28117322910E+03  0.00000000000E+00 0.  1.
          6    1    1    2  501    0 -0.11729065889E+02 -0.99471418386E+02 -0.17479975388E+03  0.26554865471E+03  0.17300000000E+03 0.  1.
         -6    1    1    2    0  502  0.11729065889E+02  0.99471418386E+02  0.10277873305E+03  0.22477678268E+03  0.17300000000E+03 0.  1.
<mgrwt>
<rscale>  2 0.19990281E+03</rscale>
<asrwt>0</asrwt>
<pdfrwt beam="1">  1       21 0.32177263E-01 0.19990281E+03</pdfrwt>
<pdfrwt beam="2">  1       21 0.43257419E-01 0.19990281E+03</pdfrwt>
<totfact> 0.47564621E+04</totfact>
</mgrwt>
</event>
<event>
 4    1  0.4111182E+000  0.2092292E+03  0.7546771E-02  0.1142178E+00
         21   -1    0    0  503  502  0.00000000000E+00  0.00000000000E+00  0.74485042336E+02  0.74485042336E+02  0.00000000000E+00 0.  1.
         21   -1    0    0  501  503 -0.00000000000E+00 -0.00000000000E+00 -0.10528988121E+04  0.10528988121E+04  0.00000000000E+00 0.  1.
          6    1    1    2  501    0  0.32808762842E+02  0.11301078993E+03 -0.86388238733E+03  0.88885861232E+03  0.17300000000E+03 0.  1.
         -6    1    1    2    0  502 -0.32808762842E+02 -0.11301078993E+03 -0.11453138242E+03  0.23852524210E+03  0.17300000000E+03 0.  1.
<mgrwt>
<rscale>  2 0.20922919E+03</rscale>
<asrwt>0</asrwt>
<pdfrwt beam="1">  1       21 0.11459238E-01 0.20922919E+03</pdfrwt>
<pdfrwt beam="2">  1       21 0.16198443E+00 0.20922919E+03</pdfrwt>
<totfact> 0.15329802E+04</totfact>
</mgrwt>
</event>
<event>
 4    1  0.4111182E+000  0.2376532E+03  0.7546771E-02  0.1121366E+00
         21   -1    0    0  501  502  0.00000000000E+00  0.00000000000E+00  0.36668896276E+03  0.36668896276E+03  0.00000000000E+00 0.  1.
         21   -1    0    0  502  503 -0.00000000000E+00 -0.00000000000E+00 -0.26530548170E+03  0.26530548170E+03  0.00000000000E+00 0.  1.
          6    1    1    2  501    0 -0.15905883182E+03  0.35359761076E+02  0.25534607341E+03  0.34882752456E+03  0.17300000000E+03 0.  1.
         -6    1    1    2    0  503  0.15905883182E+03 -0.35359761076E+02 -0.15396259235E+03  0.28316691990E+03  0.17300000000E+03 0.  1.
<mgrwt>
<rscale>  2 0.23765316E+03</rscale>
<asrwt>0</asrwt>
<pdfrwt beam="1">  1       21 0.56413686E-01 0.23765316E+03</pdfrwt>
<pdfrwt beam="2">  1       21 0.40816228E-01 0.23765316E+03</pdfrwt>
<totfact> 0.16649659E+04</totfact>
</mgrwt>
</event>
<event>
 4    1  0.4111182E+000  0.2408623E+03  0.7546771E-02  0.1119220E+00
         21   -1    0    0  503  502  0.00000000000E+00  0.00000000000E+00  0.14106831476E+03  0.14106831476E+03  0.00000000000E+00 0. -1.
         21   -1    0    0  501  503 -0.00000000000E+00 -0.00000000000E+00 -0.58277573953E+03  0.58277573953E+03  0.00000000000E+00 0.  1.
          6    1    1    2  501    0  0.89538327252E+02  0.14166351120E+03 -0.41720153069E+03  0.48173828959E+03  0.17300000000E+03 0.  1.
         -6    1    1    2    0  502 -0.89538327252E+02 -0.14166351120E+03 -0.24505894087E+02  0.24210576469E+03  0.17300000000E+03 0. -1.
<mgrwt>
<rscale>  2 0.24086233E+03</rscale>
<asrwt>0</asrwt>
<pdfrwt beam="1">  1       21 0.21702818E-01 0.24086233E+03</pdfrwt>
<pdfrwt beam="2">  1       21 0.89657805E-01 0.24086233E+03</pdfrwt>
<totfact> 0.20424284E+04</totfact>
</mgrwt>
</event>
<event>
 4    1  0.4111182E+000  0.1900136E+03  0.7546771E-02  0.1158449E+00
         21   -1    0    0  503  502  0.00000000000E+00  0.00000000000E+00  0.54612484704E+03  0.54612484704E+03  0.00000000000E+00 0. -1.
         21   -1    0    0  501  503 -0.00000000000E+00 -0.00000000000E+00 -0.67615671630E+02  0.67615671630E+02  0.00000000000E+00 0. -1.
          6    1    1    2  501    0 -0.45663062825E+02  0.63961344862E+02  0.19348570970E+03  0.27118607781E+03  0.17300000000E+03 0. -1.
         -6    1    1    2    0  502  0.45663062825E+02 -0.63961344862E+02  0.28502346571E+03  0.34255444085E+03  0.17300000000E+03 0. -1.
<mgrwt>
<rscale>  2 0.19001360E+03</rscale>
<asrwt>0</asrwt>
<pdfrwt beam="1">  1       21 0.84019204E-01 0.19001360E+03</pdfrwt>
<pdfrwt beam="2">  1       21 0.10402411E-01 0.19001360E+03</pdfrwt>
<totfact> 0.93216531E+04</totfact>
</mgrwt>
</event>
<event>
 4    1  0.4111182E+000  0.1890745E+03  0.7546771E-02  0.1159299E+00
         21   -1    0    0  501  502  0.00000000000E+00  0.00000000000E+00  0.36524261465E+03  0.36524261465E+03  0.00000000000E+00 0. -1.
         21   -1    0    0  502  503 -0.00000000000E+00 -0.00000000000E+00 -0.24405953072E+03  0.24405953072E+03  0.00000000000E+00 0.  1.
          6    1    1    2  501    0 -0.56872078404E+02  0.50850056393E+02  0.29636846862E+03  0.35154435102E+03  0.17300000000E+03 0. -1.
         -6    1    1    2    0  503  0.56872078404E+02 -0.50850056393E+02 -0.17518538470E+03  0.25775779435E+03  0.17300000000E+03 0.  1.
<mgrwt>
<rscale>  2 0.18907449E+03</rscale>
<asrwt>0</asrwt>
<pdfrwt beam="1">  1       21 0.56191171E-01 0.18907449E+03</pdfrwt>
<pdfrwt beam="2">  1       21 0.37547620E-01 0.18907449E+03</pdfrwt>
<totfact> 0.20433863E+04</totfact>
</mgrwt>
</event>
<event>
 4    1  0.4111182E+000  0.2290578E+03  0.7546771E-02  0.1127305E+00
         21   -1    0    0  503  502  0.00000000000E+00  0.00000000000E+00  0.25998581944E+03  0.25998581944E+03  0.00000000000E+00 0.  1.
         21   -1    0    0  501  503 -0.00000000000E+00 -0.00000000000E+00 -0.28464846326E+03  0.28464846326E+03  0.00000000000E+00 0. -1.
          6    1    1    2  501    0  0.97721720209E+02  0.11396909001E+03 -0.15923717401E+03  0.27896947085E+03  0.17300000000E+03 0. -1.
         -6    1    1    2    0  502 -0.97721720209E+02 -0.11396909001E+03  0.13457453019E+03  0.26566481185E+03  0.17300000000E+03 0.  1.
<mgrwt>
<rscale>  2 0.22905783E+03</rscale>
<asrwt>0</asrwt>
<pdfrwt beam="1">  1       21 0.39997818E-01 0.22905783E+03</pdfrwt>
<pdfrwt beam="2">  1       21 0.43792071E-01 0.22905783E+03</pdfrwt>
<totfact> 0.29612427E+04</totfact>
</mgrwt>
</event>
<event>
 4    1  0.4111182E+000  0.1854388E+03  0.7546771E-02  0.1162641E+00
         21   -1    0    0  503  502  0.00000000000E+00  0.00000000000E+00  0.30147113449E+03  0.30147113449E+03  0.00000000000E+00 0.  1.
         21   -1    0    0  501  503 -0.00000000000E+00 -0.00000000000E+00 -0.11409640768E+03  0.11409640768E+03  0.00000000000E+00 0. -1.
          6    1    1    2  501    0 -0.95029787465E+01 -0.66092585849E+02  0.97092364006E+02  0.20931904753E+03  0.17300000000E+03 0. -1.
         -6    1    1    2    0  502  0.95029787465E+01  0.66092585849E+02  0.90282362803E+02  0.20624849464E+03  0.17300000000E+03 0.  1.
<mgrwt>
<rscale>  2 0.18543877E+03</rscale>
<asrwt>0</asrwt>
<pdfrwt beam="1">  1       21 0.46380174E-01 0.18543877E+03</pdfrwt>
<pdfrwt beam="2">  1       21 0.17553294E-01 0.18543877E+03</pdfrwt>
<totfact> 0.13128282E+05</totfact>
</mgrwt>
</event>
<event>
 4    1  0.4111182E+000  0.2221563E+03  0.7546771E-02  0.1132286E+00
         21   -1    0    0  501  502  0.00000000000E+00  0.00000000000E+00  0.22500606238E+03  0.22500606238E+03  0.00000000000E+00 0. -1.
         21   -1    0    0  502  503 -0.00000000000E+00 -0.00000000000E+00 -0.36981035941E+03  0.36981035941E+03  0.00000000000E+00 0. -1.
          6    1    1    2  501    0  0.89979800051E+02  0.10643328236E+03  0.11730565172E+03  0.25122504640E+03  0.17300000000E+03 0. -1.
         -6    1    1    2    0  503 -0.89979800051E+02 -0.10643328236E+03 -0.26210994875E+03  0.34359137539E+03  0.17300000000E+03 0. -1.
<mgrwt>
<rscale>  2 0.22215627E+03</rscale>
<asrwt>0</asrwt>
<pdfrwt beam="1">  1       21 0.34616317E-01 0.22215627E+03</pdfrwt>
<pdfrwt beam="2">  1       21 0.56893901E-01 0.22215627E+03</pdfrwt>
<totfact> 0.22964565E+04</totfact>
</mgrwt>
</event>
<event>
 4    1  0.4111182E+000  0.2430281E+03  0.7546771E-02  0.1117792E+00
         21   -1    0    0  501  502  0.00000000000E+00  0.00000000000E+00  0.71300928471E+03  0.71300928471E+03  0.00000000000E+00 0.  1.
         21   -1    0    0  502  503 -0.00000000000E+00 -0.00000000000E+00 -0.22092227036E+03  0.22092227036E+03  0.00000000000E+00 0. -1.
          6    1    1    2  501    0 -0.37508339600E+02  0.16651356055E+03  0.61522590508E+03  0.66148738134E+03  0.17300000000E+03 0.  1.
         -6    1    1    2    0  503  0.37508339600E+02 -0.16651356055E+03 -0.12313889074E+03  0.27244417373E+03  0.17300000000E+03 0. -1.
<mgrwt>
<rscale>  2 0.24302807E+03</rscale>
<asrwt>0</asrwt>
<pdfrwt beam="1">  1       21 0.10969373E+00 0.24302807E+03</pdfrwt>
<pdfrwt beam="2">  1       21 0.33988042E-01 0.24302807E+03</pdfrwt>
<totfact> 0.52873072E+03</totfact>
</mgrwt>
</event>
<event>
 4    1  0.4111182E+000  0.2254739E+03  0.7546771E-02  0.1129867E+00
         21   -1    0    0  503  502  0.00000000000E+00  0.00000000000E+00  0.10658993474E+04  0.10658993474E+04  0.00000000000E+00 0.  1.
         21   -1    0    0  501  503 -0.00000000000E+00 -0.00000000000E+00 -0.89143091350E+02  0.89143091350E+02  0.00000000000E+00 0. -1.
          6    1    1    2  501    0  0.65849003707E+02 -0.12873771734E+03  0.94579412231E+02  0.24450717039E+03  0.17300000000E+03 0. -1.
         -6    1    1    2    0  502 -0.65849003707E+02  0.12873771734E+03  0.88217684381E+03  0.91053526835E+03  0.17300000000E+03 0.  1.
<mgrwt>
<rscale>  2 0.22547393E+03</rscale>
<asrwt>0</asrwt>
<pdfrwt beam="1">  1       21 0.16398451E+00 0.22547393E+03</pdfrwt>
<pdfrwt beam="2">  1       21 0.13714323E-01 0.22547393E+03</pdfrwt>
<totfact> 0.10608938E+04</totfact>
</mgrwt>
</event>
<event>
 4    1  0.4111182E+000  0.2149241E+03  0.7546771E-02  0.1137725E+00
         21   -1    0    0  501  502  0.00000000000E+00  0.00000000000E+00  0.46944761626E+03  0.46944761626E+03  0.00000000000E+00 0.  1.
         21   -1    0    0  502  503 -0.00000000000E+00 -0.00000000000E+00 -0.13517312109E+03  0.13517312109E+03  0.00000000000E+00 0.  1.
          6    1    1    2  501    0  0.86839077968E+02  0.93393459626E+02  0.32482183253E+03  0.38948887872E+03  0.17300000000E+03 0.  1.
         -6    1    1    2    0  503 -0.86839077968E+02 -0.93393459626E+02  0.94526626469E+01  0.21513185862E+03  0.17300000000E+03 0.  1.
<mgrwt>
<rscale>  2 0.21492409E+03</rscale>
<asrwt>0</asrwt>
<pdfrwt beam="1">  1       21 0.72222709E-01 0.21492409E+03</pdfrwt>
<pdfrwt beam="2">  1       21 0.20795865E-01 0.21492409E+03</pdfrwt>
<totfact> 0.36674561E+04</totfact>
</mgrwt>
</event>
<event>
 4    1  0.4111182E+000  0.2116978E+03  0.7546771E-02  0.1140228E+00
         21   -1    0    0  503  502  0.00000000000E+00  0.00000000000E+00  0.16652967324E+04  0.16652967324E+04  0.00000000000E+00 0. -1.
         21   -1    0    0  501  503 -0.00000000000E+00 -0.00000000000E+00 -0.36900853312E+02  0.36900853312E+02  0.00000000000E+00 0.  1.
          6    1    1    2  501    0 -0.33008337958E+02  0.11746243924E+03  0.37137919869E+03  0.42747922081E+03  0.17300000000E+03 0.  1.
         -6    1    1    2    0  502  0.33008337958E+02 -0.11746243924E+03  0.12570166804E+04  0.12747183649E+04  0.17300000000E+03 0. -1.
<mgrwt>
<rscale>  2 0.21169784E+03</rscale>
<asrwt>0</asrwt>
<pdfrwt beam="1">  1       21 0.25619944E+00 0.21169784E+03</pdfrwt>
<pdfrwt beam="2">  1       21 0.56770557E-02 0.21169784E+03</pdfrwt>
<totfact> 0.13026305E+04</totfact>
</mgrwt>
</event>
<event>
 4    1  0.4111182E+000  0.2262925E+03  0.7546771E-02  0.1129277E+00
         21   -1    0    0  503  502  0.00000000000E+00  0.00000000000E+00  0.17056414756E+03  0.17056414756E+03  0.00000000000E+00 0.  1.
         21   -1    0    0  501  503 -0.00000000000E+00 -0.00000000000E+00 -0.46968215278E+03  0.46968215278E+03  0.00000000000E+00 0. -1.
          6    1    1    2  501    0  0.61382234754E+02 -0.13233108739E+03 -0.34184158228E+03  0.40995604985E+03  0.17300000000E+03 0. -1.
         -6    1    1    2    0  502 -0.61382234754E+02  0.13233108739E+03  0.42723577064E+02  0.23029025049E+03  0.17300000000E+03 0.  1.
<mgrwt>
<rscale>  2 0.22629250E+03</rscale>
<asrwt>0</asrwt>
<pdfrwt beam="1">  1       21 0.26240639E-01 0.22629250E+03</pdfrwt>
<pdfrwt beam="2">  1       21 0.72258791E-01 0.22629250E+03</pdfrwt>
<totfact> 0.23399853E+04</totfact>
</mgrwt>
</event>
<event>
 4    1  0.4111182E+000  0.2384971E+03  0.7546771E-02  0.1120798E+00
         21   -1    0    0  501  502  0.00000000000E+00  0.00000000000E+00  0.70655150149E+02  0.70655150149E+02  0.00000000000E+00 0.  1.
         21   -1    0    0  502  503 -0.00000000000E+00 -0.00000000000E+00 -0.14631404514E+04  0.14631404514E+04  0.00000000000E+00 0. -1.
          6    1    1    2  501    0  0.59292528819E+02 -0.15308912419E+03 -0.18191782543E+03  0.29995829565E+03  0.17300000000E+03 0.  1.
         -6    1    1    2    0  503 -0.59292528819E+02  0.15308912419E+03 -0.12105674758E+04  0.12338373059E+04  0.17300000000E+03 0. -1.
<mgrwt>
<rscale>  2 0.23849714E+03</rscale>
<asrwt>0</asrwt>
<pdfrwt beam="1">  1       21 0.10870023E-01 0.23849714E+03</pdfrwt>
<pdfrwt beam="2">  1       21 0.22509853E+00 0.23849714E+03</pdfrwt>
<totfact> 0.62970047E+03</totfact>
</mgrwt>
</event>
<event>
 4    1  0.4111182E+000  0.2760307E+03  0.7546771E-02  0.1097877E+00
         21   -1    0    0  503  502  0.00000000000E+00  0.00000000000E+00  0.48725682880E+03  0.48725682880E+03  0.00000000000E+00 0.  1.
         21   -1    0    0  501  503 -0.00000000000E+00 -0.00000000000E+00 -0.24022803152E+03  0.24022803152E+03  0.00000000000E+00 0. -1.
          6    1    1    2  501    0 -0.11602956420E+03 -0.18111066232E+03 -0.91392998582E+02  0.29076728145E+03  0.17300000000E+03 0. -1.
         -6    1    1    2    0  502  0.11602956420E+03  0.18111066232E+03  0.33842179586E+03  0.43671757886E+03  0.17300000000E+03 0.  1.
<mgrwt>
<rscale>  2 0.27603067E+03</rscale>
<asrwt>0</asrwt>
<pdfrwt beam="1">  1       21 0.74962589E-01 0.27603067E+03</pdfrwt>
<pdfrwt beam="2">  1       21 0.36958159E-01 0.27603067E+03</pdfrwt>
<totfact> 0.10702885E+04</totfact>
</mgrwt>
</event>
<event>
 4    1  0.4111182E+000  0.1917078E+03  0.7546771E-02  0.1156930E+00
         21   -1    0    0  503  502  0.00000000000E+00  0.00000000000E+00  0.85548678020E+02  0.85548678020E+02  0.00000000000E+00 0.  1.
         21   -1    0    0  501  503 -0.00000000000E+00 -0.00000000000E+00 -0.45586153561E+03  0.45586153561E+03  0.00000000000E+00 0. -1.
          6    1    1    2  501    0  0.54238024450E+02 -0.62298520191E+02 -0.25012822500E+03  0.31514440794E+03  0.17300000000E+03 0. -1.
         -6    1    1    2    0  502 -0.54238024450E+02  0.62298520191E+02 -0.12018463259E+03  0.22626580569E+03  0.17300000000E+03 0.  1.
<mgrwt>
<rscale>  2 0.19170777E+03</rscale>
<asrwt>0</asrwt>
<pdfrwt beam="1">  1       21 0.13161335E-01 0.19170777E+03</pdfrwt>
<pdfrwt beam="2">  1       21 0.70132543E-01 0.19170777E+03</pdfrwt>
<totfact> 0.91770770E+04</totfact>
</mgrwt>
</event>
<event>
 4    1  0.4111182E+000  0.1826869E+03  0.7546771E-02  0.1165228E+00
         21   -1    0    0  503  502  0.00000000000E+00  0.00000000000E+00  0.17007719106E+03  0.17007719106E+03  0.00000000000E+00 0.  1.
         21   -1    0    0  501  503 -0.00000000000E+00 -0.00000000000E+00 -0.52185123382E+03  0.52185123382E+03  0.00000000000E+00 0.  1.
          6    1    1    2  501    0 -0.51878546432E+02 -0.27461166747E+02 -0.44917038195E+03  0.48490053752E+03  0.17300000000E+03 0.  1.
         -6    1    1    2    0  502  0.51878546432E+02  0.27461166747E+02  0.97396339187E+02  0.20702788736E+03  0.17300000000E+03 0.  1.
<mgrwt>
<rscale>  2 0.18268689E+03</rscale>
<asrwt>0</asrwt>
<pdfrwt beam="1">  1       21 0.26165721E-01 0.18268689E+03</pdfrwt>
<pdfrwt beam="2">  1       21 0.80284806E-01 0.18268689E+03</pdfrwt>
<totfact> 0.19054820E+04</totfact>
</mgrwt>
</event>
<event>
 4    1  0.4111182E+000  0.2300409E+03  0.7546771E-02  0.1126611E+00
         21   -1    0    0  501  502  0.00000000000E+00  0.00000000000E+00  0.14849403764E+03  0.14849403764E+03  0.00000000000E+00 0. -1.
         21   -1    0    0  502  503 -0.00000000000E+00 -0.00000000000E+00 -0.36682052740E+03  0.36682052740E+03  0.00000000000E+00 0.  1.
          6    1    1    2  501    0 -0.77542058856E+02 -0.13029590320E+03 -0.65673338141E+02  0.23923164637E+03  0.17300000000E+03 0.  1.
         -6    1    1    2    0  503  0.77542058856E+02  0.13029590320E+03 -0.15265315162E+03  0.27608291867E+03  0.17300000000E+03 0. -1.
<mgrwt>
<rscale>  2 0.23004085E+03</rscale>
<asrwt>0</asrwt>
<pdfrwt beam="1">  1       21 0.22845237E-01 0.23004085E+03</pdfrwt>
<pdfrwt beam="2">  1       21 0.56433927E-01 0.23004085E+03</pdfrwt>
<totfact> 0.52187358E+04</totfact>
</mgrwt>
</event>
<event>
 4    1  0.4111182E+000  0.2162875E+03  0.7546771E-02  0.1136682E+00
         21   -1    0    0  503  502  0.00000000000E+00  0.00000000000E+00  0.13987772140E+03  0.13987772140E+03  0.00000000000E+00 0.  1.
         21   -1    0    0  501  503 -0.00000000000E+00 -0.00000000000E+00 -0.41143158898E+03  0.41143158898E+03  0.00000000000E+00 0. -1.
          6    1    1    2  501    0 -0.32878309465E+02 -0.12557983640E+03 -0.25502374040E+03  0.33439106853E+03  0.17300000000E+03 0. -1.
         -6    1    1    2    0  502  0.32878309465E+02  0.12557983640E+03 -0.16530127180E+02  0.21691824185E+03  0.17300000000E+03 0.  1.
<mgrwt>
<rscale>  2 0.21628749E+03</rscale>
<asrwt>0</asrwt>
<pdfrwt beam="1">  1       21 0.21519650E-01 0.21628749E+03</pdfrwt>
<pdfrwt beam="2">  1       21 0.63297166E-01 0.21628749E+03</pdfrwt>
<totfact> 0.45922405E+04</totfact>
</mgrwt>
</event>
<event>
 4    1  0.4111182E+000  0.1948124E+03  0.7546771E-02  0.1154191E+00
         21   -1    0    0  501  502  0.00000000000E+00  0.00000000000E+00  0.34643570888E+03  0.34643570888E+03  0.00000000000E+00 0. -1.
         21   -1    0    0  502  503 -0.00000000000E+00 -0.00000000000E+00 -0.11055018075E+03  0.11055018075E+03  0.00000000000E+00 0. -1.
          6    1    1    2  501    0  0.98247817761E+01 -0.89030018842E+02  0.96204073308E+02  0.21727193632E+03  0.17300000000E+03 0. -1.
         -6    1    1    2    0  503 -0.98247817761E+01  0.89030018842E+02  0.13968145482E+03  0.23971395331E+03  0.17300000000E+03 0. -1.
<mgrwt>
<rscale>  2 0.19481240E+03</rscale>
<asrwt>0</asrwt>
<pdfrwt beam="1">  1       21 0.53297801E-01 0.19481240E+03</pdfrwt>
<pdfrwt beam="2">  1       21 0.17007720E-01 0.19481240E+03</pdfrwt>
<totfact> 0.10381279E+05</totfact>
</mgrwt>
</event>
<event>
 4    1  0.4111182E+000  0.2755529E+03  0.7546771E-02  0.1098143E+00
         21   -1    0    0  503  502  0.00000000000E+00  0.00000000000E+00  0.28896031622E+04  0.28896031622E+04  0.00000000000E+00 0.  1.
         21   -1    0    0  501  503 -0.00000000000E+00 -0.00000000000E+00 -0.68026245522E+02  0.68026245522E+02  0.00000000000E+00 0. -1.
          6    1    1    2  501    0 -0.40777156725E+02  0.21056503752E+03  0.25227504061E+03  0.37359350590E+03  0.17300000000E+03 0. -1.
         -6    1    1    2    0  502  0.40777156725E+02 -0.21056503752E+03  0.25693018761E+04  0.25840359019E+04  0.17300000000E+03 0. -1.
<mgrwt>
<rscale>  2 0.27555292E+03</rscale>
<asrwt>0</asrwt>
<pdfrwt beam="1">  1       21 0.44455424E+00 0.27555292E+03</pdfrwt>
<pdfrwt beam="2">  1       21 0.10465578E-01 0.27555292E+03</pdfrwt>
<totfact> 0.30064571E+02</totfact>
</mgrwt>
</event>
<event>
 4    1  0.4111182E+000  0.4593169E+03  0.7546771E-02  0.1024980E+00
         21   -1    0    0  501  502  0.00000000000E+00  0.00000000000E+00  0.84870248376E+03  0.84870248376E+03  0.00000000000E+00 0.  1.
         21   -1    0    0  502  503 -0.00000000000E+00 -0.00000000000E+00 -0.24864349802E+03  0.24864349802E+03  0.00000000000E+00 0. -1.
          6    1    1    2  501    0  0.16592938724E+03  0.39180406381E+03  0.30867283775E+03  0.55339940977E+03  0.17300000000E+03 0. -1.
         -6    1    1    2    0  503 -0.16592938724E+03 -0.39180406381E+03  0.29138614798E+03  0.54394657201E+03  0.17300000000E+03 0.  1.
<mgrwt>
<rscale>  2 0.45931687E+03</rscale>
<asrwt>0</asrwt>
<pdfrwt beam="1">  1       21 0.13056961E+00 0.45931687E+03</pdfrwt>
<pdfrwt beam="2">  1       21 0.38252846E-01 0.45931687E+03</pdfrwt>
<totfact> 0.24214937E+03</totfact>
</mgrwt>
</event>
<event>
 4    1  0.4111182E+000  0.2581818E+03  0.7546771E-02  0.1108241E+00
         21   -1    0    0  503  502  0.00000000000E+00  0.00000000000E+00  0.36709301024E+03  0.36709301024E+03  0.00000000000E+00 0. -1.
         21   -1    0    0  501  503 -0.00000000000E+00 -0.00000000000E+00 -0.18389614555E+03  0.18389614555E+03  0.00000000000E+00 0.  1.
          6    1    1    2  501    0  0.13298502973E+03  0.13799929989E+03  0.60700126977E+02  0.26522128557E+03  0.17300000000E+03 0.  1.
         -6    1    1    2    0  502 -0.13298502973E+03 -0.13799929989E+03  0.12249673770E+03  0.28576787022E+03  0.17300000000E+03 0. -1.
<mgrwt>
<rscale>  2 0.25818177E+03</rscale>
<asrwt>0</asrwt>
<pdfrwt beam="1">  1       21 0.56475848E-01 0.25818177E+03</pdfrwt>
<pdfrwt beam="2">  1       21 0.28291715E-01 0.25818177E+03</pdfrwt>
<totfact> 0.34126214E+04</totfact>
</mgrwt>
</event>
<event>
 4    1  0.4111182E+000  0.2083520E+03  0.7546771E-02  0.1142878E+00
         21   -1    0    0  503  502  0.00000000000E+00  0.00000000000E+00  0.64289446110E+03  0.64289446110E+03  0.00000000000E+00 0.  1.
         21   -1    0    0  501  503 -0.00000000000E+00 -0.00000000000E+00 -0.70266204907E+02  0.70266204907E+02  0.00000000000E+00 0.  1.
          6    1    1    2  501    0  0.14178476190E+02  0.11524125062E+03  0.21586713089E+03  0.30001532166E+03  0.17300000000E+03 0.  1.
         -6    1    1    2    0  502 -0.14178476190E+02 -0.11524125062E+03  0.35676112530E+03  0.41314534435E+03  0.17300000000E+03 0.  1.
<mgrwt>
<rscale>  2 0.20835205E+03</rscale>
<asrwt>0</asrwt>
<pdfrwt beam="1">  1       21 0.98906836E-01 0.20835205E+03</pdfrwt>
<pdfrwt beam="2">  1       21 0.10810186E-01 0.20835205E+03</pdfrwt>
<totfact> 0.59103644E+04</totfact>
</mgrwt>
</event>
<event>
 4    1  0.4111182E+000  0.1739931E+03  0.7546771E-02  0.1173747E+00
         21   -1    0    0  503  502  0.00000000000E+00  0.00000000000E+00  0.53868543854E+03  0.53868543854E+03  0.00000000000E+00 0. -1.
         21   -1    0    0  501  503 -0.00000000000E+00 -0.00000000000E+00 -0.62532062185E+02  0.62532062185E+02  0.00000000000E+00 0. -1.
          6    1    1    2  501    0  0.18552081757E+02  0.63611201399E+00  0.14241081743E+03  0.22484311263E+03  0.17300000000E+03 0. -1.
         -6    1    1    2    0  502 -0.18552081757E+02 -0.63611201399E+00  0.33374255893E+03  0.37637438810E+03  0.17300000000E+03 0. -1.
<mgrwt>
<rscale>  2 0.17399306E+03</rscale>
<asrwt>0</asrwt>
<pdfrwt beam="1">  1       21 0.82874680E-01 0.17399306E+03</pdfrwt>
<pdfrwt beam="2">  1       21 0.96203176E-02 0.17399306E+03</pdfrwt>
<totfact> 0.11109719E+05</totfact>
</mgrwt>
</event>
<event>
 4    1  0.4111182E+000  0.2409223E+03  0.7546771E-02  0.1119180E+00
         21   -1    0    0  501  502  0.00000000000E+00  0.00000000000E+00  0.59060413052E+03  0.59060413052E+03  0.00000000000E+00 0. -1.
         21   -1    0    0  502  503 -0.00000000000E+00 -0.00000000000E+00 -0.80108710873E+03  0.80108710873E+03  0.00000000000E+00 0.  1.
          6    1    1    2  501    0  0.86271041907E+02 -0.14377710169E+03  0.54652441268E+03  0.59727086092E+03  0.17300000000E+03 0. -1.
         -6    1    1    2    0  503 -0.86271041907E+02  0.14377710169E+03 -0.75700739090E+03  0.79442037833E+03  0.17300000000E+03 0.  1.
<mgrwt>
<rscale>  2 0.24092229E+03</rscale>
<asrwt>0</asrwt>
<pdfrwt beam="1">  1       21 0.90862174E-01 0.24092229E+03</pdfrwt>
<pdfrwt beam="2">  1       21 0.12324417E+00 0.24092229E+03</pdfrwt>
<totfact> 0.48343981E+02</totfact>
</mgrwt>
</event>
<event>
 4    1  0.4111182E+000  0.1813127E+03  0.7546771E-02  0.1166539E+00
         21   -1    0    0  501  502  0.00000000000E+00  0.00000000000E+00  0.91457078883E+03  0.91457078883E+03  0.00000000000E+00 0.  1.
         21   -1    0    0  502  503 -0.00000000000E+00 -0.00000000000E+00 -0.37944288259E+02  0.37944288259E+02  0.00000000000E+00 0.  1.
          6    1    1    2  501    0 -0.13689485564E+02 -0.52515555229E+02  0.54763379500E+03  0.57686832031E+03  0.17300000000E+03 0. -1.
         -6    1    1    2    0  503  0.13689485564E+02  0.52515555229E+02  0.32899270557E+03  0.37564675678E+03  0.17300000000E+03 0. -1.
<mgrwt>
<rscale>  2 0.18131267E+03</rscale>
<asrwt>0</asrwt>
<pdfrwt beam="1">  1       21 0.14070318E+00 0.18131267E+03</pdfrwt>
<pdfrwt beam="2">  1       21 0.58375835E-02 0.18131267E+03</pdfrwt>
<totfact> 0.73408959E+04</totfact>
</mgrwt>
</event>
<event>
 4    1  0.4111182E+000  0.1849254E+03  0.7546771E-02  0.1163120E+00
         21   -1    0    0  501  502  0.00000000000E+00  0.00000000000E+00  0.34218014019E+03  0.34218014019E+03  0.00000000000E+00 0. -1.
         21   -1    0    0  502  503 -0.00000000000E+00 -0.00000000000E+00 -0.10271908413E+03  0.10271908413E+03  0.00000000000E+00 0.  1.
          6    1    1    2  501    0  0.60587538285E+02 -0.24444854122E+02  0.15632165399E+03  0.24214429623E+03  0.17300000000E+03 0. -1.
         -6    1    1    2    0  503 -0.60587538285E+02  0.24444854122E+02  0.83139402067E+02  0.20275492809E+03  0.17300000000E+03 0.  1.
<mgrwt>
<rscale>  2 0.18492539E+03</rscale>
<asrwt>0</asrwt>
<pdfrwt beam="1">  1       21 0.52643098E-01 0.18492539E+03</pdfrwt>
<pdfrwt beam="2">  1       21 0.15802936E-01 0.18492539E+03</pdfrwt>
<totfact> 0.12234955E+05</totfact>
</mgrwt>
</event>
<event>
 4    1  0.4111182E+000  0.1801645E+03  0.7546771E-02  0.1167644E+00
         21   -1    0    0  501  502  0.00000000000E+00  0.00000000000E+00  0.56078789393E+03  0.56078789393E+03  0.00000000000E+00 0. -1.
         21   -1    0    0  502  503 -0.00000000000E+00 -0.00000000000E+00 -0.62199759954E+02  0.62199759954E+02  0.00000000000E+00 0. -1.
          6    1    1    2  501    0 -0.14586049729E+02 -0.48140236837E+02  0.33136895699E+03  0.37717982569E+03  0.17300000000E+03 0. -1.
         -6    1    1    2    0  503  0.14586049729E+02  0.48140236837E+02  0.16721917698E+03  0.24580782819E+03  0.17300000000E+03 0. -1.
<mgrwt>
<rscale>  2 0.18016447E+03</rscale>
<asrwt>0</asrwt>
<pdfrwt beam="1">  1       21 0.86275057E-01 0.18016447E+03</pdfrwt>
<pdfrwt beam="2">  1       21 0.95691943E-02 0.18016447E+03</pdfrwt>
<totfact> 0.10206606E+05</totfact>
</mgrwt>
</event>
<event>
 4    1  0.4111182E+000  0.1904826E+03  0.7546771E-02  0.1158027E+00
         21   -1    0    0  503  502  0.00000000000E+00  0.00000000000E+00  0.40774157930E+02  0.40774157930E+02  0.00000000000E+00 0.  1.
         21   -1    0    0  501  503 -0.00000000000E+00 -0.00000000000E+00 -0.12699064358E+04  0.12699064358E+04  0.00000000000E+00 0.  1.
          6    1    1    2  501    0  0.22794568804E+02 -0.76387469522E+02 -0.97307054635E+03  0.99153917020E+03  0.17300000000E+03 0.  1.
         -6    1    1    2    0  502 -0.22794568804E+02  0.76387469522E+02 -0.25606173155E+03  0.31914142356E+03  0.17300000000E+03 0.  1.
<mgrwt>
<rscale>  2 0.19048264E+03</rscale>
<asrwt>0</asrwt>
<pdfrwt beam="1">  1       21 0.62729481E-02 0.19048264E+03</pdfrwt>
<pdfrwt beam="2">  1       21 0.19537020E+00 0.19048264E+03</pdfrwt>
<totfact> 0.26321472E+04</totfact>
</mgrwt>
</event>
<event>
 4    1  0.4111182E+000  0.3129954E+03  0.7546771E-02  0.1078919E+00
         21   -1    0    0  501  502  0.00000000000E+00  0.00000000000E+00  0.28685066693E+03  0.28685066693E+03  0.00000000000E+00 0.  1.
         21   -1    0    0  502  503 -0.00000000000E+00 -0.00000000000E+00 -0.79356202009E+03  0.79356202009E+03  0.00000000000E+00 0. -1.
          6    1    1    2  501    0 -0.22025046045E+03  0.13973851759E+03  0.15435977843E+03  0.34898862421E+03  0.17300000000E+03 0.  1.
         -6    1    1    2    0  503  0.22025046045E+03 -0.13973851759E+03 -0.66107113160E+03  0.73142406281E+03  0.17300000000E+03 0. -1.
<mgrwt>
<rscale>  2 0.31299540E+03</rscale>
<asrwt>0</asrwt>
<pdfrwt beam="1">  1       21 0.44130871E-01 0.31299540E+03</pdfrwt>
<pdfrwt beam="2">  1       21 0.12208647E+00 0.31299540E+03</pdfrwt>
<totfact> 0.22895089E+03</totfact>
</mgrwt>
</event>
<event>
 4    1  0.4111182E+000  0.1736994E+03  0.7546771E-02  0.1174044E+00
         21   -1    0    0  501  502  0.00000000000E+00  0.00000000000E+00  0.19489664392E+03  0.19489664392E+03  0.00000000000E+00 0.  1.
         21   -1    0    0  502  503 -0.00000000000E+00 -0.00000000000E+00 -0.49937538292E+03  0.49937538292E+03  0.00000000000E+00 0.  1.
          6    1    1    2  501    0  0.18862140879E+01  0.15457083327E+02  0.13611294986E+03  0.22067671909E+03  0.17300000000E+03 0.  1.
         -6    1    1    2    0  503 -0.18862140879E+01 -0.15457083327E+02 -0.44059168886E+03  0.47359530775E+03  0.17300000000E+03 0.  1.
<mgrwt>
<rscale>  2 0.17369939E+03</rscale>
<asrwt>0</asrwt>
<pdfrwt beam="1">  1       21 0.29984099E-01 0.17369939E+03</pdfrwt>
<pdfrwt beam="2">  1       21 0.76826982E-01 0.17369939E+03</pdfrwt>
<totfact> 0.16267242E+04</totfact>
</mgrwt>
</event>
<event>
 4    1  0.4111182E+000  0.2305731E+03  0.7546771E-02  0.1126237E+00
         21   -1    0    0  503  502  0.00000000000E+00  0.00000000000E+00  0.18238660727E+03  0.18238660727E+03  0.00000000000E+00 0.  1.
         21   -1    0    0  501  503 -0.00000000000E+00 -0.00000000000E+00 -0.32732478752E+03  0.32732478752E+03  0.00000000000E+00 0. -1.
          6    1    1    2  501    0  0.24344844302E+02  0.15047347002E+03 -0.15679386189E+03  0.27883373496E+03  0.17300000000E+03 0. -1.
         -6    1    1    2    0  502 -0.24344844302E+02 -0.15047347002E+03  0.11855681644E+02  0.23087765983E+03  0.17300000000E+03 0.  1.
<mgrwt>
<rscale>  2 0.23057306E+03</rscale>
<asrwt>0</asrwt>
<pdfrwt beam="1">  1       21 0.28059478E-01 0.23057306E+03</pdfrwt>
<pdfrwt beam="2">  1       21 0.50357659E-01 0.23057306E+03</pdfrwt>
<totfact> 0.44735639E+04</totfact>
</mgrwt>
</event>
<event>
 4    1  0.4111182E+000  0.2009230E+03  0.7546771E-02  0.1148963E+00
         21   -1    0    0  503  502  0.00000000000E+00  0.00000000000E+00  0.14383556841E+04  0.14383556841E+04  0.00000000000E+00 0. -1.
         21   -1    0    0  501  503 -0.00000000000E+00 -0.00000000000E+00 -0.29486226654E+02  0.29486226654E+02  0.00000000000E+00 0. -1.
          6    1    1    2  501    0  0.10141564751E+03  0.12487158895E+02  0.54340951202E+03  0.57936513568E+03  0.17300000000E+03 0. -1.
         -6    1    1    2    0  502 -0.10141564751E+03 -0.12487158895E+02  0.86545994544E+03  0.88847677508E+03  0.17300000000E+03 0. -1.
<mgrwt>
<rscale>  2 0.20092303E+03</rscale>
<asrwt>0</asrwt>
<pdfrwt beam="1">  1       21 0.22128544E+00 0.20092303E+03</pdfrwt>
<pdfrwt beam="2">  1       21 0.45363437E-02 0.20092303E+03</pdfrwt>
<totfact> 0.31133070E+04</totfact>
</mgrwt>
</event>
<event>
 4    1  0.4111182E+000  0.2003391E+03  0.7546771E-02  0.1149453E+00
         21   -1    0    0  501  502  0.00000000000E+00  0.00000000000E+00  0.16065384318E+04  0.16065384318E+04  0.00000000000E+00 0.  1.
         21   -1    0    0  502  503 -0.00000000000E+00 -0.00000000000E+00 -0.24984237523E+02  0.24984237523E+02  0.00000000000E+00 0. -1.
          6    1    1    2  501    0 -0.72267822174E+02 -0.70598192617E+02  0.79707829821E+03  0.82186954950E+03  0.17300000000E+03 0. -1.
         -6    1    1    2    0  503  0.72267822174E+02  0.70598192617E+02  0.78447589603E+03  0.80965311979E+03  0.17300000000E+03 0.  1.
<mgrwt>
<rscale>  2 0.20033907E+03</rscale>
<asrwt>0</asrwt>
<pdfrwt beam="1">  1       21 0.24715968E+00 0.20033907E+03</pdfrwt>
<pdfrwt beam="2">  1       21 0.38437301E-02 0.20033907E+03</pdfrwt>
<totfact> 0.28766411E+04</totfact>
</mgrwt>
</event>
<event>
 4    1  0.4111182E+000  0.1986977E+03  0.7546771E-02  0.1150842E+00
         21   -1    0    0  501  502  0.00000000000E+00  0.00000000000E+00  0.88814401697E+02  0.88814401697E+02  0.00000000000E+00 0.  1.
         21   -1    0    0  502  503 -0.00000000000E+00 -0.00000000000E+00 -0.48511533164E+03  0.48511533164E+03  0.00000000000E+00 0.  1.
          6    1    1    2  501    0  0.11467434275E+02 -0.97058138534E+02 -0.11514940273E+03  0.22965227901E+03  0.17300000000E+03 0.  1.
         -6    1    1    2    0  503 -0.11467434275E+02  0.97058138534E+02 -0.28115152722E+03  0.34427745433E+03  0.17300000000E+03 0.  1.
<mgrwt>
<rscale>  2 0.19869772E+03</rscale>
<asrwt>0</asrwt>
<pdfrwt beam="1">  1       21 0.13663754E-01 0.19869772E+03</pdfrwt>
<pdfrwt beam="2">  1       21 0.74633127E-01 0.19869772E+03</pdfrwt>
<totfact> 0.74483801E+04</totfact>
</mgrwt>
</event>
<event>
 4    1  0.4111182E+000  0.1753434E+03  0.7546771E-02  0.1172387E+00
         21   -1    0    0  503  502  0.00000000000E+00  0.00000000000E+00  0.68957795302E+03  0.68957795302E+03  0.00000000000E+00 0. -1.
         21   -1    0    0  501  503 -0.00000000000E+00 -0.00000000000E+00 -0.49254541375E+02  0.49254541375E+02  0.00000000000E+00 0. -1.
          6    1    1    2  501    0 -0.97070098230E+01  0.26871823032E+02  0.20642593825E+03  0.27084495361E+03  0.17300000000E+03 0. -1.
         -6    1    1    2    0  502  0.97070098230E+01 -0.26871823032E+02  0.43389747340E+03  0.46798754079E+03  0.17300000000E+03 0. -1.
<mgrwt>
<rscale>  2 0.17534344E+03</rscale>
<asrwt>0</asrwt>
<pdfrwt beam="1">  1       21 0.10608891E+00 0.17534344E+03</pdfrwt>
<pdfrwt beam="2">  1       21 0.75776223E-02 0.17534344E+03</pdfrwt>
<totfact> 0.94682032E+04</totfact>
</mgrwt>
</event>
<event>
 4    1  0.4111182E+000  0.2243436E+03  0.7546771E-02  0.1130686E+00
         21   -1    0    0  501  502  0.00000000000E+00  0.00000000000E+00  0.12194328448E+03  0.12194328448E+03  0.00000000000E+00 0. -1.
         21   -1    0    0  502  503 -0.00000000000E+00 -0.00000000000E+00 -0.41681670333E+03  0.41681670333E+03  0.00000000000E+00 0.  1.
          6    1    1    2  501    0 -0.10366927907E+02 -0.14245553412E+03 -0.12077397325E+03  0.25478697967E+03  0.17300000000E+03 0. -1.
         -6    1    1    2    0  503  0.10366927907E+02  0.14245553412E+03 -0.17409944560E+03  0.28397300814E+03  0.17300000000E+03 0.  1.
<mgrwt>
<rscale>  2 0.22434360E+03</rscale>
<asrwt>0</asrwt>
<pdfrwt beam="1">  1       21 0.18760505E-01 0.22434360E+03</pdfrwt>
<pdfrwt beam="2">  1       21 0.64125647E-01 0.22434360E+03</pdfrwt>
<totfact> 0.57527693E+04</totfact>
</mgrwt>
</event>
<event>
 4    1  0.4111182E+000  0.2303467E+03  0.7546771E-02  0.1126396E+00
         21   -1    0    0  501  502  0.00000000000E+00  0.00000000000E+00  0.66725838178E+03  0.66725838178E+03  0.00000000000E+00 0.  1.
         21   -1    0    0  502  503 -0.00000000000E+00 -0.00000000000E+00 -0.11498603338E+03  0.11498603338E+03  0.00000000000E+00 0.  1.
          6    1    1    2  501    0  0.60140335734E+02  0.13969154456E+03  0.49335805471E+03  0.54448301879E+03  0.17300000000E+03 0.  1.
         -6    1    1    2    0  503 -0.60140335734E+02 -0.13969154456E+03  0.58914293695E+02  0.23776139637E+03  0.17300000000E+03 0.  1.
<mgrwt>
<rscale>  2 0.23034667E+03</rscale>
<asrwt>0</asrwt>
<pdfrwt beam="1">  1       21 0.10265513E+00 0.23034667E+03</pdfrwt>
<pdfrwt beam="2">  1       21 0.17690159E-01 0.23034667E+03</pdfrwt>
<totfact> 0.21874060E+04</totfact>
</mgrwt>
</event>
<event>
 4    1  0.4111182E+000  0.1802281E+03  0.7546771E-02  0.1167582E+00
         21   -1    0    0  503  502  0.00000000000E+00  0.00000000000E+00  0.23176960573E+02  0.23176960573E+02  0.00000000000E+00 0. -1.
         21   -1    0    0  501  503 -0.00000000000E+00 -0.00000000000E+00 -0.14020439345E+04  0.14020439345E+04  0.00000000000E+00 0.  1.
          6    1    1    2  501    0  0.28167550131E+02 -0.41949611661E+02 -0.67521523051E+03  0.69885462602E+03  0.17300000000E+03 0.  1.
         -6    1    1    2    0  502 -0.28167550131E+02  0.41949611661E+02 -0.70365174337E+03  0.72636626900E+03  0.17300000000E+03 0.  1.
<mgrwt>
<rscale>  2 0.18022814E+03</rscale>
<asrwt>0</asrwt>
<pdfrwt beam="1">  1       21 0.35656855E-02 0.18022814E+03</pdfrwt>
<pdfrwt beam="2">  1       21 0.21569911E+00 0.18022814E+03</pdfrwt>
<totfact> 0.51218724E+04</totfact>
</mgrwt>
</event>
<event>
 4    1  0.4111182E+000  0.1770615E+03  0.7546771E-02  0.1170678E+00
         21   -1    0    0  501  502  0.00000000000E+00  0.00000000000E+00  0.10211078277E+03  0.10211078277E+03  0.00000000000E+00 0.  1.
         21   -1    0    0  502  503 -0.00000000000E+00 -0.00000000000E+00 -0.39434136570E+03  0.39434136570E+03  0.00000000000E+00 0. -1.
          6    1    1    2  501    0 -0.28509505100E+01 -0.37598302695E+02 -0.29312222645E+02  0.17947135337E+03  0.17300000000E+03 0.  1.
         -6    1    1    2    0  503  0.28509505100E+01  0.37598302695E+02 -0.26291836029E+03  0.31698079510E+03  0.17300000000E+03 0. -1.
<mgrwt>
<rscale>  2 0.17706146E+03</rscale>
<asrwt>0</asrwt>
<pdfrwt beam="1">  1       21 0.15709351E-01 0.17706146E+03</pdfrwt>
<pdfrwt beam="2">  1       21 0.60667903E-01 0.17706146E+03</pdfrwt>
<totfact> 0.91800425E+04</totfact>
</mgrwt>
</event>
<event>
 4    1  0.4111182E+000  0.2140739E+03  0.7546771E-02  0.1138380E+00
         21   -1    0    0  503  502  0.00000000000E+00  0.00000000000E+00  0.37041384127E+03  0.37041384127E+03  0.00000000000E+00 0. -1.
         21   -1    0    0  501  503 -0.00000000000E+00 -0.00000000000E+00 -0.15078170879E+03  0.15078170879E+03  0.00000000000E+00 0.  1.
          6    1    1    2  501    0 -0.52343154584E+02  0.11471184517E+03 -0.58511079552E+00  0.21407464962E+03  0.17300000000E+03 0.  1.
         -6    1    1    2    0  502  0.52343154584E+02 -0.11471184517E+03  0.22021724328E+03  0.30712090044E+03  0.17300000000E+03 0. -1.
<mgrwt>
<rscale>  2 0.21407385E+03</rscale>
<asrwt>0</asrwt>
<pdfrwt beam="1">  1       21 0.56986744E-01 0.21407385E+03</pdfrwt>
<pdfrwt beam="2">  1       21 0.23197186E-01 0.21407385E+03</pdfrwt>
<totfact> 0.50003663E+04</totfact>
</mgrwt>
</event>
<event>
 4    1  0.4111182E+000  0.1892318E+03  0.7546771E-02  0.1159156E+00
         21   -1    0    0  503  502  0.00000000000E+00  0.00000000000E+00  0.40043261788E+03  0.40043261788E+03  0.00000000000E+00 0. -1.
         21   -1    0    0  501  503 -0.00000000000E+00 -0.00000000000E+00 -0.11126285218E+03  0.11126285218E+03  0.00000000000E+00 0.  1.
          6    1    1    2  501    0 -0.50428267324E+02 -0.57763849723E+02  0.31237420842E+02  0.19179272390E+03  0.17300000000E+03 0.  1.
         -6    1    1    2    0  502  0.50428267324E+02  0.57763849723E+02  0.25793234485E+03  0.31990274616E+03  0.17300000000E+03 0. -1.
<mgrwt>
<rscale>  2 0.18923180E+03</rscale>
<asrwt>0</asrwt>
<pdfrwt beam="1">  1       21 0.61605017E-01 0.18923180E+03</pdfrwt>
<pdfrwt beam="2">  1       21 0.17117362E-01 0.18923180E+03</pdfrwt>
<totfact> 0.75521872E+04</totfact>
</mgrwt>
</event>
<event>
 4    1  0.4111182E+000  0.1894376E+03  0.7546771E-02  0.1158970E+00
         21   -1    0    0  501  502  0.00000000000E+00  0.00000000000E+00  0.76649579061E+02  0.76649579061E+02  0.00000000000E+00 0.  1.
         21   -1    0    0  502  503 -0.00000000000E+00 -0.00000000000E+00 -0.55991921160E+03  0.55991921160E+03  0.00000000000E+00 0.  1.
          6    1    1    2  501    0  0.44177327912E+02 -0.63292857940E+02 -0.11280844587E+03  0.22048212542E+03  0.17300000000E+03 0.  1.
         -6    1    1    2    0  503 -0.44177327912E+02  0.63292857940E+02 -0.37046118667E+03  0.41608666525E+03  0.17300000000E+03 0.  1.
<mgrwt>
<rscale>  2 0.18943765E+03</rscale>
<asrwt>0</asrwt>
<pdfrwt beam="1">  1       21 0.11792243E-01 0.18943765E+03</pdfrwt>
<pdfrwt beam="2">  1       21 0.86141418E-01 0.18943765E+03</pdfrwt>
<totfact> 0.70464181E+04</totfact>
</mgrwt>
</event>
<event>
 4    1  0.4111182E+000  0.2014222E+03  0.7546771E-02  0.1148545E+00
         21   -1    0    0  503  502  0.00000000000E+00  0.00000000000E+00  0.26476573220E+03  0.26476573220E+03  0.00000000000E+00 0.  1.
         21   -1    0    0  501  503 -0.00000000000E+00 -0.00000000000E+00 -0.45489606575E+03  0.45489606575E+03  0.00000000000E+00 0.  1.
          6    1    1    2  501    0  0.12705328443E+02 -0.10237424730E+03 -0.38808921127E+03  0.43724609522E+03  0.17300000000E+03 0.  1.
         -6    1    1    2    0  502 -0.12705328443E+02  0.10237424730E+03  0.19795887772E+03  0.28241570273E+03  0.17300000000E+03 0.  1.
<mgrwt>
<rscale>  2 0.20142222E+03</rscale>
<asrwt>0</asrwt>
<pdfrwt beam="1">  1       21 0.40733190E-01 0.20142222E+03</pdfrwt>
<pdfrwt beam="2">  1       21 0.69984010E-01 0.20142222E+03</pdfrwt>
<totfact> 0.10699466E+04</totfact>
</mgrwt>
</event>
<event>
 4    1  0.4111182E+000  0.2113505E+03  0.7546771E-02  0.1140501E+00
         21   -1    0    0  503  502  0.00000000000E+00  0.00000000000E+00  0.53119256393E+03  0.53119256393E+03  0.00000000000E+00 0. -1.
         21   -1    0    0  501  503 -0.00000000000E+00 -0.00000000000E+00 -0.95479800389E+02  0.95479800389E+02  0.00000000000E+00 0.  1.
          6    1    1    2  501    0  0.48130355291E+02 -0.11146080930E+03  0.10964453965E+03  0.23809865221E+03  0.17300000000E+03 0. -1.
         -6    1    1    2    0  502 -0.48130355291E+02  0.11146080930E+03  0.32606822389E+03  0.38857371211E+03  0.17300000000E+03 0.  1.
<mgrwt>
<rscale>  2 0.21135052E+03</rscale>
<asrwt>0</asrwt>
<pdfrwt beam="1">  1       21 0.81721931E-01 0.21135052E+03</pdfrwt>
<pdfrwt beam="2">  1       21 0.14689200E-01 0.21135052E+03</pdfrwt>
<totfact> 0.52923557E+04</totfact>
</mgrwt>
</event>
<event>
 4    1  0.4111182E+000  0.1826924E+03  0.7546771E-02  0.1165222E+00
         21   -1    0    0  501  502  0.00000000000E+00  0.00000000000E+00  0.15373430997E+03  0.15373430997E+03  0.00000000000E+00 0.  1.
         21   -1    0    0  502  503 -0.00000000000E+00 -0.00000000000E+00 -0.29167893754E+03  0.29167893754E+03  0.00000000000E+00 0.  1.
          6    1    1    2  501    0  0.19459071490E+02  0.55397327478E+02  0.43636797444E+02  0.18783154540E+03  0.17300000000E+03 0.  1.
         -6    1    1    2    0  503 -0.19459071490E+02 -0.55397327478E+02 -0.18158142501E+03  0.25758170212E+03  0.17300000000E+03 0.  1.
<mgrwt>
<rscale>  2 0.18269242E+03</rscale>
<asrwt>0</asrwt>
<pdfrwt beam="1">  1       21 0.23651433E-01 0.18269242E+03</pdfrwt>
<pdfrwt beam="2">  1       21 0.44873682E-01 0.18269242E+03</pdfrwt>
<totfact> 0.80552248E+04</totfact>
</mgrwt>
</event>
<event>
 4    1  0.4111182E+000  0.1859611E+03  0.7546771E-02  0.1162155E+00
         21   -1    0    0  501  502  0.00000000000E+00  0.00000000000E+00  0.84199653797E+02  0.84199653797E+02  0.00000000000E+00 0.  1.
         21   -1    0    0  502  503 -0.00000000000E+00 -0.00000000000E+00 -0.43908915639E+03  0.43908915639E+03  0.00000000000E+00 0. -1.
          6    1    1    2  501    0  0.68086229145E+02 -0.41003716280E+01 -0.11092613413E+03  0.21653211050E+03  0.17300000000E+03 0. -1.
         -6    1    1    2    0  503 -0.68086229145E+02  0.41003716280E+01 -0.24396336847E+03  0.30675669968E+03  0.17300000000E+03 0. -1.
<mgrwt>
<rscale>  2 0.18596115E+03</rscale>
<asrwt>0</asrwt>
<pdfrwt beam="1">  1       21 0.12953793E-01 0.18596115E+03</pdfrwt>
<pdfrwt beam="2">  1       21 0.67552178E-01 0.18596115E+03</pdfrwt>
<totfact> 0.10276662E+05</totfact>
</mgrwt>
</event>
<event>
 4    1  0.4111182E+000  0.2105775E+03  0.7546771E-02  0.1141110E+00
         21   -1    0    0  501  502  0.00000000000E+00  0.00000000000E+00  0.16083799961E+03  0.16083799961E+03  0.00000000000E+00 0. -1.
         21   -1    0    0  502  503 -0.00000000000E+00 -0.00000000000E+00 -0.48612317073E+03  0.48612317073E+03  0.00000000000E+00 0. -1.
          6    1    1    2  501    0 -0.75795354558E+02 -0.93107136799E+02  0.50182529783E+02  0.21647438876E+03  0.17300000000E+03 0. -1.
         -6    1    1    2    0  503  0.75795354558E+02  0.93107136799E+02 -0.37546770090E+03  0.43048678158E+03  0.17300000000E+03 0. -1.
<mgrwt>
<rscale>  2 0.21057748E+03</rscale>
<asrwt>0</asrwt>
<pdfrwt beam="1">  1       21 0.24744308E-01 0.21057748E+03</pdfrwt>
<pdfrwt beam="2">  1       21 0.74788179E-01 0.21057748E+03</pdfrwt>
<totfact> 0.24461031E+04</totfact>
</mgrwt>
</event>
<event>
 4    1  0.4111182E+000  0.1919453E+03  0.7546771E-02  0.1156718E+00
         21   -1    0    0  501  502  0.00000000000E+00  0.00000000000E+00  0.22411020791E+02  0.22411020791E+02  0.00000000000E+00 0. -1.
         21   -1    0    0  502  503 -0.00000000000E+00 -0.00000000000E+00 -0.17934428661E+04  0.17934428661E+04  0.00000000000E+00 0. -1.
          6    1    1    2  501    0 -0.37525774192E+02  0.74201145278E+02 -0.62340103214E+03  0.65228202532E+03  0.17300000000E+03 0. -1.
         -6    1    1    2    0  503  0.37525774192E+02 -0.74201145278E+02 -0.11476308131E+04  0.11635718615E+04  0.17300000000E+03 0. -1.
<mgrwt>
<rscale>  2 0.19194529E+03</rscale>
<asrwt>0</asrwt>
<pdfrwt beam="1">  1       21 0.34478493E-02 0.19194529E+03</pdfrwt>
<pdfrwt beam="2">  1       21 0.27591429E+00 0.19194529E+03</pdfrwt>
<totfact> 0.23612055E+04</totfact>
</mgrwt>
</event>
<event>
 4    1  0.4111182E+000  0.2767563E+03  0.7546771E-02  0.1097474E+00
         21   -1    0    0  503  502  0.00000000000E+00  0.00000000000E+00  0.89021117929E+02  0.89021117929E+02  0.00000000000E+00 0. -1.
         21   -1    0    0  501  503 -0.00000000000E+00 -0.00000000000E+00 -0.10512587787E+04  0.10512587787E+04  0.00000000000E+00 0.  1.
          6    1    1    2  501    0  0.21036606131E+03  0.49103700325E+02 -0.72404768593E+03  0.77513811972E+03  0.17300000000E+03 0.  1.
         -6    1    1    2    0  502 -0.21036606131E+03 -0.49103700325E+02 -0.23818997486E+03  0.36514177693E+03  0.17300000000E+03 0. -1.
<mgrwt>
<rscale>  2 0.27675631E+03</rscale>
<asrwt>0</asrwt>
<pdfrwt beam="1">  1       21 0.13695557E-01 0.27675631E+03</pdfrwt>
<pdfrwt beam="2">  1       21 0.16173211E+00 0.27675631E+03</pdfrwt>
<totfact> 0.10706009E+04</totfact>
</mgrwt>
</event>
<event>
 4    1  0.4111182E+000  0.1841190E+03  0.7546771E-02  0.1163875E+00
         21   -1    0    0  503  502  0.00000000000E+00  0.00000000000E+00  0.34249278251E+03  0.34249278251E+03  0.00000000000E+00 0. -1.
         21   -1    0    0  501  503 -0.00000000000E+00 -0.00000000000E+00 -0.10129382807E+03  0.10129382807E+03  0.00000000000E+00 0. -1.
          6    1    1    2  501    0 -0.29677494458E+02 -0.55588142305E+02  0.87059967456E+02  0.20366451133E+03  0.17300000000E+03 0. -1.
         -6    1    1    2    0  502  0.29677494458E+02  0.55588142305E+02  0.15413898699E+03  0.24012209926E+03  0.17300000000E+03 0. -1.
<mgrwt>
<rscale>  2 0.18411897E+03</rscale>
<asrwt>0</asrwt>
<pdfrwt beam="1">  1       21 0.52691197E-01 0.18411897E+03</pdfrwt>
<pdfrwt beam="2">  1       21 0.15583666E-01 0.18411897E+03</pdfrwt>
<totfact> 0.12530560E+05</totfact>
</mgrwt>
</event>
<event>
 4    1  0.4111182E+000  0.1773273E+03  0.7546771E-02  0.1170415E+00
         21   -1    0    0  503  502  0.00000000000E+00  0.00000000000E+00  0.11208113641E+03  0.11208113641E+03  0.00000000000E+00 0. -1.
         21   -1    0    0  501  503 -0.00000000000E+00 -0.00000000000E+00 -0.28544674055E+03  0.28544674055E+03  0.00000000000E+00 0. -1.
          6    1    1    2  501    0  0.38613872909E+02 -0.49953097079E+01 -0.11270132070E+03  0.21011085643E+03  0.17300000000E+03 0.  1.
         -6    1    1    2    0  502 -0.38613872909E+02  0.49953097079E+01 -0.60664283433E+02  0.18741702053E+03  0.17300000000E+03 0.  1.
<mgrwt>
<rscale>  2 0.17732734E+03</rscale>
<asrwt>0</asrwt>
<pdfrwt beam="1">  1       21 0.17243252E-01 0.17732734E+03</pdfrwt>
<pdfrwt beam="2">  1       21 0.43914883E-01 0.17732734E+03</pdfrwt>
<totfact> 0.15215682E+05</totfact>
</mgrwt>
</event>
<event>
 4    1  0.4111182E+000  0.2162936E+03  0.7546771E-02  0.1136677E+00
         21   -1    0    0  501  502  0.00000000000E+00  0.00000000000E+00  0.54342445996E+03  0.54342445996E+03  0.00000000000E+00 0.  1.
         21   -1    0    0  502  503 -0.00000000000E+00 -0.00000000000E+00 -0.16391327167E+03  0.16391327167E+03  0.00000000000E+00 0. -1.
          6    1    1    2  501    0  0.28180419862E+02 -0.12672727884E+03  0.43345077364E+03  0.48441976883E+03  0.17300000000E+03 0.  1.
         -6    1    1    2    0  503 -0.28180419862E+02  0.12672727884E+03 -0.53939585353E+02  0.22291796279E+03  0.17300000000E+03 0. -1.
<mgrwt>
<rscale>  2 0.21629364E+03</rscale>
<asrwt>0</asrwt>
<pdfrwt beam="1">  1       21 0.83603762E-01 0.21629364E+03</pdfrwt>
<pdfrwt beam="2">  1       21 0.25217427E-01 0.21629364E+03</pdfrwt>
<totfact> 0.18275930E+04</totfact>
</mgrwt>
</event>
<event>
 4    1  0.4111182E+000  0.2292369E+03  0.7546771E-02  0.1127178E+00
         21   -1    0    0  501  502  0.00000000000E+00  0.00000000000E+00  0.28939481769E+03  0.28939481769E+03  0.00000000000E+00 0.  1.
         21   -1    0    0  502  503 -0.00000000000E+00 -0.00000000000E+00 -0.24935220845E+03  0.24935220845E+03  0.00000000000E+00 0.  1.
          6    1    1    2  501    0 -0.14732115325E+03  0.30282578469E+02  0.16045143746E+03  0.27981104434E+03  0.17300000000E+03 0.  1.
         -6    1    1    2    0  503  0.14732115325E+03 -0.30282578469E+02 -0.12040882822E+03  0.25893598180E+03  0.17300000000E+03 0.  1.
<mgrwt>
<rscale>  2 0.22923690E+03</rscale>
<asrwt>0</asrwt>
<pdfrwt beam="1">  1       21 0.44522280E-01 0.22923690E+03</pdfrwt>
<pdfrwt beam="2">  1       21 0.38361878E-01 0.22923690E+03</pdfrwt>
<totfact> 0.31141910E+04</totfact>
</mgrwt>
</event>
<event>
 4    1  0.4111182E+000  0.2694587E+03  0.7546771E-02  0.1101590E+00
         21   -1    0    0  501  502  0.00000000000E+00  0.00000000000E+00  0.16810575595E+03  0.16810575595E+03  0.00000000000E+00 0.  1.
         21   -1    0    0  502  503 -0.00000000000E+00 -0.00000000000E+00 -0.47191206360E+03  0.47191206360E+03  0.00000000000E+00 0.  1.
          6    1    1    2  501    0 -0.20369094866E+03  0.34481760608E+02 -0.58743833804E+02  0.27578765816E+03  0.17300000000E+03 0.  1.
         -6    1    1    2    0  503  0.20369094866E+03 -0.34481760608E+02 -0.24506247385E+03  0.36423016139E+03  0.17300000000E+03 0.  1.
<mgrwt>
<rscale>  2 0.26945871E+03</rscale>
<asrwt>0</asrwt>
<pdfrwt beam="1">  1       21 0.25862424E-01 0.26945871E+03</pdfrwt>
<pdfrwt beam="2">  1       21 0.72601855E-01 0.26945871E+03</pdfrwt>
<totfact> 0.23327231E+04</totfact>
</mgrwt>
</event>
<event>
 4    1  0.4111182E+000  0.2641580E+03  0.7546771E-02  0.1104670E+00
         21   -1    0    0  501  502  0.00000000000E+00  0.00000000000E+00  0.10481678070E+03  0.10481678070E+03  0.00000000000E+00 0.  1.
         21   -1    0    0  502  503 -0.00000000000E+00 -0.00000000000E+00 -0.13034582668E+04  0.13034582668E+04  0.00000000000E+00 0.  1.
          6    1    1    2  501    0 -0.11233712323E+03  0.16501766389E+03 -0.10679667149E+03  0.28492979432E+03  0.17300000000E+03 0.  1.
         -6    1    1    2    0  503  0.11233712323E+03 -0.16501766389E+03 -0.10918448146E+04  0.11233452532E+04  0.17300000000E+03 0.  1.
<mgrwt>
<rscale>  2 0.26415802E+03</rscale>
<asrwt>0</asrwt>
<pdfrwt beam="1">  1       21 0.16125658E-01 0.26415802E+03</pdfrwt>
<pdfrwt beam="2">  1       21 0.20053204E+00 0.26415802E+03</pdfrwt>
<totfact> 0.43184750E+03</totfact>
</mgrwt>
</event>
<event>
 4    1  0.4111182E+000  0.1925018E+03  0.7546771E-02  0.1156224E+00
         21   -1    0    0  503  502  0.00000000000E+00  0.00000000000E+00  0.17304516070E+02  0.17304516070E+02  0.00000000000E+00 0. -1.
         21   -1    0    0  501  503 -0.00000000000E+00 -0.00000000000E+00 -0.22873985058E+04  0.22873985058E+04  0.00000000000E+00 0. -1.
          6    1    1    2  501    0 -0.82892193443E+02  0.16025924062E+02 -0.14261170617E+04  0.14390506661E+04  0.17300000000E+03 0. -1.
         -6    1    1    2    0  502  0.82892193443E+02 -0.16025924062E+02 -0.84397692800E+03  0.86565235572E+03  0.17300000000E+03 0. -1.
<mgrwt>
<rscale>  2 0.19250181E+03</rscale>
<asrwt>0</asrwt>
<pdfrwt beam="1">  1       21 0.26622341E-02 0.19250181E+03</pdfrwt>
<pdfrwt beam="2">  1       21 0.35190734E+00 0.19250181E+03</pdfrwt>
<totfact> 0.13132470E+04</totfact>
</mgrwt>
</event>
<event>
 4    1  0.4111182E+000  0.1921947E+03  0.7546771E-02  0.1156497E+00
         21   -1    0    0  503  502  0.00000000000E+00  0.00000000000E+00  0.25457346147E+02  0.25457346147E+02  0.00000000000E+00 0.  1.
         21   -1    0    0  501  503 -0.00000000000E+00 -0.00000000000E+00 -0.14810643125E+04  0.14810643125E+04  0.00000000000E+00 0. -1.
          6    1    1    2  501    0  0.46507178224E+01 -0.83595266440E+02 -0.83511110728E+03  0.85694186457E+03  0.17300000000E+03 0. -1.
         -6    1    1    2    0  502 -0.46507178224E+01  0.83595266440E+02 -0.62049585903E+03  0.64957979404E+03  0.17300000000E+03 0. -1.
<mgrwt>
<rscale>  2 0.19219469E+03</rscale>
<asrwt>0</asrwt>
<pdfrwt beam="1">  1       21 0.39165150E-02 0.19219469E+03</pdfrwt>
<pdfrwt beam="2">  1       21 0.22785603E+00 0.19219469E+03</pdfrwt>
<totfact> 0.36590162E+04</totfact>
</mgrwt>
</event>
<event>
 4    1  0.4111182E+000  0.1852269E+03  0.7546771E-02  0.1162838E+00
         21   -1    0    0  503  502  0.00000000000E+00  0.00000000000E+00  0.16862738328E+03  0.16862738328E+03  0.00000000000E+00 0. -1.
         21   -1    0    0  501  503 -0.00000000000E+00 -0.00000000000E+00 -0.29162404549E+03  0.29162404549E+03  0.00000000000E+00 0. -1.
          6    1    1    2  501    0  0.59681303485E+02 -0.28603318659E+02 -0.18802965873E+03  0.26393969081E+03  0.17300000000E+03 0. -1.
         -6    1    1    2    0  502 -0.59681303485E+02  0.28603318659E+02  0.65032996515E+02  0.19631173796E+03  0.17300000000E+03 0. -1.
<mgrwt>
<rscale>  2 0.18522691E+03</rscale>
<asrwt>0</asrwt>
<pdfrwt beam="1">  1       21 0.25942674E-01 0.18522691E+03</pdfrwt>
<pdfrwt beam="2">  1       21 0.44865238E-01 0.18522691E+03</pdfrwt>
<totfact> 0.67496211E+04</totfact>
</mgrwt>
</event>
<event>
 4    1  0.4111182E+000  0.1804346E+03  0.7546771E-02  0.1167383E+00
         21   -1    0    0  501  502  0.00000000000E+00  0.00000000000E+00  0.51729957786E+02  0.51729957786E+02  0.00000000000E+00 0. -1.
         21   -1    0    0  502  503 -0.00000000000E+00 -0.00000000000E+00 -0.64297000309E+03  0.64297000309E+03  0.00000000000E+00 0. -1.
          6    1    1    2  501    0  0.37472541618E+02 -0.34977753300E+02 -0.24507927881E+03  0.30433614229E+03  0.17300000000E+03 0. -1.
         -6    1    1    2    0  503 -0.37472541618E+02  0.34977753300E+02 -0.34616076649E+03  0.39036381858E+03  0.17300000000E+03 0. -1.
<mgrwt>
<rscale>  2 0.18043457E+03</rscale>
<asrwt>0</asrwt>
<pdfrwt beam="1">  1       21 0.79584546E-02 0.18043457E+03</pdfrwt>
<pdfrwt beam="2">  1       21 0.98918467E-01 0.18043457E+03</pdfrwt>
<totfact> 0.10251327E+05</totfact>
</mgrwt>
</event>
<event>
 4    1  0.4111182E+000  0.1969482E+03  0.7546771E-02  0.1152340E+00
         21   -1    0    0  501  502  0.00000000000E+00  0.00000000000E+00  0.49290756658E+03  0.49290756658E+03  0.00000000000E+00 0. -1.
         21   -1    0    0  502  503 -0.00000000000E+00 -0.00000000000E+00 -0.96448749279E+02  0.96448749279E+02  0.00000000000E+00 0. -1.
          6    1    1    2  501    0 -0.49685689926E+02  0.79943375117E+02  0.32466323918E+03  0.37972994336E+03  0.17300000000E+03 0. -1.
         -6    1    1    2    0  503  0.49685689926E+02 -0.79943375117E+02  0.71795578114E+02  0.20962637249E+03  0.17300000000E+03 0. -1.
<mgrwt>
<rscale>  2 0.19694824E+03</rscale>
<asrwt>0</asrwt>
<pdfrwt beam="1">  1       21 0.75831932E-01 0.19694824E+03</pdfrwt>
<pdfrwt beam="2">  1       21 0.14838269E-01 0.19694824E+03</pdfrwt>
<totfact> 0.61938975E+04</totfact>
</mgrwt>
</event>
<event>
 4    1  0.4111182E+000  0.2114877E+03  0.7546771E-02  0.1140393E+00
         21   -1    0    0  503  502  0.00000000000E+00  0.00000000000E+00  0.19388521587E+04  0.19388521587E+04  0.00000000000E+00 0.  1.
         21   -1    0    0  501  503 -0.00000000000E+00 -0.00000000000E+00 -0.73474091239E+02  0.73474091239E+02  0.00000000000E+00 0.  1.
          6    1    1    2  501    0 -0.74326725244E+02  0.96299346350E+02  0.99316323479E+02  0.23364665267E+03  0.17300000000E+03 0.  1.
         -6    1    1    2    0  502  0.74326725244E+02 -0.96299346350E+02  0.17660617440E+04  0.17786795973E+04  0.17300000000E+03 0.  1.
<mgrwt>
<rscale>  2 0.21148765E+03</rscale>
<asrwt>0</asrwt>
<pdfrwt beam="1">  1       21 0.29828491E+00 0.21148765E+03</pdfrwt>
<pdfrwt beam="2">  1       21 0.11303708E-01 0.21148765E+03</pdfrwt>
<totfact> 0.22289817E+03</totfact>
</mgrwt>
</event>
<event>
 4    1  0.4111182E+000  0.2733603E+03  0.7546771E-02  0.1099372E+00
         21   -1    0    0  503  502  0.00000000000E+00  0.00000000000E+00  0.14932524475E+03  0.14932524475E+03  0.00000000000E+00 0.  1.
         21   -1    0    0  501  503 -0.00000000000E+00 -0.00000000000E+00 -0.51771038634E+03  0.51771038634E+03  0.00000000000E+00 0. -1.
          6    1    1    2  501    0  0.39829041143E+01 -0.21161521915E+03 -0.24513696215E+03  0.36717570006E+03  0.17300000000E+03 0. -1.
         -6    1    1    2    0  502 -0.39829041143E+01  0.21161521915E+03 -0.12324817945E+03  0.29985993103E+03  0.17300000000E+03 0.  1.
<mgrwt>
<rscale>  2 0.27336032E+03</rscale>
<asrwt>0</asrwt>
<pdfrwt beam="1">  1       21 0.22973115E-01 0.27336032E+03</pdfrwt>
<pdfrwt beam="2">  1       21 0.79647752E-01 0.27336032E+03</pdfrwt>
<totfact> 0.23714846E+04</totfact>
</mgrwt>
</event>
<event>
 4    1  0.4111182E+000  0.1881717E+03  0.7546771E-02  0.1160121E+00
         21   -1    0    0  501  502  0.00000000000E+00  0.00000000000E+00  0.82384451327E+02  0.82384451327E+02  0.00000000000E+00 0. -1.
         21   -1    0    0  502  503 -0.00000000000E+00 -0.00000000000E+00 -0.89067098477E+03  0.89067098477E+03  0.00000000000E+00 0. -1.
          6    1    1    2  501    0  0.72826804208E+02  0.13260601868E+02 -0.54165827019E+02  0.19581247098E+03  0.17300000000E+03 0. -1.
         -6    1    1    2    0  503 -0.72826804208E+02 -0.13260601868E+02 -0.75412070642E+03  0.77724296512E+03  0.17300000000E+03 0. -1.
<mgrwt>
<rscale>  2 0.18817170E+03</rscale>
<asrwt>0</asrwt>
<pdfrwt beam="1">  1       21 0.12674531E-01 0.18817170E+03</pdfrwt>
<pdfrwt beam="2">  1       21 0.13702631E+00 0.18817170E+03</pdfrwt>
<totfact> 0.20179162E+04</totfact>
</mgrwt>
</event>
<event>
 4    1  0.4111182E+000  0.1734183E+03  0.7546771E-02  0.1174329E+00
         21   -1    0    0  501  502  0.00000000000E+00  0.00000000000E+00  0.22384420263E+03  0.22384420263E+03  0.00000000000E+00 0. -1.
         21   -1    0    0  502  503 -0.00000000000E+00 -0.00000000000E+00 -0.30258026236E+03  0.30258026236E+03  0.00000000000E+00 0. -1.
          6    1    1    2  501    0  0.11974202473E+02  0.12364204344E+01  0.15689354781E+03  0.23385785341E+03  0.17300000000E+03 0. -1.
         -6    1    1    2    0  503 -0.11974202473E+02 -0.12364204344E+01 -0.23562960754E+03  0.29256661158E+03  0.17300000000E+03 0. -1.
<mgrwt>
<rscale>  2 0.17341831E+03</rscale>
<asrwt>0</asrwt>
<pdfrwt beam="1">  1       21 0.34437570E-01 0.17341831E+03</pdfrwt>
<pdfrwt beam="2">  1       21 0.46550810E-01 0.17341831E+03</pdfrwt>
<totfact> 0.36275591E+04</totfact>
</mgrwt>
</event>
<event>
 4    1  0.4111182E+000  0.4794368E+03  0.7546771E-02  0.1019290E+00
         21   -1    0    0  501  502  0.00000000000E+00  0.00000000000E+00  0.34504827065E+03  0.34504827065E+03  0.00000000000E+00 0. -1.
         21   -1    0    0  502  503 -0.00000000000E+00 -0.00000000000E+00 -0.88081662215E+03  0.88081662215E+03  0.00000000000E+00 0.  1.
          6    1    1    2  501    0 -0.44493027956E+03 -0.44358475750E+02  0.34692428989E+02  0.48069032928E+03  0.17300000000E+03 0. -1.
         -6    1    1    2    0  503  0.44493027956E+03  0.44358475750E+02 -0.57046078049E+03  0.74517456352E+03  0.17300000000E+03 0.  1.
<mgrwt>
<rscale>  2 0.47943678E+03</rscale>
<asrwt>0</asrwt>
<pdfrwt beam="1">  1       21 0.53084349E-01 0.47943678E+03</pdfrwt>
<pdfrwt beam="2">  1       21 0.13551025E+00 0.47943678E+03</pdfrwt>
<totfact> 0.10967121E+03</totfact>
</mgrwt>
</event>
<event>
 4    1  0.4111182E+000  0.2153142E+03  0.7546771E-02  0.1137426E+00
         21   -1    0    0  503  502  0.00000000000E+00  0.00000000000E+00  0.35030374314E+03  0.35030374314E+03  0.00000000000E+00 0.  1.
         21   -1    0    0  501  503 -0.00000000000E+00 -0.00000000000E+00 -0.13531995438E+03  0.13531995438E+03  0.00000000000E+00 0.  1.
          6    1    1    2  501    0 -0.65138619986E+02  0.11039997587E+03  0.71476660094E+02  0.22686803967E+03  0.17300000000E+03 0.  1.
         -6    1    1    2    0  502  0.65138619986E+02 -0.11039997587E+03  0.14350712867E+03  0.25875565784E+03  0.17300000000E+03 0.  1.
<mgrwt>
<rscale>  2 0.21531418E+03</rscale>
<asrwt>0</asrwt>
<pdfrwt beam="1">  1       21 0.53892883E-01 0.21531418E+03</pdfrwt>
<pdfrwt beam="2">  1       21 0.20818455E-01 0.21531418E+03</pdfrwt>
<totfact> 0.69030111E+04</totfact>
</mgrwt>
</event>
<event>
 4    1  0.4111182E+000  0.2325553E+03  0.7546771E-02  0.1124854E+00
         21   -1    0    0  501  502  0.00000000000E+00  0.00000000000E+00  0.16636397849E+04  0.16636397849E+04  0.00000000000E+00 0.  1.
         21   -1    0    0  502  503 -0.00000000000E+00 -0.00000000000E+00 -0.32516644215E+02  0.32516644215E+02  0.00000000000E+00 0. -1.
          6    1    1    2  501    0 -0.46125596916E+02  0.14840949633E+03  0.82922121591E+03  0.86121412797E+03  0.17300000000E+03 0.  1.
         -6    1    1    2    0  503  0.46125596916E+02 -0.14840949633E+03  0.80190192477E+03  0.83494230115E+03  0.17300000000E+03 0. -1.
<mgrwt>
<rscale>  2 0.23255526E+03</rscale>
<asrwt>0</asrwt>
<pdfrwt beam="1">  1       21 0.25594452E+00 0.23255526E+03</pdfrwt>
<pdfrwt beam="2">  1       21 0.50025620E-02 0.23255526E+03</pdfrwt>
<totfact> 0.15939030E+04</totfact>
</mgrwt>
</event>
<event>
 4    1  0.4111182E+000  0.2019441E+03  0.7546771E-02  0.1148109E+00
         21   -1    0    0  501  502  0.00000000000E+00  0.00000000000E+00  0.10858830095E+04  0.10858830095E+04  0.00000000000E+00 0. -1.
         21   -1    0    0  502  503 -0.00000000000E+00 -0.00000000000E+00 -0.39996376455E+02  0.39996376455E+02  0.00000000000E+00 0. -1.
          6    1    1    2  501    0  0.93974725715E+02 -0.44957381624E+02  0.66199637330E+03  0.69211315079E+03  0.17300000000E+03 0. -1.
         -6    1    1    2    0  503 -0.93974725715E+02  0.44957381624E+02  0.38389025970E+03  0.43376623511E+03  0.17300000000E+03 0. -1.
<mgrwt>
<rscale>  2 0.20194409E+03</rscale>
<asrwt>0</asrwt>
<pdfrwt beam="1">  1       21 0.16705890E+00 0.20194409E+03</pdfrwt>
<pdfrwt beam="2">  1       21 0.61532895E-02 0.20194409E+03</pdfrwt>
<totfact> 0.42030033E+04</totfact>
</mgrwt>
</event>
<event>
 4    1  0.4111182E+000  0.1883950E+03  0.7546771E-02  0.1159917E+00
         21   -1    0    0  503  502  0.00000000000E+00  0.00000000000E+00  0.30658929296E+02  0.30658929296E+02  0.00000000000E+00 0. -1.
         21   -1    0    0  501  503 -0.00000000000E+00 -0.00000000000E+00 -0.13579679688E+04  0.13579679688E+04  0.00000000000E+00 0. -1.
          6    1    1    2  501    0  0.38944812972E+02 -0.63615997215E+02 -0.93031409864E+03  0.94919809085E+03  0.17300000000E+03 0. -1.
         -6    1    1    2    0  502 -0.38944812972E+02  0.63615997215E+02 -0.39699494086E+03  0.43942880723E+03  0.17300000000E+03 0. -1.
<mgrwt>
<rscale>  2 0.18839505E+03</rscale>
<asrwt>0</asrwt>
<pdfrwt beam="1">  1       21 0.47167575E-02 0.18839505E+03</pdfrwt>
<pdfrwt beam="2">  1       21 0.20891819E+00 0.18839505E+03</pdfrwt>
<totfact> 0.35101277E+04</totfact>
</mgrwt>
</event>
<event>
 4    1  0.4111182E+000  0.2434066E+03  0.7546771E-02  0.1117544E+00
         21   -1    0    0  501  502  0.00000000000E+00  0.00000000000E+00  0.31356059888E+03  0.31356059888E+03  0.00000000000E+00 0.  1.
         21   -1    0    0  502  503 -0.00000000000E+00 -0.00000000000E+00 -0.21836967715E+03  0.21836967715E+03  0.00000000000E+00 0.  1.
          6    1    1    2  501    0  0.14155985952E+03 -0.96325403587E+02  0.14522005034E+03  0.28343542514E+03  0.17300000000E+03 0.  1.
         -6    1    1    2    0  503 -0.14155985952E+03  0.96325403587E+02 -0.50029128609E+02  0.24849485088E+03  0.17300000000E+03 0.  1.
<mgrwt>
<rscale>  2 0.24340661E+03</rscale>
<asrwt>0</asrwt>
<pdfrwt beam="1">  1       21 0.48240092E-01 0.24340661E+03</pdfrwt>
<pdfrwt beam="2">  1       21 0.33595335E-01 0.24340661E+03</pdfrwt>
<totfact> 0.34168974E+04</totfact>
</mgrwt>
</event>
<event>
 4    1  0.4111182E+000  0.1860350E+03  0.7546771E-02  0.1162087E+00
         21   -1    0    0  503  502  0.00000000000E+00  0.00000000000E+00  0.69744139748E+03  0.69744139748E+03  0.00000000000E+00 0. -1.
         21   -1    0    0  501  503 -0.00000000000E+00 -0.00000000000E+00 -0.72279582452E+02  0.72279582452E+02  0.00000000000E+00 0.  1.
          6    1    1    2  501    0  0.45499310881E+02 -0.51086623525E+02  0.97107270849E+02  0.20985436008E+03  0.17300000000E+03 0.  1.
         -6    1    1    2    0  502 -0.45499310881E+02  0.51086623525E+02  0.52805454418E+03  0.55986661985E+03  0.17300000000E+03 0. -1.
<mgrwt>
<rscale>  2 0.18603502E+03</rscale>
<asrwt>0</asrwt>
<pdfrwt beam="1">  1       21 0.10729867E+00 0.18603502E+03</pdfrwt>
<pdfrwt beam="2">  1       21 0.11119936E-01 0.18603502E+03</pdfrwt>
<totfact> 0.46779583E+04</totfact>
</mgrwt>
</event>
<event>
 4    1  0.4111182E+000  0.2200860E+03  0.7546771E-02  0.1133819E+00
         21   -1    0    0  501  502  0.00000000000E+00  0.00000000000E+00  0.34562380183E+03  0.34562380183E+03  0.00000000000E+00 0. -1.
         21   -1    0    0  502  503 -0.00000000000E+00 -0.00000000000E+00 -0.16990072228E+03  0.16990072228E+03  0.00000000000E+00 0.  1.
          6    1    1    2  501    0  0.59392755262E+02 -0.12239839332E+03  0.19573090835E+03  0.29453090593E+03  0.17300000000E+03 0. -1.
         -6    1    1    2    0  503 -0.59392755262E+02  0.12239839332E+03 -0.20007828795E+02  0.22099361818E+03  0.17300000000E+03 0. -1.
<mgrwt>
<rscale>  2 0.22008604E+03</rscale>
<asrwt>0</asrwt>
<pdfrwt beam="1">  1       21 0.53172892E-01 0.22008604E+03</pdfrwt>
<pdfrwt beam="2">  1       21 0.26138573E-01 0.22008604E+03</pdfrwt>
<totfact> 0.45976124E+04</totfact>
</mgrwt>
</event>
<event>
 4    1  0.4111182E+000  0.1883938E+03  0.7546771E-02  0.1159918E+00
         21   -1    0    0  501  502  0.00000000000E+00  0.00000000000E+00  0.35710379603E+03  0.35710379603E+03  0.00000000000E+00 0.  1.
         21   -1    0    0  502  503 -0.00000000000E+00 -0.00000000000E+00 -0.10285921860E+03  0.10285921860E+03  0.00000000000E+00 0.  1.
          6    1    1    2  501    0 -0.73175008706E+02 -0.14444995354E+02  0.16936393684E+03  0.25333058025E+03  0.17300000000E+03 0. -1.
         -6    1    1    2    0  503  0.73175008706E+02  0.14444995354E+02  0.84880640596E+02  0.20663243438E+03  0.17300000000E+03 0. -1.
<mgrwt>
<rscale>  2 0.18839384E+03</rscale>
<asrwt>0</asrwt>
<pdfrwt beam="1">  1       21 0.54939045E-01 0.18839384E+03</pdfrwt>
<pdfrwt beam="2">  1       21 0.15824495E-01 0.18839384E+03</pdfrwt>
<totfact> 0.11141235E+05</totfact>
</mgrwt>
</event>
<event>
 4    1  0.4111182E+000  0.1754288E+03  0.7546771E-02  0.1172302E+00
         21   -1    0    0  501  502  0.00000000000E+00  0.00000000000E+00  0.52853988197E+02  0.52853988197E+02  0.00000000000E+00 0.  1.
         21   -1    0    0  502  503 -0.00000000000E+00 -0.00000000000E+00 -0.60633580202E+03  0.60633580202E+03  0.00000000000E+00 0.  1.
          6    1    1    2  501    0  0.72523693237E+01 -0.28172336593E+02 -0.21107703601E+03  0.27446091260E+03  0.17300000000E+03 0.  1.
         -6    1    1    2    0  503 -0.72523693237E+01  0.28172336593E+02 -0.34240477780E+03  0.38472887762E+03  0.17300000000E+03 0.  1.
<mgrwt>
<rscale>  2 0.17542884E+03</rscale>
<asrwt>0</asrwt>
<pdfrwt beam="1">  1       21 0.81313827E-02 0.17542884E+03</pdfrwt>
<pdfrwt beam="2">  1       21 0.93282432E-01 0.17542884E+03</pdfrwt>
<totfact> 0.11352466E+05</totfact>
</mgrwt>
</event>
<event>
 4    1  0.4111182E+000  0.1918290E+03  0.7546771E-02  0.1156822E+00
         21   -1    0    0  503  502  0.00000000000E+00  0.00000000000E+00  0.11793726444E+03  0.11793726444E+03  0.00000000000E+00 0. -1.
         21   -1    0    0  501  503 -0.00000000000E+00 -0.00000000000E+00 -0.31682720552E+03  0.31682720552E+03  0.00000000000E+00 0.  1.
          6    1    1    2  501    0 -0.73266823689E+02  0.38747191760E+02 -0.72658391081E+02  0.20512828697E+03  0.17300000000E+03 0. -1.
         -6    1    1    2    0  502  0.73266823689E+02 -0.38747191760E+02 -0.12623155000E+03  0.22963618299E+03  0.17300000000E+03 0.  1.
<mgrwt>
<rscale>  2 0.19182902E+03</rscale>
<asrwt>0</asrwt>
<pdfrwt beam="1">  1       21 0.18144195E-01 0.19182902E+03</pdfrwt>
<pdfrwt beam="2">  1       21 0.48742646E-01 0.19182902E+03</pdfrwt>
<totfact> 0.11119032E+05</totfact>
</mgrwt>
</event>
<event>
 4    1  0.4111182E+000  0.1784229E+03  0.7546771E-02  0.1169338E+00
         21   -1    0    0  501  502  0.00000000000E+00  0.00000000000E+00  0.95862106610E+02  0.95862106610E+02  0.00000000000E+00 0. -1.
         21   -1    0    0  502  503 -0.00000000000E+00 -0.00000000000E+00 -0.33210051160E+03  0.33210051160E+03  0.00000000000E+00 0. -1.
          6    1    1    2  501    0  0.27962277463E+02 -0.33523538695E+02 -0.11939857354E+03  0.21468753101E+03  0.17300000000E+03 0. -1.
         -6    1    1    2    0  503 -0.27962277463E+02  0.33523538695E+02 -0.11683983145E+03  0.21327508720E+03  0.17300000000E+03 0. -1.
<mgrwt>
<rscale>  2 0.17842286E+03</rscale>
<asrwt>0</asrwt>
<pdfrwt beam="1">  1       21 0.14748016E-01 0.17842286E+03</pdfrwt>
<pdfrwt beam="2">  1       21 0.51092387E-01 0.17842286E+03</pdfrwt>
<totfact> 0.14804342E+05</totfact>
</mgrwt>
</event>
<event>
 4    1  0.4111182E+000  0.1987436E+03  0.7546771E-02  0.1150803E+00
         21   -1    0    0  503  502  0.00000000000E+00  0.00000000000E+00  0.43642325824E+03  0.43642325824E+03  0.00000000000E+00 0. -1.
         21   -1    0    0  501  503 -0.00000000000E+00 -0.00000000000E+00 -0.93416982114E+02  0.93416982114E+02  0.00000000000E+00 0.  1.
          6    1    1    2  501    0 -0.41890353720E+02 -0.88403821269E+02  0.12474014296E+03  0.23464684233E+03  0.17300000000E+03 0.  1.
         -6    1    1    2    0  502  0.41890353720E+02  0.88403821269E+02  0.21826613316E+03  0.29519339802E+03  0.17300000000E+03 0. -1.
<mgrwt>
<rscale>  2 0.19874365E+03</rscale>
<asrwt>0</asrwt>
<pdfrwt beam="1">  1       21 0.67142038E-01 0.19874365E+03</pdfrwt>
<pdfrwt beam="2">  1       21 0.14371844E-01 0.19874365E+03</pdfrwt>
<totfact> 0.85873870E+04</totfact>
</mgrwt>
</event>
<event>
 4    1  0.4111182E+000  0.1979130E+03  0.7546771E-02  0.1151512E+00
         21   -1    0    0  503  502  0.00000000000E+00  0.00000000000E+00  0.21572608914E+04  0.21572608914E+04  0.00000000000E+00 0. -1.
         21   -1    0    0  501  503 -0.00000000000E+00 -0.00000000000E+00 -0.21317451128E+02  0.21317451128E+02  0.00000000000E+00 0. -1.
          6    1    1    2  501    0  0.76052167491E+02 -0.58793129587E+02  0.64855628399E+03  0.67808171910E+03  0.17300000000E+03 0. -1.
         -6    1    1    2    0  502 -0.76052167491E+02  0.58793129587E+02  0.14873871563E+04  0.15004966235E+04  0.17300000000E+03 0. -1.
<mgrwt>
<rscale>  2 0.19791302E+03</rscale>
<asrwt>0</asrwt>
<pdfrwt beam="1">  1       21 0.33188612E+00 0.19791302E+03</pdfrwt>
<pdfrwt beam="2">  1       21 0.32796096E-02 0.19791302E+03</pdfrwt>
<totfact> 0.12115729E+04</totfact>
</mgrwt>
</event>
<event>
 4    1  0.4111182E+000  0.1956860E+03  0.7546771E-02  0.1153431E+00
         21   -1    0    0  503  502  0.00000000000E+00  0.00000000000E+00  0.22391694622E+03  0.22391694622E+03  0.00000000000E+00 0.  1.
         21   -1    0    0  501  503 -0.00000000000E+00 -0.00000000000E+00 -0.23194301138E+03  0.23194301138E+03  0.00000000000E+00 0. -1.
          6    1    1    2  501    0  0.55925198316E+02  0.72362769631E+02 -0.12083427644E+03  0.22998678353E+03  0.17300000000E+03 0. -1.
         -6    1    1    2    0  502 -0.55925198316E+02 -0.72362769631E+02  0.11280821128E+03  0.22587317408E+03  0.17300000000E+03 0.  1.
<mgrwt>
<rscale>  2 0.19568597E+03</rscale>
<asrwt>0</asrwt>
<pdfrwt beam="1">  1       21 0.34448761E-01 0.19568597E+03</pdfrwt>
<pdfrwt beam="2">  1       21 0.35683541E-01 0.19568597E+03</pdfrwt>
<totfact> 0.61414137E+04</totfact>
</mgrwt>
</event>
<event>
 4    1  0.4111182E+000  0.1898399E+03  0.7546771E-02  0.1158606E+00
         21   -1    0    0  503  502  0.00000000000E+00  0.00000000000E+00  0.61286008252E+02  0.61286008252E+02  0.00000000000E+00 0. -1.
         21   -1    0    0  501  503 -0.00000000000E+00 -0.00000000000E+00 -0.77055061601E+03  0.77055061601E+03  0.00000000000E+00 0. -1.
          6    1    1    2  501    0 -0.19444883566E+02 -0.75710531481E+02 -0.55704631736E+03  0.58850640418E+03  0.17300000000E+03 0. -1.
         -6    1    1    2    0  502  0.19444883566E+02  0.75710531481E+02 -0.15221829040E+03  0.24333022008E+03  0.17300000000E+03 0. -1.
<mgrwt>
<rscale>  2 0.18983990E+03</rscale>
<asrwt>0</asrwt>
<pdfrwt beam="1">  1       21 0.94286162E-02 0.18983990E+03</pdfrwt>
<pdfrwt beam="2">  1       21 0.11854625E+00 0.18983990E+03</pdfrwt>
<totfact> 0.49065982E+04</totfact>
</mgrwt>
</event>
<event>
 4    1  0.4111182E+000  0.2005162E+03  0.7546771E-02  0.1149304E+00
         21   -1    0    0  503  502  0.00000000000E+00  0.00000000000E+00  0.16501819832E+04  0.16501819832E+04  0.00000000000E+00 0. -1.
         21   -1    0    0  501  503 -0.00000000000E+00 -0.00000000000E+00 -0.26854810786E+02  0.26854810786E+02  0.00000000000E+00 0.  1.
          6    1    1    2  501    0  0.81624002504E+02 -0.60127153971E+02  0.55634578036E+03  0.59137752727E+03  0.17300000000E+03 0.  1.
         -6    1    1    2    0  502 -0.81624002504E+02  0.60127153971E+02  0.10669813920E+04  0.10856592667E+04  0.17300000000E+03 0. -1.
<mgrwt>
<rscale>  2 0.20051621E+03</rscale>
<asrwt>0</asrwt>
<pdfrwt beam="1">  1       21 0.25387407E+00 0.20051621E+03</pdfrwt>
<pdfrwt beam="2">  1       21 0.41315106E-02 0.20051621E+03</pdfrwt>
<totfact> 0.23262245E+04</totfact>
</mgrwt>
</event>
<event>
 4    1  0.4111182E+000  0.1991761E+03  0.7546771E-02  0.1150436E+00
         21   -1    0    0  501  502  0.00000000000E+00  0.00000000000E+00  0.34252007092E+02  0.34252007092E+02  0.00000000000E+00 0. -1.
         21   -1    0    0  502  503 -0.00000000000E+00 -0.00000000000E+00 -0.20942794593E+04  0.20942794593E+04  0.00000000000E+00 0.  1.
          6    1    1    2  501    0 -0.79948238305E+02  0.57882741044E+02 -0.31849551688E+03  0.37564681124E+03  0.17300000000E+03 0. -1.
         -6    1    1    2    0  503  0.79948238305E+02 -0.57882741044E+02 -0.17415319353E+04  0.17528846552E+04  0.17300000000E+03 0.  1.
<mgrwt>
<rscale>  2 0.19917613E+03</rscale>
<asrwt>0</asrwt>
<pdfrwt beam="1">  1       21 0.52695382E-02 0.19917613E+03</pdfrwt>
<pdfrwt beam="2">  1       21 0.32219692E+00 0.19917613E+03</pdfrwt>
<totfact> 0.62064811E+03</totfact>
</mgrwt>
</event>
<event>
 4    1  0.4111182E+000  0.2240127E+03  0.7546771E-02  0.1130926E+00
         21   -1    0    0  501  502  0.00000000000E+00  0.00000000000E+00  0.52606585364E+03  0.52606585364E+03  0.00000000000E+00 0.  1.
         21   -1    0    0  502  503 -0.00000000000E+00 -0.00000000000E+00 -0.12159393309E+03  0.12159393309E+03  0.00000000000E+00 0.  1.
          6    1    1    2  501    0  0.13570927010E+03  0.42844727690E+02  0.35256407436E+03  0.41771174656E+03  0.17300000000E+03 0.  1.
         -6    1    1    2    0  503 -0.13570927010E+03 -0.42844727690E+02  0.51907846189E+02  0.22994804017E+03  0.17300000000E+03 0.  1.
<mgrwt>
<rscale>  2 0.22401267E+03</rscale>
<asrwt>0</asrwt>
<pdfrwt beam="1">  1       21 0.80933207E-01 0.22401267E+03</pdfrwt>
<pdfrwt beam="2">  1       21 0.18706759E-01 0.22401267E+03</pdfrwt>
<totfact> 0.34453820E+04</totfact>
</mgrwt>
</event>
<event>
 4    1  0.4111182E+000  0.1756302E+03  0.7546771E-02  0.1172100E+00
         21   -1    0    0  501  502  0.00000000000E+00  0.00000000000E+00  0.35617985870E+02  0.35617985870E+02  0.00000000000E+00 0.  1.
         21   -1    0    0  502  503 -0.00000000000E+00 -0.00000000000E+00 -0.10422693601E+04  0.10422693601E+04  0.00000000000E+00 0.  1.
          6    1    1    2  501    0 -0.95509143681E+00 -0.30266130568E+02 -0.28170260173E+03  0.33196732773E+03  0.17300000000E+03 0.  1.
         -6    1    1    2    0  503  0.95509143681E+00  0.30266130568E+02 -0.72494877246E+03  0.74592001820E+03  0.17300000000E+03 0.  1.
<mgrwt>
<rscale>  2 0.17563015E+03</rscale>
<asrwt>0</asrwt>
<pdfrwt beam="1">  1       21 0.54796911E-02 0.17563015E+03</pdfrwt>
<pdfrwt beam="2">  1       21 0.16034910E+00 0.17563015E+03</pdfrwt>
<totfact> 0.58160725E+04</totfact>
</mgrwt>
</event>
<event>
 4    1  0.4111182E+000  0.2363212E+03  0.7546771E-02  0.1122268E+00
         21   -1    0    0  501  502  0.00000000000E+00  0.00000000000E+00  0.20497535566E+03  0.20497535566E+03  0.00000000000E+00 0. -1.
         21   -1    0    0  502  503 -0.00000000000E+00 -0.00000000000E+00 -0.29864607259E+03  0.29864607259E+03  0.00000000000E+00 0.  1.
          6    1    1    2  501    0 -0.39882315732E+02 -0.15597472268E+03  0.27728060466E+02  0.23794234293E+03  0.17300000000E+03 0.  1.
         -6    1    1    2    0  503  0.39882315732E+02  0.15597472268E+03 -0.12139877740E+03  0.26567908532E+03  0.17300000000E+03 0. -1.
<mgrwt>
<rscale>  2 0.23632121E+03</rscale>
<asrwt>0</asrwt>
<pdfrwt beam="1">  1       21 0.31534670E-01 0.23632121E+03</pdfrwt>
<pdfrwt beam="2">  1       21 0.45945550E-01 0.23632121E+03</pdfrwt>
<totfact> 0.42986500E+04</totfact>
</mgrwt>
</event>
<event>
 4    1  0.4111182E+000  0.1732210E+03  0.7546771E-02  0.1174530E+00
         21   -1    0    0  501  502  0.00000000000E+00  0.00000000000E+00  0.34613013072E+03  0.34613013072E+03  0.00000000000E+00 0.  1.
         21   -1    0    0  502  503 -0.00000000000E+00 -0.00000000000E+00 -0.16834498269E+03  0.16834498269E+03  0.00000000000E+00 0.  1.
          6    1    1    2  501    0 -0.60070312050E+01 -0.63596207837E+01  0.26804777129E+03  0.31914751588E+03  0.17300000000E+03 0.  1.
         -6    1    1    2    0  503  0.60070312050E+01  0.63596207837E+01 -0.90262623256E+02  0.19532759753E+03  0.17300000000E+03 0.  1.
<mgrwt>
<rscale>  2 0.17322104E+03</rscale>
<asrwt>0</asrwt>
<pdfrwt beam="1">  1       21 0.53250789E-01 0.17322104E+03</pdfrwt>
<pdfrwt beam="2">  1       21 0.25899228E-01 0.17322104E+03</pdfrwt>
<totfact> 0.47722911E+04</totfact>
</mgrwt>
</event>
<event>
 4    1  0.4111182E+000  0.1912265E+03  0.7546771E-02  0.1157360E+00
         21   -1    0    0  503  502  0.00000000000E+00  0.00000000000E+00  0.21453796881E+03  0.21453796881E+03  0.00000000000E+00 0.  1.
         21   -1    0    0  501  503 -0.00000000000E+00 -0.00000000000E+00 -0.20049430507E+03  0.20049430507E+03  0.00000000000E+00 0.  1.
          6    1    1    2  501    0 -0.33858215774E+02  0.74109317249E+02 -0.73311600514E+02  0.20479785265E+03  0.17300000000E+03 0.  1.
         -6    1    1    2    0  502  0.33858215774E+02 -0.74109317249E+02  0.87355264249E+02  0.21023442123E+03  0.17300000000E+03 0.  1.
<mgrwt>
<rscale>  2 0.19122649E+03</rscale>
<asrwt>0</asrwt>
<pdfrwt beam="1">  1       21 0.33005842E-01 0.19122649E+03</pdfrwt>
<pdfrwt beam="2">  1       21 0.30845277E-01 0.19122649E+03</pdfrwt>
<totfact> 0.89255629E+04</totfact>
</mgrwt>
</event>
<event>
 4    1  0.4111182E+000  0.2341244E+03  0.7546771E-02  0.1123770E+00
         21   -1    0    0  503  502  0.00000000000E+00  0.00000000000E+00  0.25319385960E+03  0.25319385960E+03  0.00000000000E+00 0. -1.
         21   -1    0    0  501  503 -0.00000000000E+00 -0.00000000000E+00 -0.45112891210E+03  0.45112891210E+03  0.00000000000E+00 0.  1.
          6    1    1    2  501    0  0.54626688638E+02  0.14799033957E+03 -0.35294219889E+03  0.42353560827E+03  0.17300000000E+03 0.  1.
         -6    1    1    2    0  502 -0.54626688638E+02 -0.14799033957E+03  0.15500714639E+03  0.28078716343E+03  0.17300000000E+03 0. -1.
<mgrwt>
<rscale>  2 0.23412436E+03</rscale>
<asrwt>0</asrwt>
<pdfrwt beam="1">  1       21 0.38952902E-01 0.23412436E+03</pdfrwt>
<pdfrwt beam="2">  1       21 0.69404447E-01 0.23412436E+03</pdfrwt>
<totfact> 0.11688496E+04</totfact>
</mgrwt>
</event>
<event>
 4    1  0.4111182E+000  0.1806146E+03  0.7546771E-02  0.1167210E+00
         21   -1    0    0  501  502  0.00000000000E+00  0.00000000000E+00  0.78611207140E+02  0.78611207140E+02  0.00000000000E+00 0.  1.
         21   -1    0    0  502  503 -0.00000000000E+00 -0.00000000000E+00 -0.42352990416E+03  0.42352990416E+03  0.00000000000E+00 0.  1.
          6    1    1    2  501    0  0.50568368241E+02  0.11639018028E+02 -0.13677478474E+03  0.22655897322E+03  0.17300000000E+03 0. -1.
         -6    1    1    2    0  503 -0.50568368241E+02 -0.11639018028E+02 -0.20814391228E+03  0.27558213808E+03  0.17300000000E+03 0. -1.
<mgrwt>
<rscale>  2 0.18061458E+03</rscale>
<asrwt>0</asrwt>
<pdfrwt beam="1">  1       21 0.12094032E-01 0.18061458E+03</pdfrwt>
<pdfrwt beam="2">  1       21 0.65158447E-01 0.18061458E+03</pdfrwt>
<totfact> 0.12599360E+05</totfact>
</mgrwt>
</event>
<event>
 4    1  0.4111182E+000  0.2870891E+03  0.7546771E-02  0.1091879E+00
         21   -1    0    0  501  502  0.00000000000E+00  0.00000000000E+00  0.31044300929E+03  0.31044300929E+03  0.00000000000E+00 0. -1.
         21   -1    0    0  502  503 -0.00000000000E+00 -0.00000000000E+00 -0.27110805336E+03  0.27110805336E+03  0.00000000000E+00 0. -1.
          6    1    1    2  501    0  0.91045999476E+02  0.21024222204E+03 -0.22182810848E+02  0.28794486112E+03  0.17300000000E+03 0. -1.
         -6    1    1    2    0  503 -0.91045999476E+02 -0.21024222204E+03  0.61517766784E+02  0.29360620153E+03  0.17300000000E+03 0. -1.
<mgrwt>
<rscale>  2 0.28708913E+03</rscale>
<asrwt>0</asrwt>
<pdfrwt beam="1">  1       21 0.47760463E-01 0.28708913E+03</pdfrwt>
<pdfrwt beam="2">  1       21 0.41708931E-01 0.28708913E+03</pdfrwt>
<totfact> 0.22134716E+04</totfact>
</mgrwt>
</event>
<event>
 4    1  0.4111182E+000  0.2279027E+03  0.7546771E-02  0.1128125E+00
         21   -1    0    0  501  502  0.00000000000E+00  0.00000000000E+00  0.22930120015E+03  0.22930120015E+03  0.00000000000E+00 0.  1.
         21   -1    0    0  502  503 -0.00000000000E+00 -0.00000000000E+00 -0.22895625373E+03  0.22895625373E+03  0.00000000000E+00 0. -1.
          6    1    1    2  501    0 -0.13422940487E+03  0.63191129421E+02  0.23842963473E+02  0.22914654455E+03  0.17300000000E+03 0. -1.
         -6    1    1    2    0  503  0.13422940487E+03 -0.63191129421E+02 -0.23498017051E+02  0.22911090933E+03  0.17300000000E+03 0. -1.
<mgrwt>
<rscale>  2 0.22790272E+03</rscale>
<asrwt>0</asrwt>
<pdfrwt beam="1">  1       21 0.35277108E-01 0.22790272E+03</pdfrwt>
<pdfrwt beam="2">  1       21 0.35224039E-01 0.22790272E+03</pdfrwt>
<totfact> 0.59259523E+04</totfact>
</mgrwt>
</event>
<event>
 4    1  0.4111182E+000  0.2833488E+03  0.7546771E-02  0.1093874E+00
         21   -1    0    0  503  502  0.00000000000E+00  0.00000000000E+00  0.24824298177E+03  0.24824298177E+03  0.00000000000E+00 0.  1.
         21   -1    0    0  501  503 -0.00000000000E+00 -0.00000000000E+00 -0.32507464872E+03  0.32507464872E+03  0.00000000000E+00 0.  1.
          6    1    1    2  501    0  0.10830457785E+03  0.19653917374E+03 -0.58872799228E+02  0.28940030215E+03  0.17300000000E+03 0.  1.
         -6    1    1    2    0  502 -0.10830457785E+03 -0.19653917374E+03 -0.17958867723E+02  0.28391732833E+03  0.17300000000E+03 0.  1.
<mgrwt>
<rscale>  2 0.28334878E+03</rscale>
<asrwt>0</asrwt>
<pdfrwt beam="1">  1       21 0.38191228E-01 0.28334878E+03</pdfrwt>
<pdfrwt beam="2">  1       21 0.50011485E-01 0.28334878E+03</pdfrwt>
<totfact> 0.24086688E+04</totfact>
</mgrwt>
</event>
<event>
 4    1  0.4111182E+000  0.2246278E+03  0.7546771E-02  0.1130479E+00
         21   -1    0    0  501  502  0.00000000000E+00  0.00000000000E+00  0.72266784369E+03  0.72266784369E+03  0.00000000000E+00 0. -1.
         21   -1    0    0  502  503 -0.00000000000E+00 -0.00000000000E+00 -0.74325932199E+02  0.74325932199E+02  0.00000000000E+00 0. -1.
          6    1    1    2  501    0  0.13718268452E+03  0.41346763589E+02  0.42227390272E+03  0.47830209356E+03  0.17300000000E+03 0. -1.
         -6    1    1    2    0  503 -0.13718268452E+03 -0.41346763589E+02  0.22606800877E+03  0.31869168232E+03  0.17300000000E+03 0. -1.
<mgrwt>
<rscale>  2 0.22462779E+03</rscale>
<asrwt>0</asrwt>
<pdfrwt beam="1">  1       21 0.11117966E+00 0.22462779E+03</pdfrwt>
<pdfrwt beam="2">  1       21 0.11434759E-01 0.22462779E+03</pdfrwt>
<totfact> 0.40027484E+04</totfact>
</mgrwt>
</event>
<event>
 4    1  0.4111182E+000  0.1758187E+03  0.7546771E-02  0.1171912E+00
         21   -1    0    0  501  502  0.00000000000E+00  0.00000000000E+00  0.20790795674E+03  0.20790795674E+03  0.00000000000E+00 0.  1.
         21   -1    0    0  502  503 -0.00000000000E+00 -0.00000000000E+00 -0.17068639102E+03  0.17068639102E+03  0.00000000000E+00 0.  1.
          6    1    1    2  501    0 -0.30886924267E+02  0.54062083661E+01  0.86577546286E+02  0.19597933743E+03  0.17300000000E+03 0.  1.
         -6    1    1    2    0  503  0.30886924267E+02 -0.54062083661E+01 -0.49355980559E+02  0.18261501033E+03  0.17300000000E+03 0.  1.
<mgrwt>
<rscale>  2 0.17581874E+03</rscale>
<asrwt>0</asrwt>
<pdfrwt beam="1">  1       21 0.31985840E-01 0.17581874E+03</pdfrwt>
<pdfrwt beam="2">  1       21 0.26259445E-01 0.17581874E+03</pdfrwt>
<totfact> 0.13035091E+05</totfact>
</mgrwt>
</event>
<event>
 4    1  0.4111182E+000  0.2029095E+03  0.7546771E-02  0.1147307E+00
         21   -1    0    0  503  502  0.00000000000E+00  0.00000000000E+00  0.22777766406E+03  0.22777766406E+03  0.00000000000E+00 0. -1.
         21   -1    0    0  501  503 -0.00000000000E+00 -0.00000000000E+00 -0.32292927180E+03  0.32292927180E+03  0.00000000000E+00 0.  1.
          6    1    1    2  501    0 -0.39983770182E+02 -0.98206754347E+02 -0.23027861342E+03  0.30692101309E+03  0.17300000000E+03 0.  1.
         -6    1    1    2    0  502  0.39983770182E+02  0.98206754347E+02  0.13512700567E+03  0.24378592277E+03  0.17300000000E+03 0.  1.
<mgrwt>
<rscale>  2 0.20290951E+03</rscale>
<asrwt>0</asrwt>
<pdfrwt beam="1">  1       21 0.35042718E-01 0.20290951E+03</pdfrwt>
<pdfrwt beam="2">  1       21 0.49681426E-01 0.20290951E+03</pdfrwt>
<totfact> 0.30143641E+04</totfact>
</mgrwt>
</event>
<event>
 4    1  0.4111182E+000  0.2063974E+03  0.7546771E-02  0.1144451E+00
         21   -1    0    0  503  502  0.00000000000E+00  0.00000000000E+00  0.11465014913E+03  0.11465014913E+03  0.00000000000E+00 0. -1.
         21   -1    0    0  501  503 -0.00000000000E+00 -0.00000000000E+00 -0.37253894935E+03  0.37253894935E+03  0.00000000000E+00 0.  1.
          6    1    1    2  501    0  0.82282934032E+02  0.76814214580E+02 -0.14140391927E+03  0.25018987425E+03  0.17300000000E+03 0. -1.
         -6    1    1    2    0  502 -0.82282934032E+02 -0.76814214580E+02 -0.11648488095E+03  0.23699922423E+03  0.17300000000E+03 0.  1.
<mgrwt>
<rscale>  2 0.20639744E+03</rscale>
<asrwt>0</asrwt>
<pdfrwt beam="1">  1       21 0.17638484E-01 0.20639744E+03</pdfrwt>
<pdfrwt beam="2">  1       21 0.57313685E-01 0.20639744E+03</pdfrwt>
<totfact> 0.82814045E+04</totfact>
</mgrwt>
</event>
<event>
 4    1  0.4111182E+000  0.2570206E+03  0.7546771E-02  0.1108947E+00
         21   -1    0    0  503  502  0.00000000000E+00  0.00000000000E+00  0.97099379093E+02  0.97099379093E+02  0.00000000000E+00 0.  1.
         21   -1    0    0  501  503 -0.00000000000E+00 -0.00000000000E+00 -0.82601537140E+03  0.82601537140E+03  0.00000000000E+00 0. -1.
          6    1    1    2  501    0  0.17094935192E+03 -0.83107742694E+02 -0.55829659394E+03  0.61461749456E+03  0.17300000000E+03 0. -1.
         -6    1    1    2    0  502 -0.17094935192E+03  0.83107742694E+02 -0.17061939837E+03  0.30849725593E+03  0.17300000000E+03 0.  1.
<mgrwt>
<rscale>  2 0.25702058E+03</rscale>
<asrwt>0</asrwt>
<pdfrwt beam="1">  1       21 0.14938366E-01 0.25702058E+03</pdfrwt>
<pdfrwt beam="2">  1       21 0.12707928E+00 0.25702058E+03</pdfrwt>
<totfact> 0.17414278E+04</totfact>
</mgrwt>
</event>
<event>
 4    1  0.4111182E+000  0.1807480E+03  0.7546771E-02  0.1167081E+00
         21   -1    0    0  503  502  0.00000000000E+00  0.00000000000E+00  0.27472940669E+03  0.27472940669E+03  0.00000000000E+00 0. -1.
         21   -1    0    0  501  503 -0.00000000000E+00 -0.00000000000E+00 -0.12527520277E+03  0.12527520277E+03  0.00000000000E+00 0. -1.
          6    1    1    2  501    0 -0.42187661523E+02 -0.31000796621E+02  0.29667421028E+02  0.18316660189E+03  0.17300000000E+03 0. -1.
         -6    1    1    2    0  502  0.42187661523E+02  0.31000796621E+02  0.11978678289E+03  0.21683800758E+03  0.17300000000E+03 0. -1.
<mgrwt>
<rscale>  2 0.18074802E+03</rscale>
<asrwt>0</asrwt>
<pdfrwt beam="1">  1       21 0.42266062E-01 0.18074802E+03</pdfrwt>
<pdfrwt beam="2">  1       21 0.19273108E-01 0.18074802E+03</pdfrwt>
<totfact> 0.13376180E+05</totfact>
</mgrwt>
</event>
<event>
 4    1  0.4111182E+000  0.1773219E+03  0.7546771E-02  0.1170420E+00
         21   -1    0    0  503  502  0.00000000000E+00  0.00000000000E+00  0.40474276446E+02  0.40474276446E+02  0.00000000000E+00 0. -1.
         21   -1    0    0  501  503 -0.00000000000E+00 -0.00000000000E+00 -0.77985010104E+03  0.77985010104E+03  0.00000000000E+00 0. -1.
          6    1    1    2  501    0 -0.37558411297E+02  0.10169499489E+02 -0.34431197977E+03  0.38729032055E+03  0.17300000000E+03 0.  1.
         -6    1    1    2    0  502  0.37558411297E+02 -0.10169499489E+02 -0.39506384482E+03  0.43303405694E+03  0.17300000000E+03 0.  1.
<mgrwt>
<rscale>  2 0.17732189E+03</rscale>
<asrwt>0</asrwt>
<pdfrwt beam="1">  1       21 0.62268117E-02 0.17732189E+03</pdfrwt>
<pdfrwt beam="2">  1       21 0.11997694E+00 0.17732189E+03</pdfrwt>
<totfact> 0.98419003E+04</totfact>
</mgrwt>
</event>
<event>
 4    1  0.4111182E+000  0.2206195E+03  0.7546771E-02  0.1133422E+00
         21   -1    0    0  503  502  0.00000000000E+00  0.00000000000E+00  0.10689312014E+04  0.10689312014E+04  0.00000000000E+00 0. -1.
         21   -1    0    0  501  503 -0.00000000000E+00 -0.00000000000E+00 -0.12212045239E+03  0.12212045239E+03  0.00000000000E+00 0. -1.
          6    1    1    2  501    0 -0.11957189169E+03  0.66682443522E+02  0.17968431304E+01  0.22062686646E+03  0.17300000000E+03 0. -1.
         -6    1    1    2    0  502  0.11957189169E+03 -0.66682443522E+02  0.94501390590E+03  0.97042478735E+03  0.17300000000E+03 0. -1.
<mgrwt>
<rscale>  2 0.22061955E+03</rscale>
<asrwt>0</asrwt>
<pdfrwt beam="1">  1       21 0.16445095E+00 0.22061955E+03</pdfrwt>
<pdfrwt beam="2">  1       21 0.18787763E-01 0.22061955E+03</pdfrwt>
<totfact> 0.59241786E+03</totfact>
</mgrwt>
</event>
<event>
 4    1  0.4111182E+000  0.1964413E+03  0.7546771E-02  0.1152777E+00
         21   -1    0    0  503  502  0.00000000000E+00  0.00000000000E+00  0.88725216227E+03  0.88725216227E+03  0.00000000000E+00 0.  1.
         21   -1    0    0  501  503 -0.00000000000E+00 -0.00000000000E+00 -0.49406978547E+02  0.49406978547E+02  0.00000000000E+00 0. -1.
          6    1    1    2  501    0  0.91770136087E+02 -0.15441119217E+02  0.25689077764E+03  0.32339149289E+03  0.17300000000E+03 0. -1.
         -6    1    1    2    0  502 -0.91770136087E+02  0.15441119217E+02  0.58095440609E+03  0.61326764792E+03  0.17300000000E+03 0.  1.
<mgrwt>
<rscale>  2 0.19644130E+03</rscale>
<asrwt>0</asrwt>
<pdfrwt beam="1">  1       21 0.13650032E+00 0.19644130E+03</pdfrwt>
<pdfrwt beam="2">  1       21 0.76010742E-02 0.19644130E+03</pdfrwt>
<totfact> 0.49990102E+04</totfact>
</mgrwt>
</event>
<event>
 4    1  0.4111182E+000  0.2046319E+03  0.7546771E-02  0.1145889E+00
         21   -1    0    0  501  502  0.00000000000E+00  0.00000000000E+00  0.68899020963E+03  0.68899020963E+03  0.00000000000E+00 0. -1.
         21   -1    0    0  502  503 -0.00000000000E+00 -0.00000000000E+00 -0.10264196575E+03  0.10264196575E+03  0.00000000000E+00 0. -1.
          6    1    1    2  501    0  0.10551688872E+03 -0.28485032393E+02  0.54596444805E+03  0.58305350476E+03  0.17300000000E+03 0. -1.
         -6    1    1    2    0  503 -0.10551688872E+03  0.28485032393E+02  0.40383795825E+02  0.20857867063E+03  0.17300000000E+03 0. -1.
<mgrwt>
<rscale>  2 0.20463189E+03</rscale>
<asrwt>0</asrwt>
<pdfrwt beam="1">  1       21 0.10599849E+00 0.20463189E+03</pdfrwt>
<pdfrwt beam="2">  1       21 0.15791072E-01 0.20463189E+03</pdfrwt>
<totfact> 0.25326528E+04</totfact>
</mgrwt>
</event>
<event>
 4    1  0.4111182E+000  0.1902034E+03  0.7546771E-02  0.1158278E+00
         21   -1    0    0  501  502  0.00000000000E+00  0.00000000000E+00  0.85996173977E+02  0.85996173977E+02  0.00000000000E+00 0.  1.
         21   -1    0    0  502  503 -0.00000000000E+00 -0.00000000000E+00 -0.55622109925E+03  0.55622109925E+03  0.00000000000E+00 0.  1.
          6    1    1    2  501    0 -0.13619326707E+02  0.77864221853E+02 -0.76602951617E+02  0.20504959230E+03  0.17300000000E+03 0. -1.
         -6    1    1    2    0  503  0.13619326707E+02 -0.77864221853E+02 -0.39362197366E+03  0.43716768093E+03  0.17300000000E+03 0. -1.
<mgrwt>
<rscale>  2 0.19020337E+03</rscale>
<asrwt>0</asrwt>
<pdfrwt beam="1">  1       21 0.13230181E-01 0.19020337E+03</pdfrwt>
<pdfrwt beam="2">  1       21 0.85572477E-01 0.19020337E+03</pdfrwt>
<totfact> 0.58180211E+04</totfact>
</mgrwt>
</event>
<event>
 4    1  0.4111182E+000  0.2080955E+03  0.7546771E-02  0.1143083E+00
         21   -1    0    0  503  502  0.00000000000E+00  0.00000000000E+00  0.30452112028E+03  0.30452112028E+03  0.00000000000E+00 0. -1.
         21   -1    0    0  501  503 -0.00000000000E+00 -0.00000000000E+00 -0.20157543847E+03  0.20157543847E+03  0.00000000000E+00 0. -1.
          6    1    1    2  501    0 -0.69764470441E+02  0.92237056691E+02 -0.85861060136E+02  0.22511303296E+03  0.17300000000E+03 0. -1.
         -6    1    1    2    0  502  0.69764470441E+02 -0.92237056691E+02  0.18880674195E+03  0.28098352579E+03  0.17300000000E+03 0. -1.
<mgrwt>
<rscale>  2 0.20809555E+03</rscale>
<asrwt>0</asrwt>
<pdfrwt beam="1">  1       21 0.46849403E-01 0.20809555E+03</pdfrwt>
<pdfrwt beam="2">  1       21 0.31011606E-01 0.20809555E+03</pdfrwt>
<totfact> 0.43225323E+04</totfact>
</mgrwt>
</event>
<event>
 4    1  0.4111182E+000  0.2002516E+03  0.7546771E-02  0.1149527E+00
         21   -1    0    0  501  502  0.00000000000E+00  0.00000000000E+00  0.22994498104E+03  0.22994498104E+03  0.00000000000E+00 0.  1.
         21   -1    0    0  502  503 -0.00000000000E+00 -0.00000000000E+00 -0.21516932908E+03  0.21516932908E+03  0.00000000000E+00 0. -1.
          6    1    1    2  501    0 -0.72392755470E+01  0.10059471301E+03  0.10427305367E+03  0.22577327813E+03  0.17300000000E+03 0.  1.
         -6    1    1    2    0  503  0.72392755470E+01 -0.10059471301E+03 -0.89497401712E+02  0.21934103198E+03  0.17300000000E+03 0. -1.
<mgrwt>
<rscale>  2 0.20025160E+03</rscale>
<asrwt>0</asrwt>
<pdfrwt beam="1">  1       21 0.35376151E-01 0.20025160E+03</pdfrwt>
<pdfrwt beam="2">  1       21 0.33102974E-01 0.20025160E+03</pdfrwt>
<totfact> 0.67460170E+04</totfact>
</mgrwt>
</event>
<event>
 4    1  0.4111182E+000  0.1826761E+03  0.7546771E-02  0.1165238E+00
         21   -1    0    0  501  502  0.00000000000E+00  0.00000000000E+00  0.28400901883E+03  0.28400901883E+03  0.00000000000E+00 0.  1.
         21   -1    0    0  502  503 -0.00000000000E+00 -0.00000000000E+00 -0.15317911475E+03  0.15317911475E+03  0.00000000000E+00 0.  1.
          6    1    1    2  501    0 -0.56704401016E+02  0.15039339074E+02  0.17091583733E+03  0.25016553372E+03  0.17300000000E+03 0.  1.
         -6    1    1    2    0  503  0.56704401016E+02 -0.15039339074E+02 -0.40085933242E+02  0.18702259986E+03  0.17300000000E+03 0.  1.
<mgrwt>
<rscale>  2 0.18267614E+03</rscale>
<asrwt>0</asrwt>
<pdfrwt beam="1">  1       21 0.43693695E-01 0.18267614E+03</pdfrwt>
<pdfrwt beam="2">  1       21 0.23566018E-01 0.18267614E+03</pdfrwt>
<totfact> 0.85652304E+04</totfact>
</mgrwt>
</event>
<event>
 4    1  0.4111182E+000  0.3336176E+03  0.7546771E-02  0.1069547E+00
         21   -1    0    0  501  502  0.00000000000E+00  0.00000000000E+00  0.39507400395E+03  0.39507400395E+03  0.00000000000E+00 0.  1.
         21   -1    0    0  502  503 -0.00000000000E+00 -0.00000000000E+00 -0.29085249809E+03  0.29085249809E+03  0.00000000000E+00 0.  1.
          6    1    1    2  501    0  0.16869187639E+03 -0.23003200891E+03  0.11287950945E+03  0.35219661829E+03  0.17300000000E+03 0.  1.
         -6    1    1    2    0  503 -0.16869187639E+03  0.23003200891E+03 -0.86580035865E+01  0.33372988375E+03  0.17300000000E+03 0.  1.
<mgrwt>
<rscale>  2 0.33361756E+03</rscale>
<asrwt>0</asrwt>
<pdfrwt beam="1">  1       21 0.60780616E-01 0.33361756E+03</pdfrwt>
<pdfrwt beam="2">  1       21 0.44746538E-01 0.33361756E+03</pdfrwt>
<totfact> 0.11230573E+04</totfact>
</mgrwt>
</event>
<event>
 4    1  0.4111182E+000  0.2418862E+03  0.7546771E-02  0.1118543E+00
         21   -1    0    0  503  502  0.00000000000E+00  0.00000000000E+00  0.12659595857E+03  0.12659595857E+03  0.00000000000E+00 0.  1.
         21   -1    0    0  501  503 -0.00000000000E+00 -0.00000000000E+00 -0.11210120022E+04  0.11210120022E+04  0.00000000000E+00 0.  1.
          6    1    1    2  501    0  0.22844510278E+02 -0.16750543451E+03 -0.97543428200E+03  0.10049780996E+04  0.17300000000E+03 0.  1.
         -6    1    1    2    0  502 -0.22844510278E+02  0.16750543451E+03 -0.18981761636E+02  0.24262986114E+03  0.17300000000E+03 0.  1.
<mgrwt>
<rscale>  2 0.24188622E+03</rscale>
<asrwt>0</asrwt>
<pdfrwt beam="1">  1       21 0.19476301E-01 0.24188622E+03</pdfrwt>
<pdfrwt beam="2">  1       21 0.17246339E+00 0.24188622E+03</pdfrwt>
<totfact> 0.47805025E+03</totfact>
</mgrwt>
</event>
<event>
 4    1  0.4111182E+000  0.1733358E+03  0.7546771E-02  0.1174413E+00
         21   -1    0    0  503  502  0.00000000000E+00  0.00000000000E+00  0.11752241773E+04  0.11752241773E+04  0.00000000000E+00 0.  1.
         21   -1    0    0  501  503 -0.00000000000E+00 -0.00000000000E+00 -0.94844457556E+02  0.94844457556E+02  0.00000000000E+00 0.  1.
          6    1    1    2  501    0 -0.10588507214E+02 -0.20442492991E+01 -0.25498742763E+01  0.17335454219E+03  0.17300000000E+03 0.  1.
         -6    1    1    2    0  502  0.10588507214E+02  0.20442492991E+01  0.10829295941E+04  0.10967140927E+04  0.17300000000E+03 0.  1.
<mgrwt>
<rscale>  2 0.17333579E+03</rscale>
<asrwt>0</asrwt>
<pdfrwt beam="1">  1       21 0.18080371E+00 0.17333579E+03</pdfrwt>
<pdfrwt beam="2">  1       21 0.14591456E-01 0.17333579E+03</pdfrwt>
<totfact> 0.75376055E+03</totfact>
</mgrwt>
</event>
<event>
 4    1  0.4111182E+000  0.2520937E+03  0.7546771E-02  0.1111989E+00
         21   -1    0    0  503  502  0.00000000000E+00  0.00000000000E+00  0.35982716463E+03  0.35982716463E+03  0.00000000000E+00 0.  1.
         21   -1    0    0  501  503 -0.00000000000E+00 -0.00000000000E+00 -0.17861405512E+03  0.17861405512E+03  0.00000000000E+00 0.  1.
          6    1    1    2  501    0  0.63597896299E+02  0.17198118952E+03  0.62131930002E+02  0.25963743699E+03  0.17300000000E+03 0.  1.
         -6    1    1    2    0  502 -0.63597896299E+02 -0.17198118952E+03  0.11908117951E+03  0.27880378275E+03  0.17300000000E+03 0.  1.
<mgrwt>
<rscale>  2 0.25209368E+03</rscale>
<asrwt>0</asrwt>
<pdfrwt beam="1">  1       21 0.55358025E-01 0.25209368E+03</pdfrwt>
<pdfrwt beam="2">  1       21 0.27479085E-01 0.25209368E+03</pdfrwt>
<totfact> 0.37789119E+04</totfact>
</mgrwt>
</event>
<event>
 4    1  0.4111182E+000  0.1804088E+03  0.7546771E-02  0.1167408E+00
         21   -1    0    0  503  502  0.00000000000E+00  0.00000000000E+00  0.57198229494E+03  0.57198229494E+03  0.00000000000E+00 0.  1.
         21   -1    0    0  501  503 -0.00000000000E+00 -0.00000000000E+00 -0.61047895796E+02  0.61047895796E+02  0.00000000000E+00 0.  1.
          6    1    1    2  501    0 -0.15677276691E+02  0.48708863426E+02  0.17299032361E+03  0.24994595905E+03  0.17300000000E+03 0.  1.
         -6    1    1    2    0  502  0.15677276691E+02 -0.48708863426E+02  0.33794407553E+03  0.38308423169E+03  0.17300000000E+03 0.  1.
<mgrwt>
<rscale>  2 0.18040879E+03</rscale>
<asrwt>0</asrwt>
<pdfrwt beam="1">  1       21 0.87997273E-01 0.18040879E+03</pdfrwt>
<pdfrwt beam="2">  1       21 0.93919843E-02 0.18040879E+03</pdfrwt>
<totfact> 0.10078818E+05</totfact>
</mgrwt>
</event>
<event>
 4    1  0.4111182E+000  0.1930790E+03  0.7546771E-02  0.1155713E+00
         21   -1    0    0  501  502  0.00000000000E+00  0.00000000000E+00  0.21391709939E+04  0.21391709939E+04  0.00000000000E+00 0.  1.
         21   -1    0    0  502  503 -0.00000000000E+00 -0.00000000000E+00 -0.18182431311E+02  0.18182431311E+02  0.00000000000E+00 0. -1.
          6    1    1    2  501    0 -0.33215273030E+02 -0.79039553258E+02  0.12803509506E+04  0.12948274255E+04  0.17300000000E+03 0. -1.
         -6    1    1    2    0  503  0.33215273030E+02  0.79039553258E+02  0.84063761199E+03  0.86252599963E+03  0.17300000000E+03 0. -1.
<mgrwt>
<rscale>  2 0.19307901E+03</rscale>
<asrwt>0</asrwt>
<pdfrwt beam="1">  1       21 0.32910303E+00 0.19307901E+03</pdfrwt>
<pdfrwt beam="2">  1       21 0.27972988E-02 0.19307901E+03</pdfrwt>
<totfact> 0.16453486E+04</totfact>
</mgrwt>
</event>
<event>
 4    1  0.4111182E+000  0.2080939E+03  0.7546771E-02  0.1143084E+00
         21   -1    0    0  503  502  0.00000000000E+00  0.00000000000E+00  0.40383701055E+03  0.40383701055E+03  0.00000000000E+00 0.  1.
         21   -1    0    0  501  503 -0.00000000000E+00 -0.00000000000E+00 -0.21865941777E+03  0.21865941777E+03  0.00000000000E+00 0.  1.
          6    1    1    2  501    0  0.20979087145E+02  0.11372758939E+03 -0.12960115959E+03  0.24515209004E+03  0.17300000000E+03 0.  1.
         -6    1    1    2    0  502 -0.20979087145E+02 -0.11372758939E+03  0.31477875237E+03  0.37734433827E+03  0.17300000000E+03 0.  1.
<mgrwt>
<rscale>  2 0.20809394E+03</rscale>
<asrwt>0</asrwt>
<pdfrwt beam="1">  1       21 0.62128771E-01 0.20809394E+03</pdfrwt>
<pdfrwt beam="2">  1       21 0.33639911E-01 0.20809394E+03</pdfrwt>
<totfact> 0.20272937E+04</totfact>
</mgrwt>
</event>
<event>
 4    1  0.4111182E+000  0.2640405E+03  0.7546771E-02  0.1104740E+00
         21   -1    0    0  501  502  0.00000000000E+00  0.00000000000E+00  0.28513643864E+03  0.28513643864E+03  0.00000000000E+00 0. -1.
         21   -1    0    0  502  503 -0.00000000000E+00 -0.00000000000E+00 -0.26882229832E+03  0.26882229832E+03  0.00000000000E+00 0.  1.
          6    1    1    2  501    0 -0.27234304241E+02 -0.19760227192E+03  0.91461850473E+02  0.27943270261E+03  0.17300000000E+03 0. -1.
         -6    1    1    2    0  503  0.27234304241E+02  0.19760227192E+03 -0.75147710158E+02  0.27452603435E+03  0.17300000000E+03 0.  1.
<mgrwt>
<rscale>  2 0.26404046E+03</rscale>
<asrwt>0</asrwt>
<pdfrwt beam="1">  1       21 0.43867144E-01 0.26404046E+03</pdfrwt>
<pdfrwt beam="2">  1       21 0.41357277E-01 0.26404046E+03</pdfrwt>
<totfact> 0.27131727E+04</totfact>
</mgrwt>
</event>
<event>
 4    1  0.4111182E+000  0.2073636E+03  0.7546771E-02  0.1143671E+00
         21   -1    0    0  503  502  0.00000000000E+00  0.00000000000E+00  0.56087014926E+03  0.56087014926E+03  0.00000000000E+00 0.  1.
         21   -1    0    0  501  503 -0.00000000000E+00 -0.00000000000E+00 -0.18207649256E+03  0.18207649256E+03  0.00000000000E+00 0. -1.
          6    1    1    2  501    0  0.23325530815E+02  0.11192215498E+03 -0.93249071613E+02  0.22736542948E+03  0.17300000000E+03 0. -1.
         -6    1    1    2    0  502 -0.23325530815E+02 -0.11192215498E+03  0.47204272831E+03  0.51558121234E+03  0.17300000000E+03 0.  1.
<mgrwt>
<rscale>  2 0.20736357E+03</rscale>
<asrwt>0</asrwt>
<pdfrwt beam="1">  1       21 0.86287714E-01 0.20736357E+03</pdfrwt>
<pdfrwt beam="2">  1       21 0.28011768E-01 0.20736357E+03</pdfrwt>
<totfact> 0.13958697E+04</totfact>
</mgrwt>
</event>
<event>
 4    1  0.4111182E+000  0.2101554E+03  0.7546771E-02  0.1141443E+00
         21   -1    0    0  501  502  0.00000000000E+00  0.00000000000E+00  0.11601430949E+04  0.11601430949E+04  0.00000000000E+00 0. -1.
         21   -1    0    0  502  503 -0.00000000000E+00 -0.00000000000E+00 -0.45908944843E+02  0.45908944843E+02  0.00000000000E+00 0.  1.
          6    1    1    2  501    0  0.11088016912E+03 -0.44066971835E+02  0.80631713315E+03  0.83325424039E+03  0.17300000000E+03 0. -1.
         -6    1    1    2    0  503 -0.11088016912E+03  0.44066971835E+02  0.30791701695E+03  0.37279779940E+03  0.17300000000E+03 0.  1.
<mgrwt>
<rscale>  2 0.21015544E+03</rscale>
<asrwt>0</asrwt>
<pdfrwt beam="1">  1       21 0.17848353E+00 0.21015544E+03</pdfrwt>
<pdfrwt beam="2">  1       21 0.70629154E-02 0.21015544E+03</pdfrwt>
<totfact> 0.27430444E+04</totfact>
</mgrwt>
</event>
<event>
 4    1  0.4111182E+000  0.2077577E+03  0.7546771E-02  0.1143354E+00
         21   -1    0    0  501  502  0.00000000000E+00  0.00000000000E+00  0.77567883353E+03  0.77567883353E+03  0.00000000000E+00 0. -1.
         21   -1    0    0  502  503 -0.00000000000E+00 -0.00000000000E+00 -0.75901881917E+02  0.75901881917E+02  0.00000000000E+00 0. -1.
          6    1    1    2  501    0  0.59121783447E+01  0.11488823154E+03  0.56985034718E+03  0.60654157135E+03  0.17300000000E+03 0. -1.
         -6    1    1    2    0  503 -0.59121783447E+01 -0.11488823154E+03  0.12992660444E+03  0.24503914410E+03  0.17300000000E+03 0. -1.
<mgrwt>
<rscale>  2 0.20775769E+03</rscale>
<asrwt>0</asrwt>
<pdfrwt beam="1">  1       21 0.11933520E+00 0.20775769E+03</pdfrwt>
<pdfrwt beam="2">  1       21 0.11677213E-01 0.20775769E+03</pdfrwt>
<totfact> 0.32703092E+04</totfact>
</mgrwt>
</event>
<event>
 4    1  0.4111182E+000  0.2161292E+03  0.7546771E-02  0.1136802E+00
         21   -1    0    0  503  502  0.00000000000E+00  0.00000000000E+00  0.60770634240E+03  0.60770634240E+03  0.00000000000E+00 0. -1.
         21   -1    0    0  501  503 -0.00000000000E+00 -0.00000000000E+00 -0.58840359455E+03  0.58840359455E+03  0.00000000000E+00 0.  1.
          6    1    1    2  501    0 -0.12312037759E+03  0.40301507404E+02 -0.54797371336E+03  0.58905604946E+03  0.17300000000E+03 0.  1.
         -6    1    1    2    0  502  0.12312037759E+03 -0.40301507404E+02  0.56727646121E+03  0.60705388749E+03  0.17300000000E+03 0. -1.
<mgrwt>
<rscale>  2 0.21612922E+03</rscale>
<asrwt>0</asrwt>
<pdfrwt beam="1">  1       21 0.93493283E-01 0.21612922E+03</pdfrwt>
<pdfrwt beam="2">  1       21 0.90523630E-01 0.21612922E+03</pdfrwt>
<totfact> 0.97422826E+02</totfact>
</mgrwt>
</event>
<event>
 4    1  0.4111182E+000  0.2463614E+03  0.7546771E-02  0.1115626E+00
         21   -1    0    0  503  502  0.00000000000E+00  0.00000000000E+00  0.70728156223E+02  0.70728156223E+02  0.00000000000E+00 0. -1.
         21   -1    0    0  501  503 -0.00000000000E+00 -0.00000000000E+00 -0.17301472523E+04  0.17301472523E+04  0.00000000000E+00 0.  1.
          6    1    1    2  501    0 -0.15378776875E+03  0.84345974941E+02 -0.14689655105E+04  0.14894809809E+04  0.17300000000E+03 0.  1.
         -6    1    1    2    0  502  0.15378776875E+03 -0.84345974941E+02 -0.19045358552E+03  0.31139442760E+03  0.17300000000E+03 0. -1.
<mgrwt>
<rscale>  2 0.24636136E+03</rscale>
<asrwt>0</asrwt>
<pdfrwt beam="1">  1       21 0.10881254E-01 0.24636136E+03</pdfrwt>
<pdfrwt beam="2">  1       21 0.26617652E+00 0.24636136E+03</pdfrwt>
<totfact> 0.35427007E+03</totfact>
</mgrwt>
</event>
<event>
 4    1  0.4111182E+000  0.1961452E+03  0.7546771E-02  0.1153033E+00
         21   -1    0    0  503  502  0.00000000000E+00  0.00000000000E+00  0.52977117995E+02  0.52977117995E+02  0.00000000000E+00 0.  1.
         21   -1    0    0  501  503 -0.00000000000E+00 -0.00000000000E+00 -0.73766372421E+03  0.73766372421E+03  0.00000000000E+00 0.  1.
          6    1    1    2  501    0  0.79538972465E+02 -0.47090294151E+02 -0.39158568725E+03  0.43796380490E+03  0.17300000000E+03 0.  1.
         -6    1    1    2    0  502 -0.79538972465E+02  0.47090294151E+02 -0.29310091896E+03  0.35267703730E+03  0.17300000000E+03 0.  1.
<mgrwt>
<rscale>  2 0.19614521E+03</rscale>
<asrwt>0</asrwt>
<pdfrwt beam="1">  1       21 0.81503258E-02 0.19614521E+03</pdfrwt>
<pdfrwt beam="2">  1       21 0.11348673E+00 0.19614521E+03</pdfrwt>
<totfact> 0.70223071E+04</totfact>
</mgrwt>
</event>
<event>
 4    1  0.4111182E+000  0.1769830E+03  0.7546771E-02  0.1170755E+00
         21   -1    0    0  501  502  0.00000000000E+00  0.00000000000E+00  0.69184752716E+03  0.69184752716E+03  0.00000000000E+00 0. -1.
         21   -1    0    0  502  503 -0.00000000000E+00 -0.00000000000E+00 -0.37276577342E+03  0.37276577342E+03  0.00000000000E+00 0. -1.
          6    1    1    2  501    0 -0.37115346909E+02  0.40537145071E+01  0.65847569204E+03  0.68184545066E+03  0.17300000000E+03 0. -1.
         -6    1    1    2    0  503  0.37115346909E+02 -0.40537145071E+01 -0.33939393831E+03  0.38276784992E+03  0.17300000000E+03 0. -1.
<mgrwt>
<rscale>  2 0.17698300E+03</rscale>
<asrwt>0</asrwt>
<pdfrwt beam="1">  1       21 0.10643808E+00 0.17698300E+03</pdfrwt>
<pdfrwt beam="2">  1       21 0.57348581E-01 0.17698300E+03</pdfrwt>
<totfact> 0.20482765E+03</totfact>
</mgrwt>
</event>
<event>
 4    1  0.4111182E+000  0.2068114E+03  0.7546771E-02  0.1144116E+00
         21   -1    0    0  501  502  0.00000000000E+00  0.00000000000E+00  0.47697264613E+03  0.47697264613E+03  0.00000000000E+00 0.  1.
         21   -1    0    0  502  503 -0.00000000000E+00 -0.00000000000E+00 -0.95934018031E+02  0.95934018031E+02  0.00000000000E+00 0. -1.
          6    1    1    2  501    0  0.10262634303E+03  0.48060093132E+02  0.26370662480E+03  0.33513000880E+03  0.17300000000E+03 0.  1.
         -6    1    1    2    0  503 -0.10262634303E+03 -0.48060093132E+02  0.11733200330E+03  0.23777665536E+03  0.17300000000E+03 0. -1.
<mgrwt>
<rscale>  2 0.20681136E+03</rscale>
<asrwt>0</asrwt>
<pdfrwt beam="1">  1       21 0.73380405E-01 0.20681136E+03</pdfrwt>
<pdfrwt beam="2">  1       21 0.14759080E-01 0.20681136E+03</pdfrwt>
<totfact> 0.66999214E+04</totfact>
</mgrwt>
</event>
<event>
 4    1  0.4111182E+000  0.1921336E+03  0.7546771E-02  0.1156551E+00
         21   -1    0    0  501  502  0.00000000000E+00  0.00000000000E+00  0.81239638878E+02  0.81239638878E+02  0.00000000000E+00 0.  1.
         21   -1    0    0  502  503 -0.00000000000E+00 -0.00000000000E+00 -0.45440050916E+03  0.45440050916E+03  0.00000000000E+00 0.  1.
          6    1    1    2  501    0  0.79407794910E+02 -0.26090355931E+02 -0.18634426862E+03  0.26765554545E+03  0.17300000000E+03 0.  1.
         -6    1    1    2    0  503 -0.79407794910E+02  0.26090355931E+02 -0.18681660166E+03  0.26798460258E+03  0.17300000000E+03 0.  1.
<mgrwt>
<rscale>  2 0.19213356E+03</rscale>
<asrwt>0</asrwt>
<pdfrwt beam="1">  1       21 0.12498406E-01 0.19213356E+03</pdfrwt>
<pdfrwt beam="2">  1       21 0.69907770E-01 0.19213356E+03</pdfrwt>
<totfact> 0.10140646E+05</totfact>
</mgrwt>
</event>
<event>
 4    1  0.4111182E+000  0.1770037E+03  0.7546771E-02  0.1170735E+00
         21   -1    0    0  503  502  0.00000000000E+00  0.00000000000E+00  0.67148013065E+03  0.67148013065E+03  0.00000000000E+00 0. -1.
         21   -1    0    0  501  503 -0.00000000000E+00 -0.00000000000E+00 -0.52766796432E+02  0.52766796432E+02  0.00000000000E+00 0. -1.
          6    1    1    2  501    0  0.26212176738E+02 -0.26725049702E+02  0.18615015486E+03  0.25686998004E+03  0.17300000000E+03 0. -1.
         -6    1    1    2    0  502 -0.26212176738E+02  0.26725049702E+02  0.43256317935E+03  0.46737694704E+03  0.17300000000E+03 0. -1.
<mgrwt>
<rscale>  2 0.17700369E+03</rscale>
<asrwt>0</asrwt>
<pdfrwt beam="1">  1       21 0.10330463E+00 0.17700369E+03</pdfrwt>
<pdfrwt beam="2">  1       21 0.81179692E-02 0.17700369E+03</pdfrwt>
<totfact> 0.89471040E+04</totfact>
</mgrwt>
</event>
<event>
 4    1  0.4111182E+000  0.2573462E+03  0.7546771E-02  0.1108748E+00
         21   -1    0    0  501  502  0.00000000000E+00  0.00000000000E+00  0.32912387252E+03  0.32912387252E+03  0.00000000000E+00 0.  1.
         21   -1    0    0  502  503 -0.00000000000E+00 -0.00000000000E+00 -0.45678568875E+03  0.45678568875E+03  0.00000000000E+00 0. -1.
          6    1    1    2  501    0 -0.18706226501E+03  0.36135329319E+02  0.23009351614E+03  0.34521019565E+03  0.17300000000E+03 0.  1.
         -6    1    1    2    0  503  0.18706226501E+03 -0.36135329319E+02 -0.35775533237E+03  0.44069936561E+03  0.17300000000E+03 0. -1.
<mgrwt>
<rscale>  2 0.25734617E+03</rscale>
<asrwt>0</asrwt>
<pdfrwt beam="1">  1       21 0.50634442E-01 0.25734617E+03</pdfrwt>
<pdfrwt beam="2">  1       21 0.70274721E-01 0.25734617E+03</pdfrwt>
<totfact> 0.65323055E+03</totfact>
</mgrwt>
</event>
<event>
 4    1  0.4111182E+000  0.2833719E+03  0.7546771E-02  0.1093861E+00
         21   -1    0    0  503  502  0.00000000000E+00  0.00000000000E+00  0.10142479762E+04  0.10142479762E+04  0.00000000000E+00 0. -1.
         21   -1    0    0  501  503 -0.00000000000E+00 -0.00000000000E+00 -0.24241371347E+03  0.24241371347E+03  0.00000000000E+00 0.  1.
          6    1    1    2  501    0 -0.17150250990E+03 -0.14476721457E+03 -0.12969824821E+03  0.31164289324E+03  0.17300000000E+03 0.  1.
         -6    1    1    2    0  502  0.17150250990E+03  0.14476721457E+03  0.90153251099E+03  0.94501879647E+03  0.17300000000E+03 0. -1.
<mgrwt>
<rscale>  2 0.28337194E+03</rscale>
<asrwt>0</asrwt>
<pdfrwt beam="1">  1       21 0.15603815E+00 0.28337194E+03</pdfrwt>
<pdfrwt beam="2">  1       21 0.37294418E-01 0.28337194E+03</pdfrwt>
<totfact> 0.17331458E+03</totfact>
</mgrwt>
</event>
<event>
 4    1  0.4111182E+000  0.1747072E+03  0.7546771E-02  0.1173026E+00
         21   -1    0    0  503  502  0.00000000000E+00  0.00000000000E+00  0.14883395789E+04  0.14883395789E+04  0.00000000000E+00 0. -1.
         21   -1    0    0  501  503 -0.00000000000E+00 -0.00000000000E+00 -0.10156675280E+03  0.10156675280E+03  0.00000000000E+00 0. -1.
          6    1    1    2  501    0 -0.18137503418E+02  0.16267134235E+02 -0.16789962020E+02  0.17551208366E+03  0.17300000000E+03 0. -1.
         -6    1    1    2    0  502  0.18137503418E+02 -0.16267134235E+02  0.14035627881E+04  0.14143942480E+04  0.17300000000E+03 0. -1.
<mgrwt>
<rscale>  2 0.17470715E+03</rscale>
<asrwt>0</asrwt>
<pdfrwt beam="1">  1       21 0.22897530E+00 0.17470715E+03</pdfrwt>
<pdfrwt beam="2">  1       21 0.15625655E-01 0.17470715E+03</pdfrwt>
<totfact> 0.32934035E+03</totfact>
</mgrwt>
</event>
<event>
 4    1  0.4111182E+000  0.2555625E+03  0.7546771E-02  0.1109839E+00
         21   -1    0    0  501  502  0.00000000000E+00  0.00000000000E+00  0.53891956775E+03  0.53891956775E+03  0.00000000000E+00 0.  1.
         21   -1    0    0  502  503 -0.00000000000E+00 -0.00000000000E+00 -0.17123134584E+03  0.17123134584E+03  0.00000000000E+00 0. -1.
          6    1    1    2  501    0 -0.18671454399E+03  0.22822370214E+02  0.37579464740E+03  0.45445989760E+03  0.17300000000E+03 0.  1.
         -6    1    1    2    0  503  0.18671454399E+03 -0.22822370214E+02 -0.81064254837E+01  0.25569101598E+03  0.17300000000E+03 0. -1.
<mgrwt>
<rscale>  2 0.25556248E+03</rscale>
<asrwt>0</asrwt>
<pdfrwt beam="1">  1       21 0.82910702E-01 0.25556248E+03</pdfrwt>
<pdfrwt beam="2">  1       21 0.26343284E-01 0.25556248E+03</pdfrwt>
<totfact> 0.16771023E+04</totfact>
</mgrwt>
</event>
<event>
 4    1  0.4111182E+000  0.1758621E+03  0.7546771E-02  0.1171869E+00
         21   -1    0    0  501  502  0.00000000000E+00  0.00000000000E+00  0.60997159906E+03  0.60997159906E+03  0.00000000000E+00 0.  1.
         21   -1    0    0  502  503 -0.00000000000E+00 -0.00000000000E+00 -0.52269739501E+02  0.52269739501E+02  0.00000000000E+00 0. -1.
          6    1    1    2  501    0  0.54630420641E+01 -0.31122774952E+02  0.33617551164E+03  0.37939616047E+03  0.17300000000E+03 0.  1.
         -6    1    1    2    0  503 -0.54630420641E+01  0.31122774952E+02  0.22152634792E+03  0.28284517809E+03  0.17300000000E+03 0. -1.
<mgrwt>
<rscale>  2 0.17586208E+03</rscale>
<asrwt>0</asrwt>
<pdfrwt beam="1">  1       21 0.93841780E-01 0.17586208E+03</pdfrwt>
<pdfrwt beam="2">  1       21 0.80414988E-02 0.17586208E+03</pdfrwt>
<totfact> 0.11412034E+05</totfact>
</mgrwt>
</event>
<event>
 4    1  0.4111182E+000  0.3781870E+03  0.7546771E-02  0.1051606E+00
         21   -1    0    0  503  502  0.00000000000E+00  0.00000000000E+00  0.50378836103E+03  0.50378836103E+03  0.00000000000E+00 0. -1.
         21   -1    0    0  501  503 -0.00000000000E+00 -0.00000000000E+00 -0.28415059713E+03  0.28415059713E+03  0.00000000000E+00 0. -1.
          6    1    1    2  501    0  0.26578915862E+03  0.20604005053E+03  0.12152494556E+03  0.39723254104E+03  0.17300000000E+03 0. -1.
         -6    1    1    2    0  502 -0.26578915862E+03 -0.20604005053E+03  0.98112818329E+02  0.39070641713E+03  0.17300000000E+03 0. -1.
<mgrwt>
<rscale>  2 0.37818696E+03</rscale>
<asrwt>0</asrwt>
<pdfrwt beam="1">  1       21 0.77505902E-01 0.37818696E+03</pdfrwt>
<pdfrwt beam="2">  1       21 0.43715477E-01 0.37818696E+03</pdfrwt>
<totfact> 0.67347913E+03</totfact>
</mgrwt>
</event>
<event>
 4    1  0.4111182E+000  0.2349916E+03  0.7546771E-02  0.1123175E+00
         21   -1    0    0  501  502  0.00000000000E+00  0.00000000000E+00  0.77694314361E+03  0.77694314361E+03  0.00000000000E+00 0.  1.
         21   -1    0    0  502  503 -0.00000000000E+00 -0.00000000000E+00 -0.86271124551E+02  0.86271124551E+02  0.00000000000E+00 0.  1.
          6    1    1    2  501    0 -0.15901170419E+03  0.27052482048E+01  0.52648080722E+03  0.57654408401E+03  0.17300000000E+03 0.  1.
         -6    1    1    2    0  503  0.15901170419E+03 -0.27052482048E+01  0.16419121184E+03  0.28667018415E+03  0.17300000000E+03 0.  1.
<mgrwt>
<rscale>  2 0.23499158E+03</rscale>
<asrwt>0</asrwt>
<pdfrwt beam="1">  1       21 0.11952971E+00 0.23499158E+03</pdfrwt>
<pdfrwt beam="2">  1       21 0.13272481E-01 0.23499158E+03</pdfrwt>
<totfact> 0.25486324E+04</totfact>
</mgrwt>
</event>
<event>
 4    1  0.4111182E+000  0.2011467E+03  0.7546771E-02  0.1148775E+00
         21   -1    0    0  503  502  0.00000000000E+00  0.00000000000E+00  0.31581826582E+03  0.31581826582E+03  0.00000000000E+00 0.  1.
         21   -1    0    0  501  503 -0.00000000000E+00 -0.00000000000E+00 -0.37751571906E+03  0.37751571906E+03  0.00000000000E+00 0. -1.
          6    1    1    2  501    0  0.63493752231E+02 -0.80619689769E+02 -0.31262003128E+03  0.37174087064E+03  0.17300000000E+03 0. -1.
         -6    1    1    2    0  502 -0.63493752231E+02  0.80619689769E+02  0.25092257804E+03  0.32159311423E+03  0.17300000000E+03 0.  1.
<mgrwt>
<rscale>  2 0.20114669E+03</rscale>
<asrwt>0</asrwt>
<pdfrwt beam="1">  1       21 0.48587425E-01 0.20114669E+03</pdfrwt>
<pdfrwt beam="2">  1       21 0.58079341E-01 0.20114669E+03</pdfrwt>
<totfact> 0.11172152E+04</totfact>
</mgrwt>
</event>
<event>
 4    1  0.4111182E+000  0.1894960E+03  0.7546771E-02  0.1158917E+00
         21   -1    0    0  501  502  0.00000000000E+00  0.00000000000E+00  0.51598093905E+03  0.51598093905E+03  0.00000000000E+00 0. -1.
         21   -1    0    0  502  503 -0.00000000000E+00 -0.00000000000E+00 -0.15951497850E+03  0.15951497850E+03  0.00000000000E+00 0. -1.
          6    1    1    2  501    0 -0.74012201071E+02 -0.22403792118E+02  0.43181857385E+03  0.47156761608E+03  0.17300000000E+03 0. -1.
         -6    1    1    2    0  503  0.74012201071E+02  0.22403792118E+02 -0.75352613310E+02  0.20392830147E+03  0.17300000000E+03 0. -1.
<mgrwt>
<rscale>  2 0.18949600E+03</rscale>
<asrwt>0</asrwt>
<pdfrwt beam="1">  1       21 0.79381682E-01 0.18949600E+03</pdfrwt>
<pdfrwt beam="2">  1       21 0.24540766E-01 0.18949600E+03</pdfrwt>
<totfact> 0.22004672E+04</totfact>
</mgrwt>
</event>
<event>
 4    1  0.4111182E+000  0.2556862E+03  0.7546771E-02  0.1109763E+00
         21   -1    0    0  501  502  0.00000000000E+00  0.00000000000E+00  0.34861284069E+03  0.34861284069E+03  0.00000000000E+00 0. -1.
         21   -1    0    0  502  503 -0.00000000000E+00 -0.00000000000E+00 -0.92570353967E+03  0.92570353967E+03  0.00000000000E+00 0. -1.
          6    1    1    2  501    0 -0.42517182640E+02  0.18340864666E+03  0.28042610741E+03  0.37949208714E+03  0.17300000000E+03 0. -1.
         -6    1    1    2    0  503  0.42517182640E+02 -0.18340864666E+03 -0.85751680639E+03  0.89482429321E+03  0.17300000000E+03 0. -1.
<mgrwt>
<rscale>  2 0.25568622E+03</rscale>
<asrwt>0</asrwt>
<pdfrwt beam="1">  1       21 0.53632746E-01 0.25568622E+03</pdfrwt>
<pdfrwt beam="2">  1       21 0.14241593E+00 0.25568622E+03</pdfrwt>
<totfact> 0.10635029E+03</totfact>
</mgrwt>
</event>
<event>
 4    1  0.4111182E+000  0.1983958E+03  0.7546771E-02  0.1151100E+00
         21   -1    0    0  501  502  0.00000000000E+00  0.00000000000E+00  0.46269136711E+03  0.46269136711E+03  0.00000000000E+00 0.  1.
         21   -1    0    0  502  503 -0.00000000000E+00 -0.00000000000E+00 -0.19009093565E+03  0.19009093565E+03  0.00000000000E+00 0. -1.
          6    1    1    2  501    0  0.69415683495E+02 -0.67921559367E+02  0.37890360378E+03  0.42770178430E+03  0.17300000000E+03 0.  1.
         -6    1    1    2    0  503 -0.69415683495E+02  0.67921559367E+02 -0.10630317232E+03  0.22508051845E+03  0.17300000000E+03 0. -1.
<mgrwt>
<rscale>  2 0.19839575E+03</rscale>
<asrwt>0</asrwt>
<pdfrwt beam="1">  1       21 0.71183287E-01 0.19839575E+03</pdfrwt>
<pdfrwt beam="2">  1       21 0.29244759E-01 0.19839575E+03</pdfrwt>
<totfact> 0.19925931E+04</totfact>
</mgrwt>
</event>
<event>
 4    1  0.4111182E+000  0.1951528E+03  0.7546771E-02  0.1153894E+00
         21   -1    0    0  503  502  0.00000000000E+00  0.00000000000E+00  0.19305968628E+02  0.19305968628E+02  0.00000000000E+00 0.  1.
         21   -1    0    0  501  503 -0.00000000000E+00 -0.00000000000E+00 -0.19737271327E+04  0.19737271327E+04  0.00000000000E+00 0. -1.
          6    1    1    2  501    0  0.71454333049E+02  0.55225951832E+02 -0.95433096363E+03  0.97408018952E+03  0.17300000000E+03 0. -1.
         -6    1    1    2    0  502 -0.71454333049E+02 -0.55225951832E+02 -0.10000902004E+04  0.10189529118E+04  0.17300000000E+03 0.  1.
<mgrwt>
<rscale>  2 0.19515283E+03</rscale>
<asrwt>0</asrwt>
<pdfrwt beam="1">  1       21 0.29701487E-02 0.19515283E+03</pdfrwt>
<pdfrwt beam="2">  1       21 0.30365036E+00 0.19515283E+03</pdfrwt>
<totfact> 0.20869680E+04</totfact>
</mgrwt>
</event>
<event>
 4    1  0.4111182E+000  0.1893209E+03  0.7546771E-02  0.1159075E+00
         21   -1    0    0  501  502  0.00000000000E+00  0.00000000000E+00  0.32696456369E+03  0.32696456369E+03  0.00000000000E+00 0. -1.
         21   -1    0    0  502  503 -0.00000000000E+00 -0.00000000000E+00 -0.11580692487E+03  0.11580692487E+03  0.00000000000E+00 0. -1.
          6    1    1    2  501    0  0.51371000245E+02 -0.57222584936E+02  0.15674240003E+03  0.24578564616E+03  0.17300000000E+03 0. -1.
         -6    1    1    2    0  503 -0.51371000245E+02  0.57222584936E+02  0.54415238784E+02  0.19698584240E+03  0.17300000000E+03 0. -1.
<mgrwt>
<rscale>  2 0.18932090E+03</rscale>
<asrwt>0</asrwt>
<pdfrwt beam="1">  1       21 0.50302240E-01 0.18932090E+03</pdfrwt>
<pdfrwt beam="2">  1       21 0.17816450E-01 0.18932090E+03</pdfrwt>
<totfact> 0.10779820E+05</totfact>
</mgrwt>
</event>
<event>
 4    1  0.4111182E+000  0.1839094E+03  0.7546771E-02  0.1164072E+00
         21   -1    0    0  503  502  0.00000000000E+00  0.00000000000E+00  0.75112171438E+02  0.75112171438E+02  0.00000000000E+00 0. -1.
         21   -1    0    0  501  503 -0.00000000000E+00 -0.00000000000E+00 -0.49723258237E+03  0.49723258237E+03  0.00000000000E+00 0. -1.
          6    1    1    2  501    0  0.61679872184E+02  0.94471186892E+01 -0.29898413341E+03  0.35101875550E+03  0.17300000000E+03 0. -1.
         -6    1    1    2    0  502 -0.61679872184E+02 -0.94471186892E+01 -0.12313627752E+03  0.22132599831E+03  0.17300000000E+03 0. -1.
<mgrwt>
<rscale>  2 0.18390937E+03</rscale>
<asrwt>0</asrwt>
<pdfrwt beam="1">  1       21 0.11555719E-01 0.18390937E+03</pdfrwt>
<pdfrwt beam="2">  1       21 0.76497319E-01 0.18390937E+03</pdfrwt>
<totfact> 0.95819146E+04</totfact>
</mgrwt>
</event>
<event>
 4    1  0.4111182E+000  0.1965614E+03  0.7546771E-02  0.1152673E+00
         21   -1    0    0  501  502  0.00000000000E+00  0.00000000000E+00  0.93574554907E+02  0.93574554907E+02  0.00000000000E+00 0. -1.
         21   -1    0    0  502  503 -0.00000000000E+00 -0.00000000000E+00 -0.60188162364E+03  0.60188162364E+03  0.00000000000E+00 0.  1.
          6    1    1    2  501    0 -0.42231438713E+02 -0.83209972048E+02 -0.59303427103E+02  0.20531266481E+03  0.17300000000E+03 0. -1.
         -6    1    1    2    0  503  0.42231438713E+02  0.83209972048E+02 -0.44900364163E+03  0.49014351374E+03  0.17300000000E+03 0.  1.
<mgrwt>
<rscale>  2 0.19656143E+03</rscale>
<asrwt>0</asrwt>
<pdfrwt beam="1">  1       21 0.14396086E-01 0.19656143E+03</pdfrwt>
<pdfrwt beam="2">  1       21 0.92597172E-01 0.19656143E+03</pdfrwt>
<totfact> 0.41485987E+04</totfact>
</mgrwt>
</event>
<event>
 4    1  0.4111182E+000  0.1967205E+03  0.7546771E-02  0.1152536E+00
         21   -1    0    0  503  502  0.00000000000E+00  0.00000000000E+00  0.31187947577E+03  0.31187947577E+03  0.00000000000E+00 0.  1.
         21   -1    0    0  501  503 -0.00000000000E+00 -0.00000000000E+00 -0.19639130583E+03  0.19639130583E+03  0.00000000000E+00 0.  1.
          6    1    1    2  501    0 -0.62976830768E+02 -0.69309868338E+02 -0.96460800001E+02  0.21909729574E+03  0.17300000000E+03 0.  1.
         -6    1    1    2    0  502  0.62976830768E+02  0.69309868338E+02  0.21194896994E+03  0.28917348585E+03  0.17300000000E+03 0.  1.
<mgrwt>
<rscale>  2 0.19672046E+03</rscale>
<asrwt>0</asrwt>
<pdfrwt beam="1">  1       21 0.47981458E-01 0.19672046E+03</pdfrwt>
<pdfrwt beam="2">  1       21 0.30214047E-01 0.19672046E+03</pdfrwt>
<totfact> 0.43538719E+04</totfact>
</mgrwt>
</event>
<event>
 4    1  0.4111182E+000  0.1793102E+03  0.7546771E-02  0.1168472E+00
         21   -1    0    0  503  502  0.00000000000E+00  0.00000000000E+00  0.18500005757E+03  0.18500005757E+03  0.00000000000E+00 0.  1.
         21   -1    0    0  501  503 -0.00000000000E+00 -0.00000000000E+00 -0.32159336008E+03  0.32159336008E+03  0.00000000000E+00 0.  1.
          6    1    1    2  501    0  0.22735148682E+02  0.41306892632E+02 -0.24001248014E+03  0.29959662379E+03  0.17300000000E+03 0.  1.
         -6    1    1    2    0  502 -0.22735148682E+02 -0.41306892632E+02  0.10341917763E+03  0.20699679385E+03  0.17300000000E+03 0.  1.
<mgrwt>
<rscale>  2 0.17931020E+03</rscale>
<asrwt>0</asrwt>
<pdfrwt beam="1">  1       21 0.28461548E-01 0.17931020E+03</pdfrwt>
<pdfrwt beam="2">  1       21 0.49475901E-01 0.17931020E+03</pdfrwt>
<totfact> 0.46273375E+04</totfact>
</mgrwt>
</event>
<event>
 4    1  0.4111182E+000  0.1751934E+03  0.7546771E-02  0.1172538E+00
         21   -1    0    0  501  502  0.00000000000E+00  0.00000000000E+00  0.17241373831E+03  0.17241373831E+03  0.00000000000E+00 0. -1.
         21   -1    0    0  502  503 -0.00000000000E+00 -0.00000000000E+00 -0.19029026357E+03  0.19029026357E+03  0.00000000000E+00 0. -1.
          6    1    1    2  501    0 -0.17887710031E+02 -0.21065209239E+02  0.37117084930E+02  0.17908207952E+03  0.17300000000E+03 0.  1.
         -6    1    1    2    0  503  0.17887710031E+02  0.21065209239E+02 -0.54993610187E+02  0.18362192236E+03  0.17300000000E+03 0.  1.
<mgrwt>
<rscale>  2 0.17519336E+03</rscale>
<asrwt>0</asrwt>
<pdfrwt beam="1">  1       21 0.26525191E-01 0.17519336E+03</pdfrwt>
<pdfrwt beam="2">  1       21 0.29275425E-01 0.17519336E+03</pdfrwt>
<totfact> 0.15197559E+05</totfact>
</mgrwt>
</event>
<event>
 4    1  0.4111182E+000  0.1800754E+03  0.7546771E-02  0.1167730E+00
         21   -1    0    0  501  502  0.00000000000E+00  0.00000000000E+00  0.83497082357E+02  0.83497082357E+02  0.00000000000E+00 0. -1.
         21   -1    0    0  502  503 -0.00000000000E+00 -0.00000000000E+00 -0.39158085745E+03  0.39158085745E+03  0.00000000000E+00 0. -1.
          6    1    1    2  501    0 -0.46072550485E+02  0.19376627342E+02 -0.13250698359E+03  0.22357377819E+03  0.17300000000E+03 0. -1.
         -6    1    1    2    0  503  0.46072550485E+02 -0.19376627342E+02 -0.17557679151E+03  0.25150416162E+03  0.17300000000E+03 0. -1.
<mgrwt>
<rscale>  2 0.18007536E+03</rscale>
<asrwt>0</asrwt>
<pdfrwt beam="1">  1       21 0.12845705E-01 0.18007536E+03</pdfrwt>
<pdfrwt beam="2">  1       21 0.60243210E-01 0.18007536E+03</pdfrwt>
<totfact> 0.13398909E+05</totfact>
</mgrwt>
</event>
<event>
 4    1  0.4111182E+000  0.2526855E+03  0.7546771E-02  0.1111619E+00
         21   -1    0    0  501  502  0.00000000000E+00  0.00000000000E+00  0.23457130409E+03  0.23457130409E+03  0.00000000000E+00 0.  1.
         21   -1    0    0  502  503 -0.00000000000E+00 -0.00000000000E+00 -0.42399236605E+03  0.42399236605E+03  0.00000000000E+00 0.  1.
          6    1    1    2  501    0  0.17458211613E+03  0.58668929247E+02  0.10231198343E+03  0.27261272987E+03  0.17300000000E+03 0.  1.
         -6    1    1    2    0  503 -0.17458211613E+03 -0.58668929247E+02 -0.29173304539E+03  0.38595094028E+03  0.17300000000E+03 0.  1.
<mgrwt>
<rscale>  2 0.25268549E+03</rscale>
<asrwt>0</asrwt>
<pdfrwt beam="1">  1       21 0.36087894E-01 0.25268549E+03</pdfrwt>
<pdfrwt beam="2">  1       21 0.65229594E-01 0.25268549E+03</pdfrwt>
<totfact> 0.15474326E+04</totfact>
</mgrwt>
</event>
<event>
 4    1  0.4111182E+000  0.1897954E+03  0.7546771E-02  0.1158646E+00
         21   -1    0    0  503  502  0.00000000000E+00  0.00000000000E+00  0.56673377992E+03  0.56673377992E+03  0.00000000000E+00 0.  1.
         21   -1    0    0  501  503 -0.00000000000E+00 -0.00000000000E+00 -0.63788615725E+02  0.63788615725E+02  0.00000000000E+00 0.  1.
          6    1    1    2  501    0  0.52904993645E+01  0.77880113468E+02  0.23265033106E+03  0.30024736135E+03  0.17300000000E+03 0.  1.
         -6    1    1    2    0  502 -0.52904993645E+01 -0.77880113468E+02  0.27029483314E+03  0.33027503430E+03  0.17300000000E+03 0.  1.
<mgrwt>
<rscale>  2 0.18979542E+03</rscale>
<asrwt>0</asrwt>
<pdfrwt beam="1">  1       21 0.87189809E-01 0.18979542E+03</pdfrwt>
<pdfrwt beam="2">  1       21 0.98136335E-02 0.18979542E+03</pdfrwt>
<totfact> 0.94931529E+04</totfact>
</mgrwt>
</event>
<event>
 4    1  0.4111182E+000  0.1990593E+03  0.7546771E-02  0.1150535E+00
         21   -1    0    0  503  502  0.00000000000E+00  0.00000000000E+00  0.75865184627E+03  0.75865184627E+03  0.00000000000E+00 0.  1.
         21   -1    0    0  501  503 -0.00000000000E+00 -0.00000000000E+00 -0.26008982872E+03  0.26008982872E+03  0.00000000000E+00 0.  1.
          6    1    1    2  501    0 -0.70752000580E+02  0.68481840041E+02 -0.20608160318E+03  0.28652091577E+03  0.17300000000E+03 0.  1.
         -6    1    1    2    0  502  0.70752000580E+02 -0.68481840041E+02  0.70464362073E+03  0.73222075922E+03  0.17300000000E+03 0.  1.
<mgrwt>
<rscale>  2 0.19905931E+03</rscale>
<asrwt>0</asrwt>
<pdfrwt beam="1">  1       21 0.11671567E+00 0.19905931E+03</pdfrwt>
<pdfrwt beam="2">  1       21 0.40013820E-01 0.19905931E+03</pdfrwt>
<totfact> 0.33850239E+03</totfact>
</mgrwt>
</event>
<event>
 4    1  0.4111182E+000  0.1980424E+03  0.7546771E-02  0.1151401E+00
         21   -1    0    0  503  502  0.00000000000E+00  0.00000000000E+00  0.33517707038E+03  0.33517707038E+03  0.00000000000E+00 0. -1.
         21   -1    0    0  501  503 -0.00000000000E+00 -0.00000000000E+00 -0.13169403899E+03  0.13169403899E+03  0.00000000000E+00 0.  1.
          6    1    1    2  501    0  0.78345777096E+02  0.56158030541E+02  0.23806795728E+02  0.19946816464E+03  0.17300000000E+03 0.  1.
         -6    1    1    2    0  502 -0.78345777096E+02 -0.56158030541E+02  0.17967623566E+03  0.26740294472E+03  0.17300000000E+03 0. -1.
<mgrwt>
<rscale>  2 0.19804238E+03</rscale>
<asrwt>0</asrwt>
<pdfrwt beam="1">  1       21 0.51565703E-01 0.19804238E+03</pdfrwt>
<pdfrwt beam="2">  1       21 0.20260622E-01 0.19804238E+03</pdfrwt>
<totfact> 0.80309316E+04</totfact>
</mgrwt>
</event>
<event>
 4    1  0.4111182E+000  0.2503589E+03  0.7546771E-02  0.1113078E+00
         21   -1    0    0  503  502  0.00000000000E+00  0.00000000000E+00  0.19884008237E+03  0.19884008237E+03  0.00000000000E+00 0. -1.
         21   -1    0    0  501  503 -0.00000000000E+00 -0.00000000000E+00 -0.37214087781E+03  0.37214087781E+03  0.00000000000E+00 0.  1.
          6    1    1    2  501    0 -0.16738135261E+03  0.68804477123E+02 -0.19829832485E+03  0.31937720475E+03  0.17300000000E+03 0.  1.
         -6    1    1    2    0  502  0.16738135261E+03 -0.68804477123E+02  0.24997529418E+02  0.25160375544E+03  0.17300000000E+03 0.  1.
<mgrwt>
<rscale>  2 0.25035889E+03</rscale>
<asrwt>0</asrwt>
<pdfrwt beam="1">  1       21 0.30590782E-01 0.25035889E+03</pdfrwt>
<pdfrwt beam="2">  1       21 0.57252442E-01 0.25035889E+03</pdfrwt>
<totfact> 0.28538258E+04</totfact>
</mgrwt>
</event>
<event>
 4    1  0.4111182E+000  0.1745008E+03  0.7546771E-02  0.1173234E+00
         21   -1    0    0  503  502  0.00000000000E+00  0.00000000000E+00  0.42491276984E+02  0.42491276984E+02  0.00000000000E+00 0.  1.
         21   -1    0    0  501  503 -0.00000000000E+00 -0.00000000000E+00 -0.11133599243E+04  0.11133599243E+04  0.00000000000E+00 0.  1.
          6    1    1    2  501    0  0.22800400907E+02 -0.12958375463E+01 -0.88042030250E+03  0.89754690492E+03  0.17300000000E+03 0.  1.
         -6    1    1    2    0  502 -0.22800400907E+02  0.12958375463E+01 -0.19044834481E+03  0.25830429636E+03  0.17300000000E+03 0.  1.
<mgrwt>
<rscale>  2 0.17450082E+03</rscale>
<asrwt>0</asrwt>
<pdfrwt beam="1">  1       21 0.65371206E-02 0.17450082E+03</pdfrwt>
<pdfrwt beam="2">  1       21 0.17128611E+00 0.17450082E+03</pdfrwt>
<totfact> 0.35991657E+04</totfact>
</mgrwt>
</event>
<event>
 4    1  0.4111182E+000  0.1802413E+03  0.7546771E-02  0.1167570E+00
         21   -1    0    0  503  502  0.00000000000E+00  0.00000000000E+00  0.10269067561E+03  0.10269067561E+03  0.00000000000E+00 0.  1.
         21   -1    0    0  501  503 -0.00000000000E+00 -0.00000000000E+00 -0.32845270412E+03  0.32845270412E+03  0.00000000000E+00 0.  1.
          6    1    1    2  501    0 -0.23112339091E+02 -0.44986133221E+02 -0.15424931450E+03  0.23723360518E+03  0.17300000000E+03 0.  1.
         -6    1    1    2    0  502  0.23112339091E+02  0.44986133221E+02 -0.71512714011E+02  0.19390977455E+03  0.17300000000E+03 0.  1.
<mgrwt>
<rscale>  2 0.18024132E+03</rscale>
<asrwt>0</asrwt>
<pdfrwt beam="1">  1       21 0.15798565E-01 0.18024132E+03</pdfrwt>
<pdfrwt beam="2">  1       21 0.50531186E-01 0.18024132E+03</pdfrwt>
<totfact> 0.13357620E+05</totfact>
</mgrwt>
</event>
<event>
 4    1  0.4111182E+000  0.1950987E+03  0.7546771E-02  0.1153941E+00
         21   -1    0    0  503  502  0.00000000000E+00  0.00000000000E+00  0.70624960047E+02  0.70624960047E+02  0.00000000000E+00 0.  1.
         21   -1    0    0  501  503 -0.00000000000E+00 -0.00000000000E+00 -0.66117082803E+03  0.66117082803E+03  0.00000000000E+00 0.  1.
          6    1    1    2  501    0 -0.90130237965E+02 -0.33227408600E+01 -0.45258831860E+03  0.49284854320E+03  0.17300000000E+03 0.  1.
         -6    1    1    2    0  502  0.90130237965E+02  0.33227408600E+01 -0.13795754939E+03  0.23894724488E+03  0.17300000000E+03 0.  1.
<mgrwt>
<rscale>  2 0.19509869E+03</rscale>
<asrwt>0</asrwt>
<pdfrwt beam="1">  1       21 0.10865379E-01 0.19509869E+03</pdfrwt>
<pdfrwt beam="2">  1       21 0.10171859E+00 0.19509869E+03</pdfrwt>
<totfact> 0.55154960E+04</totfact>
</mgrwt>
</event>
<event>
 4    1  0.4111182E+000  0.1849048E+03  0.7546771E-02  0.1163139E+00
         21   -1    0    0  501  502  0.00000000000E+00  0.00000000000E+00  0.15429587426E+03  0.15429587426E+03  0.00000000000E+00 0.  1.
         21   -1    0    0  502  503 -0.00000000000E+00 -0.00000000000E+00 -0.42641326500E+03  0.42641326500E+03  0.00000000000E+00 0.  1.
          6    1    1    2  501    0 -0.53814749684E+02  0.36942733625E+02  0.65178049056E+02  0.19605604028E+03  0.17300000000E+03 0.  1.
         -6    1    1    2    0  503  0.53814749684E+02 -0.36942733625E+02 -0.33729543980E+03  0.38465309898E+03  0.17300000000E+03 0.  1.
<mgrwt>
<rscale>  2 0.18490482E+03</rscale>
<asrwt>0</asrwt>
<pdfrwt beam="1">  1       21 0.23737827E-01 0.18490482E+03</pdfrwt>
<pdfrwt beam="2">  1       21 0.65602040E-01 0.18490482E+03</pdfrwt>
<totfact> 0.35853729E+04</totfact>
</mgrwt>
</event>
<event>
 4    1  0.4111182E+000  0.2839035E+03  0.7546771E-02  0.1093576E+00
         21   -1    0    0  503  502  0.00000000000E+00  0.00000000000E+00  0.43524568168E+03  0.43524568168E+03  0.00000000000E+00 0.  1.
         21   -1    0    0  501  503 -0.00000000000E+00 -0.00000000000E+00 -0.20040759709E+03  0.20040759709E+03  0.00000000000E+00 0. -1.
          6    1    1    2  501    0 -0.21284976763E+03  0.73260976121E+02  0.20501222055E+03  0.35018738524E+03  0.17300000000E+03 0.  1.
         -6    1    1    2    0  502  0.21284976763E+03 -0.73260976121E+02  0.29825864032E+02  0.28546589353E+03  0.17300000000E+03 0. -1.
<mgrwt>
<rscale>  2 0.28390349E+03</rscale>
<asrwt>0</asrwt>
<pdfrwt beam="1">  1       21 0.66960874E-01 0.28390349E+03</pdfrwt>
<pdfrwt beam="2">  1       21 0.30831938E-01 0.28390349E+03</pdfrwt>
<totfact> 0.19691292E+04</totfact>
</mgrwt>
</event>
<event>
 4    1  0.4111182E+000  0.2376583E+03  0.7546771E-02  0.1121363E+00
         21   -1    0    0  501  502  0.00000000000E+00  0.00000000000E+00  0.21975160650E+03  0.21975160650E+03  0.00000000000E+00 0. -1.
         21   -1    0    0  502  503 -0.00000000000E+00 -0.00000000000E+00 -0.35041763683E+03  0.35041763683E+03  0.00000000000E+00 0. -1.
          6    1    1    2  501    0  0.52437267896E+02  0.15428162665E+03  0.81843637835E+02  0.25135605909E+03  0.17300000000E+03 0. -1.
         -6    1    1    2    0  503 -0.52437267896E+02 -0.15428162665E+03 -0.21250966816E+03  0.31881318425E+03  0.17300000000E+03 0. -1.
<mgrwt>
<rscale>  2 0.23765834E+03</rscale>
<asrwt>0</asrwt>
<pdfrwt beam="1">  1       21 0.33807940E-01 0.23765834E+03</pdfrwt>
<pdfrwt beam="2">  1       21 0.53910405E-01 0.23765834E+03</pdfrwt>
<totfact> 0.26781372E+04</totfact>
</mgrwt>
</event>
<event>
 4    1  0.4111182E+000  0.1842136E+03  0.7546771E-02  0.1163786E+00
         21   -1    0    0  501  502  0.00000000000E+00  0.00000000000E+00  0.30439978624E+03  0.30439978624E+03  0.00000000000E+00 0.  1.
         21   -1    0    0  502  503 -0.00000000000E+00 -0.00000000000E+00 -0.11433384226E+03  0.11433384226E+03  0.00000000000E+00 0.  1.
          6    1    1    2  501    0  0.47134394961E+02 -0.42237342992E+02  0.12810770822E+03  0.22437965424E+03  0.17300000000E+03 0.  1.
         -6    1    1    2    0  503 -0.47134394961E+02  0.42237342992E+02  0.61958235770E+02  0.19435397426E+03  0.17300000000E+03 0.  1.
<mgrwt>
<rscale>  2 0.18421358E+03</rscale>
<asrwt>0</asrwt>
<pdfrwt beam="1">  1       21 0.46830736E-01 0.18421358E+03</pdfrwt>
<pdfrwt beam="2">  1       21 0.17589822E-01 0.18421358E+03</pdfrwt>
<totfact> 0.12825345E+05</totfact>
</mgrwt>
</event>
<event>
 4    1  0.4111182E+000  0.1972716E+03  0.7546771E-02  0.1152062E+00
         21   -1    0    0  501  502  0.00000000000E+00  0.00000000000E+00  0.62801121291E+03  0.62801121291E+03  0.00000000000E+00 0. -1.
         21   -1    0    0  502  503 -0.00000000000E+00 -0.00000000000E+00 -0.14356416260E+03  0.14356416260E+03  0.00000000000E+00 0.  1.
          6    1    1    2  501    0  0.33263996894E+02  0.88772583048E+02  0.53306910754E+03  0.56840015694E+03  0.17300000000E+03 0. -1.
         -6    1    1    2    0  503 -0.33263996894E+02 -0.88772583048E+02 -0.48622057235E+02  0.20317521857E+03  0.17300000000E+03 0.  1.
<mgrwt>
<rscale>  2 0.19727155E+03</rscale>
<asrwt>0</asrwt>
<pdfrwt beam="1">  1       21 0.96617108E-01 0.19727155E+03</pdfrwt>
<pdfrwt beam="2">  1       21 0.22086795E-01 0.19727155E+03</pdfrwt>
<totfact> 0.17010039E+04</totfact>
</mgrwt>
</event>
<event>
 4    1  0.4111182E+000  0.1915981E+03  0.7546771E-02  0.1157028E+00
         21   -1    0    0  503  502  0.00000000000E+00  0.00000000000E+00  0.10432059335E+04  0.10432059335E+04  0.00000000000E+00 0.  1.
         21   -1    0    0  501  503 -0.00000000000E+00 -0.00000000000E+00 -0.41635389237E+02  0.41635389237E+02  0.00000000000E+00 0. -1.
          6    1    1    2  501    0  0.35716911834E+02  0.74196560625E+02  0.28735868585E+03  0.34537637692E+03  0.17300000000E+03 0. -1.
         -6    1    1    2    0  502 -0.35716911834E+02 -0.74196560625E+02  0.71421185846E+03  0.73946494586E+03  0.17300000000E+03 0.  1.
<mgrwt>
<rscale>  2 0.19159809E+03</rscale>
<asrwt>0</asrwt>
<pdfrwt beam="1">  1       21 0.16049320E+00 0.19159809E+03</pdfrwt>
<pdfrwt beam="2">  1       21 0.64054453E-02 0.19159809E+03</pdfrwt>
<totfact> 0.44025362E+04</totfact>
</mgrwt>
</event>
<event>
 4    1  0.4111182E+000  0.3732315E+03  0.7546771E-02  0.1053464E+00
         21   -1    0    0  501  502  0.00000000000E+00  0.00000000000E+00  0.81055623249E+03  0.81055623249E+03  0.00000000000E+00 0. -1.
         21   -1    0    0  502  503 -0.00000000000E+00 -0.00000000000E+00 -0.78612898494E+03  0.78612898494E+03  0.00000000000E+00 0.  1.
          6    1    1    2  501    0 -0.59795943982E+02  0.32526475885E+03  0.71791652960E+03  0.80913896318E+03  0.17300000000E+03 0. -1.
         -6    1    1    2    0  503  0.59795943982E+02 -0.32526475885E+03 -0.69348928205E+03  0.78754625425E+03  0.17300000000E+03 0.  1.
<mgrwt>
<rscale>  2 0.37323145E+03</rscale>
<asrwt>0</asrwt>
<pdfrwt beam="1">  1       21 0.12470096E+00 0.37323145E+03</pdfrwt>
<pdfrwt beam="2">  1       21 0.12094292E+00 0.37323145E+03</pdfrwt>
<totfact> 0.21230103E+02</totfact>
</mgrwt>
</event>
<event>
 4    1  0.4111182E+000  0.2113140E+03  0.7546771E-02  0.1140530E+00
         21   -1    0    0  503  502  0.00000000000E+00  0.00000000000E+00  0.36104172761E+03  0.36104172761E+03  0.00000000000E+00 0. -1.
         21   -1    0    0  501  503 -0.00000000000E+00 -0.00000000000E+00 -0.14970050130E+03  0.14970050130E+03  0.00000000000E+00 0. -1.
          6    1    1    2  501    0  0.12072201658E+03 -0.12279306645E+02 -0.79741901706E+00  0.21131545740E+03  0.17300000000E+03 0. -1.
         -6    1    1    2    0  502 -0.12072201658E+03  0.12279306645E+02  0.21213864532E+03  0.29942677151E+03  0.17300000000E+03 0. -1.
<mgrwt>
<rscale>  2 0.21131395E+03</rscale>
<asrwt>0</asrwt>
<pdfrwt beam="1">  1       21 0.55544881E-01 0.21131395E+03</pdfrwt>
<pdfrwt beam="2">  1       21 0.23030846E-01 0.21131395E+03</pdfrwt>
<totfact> 0.53601647E+04</totfact>
</mgrwt>
</event>
<event>
 4    1  0.4111182E+000  0.1971356E+03  0.7546771E-02  0.1152178E+00
         21   -1    0    0  501  502  0.00000000000E+00  0.00000000000E+00  0.48868105138E+02  0.48868105138E+02  0.00000000000E+00 0. -1.
         21   -1    0    0  502  503 -0.00000000000E+00 -0.00000000000E+00 -0.12689658841E+04  0.12689658841E+04  0.00000000000E+00 0. -1.
          6    1    1    2  501    0 -0.63608181689E+01 -0.94302536184E+02 -0.20745787823E+03  0.28618385625E+03  0.17300000000E+03 0. -1.
         -6    1    1    2    0  503  0.63608181689E+01  0.94302536184E+02 -0.10126399008E+04  0.10316501330E+04  0.17300000000E+03 0. -1.
<mgrwt>
<rscale>  2 0.19713556E+03</rscale>
<asrwt>0</asrwt>
<pdfrwt beam="1">  1       21 0.75181716E-02 0.19713556E+03</pdfrwt>
<pdfrwt beam="2">  1       21 0.19522548E+00 0.19713556E+03</pdfrwt>
<totfact> 0.19205139E+04</totfact>
</mgrwt>
</event>
<event>
 4    1  0.4111182E+000  0.2625585E+03  0.7546771E-02  0.1105616E+00
         21   -1    0    0  503  502  0.00000000000E+00  0.00000000000E+00  0.74688137408E+03  0.74688137408E+03  0.00000000000E+00 0.  1.
         21   -1    0    0  501  503 -0.00000000000E+00 -0.00000000000E+00 -0.38203684440E+03  0.38203684440E+03  0.00000000000E+00 0. -1.
          6    1    1    2  501    0  0.13392743612E+03  0.14516001012E+03 -0.30914379466E+03  0.40559446799E+03  0.17300000000E+03 0. -1.
         -6    1    1    2    0  502 -0.13392743612E+03 -0.14516001012E+03  0.67398832434E+03  0.72332375049E+03  0.17300000000E+03 0.  1.
<mgrwt>
<rscale>  2 0.26255854E+03</rscale>
<asrwt>0</asrwt>
<pdfrwt beam="1">  1       21 0.11490483E+00 0.26255854E+03</pdfrwt>
<pdfrwt beam="2">  1       21 0.58774899E-01 0.26255854E+03</pdfrwt>
<totfact> 0.15009625E+03</totfact>
</mgrwt>
</event>
<event>
 4    1  0.4111182E+000  0.2452510E+03  0.7546771E-02  0.1116343E+00
         21   -1    0    0  503  502  0.00000000000E+00  0.00000000000E+00  0.20436871828E+03  0.20436871828E+03  0.00000000000E+00 0.  1.
         21   -1    0    0  501  503 -0.00000000000E+00 -0.00000000000E+00 -0.30965850618E+03  0.30965850618E+03  0.00000000000E+00 0. -1.
          6    1    1    2  501    0  0.15902261077E+03  0.70220162966E+02 -0.10986209266E+03  0.26873358820E+03  0.17300000000E+03 0. -1.
         -6    1    1    2    0  502 -0.15902261077E+03 -0.70220162966E+02  0.45723047551E+01  0.24529363627E+03  0.17300000000E+03 0.  1.
<mgrwt>
<rscale>  2 0.24525102E+03</rscale>
<asrwt>0</asrwt>
<pdfrwt beam="1">  1       21 0.31441341E-01 0.24525102E+03</pdfrwt>
<pdfrwt beam="2">  1       21 0.47639770E-01 0.24525102E+03</pdfrwt>
<totfact> 0.39954075E+04</totfact>
</mgrwt>
</event>
<event>
 4    1  0.4111182E+000  0.2306023E+03  0.7546771E-02  0.1126217E+00
         21   -1    0    0  501  502  0.00000000000E+00  0.00000000000E+00  0.12442125518E+04  0.12442125518E+04  0.00000000000E+00 0.  1.
         21   -1    0    0  502  503 -0.00000000000E+00 -0.00000000000E+00 -0.40158275751E+03  0.40158275751E+03  0.00000000000E+00 0. -1.
          6    1    1    2  501    0  0.13867342815E+03  0.63388609673E+02  0.11991911081E+04  0.12211620488E+04  0.17300000000E+03 0.  1.
         -6    1    1    2    0  503 -0.13867342815E+03 -0.63388609673E+02 -0.35656131379E+03  0.42463326060E+03  0.17300000000E+03 0. -1.
<mgrwt>
<rscale>  2 0.23060233E+03</rscale>
<asrwt>0</asrwt>
<pdfrwt beam="1">  1       21 0.19141731E+00 0.23060233E+03</pdfrwt>
<pdfrwt beam="2">  1       21 0.61781963E-01 0.23060233E+03</pdfrwt>
<totfact> 0.35544339E+02</totfact>
</mgrwt>
</event>
<event>
 4    1  0.4111182E+000  0.2677299E+03  0.7546771E-02  0.1102586E+00
         21   -1    0    0  501  502  0.00000000000E+00  0.00000000000E+00  0.28036387685E+03  0.28036387685E+03  0.00000000000E+00 0. -1.
         21   -1    0    0  502  503 -0.00000000000E+00 -0.00000000000E+00 -0.27218216011E+03  0.27218216011E+03  0.00000000000E+00 0.  1.
          6    1    1    2  501    0 -0.20346258635E+03  0.18795245842E+02  0.72148009746E+02  0.27728076136E+03  0.17300000000E+03 0. -1.
         -6    1    1    2    0  503  0.20346258635E+03 -0.18795245842E+02 -0.63966293007E+02  0.27526527560E+03  0.17300000000E+03 0.  1.
<mgrwt>
<rscale>  2 0.26772987E+03</rscale>
<asrwt>0</asrwt>
<pdfrwt beam="1">  1       21 0.43132904E-01 0.26772987E+03</pdfrwt>
<pdfrwt beam="2">  1       21 0.41874178E-01 0.26772987E+03</pdfrwt>
<totfact> 0.27343532E+04</totfact>
</mgrwt>
</event>
<event>
 4    1  0.4111182E+000  0.1744925E+03  0.7546771E-02  0.1173242E+00
         21   -1    0    0  503  502  0.00000000000E+00  0.00000000000E+00  0.34896209267E+03  0.34896209267E+03  0.00000000000E+00 0. -1.
         21   -1    0    0  501  503 -0.00000000000E+00 -0.00000000000E+00 -0.17500046726E+03  0.17500046726E+03  0.00000000000E+00 0. -1.
          6    1    1    2  501    0  0.67577338345E+01 -0.21747812175E+02 -0.98530530148E+02  0.20038937016E+03  0.17300000000E+03 0. -1.
         -6    1    1    2    0  502 -0.67577338345E+01  0.21747812175E+02  0.27249215556E+03  0.32357318978E+03  0.17300000000E+03 0. -1.
<mgrwt>
<rscale>  2 0.17449250E+03</rscale>
<asrwt>0</asrwt>
<pdfrwt beam="1">  1       21 0.53686476E-01 0.17449250E+03</pdfrwt>
<pdfrwt beam="2">  1       21 0.26923149E-01 0.17449250E+03</pdfrwt>
<totfact> 0.43527068E+04</totfact>
</mgrwt>
</event>
<event>
 4    1  0.4111182E+000  0.2389194E+03  0.7546771E-02  0.1120515E+00
         21   -1    0    0  501  502  0.00000000000E+00  0.00000000000E+00  0.51228207110E+03  0.51228207110E+03  0.00000000000E+00 0. -1.
         21   -1    0    0  502  503 -0.00000000000E+00 -0.00000000000E+00 -0.11144162380E+03  0.11144162380E+03  0.00000000000E+00 0. -1.
          6    1    1    2  501    0  0.15332035046E+02 -0.16406836949E+03  0.19695593080E+03  0.30963549513E+03  0.17300000000E+03 0. -1.
         -6    1    1    2    0  503 -0.15332035046E+02  0.16406836949E+03  0.20388451650E+03  0.31408819977E+03  0.17300000000E+03 0. -1.
<mgrwt>
<rscale>  2 0.23891944E+03</rscale>
<asrwt>0</asrwt>
<pdfrwt beam="1">  1       21 0.78812625E-01 0.23891944E+03</pdfrwt>
<pdfrwt beam="2">  1       21 0.17144865E-01 0.23891944E+03</pdfrwt>
<totfact> 0.42726952E+04</totfact>
</mgrwt>
</event>
<event>
 4    1  0.4111182E+000  0.1831537E+03  0.7546771E-02  0.1164785E+00
         21   -1    0    0  501  502  0.00000000000E+00  0.00000000000E+00  0.58188944151E+03  0.58188944151E+03  0.00000000000E+00 0.  1.
         21   -1    0    0  502  503 -0.00000000000E+00 -0.00000000000E+00 -0.60406968502E+02  0.60406968502E+02  0.00000000000E+00 0. -1.
          6    1    1    2  501    0 -0.28950798340E+02  0.52708032384E+02  0.32936343280E+03  0.37686278175E+03  0.17300000000E+03 0.  1.
         -6    1    1    2    0  503  0.28950798340E+02 -0.52708032384E+02  0.19211904021E+03  0.26543362826E+03  0.17300000000E+03 0. -1.
<mgrwt>
<rscale>  2 0.18315372E+03</rscale>
<asrwt>0</asrwt>
<pdfrwt beam="1">  1       21 0.89521449E-01 0.18315372E+03</pdfrwt>
<pdfrwt beam="2">  1       21 0.92933801E-02 0.18315372E+03</pdfrwt>
<totfact> 0.98581296E+04</totfact>
</mgrwt>
</event>
<event>
 4    1  0.4111182E+000  0.2805329E+03  0.7546771E-02  0.1095398E+00
         21   -1    0    0  503  502  0.00000000000E+00  0.00000000000E+00  0.29001859594E+02  0.29001859594E+02  0.00000000000E+00 0.  1.
         21   -1    0    0  501  503 -0.00000000000E+00 -0.00000000000E+00 -0.27197467337E+04  0.27197467337E+04  0.00000000000E+00 0.  1.
          6    1    1    2  501    0  0.11369505283E+02  0.22054584517E+03 -0.14108401254E+04  0.14384604947E+04  0.17300000000E+03 0.  1.
         -6    1    1    2    0  502 -0.11369505283E+02 -0.22054584517E+03 -0.12799047487E+04  0.13102880986E+04  0.17300000000E+03 0.  1.
<mgrwt>
<rscale>  2 0.28053295E+03</rscale>
<asrwt>0</asrwt>
<pdfrwt beam="1">  1       21 0.44618228E-02 0.28053295E+03</pdfrwt>
<pdfrwt beam="2">  1       21 0.41842274E+00 0.28053295E+03</pdfrwt>
<totfact> 0.19541060E+03</totfact>
</mgrwt>
</event>
<event>
 4    1  0.4111182E+000  0.2181602E+03  0.7546771E-02  0.1135262E+00
         21   -1    0    0  501  502  0.00000000000E+00  0.00000000000E+00  0.92190169635E+03  0.92190169635E+03  0.00000000000E+00 0. -1.
         21   -1    0    0  502  503 -0.00000000000E+00 -0.00000000000E+00 -0.58035360044E+02  0.58035360044E+02  0.00000000000E+00 0.  1.
          6    1    1    2  501    0 -0.39400829811E+02 -0.12693480340E+03  0.59476433313E+03  0.63351281098E+03  0.17300000000E+03 0.  1.
         -6    1    1    2    0  503  0.39400829811E+02  0.12693480340E+03  0.26910200318E+03  0.34642424542E+03  0.17300000000E+03 0.  1.
<mgrwt>
<rscale>  2 0.21816019E+03</rscale>
<asrwt>0</asrwt>
<pdfrwt beam="1">  1       21 0.14183102E+00 0.21816019E+03</pdfrwt>
<pdfrwt beam="2">  1       21 0.89285176E-02 0.21816019E+03</pdfrwt>
<totfact> 0.33764697E+04</totfact>
</mgrwt>
</event>
<event>
 4    1  0.4111182E+000  0.2520620E+03  0.7546771E-02  0.1112009E+00
         21   -1    0    0  501  502  0.00000000000E+00  0.00000000000E+00  0.37684147123E+03  0.37684147123E+03  0.00000000000E+00 0. -1.
         21   -1    0    0  502  503 -0.00000000000E+00 -0.00000000000E+00 -0.47374290028E+03  0.47374290028E+03  0.00000000000E+00 0. -1.
          6    1    1    2  501    0  0.10897589569E+03  0.14741277884E+03  0.29287425196E+03  0.38640729893E+03  0.17300000000E+03 0. -1.
         -6    1    1    2    0  503 -0.10897589569E+03 -0.14741277884E+03 -0.38977568100E+03  0.46417707258E+03  0.17300000000E+03 0. -1.
<mgrwt>
<rscale>  2 0.25206204E+03</rscale>
<asrwt>0</asrwt>
<pdfrwt beam="1">  1       21 0.57975611E-01 0.25206204E+03</pdfrwt>
<pdfrwt beam="2">  1       21 0.72883523E-01 0.25206204E+03</pdfrwt>
<totfact> 0.45304671E+03</totfact>
</mgrwt>
</event>
<event>
 4    1  0.4111182E+000  0.2045031E+03  0.7546771E-02  0.1145994E+00
         21   -1    0    0  501  502  0.00000000000E+00  0.00000000000E+00  0.11038710917E+03  0.11038710917E+03  0.00000000000E+00 0. -1.
         21   -1    0    0  502  503 -0.00000000000E+00 -0.00000000000E+00 -0.40116634549E+03  0.40116634549E+03  0.00000000000E+00 0. -1.
          6    1    1    2  501    0 -0.10335312794E+03  0.34794159293E+02 -0.85079300617E+02  0.22149489829E+03  0.17300000000E+03 0. -1.
         -6    1    1    2    0  503  0.10335312794E+03 -0.34794159293E+02 -0.20569993570E+03  0.29005855637E+03  0.17300000000E+03 0. -1.
<mgrwt>
<rscale>  2 0.20450306E+03</rscale>
<asrwt>0</asrwt>
<pdfrwt beam="1">  1       21 0.16982632E-01 0.20450306E+03</pdfrwt>
<pdfrwt beam="2">  1       21 0.61717899E-01 0.20450306E+03</pdfrwt>
<totfact> 0.75817672E+04</totfact>
</mgrwt>
</event>
<event>
 4    1  0.4111182E+000  0.1969807E+03  0.7546771E-02  0.1152312E+00
         21   -1    0    0  503  502  0.00000000000E+00  0.00000000000E+00  0.20199579268E+03  0.20199579268E+03  0.00000000000E+00 0.  1.
         21   -1    0    0  501  503 -0.00000000000E+00 -0.00000000000E+00 -0.22502875832E+03  0.22502875832E+03  0.00000000000E+00 0.  1.
          6    1    1    2  501    0  0.60334577321E+02  0.72333369371E+02 -0.93204294507E+02  0.21791837476E+03  0.17300000000E+03 0.  1.
         -6    1    1    2    0  502 -0.60334577321E+02 -0.72333369371E+02  0.70171328870E+02  0.20910617624E+03  0.17300000000E+03 0.  1.
<mgrwt>
<rscale>  2 0.19698065E+03</rscale>
<asrwt>0</asrwt>
<pdfrwt beam="1">  1       21 0.31076276E-01 0.19698065E+03</pdfrwt>
<pdfrwt beam="2">  1       21 0.34619809E-01 0.19698065E+03</pdfrwt>
<totfact> 0.79847139E+04</totfact>
</mgrwt>
</event>
<event>
 4    1  0.4111182E+000  0.2155726E+03  0.7546771E-02  0.1137228E+00
         21   -1    0    0  503  502  0.00000000000E+00  0.00000000000E+00  0.13286712482E+04  0.13286712482E+04  0.00000000000E+00 0. -1.
         21   -1    0    0  501  503 -0.00000000000E+00 -0.00000000000E+00 -0.43301643367E+03  0.43301643367E+03  0.00000000000E+00 0. -1.
          6    1    1    2  501    0  0.11437415716E+03  0.58830930238E+02 -0.39669341241E+03  0.45148332154E+03  0.17300000000E+03 0. -1.
         -6    1    1    2    0  502 -0.11437415716E+03 -0.58830930238E+02  0.12923482269E+04  0.13102043603E+04  0.17300000000E+03 0. -1.
<mgrwt>
<rscale>  2 0.21557255E+03</rscale>
<asrwt>0</asrwt>
<pdfrwt beam="1">  1       21 0.20441096E+00 0.21557255E+03</pdfrwt>
<pdfrwt beam="2">  1       21 0.66617913E-01 0.21557255E+03</pdfrwt>
<totfact> 0.25255717E+02</totfact>
</mgrwt>
</event>
<event>
 4    1  0.4111182E+000  0.2088210E+03  0.7546771E-02  0.1142503E+00
         21   -1    0    0  503  502  0.00000000000E+00  0.00000000000E+00  0.79218220866E+02  0.79218220866E+02  0.00000000000E+00 0.  1.
         21   -1    0    0  501  503 -0.00000000000E+00 -0.00000000000E+00 -0.66934396006E+03  0.66934396006E+03  0.00000000000E+00 0. -1.
          6    1    1    2  501    0  0.11676602850E+03 -0.65512880573E+01 -0.45280231495E+03  0.49863429607E+03  0.17300000000E+03 0. -1.
         -6    1    1    2    0  502 -0.11676602850E+03  0.65512880573E+01 -0.13732342424E+03  0.24992788486E+03  0.17300000000E+03 0.  1.
<mgrwt>
<rscale>  2 0.20882104E+03</rscale>
<asrwt>0</asrwt>
<pdfrwt beam="1">  1       21 0.12187419E-01 0.20882104E+03</pdfrwt>
<pdfrwt beam="2">  1       21 0.10297599E+00 0.20882104E+03</pdfrwt>
<totfact> 0.43320718E+04</totfact>
</mgrwt>
</event>
<event>
 4    1  0.4111182E+000  0.2519979E+03  0.7546771E-02  0.1112049E+00
         21   -1    0    0  501  502  0.00000000000E+00  0.00000000000E+00  0.18749025769E+03  0.18749025769E+03  0.00000000000E+00 0.  1.
         21   -1    0    0  502  503 -0.00000000000E+00 -0.00000000000E+00 -0.38208106758E+03  0.38208106758E+03  0.00000000000E+00 0. -1.
          6    1    1    2  501    0 -0.16021190779E+02  0.18253012515E+03 -0.13352035387E+01  0.25200140458E+03  0.17300000000E+03 0.  1.
         -6    1    1    2    0  503  0.16021190779E+02 -0.18253012515E+03 -0.19325560636E+03  0.31756992069E+03  0.17300000000E+03 0. -1.
<mgrwt>
<rscale>  2 0.25199787E+03</rscale>
<asrwt>0</asrwt>
<pdfrwt beam="1">  1       21 0.28844655E-01 0.25199787E+03</pdfrwt>
<pdfrwt beam="2">  1       21 0.58781702E-01 0.25199787E+03</pdfrwt>
<totfact> 0.30235048E+04</totfact>
</mgrwt>
</event>
<event>
 4    1  0.4111182E+000  0.2448329E+03  0.7546771E-02  0.1116615E+00
         21   -1    0    0  501  502  0.00000000000E+00  0.00000000000E+00  0.18178571358E+03  0.18178571358E+03  0.00000000000E+00 0.  1.
         21   -1    0    0  502  503 -0.00000000000E+00 -0.00000000000E+00 -0.46703422772E+03  0.46703422772E+03  0.00000000000E+00 0. -1.
          6    1    1    2  501    0  0.17178290886E+03  0.22467077215E+02  0.33263765657E+02  0.24708220382E+03  0.17300000000E+03 0.  1.
         -6    1    1    2    0  503 -0.17178290886E+03 -0.22467077215E+02 -0.31851227979E+03  0.40173773748E+03  0.17300000000E+03 0. -1.
<mgrwt>
<rscale>  2 0.24483288E+03</rscale>
<asrwt>0</asrwt>
<pdfrwt beam="1">  1       21 0.27967033E-01 0.24483288E+03</pdfrwt>
<pdfrwt beam="2">  1       21 0.71851418E-01 0.24483288E+03</pdfrwt>
<totfact> 0.20751893E+04</totfact>
</mgrwt>
</event>
<event>
 4    1  0.4111182E+000  0.2219208E+03  0.7546771E-02  0.1132459E+00
         21   -1    0    0  503  502  0.00000000000E+00  0.00000000000E+00  0.17397797511E+04  0.17397797511E+04  0.00000000000E+00 0.  1.
         21   -1    0    0  501  503 -0.00000000000E+00 -0.00000000000E+00 -0.21695376799E+03  0.21695376799E+03  0.00000000000E+00 0.  1.
          6    1    1    2  501    0 -0.12995325027E+03 -0.49315317486E+02 -0.15089646753E+03  0.26836279867E+03  0.17300000000E+03 0.  1.
         -6    1    1    2    0  502  0.12995325027E+03  0.49315317486E+02  0.16737224507E+04  0.16883707205E+04  0.17300000000E+03 0.  1.
<mgrwt>
<rscale>  2 0.22192081E+03</rscale>
<asrwt>0</asrwt>
<pdfrwt beam="1">  1       21 0.26765841E+00 0.22192081E+03</pdfrwt>
<pdfrwt beam="2">  1       21 0.33377504E-01 0.22192081E+03</pdfrwt>
<totfact> 0.43647887E+02</totfact>
</mgrwt>
</event>
<event>
 4    1  0.4111182E+000  0.2295118E+03  0.7546771E-02  0.1126984E+00
         21   -1    0    0  503  502  0.00000000000E+00  0.00000000000E+00  0.11958267545E+03  0.11958267545E+03  0.00000000000E+00 0.  1.
         21   -1    0    0  501  503 -0.00000000000E+00 -0.00000000000E+00 -0.44323015386E+03  0.44323015386E+03  0.00000000000E+00 0. -1.
          6    1    1    2  501    0 -0.15053812359E+03 -0.92171985292E+01 -0.13972154768E+03  0.26869647241E+03  0.17300000000E+03 0.  1.
         -6    1    1    2    0  502  0.15053812359E+03  0.92171985292E+01 -0.18392593073E+03  0.29411635690E+03  0.17300000000E+03 0. -1.
<mgrwt>
<rscale>  2 0.22951184E+03</rscale>
<asrwt>0</asrwt>
<pdfrwt beam="1">  1       21 0.18397335E-01 0.22951184E+03</pdfrwt>
<pdfrwt beam="2">  1       21 0.68189255E-01 0.22951184E+03</pdfrwt>
<totfact> 0.52025055E+04</totfact>
</mgrwt>
</event>
<event>
 4    1  0.4111182E+000  0.2019255E+03  0.7546771E-02  0.1148125E+00
         21   -1    0    0  501  502  0.00000000000E+00  0.00000000000E+00  0.32176009197E+03  0.32176009197E+03  0.00000000000E+00 0. -1.
         21   -1    0    0  502  503 -0.00000000000E+00 -0.00000000000E+00 -0.13918309503E+03  0.13918309503E+03  0.00000000000E+00 0. -1.
          6    1    1    2  501    0 -0.33547344955E+02 -0.98587350258E+02  0.16025094862E+03  0.25778723110E+03  0.17300000000E+03 0. -1.
         -6    1    1    2    0  503  0.33547344955E+02  0.98587350258E+02  0.22326048324E+02  0.20315595590E+03  0.17300000000E+03 0. -1.
<mgrwt>
<rscale>  2 0.20192546E+03</rscale>
<asrwt>0</asrwt>
<pdfrwt beam="1">  1       21 0.49501552E-01 0.20192546E+03</pdfrwt>
<pdfrwt beam="2">  1       21 0.21412784E-01 0.20192546E+03</pdfrwt>
<totfact> 0.78711066E+04</totfact>
</mgrwt>
</event>
<event>
 4    1  0.4111182E+000  0.2119587E+03  0.7546771E-02  0.1140024E+00
         21   -1    0    0  501  502  0.00000000000E+00  0.00000000000E+00  0.19233960189E+03  0.19233960189E+03  0.00000000000E+00 0. -1.
         21   -1    0    0  502  503 -0.00000000000E+00 -0.00000000000E+00 -0.14253080908E+04  0.14253080908E+04  0.00000000000E+00 0. -1.
          6    1    1    2  501    0  0.11736532965E+03 -0.34969611556E+02  0.12310117356E+03  0.24511302142E+03  0.17300000000E+03 0. -1.
         -6    1    1    2    0  503 -0.11736532965E+03  0.34969611556E+02 -0.13560696625E+04  0.13725346713E+04  0.17300000000E+03 0. -1.
<mgrwt>
<rscale>  2 0.21195871E+03</rscale>
<asrwt>0</asrwt>
<pdfrwt beam="1">  1       21 0.29590707E-01 0.21195871E+03</pdfrwt>
<pdfrwt beam="2">  1       21 0.21927817E+00 0.21195871E+03</pdfrwt>
<totfact> 0.10886244E+03</totfact>
</mgrwt>
</event>
<event>
 4    1  0.4111182E+000  0.2000576E+03  0.7546771E-02  0.1149690E+00
         21   -1    0    0  503  502  0.00000000000E+00  0.00000000000E+00  0.28286221675E+02  0.28286221675E+02  0.00000000000E+00 0. -1.
         21   -1    0    0  501  503 -0.00000000000E+00 -0.00000000000E+00 -0.19854951952E+04  0.19854951952E+04  0.00000000000E+00 0. -1.
          6    1    1    2  501    0  0.98497731533E+02 -0.19805430102E+02 -0.15183637274E+04  0.15314866852E+04  0.17300000000E+03 0. -1.
         -6    1    1    2    0  502 -0.98497731533E+02  0.19805430102E+02 -0.43884524610E+03  0.48229473167E+03  0.17300000000E+03 0. -1.
<mgrwt>
<rscale>  2 0.20005764E+03</rscale>
<asrwt>0</asrwt>
<pdfrwt beam="1">  1       21 0.43517248E-02 0.20005764E+03</pdfrwt>
<pdfrwt beam="2">  1       21 0.30546091E+00 0.20005764E+03</pdfrwt>
<totfact> 0.10714340E+04</totfact>
</mgrwt>
</event>
<event>
 4    1  0.4111182E+000  0.2488636E+03  0.7546771E-02  0.1114025E+00
         21   -1    0    0  501  502  0.00000000000E+00  0.00000000000E+00  0.27904560580E+03  0.27904560580E+03  0.00000000000E+00 0.  1.
         21   -1    0    0  502  503 -0.00000000000E+00 -0.00000000000E+00 -0.36357710389E+03  0.36357710389E+03  0.00000000000E+00 0.  1.
          6    1    1    2  501    0  0.12864845054E+03  0.12431281929E+03  0.15827696312E+03  0.29493168348E+03  0.17300000000E+03 0.  1.
         -6    1    1    2    0  503 -0.12864845054E+03 -0.12431281929E+03 -0.24280846122E+03  0.34769102621E+03  0.17300000000E+03 0.  1.
<mgrwt>
<rscale>  2 0.24886362E+03</rscale>
<asrwt>0</asrwt>
<pdfrwt beam="1">  1       21 0.42930093E-01 0.24886362E+03</pdfrwt>
<pdfrwt beam="2">  1       21 0.55934939E-01 0.24886362E+03</pdfrwt>
<totfact> 0.15204029E+04</totfact>
</mgrwt>
</event>
<event>
 4    1  0.4111182E+000  0.2144388E+03  0.7546771E-02  0.1138098E+00
         21   -1    0    0  503  502  0.00000000000E+00  0.00000000000E+00  0.35608306296E+03  0.35608306296E+03  0.00000000000E+00 0.  1.
         21   -1    0    0  501  503 -0.00000000000E+00 -0.00000000000E+00 -0.54370895595E+03  0.54370895595E+03  0.00000000000E+00 0. -1.
          6    1    1    2  501    0  0.11803072430E+03  0.46084295751E+02 -0.48666416032E+03  0.53181389521E+03  0.17300000000E+03 0. -1.
         -6    1    1    2    0  502 -0.11803072430E+03 -0.46084295751E+02  0.29903826733E+03  0.36797812370E+03  0.17300000000E+03 0.  1.
<mgrwt>
<rscale>  2 0.21443884E+03</rscale>
<asrwt>0</asrwt>
<pdfrwt beam="1">  1       21 0.54782010E-01 0.21443884E+03</pdfrwt>
<pdfrwt beam="2">  1       21 0.83647531E-01 0.21443884E+03</pdfrwt>
<totfact> 0.38424418E+03</totfact>
</mgrwt>
</event>
<event>
 4    1  0.4111182E+000  0.3117832E+03  0.7546771E-02  0.1079494E+00
         21   -1    0    0  501  502  0.00000000000E+00  0.00000000000E+00  0.14660682693E+04  0.14660682693E+04  0.00000000000E+00 0.  1.
         21   -1    0    0  502  503 -0.00000000000E+00 -0.00000000000E+00 -0.66512913570E+02  0.66512913570E+02  0.00000000000E+00 0. -1.
          6    1    1    2  501    0  0.24077524338E+03 -0.96472885066E+02  0.65701035656E+03  0.72723541169E+03  0.17300000000E+03 0. -1.
         -6    1    1    2    0  503 -0.24077524338E+03  0.96472885066E+02  0.74254499920E+03  0.80534577122E+03  0.17300000000E+03 0.  1.
<mgrwt>
<rscale>  2 0.31178315E+03</rscale>
<asrwt>0</asrwt>
<pdfrwt beam="1">  1       21 0.22554894E+00 0.31178315E+03</pdfrwt>
<pdfrwt beam="2">  1       21 0.10232757E-01 0.31178315E+03</pdfrwt>
<totfact> 0.66342468E+03</totfact>
</mgrwt>
</event>
<event>
 4    1  0.4111182E+000  0.1871928E+03  0.7546771E-02  0.1161018E+00
         21   -1    0    0  503  502  0.00000000000E+00  0.00000000000E+00  0.19214259461E+03  0.19214259461E+03  0.00000000000E+00 0.  1.
         21   -1    0    0  501  503 -0.00000000000E+00 -0.00000000000E+00 -0.19037210744E+03  0.19037210744E+03  0.00000000000E+00 0.  1.
          6    1    1    2  501    0 -0.35611728736E+02  0.61999523232E+02 -0.38325564864E+02  0.19107586197E+03  0.17300000000E+03 0.  1.
         -6    1    1    2    0  502  0.35611728736E+02 -0.61999523232E+02  0.40096052029E+02  0.19143884008E+03  0.17300000000E+03 0.  1.
<mgrwt>
<rscale>  2 0.18719278E+03</rscale>
<asrwt>0</asrwt>
<pdfrwt beam="1">  1       21 0.29560399E-01 0.18719278E+03</pdfrwt>
<pdfrwt beam="2">  1       21 0.29288016E-01 0.18719278E+03</pdfrwt>
<totfact> 0.12269192E+05</totfact>
</mgrwt>
</event>
<event>
 4    1  0.4111182E+000  0.2170769E+03  0.7546771E-02  0.1136081E+00
         21   -1    0    0  503  502  0.00000000000E+00  0.00000000000E+00  0.46828809907E+03  0.46828809907E+03  0.00000000000E+00 0.  1.
         21   -1    0    0  501  503 -0.00000000000E+00 -0.00000000000E+00 -0.10085001616E+03  0.10085001616E+03  0.00000000000E+00 0.  1.
          6    1    1    2  501    0  0.61098210810E+02  0.11601886475E+03  0.17033341065E+03  0.27592723520E+03  0.17300000000E+03 0.  1.
         -6    1    1    2    0  502 -0.61098210810E+02 -0.11601886475E+03  0.19710467227E+03  0.29321088004E+03  0.17300000000E+03 0.  1.
<mgrwt>
<rscale>  2 0.21707687E+03</rscale>
<asrwt>0</asrwt>
<pdfrwt beam="1">  1       21 0.72044322E-01 0.21707687E+03</pdfrwt>
<pdfrwt beam="2">  1       21 0.15515387E-01 0.21707687E+03</pdfrwt>
<totfact> 0.63418779E+04</totfact>
</mgrwt>
</event>
<event>
 4    1  0.4111182E+000  0.2385240E+03  0.7546771E-02  0.1120780E+00
         21   -1    0    0  503  502  0.00000000000E+00  0.00000000000E+00  0.13457059752E+04  0.13457059752E+04  0.00000000000E+00 0.  1.
         21   -1    0    0  501  503 -0.00000000000E+00 -0.00000000000E+00 -0.76472836976E+02  0.76472836976E+02  0.00000000000E+00 0. -1.
          6    1    1    2  501    0  0.11808057181E+03 -0.11411262676E+03  0.15911595199E+03  0.28672565145E+03  0.17300000000E+03 0. -1.
         -6    1    1    2    0  502 -0.11808057181E+03  0.11411262676E+03  0.11101171862E+04  0.11354531607E+04  0.17300000000E+03 0.  1.
<mgrwt>
<rscale>  2 0.23852403E+03</rscale>
<asrwt>0</asrwt>
<pdfrwt beam="1">  1       21 0.20703167E+00 0.23852403E+03</pdfrwt>
<pdfrwt beam="2">  1       21 0.11765053E-01 0.23852403E+03</pdfrwt>
<totfact> 0.70898579E+03</totfact>
</mgrwt>
</event>
<event>
 4    1  0.4111182E+000  0.2077568E+03  0.7546771E-02  0.1143355E+00
         21   -1    0    0  501  502  0.00000000000E+00  0.00000000000E+00  0.64127034713E+03  0.64127034713E+03  0.00000000000E+00 0. -1.
         21   -1    0    0  502  503 -0.00000000000E+00 -0.00000000000E+00 -0.67405794118E+02  0.67405794118E+02  0.00000000000E+00 0. -1.
          6    1    1    2  501    0 -0.10424542522E+03 -0.48649552967E+02  0.27346398696E+03  0.34343185619E+03  0.17300000000E+03 0. -1.
         -6    1    1    2    0  503  0.10424542522E+03  0.48649552967E+02  0.30040056605E+03  0.36524428505E+03  0.17300000000E+03 0. -1.
<mgrwt>
<rscale>  2 0.20775680E+03</rscale>
<asrwt>0</asrwt>
<pdfrwt beam="1">  1       21 0.98656973E-01 0.20775680E+03</pdfrwt>
<pdfrwt beam="2">  1       21 0.10370123E-01 0.20775680E+03</pdfrwt>
<totfact> 0.64032765E+04</totfact>
</mgrwt>
</event>
<event>
 4    1  0.4111182E+000  0.1839156E+03  0.7546771E-02  0.1164066E+00
         21   -1    0    0  501  502  0.00000000000E+00  0.00000000000E+00  0.24979138153E+03  0.24979138153E+03  0.00000000000E+00 0. -1.
         21   -1    0    0  502  503 -0.00000000000E+00 -0.00000000000E+00 -0.14454321927E+03  0.14454321927E+03  0.00000000000E+00 0. -1.
          6    1    1    2  501    0 -0.61342781343E+02  0.11533460330E+02  0.10217830851E+03  0.21039335603E+03  0.17300000000E+03 0. -1.
         -6    1    1    2    0  503  0.61342781343E+02 -0.11533460330E+02  0.30698537500E+01  0.18394124478E+03  0.17300000000E+03 0. -1.
<mgrwt>
<rscale>  2 0.18391563E+03</rscale>
<asrwt>0</asrwt>
<pdfrwt beam="1">  1       21 0.38429443E-01 0.18391563E+03</pdfrwt>
<pdfrwt beam="2">  1       21 0.22237418E-01 0.18391563E+03</pdfrwt>
<totfact> 0.12389080E+05</totfact>
</mgrwt>
</event>
<event>
 4    1  0.4111182E+000  0.2351626E+03  0.7546771E-02  0.1123058E+00
         21   -1    0    0  501  502  0.00000000000E+00  0.00000000000E+00  0.22684309939E+03  0.22684309939E+03  0.00000000000E+00 0.  1.
         21   -1    0    0  502  503 -0.00000000000E+00 -0.00000000000E+00 -0.34434781993E+03  0.34434781993E+03  0.00000000000E+00 0.  1.
          6    1    1    2  501    0 -0.15289049168E+03 -0.44686971825E+02  0.95583467155E+02  0.25384567573E+03  0.17300000000E+03 0.  1.
         -6    1    1    2    0  503  0.15289049168E+03  0.44686971825E+02 -0.21308818769E+03  0.31734524359E+03  0.17300000000E+03 0.  1.
<mgrwt>
<rscale>  2 0.23516256E+03</rscale>
<asrwt>0</asrwt>
<pdfrwt beam="1">  1       21 0.34898939E-01 0.23516256E+03</pdfrwt>
<pdfrwt beam="2">  1       21 0.52976587E-01 0.23516256E+03</pdfrwt>
<totfact> 0.26119548E+04</totfact>
</mgrwt>
</event>
<event>
 4    1  0.4111182E+000  0.2641501E+03  0.7546771E-02  0.1104675E+00
         21   -1    0    0  501  502  0.00000000000E+00  0.00000000000E+00  0.20764775310E+03  0.20764775310E+03  0.00000000000E+00 0. -1.
         21   -1    0    0  502  503 -0.00000000000E+00 -0.00000000000E+00 -0.36503369104E+03  0.36503369104E+03  0.00000000000E+00 0. -1.
          6    1    1    2  501    0  0.26205428112E+02 -0.19788777753E+03  0.20238610668E+01  0.26415789402E+03  0.17300000000E+03 0. -1.
         -6    1    1    2    0  503 -0.26205428112E+02  0.19788777753E+03 -0.15940979900E+03  0.30852355012E+03  0.17300000000E+03 0. -1.
<mgrwt>
<rscale>  2 0.26415014E+03</rscale>
<asrwt>0</asrwt>
<pdfrwt beam="1">  1       21 0.31945808E-01 0.26415014E+03</pdfrwt>
<pdfrwt beam="2">  1       21 0.56159029E-01 0.26415014E+03</pdfrwt>
<totfact> 0.27140866E+04</totfact>
</mgrwt>
</event>
<event>
 4    1  0.4111182E+000  0.1787370E+03  0.7546771E-02  0.1169031E+00
         21   -1    0    0  501  502  0.00000000000E+00  0.00000000000E+00  0.16314339586E+03  0.16314339586E+03  0.00000000000E+00 0.  1.
         21   -1    0    0  502  503 -0.00000000000E+00 -0.00000000000E+00 -0.30113261632E+03  0.30113261632E+03  0.00000000000E+00 0.  1.
          6    1    1    2  501    0  0.42418143895E+02  0.14785545330E+02  0.68284793633E+02  0.19133667794E+03  0.17300000000E+03 0.  1.
         -6    1    1    2    0  503 -0.42418143895E+02 -0.14785545330E+02 -0.20627401409E+03  0.27293933424E+03  0.17300000000E+03 0.  1.
<mgrwt>
<rscale>  2 0.17873699E+03</rscale>
<asrwt>0</asrwt>
<pdfrwt beam="1">  1       21 0.25098984E-01 0.17873699E+03</pdfrwt>
<pdfrwt beam="2">  1       21 0.46328095E-01 0.17873699E+03</pdfrwt>
<totfact> 0.67500763E+04</totfact>
</mgrwt>
</event>
<event>
 4    1  0.4111182E+000  0.2251484E+03  0.7546771E-02  0.1130102E+00
         21   -1    0    0  503  502  0.00000000000E+00  0.00000000000E+00  0.59283618987E+03  0.59283618987E+03  0.00000000000E+00 0.  1.
         21   -1    0    0  501  503 -0.00000000000E+00 -0.00000000000E+00 -0.99244564552E+02  0.99244564552E+02  0.00000000000E+00 0.  1.
          6    1    1    2  501    0  0.11767415104E+03 -0.83160032909E+02  0.11805263917E+03  0.25422081447E+03  0.17300000000E+03 0.  1.
         -6    1    1    2    0  502 -0.11767415104E+03  0.83160032909E+02  0.37553898615E+03  0.43785993995E+03  0.17300000000E+03 0.  1.
<mgrwt>
<rscale>  2 0.22514839E+03</rscale>
<asrwt>0</asrwt>
<pdfrwt beam="1">  1       21 0.91205566E-01 0.22514839E+03</pdfrwt>
<pdfrwt beam="2">  1       21 0.15268395E-01 0.22514839E+03</pdfrwt>
<totfact> 0.38044978E+04</totfact>
</mgrwt>
</event>
<event>
 4    1  0.4111182E+000  0.1736628E+03  0.7546771E-02  0.1174081E+00
         21   -1    0    0  503  502  0.00000000000E+00  0.00000000000E+00  0.10770146161E+03  0.10770146161E+03  0.00000000000E+00 0. -1.
         21   -1    0    0  501  503 -0.00000000000E+00 -0.00000000000E+00 -0.36486550448E+03  0.36486550448E+03  0.00000000000E+00 0. -1.
          6    1    1    2  501    0  0.12448773852E+02 -0.86476551447E+01 -0.24252218784E+03  0.29828805793E+03  0.17300000000E+03 0. -1.
         -6    1    1    2    0  502 -0.12448773852E+02  0.86476551447E+01 -0.14641855024E+02  0.17427890816E+03  0.17300000000E+03 0. -1.
<mgrwt>
<rscale>  2 0.17366276E+03</rscale>
<asrwt>0</asrwt>
<pdfrwt beam="1">  1       21 0.16569455E-01 0.17366276E+03</pdfrwt>
<pdfrwt beam="2">  1       21 0.56133156E-01 0.17366276E+03</pdfrwt>
<totfact> 0.98415101E+04</totfact>
</mgrwt>
</event>
<event>
 4    1  0.4111182E+000  0.2695698E+03  0.7546771E-02  0.1101526E+00
         21   -1    0    0  501  502  0.00000000000E+00  0.00000000000E+00  0.26079286643E+03  0.26079286643E+03  0.00000000000E+00 0.  1.
         21   -1    0    0  502  503 -0.00000000000E+00 -0.00000000000E+00 -0.39058740375E+03  0.39058740375E+03  0.00000000000E+00 0.  1.
          6    1    1    2  501    0  0.16183918548E+03 -0.12863500587E+03  0.10946331641E+03  0.29094690981E+03  0.17300000000E+03 0.  1.
         -6    1    1    2    0  503 -0.16183918548E+03  0.12863500587E+03 -0.23925785373E+03  0.36043336036E+03  0.17300000000E+03 0.  1.
<mgrwt>
<rscale>  2 0.26956982E+03</rscale>
<asrwt>0</asrwt>
<pdfrwt beam="1">  1       21 0.40121980E-01 0.26956982E+03</pdfrwt>
<pdfrwt beam="2">  1       21 0.60090369E-01 0.26956982E+03</pdfrwt>
<totfact> 0.14815321E+04</totfact>
</mgrwt>
</event>
<event>
 4    1  0.4111182E+000  0.2161173E+03  0.7546771E-02  0.1136811E+00
         21   -1    0    0  501  502  0.00000000000E+00  0.00000000000E+00  0.12738445740E+03  0.12738445740E+03  0.00000000000E+00 0. -1.
         21   -1    0    0  502  503 -0.00000000000E+00 -0.00000000000E+00 -0.57207039867E+03  0.57207039867E+03  0.00000000000E+00 0. -1.
          6    1    1    2  501    0 -0.72106123359E+02  0.10760296123E+03 -0.12778837175E+02  0.21649477816E+03  0.17300000000E+03 0. -1.
         -6    1    1    2    0  503  0.72106123359E+02 -0.10760296123E+03 -0.43190710409E+03  0.48296007791E+03  0.17300000000E+03 0. -1.
<mgrwt>
<rscale>  2 0.21611731E+03</rscale>
<asrwt>0</asrwt>
<pdfrwt beam="1">  1       21 0.19597609E-01 0.21611731E+03</pdfrwt>
<pdfrwt beam="2">  1       21 0.88010831E-01 0.21611731E+03</pdfrwt>
<totfact> 0.26171021E+04</totfact>
</mgrwt>
</event>
<event>
 4    1  0.4111182E+000  0.1963194E+03  0.7546771E-02  0.1152882E+00
         21   -1    0    0  501  502  0.00000000000E+00  0.00000000000E+00  0.40579592070E+03  0.40579592070E+03  0.00000000000E+00 0.  1.
         21   -1    0    0  502  503 -0.00000000000E+00 -0.00000000000E+00 -0.31365725005E+03  0.31365725005E+03  0.00000000000E+00 0.  1.
          6    1    1    2  501    0 -0.11057641845E+02  0.92141403043E+02  0.34643450912E+03  0.39819364473E+03  0.17300000000E+03 0.  1.
         -6    1    1    2    0  503  0.11057641845E+02 -0.92141403043E+02 -0.25429583847E+03  0.32125952602E+03  0.17300000000E+03 0.  1.
<mgrwt>
<rscale>  2 0.19631941E+03</rscale>
<asrwt>0</asrwt>
<pdfrwt beam="1">  1       21 0.62430142E-01 0.19631941E+03</pdfrwt>
<pdfrwt beam="2">  1       21 0.48254962E-01 0.19631941E+03</pdfrwt>
<totfact> 0.97345244E+03</totfact>
</mgrwt>
</event>
<event>
 4    1  0.4111182E+000  0.1847609E+03  0.7546771E-02  0.1163273E+00
         21   -1    0    0  501  502  0.00000000000E+00  0.00000000000E+00  0.41929227455E+03  0.41929227455E+03  0.00000000000E+00 0.  1.
         21   -1    0    0  502  503 -0.00000000000E+00 -0.00000000000E+00 -0.98017766366E+02  0.98017766366E+02  0.00000000000E+00 0.  1.
          6    1    1    2  501    0  0.64732167961E+02 -0.41647911005E+01  0.26709108173E+03  0.32476798640E+03  0.17300000000E+03 0.  1.
         -6    1    1    2    0  503 -0.64732167961E+02  0.41647911005E+01  0.54183426458E+02  0.19254205451E+03  0.17300000000E+03 0.  1.
<mgrwt>
<rscale>  2 0.18476092E+03</rscale>
<asrwt>0</asrwt>
<pdfrwt beam="1">  1       21 0.64506502E-01 0.18476092E+03</pdfrwt>
<pdfrwt beam="2">  1       21 0.15079657E-01 0.18476092E+03</pdfrwt>
<totfact> 0.86365971E+04</totfact>
</mgrwt>
</event>
<event>
 4    1  0.4111182E+000  0.1786904E+03  0.7546771E-02  0.1169077E+00
         21   -1    0    0  501  502  0.00000000000E+00  0.00000000000E+00  0.14190228782E+02  0.14190228782E+02  0.00000000000E+00 0. -1.
         21   -1    0    0  502  503 -0.00000000000E+00 -0.00000000000E+00 -0.22653980472E+04  0.22653980472E+04  0.00000000000E+00 0. -1.
          6    1    1    2  501    0  0.23150231729E+02  0.38279472983E+02 -0.10321165543E+04  0.10474706836E+04  0.17300000000E+03 0. -1.
         -6    1    1    2    0  503 -0.23150231729E+02 -0.38279472983E+02 -0.12190912641E+04  0.12321175924E+04  0.17300000000E+03 0. -1.
<mgrwt>
<rscale>  2 0.17869038E+03</rscale>
<asrwt>0</asrwt>
<pdfrwt beam="1">  1       21 0.21831119E-02 0.17869038E+03</pdfrwt>
<pdfrwt beam="2">  1       21 0.34852281E+00 0.17869038E+03</pdfrwt>
<totfact> 0.19348103E+04</totfact>
</mgrwt>
</event>
<event>
 4    1  0.4111182E+000  0.2911627E+03  0.7546771E-02  0.1089744E+00
         21   -1    0    0  501  502  0.00000000000E+00  0.00000000000E+00  0.28775582837E+03  0.28775582837E+03  0.00000000000E+00 0. -1.
         21   -1    0    0  502  503 -0.00000000000E+00 -0.00000000000E+00 -0.34772873446E+03  0.34772873446E+03  0.00000000000E+00 0.  1.
          6    1    1    2  501    0 -0.22287786760E+03  0.71917950027E+02  0.94201282983E+02  0.30602224938E+03  0.17300000000E+03 0. -1.
         -6    1    1    2    0  503  0.22287786760E+03 -0.71917950027E+02 -0.15417418908E+03  0.32946231344E+03  0.17300000000E+03 0.  1.
<mgrwt>
<rscale>  2 0.29116273E+03</rscale>
<asrwt>0</asrwt>
<pdfrwt beam="1">  1       21 0.44270127E-01 0.29116273E+03</pdfrwt>
<pdfrwt beam="2">  1       21 0.53496729E-01 0.29116273E+03</pdfrwt>
<totfact> 0.15384745E+04</totfact>
</mgrwt>
</event>
<event>
 4    1  0.4111182E+000  0.3483050E+03  0.7546771E-02  0.1063313E+00
         21   -1    0    0  503  502  0.00000000000E+00  0.00000000000E+00  0.59947741663E+03  0.59947741663E+03  0.00000000000E+00 0. -1.
         21   -1    0    0  501  503 -0.00000000000E+00 -0.00000000000E+00 -0.21524849220E+03  0.21524849220E+03  0.00000000000E+00 0.  1.
          6    1    1    2  501    0  0.17234022128E+03 -0.24836714492E+03  0.92473047940E+02  0.36037155152E+03  0.17300000000E+03 0. -1.
         -6    1    1    2    0  502 -0.17234022128E+03  0.24836714492E+03  0.29175587648E+03  0.45435435731E+03  0.17300000000E+03 0.  1.
<mgrwt>
<rscale>  2 0.34830503E+03</rscale>
<asrwt>0</asrwt>
<pdfrwt beam="1">  1       21 0.92227294E-01 0.34830503E+03</pdfrwt>
<pdfrwt beam="2">  1       21 0.33115153E-01 0.34830503E+03</pdfrwt>
<totfact> 0.80076367E+03</totfact>
</mgrwt>
</event>
<event>
 4    1  0.4111182E+000  0.1865472E+03  0.7546771E-02  0.1161613E+00
         21   -1    0    0  501  502  0.00000000000E+00  0.00000000000E+00  0.65787103138E+03  0.65787103138E+03  0.00000000000E+00 0. -1.
         21   -1    0    0  502  503 -0.00000000000E+00 -0.00000000000E+00 -0.53747743531E+02  0.53747743531E+02  0.00000000000E+00 0. -1.
          6    1    1    2  501    0 -0.24548595732E+01 -0.69748379395E+02  0.34680808761E+03  0.39379653680E+03  0.17300000000E+03 0. -1.
         -6    1    1    2    0  503  0.24548595732E+01  0.69748379395E+02  0.25731520024E+03  0.31782223811E+03  0.17300000000E+03 0. -1.
<mgrwt>
<rscale>  2 0.18654721E+03</rscale>
<asrwt>0</asrwt>
<pdfrwt beam="1">  1       21 0.10121092E+00 0.18654721E+03</pdfrwt>
<pdfrwt beam="2">  1       21 0.82688841E-02 0.18654721E+03</pdfrwt>
<totfact> 0.90609515E+04</totfact>
</mgrwt>
</event>
<event>
 4    1  0.4111182E+000  0.3095090E+03  0.7546771E-02  0.1080581E+00
         21   -1    0    0  503  502  0.00000000000E+00  0.00000000000E+00  0.70247957060E+03  0.70247957060E+03  0.00000000000E+00 0.  1.
         21   -1    0    0  501  503 -0.00000000000E+00 -0.00000000000E+00 -0.21885911859E+03  0.21885911859E+03  0.00000000000E+00 0.  1.
          6    1    1    2  501    0 -0.25379622975E+03 -0.38135287668E+02 -0.41009853774E+02  0.31221408442E+03  0.17300000000E+03 0.  1.
         -6    1    1    2    0  502  0.25379622975E+03  0.38135287668E+02  0.52463030578E+03  0.60912460477E+03  0.17300000000E+03 0.  1.
<mgrwt>
<rscale>  2 0.30950901E+03</rscale>
<asrwt>0</asrwt>
<pdfrwt beam="1">  1       21 0.10807378E+00 0.30950901E+03</pdfrwt>
<pdfrwt beam="2">  1       21 0.33670634E-01 0.30950901E+03</pdfrwt>
<totfact> 0.53805862E+03</totfact>
</mgrwt>
</event>
<event>
 4    1  0.4111182E+000  0.2635571E+03  0.7546771E-02  0.1105025E+00
         21   -1    0    0  503  502  0.00000000000E+00  0.00000000000E+00  0.41039120977E+03  0.41039120977E+03  0.00000000000E+00 0. -1.
         21   -1    0    0  501  503 -0.00000000000E+00 -0.00000000000E+00 -0.31118279616E+03  0.31118279616E+03  0.00000000000E+00 0. -1.
          6    1    1    2  501    0 -0.10525435239E+03 -0.16868574144E+03 -0.19404829894E+03  0.32728748889E+03  0.17300000000E+03 0. -1.
         -6    1    1    2    0  502  0.10525435239E+03  0.16868574144E+03  0.29325671256E+03  0.39428651704E+03  0.17300000000E+03 0. -1.
<mgrwt>
<rscale>  2 0.26355712E+03</rscale>
<asrwt>0</asrwt>
<pdfrwt beam="1">  1       21 0.63137109E-01 0.26355712E+03</pdfrwt>
<pdfrwt beam="2">  1       21 0.47874276E-01 0.26355712E+03</pdfrwt>
<totfact> 0.92697771E+03</totfact>
</mgrwt>
</event>
<event>
 4    1  0.4111182E+000  0.1806571E+03  0.7546771E-02  0.1167169E+00
         21   -1    0    0  503  502  0.00000000000E+00  0.00000000000E+00  0.98269251292E+02  0.98269251292E+02  0.00000000000E+00 0. -1.
         21   -1    0    0  501  503 -0.00000000000E+00 -0.00000000000E+00 -0.14393406326E+04  0.14393406326E+04  0.00000000000E+00 0. -1.
          6    1    1    2  501    0 -0.30095428304E+02 -0.42452919191E+02 -0.13448336647E+04  0.13569136196E+04  0.17300000000E+03 0. -1.
         -6    1    1    2    0  502  0.30095428304E+02  0.42452919191E+02  0.37622834626E+01  0.18069626429E+03  0.17300000000E+03 0. -1.
<mgrwt>
<rscale>  2 0.18065709E+03</rscale>
<asrwt>0</asrwt>
<pdfrwt beam="1">  1       21 0.15118348E-01 0.18065709E+03</pdfrwt>
<pdfrwt beam="2">  1       21 0.22143700E+00 0.18065709E+03</pdfrwt>
<totfact> 0.38594815E+03</totfact>
</mgrwt>
</event>
<event>
 4    1  0.4111182E+000  0.1939702E+03  0.7546771E-02  0.1154928E+00
         21   -1    0    0  501  502  0.00000000000E+00  0.00000000000E+00  0.13129613017E+03  0.13129613017E+03  0.00000000000E+00 0.  1.
         21   -1    0    0  502  503 -0.00000000000E+00 -0.00000000000E+00 -0.51564333642E+03  0.51564333642E+03  0.00000000000E+00 0.  1.
          6    1    1    2  501    0 -0.85359093078E+02 -0.20230713195E+02  0.23428990500E+02  0.19538007607E+03  0.17300000000E+03 0. -1.
         -6    1    1    2    0  503  0.85359093078E+02  0.20230713195E+02 -0.40777619675E+03  0.45155939052E+03  0.17300000000E+03 0. -1.
<mgrwt>
<rscale>  2 0.19397025E+03</rscale>
<asrwt>0</asrwt>
<pdfrwt beam="1">  1       21 0.20199404E-01 0.19397025E+03</pdfrwt>
<pdfrwt beam="2">  1       21 0.79329745E-01 0.19397025E+03</pdfrwt>
<totfact> 0.31740716E+04</totfact>
</mgrwt>
</event>
<event>
 4    1  0.4111182E+000  0.2307927E+03  0.7546771E-02  0.1126083E+00
         21   -1    0    0  503  502  0.00000000000E+00  0.00000000000E+00  0.76743256984E+03  0.76743256984E+03  0.00000000000E+00 0. -1.
         21   -1    0    0  501  503 -0.00000000000E+00 -0.00000000000E+00 -0.70717856577E+02  0.70717856577E+02  0.00000000000E+00 0. -1.
          6    1    1    2  501    0  0.14868170618E+03 -0.35071612112E+02  0.29130300786E+03  0.37164863799E+03  0.17300000000E+03 0. -1.
         -6    1    1    2    0  502 -0.14868170618E+03  0.35071612112E+02  0.40541170540E+03  0.46650178843E+03  0.17300000000E+03 0. -1.
<mgrwt>
<rscale>  2 0.23079269E+03</rscale>
<asrwt>0</asrwt>
<pdfrwt beam="1">  1       21 0.11806654E+00 0.23079269E+03</pdfrwt>
<pdfrwt beam="2">  1       21 0.10879671E-01 0.23079269E+03</pdfrwt>
<totfact> 0.37644579E+04</totfact>
</mgrwt>
</event>
<event>
 4    1  0.4111182E+000  0.1923192E+03  0.7546771E-02  0.1156386E+00
         21   -1    0    0  503  502  0.00000000000E+00  0.00000000000E+00  0.12230719233E+03  0.12230719233E+03  0.00000000000E+00 0. -1.
         21   -1    0    0  501  503 -0.00000000000E+00 -0.00000000000E+00 -0.41598926394E+03  0.41598926394E+03  0.00000000000E+00 0. -1.
          6    1    1    2  501    0 -0.74247999793E+02 -0.39305570938E+02 -0.28747930097E+03  0.34587720634E+03  0.17300000000E+03 0. -1.
         -6    1    1    2    0  502  0.74247999793E+02  0.39305570938E+02 -0.62027706444E+01  0.19241924993E+03  0.17300000000E+03 0. -1.
<mgrwt>
<rscale>  2 0.19231925E+03</rscale>
<asrwt>0</asrwt>
<pdfrwt beam="1">  1       21 0.18816491E-01 0.19231925E+03</pdfrwt>
<pdfrwt beam="2">  1       21 0.63998348E-01 0.19231925E+03</pdfrwt>
<totfact> 0.58309989E+04</totfact>
</mgrwt>
</event>
<event>
 4    1  0.4111182E+000  0.2118490E+03  0.7546771E-02  0.1140110E+00
         21   -1    0    0  503  502  0.00000000000E+00  0.00000000000E+00  0.70490514893E+02  0.70490514893E+02  0.00000000000E+00 0. -1.
         21   -1    0    0  501  503 -0.00000000000E+00 -0.00000000000E+00 -0.75907314610E+03  0.75907314610E+03  0.00000000000E+00 0.  1.
          6    1    1    2  501    0  0.69914733514E+02  0.10031413465E+03 -0.51084493679E+03  0.55303032921E+03  0.17300000000E+03 0.  1.
         -6    1    1    2    0  502 -0.69914733514E+02 -0.10031413465E+03 -0.17773769442E+03  0.27653333179E+03  0.17300000000E+03 0.  1.
<mgrwt>
<rscale>  2 0.21184899E+03</rscale>
<asrwt>0</asrwt>
<pdfrwt beam="1">  1       21 0.10844695E-01 0.21184899E+03</pdfrwt>
<pdfrwt beam="2">  1       21 0.11678048E+00 0.21184899E+03</pdfrwt>
<totfact> 0.39273922E+04</totfact>
</mgrwt>
</event>
<event>
 4    1  0.4111182E+000  0.2244768E+03  0.7546771E-02  0.1130589E+00
         21   -1    0    0  503  502  0.00000000000E+00  0.00000000000E+00  0.70811896207E+03  0.70811896207E+03  0.00000000000E+00 0.  1.
         21   -1    0    0  501  503 -0.00000000000E+00 -0.00000000000E+00 -0.86873295174E+02  0.86873295174E+02  0.00000000000E+00 0.  1.
          6    1    1    2  501    0 -0.14220285828E+03 -0.15464906135E+02  0.14157017418E+03  0.26539014760E+03  0.17300000000E+03 0.  1.
         -6    1    1    2    0  502  0.14220285828E+03  0.15464906135E+02  0.47967549272E+03  0.52960210964E+03  0.17300000000E+03 0.  1.
<mgrwt>
<rscale>  2 0.22447676E+03</rscale>
<asrwt>0</asrwt>
<pdfrwt beam="1">  1       21 0.10894138E+00 0.22447676E+03</pdfrwt>
<pdfrwt beam="2">  1       21 0.13365123E-01 0.22447676E+03</pdfrwt>
<totfact> 0.31765525E+04</totfact>
</mgrwt>
</event>
<event>
 4    1  0.4111182E+000  0.1861480E+03  0.7546771E-02  0.1161982E+00
         21   -1    0    0  501  502  0.00000000000E+00  0.00000000000E+00  0.18819167584E+03  0.18819167584E+03  0.00000000000E+00 0.  1.
         21   -1    0    0  502  503 -0.00000000000E+00 -0.00000000000E+00 -0.25682651716E+03  0.25682651716E+03  0.00000000000E+00 0. -1.
          6    1    1    2  501    0  0.22986856602E+01 -0.68678946551E+02  0.84067117403E+02  0.20425073288E+03  0.17300000000E+03 0.  1.
         -6    1    1    2    0  503 -0.22986856602E+01  0.68678946551E+02 -0.15270195872E+03  0.24076746012E+03  0.17300000000E+03 0. -1.
<mgrwt>
<rscale>  2 0.18614801E+03</rscale>
<asrwt>0</asrwt>
<pdfrwt beam="1">  1       21 0.28952565E-01 0.18614801E+03</pdfrwt>
<pdfrwt beam="2">  1       21 0.39511772E-01 0.18614801E+03</pdfrwt>
<totfact> 0.70701654E+04</totfact>
</mgrwt>
</event>
<event>
 4    1  0.4111182E+000  0.1869879E+03  0.7546771E-02  0.1161206E+00
         21   -1    0    0  501  502  0.00000000000E+00  0.00000000000E+00  0.54138101528E+03  0.54138101528E+03  0.00000000000E+00 0.  1.
         21   -1    0    0  502  503 -0.00000000000E+00 -0.00000000000E+00 -0.66156369336E+02  0.66156369336E+02  0.00000000000E+00 0.  1.
          6    1    1    2  501    0  0.17936396680E+02  0.68656764538E+02  0.28444579559E+03  0.34040252095E+03  0.17300000000E+03 0.  1.
         -6    1    1    2    0  503 -0.17936396680E+02 -0.68656764538E+02  0.19077885036E+03  0.26713486367E+03  0.17300000000E+03 0.  1.
<mgrwt>
<rscale>  2 0.18698788E+03</rscale>
<asrwt>0</asrwt>
<pdfrwt beam="1">  1       21 0.83289384E-01 0.18698788E+03</pdfrwt>
<pdfrwt beam="2">  1       21 0.10177903E-01 0.18698788E+03</pdfrwt>
<totfact> 0.98948022E+04</totfact>
</mgrwt>
</event>
<event>
 4    1  0.4111182E+000  0.1834603E+03  0.7546771E-02  0.1164496E+00
         21   -1    0    0  503  502  0.00000000000E+00  0.00000000000E+00  0.16096892820E+04  0.16096892820E+04  0.00000000000E+00 0. -1.
         21   -1    0    0  501  503 -0.00000000000E+00 -0.00000000000E+00 -0.23174434959E+02  0.23174434959E+02  0.00000000000E+00 0. -1.
          6    1    1    2  501    0 -0.30777655716E+02  0.52739118171E+02  0.53801647897E+03  0.56843593335E+03  0.17300000000E+03 0.  1.
         -6    1    1    2    0  502  0.30777655716E+02 -0.52739118171E+02  0.10484983681E+04  0.10644277836E+04  0.17300000000E+03 0.  1.
<mgrwt>
<rscale>  2 0.18346029E+03</rscale>
<asrwt>0</asrwt>
<pdfrwt beam="1">  1       21 0.24764442E+00 0.18346029E+03</pdfrwt>
<pdfrwt beam="2">  1       21 0.35652989E-02 0.18346029E+03</pdfrwt>
<totfact> 0.32855373E+04</totfact>
</mgrwt>
</event>
<event>
 4    1  0.4111182E+000  0.1784820E+03  0.7546771E-02  0.1169280E+00
         21   -1    0    0  501  502  0.00000000000E+00  0.00000000000E+00  0.72851739737E+03  0.72851739737E+03  0.00000000000E+00 0. -1.
         21   -1    0    0  502  503 -0.00000000000E+00 -0.00000000000E+00 -0.61552922803E+02  0.61552922803E+02  0.00000000000E+00 0. -1.
          6    1    1    2  501    0 -0.30105285137E+02 -0.31945148680E+02  0.54607007646E+03  0.57449834563E+03  0.17300000000E+03 0. -1.
         -6    1    1    2    0  503  0.30105285137E+02  0.31945148680E+02  0.12089439810E+03  0.21557197455E+03  0.17300000000E+03 0. -1.
<mgrwt>
<rscale>  2 0.17848199E+03</rscale>
<asrwt>0</asrwt>
<pdfrwt beam="1">  1       21 0.11207959E+00 0.17848199E+03</pdfrwt>
<pdfrwt beam="2">  1       21 0.94696809E-02 0.17848199E+03</pdfrwt>
<totfact> 0.56146874E+04</totfact>
</mgrwt>
</event>
<event>
 4    1  0.4111182E+000  0.1833341E+03  0.7546771E-02  0.1164615E+00
         21   -1    0    0  501  502  0.00000000000E+00  0.00000000000E+00  0.82905092629E+03  0.82905092629E+03  0.00000000000E+00 0. -1.
         21   -1    0    0  502  503 -0.00000000000E+00 -0.00000000000E+00 -0.54834646379E+02  0.54834646379E+02  0.00000000000E+00 0. -1.
          6    1    1    2  501    0 -0.58316107835E+02  0.16781249959E+02  0.61273714133E+03  0.63957656551E+03  0.17300000000E+03 0.  1.
         -6    1    1    2    0  503  0.58316107835E+02 -0.16781249959E+02  0.16147913858E+03  0.24430900716E+03  0.17300000000E+03 0.  1.
<mgrwt>
<rscale>  2 0.18333406E+03</rscale>
<asrwt>0</asrwt>
<pdfrwt beam="1">  1       21 0.12754629E+00 0.18333406E+03</pdfrwt>
<pdfrwt beam="2">  1       21 0.84361000E-02 0.18333406E+03</pdfrwt>
<totfact> 0.49854662E+04</totfact>
</mgrwt>
</event>
<event>
 4    1  0.4111182E+000  0.1911463E+03  0.7546771E-02  0.1157432E+00
         21   -1    0    0  501  502  0.00000000000E+00  0.00000000000E+00  0.61260240852E+03  0.61260240852E+03  0.00000000000E+00 0. -1.
         21   -1    0    0  502  503 -0.00000000000E+00 -0.00000000000E+00 -0.10861709940E+03  0.10861709940E+03  0.00000000000E+00 0. -1.
          6    1    1    2  501    0 -0.54661837523E+01  0.81105031717E+02  0.49413765553E+03  0.52981971268E+03  0.17300000000E+03 0. -1.
         -6    1    1    2    0  503  0.54661837523E+01 -0.81105031717E+02  0.98476535968E+01  0.19139979523E+03  0.17300000000E+03 0. -1.
<mgrwt>
<rscale>  2 0.19114629E+03</rscale>
<asrwt>0</asrwt>
<pdfrwt beam="1">  1       21 0.94246522E-01 0.19114629E+03</pdfrwt>
<pdfrwt beam="2">  1       21 0.16710323E-01 0.19114629E+03</pdfrwt>
<totfact> 0.30414229E+04</totfact>
</mgrwt>
</event>
<event>
 4    1  0.4111182E+000  0.1767912E+03  0.7546771E-02  0.1170945E+00
         21   -1    0    0  501  502  0.00000000000E+00  0.00000000000E+00  0.14108206571E+02  0.14108206571E+02  0.00000000000E+00 0.  1.
         21   -1    0    0  502  503 -0.00000000000E+00 -0.00000000000E+00 -0.22179805597E+04  0.22179805597E+04  0.00000000000E+00 0. -1.
          6    1    1    2  501    0 -0.84875342030E+01 -0.35413210851E+02 -0.10637705294E+04  0.10783611978E+04  0.17300000000E+03 0. -1.
         -6    1    1    2    0  503  0.84875342030E+01  0.35413210851E+02 -0.11401018238E+04  0.11537275685E+04  0.17300000000E+03 0.  1.
<mgrwt>
<rscale>  2 0.17679122E+03</rscale>
<asrwt>0</asrwt>
<pdfrwt beam="1">  1       21 0.21704946E-02 0.17679122E+03</pdfrwt>
<pdfrwt beam="2">  1       21 0.34122757E+00 0.17679122E+03</pdfrwt>
<totfact> 0.21597729E+04</totfact>
</mgrwt>
</event>
<event>
 4    1  0.4111182E+000  0.2295012E+03  0.7546771E-02  0.1126991E+00
         21   -1    0    0  501  502  0.00000000000E+00  0.00000000000E+00  0.33208644069E+03  0.33208644069E+03  0.00000000000E+00 0.  1.
         21   -1    0    0  502  503 -0.00000000000E+00 -0.00000000000E+00 -0.17394725526E+03  0.17394725526E+03  0.00000000000E+00 0. -1.
          6    1    1    2  501    0 -0.12769142950E+03  0.80229103617E+02  0.15421025364E+03  0.27649884731E+03  0.17300000000E+03 0.  1.
         -6    1    1    2    0  503  0.12769142950E+03 -0.80229103617E+02  0.39289317901E+01  0.22953484864E+03  0.17300000000E+03 0. -1.
<mgrwt>
<rscale>  2 0.22950122E+03</rscale>
<asrwt>0</asrwt>
<pdfrwt beam="1">  1       21 0.51090222E-01 0.22950122E+03</pdfrwt>
<pdfrwt beam="2">  1       21 0.26761116E-01 0.22950122E+03</pdfrwt>
<totfact> 0.47593624E+04</totfact>
</mgrwt>
</event>
<event>
 4    1  0.4111182E+000  0.1802598E+03  0.7546771E-02  0.1167552E+00
         21   -1    0    0  503  502  0.00000000000E+00  0.00000000000E+00  0.12294572157E+03  0.12294572157E+03  0.00000000000E+00 0. -1.
         21   -1    0    0  501  503 -0.00000000000E+00 -0.00000000000E+00 -0.41879838281E+03  0.41879838281E+03  0.00000000000E+00 0. -1.
          6    1    1    2  501    0 -0.43935058457E+02  0.25185407524E+02 -0.31245237050E+03  0.36072160726E+03  0.17300000000E+03 0. -1.
         -6    1    1    2    0  502  0.43935058457E+02 -0.25185407524E+02  0.16599709258E+02  0.18102249711E+03  0.17300000000E+03 0. -1.
<mgrwt>
<rscale>  2 0.18025980E+03</rscale>
<asrwt>0</asrwt>
<pdfrwt beam="1">  1       21 0.18914726E-01 0.18025980E+03</pdfrwt>
<pdfrwt beam="2">  1       21 0.64430522E-01 0.18025980E+03</pdfrwt>
<totfact> 0.57222589E+04</totfact>
</mgrwt>
</event>
<event>
 4    1  0.4111182E+000  0.1754896E+03  0.7546771E-02  0.1172241E+00
         21   -1    0    0  501  502  0.00000000000E+00  0.00000000000E+00  0.89999409069E+03  0.89999409069E+03  0.00000000000E+00 0. -1.
         21   -1    0    0  502  503 -0.00000000000E+00 -0.00000000000E+00 -0.85796603720E+02  0.85796603720E+02  0.00000000000E+00 0. -1.
          6    1    1    2  501    0  0.20839294667E+02 -0.20816109510E+02  0.78926444405E+03  0.80853877412E+03  0.17300000000E+03 0. -1.
         -6    1    1    2    0  503 -0.20839294667E+02  0.20816109510E+02  0.24933042923E+02  0.17725192029E+03  0.17300000000E+03 0. -1.
<mgrwt>
<rscale>  2 0.17548956E+03</rscale>
<asrwt>0</asrwt>
<pdfrwt beam="1">  1       21 0.13846062E+00 0.17548956E+03</pdfrwt>
<pdfrwt beam="2">  1       21 0.13199478E-01 0.17548956E+03</pdfrwt>
<totfact> 0.18421976E+04</totfact>
</mgrwt>
</event>
<event>
 4    1  0.4111182E+000  0.1830813E+03  0.7546771E-02  0.1164854E+00
         21   -1    0    0  503  502  0.00000000000E+00  0.00000000000E+00  0.68293240437E+02  0.68293240437E+02  0.00000000000E+00 0.  1.
         21   -1    0    0  501  503 -0.00000000000E+00 -0.00000000000E+00 -0.92817868708E+03  0.92817868708E+03  0.00000000000E+00 0.  1.
          6    1    1    2  501    0 -0.13705035706E+02 -0.58326157326E+02 -0.77195747714E+03  0.79337072995E+03  0.17300000000E+03 0.  1.
         -6    1    1    2    0  502  0.13705035706E+02  0.58326157326E+02 -0.87927969508E+02  0.20310119757E+03  0.17300000000E+03 0.  1.
<mgrwt>
<rscale>  2 0.18308132E+03</rscale>
<asrwt>0</asrwt>
<pdfrwt beam="1">  1       21 0.10506653E-01 0.18308132E+03</pdfrwt>
<pdfrwt beam="2">  1       21 0.14279672E+00 0.18308132E+03</pdfrwt>
<totfact> 0.25428850E+04</totfact>
</mgrwt>
</event>
<event>
 4    1  0.4111182E+000  0.2425122E+03  0.7546771E-02  0.1118131E+00
         21   -1    0    0  501  502  0.00000000000E+00  0.00000000000E+00  0.10960022094E+03  0.10960022094E+03  0.00000000000E+00 0.  1.
         21   -1    0    0  502  503 -0.00000000000E+00 -0.00000000000E+00 -0.58241208322E+03  0.58241208322E+03  0.00000000000E+00 0. -1.
          6    1    1    2  501    0  0.10634874376E+03 -0.13256355054E+03 -0.33344119756E+03  0.41230472039E+03  0.17300000000E+03 0. -1.
         -6    1    1    2    0  503 -0.10634874376E+03  0.13256355054E+03 -0.13937066473E+03  0.27970758377E+03  0.17300000000E+03 0.  1.
<mgrwt>
<rscale>  2 0.24251217E+03</rscale>
<asrwt>0</asrwt>
<pdfrwt beam="1">  1       21 0.16861572E-01 0.24251217E+03</pdfrwt>
<pdfrwt beam="2">  1       21 0.89601860E-01 0.24251217E+03</pdfrwt>
<totfact> 0.32765132E+04</totfact>
</mgrwt>
</event>
<event>
 4    1  0.4111182E+000  0.2326256E+03  0.7546771E-02  0.1124805E+00
         21   -1    0    0  503  502  0.00000000000E+00  0.00000000000E+00  0.11222133308E+03  0.11222133308E+03  0.00000000000E+00 0.  1.
         21   -1    0    0  501  503 -0.00000000000E+00 -0.00000000000E+00 -0.57827009684E+03  0.57827009684E+03  0.00000000000E+00 0. -1.
          6    1    1    2  501    0 -0.14067521977E+03 -0.66303658496E+02 -0.37373455731E+03  0.44021836845E+03  0.17300000000E+03 0. -1.
         -6    1    1    2    0  502  0.14067521977E+03  0.66303658496E+02 -0.92314206441E+02  0.25027306147E+03  0.17300000000E+03 0.  1.
<mgrwt>
<rscale>  2 0.23262565E+03</rscale>
<asrwt>0</asrwt>
<pdfrwt beam="1">  1       21 0.17264820E-01 0.23262565E+03</pdfrwt>
<pdfrwt beam="2">  1       21 0.88964631E-01 0.23262565E+03</pdfrwt>
<totfact> 0.32036672E+04</totfact>
</mgrwt>
</event>
<event>
 4    1  0.4111182E+000  0.1840786E+03  0.7546771E-02  0.1163913E+00
         21   -1    0    0  503  502  0.00000000000E+00  0.00000000000E+00  0.43830550641E+03  0.43830550641E+03  0.00000000000E+00 0. -1.
         21   -1    0    0  501  503 -0.00000000000E+00 -0.00000000000E+00 -0.10292474632E+03  0.10292474632E+03  0.00000000000E+00 0. -1.
          6    1    1    2  501    0 -0.54655084735E+02 -0.31124528338E+02  0.32686404017E+02  0.18695805829E+03  0.17300000000E+03 0. -1.
         -6    1    1    2    0  502  0.54655084735E+02  0.31124528338E+02  0.30269435607E+03  0.35427219443E+03  0.17300000000E+03 0. -1.
<mgrwt>
<rscale>  2 0.18407856E+03</rscale>
<asrwt>0</asrwt>
<pdfrwt beam="1">  1       21 0.67431615E-01 0.18407856E+03</pdfrwt>
<pdfrwt beam="2">  1       21 0.15834577E-01 0.18407856E+03</pdfrwt>
<totfact> 0.71748053E+04</totfact>
</mgrwt>
</event>
<event>
 4    1  0.4111182E+000  0.1809012E+03  0.7546771E-02  0.1166934E+00
         21   -1    0    0  503  502  0.00000000000E+00  0.00000000000E+00  0.16812242319E+03  0.16812242319E+03  0.00000000000E+00 0.  1.
         21   -1    0    0  501  503 -0.00000000000E+00 -0.00000000000E+00 -0.22604561343E+04  0.22604561343E+04  0.00000000000E+00 0. -1.
          6    1    1    2  501    0  0.29741300707E+02 -0.43722878695E+02 -0.22069972521E+04  0.22143988136E+04  0.17300000000E+03 0. -1.
         -6    1    1    2    0  502 -0.29741300707E+02  0.43722878695E+02  0.11466354092E+03  0.21417974392E+03  0.17300000000E+03 0.  1.
<mgrwt>
<rscale>  2 0.18090117E+03</rscale>
<asrwt>0</asrwt>
<pdfrwt beam="1">  1       21 0.25864990E-01 0.18090117E+03</pdfrwt>
<pdfrwt beam="2">  1       21 0.34776246E+00 0.18090117E+03</pdfrwt>
<totfact> 0.26098491E+02</totfact>
</mgrwt>
</event>
<event>
 4    1  0.4111182E+000  0.1742142E+03  0.7546771E-02  0.1173523E+00
         21   -1    0    0  503  502  0.00000000000E+00  0.00000000000E+00  0.26212416293E+03  0.26212416293E+03  0.00000000000E+00 0. -1.
         21   -1    0    0  501  503 -0.00000000000E+00 -0.00000000000E+00 -0.16926673891E+03  0.16926673891E+03  0.00000000000E+00 0. -1.
          6    1    1    2  501    0  0.20114128440E+02 -0.41243321969E+01 -0.74812295106E+02  0.18959817451E+03  0.17300000000E+03 0. -1.
         -6    1    1    2    0  502 -0.20114128440E+02  0.41243321969E+01  0.16766971912E+03  0.24179272733E+03  0.17300000000E+03 0. -1.
<mgrwt>
<rscale>  2 0.17421420E+03</rscale>
<asrwt>0</asrwt>
<pdfrwt beam="1">  1       21 0.40326794E-01 0.17421420E+03</pdfrwt>
<pdfrwt beam="2">  1       21 0.26041037E-01 0.17421420E+03</pdfrwt>
<totfact> 0.83631631E+04</totfact>
</mgrwt>
</event>
<event>
 4    1  0.4111182E+000  0.2288149E+03  0.7546771E-02  0.1127477E+00
         21   -1    0    0  501  502  0.00000000000E+00  0.00000000000E+00  0.33465630426E+03  0.33465630426E+03  0.00000000000E+00 0.  1.
         21   -1    0    0  502  503 -0.00000000000E+00 -0.00000000000E+00 -0.18503778865E+03  0.18503778865E+03  0.00000000000E+00 0.  1.
          6    1    1    2  501    0  0.64270827830E+02  0.13526455020E+03  0.17694897905E+03  0.28925279435E+03  0.17300000000E+03 0.  1.
         -6    1    1    2    0  503 -0.64270827830E+02 -0.13526455020E+03 -0.27330463446E+02  0.23044129856E+03  0.17300000000E+03 0.  1.
<mgrwt>
<rscale>  2 0.22881485E+03</rscale>
<asrwt>0</asrwt>
<pdfrwt beam="1">  1       21 0.51485585E-01 0.22881485E+03</pdfrwt>
<pdfrwt beam="2">  1       21 0.28467352E-01 0.22881485E+03</pdfrwt>
<totfact> 0.41553449E+04</totfact>
</mgrwt>
</event>
<event>
 4    1  0.4111182E+000  0.2072741E+03  0.7546771E-02  0.1143743E+00
         21   -1    0    0  501  502  0.00000000000E+00  0.00000000000E+00  0.83570922933E+03  0.83570922933E+03  0.00000000000E+00 0. -1.
         21   -1    0    0  502  503 -0.00000000000E+00 -0.00000000000E+00 -0.52763547354E+02  0.52763547354E+02  0.00000000000E+00 0.  1.
          6    1    1    2  501    0 -0.11317681998E+03 -0.14985397093E+02  0.46266382378E+03  0.50697176306E+03  0.17300000000E+03 0.  1.
         -6    1    1    2    0  503  0.11317681998E+03  0.14985397093E+02  0.32028185820E+03  0.38150101363E+03  0.17300000000E+03 0.  1.
<mgrwt>
<rscale>  2 0.20727411E+03</rscale>
<asrwt>0</asrwt>
<pdfrwt beam="1">  1       21 0.12857064E+00 0.20727411E+03</pdfrwt>
<pdfrwt beam="2">  1       21 0.81174694E-02 0.20727411E+03</pdfrwt>
<totfact> 0.51595420E+04</totfact>
</mgrwt>
</event>
<event>
 4    1  0.4111182E+000  0.1803307E+03  0.7546771E-02  0.1167483E+00
         21   -1    0    0  503  502  0.00000000000E+00  0.00000000000E+00  0.80296159899E+03  0.80296159899E+03  0.00000000000E+00 0.  1.
         21   -1    0    0  501  503 -0.00000000000E+00 -0.00000000000E+00 -0.92364902950E+02  0.92364902950E+02  0.00000000000E+00 0.  1.
          6    1    1    2  501    0  0.24747634477E+02 -0.44471451110E+02  0.19839805400E+02  0.18141877867E+03  0.17300000000E+03 0.  1.
         -6    1    1    2    0  502 -0.24747634477E+02  0.44471451110E+02  0.69075689064E+03  0.71390772327E+03  0.17300000000E+03 0.  1.
<mgrwt>
<rscale>  2 0.18033068E+03</rscale>
<asrwt>0</asrwt>
<pdfrwt beam="1">  1       21 0.12353255E+00 0.18033068E+03</pdfrwt>
<pdfrwt beam="2">  1       21 0.14209986E-01 0.18033068E+03</pdfrwt>
<totfact> 0.21430873E+04</totfact>
</mgrwt>
</event>
<event>
 4    1  0.4111182E+000  0.1733570E+03  0.7546771E-02  0.1174392E+00
         21   -1    0    0  501  502  0.00000000000E+00  0.00000000000E+00  0.37955381747E+03  0.37955381747E+03  0.00000000000E+00 0. -1.
         21   -1    0    0  502  503 -0.00000000000E+00 -0.00000000000E+00 -0.11035110428E+03  0.11035110428E+03  0.00000000000E+00 0. -1.
          6    1    1    2  501    0  0.91711442096E+01 -0.62890031989E+01  0.26479119287E+03  0.31649176493E+03  0.17300000000E+03 0. -1.
         -6    1    1    2    0  503 -0.91711442096E+01  0.62890031989E+01  0.44115203189E+01  0.17341315682E+03  0.17300000000E+03 0. -1.
<mgrwt>
<rscale>  2 0.17335703E+03</rscale>
<asrwt>0</asrwt>
<pdfrwt beam="1">  1       21 0.58392894E-01 0.17335703E+03</pdfrwt>
<pdfrwt beam="2">  1       21 0.16977093E-01 0.17335703E+03</pdfrwt>
<totfact> 0.86568639E+04</totfact>
</mgrwt>
</event>
<event>
 4    1  0.4111182E+000  0.2454108E+03  0.7546771E-02  0.1116240E+00
         21   -1    0    0  501  502  0.00000000000E+00  0.00000000000E+00  0.16819572030E+03  0.16819572030E+03  0.00000000000E+00 0.  1.
         21   -1    0    0  502  503 -0.00000000000E+00 -0.00000000000E+00 -0.78791303044E+03  0.78791303044E+03  0.00000000000E+00 0. -1.
          6    1    1    2  501    0 -0.11882382953E+03  0.12719412876E+03  0.43236108245E+02  0.24919030862E+03  0.17300000000E+03 0.  1.
         -6    1    1    2    0  503  0.11882382953E+03 -0.12719412876E+03 -0.66295341839E+03  0.70691844212E+03  0.17300000000E+03 0. -1.
<mgrwt>
<rscale>  2 0.24541078E+03</rscale>
<asrwt>0</asrwt>
<pdfrwt beam="1">  1       21 0.25876265E-01 0.24541078E+03</pdfrwt>
<pdfrwt beam="2">  1       21 0.12121739E+00 0.24541078E+03</pdfrwt>
<totfact> 0.70393779E+03</totfact>
</mgrwt>
</event>
<event>
 4    1  0.4111182E+000  0.2642106E+03  0.7546771E-02  0.1104640E+00
         21   -1    0    0  503  502  0.00000000000E+00  0.00000000000E+00  0.10852966073E+04  0.10852966073E+04  0.00000000000E+00 0. -1.
         21   -1    0    0  501  503 -0.00000000000E+00 -0.00000000000E+00 -0.68521506565E+02  0.68521506565E+02  0.00000000000E+00 0. -1.
          6    1    1    2  501    0  0.14324934779E+03 -0.13913246107E+03  0.36554694570E+03  0.45103413050E+03  0.17300000000E+03 0. -1.
         -6    1    1    2    0  502 -0.14324934779E+03  0.13913246107E+03  0.65122815508E+03  0.70278398341E+03  0.17300000000E+03 0. -1.
<mgrwt>
<rscale>  2 0.26421055E+03</rscale>
<asrwt>0</asrwt>
<pdfrwt beam="1">  1       21 0.16696870E+00 0.26421055E+03</pdfrwt>
<pdfrwt beam="2">  1       21 0.10541771E-01 0.26421055E+03</pdfrwt>
<totfact> 0.15829143E+04</totfact>
</mgrwt>
</event>
<event>
 4    1  0.4111182E+000  0.4591166E+03  0.7546771E-02  0.1025038E+00
         21   -1    0    0  503  502  0.00000000000E+00  0.00000000000E+00  0.24822972703E+03  0.24822972703E+03  0.00000000000E+00 0. -1.
         21   -1    0    0  501  503 -0.00000000000E+00 -0.00000000000E+00 -0.86427060415E+03  0.86427060415E+03  0.00000000000E+00 0. -1.
          6    1    1    2  501    0  0.58590538480E+02  0.42121986070E+03 -0.38155860896E+03  0.59697151885E+03  0.17300000000E+03 0. -1.
         -6    1    1    2    0  502 -0.58590538480E+02 -0.42121986070E+03 -0.23448226817E+03  0.51552881232E+03  0.17300000000E+03 0. -1.
<mgrwt>
<rscale>  2 0.45911657E+03</rscale>
<asrwt>0</asrwt>
<pdfrwt beam="1">  1       21 0.38189189E-01 0.45911657E+03</pdfrwt>
<pdfrwt beam="2">  1       21 0.13296471E+00 0.45911657E+03</pdfrwt>
<totfact> 0.23176056E+03</totfact>
</mgrwt>
</event>
<event>
 4    1  0.4111182E+000  0.2404478E+03  0.7546771E-02  0.1119495E+00
         21   -1    0    0  501  502  0.00000000000E+00  0.00000000000E+00  0.35912978486E+03  0.35912978486E+03  0.00000000000E+00 0.  1.
         21   -1    0    0  502  503 -0.00000000000E+00 -0.00000000000E+00 -0.56088837587E+03  0.56088837587E+03  0.00000000000E+00 0.  1.
          6    1    1    2  501    0 -0.11573975538E+03  0.12037630195E+03  0.28754354272E+03  0.37482853948E+03  0.17300000000E+03 0.  1.
         -6    1    1    2    0  503  0.11573975538E+03 -0.12037630195E+03 -0.48930213373E+03  0.54518962125E+03  0.17300000000E+03 0.  1.
<mgrwt>
<rscale>  2 0.24044780E+03</rscale>
<asrwt>0</asrwt>
<pdfrwt beam="1">  1       21 0.55250736E-01 0.24044780E+03</pdfrwt>
<pdfrwt beam="2">  1       21 0.86290520E-01 0.24044780E+03</pdfrwt>
<totfact> 0.34476835E+03</totfact>
</mgrwt>
</event>
<event>
 4    1  0.4111182E+000  0.1807035E+03  0.7546771E-02  0.1167124E+00
         21   -1    0    0  501  502  0.00000000000E+00  0.00000000000E+00  0.13549683800E+04  0.13549683800E+04  0.00000000000E+00 0.  1.
         21   -1    0    0  502  503 -0.00000000000E+00 -0.00000000000E+00 -0.25149899471E+02  0.25149899471E+02  0.00000000000E+00 0. -1.
          6    1    1    2  501    0  0.51056425122E+02  0.10862172121E+02  0.80594963321E+03  0.82595917369E+03  0.17300000000E+03 0.  1.
         -6    1    1    2    0  503 -0.51056425122E+02 -0.10862172121E+02  0.52386884730E+03  0.55415910577E+03  0.17300000000E+03 0.  1.
<mgrwt>
<rscale>  2 0.18070347E+03</rscale>
<asrwt>0</asrwt>
<pdfrwt beam="1">  1       21 0.20845662E+00 0.18070347E+03</pdfrwt>
<pdfrwt beam="2">  1       21 0.38692164E-02 0.18070347E+03</pdfrwt>
<totfact> 0.49558900E+04</totfact>
</mgrwt>
</event>
<event>
 4    1  0.4111182E+000  0.2167725E+03  0.7546771E-02  0.1136312E+00
         21   -1    0    0  501  502  0.00000000000E+00  0.00000000000E+00  0.15676710195E+03  0.15676710195E+03  0.00000000000E+00 0. -1.
         21   -1    0    0  502  503 -0.00000000000E+00 -0.00000000000E+00 -0.65817282541E+03  0.65817282541E+03  0.00000000000E+00 0.  1.
          6    1    1    2  501    0 -0.73794620197E+02 -0.10777611725E+03  0.49991843283E+02  0.22246240539E+03  0.17300000000E+03 0. -1.
         -6    1    1    2    0  503  0.73794620197E+02  0.10777611725E+03 -0.55139756675E+03  0.59247752196E+03  0.17300000000E+03 0.  1.
<mgrwt>
<rscale>  2 0.21677255E+03</rscale>
<asrwt>0</asrwt>
<pdfrwt beam="1">  1       21 0.24118016E-01 0.21677255E+03</pdfrwt>
<pdfrwt beam="2">  1       21 0.10125736E+00 0.21677255E+03</pdfrwt>
<totfact> 0.12721513E+04</totfact>
</mgrwt>
</event>
<event>
 4    1  0.4111182E+000  0.2198794E+03  0.7546771E-02  0.1133973E+00
         21   -1    0    0  501  502  0.00000000000E+00  0.00000000000E+00  0.72548084394E+02  0.72548084394E+02  0.00000000000E+00 0.  1.
         21   -1    0    0  502  503 -0.00000000000E+00 -0.00000000000E+00 -0.68828589334E+03  0.68828589334E+03  0.00000000000E+00 0.  1.
          6    1    1    2  501    0 -0.66165368201E+02 -0.11849097183E+03 -0.24005303211E+03  0.32553406055E+03  0.17300000000E+03 0.  1.
         -6    1    1    2    0  503  0.66165368201E+02  0.11849097183E+03 -0.37568477683E+03  0.43529991718E+03  0.17300000000E+03 0.  1.
<mgrwt>
<rscale>  2 0.21987944E+03</rscale>
<asrwt>0</asrwt>
<pdfrwt beam="1">  1       21 0.11161244E-01 0.21987944E+03</pdfrwt>
<pdfrwt beam="2">  1       21 0.10589013E+00 0.21987944E+03</pdfrwt>
<totfact> 0.47152423E+04</totfact>
</mgrwt>
</event>
<event>
 4    1  0.4111182E+000  0.2286773E+03  0.7546771E-02  0.1127574E+00
         21   -1    0    0  501  502  0.00000000000E+00  0.00000000000E+00  0.59230815789E+03  0.59230815789E+03  0.00000000000E+00 0. -1.
         21   -1    0    0  502  503 -0.00000000000E+00 -0.00000000000E+00 -0.12822669205E+03  0.12822669205E+03  0.00000000000E+00 0. -1.
          6    1    1    2  501    0 -0.14936644381E+03 -0.73451163215E+01  0.43310575520E+03  0.48976921143E+03  0.17300000000E+03 0. -1.
         -6    1    1    2    0  503  0.14936644381E+03  0.73451163215E+01  0.30975710641E+02  0.23076563851E+03  0.17300000000E+03 0. -1.
<mgrwt>
<rscale>  2 0.22867725E+03</rscale>
<asrwt>0</asrwt>
<pdfrwt beam="1">  1       21 0.91124331E-01 0.22867725E+03</pdfrwt>
<pdfrwt beam="2">  1       21 0.19727184E-01 0.22867725E+03</pdfrwt>
<totfact> 0.23686262E+04</totfact>
</mgrwt>
</event>
<event>
 4    1  0.4111182E+000  0.2514887E+03  0.7546771E-02  0.1112368E+00
         21   -1    0    0  503  502  0.00000000000E+00  0.00000000000E+00  0.14167963670E+03  0.14167963670E+03  0.00000000000E+00 0. -1.
         21   -1    0    0  501  503 -0.00000000000E+00 -0.00000000000E+00 -0.54276531482E+03  0.54276531482E+03  0.00000000000E+00 0.  1.
          6    1    1    2  501    0  0.71787072459E+02 -0.16782181612E+03 -0.34473804940E+03  0.42672106632E+03  0.17300000000E+03 0.  1.
         -6    1    1    2    0  502 -0.71787072459E+02  0.16782181612E+03 -0.56347628726E+02  0.25772388520E+03  0.17300000000E+03 0. -1.
<mgrwt>
<rscale>  2 0.25148866E+03</rscale>
<asrwt>0</asrwt>
<pdfrwt beam="1">  1       21 0.21796867E-01 0.25148866E+03</pdfrwt>
<pdfrwt beam="2">  1       21 0.83502358E-01 0.25148866E+03</pdfrwt>
<totfact> 0.23754773E+04</totfact>
</mgrwt>
</event>
<event>
 4    1  0.4111182E+000  0.2369488E+03  0.7546771E-02  0.1121842E+00
         21   -1    0    0  503  502  0.00000000000E+00  0.00000000000E+00  0.11917349420E+04  0.11917349420E+04  0.00000000000E+00 0. -1.
         21   -1    0    0  501  503 -0.00000000000E+00 -0.00000000000E+00 -0.70687163326E+02  0.70687163326E+02  0.00000000000E+00 0.  1.
          6    1    1    2  501    0  0.64398868185E+02 -0.14855469051E+03  0.19599324741E+03  0.30750294848E+03  0.17300000000E+03 0.  1.
         -6    1    1    2    0  502 -0.64398868185E+02  0.14855469051E+03  0.92505453129E+03  0.95491915687E+03  0.17300000000E+03 0. -1.
<mgrwt>
<rscale>  2 0.23694875E+03</rscale>
<asrwt>0</asrwt>
<pdfrwt beam="1">  1       21 0.18334382E+00 0.23694875E+03</pdfrwt>
<pdfrwt beam="2">  1       21 0.10874949E-01 0.23694875E+03</pdfrwt>
<totfact> 0.11692670E+04</totfact>
</mgrwt>
</event>
<event>
 4    1  0.4111182E+000  0.3188052E+03  0.7546771E-02  0.1076201E+00
         21   -1    0    0  501  502  0.00000000000E+00  0.00000000000E+00  0.22803211230E+03  0.22803211230E+03  0.00000000000E+00 0. -1.
         21   -1    0    0  502  503 -0.00000000000E+00 -0.00000000000E+00 -0.90009447255E+03  0.90009447255E+03  0.00000000000E+00 0.  1.
          6    1    1    2  501    0  0.18370901474E+03  0.19482998963E+03  0.64738088669E+02  0.32531176904E+03  0.17300000000E+03 0. -1.
         -6    1    1    2    0  503 -0.18370901474E+03 -0.19482998963E+03 -0.73680044892E+03  0.80281481581E+03  0.17300000000E+03 0.  1.
<mgrwt>
<rscale>  2 0.31880516E+03</rscale>
<asrwt>0</asrwt>
<pdfrwt beam="1">  1       21 0.35081864E-01 0.31880516E+03</pdfrwt>
<pdfrwt beam="2">  1       21 0.13847607E+00 0.31880516E+03</pdfrwt>
<totfact> 0.26370780E+03</totfact>
</mgrwt>
</event>
<event>
 4    1  0.4111182E+000  0.1957525E+03  0.7546771E-02  0.1153373E+00
         21   -1    0    0  503  502  0.00000000000E+00  0.00000000000E+00  0.52802883599E+03  0.52802883599E+03  0.00000000000E+00 0. -1.
         21   -1    0    0  501  503 -0.00000000000E+00 -0.00000000000E+00 -0.73940553427E+02  0.73940553427E+02  0.00000000000E+00 0. -1.
          6    1    1    2  501    0 -0.86505983936E+02  0.30112233035E+02  0.26802275734E+03  0.33189641500E+03  0.17300000000E+03 0. -1.
         -6    1    1    2    0  502  0.86505983936E+02 -0.30112233035E+02  0.18606552522E+03  0.27007297442E+03  0.17300000000E+03 0. -1.
<mgrwt>
<rscale>  2 0.19575248E+03</rscale>
<asrwt>0</asrwt>
<pdfrwt beam="1">  1       21 0.81235203E-01 0.19575248E+03</pdfrwt>
<pdfrwt beam="2">  1       21 0.11375470E-01 0.19575248E+03</pdfrwt>
<totfact> 0.85650775E+04</totfact>
</mgrwt>
</event>
<event>
 4    1  0.4111182E+000  0.2076659E+03  0.7546771E-02  0.1143428E+00
         21   -1    0    0  503  502  0.00000000000E+00  0.00000000000E+00  0.33847307127E+03  0.33847307127E+03  0.00000000000E+00 0. -1.
         21   -1    0    0  501  503 -0.00000000000E+00 -0.00000000000E+00 -0.13199325898E+03  0.13199325898E+03  0.00000000000E+00 0.  1.
          6    1    1    2  501    0  0.47744309143E+02  0.10448253383E+03  0.59409773047E+02  0.21599685198E+03  0.17300000000E+03 0.  1.
         -6    1    1    2    0  502 -0.47744309143E+02 -0.10448253383E+03  0.14707003924E+03  0.25446947827E+03  0.17300000000E+03 0.  1.
<mgrwt>
<rscale>  2 0.20766588E+03</rscale>
<asrwt>0</asrwt>
<pdfrwt beam="1">  1       21 0.52072780E-01 0.20766588E+03</pdfrwt>
<pdfrwt beam="2">  1       21 0.20306655E-01 0.20766588E+03</pdfrwt>
<totfact> 0.78017699E+04</totfact>
</mgrwt>
</event>
<event>
 4    1  0.4111182E+000  0.2041212E+03  0.7546771E-02  0.1146308E+00
         21   -1    0    0  501  502  0.00000000000E+00  0.00000000000E+00  0.73281857402E+02  0.73281857402E+02  0.00000000000E+00 0.  1.
         21   -1    0    0  502  503 -0.00000000000E+00 -0.00000000000E+00 -0.17774964390E+04  0.17774964390E+04  0.00000000000E+00 0. -1.
          6    1    1    2  501    0 -0.10103860390E+03 -0.39085376489E+02 -0.88937888765E+02  0.22265537090E+03  0.17300000000E+03 0.  1.
         -6    1    1    2    0  503  0.10103860390E+03  0.39085376489E+02 -0.16152766929E+04  0.16281229255E+04  0.17300000000E+03 0. -1.
<mgrwt>
<rscale>  2 0.20412120E+03</rscale>
<asrwt>0</asrwt>
<pdfrwt beam="1">  1       21 0.11274132E-01 0.20412120E+03</pdfrwt>
<pdfrwt beam="2">  1       21 0.27346098E+00 0.20412120E+03</pdfrwt>
<totfact> 0.31434140E+03</totfact>
</mgrwt>
</event>
<event>
 4    1  0.4111182E+000  0.2482438E+03  0.7546771E-02  0.1114420E+00
         21   -1    0    0  501  502  0.00000000000E+00  0.00000000000E+00  0.24366224264E+03  0.24366224264E+03  0.00000000000E+00 0. -1.
         21   -1    0    0  502  503 -0.00000000000E+00 -0.00000000000E+00 -0.25389405341E+03  0.25389405341E+03  0.00000000000E+00 0. -1.
          6    1    1    2  501    0 -0.11135133753E+03  0.13891317489E+03  0.10360050248E+02  0.24845989851E+03  0.17300000000E+03 0. -1.
         -6    1    1    2    0  503  0.11135133753E+03 -0.13891317489E+03 -0.20591861018E+02  0.24909639754E+03  0.17300000000E+03 0. -1.
<mgrwt>
<rscale>  2 0.24824381E+03</rscale>
<asrwt>0</asrwt>
<pdfrwt beam="1">  1       21 0.37486499E-01 0.24824381E+03</pdfrwt>
<pdfrwt beam="2">  1       21 0.39060624E-01 0.24824381E+03</pdfrwt>
<totfact> 0.42266623E+04</totfact>
</mgrwt>
</event>
<event>
 4    1  0.4111182E+000  0.2075582E+03  0.7546771E-02  0.1143514E+00
         21   -1    0    0  501  502  0.00000000000E+00  0.00000000000E+00  0.21924102592E+03  0.21924102592E+03  0.00000000000E+00 0.  1.
         21   -1    0    0  502  503 -0.00000000000E+00 -0.00000000000E+00 -0.30408098083E+03  0.30408098083E+03  0.00000000000E+00 0.  1.
          6    1    1    2  501    0 -0.21508809912E+02 -0.11264445336E+03  0.11321827893E+03  0.23642922928E+03  0.17300000000E+03 0.  1.
         -6    1    1    2    0  503  0.21508809912E+02  0.11264445336E+03 -0.19805823383E+03  0.28689277747E+03  0.17300000000E+03 0.  1.
<mgrwt>
<rscale>  2 0.20755819E+03</rscale>
<asrwt>0</asrwt>
<pdfrwt beam="1">  1       21 0.33729389E-01 0.20755819E+03</pdfrwt>
<pdfrwt beam="2">  1       21 0.46781689E-01 0.20755819E+03</pdfrwt>
<totfact> 0.36752825E+04</totfact>
</mgrwt>
</event>
<event>
 4    1  0.4111182E+000  0.4900371E+03  0.7546771E-02  0.1016413E+00
         21   -1    0    0  501  502  0.00000000000E+00  0.00000000000E+00  0.14983335366E+03  0.14983335366E+03  0.00000000000E+00 0. -1.
         21   -1    0    0  502  503 -0.00000000000E+00 -0.00000000000E+00 -0.16035056202E+04  0.16035056202E+04  0.00000000000E+00 0.  1.
          6    1    1    2  501    0  0.41865392474E+03  0.18691240653E+03 -0.74661280906E+03  0.89306609110E+03  0.17300000000E+03 0.  1.
         -6    1    1    2    0  503 -0.41865392474E+03 -0.18691240653E+03 -0.70705945749E+03  0.86027288278E+03  0.17300000000E+03 0. -1.
<mgrwt>
<rscale>  2 0.49003710E+03</rscale>
<asrwt>0</asrwt>
<pdfrwt beam="1">  1       21 0.23051287E-01 0.49003710E+03</pdfrwt>
<pdfrwt beam="2">  1       21 0.24669315E+00 0.49003710E+03</pdfrwt>
<totfact> 0.99175727E+02</totfact>
</mgrwt>
</event>
<event>
 4    1  0.4111182E+000  0.2520036E+03  0.7546771E-02  0.1112045E+00
         21   -1    0    0  501  502  0.00000000000E+00  0.00000000000E+00  0.15681599819E+04  0.15681599819E+04  0.00000000000E+00 0. -1.
         21   -1    0    0  502  503 -0.00000000000E+00 -0.00000000000E+00 -0.46964977527E+02  0.46964977527E+02  0.00000000000E+00 0. -1.
          6    1    1    2  501    0  0.45791259444E+02  0.17742591913E+03  0.10602879258E+04  0.10898239683E+04  0.17300000000E+03 0. -1.
         -6    1    1    2    0  503 -0.45791259444E+02 -0.17742591913E+03  0.46090707850E+03  0.52530099109E+03  0.17300000000E+03 0. -1.
<mgrwt>
<rscale>  2 0.25200356E+03</rscale>
<asrwt>0</asrwt>
<pdfrwt beam="1">  1       21 0.24125534E+00 0.25200356E+03</pdfrwt>
<pdfrwt beam="2">  1       21 0.72253824E-02 0.25200356E+03</pdfrwt>
<totfact> 0.10210481E+04</totfact>
</mgrwt>
</event>
<event>
 4    1  0.4111182E+000  0.1760017E+03  0.7546771E-02  0.1171730E+00
         21   -1    0    0  503  502  0.00000000000E+00  0.00000000000E+00  0.41097356568E+03  0.41097356568E+03  0.00000000000E+00 0. -1.
         21   -1    0    0  501  503 -0.00000000000E+00 -0.00000000000E+00 -0.13625463368E+03  0.13625463368E+03  0.00000000000E+00 0. -1.
          6    1    1    2  501    0  0.21388408283E+02  0.24292860907E+02 -0.45536197513E+02  0.18179700873E+03  0.17300000000E+03 0. -1.
         -6    1    1    2    0  502 -0.21388408283E+02 -0.24292860907E+02  0.32025512952E+03  0.36543119063E+03  0.17300000000E+03 0. -1.
<mgrwt>
<rscale>  2 0.17600172E+03</rscale>
<asrwt>0</asrwt>
<pdfrwt beam="1">  1       21 0.63226702E-01 0.17600172E+03</pdfrwt>
<pdfrwt beam="2">  1       21 0.20962252E-01 0.17600172E+03</pdfrwt>
<totfact> 0.49318451E+04</totfact>
</mgrwt>
</event>
<event>
 4    1  0.4111182E+000  0.1883735E+03  0.7546771E-02  0.1159937E+00
         21   -1    0    0  503  502  0.00000000000E+00  0.00000000000E+00  0.68317589654E+02  0.68317589654E+02  0.00000000000E+00 0.  1.
         21   -1    0    0  501  503 -0.00000000000E+00 -0.00000000000E+00 -0.10996563324E+04  0.10996563324E+04  0.00000000000E+00 0.  1.
          6    1    1    2  501    0 -0.37055463069E+02 -0.64672080906E+02 -0.93988069136E+03  0.95857201054E+03  0.17300000000E+03 0.  1.
         -6    1    1    2    0  502  0.37055463069E+02  0.64672080906E+02 -0.91458051420E+02  0.20940191155E+03  0.17300000000E+03 0.  1.
<mgrwt>
<rscale>  2 0.18837353E+03</rscale>
<asrwt>0</asrwt>
<pdfrwt beam="1">  1       21 0.10510399E-01 0.18837353E+03</pdfrwt>
<pdfrwt beam="2">  1       21 0.16917788E+00 0.18837353E+03</pdfrwt>
<totfact> 0.16117743E+04</totfact>
</mgrwt>
</event>
<event>
 4    1  0.4111182E+000  0.2710717E+03  0.7546771E-02  0.1100668E+00
         21   -1    0    0  501  502  0.00000000000E+00  0.00000000000E+00  0.99506369385E+02  0.99506369385E+02  0.00000000000E+00 0. -1.
         21   -1    0    0  502  503 -0.00000000000E+00 -0.00000000000E+00 -0.14183159578E+04  0.14183159578E+04  0.00000000000E+00 0. -1.
          6    1    1    2  501    0  0.19595560399E+03 -0.71779433488E+02 -0.13397100584E+03  0.30237082566E+03  0.17300000000E+03 0. -1.
         -6    1    1    2    0  503 -0.19595560399E+03  0.71779433488E+02 -0.11848385826E+04  0.12154515015E+04  0.17300000000E+03 0. -1.
<mgrwt>
<rscale>  2 0.27107174E+03</rscale>
<asrwt>0</asrwt>
<pdfrwt beam="1">  1       21 0.15308674E-01 0.27107174E+03</pdfrwt>
<pdfrwt beam="2">  1       21 0.21820244E+00 0.27107174E+03</pdfrwt>
<totfact> 0.36477728E+03</totfact>
</mgrwt>
</event>
<event>
 4    1  0.4111182E+000  0.2150317E+03  0.7546771E-02  0.1137642E+00
         21   -1    0    0  501  502  0.00000000000E+00  0.00000000000E+00  0.13119470230E+03  0.13119470230E+03  0.00000000000E+00 0.  1.
         21   -1    0    0  502  503 -0.00000000000E+00 -0.00000000000E+00 -0.36972555219E+03  0.36972555219E+03  0.00000000000E+00 0.  1.
          6    1    1    2  501    0  0.21308575643E+02 -0.12591888071E+03 -0.17341637878E+03  0.27624601417E+03  0.17300000000E+03 0.  1.
         -6    1    1    2    0  503 -0.21308575643E+02  0.12591888071E+03 -0.65114471108E+02  0.22467424032E+03  0.17300000000E+03 0.  1.
<mgrwt>
<rscale>  2 0.21503167E+03</rscale>
<asrwt>0</asrwt>
<pdfrwt beam="1">  1       21 0.20183801E-01 0.21503167E+03</pdfrwt>
<pdfrwt beam="2">  1       21 0.56880853E-01 0.21503167E+03</pdfrwt>
<totfact> 0.65247055E+04</totfact>
</mgrwt>
</event>
<event>
 4    1  0.4111182E+000  0.2734642E+03  0.7546771E-02  0.1099313E+00
         21   -1    0    0  503  502  0.00000000000E+00  0.00000000000E+00  0.44232208280E+03  0.44232208280E+03  0.00000000000E+00 0. -1.
         21   -1    0    0  501  503 -0.00000000000E+00 -0.00000000000E+00 -0.22834904788E+03  0.22834904788E+03  0.00000000000E+00 0. -1.
          6    1    1    2  501    0  0.13676364462E+03  0.16170772641E+03 -0.63871953022E+02  0.28082433950E+03  0.17300000000E+03 0. -1.
         -6    1    1    2    0  502 -0.13676364462E+03 -0.16170772641E+03  0.27784498794E+03  0.38984679118E+03  0.17300000000E+03 0. -1.
<mgrwt>
<rscale>  2 0.27346423E+03</rscale>
<asrwt>0</asrwt>
<pdfrwt beam="1">  1       21 0.68049551E-01 0.27346423E+03</pdfrwt>
<pdfrwt beam="2">  1       21 0.35130623E-01 0.27346423E+03</pdfrwt>
<totfact> 0.14727779E+04</totfact>
</mgrwt>
</event>
<event>
 4    1  0.4111182E+000  0.1856355E+03  0.7546771E-02  0.1162458E+00
         21   -1    0    0  501  502  0.00000000000E+00  0.00000000000E+00  0.76188301793E+03  0.76188301793E+03  0.00000000000E+00 0. -1.
         21   -1    0    0  502  503 -0.00000000000E+00 -0.00000000000E+00 -0.35319401054E+03  0.35319401054E+03  0.00000000000E+00 0. -1.
          6    1    1    2  501    0  0.37376590271E+02 -0.55986877071E+02  0.72496068607E+03  0.74835054370E+03  0.17300000000E+03 0. -1.
         -6    1    1    2    0  503 -0.37376590271E+02  0.55986877071E+02 -0.31627167868E+03  0.36672648478E+03  0.17300000000E+03 0. -1.
<mgrwt>
<rscale>  2 0.18563550E+03</rscale>
<asrwt>0</asrwt>
<pdfrwt beam="1">  1       21 0.11721277E+00 0.18563550E+03</pdfrwt>
<pdfrwt beam="2">  1       21 0.54337540E-01 0.18563550E+03</pdfrwt>
<totfact> 0.18027590E+03</totfact>
</mgrwt>
</event>
<event>
 4    1  0.4111182E+000  0.1796236E+03  0.7546771E-02  0.1168168E+00
         21   -1    0    0  503  502  0.00000000000E+00  0.00000000000E+00  0.34386669350E+03  0.34386669350E+03  0.00000000000E+00 0. -1.
         21   -1    0    0  501  503 -0.00000000000E+00 -0.00000000000E+00 -0.29564636139E+03  0.29564636139E+03  0.00000000000E+00 0. -1.
          6    1    1    2  501    0 -0.57918856287E+01 -0.47980227378E+02 -0.24007746073E+03  0.29983634755E+03  0.17300000000E+03 0. -1.
         -6    1    1    2    0  502  0.57918856287E+01  0.47980227378E+02  0.28829779284E+03  0.33967670735E+03  0.17300000000E+03 0. -1.
<mgrwt>
<rscale>  2 0.17962363E+03</rscale>
<asrwt>0</asrwt>
<pdfrwt beam="1">  1       21 0.52902568E-01 0.17962363E+03</pdfrwt>
<pdfrwt beam="2">  1       21 0.45484056E-01 0.17962363E+03</pdfrwt>
<totfact> 0.15824259E+04</totfact>
</mgrwt>
</event>
<event>
 4    1  0.4111182E+000  0.2188124E+03  0.7546771E-02  0.1134772E+00
         21   -1    0    0  503  502  0.00000000000E+00  0.00000000000E+00  0.24412350415E+03  0.24412350415E+03  0.00000000000E+00 0. -1.
         21   -1    0    0  501  503 -0.00000000000E+00 -0.00000000000E+00 -0.39776556382E+03  0.39776556382E+03  0.00000000000E+00 0.  1.
          6    1    1    2  501    0 -0.10859479943E+03  0.78466899227E+02 -0.30533072317E+03  0.37564043346E+03  0.17300000000E+03 0.  1.
         -6    1    1    2    0  502  0.10859479943E+03 -0.78466899227E+02  0.15168866351E+03  0.26624863451E+03  0.17300000000E+03 0. -1.
<mgrwt>
<rscale>  2 0.21881244E+03</rscale>
<asrwt>0</asrwt>
<pdfrwt beam="1">  1       21 0.37557463E-01 0.21881244E+03</pdfrwt>
<pdfrwt beam="2">  1       21 0.61194701E-01 0.21881244E+03</pdfrwt>
<totfact> 0.16713707E+04</totfact>
</mgrwt>
</event>
<event>
 4    1  0.4111182E+000  0.2205420E+03  0.7546771E-02  0.1133480E+00
         21   -1    0    0  501  502  0.00000000000E+00  0.00000000000E+00  0.19153194655E+02  0.19153194655E+02  0.00000000000E+00 0. -1.
         21   -1    0    0  502  503 -0.00000000000E+00 -0.00000000000E+00 -0.29013127061E+04  0.29013127061E+04  0.00000000000E+00 0. -1.
          6    1    1    2  501    0 -0.42983273842E+02  0.12985452140E+03 -0.92538680089E+03  0.95130409955E+03  0.17300000000E+03 0. -1.
         -6    1    1    2    0  503  0.42983273842E+02 -0.12985452140E+03 -0.19567727106E+04  0.19691618013E+04  0.17300000000E+03 0. -1.
<mgrwt>
<rscale>  2 0.22054197E+03</rscale>
<asrwt>0</asrwt>
<pdfrwt beam="1">  1       21 0.29466459E-02 0.22054197E+03</pdfrwt>
<pdfrwt beam="2">  1       21 0.44635572E+00 0.22054197E+03</pdfrwt>
<totfact> 0.27582554E+03</totfact>
</mgrwt>
</event>
<event>
 4    1  0.4111182E+000  0.1745841E+03  0.7546771E-02  0.1173150E+00
         21   -1    0    0  501  502  0.00000000000E+00  0.00000000000E+00  0.31926852731E+02  0.31926852731E+02  0.00000000000E+00 0. -1.
         21   -1    0    0  502  503 -0.00000000000E+00 -0.00000000000E+00 -0.98197776745E+03  0.98197776745E+03  0.00000000000E+00 0. -1.
          6    1    1    2  501    0  0.88958734685E+01  0.21713780782E+02 -0.39048680783E+03  0.42773773732E+03  0.17300000000E+03 0. -1.
         -6    1    1    2    0  503 -0.88958734685E+01 -0.21713780782E+02 -0.55956410690E+03  0.58616688287E+03  0.17300000000E+03 0. -1.
<mgrwt>
<rscale>  2 0.17458415E+03</rscale>
<asrwt>0</asrwt>
<pdfrwt beam="1">  1       21 0.49118242E-02 0.17458415E+03</pdfrwt>
<pdfrwt beam="2">  1       21 0.15107348E+00 0.17458415E+03</pdfrwt>
<totfact> 0.82070413E+04</totfact>
</mgrwt>
</event>
<event>
 4    1  0.4111182E+000  0.3029551E+03  0.7546771E-02  0.1083773E+00
         21   -1    0    0  503  502  0.00000000000E+00  0.00000000000E+00  0.11168698293E+04  0.11168698293E+04  0.00000000000E+00 0. -1.
         21   -1    0    0  501  503 -0.00000000000E+00 -0.00000000000E+00 -0.97491291015E+02  0.97491291015E+02  0.00000000000E+00 0.  1.
          6    1    1    2  501    0 -0.17752647958E+03 -0.17417561518E+03  0.26904615282E+03  0.40517604596E+03  0.17300000000E+03 0. -1.
         -6    1    1    2    0  502  0.17752647958E+03  0.17417561518E+03  0.75033238546E+03  0.80918507435E+03  0.17300000000E+03 0.  1.
<mgrwt>
<rscale>  2 0.30295511E+03</rscale>
<asrwt>0</asrwt>
<pdfrwt beam="1">  1       21 0.17182612E+00 0.30295511E+03</pdfrwt>
<pdfrwt beam="2">  1       21 0.14998661E-01 0.30295511E+03</pdfrwt>
<totfact> 0.75535593E+03</totfact>
</mgrwt>
</event>
<event>
 4    1  0.4111182E+000  0.1965599E+03  0.7546771E-02  0.1152674E+00
         21   -1    0    0  503  502  0.00000000000E+00  0.00000000000E+00  0.70503301534E+03  0.70503301534E+03  0.00000000000E+00 0.  1.
         21   -1    0    0  501  503 -0.00000000000E+00 -0.00000000000E+00 -0.71048721129E+02  0.71048721129E+02  0.00000000000E+00 0.  1.
          6    1    1    2  501    0  0.46627599275E+02  0.80824870848E+02  0.13142151802E+03  0.23644747442E+03  0.17300000000E+03 0.  1.
         -6    1    1    2    0  502 -0.46627599275E+02 -0.80824870848E+02  0.50256277620E+03  0.53963426205E+03  0.17300000000E+03 0.  1.
<mgrwt>
<rscale>  2 0.19655990E+03</rscale>
<asrwt>0</asrwt>
<pdfrwt beam="1">  1       21 0.10846661E+00 0.19655990E+03</pdfrwt>
<pdfrwt beam="2">  1       21 0.10930573E-01 0.19655990E+03</pdfrwt>
<totfact> 0.46732577E+04</totfact>
</mgrwt>
</event>
<event>
 4    1  0.4111182E+000  0.2084667E+03  0.7546771E-02  0.1142786E+00
         21   -1    0    0  501  502  0.00000000000E+00  0.00000000000E+00  0.19339409508E+04  0.19339409508E+04  0.00000000000E+00 0. -1.
         21   -1    0    0  502  503 -0.00000000000E+00 -0.00000000000E+00 -0.41822527317E+02  0.41822527317E+02  0.00000000000E+00 0. -1.
          6    1    1    2  501    0  0.93175806599E+02  0.69624886379E+02  0.16180340087E+04  0.16314081062E+04  0.17300000000E+03 0. -1.
         -6    1    1    2    0  503 -0.93175806599E+02 -0.69624886379E+02  0.27408441487E+03  0.34435537199E+03  0.17300000000E+03 0. -1.
<mgrwt>
<rscale>  2 0.20846668E+03</rscale>
<asrwt>0</asrwt>
<pdfrwt beam="1">  1       21 0.29752931E+00 0.20846668E+03</pdfrwt>
<pdfrwt beam="2">  1       21 0.64342365E-02 0.20846668E+03</pdfrwt>
<totfact> 0.60635276E+03</totfact>
</mgrwt>
</event>
<event>
 4    1  0.4111182E+000  0.1982242E+03  0.7546771E-02  0.1151246E+00
         21   -1    0    0  501  502  0.00000000000E+00  0.00000000000E+00  0.94819504299E+03  0.94819504299E+03  0.00000000000E+00 0.  1.
         21   -1    0    0  502  503 -0.00000000000E+00 -0.00000000000E+00 -0.59391118165E+02  0.59391118165E+02  0.00000000000E+00 0.  1.
          6    1    1    2  501    0  0.96212595178E+02 -0.10342209905E+02  0.72137788651E+03  0.74811688921E+03  0.17300000000E+03 0.  1.
         -6    1    1    2    0  503 -0.96212595178E+02  0.10342209905E+02  0.16742603831E+03  0.25946927194E+03  0.17300000000E+03 0.  1.
<mgrwt>
<rscale>  2 0.19822418E+03</rscale>
<asrwt>0</asrwt>
<pdfrwt beam="1">  1       21 0.14587615E+00 0.19822418E+03</pdfrwt>
<pdfrwt beam="2">  1       21 0.91370957E-02 0.19822418E+03</pdfrwt>
<totfact> 0.30483584E+04</totfact>
</mgrwt>
</event>
<event>
 4    1  0.4111182E+000  0.2751056E+03  0.7546771E-02  0.1098393E+00
         21   -1    0    0  503  502  0.00000000000E+00  0.00000000000E+00  0.25886335449E+03  0.25886335449E+03  0.00000000000E+00 0. -1.
         21   -1    0    0  501  503 -0.00000000000E+00 -0.00000000000E+00 -0.30421195013E+03  0.30421195013E+03  0.00000000000E+00 0. -1.
          6    1    1    2  501    0 -0.61706368648E+02  0.20480824454E+03 -0.78228336108E+02  0.28601182761E+03  0.17300000000E+03 0. -1.
         -6    1    1    2    0  502  0.61706368648E+02 -0.20480824454E+03  0.32879740469E+02  0.27706347702E+03  0.17300000000E+03 0. -1.
<mgrwt>
<rscale>  2 0.27510560E+03</rscale>
<asrwt>0</asrwt>
<pdfrwt beam="1">  1       21 0.39825132E-01 0.27510560E+03</pdfrwt>
<pdfrwt beam="2">  1       21 0.46801838E-01 0.27510560E+03</pdfrwt>
<totfact> 0.25505116E+04</totfact>
</mgrwt>
</event>
<event>
 4    1  0.4111182E+000  0.2668443E+03  0.7546771E-02  0.1103099E+00
         21   -1    0    0  503  502  0.00000000000E+00  0.00000000000E+00  0.28632444653E+03  0.28632444653E+03  0.00000000000E+00 0.  1.
         21   -1    0    0  501  503 -0.00000000000E+00 -0.00000000000E+00 -0.25434508822E+03  0.25434508822E+03  0.00000000000E+00 0. -1.
          6    1    1    2  501    0  0.84763982200E+02  0.18464001969E+03  0.56301366775E+02  0.27271911090E+03  0.17300000000E+03 0. -1.
         -6    1    1    2    0  502 -0.84763982200E+02 -0.18464001969E+03 -0.24322008464E+02  0.26795042386E+03  0.17300000000E+03 0. -1.
<mgrwt>
<rscale>  2 0.26684428E+03</rscale>
<asrwt>0</asrwt>
<pdfrwt beam="1">  1       21 0.44049915E-01 0.26684428E+03</pdfrwt>
<pdfrwt beam="2">  1       21 0.39130014E-01 0.26684428E+03</pdfrwt>
<totfact> 0.30076881E+04</totfact>
</mgrwt>
</event>
<event>
 4    1  0.4111182E+000  0.2111557E+03  0.7546771E-02  0.1140654E+00
         21   -1    0    0  501  502  0.00000000000E+00  0.00000000000E+00  0.33914705128E+02  0.33914705128E+02  0.00000000000E+00 0. -1.
         21   -1    0    0  502  503 -0.00000000000E+00 -0.00000000000E+00 -0.13771011934E+04  0.13771011934E+04  0.00000000000E+00 0. -1.
          6    1    1    2  501    0 -0.86010692421E+02  0.85205078147E+02 -0.52137951339E+03  0.56251519227E+03  0.17300000000E+03 0. -1.
         -6    1    1    2    0  503  0.86010692421E+02 -0.85205078147E+02 -0.82180697485E+03  0.84850070623E+03  0.17300000000E+03 0. -1.
<mgrwt>
<rscale>  2 0.21115574E+03</rscale>
<asrwt>0</asrwt>
<pdfrwt beam="1">  1       21 0.52176476E-02 0.21115574E+03</pdfrwt>
<pdfrwt beam="2">  1       21 0.21186169E+00 0.21115574E+03</pdfrwt>
<totfact> 0.27887549E+04</totfact>
</mgrwt>
</event>
<event>
 4    1  0.4111182E+000  0.1736112E+03  0.7546771E-02  0.1174133E+00
         21   -1    0    0  501  502  0.00000000000E+00  0.00000000000E+00  0.38184086768E+03  0.38184086768E+03  0.00000000000E+00 0. -1.
         21   -1    0    0  502  503 -0.00000000000E+00 -0.00000000000E+00 -0.15441306371E+03  0.15441306371E+03  0.00000000000E+00 0. -1.
          6    1    1    2  501    0 -0.12369925470E+02  0.76704963587E+01  0.30117321461E+03  0.34762933819E+03  0.17300000000E+03 0. -1.
         -6    1    1    2    0  503  0.12369925470E+02 -0.76704963587E+01 -0.73745410641E+02  0.18862459320E+03  0.17300000000E+03 0. -1.
<mgrwt>
<rscale>  2 0.17361121E+03</rscale>
<asrwt>0</asrwt>
<pdfrwt beam="1">  1       21 0.58744749E-01 0.17361121E+03</pdfrwt>
<pdfrwt beam="2">  1       21 0.23755856E-01 0.17361121E+03</pdfrwt>
<totfact> 0.45686868E+04</totfact>
</mgrwt>
</event>
<event>
 4    1  0.4111182E+000  0.1970375E+03  0.7546771E-02  0.1152263E+00
         21   -1    0    0  503  502  0.00000000000E+00  0.00000000000E+00  0.96150168285E+02  0.96150168285E+02  0.00000000000E+00 0. -1.
         21   -1    0    0  501  503 -0.00000000000E+00 -0.00000000000E+00 -0.46819192732E+03  0.46819192732E+03  0.00000000000E+00 0.  1.
          6    1    1    2  501    0 -0.30785139310E+02 -0.89146302402E+02 -0.29067927258E+03  0.35116695110E+03  0.17300000000E+03 0.  1.
         -6    1    1    2    0  502  0.30785139310E+02  0.89146302402E+02 -0.81362486453E+02  0.21317514451E+03  0.17300000000E+03 0. -1.
<mgrwt>
<rscale>  2 0.19703753E+03</rscale>
<asrwt>0</asrwt>
<pdfrwt beam="1">  1       21 0.14792334E-01 0.19703753E+03</pdfrwt>
<pdfrwt beam="2">  1       21 0.72029525E-01 0.19703753E+03</pdfrwt>
<totfact> 0.69851177E+04</totfact>
</mgrwt>
</event>
<event>
 4    1  0.4111182E+000  0.1804033E+03  0.7546771E-02  0.1167413E+00
         21   -1    0    0  501  502  0.00000000000E+00  0.00000000000E+00  0.77041201337E+02  0.77041201337E+02  0.00000000000E+00 0. -1.
         21   -1    0    0  502  503 -0.00000000000E+00 -0.00000000000E+00 -0.98846499351E+03  0.98846499351E+03  0.00000000000E+00 0. -1.
          6    1    1    2  501    0 -0.43636769953E+02  0.26686425121E+02 -0.52565388002E+02  0.18790543631E+03  0.17300000000E+03 0. -1.
         -6    1    1    2    0  503  0.43636769953E+02 -0.26686425121E+02 -0.85885840417E+03  0.87760075854E+03  0.17300000000E+03 0. -1.
<mgrwt>
<rscale>  2 0.18040325E+03</rscale>
<asrwt>0</asrwt>
<pdfrwt beam="1">  1       21 0.11852494E-01 0.18040325E+03</pdfrwt>
<pdfrwt beam="2">  1       21 0.15207152E+00 0.18040325E+03</pdfrwt>
<totfact> 0.17443970E+04</totfact>
</mgrwt>
</event>
<event>
 4    1  0.4111182E+000  0.1955205E+03  0.7546771E-02  0.1153574E+00
         21   -1    0    0  503  502  0.00000000000E+00  0.00000000000E+00  0.64260755926E+03  0.64260755926E+03  0.00000000000E+00 0.  1.
         21   -1    0    0  501  503 -0.00000000000E+00 -0.00000000000E+00 -0.79270367898E+02  0.79270367898E+02  0.00000000000E+00 0.  1.
          6    1    1    2  501    0  0.29953295714E+02 -0.86035156982E+02  0.10136531201E+03  0.22023436298E+03  0.17300000000E+03 0. -1.
         -6    1    1    2    0  502 -0.29953295714E+02  0.86035156982E+02  0.46197187935E+03  0.50164356417E+03  0.17300000000E+03 0. -1.
<mgrwt>
<rscale>  2 0.19552045E+03</rscale>
<asrwt>0</asrwt>
<pdfrwt beam="1">  1       21 0.98862698E-01 0.19552045E+03</pdfrwt>
<pdfrwt beam="2">  1       21 0.12195442E-01 0.19552045E+03</pdfrwt>
<totfact> 0.48016358E+04</totfact>
</mgrwt>
</event>
<event>
 4    1  0.4111182E+000  0.1787037E+03  0.7546771E-02  0.1169064E+00
         21   -1    0    0  501  502  0.00000000000E+00  0.00000000000E+00  0.90235495642E+03  0.90235495642E+03  0.00000000000E+00 0.  1.
         21   -1    0    0  502  503 -0.00000000000E+00 -0.00000000000E+00 -0.20999433716E+03  0.20999433716E+03  0.00000000000E+00 0.  1.
          6    1    1    2  501    0 -0.11787180826E+02 -0.43209518490E+02  0.85332747507E+03  0.87183873499E+03  0.17300000000E+03 0.  1.
         -6    1    1    2    0  503  0.11787180826E+02  0.43209518490E+02 -0.16096685582E+03  0.24051055859E+03  0.17300000000E+03 0.  1.
<mgrwt>
<rscale>  2 0.17870367E+03</rscale>
<asrwt>0</asrwt>
<pdfrwt beam="1">  1       21 0.13882384E+00 0.17870367E+03</pdfrwt>
<pdfrwt beam="2">  1       21 0.32306822E-01 0.17870367E+03</pdfrwt>
<totfact> 0.34135607E+03</totfact>
</mgrwt>
</event>
<event>
 4    1  0.4111182E+000  0.1895882E+03  0.7546771E-02  0.1158833E+00
         21   -1    0    0  503  502  0.00000000000E+00  0.00000000000E+00  0.19612803433E+03  0.19612803433E+03  0.00000000000E+00 0.  1.
         21   -1    0    0  501  503 -0.00000000000E+00 -0.00000000000E+00 -0.21602210519E+03  0.21602210519E+03  0.00000000000E+00 0.  1.
          6    1    1    2  501    0 -0.64435979661E+02  0.43158888080E+02 -0.90192338606E+02  0.20994842947E+03  0.17300000000E+03 0.  1.
         -6    1    1    2    0  502  0.64435979661E+02 -0.43158888080E+02  0.70298267745E+02  0.20220171004E+03  0.17300000000E+03 0.  1.
<mgrwt>
<rscale>  2 0.18958820E+03</rscale>
<asrwt>0</asrwt>
<pdfrwt beam="1">  1       21 0.30173544E-01 0.18958820E+03</pdfrwt>
<pdfrwt beam="2">  1       21 0.33234170E-01 0.18958820E+03</pdfrwt>
<totfact> 0.91974674E+04</totfact>
</mgrwt>
</event>
<event>
 4    1  0.4111182E+000  0.1954548E+03  0.7546771E-02  0.1153631E+00
         21   -1    0    0  501  502  0.00000000000E+00  0.00000000000E+00  0.15670564830E+04  0.15670564830E+04  0.00000000000E+00 0.  1.
         21   -1    0    0  502  503 -0.00000000000E+00 -0.00000000000E+00 -0.47810956669E+02  0.47810956669E+02  0.00000000000E+00 0.  1.
          6    1    1    2  501    0 -0.90592891442E+02  0.81562465605E+01  0.13248868928E+04  0.13392265959E+04  0.17300000000E+03 0.  1.
         -6    1    1    2    0  503  0.90592891442E+02 -0.81562465605E+01  0.19435863346E+03  0.27564084374E+03  0.17300000000E+03 0.  1.
<mgrwt>
<rscale>  2 0.19545484E+03</rscale>
<asrwt>0</asrwt>
<pdfrwt beam="1">  1       21 0.24108557E+00 0.19545484E+03</pdfrwt>
<pdfrwt beam="2">  1       21 0.73555330E-02 0.19545484E+03</pdfrwt>
<totfact> 0.10395210E+04</totfact>
</mgrwt>
</event>
<event>
 4    1  0.4111182E+000  0.2051021E+03  0.7546771E-02  0.1145504E+00
         21   -1    0    0  501  502  0.00000000000E+00  0.00000000000E+00  0.20671486060E+03  0.20671486060E+03  0.00000000000E+00 0. -1.
         21   -1    0    0  502  503 -0.00000000000E+00 -0.00000000000E+00 -0.20573376227E+03  0.20573376227E+03  0.00000000000E+00 0. -1.
          6    1    1    2  501    0  0.59331800645E+02 -0.92831028246E+02  0.21969986448E+02  0.20627540493E+03  0.17300000000E+03 0.  1.
         -6    1    1    2    0  503 -0.59331800645E+02  0.92831028246E+02 -0.20988888114E+02  0.20617321794E+03  0.17300000000E+03 0.  1.
<mgrwt>
<rscale>  2 0.20510208E+03</rscale>
<asrwt>0</asrwt>
<pdfrwt beam="1">  1       21 0.31802287E-01 0.20510208E+03</pdfrwt>
<pdfrwt beam="2">  1       21 0.31651348E-01 0.20510208E+03</pdfrwt>
<totfact> 0.90766469E+04</totfact>
</mgrwt>
</event>
<event>
 4    1  0.4111182E+000  0.1907306E+03  0.7546771E-02  0.1157804E+00
         21   -1    0    0  503  502  0.00000000000E+00  0.00000000000E+00  0.18611128319E+03  0.18611128319E+03  0.00000000000E+00 0.  1.
         21   -1    0    0  501  503 -0.00000000000E+00 -0.00000000000E+00 -0.23142540963E+03  0.23142540963E+03  0.00000000000E+00 0.  1.
          6    1    1    2  501    0  0.30009054681E+02 -0.74489149983E+02 -0.10495208404E+03  0.21769960214E+03  0.17300000000E+03 0.  1.
         -6    1    1    2    0  502 -0.30009054681E+02  0.74489149983E+02  0.59637957597E+02  0.19983709069E+03  0.17300000000E+03 0.  1.
<mgrwt>
<rscale>  2 0.19073064E+03</rscale>
<asrwt>0</asrwt>
<pdfrwt beam="1">  1       21 0.28632505E-01 0.19073064E+03</pdfrwt>
<pdfrwt beam="2">  1       21 0.35603909E-01 0.19073064E+03</pdfrwt>
<totfact> 0.88819465E+04</totfact>
</mgrwt>
</event>
<event>
 4    1  0.4111182E+000  0.2179681E+03  0.7546771E-02  0.1135407E+00
         21   -1    0    0  503  502  0.00000000000E+00  0.00000000000E+00  0.31312568952E+03  0.31312568952E+03  0.00000000000E+00 0.  1.
         21   -1    0    0  501  503 -0.00000000000E+00 -0.00000000000E+00 -0.19310606517E+03  0.19310606517E+03  0.00000000000E+00 0.  1.
          6    1    1    2  501    0 -0.64424355727E+02 -0.11589048879E+03 -0.57156753019E+02  0.22533751889E+03  0.17300000000E+03 0.  1.
         -6    1    1    2    0  502  0.64424355727E+02  0.11589048879E+03  0.17717637738E+03  0.28089423580E+03  0.17300000000E+03 0.  1.
<mgrwt>
<rscale>  2 0.21796812E+03</rscale>
<asrwt>0</asrwt>
<pdfrwt beam="1">  1       21 0.48173183E-01 0.21796812E+03</pdfrwt>
<pdfrwt beam="2">  1       21 0.29708625E-01 0.21796812E+03</pdfrwt>
<totfact> 0.44162184E+04</totfact>
</mgrwt>
</event>
<event>
 4    1  0.4111182E+000  0.1770070E+03  0.7546771E-02  0.1170732E+00
         21   -1    0    0  503  502  0.00000000000E+00  0.00000000000E+00  0.44215000701E+03  0.44215000701E+03  0.00000000000E+00 0. -1.
         21   -1    0    0  501  503 -0.00000000000E+00 -0.00000000000E+00 -0.70989209596E+02  0.70989209596E+02  0.00000000000E+00 0. -1.
          6    1    1    2  501    0 -0.33307496060E+02  0.17119379563E+02  0.17470288880E+03  0.24870175272E+03  0.17300000000E+03 0. -1.
         -6    1    1    2    0  502  0.33307496060E+02 -0.17119379563E+02  0.19645790862E+03  0.26443746389E+03  0.17300000000E+03 0. -1.
<mgrwt>
<rscale>  2 0.17700696E+03</rscale>
<asrwt>0</asrwt>
<pdfrwt beam="1">  1       21 0.68023076E-01 0.17700696E+03</pdfrwt>
<pdfrwt beam="2">  1       21 0.10921417E-01 0.17700696E+03</pdfrwt>
<totfact> 0.13772538E+05</totfact>
</mgrwt>
</event>
<event>
 4    1  0.4111182E+000  0.1852451E+03  0.7546771E-02  0.1162821E+00
         21   -1    0    0  501  502  0.00000000000E+00  0.00000000000E+00  0.55842589263E+02  0.55842589263E+02  0.00000000000E+00 0.  1.
         21   -1    0    0  502  503 -0.00000000000E+00 -0.00000000000E+00 -0.77589266412E+03  0.77589266412E+03  0.00000000000E+00 0.  1.
          6    1    1    2  501    0  0.66207682845E+02 -0.18133118130E+01 -0.17036110134E+03  0.25167171120E+03  0.17300000000E+03 0.  1.
         -6    1    1    2    0  503 -0.66207682845E+02  0.18133118130E+01 -0.54968897352E+03  0.58006354219E+03  0.17300000000E+03 0.  1.
<mgrwt>
<rscale>  2 0.18524510E+03</rscale>
<asrwt>0</asrwt>
<pdfrwt beam="1">  1       21 0.85911676E-02 0.18524510E+03</pdfrwt>
<pdfrwt beam="2">  1       21 0.11936810E+00 0.18524510E+03</pdfrwt>
<totfact> 0.56908880E+04</totfact>
</mgrwt>
</event>
<event>
 4    1  0.4111182E+000  0.2775584E+03  0.7546771E-02  0.1097030E+00
         21   -1    0    0  501  502  0.00000000000E+00  0.00000000000E+00  0.73466709734E+02  0.73466709734E+02  0.00000000000E+00 0. -1.
         21   -1    0    0  502  503 -0.00000000000E+00 -0.00000000000E+00 -0.25229794848E+04  0.25229794848E+04  0.00000000000E+00 0. -1.
          6    1    1    2  501    0 -0.17733455767E+03  0.12514847423E+03 -0.23233956746E+03  0.36196734736E+03  0.17300000000E+03 0. -1.
         -6    1    1    2    0  503  0.17733455767E+03 -0.12514847423E+03 -0.22171732076E+04  0.22344788472E+04  0.17300000000E+03 0. -1.
<mgrwt>
<rscale>  2 0.27755844E+03</rscale>
<asrwt>0</asrwt>
<pdfrwt beam="1">  1       21 0.11302570E-01 0.27755844E+03</pdfrwt>
<pdfrwt beam="2">  1       21 0.38815071E+00 0.27755844E+03</pdfrwt>
<totfact> 0.60256815E+02</totfact>
</mgrwt>
</event>
<event>
 4    1  0.4111182E+000  0.2290960E+03  0.7546771E-02  0.1127278E+00
         21   -1    0    0  503  502  0.00000000000E+00  0.00000000000E+00  0.16766913010E+03  0.16766913010E+03  0.00000000000E+00 0.  1.
         21   -1    0    0  501  503 -0.00000000000E+00 -0.00000000000E+00 -0.36317631518E+03  0.36317631518E+03  0.00000000000E+00 0.  1.
          6    1    1    2  501    0  0.14104305096E+03  0.51602555273E+02 -0.19638422421E+03  0.30174779113E+03  0.17300000000E+03 0.  1.
         -6    1    1    2    0  502 -0.14104305096E+03 -0.51602555273E+02  0.87703912683E+00  0.22909765414E+03  0.17300000000E+03 0.  1.
<mgrwt>
<rscale>  2 0.22909598E+03</rscale>
<asrwt>0</asrwt>
<pdfrwt beam="1">  1       21 0.25795251E-01 0.22909598E+03</pdfrwt>
<pdfrwt beam="2">  1       21 0.55873279E-01 0.22909598E+03</pdfrwt>
<totfact> 0.42283675E+04</totfact>
</mgrwt>
</event>
<event>
 4    1  0.4111182E+000  0.1932887E+03  0.7546771E-02  0.1155528E+00
         21   -1    0    0  503  502  0.00000000000E+00  0.00000000000E+00  0.11297528374E+03  0.11297528374E+03  0.00000000000E+00 0. -1.
         21   -1    0    0  501  503 -0.00000000000E+00 -0.00000000000E+00 -0.56943915627E+03  0.56943915627E+03  0.00000000000E+00 0.  1.
          6    1    1    2  501    0 -0.85311611366E+02  0.12386795582E+02 -0.44916452348E+03  0.48898800894E+03  0.17300000000E+03 0.  1.
         -6    1    1    2    0  502  0.85311611366E+02 -0.12386795582E+02 -0.72993490455E+01  0.19342643107E+03  0.17300000000E+03 0. -1.
<mgrwt>
<rscale>  2 0.19328865E+03</rscale>
<asrwt>0</asrwt>
<pdfrwt beam="1">  1       21 0.17380813E-01 0.19328865E+03</pdfrwt>
<pdfrwt beam="2">  1       21 0.87606023E-01 0.19328865E+03</pdfrwt>
<totfact> 0.33475556E+04</totfact>
</mgrwt>
</event>
<event>
 4    1  0.4111182E+000  0.2287838E+03  0.7546771E-02  0.1127499E+00
         21   -1    0    0  501  502  0.00000000000E+00  0.00000000000E+00  0.33549571932E+03  0.33549571932E+03  0.00000000000E+00 0.  1.
         21   -1    0    0  502  503 -0.00000000000E+00 -0.00000000000E+00 -0.58770561401E+03  0.58770561401E+03  0.00000000000E+00 0.  1.
          6    1    1    2  501    0 -0.10788770819E+03 -0.10379436619E+03  0.26951056799E+03  0.35352224016E+03  0.17300000000E+03 0.  1.
         -6    1    1    2    0  503  0.10788770819E+03  0.10379436619E+03 -0.52172046267E+03  0.56967909317E+03  0.17300000000E+03 0.  1.
<mgrwt>
<rscale>  2 0.22878380E+03</rscale>
<asrwt>0</asrwt>
<pdfrwt beam="1">  1       21 0.51614726E-01 0.22878380E+03</pdfrwt>
<pdfrwt beam="2">  1       21 0.90416248E-01 0.22878380E+03</pdfrwt>
<totfact> 0.36026169E+03</totfact>
</mgrwt>
</event>
<event>
 4    1  0.4111182E+000  0.1745348E+03  0.7546771E-02  0.1173200E+00
         21   -1    0    0  501  502  0.00000000000E+00  0.00000000000E+00  0.10485751089E+04  0.10485751089E+04  0.00000000000E+00 0.  1.
         21   -1    0    0  502  503 -0.00000000000E+00 -0.00000000000E+00 -0.32877745529E+02  0.32877745529E+02  0.00000000000E+00 0.  1.
          6    1    1    2  501    0  0.15115354452E+02 -0.17461853191E+02  0.69231992188E+03  0.71398127741E+03  0.17300000000E+03 0.  1.
         -6    1    1    2    0  503 -0.15115354452E+02  0.17461853191E+02  0.32337744153E+03  0.36747157706E+03  0.17300000000E+03 0.  1.
<mgrwt>
<rscale>  2 0.17453478E+03</rscale>
<asrwt>0</asrwt>
<pdfrwt beam="1">  1       21 0.16131922E+00 0.17453478E+03</pdfrwt>
<pdfrwt beam="2">  1       21 0.50581155E-02 0.17453478E+03</pdfrwt>
<totfact> 0.65588459E+04</totfact>
</mgrwt>
</event>
<event>
 4    1  0.4111182E+000  0.1739347E+03  0.7546771E-02  0.1173806E+00
         21   -1    0    0  501  502  0.00000000000E+00  0.00000000000E+00  0.64995463826E+02  0.64995463826E+02  0.00000000000E+00 0. -1.
         21   -1    0    0  502  503 -0.00000000000E+00 -0.00000000000E+00 -0.49486083804E+03  0.49486083804E+03  0.00000000000E+00 0. -1.
          6    1    1    2  501    0  0.13249846285E+02  0.12195412975E+02 -0.14671008227E+03  0.22754589595E+03  0.17300000000E+03 0. -1.
         -6    1    1    2    0  503 -0.13249846285E+02 -0.12195412975E+02 -0.28315529194E+03  0.33231040591E+03  0.17300000000E+03 0. -1.
<mgrwt>
<rscale>  2 0.17393472E+03</rscale>
<asrwt>0</asrwt>
<pdfrwt beam="1">  1       21 0.99993018E-02 0.17393472E+03</pdfrwt>
<pdfrwt beam="2">  1       21 0.76132439E-01 0.17393472E+03</pdfrwt>
<totfact> 0.12563778E+05</totfact>
</mgrwt>
</event>
<event>
 4    1  0.4111182E+000  0.2507999E+03  0.7546771E-02  0.1112800E+00
         21   -1    0    0  501  502  0.00000000000E+00  0.00000000000E+00  0.67361256405E+03  0.67361256405E+03  0.00000000000E+00 0.  1.
         21   -1    0    0  502  503 -0.00000000000E+00 -0.00000000000E+00 -0.26945750514E+03  0.26945750514E+03  0.00000000000E+00 0. -1.
          6    1    1    2  501    0 -0.62142242635E+02  0.17061632279E+03  0.58325150290E+03  0.63488810318E+03  0.17300000000E+03 0.  1.
         -6    1    1    2    0  503  0.62142242635E+02 -0.17061632279E+03 -0.17909644399E+03  0.30818196601E+03  0.17300000000E+03 0. -1.
<mgrwt>
<rscale>  2 0.25079990E+03</rscale>
<asrwt>0</asrwt>
<pdfrwt beam="1">  1       21 0.10363270E+00 0.25079990E+03</pdfrwt>
<pdfrwt beam="2">  1       21 0.41455001E-01 0.25079990E+03</pdfrwt>
<totfact> 0.40470174E+03</totfact>
</mgrwt>
</event>
<event>
 4    1  0.4111182E+000  0.1791104E+03  0.7546771E-02  0.1168667E+00
         21   -1    0    0  503  502  0.00000000000E+00  0.00000000000E+00  0.55983701515E+03  0.55983701515E+03  0.00000000000E+00 0. -1.
         21   -1    0    0  501  503 -0.00000000000E+00 -0.00000000000E+00 -0.59132617514E+02  0.59132617514E+02  0.00000000000E+00 0. -1.
          6    1    1    2  501    0  0.35002090440E+02 -0.30436899962E+02  0.19591932428E+03  0.26545231746E+03  0.17300000000E+03 0. -1.
         -6    1    1    2    0  502 -0.35002090440E+02  0.30436899962E+02  0.30478507335E+03  0.35351731521E+03  0.17300000000E+03 0. -1.
<mgrwt>
<rscale>  2 0.17911044E+03</rscale>
<asrwt>0</asrwt>
<pdfrwt beam="1">  1       21 0.86128768E-01 0.17911044E+03</pdfrwt>
<pdfrwt beam="2">  1       21 0.90973261E-02 0.17911044E+03</pdfrwt>
<totfact> 0.11202310E+05</totfact>
</mgrwt>
</event>
<event>
 4    1  0.4111182E+000  0.2229843E+03  0.7546771E-02  0.1131677E+00
         21   -1    0    0  501  502  0.00000000000E+00  0.00000000000E+00  0.56076544544E+03  0.56076544544E+03  0.00000000000E+00 0.  1.
         21   -1    0    0  502  503 -0.00000000000E+00 -0.00000000000E+00 -0.11200404251E+03  0.11200404251E+03  0.00000000000E+00 0.  1.
          6    1    1    2  501    0 -0.12942067727E+03  0.55166157639E+02  0.37792438258E+03  0.43880389196E+03  0.17300000000E+03 0.  1.
         -6    1    1    2    0  503  0.12942067727E+03 -0.55166157639E+02  0.70837020346E+02  0.23396559599E+03  0.17300000000E+03 0.  1.
<mgrwt>
<rscale>  2 0.22298434E+03</rscale>
<asrwt>0</asrwt>
<pdfrwt beam="1">  1       21 0.86271605E-01 0.22298434E+03</pdfrwt>
<pdfrwt beam="2">  1       21 0.17231391E-01 0.22298434E+03</pdfrwt>
<totfact> 0.34684378E+04</totfact>
</mgrwt>
</event>
<event>
 4    1  0.4111182E+000  0.3571530E+03  0.7546771E-02  0.1059717E+00
         21   -1    0    0  503  502  0.00000000000E+00  0.00000000000E+00  0.11228932368E+04  0.11228932368E+04  0.00000000000E+00 0. -1.
         21   -1    0    0  501  503 -0.00000000000E+00 -0.00000000000E+00 -0.16068662206E+03  0.16068662206E+03  0.00000000000E+00 0. -1.
          6    1    1    2  501    0 -0.14890984449E+03  0.27469089777E+03  0.13367769748E+03  0.38135017754E+03  0.17300000000E+03 0. -1.
         -6    1    1    2    0  502  0.14890984449E+03 -0.27469089777E+03  0.82852891722E+03  0.90222968127E+03  0.17300000000E+03 0. -1.
<mgrwt>
<rscale>  2 0.35715295E+03</rscale>
<asrwt>0</asrwt>
<pdfrwt beam="1">  1       21 0.17275280E+00 0.35715295E+03</pdfrwt>
<pdfrwt beam="2">  1       21 0.24721019E-01 0.35715295E+03</pdfrwt>
<totfact> 0.28203693E+03</totfact>
</mgrwt>
</event>
<event>
 4    1  0.4111182E+000  0.1876783E+03  0.7546771E-02  0.1160572E+00
         21   -1    0    0  501  502  0.00000000000E+00  0.00000000000E+00  0.24355118889E+03  0.24355118889E+03  0.00000000000E+00 0.  1.
         21   -1    0    0  502  503 -0.00000000000E+00 -0.00000000000E+00 -0.17532511639E+03  0.17532511639E+03  0.00000000000E+00 0. -1.
          6    1    1    2  501    0 -0.54004774004E+01 -0.72560186611E+02  0.12175592035E+03  0.22371332096E+03  0.17300000000E+03 0.  1.
         -6    1    1    2    0  503  0.54004774004E+01  0.72560186611E+02 -0.53529847849E+02  0.19516298432E+03  0.17300000000E+03 0. -1.
<mgrwt>
<rscale>  2 0.18767830E+03</rscale>
<asrwt>0</asrwt>
<pdfrwt beam="1">  1       21 0.37469413E-01 0.18767830E+03</pdfrwt>
<pdfrwt beam="2">  1       21 0.26973095E-01 0.18767830E+03</pdfrwt>
<totfact> 0.90125494E+04</totfact>
</mgrwt>
</event>
<event>
 4    1  0.4111182E+000  0.2326159E+03  0.7546771E-02  0.1124812E+00
         21   -1    0    0  503  502  0.00000000000E+00  0.00000000000E+00  0.99087487289E+02  0.99087487289E+02  0.00000000000E+00 0. -1.
         21   -1    0    0  501  503 -0.00000000000E+00 -0.00000000000E+00 -0.56645096918E+03  0.56645096918E+03  0.00000000000E+00 0.  1.
          6    1    1    2  501    0  0.14001686855E+03  0.67649233683E+02 -0.17058314074E+03  0.28845926957E+03  0.17300000000E+03 0. -1.
         -6    1    1    2    0  502 -0.14001686855E+03 -0.67649233683E+02 -0.29678034115E+03  0.37707918690E+03  0.17300000000E+03 0.  1.
<mgrwt>
<rscale>  2 0.23261587E+03</rscale>
<asrwt>0</asrwt>
<pdfrwt beam="1">  1       21 0.15244229E-01 0.23261587E+03</pdfrwt>
<pdfrwt beam="2">  1       21 0.87146303E-01 0.23261587E+03</pdfrwt>
<totfact> 0.42259905E+04</totfact>
</mgrwt>
</event>
<event>
 4    1  0.4111182E+000  0.1901664E+03  0.7546771E-02  0.1158311E+00
         21   -1    0    0  503  502  0.00000000000E+00  0.00000000000E+00  0.83519074285E+03  0.83519074285E+03  0.00000000000E+00 0. -1.
         21   -1    0    0  501  503 -0.00000000000E+00 -0.00000000000E+00 -0.43893253137E+02  0.43893253137E+02  0.00000000000E+00 0. -1.
          6    1    1    2  501    0  0.78314128415E+02  0.10058140341E+02  0.34452339744E+03  0.39352209631E+03  0.17300000000E+03 0. -1.
         -6    1    1    2    0  502 -0.78314128415E+02 -0.10058140341E+02  0.44677409228E+03  0.48556189969E+03  0.17300000000E+03 0. -1.
<mgrwt>
<rscale>  2 0.19016642E+03</rscale>
<asrwt>0</asrwt>
<pdfrwt beam="1">  1       21 0.12849087E+00 0.19016642E+03</pdfrwt>
<pdfrwt beam="2">  1       21 0.67528088E-02 0.19016642E+03</pdfrwt>
<totfact> 0.71734316E+04</totfact>
</mgrwt>
</event>
<event>
 4    1  0.4111182E+000  0.2085357E+03  0.7546771E-02  0.1142731E+00
         21   -1    0    0  501  502  0.00000000000E+00  0.00000000000E+00  0.43460232360E+03  0.43460232360E+03  0.00000000000E+00 0.  1.
         21   -1    0    0  502  503 -0.00000000000E+00 -0.00000000000E+00 -0.11185875220E+03  0.11185875220E+03  0.00000000000E+00 0.  1.
          6    1    1    2  501    0 -0.56250992156E+02 -0.10195083004E+03  0.25010308251E+03  0.32563583609E+03  0.17300000000E+03 0.  1.
         -6    1    1    2    0  503  0.56250992156E+02  0.10195083004E+03  0.72640488891E+02  0.22082523970E+03  0.17300000000E+03 0.  1.
<mgrwt>
<rscale>  2 0.20853572E+03</rscale>
<asrwt>0</asrwt>
<pdfrwt beam="1">  1       21 0.66861895E-01 0.20853572E+03</pdfrwt>
<pdfrwt beam="2">  1       21 0.17209039E-01 0.20853572E+03</pdfrwt>
<totfact> 0.62048700E+04</totfact>
</mgrwt>
</event>
<event>
 4    1  0.4111182E+000  0.1825653E+03  0.7546771E-02  0.1165343E+00
         21   -1    0    0  501  502  0.00000000000E+00  0.00000000000E+00  0.19126372057E+02  0.19126372057E+02  0.00000000000E+00 0. -1.
         21   -1    0    0  502  503 -0.00000000000E+00 -0.00000000000E+00 -0.17630053833E+04  0.17630053833E+04  0.00000000000E+00 0.  1.
          6    1    1    2  501    0  0.51576018624E+02 -0.27221702006E+02 -0.77613584140E+03  0.79731860073E+03  0.17300000000E+03 0.  1.
         -6    1    1    2    0  503 -0.51576018624E+02  0.27221702006E+02 -0.96774316987E+03  0.98481315466E+03  0.17300000000E+03 0. -1.
<mgrwt>
<rscale>  2 0.18256535E+03</rscale>
<asrwt>0</asrwt>
<pdfrwt beam="1">  1       21 0.29425183E-02 0.18256535E+03</pdfrwt>
<pdfrwt beam="2">  1       21 0.27123164E+00 0.18256535E+03</pdfrwt>
<totfact> 0.32964159E+04</totfact>
</mgrwt>
</event>
<event>
 4    1  0.4111182E+000  0.1967628E+03  0.7546771E-02  0.1152499E+00
         21   -1    0    0  503  502  0.00000000000E+00  0.00000000000E+00  0.17162501873E+03  0.17162501873E+03  0.00000000000E+00 0.  1.
         21   -1    0    0  501  503 -0.00000000000E+00 -0.00000000000E+00 -0.47403504355E+03  0.47403504355E+03  0.00000000000E+00 0.  1.
          6    1    1    2  501    0 -0.54572619293E+02 -0.76212958333E+02 -0.38492212039E+03  0.43229691713E+03  0.17300000000E+03 0.  1.
         -6    1    1    2    0  502  0.54572619293E+02  0.76212958333E+02  0.82512095567E+02  0.21336314515E+03  0.17300000000E+03 0.  1.
<mgrwt>
<rscale>  2 0.19676277E+03</rscale>
<asrwt>0</asrwt>
<pdfrwt beam="1">  1       21 0.26403849E-01 0.19676277E+03</pdfrwt>
<pdfrwt beam="2">  1       21 0.72928468E-01 0.19676277E+03</pdfrwt>
<totfact> 0.23030916E+04</totfact>
</mgrwt>
</event>
<event>
 4    1  0.4111182E+000  0.2199728E+03  0.7546771E-02  0.1133903E+00
         21   -1    0    0  503  502  0.00000000000E+00  0.00000000000E+00  0.48443149866E+03  0.48443149866E+03  0.00000000000E+00 0.  1.
         21   -1    0    0  501  503 -0.00000000000E+00 -0.00000000000E+00 -0.10013309944E+03  0.10013309944E+03  0.00000000000E+00 0.  1.
          6    1    1    2  501    0  0.10949374711E+03 -0.80437170352E+02  0.17763549319E+03  0.28274084860E+03  0.17300000000E+03 0.  1.
         -6    1    1    2    0  502 -0.10949374711E+03  0.80437170352E+02  0.20666290603E+03  0.30182374949E+03  0.17300000000E+03 0.  1.
<mgrwt>
<rscale>  2 0.21997277E+03</rscale>
<asrwt>0</asrwt>
<pdfrwt beam="1">  1       21 0.74527921E-01 0.21997277E+03</pdfrwt>
<pdfrwt beam="2">  1       21 0.15405093E-01 0.21997277E+03</pdfrwt>
<totfact> 0.59498593E+04</totfact>
</mgrwt>
</event>
<event>
 4    1  0.4111182E+000  0.1769062E+03  0.7546771E-02  0.1170831E+00
         21   -1    0    0  501  502  0.00000000000E+00  0.00000000000E+00  0.53236451933E+02  0.53236451933E+02  0.00000000000E+00 0. -1.
         21   -1    0    0  502  503 -0.00000000000E+00 -0.00000000000E+00 -0.64712102748E+03  0.64712102748E+03  0.00000000000E+00 0. -1.
          6    1    1    2  501    0  0.26075487386E+02  0.26207960791E+02 -0.19097609837E+03  0.26032222034E+03  0.17300000000E+03 0. -1.
         -6    1    1    2    0  503 -0.26075487386E+02 -0.26207960791E+02 -0.40290847717E+03  0.44003525908E+03  0.17300000000E+03 0. -1.
<mgrwt>
<rscale>  2 0.17690616E+03</rscale>
<asrwt>0</asrwt>
<pdfrwt beam="1">  1       21 0.81902226E-02 0.17690616E+03</pdfrwt>
<pdfrwt beam="2">  1       21 0.99557091E-01 0.17690616E+03</pdfrwt>
<totfact> 0.96196706E+04</totfact>
</mgrwt>
</event>
<event>
 4    1  0.4111182E+000  0.1854361E+03  0.7546771E-02  0.1162643E+00
         21   -1    0    0  501  502  0.00000000000E+00  0.00000000000E+00  0.50772984795E+02  0.50772984795E+02  0.00000000000E+00 0.  1.
         21   -1    0    0  502  503 -0.00000000000E+00 -0.00000000000E+00 -0.70352733461E+03  0.70352733461E+03  0.00000000000E+00 0.  1.
          6    1    1    2  501    0  0.66017143717E+02  0.99640618992E+01 -0.25350256265E+03  0.31408612682E+03  0.17300000000E+03 0.  1.
         -6    1    1    2    0  503 -0.66017143717E+02 -0.99640618992E+01 -0.39925178717E+03  0.44021419258E+03  0.17300000000E+03 0.  1.
<mgrwt>
<rscale>  2 0.18543610E+03</rscale>
<asrwt>0</asrwt>
<pdfrwt beam="1">  1       21 0.78112281E-02 0.18543610E+03</pdfrwt>
<pdfrwt beam="2">  1       21 0.10823498E+00 0.18543610E+03</pdfrwt>
<totfact> 0.85223871E+04</totfact>
</mgrwt>
</event>
<event>
 4    1  0.4111182E+000  0.1826082E+03  0.7546771E-02  0.1165302E+00
         21   -1    0    0  503  502  0.00000000000E+00  0.00000000000E+00  0.20907951979E+03  0.20907951979E+03  0.00000000000E+00 0. -1.
         21   -1    0    0  501  503 -0.00000000000E+00 -0.00000000000E+00 -0.29848019394E+03  0.29848019394E+03  0.00000000000E+00 0. -1.
          6    1    1    2  501    0  0.38775634650E+02  0.43740149792E+02 -0.21787885774E+03  0.28428321653E+03  0.17300000000E+03 0. -1.
         -6    1    1    2    0  502 -0.38775634650E+02 -0.43740149792E+02  0.12847818359E+03  0.22327649721E+03  0.17300000000E+03 0. -1.
<mgrwt>
<rscale>  2 0.18260819E+03</rscale>
<asrwt>0</asrwt>
<pdfrwt beam="1">  1       21 0.32166080E-01 0.18260819E+03</pdfrwt>
<pdfrwt beam="2">  1       21 0.45920030E-01 0.18260819E+03</pdfrwt>
<totfact> 0.42469104E+04</totfact>
</mgrwt>
</event>
<event>
 4    1  0.4111182E+000  0.2815878E+03  0.7546771E-02  0.1094825E+00
         21   -1    0    0  501  502  0.00000000000E+00  0.00000000000E+00  0.19920685631E+03  0.19920685631E+03  0.00000000000E+00 0.  1.
         21   -1    0    0  502  503 -0.00000000000E+00 -0.00000000000E+00 -0.81328367921E+03  0.81328367921E+03  0.00000000000E+00 0.  1.
          6    1    1    2  501    0  0.21249821308E+03  0.64862964679E+02  0.54698681769E+02  0.28685125159E+03  0.17300000000E+03 0.  1.
         -6    1    1    2    0  503 -0.21249821308E+03 -0.64862964679E+02 -0.66877550467E+03  0.72563928394E+03  0.17300000000E+03 0.  1.
<mgrwt>
<rscale>  2 0.28158781E+03</rscale>
<asrwt>0</asrwt>
<pdfrwt beam="1">  1       21 0.30647208E-01 0.28158781E+03</pdfrwt>
<pdfrwt beam="2">  1       21 0.12512057E+00 0.28158781E+03</pdfrwt>
<totfact> 0.45729684E+03</totfact>
</mgrwt>
</event>
<event>
 4    1  0.4111182E+000  0.2400735E+03  0.7546771E-02  0.1119744E+00
         21   -1    0    0  503  502  0.00000000000E+00  0.00000000000E+00  0.48906033132E+02  0.48906033132E+02  0.00000000000E+00 0.  1.
         21   -1    0    0  501  503 -0.00000000000E+00 -0.00000000000E+00 -0.11790208936E+04  0.11790208936E+04  0.00000000000E+00 0.  1.
          6    1    1    2  501    0  0.15102466672E+03  0.69984538669E+02 -0.55203286654E+03  0.60197638770E+03  0.17300000000E+03 0.  1.
         -6    1    1    2    0  502 -0.15102466672E+03 -0.69984538669E+02 -0.57808199396E+03  0.62595053906E+03  0.17300000000E+03 0.  1.
<mgrwt>
<rscale>  2 0.24007350E+03</rscale>
<asrwt>0</asrwt>
<pdfrwt beam="1">  1       21 0.75240052E-02 0.24007350E+03</pdfrwt>
<pdfrwt beam="2">  1       21 0.18138783E+00 0.24007350E+03</pdfrwt>
<totfact> 0.23042072E+04</totfact>
</mgrwt>
</event>
<event>
 4    1  0.4111182E+000  0.1802898E+03  0.7546771E-02  0.1167523E+00
         21   -1    0    0  503  502  0.00000000000E+00  0.00000000000E+00  0.34881608245E+02  0.34881608245E+02  0.00000000000E+00 0. -1.
         21   -1    0    0  501  503 -0.00000000000E+00 -0.00000000000E+00 -0.10494269887E+04  0.10494269887E+04  0.00000000000E+00 0. -1.
          6    1    1    2  501    0 -0.83390861759E-03  0.50748483682E+02 -0.68874439246E+03  0.71195031199E+03  0.17300000000E+03 0. -1.
         -6    1    1    2    0  502  0.83390861759E-03 -0.50748483682E+02 -0.32580098799E+03  0.37235828495E+03  0.17300000000E+03 0. -1.
<mgrwt>
<rscale>  2 0.18028979E+03</rscale>
<asrwt>0</asrwt>
<pdfrwt beam="1">  1       21 0.53664008E-02 0.18028979E+03</pdfrwt>
<pdfrwt beam="2">  1       21 0.16145032E+00 0.18028979E+03</pdfrwt>
<totfact> 0.59002790E+04</totfact>
</mgrwt>
</event>
<event>
 4    1  0.4111182E+000  0.2273799E+03  0.7546771E-02  0.1128498E+00
         21   -1    0    0  501  502  0.00000000000E+00  0.00000000000E+00  0.31933768442E+03  0.31933768442E+03  0.00000000000E+00 0. -1.
         21   -1    0    0  502  503 -0.00000000000E+00 -0.00000000000E+00 -0.57282257474E+03  0.57282257474E+03  0.00000000000E+00 0. -1.
          6    1    1    2  501    0 -0.12866733597E+03 -0.72230995720E+02  0.25107451046E+03  0.33873294775E+03  0.17300000000E+03 0. -1.
         -6    1    1    2    0  503  0.12866733597E+03  0.72230995720E+02 -0.50455940078E+03  0.55342731140E+03  0.17300000000E+03 0. -1.
<mgrwt>
<rscale>  2 0.22737986E+03</rscale>
<asrwt>0</asrwt>
<pdfrwt beam="1">  1       21 0.49128875E-01 0.22737986E+03</pdfrwt>
<pdfrwt beam="2">  1       21 0.88126550E-01 0.22737986E+03</pdfrwt>
<totfact> 0.42447899E+03</totfact>
</mgrwt>
</event>
<event>
 4    1  0.4111182E+000  0.1749428E+03  0.7546771E-02  0.1172789E+00
         21   -1    0    0  501  502  0.00000000000E+00  0.00000000000E+00  0.40570431440E+02  0.40570431440E+02  0.00000000000E+00 0.  1.
         21   -1    0    0  502  503 -0.00000000000E+00 -0.00000000000E+00 -0.75442483679E+03  0.75442483679E+03  0.00000000000E+00 0.  1.
          6    1    1    2  501    0  0.18873109159E+02  0.17882843433E+02 -0.35344360782E+03  0.39436959093E+03  0.17300000000E+03 0.  1.
         -6    1    1    2    0  503 -0.18873109159E+02 -0.17882843433E+02 -0.36041079753E+03  0.40062567730E+03  0.17300000000E+03 0.  1.
<mgrwt>
<rscale>  2 0.17494282E+03</rscale>
<asrwt>0</asrwt>
<pdfrwt beam="1">  1       21 0.62416052E-02 0.17494282E+03</pdfrwt>
<pdfrwt beam="2">  1       21 0.11606535E+00 0.17494282E+03</pdfrwt>
<totfact> 0.10642952E+05</totfact>
</mgrwt>
</event>
<event>
 4    1  0.4111182E+000  0.2215790E+03  0.7546771E-02  0.1132711E+00
         21   -1    0    0  501  502  0.00000000000E+00  0.00000000000E+00  0.13205991781E+03  0.13205991781E+03  0.00000000000E+00 0.  1.
         21   -1    0    0  502  503 -0.00000000000E+00 -0.00000000000E+00 -0.48985844888E+03  0.48985844888E+03  0.00000000000E+00 0.  1.
          6    1    1    2  501    0  0.19871785956E+01  0.13843524525E+03 -0.26229516787E+02  0.22312609340E+03  0.17300000000E+03 0.  1.
         -6    1    1    2    0  503 -0.19871785956E+01 -0.13843524525E+03 -0.33156901428E+03  0.39879227329E+03  0.17300000000E+03 0.  1.
<mgrwt>
<rscale>  2 0.22157903E+03</rscale>
<asrwt>0</asrwt>
<pdfrwt beam="1">  1       21 0.20316910E-01 0.22157903E+03</pdfrwt>
<pdfrwt beam="2">  1       21 0.75362839E-01 0.22157903E+03</pdfrwt>
<totfact> 0.34726039E+04</totfact>
</mgrwt>
</event>
<event>
 4    1  0.4111182E+000  0.4800216E+03  0.7546771E-02  0.1019129E+00
         21   -1    0    0  501  502  0.00000000000E+00  0.00000000000E+00  0.38530098961E+03  0.38530098961E+03  0.00000000000E+00 0. -1.
         21   -1    0    0  502  503 -0.00000000000E+00 -0.00000000000E+00 -0.75073353573E+03  0.75073353573E+03  0.00000000000E+00 0.  1.
          6    1    1    2  501    0 -0.10540649201E+03  0.43517949254E+03  0.73464328848E+02  0.48561067420E+03  0.17300000000E+03 0. -1.
         -6    1    1    2    0  503  0.10540649201E+03 -0.43517949254E+03 -0.43889687496E+03  0.65042385114E+03  0.17300000000E+03 0.  1.
<mgrwt>
<rscale>  2 0.48002158E+03</rscale>
<asrwt>0</asrwt>
<pdfrwt beam="1">  1       21 0.59277076E-01 0.48002158E+03</pdfrwt>
<pdfrwt beam="2">  1       21 0.11549747E+00 0.48002158E+03</pdfrwt>
<totfact> 0.13020674E+03</totfact>
</mgrwt>
</event>
<event>
 4    1  0.4111182E+000  0.1790008E+03  0.7546771E-02  0.1168774E+00
         21   -1    0    0  501  502  0.00000000000E+00  0.00000000000E+00  0.46302327607E+02  0.46302327607E+02  0.00000000000E+00 0.  1.
         21   -1    0    0  502  503 -0.00000000000E+00 -0.00000000000E+00 -0.74858510411E+03  0.74858510411E+03  0.00000000000E+00 0.  1.
          6    1    1    2  501    0  0.10716802019E+01  0.45947049133E+02 -0.24187153115E+03  0.30090383414E+03  0.17300000000E+03 0.  1.
         -6    1    1    2    0  503 -0.10716802019E+01 -0.45947049133E+02 -0.46041124536E+03  0.49398359758E+03  0.17300000000E+03 0.  1.
<mgrwt>
<rscale>  2 0.17900078E+03</rscale>
<asrwt>0</asrwt>
<pdfrwt beam="1">  1       21 0.71234352E-02 0.17900078E+03</pdfrwt>
<pdfrwt beam="2">  1       21 0.11516694E+00 0.17900078E+03</pdfrwt>
<totfact> 0.86263176E+04</totfact>
</mgrwt>
</event>
<event>
 4    1  0.4111182E+000  0.1904916E+03  0.7546771E-02  0.1158019E+00
         21   -1    0    0  501  502  0.00000000000E+00  0.00000000000E+00  0.77822770205E+03  0.77822770205E+03  0.00000000000E+00 0.  1.
         21   -1    0    0  502  503 -0.00000000000E+00 -0.00000000000E+00 -0.54899960071E+02  0.54899960071E+02  0.00000000000E+00 0.  1.
          6    1    1    2  501    0  0.79401005504E+02 -0.73156522968E+01  0.52336209588E+03  0.55695145376E+03  0.17300000000E+03 0.  1.
         -6    1    1    2    0  503 -0.79401005504E+02  0.73156522968E+01  0.19996564610E+03  0.27617620836E+03  0.17300000000E+03 0.  1.
<mgrwt>
<rscale>  2 0.19049157E+03</rscale>
<asrwt>0</asrwt>
<pdfrwt beam="1">  1       21 0.11972733E+00 0.19049157E+03</pdfrwt>
<pdfrwt beam="2">  1       21 0.84461483E-02 0.19049157E+03</pdfrwt>
<totfact> 0.58041175E+04</totfact>
</mgrwt>
</event>
<event>
 4    1  0.4111182E+000  0.2171699E+03  0.7546771E-02  0.1136011E+00
         21   -1    0    0  501  502  0.00000000000E+00  0.00000000000E+00  0.13521392846E+03  0.13521392846E+03  0.00000000000E+00 0. -1.
         21   -1    0    0  502  503 -0.00000000000E+00 -0.00000000000E+00 -0.85406730416E+03  0.85406730416E+03  0.00000000000E+00 0. -1.
          6    1    1    2  501    0 -0.10711563470E+03 -0.75894572375E+02  0.21028859258E+02  0.21818560501E+03  0.17300000000E+03 0. -1.
         -6    1    1    2    0  503  0.10711563470E+03  0.75894572375E+02 -0.73988223496E+03  0.77109562761E+03  0.17300000000E+03 0. -1.
<mgrwt>
<rscale>  2 0.21716985E+03</rscale>
<asrwt>0</asrwt>
<pdfrwt beam="1">  1       21 0.20802143E-01 0.21716985E+03</pdfrwt>
<pdfrwt beam="2">  1       21 0.13139497E+00 0.21716985E+03</pdfrwt>
<totfact> 0.88638127E+03</totfact>
</mgrwt>
</event>
<event>
 4    1  0.4111182E+000  0.2245352E+03  0.7546771E-02  0.1130546E+00
         21   -1    0    0  503  502  0.00000000000E+00  0.00000000000E+00  0.21766905053E+03  0.21766905053E+03  0.00000000000E+00 0.  1.
         21   -1    0    0  501  503 -0.00000000000E+00 -0.00000000000E+00 -0.40149003007E+03  0.40149003007E+03  0.00000000000E+00 0.  1.
          6    1    1    2  501    0 -0.10922415162E+03 -0.92504905861E+02 -0.29328096298E+03  0.36936404285E+03  0.17300000000E+03 0.  1.
         -6    1    1    2    0  502  0.10922415162E+03  0.92504905861E+02  0.10945998344E+03  0.24979503774E+03  0.17300000000E+03 0.  1.
<mgrwt>
<rscale>  2 0.22453524E+03</rscale>
<asrwt>0</asrwt>
<pdfrwt beam="1">  1       21 0.33487546E-01 0.22453524E+03</pdfrwt>
<pdfrwt beam="2">  1       21 0.61767697E-01 0.22453524E+03</pdfrwt>
<totfact> 0.20526095E+04</totfact>
</mgrwt>
</event>
<event>
 4    1  0.4111182E+000  0.2257259E+03  0.7546771E-02  0.1129685E+00
         21   -1    0    0  501  502  0.00000000000E+00  0.00000000000E+00  0.21880609205E+04  0.21880609205E+04  0.00000000000E+00 0.  1.
         21   -1    0    0  502  503 -0.00000000000E+00 -0.00000000000E+00 -0.23718094423E+02  0.23718094423E+02  0.00000000000E+00 0. -1.
          6    1    1    2  501    0  0.27608959319E+02  0.14234081524E+03  0.12313604651E+04  0.12518788909E+04  0.17300000000E+03 0. -1.
         -6    1    1    2    0  503 -0.27608959319E+02 -0.14234081524E+03  0.93298236092E+03  0.95990012403E+03  0.17300000000E+03 0.  1.
<mgrwt>
<rscale>  2 0.22572586E+03</rscale>
<asrwt>0</asrwt>
<pdfrwt beam="1">  1       21 0.33662460E+00 0.22572586E+03</pdfrwt>
<pdfrwt beam="2">  1       21 0.36489393E-02 0.22572586E+03</pdfrwt>
<totfact> 0.92330413E+03</totfact>
</mgrwt>
</event>
<event>
 4    1  0.4111182E+000  0.1767340E+03  0.7546771E-02  0.1171002E+00
         21   -1    0    0  503  502  0.00000000000E+00  0.00000000000E+00  0.28635287758E+03  0.28635287758E+03  0.00000000000E+00 0. -1.
         21   -1    0    0  501  503 -0.00000000000E+00 -0.00000000000E+00 -0.24445464861E+03  0.24445464861E+03  0.00000000000E+00 0. -1.
          6    1    1    2  501    0 -0.21385481979E+02 -0.29129990164E+02 -0.17655641902E+03  0.24981405938E+03  0.17300000000E+03 0. -1.
         -6    1    1    2    0  502  0.21385481979E+02  0.29129990164E+02  0.21845464799E+03  0.28099346682E+03  0.17300000000E+03 0. -1.
<mgrwt>
<rscale>  2 0.17673397E+03</rscale>
<asrwt>0</asrwt>
<pdfrwt beam="1">  1       21 0.44054289E-01 0.17673397E+03</pdfrwt>
<pdfrwt beam="2">  1       21 0.37608407E-01 0.17673397E+03</pdfrwt>
<totfact> 0.34033677E+04</totfact>
</mgrwt>
</event>
<event>
 4    1  0.4111182E+000  0.1744809E+03  0.7546771E-02  0.1173254E+00
         21   -1    0    0  503  502  0.00000000000E+00  0.00000000000E+00  0.63229299799E+02  0.63229299799E+02  0.00000000000E+00 0.  1.
         21   -1    0    0  501  503 -0.00000000000E+00 -0.00000000000E+00 -0.69682536389E+03  0.69682536389E+03  0.00000000000E+00 0.  1.
          6    1    1    2  501    0  0.22204856366E+02  0.46402907909E+01 -0.52806008845E+03  0.55613941144E+03  0.17300000000E+03 0.  1.
         -6    1    1    2    0  502 -0.22204856366E+02 -0.46402907909E+01 -0.10553597564E+03  0.20391525225E+03  0.17300000000E+03 0.  1.
<mgrwt>
<rscale>  2 0.17448091E+03</rscale>
<asrwt>0</asrwt>
<pdfrwt beam="1">  1       21 0.97275845E-02 0.17448091E+03</pdfrwt>
<pdfrwt beam="2">  1       21 0.10720390E+00 0.17448091E+03</pdfrwt>
<totfact> 0.59742147E+04</totfact>
</mgrwt>
</event>
<event>
 4    1  0.4111182E+000  0.1835690E+03  0.7546771E-02  0.1164393E+00
         21   -1    0    0  501  502  0.00000000000E+00  0.00000000000E+00  0.10202858353E+03  0.10202858353E+03  0.00000000000E+00 0.  1.
         21   -1    0    0  502  503 -0.00000000000E+00 -0.00000000000E+00 -0.38064790843E+03  0.38064790843E+03  0.00000000000E+00 0.  1.
          6    1    1    2  501    0  0.52791274212E+02  0.31331601155E+02 -0.51516877757E+02  0.19066089415E+03  0.17300000000E+03 0.  1.
         -6    1    1    2    0  503 -0.52791274212E+02 -0.31331601155E+02 -0.22710244715E+03  0.29201559781E+03  0.17300000000E+03 0.  1.
<mgrwt>
<rscale>  2 0.18356903E+03</rscale>
<asrwt>0</asrwt>
<pdfrwt beam="1">  1       21 0.15696705E-01 0.18356903E+03</pdfrwt>
<pdfrwt beam="2">  1       21 0.58561217E-01 0.18356903E+03</pdfrwt>
<totfact> 0.98907189E+04</totfact>
</mgrwt>
</event>
<event>
 4    1  0.4111182E+000  0.2034178E+03  0.7546771E-02  0.1146887E+00
         21   -1    0    0  503  502  0.00000000000E+00  0.00000000000E+00  0.20614981020E+03  0.20614981020E+03  0.00000000000E+00 0. -1.
         21   -1    0    0  501  503 -0.00000000000E+00 -0.00000000000E+00 -0.27251676160E+03  0.27251676160E+03  0.00000000000E+00 0. -1.
          6    1    1    2  501    0 -0.78217250922E+02 -0.73019720133E+02 -0.15602710612E+03  0.25636551194E+03  0.17300000000E+03 0. -1.
         -6    1    1    2    0  502  0.78217250922E+02  0.73019720133E+02  0.89660154722E+02  0.22230105986E+03  0.17300000000E+03 0. -1.
<mgrwt>
<rscale>  2 0.20341784E+03</rscale>
<asrwt>0</asrwt>
<pdfrwt beam="1">  1       21 0.31715355E-01 0.20341784E+03</pdfrwt>
<pdfrwt beam="2">  1       21 0.41925656E-01 0.20341784E+03</pdfrwt>
<totfact> 0.52070125E+04</totfact>
</mgrwt>
</event>
<event>
 4    1  0.4111182E+000  0.2654062E+03  0.7546771E-02  0.1103938E+00
         21   -1    0    0  501  502  0.00000000000E+00  0.00000000000E+00  0.31922299398E+03  0.31922299398E+03  0.00000000000E+00 0.  1.
         21   -1    0    0  502  503 -0.00000000000E+00 -0.00000000000E+00 -0.31998196997E+03  0.31998196997E+03  0.00000000000E+00 0.  1.
          6    1    1    2  501    0  0.17333365586E+03  0.10230773662E+03  0.17768010300E+03  0.31939105847E+03  0.17300000000E+03 0.  1.
         -6    1    1    2    0  503 -0.17333365586E+03 -0.10230773662E+03 -0.17843907899E+03  0.31981390548E+03  0.17300000000E+03 0.  1.
<mgrwt>
<rscale>  2 0.26540616E+03</rscale>
<asrwt>0</asrwt>
<pdfrwt beam="1">  1       21 0.49111230E-01 0.26540616E+03</pdfrwt>
<pdfrwt beam="2">  1       21 0.49227995E-01 0.26540616E+03</pdfrwt>
<totfact> 0.14948164E+04</totfact>
</mgrwt>
</event>
<event>
 4    1  0.4111182E+000  0.1906681E+03  0.7546771E-02  0.1157860E+00
         21   -1    0    0  501  502  0.00000000000E+00  0.00000000000E+00  0.47246117564E+02  0.47246117564E+02  0.00000000000E+00 0. -1.
         21   -1    0    0  502  503 -0.00000000000E+00 -0.00000000000E+00 -0.82008714961E+03  0.82008714961E+03  0.00000000000E+00 0. -1.
          6    1    1    2  501    0  0.30323294594E+02  0.74201142335E+02 -0.27867747555E+03  0.33766173473E+03  0.17300000000E+03 0.  1.
         -6    1    1    2    0  503 -0.30323294594E+02 -0.74201142335E+02 -0.49416355650E+03  0.52967153245E+03  0.17300000000E+03 0.  1.
<mgrwt>
<rscale>  2 0.19066807E+03</rscale>
<asrwt>0</asrwt>
<pdfrwt beam="1">  1       21 0.72686335E-02 0.19066807E+03</pdfrwt>
<pdfrwt beam="2">  1       21 0.12616725E+00 0.19066807E+03</pdfrwt>
<totfact> 0.66118693E+04</totfact>
</mgrwt>
</event>
<event>
 4    1  0.4111182E+000  0.2057859E+03  0.7546771E-02  0.1144947E+00
         21   -1    0    0  503  502  0.00000000000E+00  0.00000000000E+00  0.10889114478E+03  0.10889114478E+03  0.00000000000E+00 0.  1.
         21   -1    0    0  501  503 -0.00000000000E+00 -0.00000000000E+00 -0.44518305957E+03  0.44518305957E+03  0.00000000000E+00 0.  1.
          6    1    1    2  501    0 -0.10744778503E+03  0.29560135597E+02 -0.26665027708E+03  0.33682369036E+03  0.17300000000E+03 0.  1.
         -6    1    1    2    0  502  0.10744778503E+03 -0.29560135597E+02 -0.69641637712E+02  0.21725051398E+03  0.17300000000E+03 0.  1.
<mgrwt>
<rscale>  2 0.20578588E+03</rscale>
<asrwt>0</asrwt>
<pdfrwt beam="1">  1       21 0.16752484E-01 0.20578588E+03</pdfrwt>
<pdfrwt beam="2">  1       21 0.68489702E-01 0.20578588E+03</pdfrwt>
<totfact> 0.61923748E+04</totfact>
</mgrwt>
</event>
<event>
 4    1  0.4111182E+000  0.1905866E+03  0.7546771E-02  0.1157933E+00
         21   -1    0    0  501  502  0.00000000000E+00  0.00000000000E+00  0.13857902598E+02  0.13857902598E+02  0.00000000000E+00 0.  1.
         21   -1    0    0  502  503 -0.00000000000E+00 -0.00000000000E+00 -0.27124226435E+04  0.27124226435E+04  0.00000000000E+00 0.  1.
          6    1    1    2  501    0  0.71630076556E+02  0.35544177724E+02 -0.10991912560E+04  0.11155916250E+04  0.17300000000E+03 0.  1.
         -6    1    1    2    0  503 -0.71630076556E+02 -0.35544177724E+02 -0.15993734849E+04  0.16106889211E+04  0.17300000000E+03 0.  1.
<mgrwt>
<rscale>  2 0.19058661E+03</rscale>
<asrwt>0</asrwt>
<pdfrwt beam="1">  1       21 0.21319869E-02 0.19058661E+03</pdfrwt>
<pdfrwt beam="2">  1       21 0.41729542E+00 0.19058661E+03</pdfrwt>
<totfact> 0.75433730E+03</totfact>
</mgrwt>
</event>
<event>
 4    1  0.4111182E+000  0.1986662E+03  0.7546771E-02  0.1150869E+00
         21   -1    0    0  501  502  0.00000000000E+00  0.00000000000E+00  0.10940185376E+04  0.10940185376E+04  0.00000000000E+00 0.  1.
         21   -1    0    0  502  503 -0.00000000000E+00 -0.00000000000E+00 -0.10029621790E+03  0.10029621790E+03  0.00000000000E+00 0.  1.
          6    1    1    2  501    0  0.97623815390E+01 -0.97180030530E+02  0.97469953139E+03  0.99473988506E+03  0.17300000000E+03 0.  1.
         -6    1    1    2    0  503 -0.97623815390E+01  0.97180030530E+02  0.19022788290E+02  0.19957487042E+03  0.17300000000E+03 0.  1.
<mgrwt>
<rscale>  2 0.19866621E+03</rscale>
<asrwt>0</asrwt>
<pdfrwt beam="1">  1       21 0.16831054E+00 0.19866621E+03</pdfrwt>
<pdfrwt beam="2">  1       21 0.15430188E-01 0.19866621E+03</pdfrwt>
<totfact> 0.81314301E+03</totfact>
</mgrwt>
</event>
<event>
 4    1  0.4111182E+000  0.2453350E+03  0.7546771E-02  0.1116289E+00
         21   -1    0    0  503  502  0.00000000000E+00  0.00000000000E+00  0.26397300026E+03  0.26397300026E+03  0.00000000000E+00 0. -1.
         21   -1    0    0  501  503 -0.00000000000E+00 -0.00000000000E+00 -0.22941599843E+03  0.22941599843E+03  0.00000000000E+00 0. -1.
          6    1    1    2  501    0 -0.10969145598E+03 -0.13501132061E+03 -0.20135438238E+01  0.24534328311E+03  0.17300000000E+03 0. -1.
         -6    1    1    2    0  502  0.10969145598E+03  0.13501132061E+03  0.36570545655E+02  0.24804571558E+03  0.17300000000E+03 0. -1.
<mgrwt>
<rscale>  2 0.24533502E+03</rscale>
<asrwt>0</asrwt>
<pdfrwt beam="1">  1       21 0.40611231E-01 0.24533502E+03</pdfrwt>
<pdfrwt beam="2">  1       21 0.35294769E-01 0.24533502E+03</pdfrwt>
<totfact> 0.44123418E+04</totfact>
</mgrwt>
</event>
<event>
 4    1  0.4111182E+000  0.3204015E+03  0.7546771E-02  0.1075465E+00
         21   -1    0    0  503  502  0.00000000000E+00  0.00000000000E+00  0.54668079612E+03  0.54668079612E+03  0.00000000000E+00 0.  1.
         21   -1    0    0  501  503 -0.00000000000E+00 -0.00000000000E+00 -0.26479920549E+03  0.26479920549E+03  0.00000000000E+00 0. -1.
          6    1    1    2  501    0 -0.21899671718E+02 -0.26879081204E+03 -0.77876630965E+02  0.32972998940E+03  0.17300000000E+03 0. -1.
         -6    1    1    2    0  502  0.21899671718E+02  0.26879081204E+03  0.35975822160E+03  0.48175001221E+03  0.17300000000E+03 0. -1.
<mgrwt>
<rscale>  2 0.32040146E+03</rscale>
<asrwt>0</asrwt>
<pdfrwt beam="1">  1       21 0.84104738E-01 0.32040146E+03</pdfrwt>
<pdfrwt beam="2">  1       21 0.40738339E-01 0.32040146E+03</pdfrwt>
<totfact> 0.66120741E+03</totfact>
</mgrwt>
</event>
<event>
 4    1  0.4111182E+000  0.2454059E+03  0.7546771E-02  0.1116243E+00
         21   -1    0    0  503  502  0.00000000000E+00  0.00000000000E+00  0.79130226633E+03  0.79130226633E+03  0.00000000000E+00 0.  1.
         21   -1    0    0  501  503 -0.00000000000E+00 -0.00000000000E+00 -0.79211173891E+02  0.79211173891E+02  0.00000000000E+00 0. -1.
          6    1    1    2  501    0  0.14505930312E+03  0.96191793226E+02  0.26988904237E+03  0.36477960153E+03  0.17300000000E+03 0.  1.
         -6    1    1    2    0  502 -0.14505930312E+03 -0.96191793226E+02  0.44220205008E+03  0.50573383869E+03  0.17300000000E+03 0.  1.
<mgrwt>
<rscale>  2 0.24540591E+03</rscale>
<asrwt>0</asrwt>
<pdfrwt beam="1">  1       21 0.12173881E+00 0.24540591E+03</pdfrwt>
<pdfrwt beam="2">  1       21 0.12186335E-01 0.24540591E+03</pdfrwt>
<totfact> 0.28256248E+04</totfact>
</mgrwt>
</event>
<event>
 4    1  0.4111182E+000  0.2046715E+03  0.7546771E-02  0.1145856E+00
         21   -1    0    0  501  502  0.00000000000E+00  0.00000000000E+00  0.47592522138E+03  0.47592522138E+03  0.00000000000E+00 0.  1.
         21   -1    0    0  502  503 -0.00000000000E+00 -0.00000000000E+00 -0.13504858189E+03  0.13504858189E+03  0.00000000000E+00 0.  1.
          6    1    1    2  501    0  0.63801660758E+02  0.88830107201E+02  0.35071242715E+03  0.40606606164E+03  0.17300000000E+03 0.  1.
         -6    1    1    2    0  503 -0.63801660758E+02 -0.88830107201E+02 -0.98357876643E+01  0.20490774163E+03  0.17300000000E+03 0.  1.
<mgrwt>
<rscale>  2 0.20467154E+03</rscale>
<asrwt>0</asrwt>
<pdfrwt beam="1">  1       21 0.73219264E-01 0.20467154E+03</pdfrwt>
<pdfrwt beam="2">  1       21 0.20776705E-01 0.20467154E+03</pdfrwt>
<totfact> 0.35822997E+04</totfact>
</mgrwt>
</event>
<event>
 4    1  0.4111182E+000  0.1831065E+03  0.7546771E-02  0.1164830E+00
         21   -1    0    0  501  502  0.00000000000E+00  0.00000000000E+00  0.77221480850E+02  0.77221480850E+02  0.00000000000E+00 0. -1.
         21   -1    0    0  502  503 -0.00000000000E+00 -0.00000000000E+00 -0.77676993531E+03  0.77676993531E+03  0.00000000000E+00 0. -1.
          6    1    1    2  501    0  0.48891109123E+02 -0.34765862068E+02 -0.66201314559E+02  0.19470649647E+03  0.17300000000E+03 0. -1.
         -6    1    1    2    0  503 -0.48891109123E+02  0.34765862068E+02 -0.63334713990E+03  0.65928491970E+03  0.17300000000E+03 0. -1.
<mgrwt>
<rscale>  2 0.18310654E+03</rscale>
<asrwt>0</asrwt>
<pdfrwt beam="1">  1       21 0.11880228E-01 0.18310654E+03</pdfrwt>
<pdfrwt beam="2">  1       21 0.11950306E+00 0.18310654E+03</pdfrwt>
<totfact> 0.32052082E+04</totfact>
</mgrwt>
</event>
<event>
 4    1  0.4111182E+000  0.1903835E+03  0.7546771E-02  0.1158116E+00
         21   -1    0    0  503  502  0.00000000000E+00  0.00000000000E+00  0.90223262398E+02  0.90223262398E+02  0.00000000000E+00 0. -1.
         21   -1    0    0  501  503 -0.00000000000E+00 -0.00000000000E+00 -0.50227691577E+03  0.50227691577E+03  0.00000000000E+00 0. -1.
          6    1    1    2  501    0  0.78938903638E+02  0.92470957598E+01 -0.33857082035E+03  0.38842767626E+03  0.17300000000E+03 0. -1.
         -6    1    1    2    0  502 -0.78938903638E+02 -0.92470957598E+01 -0.73482833017E+02  0.20407250191E+03  0.17300000000E+03 0. -1.
<mgrwt>
<rscale>  2 0.19038345E+03</rscale>
<asrwt>0</asrwt>
<pdfrwt beam="1">  1       21 0.13880502E-01 0.19038345E+03</pdfrwt>
<pdfrwt beam="2">  1       21 0.77273371E-01 0.19038345E+03</pdfrwt>
<totfact> 0.67225934E+04</totfact>
</mgrwt>
</event>
<event>
 4    1  0.4111182E+000  0.1824486E+03  0.7546771E-02  0.1165454E+00
         21   -1    0    0  503  502  0.00000000000E+00  0.00000000000E+00  0.77339097316E+03  0.77339097316E+03  0.00000000000E+00 0.  1.
         21   -1    0    0  501  503 -0.00000000000E+00 -0.00000000000E+00 -0.14285912102E+03  0.14285912102E+03  0.00000000000E+00 0.  1.
          6    1    1    2  501    0 -0.56885429791E+02  0.11069411051E+02 -0.67677703089E+02  0.19459639123E+03  0.17300000000E+03 0.  1.
         -6    1    1    2    0  502  0.56885429791E+02 -0.11069411051E+02  0.69820955522E+03  0.72165370295E+03  0.17300000000E+03 0.  1.
<mgrwt>
<rscale>  2 0.18244858E+03</rscale>
<asrwt>0</asrwt>
<pdfrwt beam="1">  1       21 0.11898322E+00 0.18244858E+03</pdfrwt>
<pdfrwt beam="2">  1       21 0.21978327E-01 0.18244858E+03</pdfrwt>
<totfact> 0.10507325E+04</totfact>
</mgrwt>
</event>
<event>
 4    1  0.4111182E+000  0.1980013E+03  0.7546771E-02  0.1151436E+00
         21   -1    0    0  501  502  0.00000000000E+00  0.00000000000E+00  0.65760425008E+03  0.65760425008E+03  0.00000000000E+00 0.  1.
         21   -1    0    0  502  503 -0.00000000000E+00 -0.00000000000E+00 -0.62042476673E+02  0.62042476673E+02  0.00000000000E+00 0.  1.
          6    1    1    2  501    0 -0.41862568733E+02  0.86735409985E+02  0.36892318704E+03  0.41869896578E+03  0.17300000000E+03 0.  1.
         -6    1    1    2    0  503  0.41862568733E+02 -0.86735409985E+02  0.22663858636E+03  0.30094776097E+03  0.17300000000E+03 0.  1.
<mgrwt>
<rscale>  2 0.19800128E+03</rscale>
<asrwt>0</asrwt>
<pdfrwt beam="1">  1       21 0.10116988E+00 0.19800128E+03</pdfrwt>
<pdfrwt beam="2">  1       21 0.95449969E-02 0.19800128E+03</pdfrwt>
<totfact> 0.70167392E+04</totfact>
</mgrwt>
</event>
<event>
 4    1  0.4111182E+000  0.1834719E+03  0.7546771E-02  0.1164485E+00
         21   -1    0    0  501  502  0.00000000000E+00  0.00000000000E+00  0.17856113640E+03  0.17856113640E+03  0.00000000000E+00 0.  1.
         21   -1    0    0  502  503 -0.00000000000E+00 -0.00000000000E+00 -0.19109225597E+03  0.19109225597E+03  0.00000000000E+00 0. -1.
          6    1    1    2  501    0 -0.31401832695E+02  0.52410652655E+02  0.15187357537E+02  0.18409944986E+03  0.17300000000E+03 0. -1.
         -6    1    1    2    0  503  0.31401832695E+02 -0.52410652655E+02 -0.27718477105E+02  0.18555394251E+03  0.17300000000E+03 0. -1.
<mgrwt>
<rscale>  2 0.18347194E+03</rscale>
<asrwt>0</asrwt>
<pdfrwt beam="1">  1       21 0.27470944E-01 0.18347194E+03</pdfrwt>
<pdfrwt beam="2">  1       21 0.29398808E-01 0.18347194E+03</pdfrwt>
<totfact> 0.14054064E+05</totfact>
</mgrwt>
</event>
<event>
 4    1  0.4111182E+000  0.1869663E+03  0.7546771E-02  0.1161226E+00
         21   -1    0    0  503  502  0.00000000000E+00  0.00000000000E+00  0.87961585094E+03  0.87961585094E+03  0.00000000000E+00 0. -1.
         21   -1    0    0  501  503 -0.00000000000E+00 -0.00000000000E+00 -0.48503207109E+02  0.48503207109E+02  0.00000000000E+00 0. -1.
          6    1    1    2  501    0  0.29904622882E+02 -0.64289379142E+02  0.21831106346E+03  0.28743021965E+03  0.17300000000E+03 0. -1.
         -6    1    1    2    0  502 -0.29904622882E+02  0.64289379142E+02  0.61280158038E+03  0.64068883840E+03  0.17300000000E+03 0. -1.
<mgrwt>
<rscale>  2 0.18696634E+03</rscale>
<asrwt>0</asrwt>
<pdfrwt beam="1">  1       21 0.13532550E+00 0.18696634E+03</pdfrwt>
<pdfrwt beam="2">  1       21 0.74620325E-02 0.18696634E+03</pdfrwt>
<totfact> 0.53035055E+04</totfact>
</mgrwt>
</event>
<event>
 4    1  0.4111182E+000  0.1815107E+03  0.7546771E-02  0.1166349E+00
         21   -1    0    0  503  502  0.00000000000E+00  0.00000000000E+00  0.31577862287E+03  0.31577862287E+03  0.00000000000E+00 0.  1.
         21   -1    0    0  501  503 -0.00000000000E+00 -0.00000000000E+00 -0.17446053589E+03  0.17446053589E+03  0.00000000000E+00 0.  1.
          6    1    1    2  501    0  0.45645590241E+02 -0.30555071939E+02 -0.84749066496E+02  0.20032108377E+03  0.17300000000E+03 0.  1.
         -6    1    1    2    0  502 -0.45645590241E+02  0.30555071939E+02  0.22606715347E+03  0.28991807499E+03  0.17300000000E+03 0.  1.
<mgrwt>
<rscale>  2 0.18151069E+03</rscale>
<asrwt>0</asrwt>
<pdfrwt beam="1">  1       21 0.48581327E-01 0.18151069E+03</pdfrwt>
<pdfrwt beam="2">  1       21 0.26840082E-01 0.18151069E+03</pdfrwt>
<totfact> 0.53755741E+04</totfact>
</mgrwt>
</event>
<event>
 4    1  0.4111182E+000  0.1944200E+03  0.7546771E-02  0.1154534E+00
         21   -1    0    0  503  502  0.00000000000E+00  0.00000000000E+00  0.23999226860E+03  0.23999226860E+03  0.00000000000E+00 0. -1.
         21   -1    0    0  501  503 -0.00000000000E+00 -0.00000000000E+00 -0.15922549451E+03  0.15922549451E+03  0.00000000000E+00 0. -1.
          6    1    1    2  501    0 -0.86785315752E+02  0.18397124648E+02  0.61153552597E+02  0.20381094725E+03  0.17300000000E+03 0. -1.
         -6    1    1    2    0  502  0.86785315752E+02 -0.18397124648E+02  0.19613221501E+02  0.19540681586E+03  0.17300000000E+03 0. -1.
<mgrwt>
<rscale>  2 0.19442002E+03</rscale>
<asrwt>0</asrwt>
<pdfrwt beam="1">  1       21 0.36921887E-01 0.19442002E+03</pdfrwt>
<pdfrwt beam="2">  1       21 0.24496230E-01 0.19442002E+03</pdfrwt>
<totfact> 0.11133060E+05</totfact>
</mgrwt>
</event>
<event>
 4    1  0.4111182E+000  0.1808935E+03  0.7546771E-02  0.1166941E+00
         21   -1    0    0  501  502  0.00000000000E+00  0.00000000000E+00  0.55397581094E+03  0.55397581094E+03  0.00000000000E+00 0. -1.
         21   -1    0    0  502  503 -0.00000000000E+00 -0.00000000000E+00 -0.89280486848E+02  0.89280486848E+02  0.00000000000E+00 0. -1.
          6    1    1    2  501    0 -0.32177356972E+02 -0.41929462481E+02  0.41944438168E+03  0.45678884778E+03  0.17300000000E+03 0. -1.
         -6    1    1    2    0  503  0.32177356972E+02  0.41929462481E+02  0.45250942409E+02  0.18646745001E+03  0.17300000000E+03 0. -1.
<mgrwt>
<rscale>  2 0.18089351E+03</rscale>
<asrwt>0</asrwt>
<pdfrwt beam="1">  1       21 0.85227045E-01 0.18089351E+03</pdfrwt>
<pdfrwt beam="2">  1       21 0.13735460E-01 0.18089351E+03</pdfrwt>
<totfact> 0.55121529E+04</totfact>
</mgrwt>
</event>
<event>
 4    1  0.4111182E+000  0.2363762E+03  0.7546771E-02  0.1122231E+00
         21   -1    0    0  501  502  0.00000000000E+00  0.00000000000E+00  0.20403403179E+04  0.20403403179E+04  0.00000000000E+00 0. -1.
         21   -1    0    0  502  503 -0.00000000000E+00 -0.00000000000E+00 -0.58344819497E+02  0.58344819497E+02  0.00000000000E+00 0.  1.
          6    1    1    2  501    0  0.13112842487E+03 -0.93541600278E+02  0.17553945730E+04  0.17712379291E+04  0.17300000000E+03 0. -1.
         -6    1    1    2    0  503 -0.13112842487E+03  0.93541600278E+02  0.22660092544E+03  0.32744720826E+03  0.17300000000E+03 0.  1.
<mgrwt>
<rscale>  2 0.23637617E+03</rscale>
<asrwt>0</asrwt>
<pdfrwt beam="1">  1       21 0.31389846E+00 0.23637617E+03</pdfrwt>
<pdfrwt beam="2">  1       21 0.89761277E-02 0.23637617E+03</pdfrwt>
<totfact> 0.26485863E+03</totfact>
</mgrwt>
</event>
<event>
 4    1  0.4111182E+000  0.3258798E+03  0.7546771E-02  0.1072975E+00
         21   -1    0    0  501  502  0.00000000000E+00  0.00000000000E+00  0.31793851134E+03  0.31793851134E+03  0.00000000000E+00 0.  1.
         21   -1    0    0  502  503 -0.00000000000E+00 -0.00000000000E+00 -0.38298704996E+03  0.38298704996E+03  0.00000000000E+00 0.  1.
          6    1    1    2  501    0 -0.25682594322E+03  0.10153350328E+03  0.92791197329E+02  0.33883303219E+03  0.17300000000E+03 0.  1.
         -6    1    1    2    0  503  0.25682594322E+03 -0.10153350328E+03 -0.15783973594E+03  0.36209252911E+03  0.17300000000E+03 0.  1.
<mgrwt>
<rscale>  2 0.32587976E+03</rscale>
<asrwt>0</asrwt>
<pdfrwt beam="1">  1       21 0.48913617E-01 0.32587976E+03</pdfrwt>
<pdfrwt beam="2">  1       21 0.58921084E-01 0.32587976E+03</pdfrwt>
<totfact> 0.10005191E+04</totfact>
</mgrwt>
</event>
<event>
 4    1  0.4111182E+000  0.2298221E+03  0.7546771E-02  0.1126765E+00
         21   -1    0    0  501  502  0.00000000000E+00  0.00000000000E+00  0.42089071898E+02  0.42089071898E+02  0.00000000000E+00 0.  1.
         21   -1    0    0  502  503 -0.00000000000E+00 -0.00000000000E+00 -0.13210209627E+04  0.13210209627E+04  0.00000000000E+00 0. -1.
          6    1    1    2  501    0  0.96535783025E+02  0.11649052140E+03 -0.48700203331E+03  0.53850643397E+03  0.17300000000E+03 0.  1.
         -6    1    1    2    0  503 -0.96535783025E+02 -0.11649052140E+03 -0.79192985750E+03  0.82460360064E+03  0.17300000000E+03 0. -1.
<mgrwt>
<rscale>  2 0.22982210E+03</rscale>
<asrwt>0</asrwt>
<pdfrwt beam="1">  1       21 0.64752405E-02 0.22982210E+03</pdfrwt>
<pdfrwt beam="2">  1       21 0.20323404E+00 0.22982210E+03</pdfrwt>
<totfact> 0.21566533E+04</totfact>
</mgrwt>
</event>
<event>
 4    1  0.4111182E+000  0.1778796E+03  0.7546771E-02  0.1169871E+00
         21   -1    0    0  501  502  0.00000000000E+00  0.00000000000E+00  0.24670231519E+03  0.24670231519E+03  0.00000000000E+00 0. -1.
         21   -1    0    0  502  503 -0.00000000000E+00 -0.00000000000E+00 -0.13081774206E+03  0.13081774206E+03  0.00000000000E+00 0.  1.
          6    1    1    2  501    0 -0.15035174566E+01 -0.41351013746E+02  0.84354510655E+02  0.19686759604E+03  0.17300000000E+03 0. -1.
         -6    1    1    2    0  503  0.15035174566E+01  0.41351013746E+02  0.31530062471E+02  0.18065246121E+03  0.17300000000E+03 0. -1.
<mgrwt>
<rscale>  2 0.17787964E+03</rscale>
<asrwt>0</asrwt>
<pdfrwt beam="1">  1       21 0.37954202E-01 0.17787964E+03</pdfrwt>
<pdfrwt beam="2">  1       21 0.20125807E-01 0.17787964E+03</pdfrwt>
<totfact> 0.15345912E+05</totfact>
</mgrwt>
</event>
<event>
 4    1  0.4111182E+000  0.2014597E+03  0.7546771E-02  0.1148513E+00
         21   -1    0    0  501  502  0.00000000000E+00  0.00000000000E+00  0.72155122019E+02  0.72155122019E+02  0.00000000000E+00 0. -1.
         21   -1    0    0  502  503 -0.00000000000E+00 -0.00000000000E+00 -0.91322107136E+03  0.91322107136E+03  0.00000000000E+00 0.  1.
          6    1    1    2  501    0 -0.23420348235E+02  0.10054106468E+03 -0.11519862957E+03  0.23207055534E+03  0.17300000000E+03 0. -1.
         -6    1    1    2    0  503  0.23420348235E+02 -0.10054106468E+03 -0.72586731977E+03  0.75330563805E+03  0.17300000000E+03 0.  1.
<mgrwt>
<rscale>  2 0.20145972E+03</rscale>
<asrwt>0</asrwt>
<pdfrwt beam="1">  1       21 0.11100787E-01 0.20145972E+03</pdfrwt>
<pdfrwt beam="2">  1       21 0.14049556E+00 0.20145972E+03</pdfrwt>
<totfact> 0.23774332E+04</totfact>
</mgrwt>
</event>
<event>
 4    1  0.4111182E+000  0.1853426E+03  0.7546771E-02  0.1162730E+00
         21   -1    0    0  503  502  0.00000000000E+00  0.00000000000E+00  0.28273638428E+03  0.28273638428E+03  0.00000000000E+00 0. -1.
         21   -1    0    0  501  503 -0.00000000000E+00 -0.00000000000E+00 -0.12296450294E+03  0.12296450294E+03  0.00000000000E+00 0. -1.
          6    1    1    2  501    0 -0.20706846890E+02 -0.63198986206E+02  0.57732665194E+02  0.19412610849E+03  0.17300000000E+03 0. -1.
         -6    1    1    2    0  502  0.20706846890E+02  0.63198986206E+02  0.10203921615E+03  0.21157477874E+03  0.17300000000E+03 0. -1.
<mgrwt>
<rscale>  2 0.18534262E+03</rscale>
<asrwt>0</asrwt>
<pdfrwt beam="1">  1       21 0.43497905E-01 0.18534262E+03</pdfrwt>
<pdfrwt beam="2">  1       21 0.18917616E-01 0.18534262E+03</pdfrwt>
<totfact> 0.13039338E+05</totfact>
</mgrwt>
</event>
<event>
 4    1  0.4111182E+000  0.1798825E+03  0.7546771E-02  0.1167917E+00
         21   -1    0    0  503  502  0.00000000000E+00  0.00000000000E+00  0.15053310634E+03  0.15053310634E+03  0.00000000000E+00 0.  1.
         21   -1    0    0  501  503 -0.00000000000E+00 -0.00000000000E+00 -0.44089623465E+03  0.44089623465E+03  0.00000000000E+00 0.  1.
          6    1    1    2  501    0 -0.11446304567E+00  0.49281839268E+02 -0.35687298671E+03  0.39964489416E+03  0.17300000000E+03 0.  1.
         -6    1    1    2    0  502  0.11446304567E+00 -0.49281839268E+02  0.66509858402E+02  0.19178444684E+03  0.17300000000E+03 0.  1.
<mgrwt>
<rscale>  2 0.17988250E+03</rscale>
<asrwt>0</asrwt>
<pdfrwt beam="1">  1       21 0.23158940E-01 0.17988250E+03</pdfrwt>
<pdfrwt beam="2">  1       21 0.67830187E-01 0.17988250E+03</pdfrwt>
<totfact> 0.35021139E+04</totfact>
</mgrwt>
</event>
<event>
 4    1  0.4111182E+000  0.4261567E+03  0.7546771E-02  0.1035081E+00
         21   -1    0    0  501  502  0.00000000000E+00  0.00000000000E+00  0.24698377968E+03  0.24698377968E+03  0.00000000000E+00 0.  1.
         21   -1    0    0  502  503 -0.00000000000E+00 -0.00000000000E+00 -0.74600394316E+03  0.74600394316E+03  0.00000000000E+00 0. -1.
          6    1    1    2  501    0  0.38693227099E+03 -0.44316631738E+02 -0.19006441257E+03  0.46661978859E+03  0.17300000000E+03 0.  1.
         -6    1    1    2    0  503 -0.38693227099E+03  0.44316631738E+02 -0.30895575091E+03  0.52636793424E+03  0.17300000000E+03 0. -1.
<mgrwt>
<rscale>  2 0.42615672E+03</rscale>
<asrwt>0</asrwt>
<pdfrwt beam="1">  1       21 0.37997505E-01 0.42615672E+03</pdfrwt>
<pdfrwt beam="2">  1       21 0.11476984E+00 0.42615672E+03</pdfrwt>
<totfact> 0.34544388E+03</totfact>
</mgrwt>
</event>
<event>
 4    1  0.4111182E+000  0.2166245E+03  0.7546771E-02  0.1136425E+00
         21   -1    0    0  503  502  0.00000000000E+00  0.00000000000E+00  0.44310525184E+02  0.44310525184E+02  0.00000000000E+00 0. -1.
         21   -1    0    0  501  503 -0.00000000000E+00 -0.00000000000E+00 -0.16394839358E+04  0.16394839358E+04  0.00000000000E+00 0. -1.
          6    1    1    2  501    0 -0.78781240157E+02  0.10387824168E+03 -0.12985309600E+04  0.13164759120E+04  0.17300000000E+03 0.  1.
         -6    1    1    2    0  502  0.78781240157E+02 -0.10387824168E+03 -0.29664245064E+03  0.36731854897E+03  0.17300000000E+03 0.  1.
<mgrwt>
<rscale>  2 0.21662450E+03</rscale>
<asrwt>0</asrwt>
<pdfrwt beam="1">  1       21 0.68170060E-02 0.21662450E+03</pdfrwt>
<pdfrwt beam="2">  1       21 0.25222822E+00 0.21662450E+03</pdfrwt>
<totfact> 0.99927569E+03</totfact>
</mgrwt>
</event>
<event>
 4    1  0.4111182E+000  0.2259602E+03  0.7546771E-02  0.1129516E+00
         21   -1    0    0  501  502  0.00000000000E+00  0.00000000000E+00  0.19943320135E+03  0.19943320135E+03  0.00000000000E+00 0. -1.
         21   -1    0    0  502  503 -0.00000000000E+00 -0.00000000000E+00 -0.26923810199E+03  0.26923810199E+03  0.00000000000E+00 0. -1.
          6    1    1    2  501    0  0.35359691365E+02 -0.14099187629E+03 -0.86833417701E+02  0.24207036040E+03  0.17300000000E+03 0. -1.
         -6    1    1    2    0  503 -0.35359691365E+02  0.14099187629E+03  0.17028517055E+02  0.22660094295E+03  0.17300000000E+03 0. -1.
<mgrwt>
<rscale>  2 0.22596021E+03</rscale>
<asrwt>0</asrwt>
<pdfrwt beam="1">  1       21 0.30682031E-01 0.22596021E+03</pdfrwt>
<pdfrwt beam="2">  1       21 0.41421246E-01 0.22596021E+03</pdfrwt>
<totfact> 0.56380713E+04</totfact>
</mgrwt>
</event>
<event>
 4    1  0.4111182E+000  0.2102292E+03  0.7546771E-02  0.1141385E+00
         21   -1    0    0  503  502  0.00000000000E+00  0.00000000000E+00  0.66430198620E+02  0.66430198620E+02  0.00000000000E+00 0. -1.
         21   -1    0    0  501  503 -0.00000000000E+00 -0.00000000000E+00 -0.97871503230E+03  0.97871503230E+03  0.00000000000E+00 0.  1.
          6    1    1    2  501    0  0.11307410860E+03  0.38490982753E+02 -0.75185875156E+03  0.78069705525E+03  0.17300000000E+03 0.  1.
         -6    1    1    2    0  502 -0.11307410860E+03 -0.38490982753E+02 -0.16042608212E+03  0.26444817567E+03  0.17300000000E+03 0. -1.
<mgrwt>
<rscale>  2 0.21022918E+03</rscale>
<asrwt>0</asrwt>
<pdfrwt beam="1">  1       21 0.10220031E-01 0.21022918E+03</pdfrwt>
<pdfrwt beam="2">  1       21 0.15057154E+00 0.21022918E+03</pdfrwt>
<totfact> 0.22843341E+04</totfact>
</mgrwt>
</event>
<event>
 4    1  0.4111182E+000  0.1948046E+03  0.7546771E-02  0.1154198E+00
         21   -1    0    0  503  502  0.00000000000E+00  0.00000000000E+00  0.31257726439E+02  0.31257726439E+02  0.00000000000E+00 0.  1.
         21   -1    0    0  501  503 -0.00000000000E+00 -0.00000000000E+00 -0.15615615542E+04  0.15615615542E+04  0.00000000000E+00 0.  1.
          6    1    1    2  501    0 -0.14381104164E+02 -0.88391305144E+02 -0.11408453940E+04  0.11573577891E+04  0.17300000000E+03 0.  1.
         -6    1    1    2    0  502  0.14381104164E+02  0.88391305144E+02 -0.38945843374E+03  0.43546149151E+03  0.17300000000E+03 0.  1.
<mgrwt>
<rscale>  2 0.19480462E+03</rscale>
<asrwt>0</asrwt>
<pdfrwt beam="1">  1       21 0.48088811E-02 0.19480462E+03</pdfrwt>
<pdfrwt beam="2">  1       21 0.24024023E+00 0.19480462E+03</pdfrwt>
<totfact> 0.21780895E+04</totfact>
</mgrwt>
</event>
<event>
 4    1  0.4111182E+000  0.1956671E+03  0.7546771E-02  0.1153447E+00
         21   -1    0    0  503  502  0.00000000000E+00  0.00000000000E+00  0.13537818595E+04  0.13537818595E+04  0.00000000000E+00 0.  1.
         21   -1    0    0  501  503 -0.00000000000E+00 -0.00000000000E+00 -0.28807384782E+02  0.28807384782E+02  0.00000000000E+00 0.  1.
          6    1    1    2  501    0 -0.78178204932E+01  0.91079548535E+02  0.56899472693E+03  0.60169809851E+03  0.17300000000E+03 0.  1.
         -6    1    1    2    0  502  0.78178204932E+01 -0.91079548535E+02  0.75597974780E+03  0.78089114579E+03  0.17300000000E+03 0.  1.
<mgrwt>
<rscale>  2 0.19566707E+03</rscale>
<asrwt>0</asrwt>
<pdfrwt beam="1">  1       21 0.20827408E+00 0.19566707E+03</pdfrwt>
<pdfrwt beam="2">  1       21 0.44319064E-02 0.19566707E+03</pdfrwt>
<totfact> 0.39155561E+04</totfact>
</mgrwt>
</event>
<event>
 4    1  0.4111182E+000  0.2379937E+03  0.7546771E-02  0.1121137E+00
         21   -1    0    0  503  502  0.00000000000E+00  0.00000000000E+00  0.27933483151E+02  0.27933483151E+02  0.00000000000E+00 0. -1.
         21   -1    0    0  501  503 -0.00000000000E+00 -0.00000000000E+00 -0.29561657768E+04  0.29561657768E+04  0.00000000000E+00 0. -1.
          6    1    1    2  501    0  0.22679552041E+02 -0.16185682434E+03 -0.23002957455E+04  0.23125746497E+04  0.17300000000E+03 0. -1.
         -6    1    1    2    0  502 -0.22679552041E+02  0.16185682434E+03 -0.62793654809E+03  0.67152461020E+03  0.17300000000E+03 0. -1.
<mgrwt>
<rscale>  2 0.23799368E+03</rscale>
<asrwt>0</asrwt>
<pdfrwt beam="1">  1       21 0.42974587E-02 0.23799368E+03</pdfrwt>
<pdfrwt beam="2">  1       21 0.45479476E+00 0.23799368E+03</pdfrwt>
<totfact> 0.12595610E+03</totfact>
</mgrwt>
</event>
<event>
 4    1  0.4111182E+000  0.2484172E+03  0.7546771E-02  0.1114309E+00
         21   -1    0    0  503  502  0.00000000000E+00  0.00000000000E+00  0.27915195256E+03  0.27915195256E+03  0.00000000000E+00 0.  1.
         21   -1    0    0  501  503 -0.00000000000E+00 -0.00000000000E+00 -0.42747059703E+03  0.42747059703E+03  0.00000000000E+00 0.  1.
          6    1    1    2  501    0 -0.16453808284E+03  0.68624608851E+02 -0.31966618306E+03  0.40484266850E+03  0.17300000000E+03 0.  1.
         -6    1    1    2    0  502  0.16453808284E+03 -0.68624608851E+02  0.17134753860E+03  0.30177988108E+03  0.17300000000E+03 0.  1.
<mgrwt>
<rscale>  2 0.24841722E+03</rscale>
<asrwt>0</asrwt>
<pdfrwt beam="1">  1       21 0.42946454E-01 0.24841722E+03</pdfrwt>
<pdfrwt beam="2">  1       21 0.65764708E-01 0.24841722E+03</pdfrwt>
<totfact> 0.10702666E+04</totfact>
</mgrwt>
</event>
<event>
 4    1  0.4111182E+000  0.2061579E+03  0.7546771E-02  0.1144645E+00
         21   -1    0    0  503  502  0.00000000000E+00  0.00000000000E+00  0.14297466111E+03  0.14297466111E+03  0.00000000000E+00 0.  1.
         21   -1    0    0  501  503 -0.00000000000E+00 -0.00000000000E+00 -0.52383988571E+03  0.52383988571E+03  0.00000000000E+00 0.  1.
          6    1    1    2  501    0 -0.11179729361E+03 -0.85704172708E+01 -0.40970478577E+03  0.45864921061E+03  0.17300000000E+03 0.  1.
         -6    1    1    2    0  502  0.11179729361E+03  0.85704172708E+01  0.28839561169E+02  0.20816533621E+03  0.17300000000E+03 0.  1.
<mgrwt>
<rscale>  2 0.20615792E+03</rscale>
<asrwt>0</asrwt>
<pdfrwt beam="1">  1       21 0.21996102E-01 0.20615792E+03</pdfrwt>
<pdfrwt beam="2">  1       21 0.80590751E-01 0.20615792E+03</pdfrwt>
<totfact> 0.25916865E+04</totfact>
</mgrwt>
</event>
<event>
 4    1  0.4111182E+000  0.2023046E+03  0.7546771E-02  0.1147809E+00
         21   -1    0    0  503  502  0.00000000000E+00  0.00000000000E+00  0.30275153697E+03  0.30275153697E+03  0.00000000000E+00 0.  1.
         21   -1    0    0  501  503 -0.00000000000E+00 -0.00000000000E+00 -0.21106410841E+03  0.21106410841E+03  0.00000000000E+00 0. -1.
          6    1    1    2  501    0  0.82096195241E+02  0.65256250732E+02 -0.10819649796E+03  0.22942023821E+03  0.17300000000E+03 0. -1.
         -6    1    1    2    0  502 -0.82096195241E+02 -0.65256250732E+02  0.19988392652E+03  0.28439540716E+03  0.17300000000E+03 0.  1.
<mgrwt>
<rscale>  2 0.20230463E+03</rscale>
<asrwt>0</asrwt>
<pdfrwt beam="1">  1       21 0.46577159E-01 0.20230463E+03</pdfrwt>
<pdfrwt beam="2">  1       21 0.32471401E-01 0.20230463E+03</pdfrwt>
<totfact> 0.40085273E+04</totfact>
</mgrwt>
</event>
<event>
 4    1  0.4111182E+000  0.2743739E+03  0.7546771E-02  0.1098802E+00
         21   -1    0    0  501  502  0.00000000000E+00  0.00000000000E+00  0.23710320896E+03  0.23710320896E+03  0.00000000000E+00 0. -1.
         21   -1    0    0  502  503 -0.00000000000E+00 -0.00000000000E+00 -0.40662722659E+03  0.40662722659E+03  0.00000000000E+00 0.  1.
          6    1    1    2  501    0  0.10428515108E+03 -0.18567888554E+03  0.65924051790E+02  0.28218260378E+03  0.17300000000E+03 0. -1.
         -6    1    1    2    0  503 -0.10428515108E+03  0.18567888554E+03 -0.23544806942E+03  0.36154783178E+03  0.17300000000E+03 0.  1.
<mgrwt>
<rscale>  2 0.27437391E+03</rscale>
<asrwt>0</asrwt>
<pdfrwt beam="1">  1       21 0.36477417E-01 0.27437391E+03</pdfrwt>
<pdfrwt beam="2">  1       21 0.62558035E-01 0.27437391E+03</pdfrwt>
<totfact> 0.16423504E+04</totfact>
</mgrwt>
</event>
<event>
 4    1  0.4111182E+000  0.2423375E+03  0.7546771E-02  0.1118245E+00
         21   -1    0    0  501  502  0.00000000000E+00  0.00000000000E+00  0.84713521034E+02  0.84713521034E+02  0.00000000000E+00 0.  1.
         21   -1    0    0  502  503 -0.00000000000E+00 -0.00000000000E+00 -0.73252105886E+03  0.73252105886E+03  0.00000000000E+00 0.  1.
          6    1    1    2  501    0 -0.16570644469E+03 -0.36603772427E+02 -0.22928982204E+03  0.33361847140E+03  0.17300000000E+03 0.  1.
         -6    1    1    2    0  503  0.16570644469E+03  0.36603772427E+02 -0.41851771578E+03  0.48361610849E+03  0.17300000000E+03 0.  1.
<mgrwt>
<rscale>  2 0.24233750E+03</rscale>
<asrwt>0</asrwt>
<pdfrwt beam="1">  1       21 0.13032850E-01 0.24233750E+03</pdfrwt>
<pdfrwt beam="2">  1       21 0.11269554E+00 0.24233750E+03</pdfrwt>
<totfact> 0.30340365E+04</totfact>
</mgrwt>
</event>
<event>
 4    1  0.4111182E+000  0.2054175E+03  0.7546771E-02  0.1145247E+00
         21   -1    0    0  503  502  0.00000000000E+00  0.00000000000E+00  0.12489183195E+03  0.12489183195E+03  0.00000000000E+00 0. -1.
         21   -1    0    0  501  503 -0.00000000000E+00 -0.00000000000E+00 -0.40617649639E+03  0.40617649639E+03  0.00000000000E+00 0.  1.
          6    1    1    2  501    0  0.10050927116E+03  0.46532000422E+02 -0.24953934649E+03  0.32321235450E+03  0.17300000000E+03 0.  1.
         -6    1    1    2    0  502 -0.10050927116E+03 -0.46532000422E+02 -0.31745317955E+02  0.20785597385E+03  0.17300000000E+03 0. -1.
<mgrwt>
<rscale>  2 0.20541748E+03</rscale>
<asrwt>0</asrwt>
<pdfrwt beam="1">  1       21 0.19214128E-01 0.20541748E+03</pdfrwt>
<pdfrwt beam="2">  1       21 0.62488691E-01 0.20541748E+03</pdfrwt>
<totfact> 0.58696192E+04</totfact>
</mgrwt>
</event>
<event>
 4    1  0.4111182E+000  0.2659739E+03  0.7546771E-02  0.1103606E+00
         21   -1    0    0  501  502  0.00000000000E+00  0.00000000000E+00  0.43412540220E+03  0.43412540220E+03  0.00000000000E+00 0.  1.
         21   -1    0    0  502  503 -0.00000000000E+00 -0.00000000000E+00 -0.17116294508E+03  0.17116294508E+03  0.00000000000E+00 0. -1.
          6    1    1    2  501    0  0.93765381469E+02 -0.17894452689E+03  0.19776302802E+03  0.33143974674E+03  0.17300000000E+03 0. -1.
         -6    1    1    2    0  503 -0.93765381469E+02  0.17894452689E+03  0.65199429100E+02  0.27384860055E+03  0.17300000000E+03 0. -1.
<mgrwt>
<rscale>  2 0.26597385E+03</rscale>
<asrwt>0</asrwt>
<pdfrwt beam="1">  1       21 0.66788523E-01 0.26597385E+03</pdfrwt>
<pdfrwt beam="2">  1       21 0.26332761E-01 0.26597385E+03</pdfrwt>
<totfact> 0.27159445E+04</totfact>
</mgrwt>
</event>
<event>
 4    1  0.4111182E+000  0.2559329E+03  0.7546771E-02  0.1109612E+00
         21   -1    0    0  501  502  0.00000000000E+00  0.00000000000E+00  0.81638342960E+03  0.81638342960E+03  0.00000000000E+00 0. -1.
         21   -1    0    0  502  503 -0.00000000000E+00 -0.00000000000E+00 -0.83417654963E+02  0.83417654963E+02  0.00000000000E+00 0. -1.
          6    1    1    2  501    0  0.17916370685E+03 -0.58932313607E+02  0.45437608362E+03  0.52149714937E+03  0.17300000000E+03 0. -1.
         -6    1    1    2    0  503 -0.17916370685E+03  0.58932313607E+02  0.27858969102E+03  0.37830393519E+03  0.17300000000E+03 0. -1.
<mgrwt>
<rscale>  2 0.25593290E+03</rscale>
<asrwt>0</asrwt>
<pdfrwt beam="1">  1       21 0.12559745E+00 0.25593290E+03</pdfrwt>
<pdfrwt beam="2">  1       21 0.12833486E-01 0.25593290E+03</pdfrwt>
<totfact> 0.23668965E+04</totfact>
</mgrwt>
</event>
<event>
 4    1  0.4111182E+000  0.1819891E+03  0.7546771E-02  0.1165892E+00
         21   -1    0    0  501  502  0.00000000000E+00  0.00000000000E+00  0.88647981458E+03  0.88647981458E+03  0.00000000000E+00 0.  1.
         21   -1    0    0  502  503 -0.00000000000E+00 -0.00000000000E+00 -0.38061738842E+02  0.38061738842E+02  0.00000000000E+00 0.  1.
          6    1    1    2  501    0  0.55945526835E+02 -0.78183281668E+01  0.48691960937E+03  0.51981798181E+03  0.17300000000E+03 0.  1.
         -6    1    1    2    0  503 -0.55945526835E+02  0.78183281668E+01  0.36149846637E+03  0.40472357161E+03  0.17300000000E+03 0.  1.
<mgrwt>
<rscale>  2 0.18198909E+03</rscale>
<asrwt>0</asrwt>
<pdfrwt beam="1">  1       21 0.13638150E+00 0.18198909E+03</pdfrwt>
<pdfrwt beam="2">  1       21 0.58556528E-02 0.18198909E+03</pdfrwt>
<totfact> 0.79091994E+04</totfact>
</mgrwt>
</event>
<event>
 4    1  0.4111182E+000  0.1936723E+03  0.7546771E-02  0.1155190E+00
         21   -1    0    0  501  502  0.00000000000E+00  0.00000000000E+00  0.18033712937E+03  0.18033712937E+03  0.00000000000E+00 0. -1.
         21   -1    0    0  502  503 -0.00000000000E+00 -0.00000000000E+00 -0.21979063355E+03  0.21979063355E+03  0.00000000000E+00 0.  1.
          6    1    1    2  501    0 -0.52732486183E+02 -0.69276670165E+02  0.26623293149E+02  0.19549366196E+03  0.17300000000E+03 0.  1.
         -6    1    1    2    0  503  0.52732486183E+02  0.69276670165E+02 -0.66076797331E+02  0.20463410096E+03  0.17300000000E+03 0.  1.
<mgrwt>
<rscale>  2 0.19367233E+03</rscale>
<asrwt>0</asrwt>
<pdfrwt beam="1">  1       21 0.27744174E-01 0.19367233E+03</pdfrwt>
<pdfrwt beam="2">  1       21 0.33813944E-01 0.19367233E+03</pdfrwt>
<totfact> 0.10445518E+05</totfact>
</mgrwt>
</event>
<event>
 4    1  0.4111182E+000  0.2045771E+03  0.7546771E-02  0.1145934E+00
         21   -1    0    0  503  502  0.00000000000E+00  0.00000000000E+00  0.13690567059E+03  0.13690567059E+03  0.00000000000E+00 0. -1.
         21   -1    0    0  501  503 -0.00000000000E+00 -0.00000000000E+00 -0.33616870880E+03  0.33616870880E+03  0.00000000000E+00 0.  1.
          6    1    1    2  501    0  0.67615629106E+02 -0.85737516399E+02 -0.17084493050E+03  0.26653289721E+03  0.17300000000E+03 0.  1.
         -6    1    1    2    0  502 -0.67615629106E+02  0.85737516399E+02 -0.28418107717E+02  0.20654148219E+03  0.17300000000E+03 0. -1.
<mgrwt>
<rscale>  2 0.20457711E+03</rscale>
<asrwt>0</asrwt>
<pdfrwt beam="1">  1       21 0.21062411E-01 0.20457711E+03</pdfrwt>
<pdfrwt beam="2">  1       21 0.51718263E-01 0.20457711E+03</pdfrwt>
<totfact> 0.73997607E+04</totfact>
</mgrwt>
</event>
<event>
 4    1  0.4111182E+000  0.2073630E+03  0.7546771E-02  0.1143671E+00
         21   -1    0    0  501  502  0.00000000000E+00  0.00000000000E+00  0.61645665736E+03  0.61645665736E+03  0.00000000000E+00 0.  1.
         21   -1    0    0  502  503 -0.00000000000E+00 -0.00000000000E+00 -0.21283763620E+03  0.21283763620E+03  0.00000000000E+00 0.  1.
          6    1    1    2  501    0 -0.11890623178E+02 -0.11370584949E+03  0.54178819863E+03  0.58011538447E+03  0.17300000000E+03 0.  1.
         -6    1    1    2    0  503  0.11890623178E+02  0.11370584949E+03 -0.13816917748E+03  0.24917890908E+03  0.17300000000E+03 0.  1.
<mgrwt>
<rscale>  2 0.20736298E+03</rscale>
<asrwt>0</asrwt>
<pdfrwt beam="1">  1       21 0.94839485E-01 0.20736298E+03</pdfrwt>
<pdfrwt beam="2">  1       21 0.32744252E-01 0.20736298E+03</pdfrwt>
<totfact> 0.82609918E+03</totfact>
</mgrwt>
</event>
<event>
 4    1  0.4111182E+000  0.2079128E+03  0.7546771E-02  0.1143230E+00
         21   -1    0    0  501  502  0.00000000000E+00  0.00000000000E+00  0.14493696097E+03  0.14493696097E+03  0.00000000000E+00 0. -1.
         21   -1    0    0  502  503 -0.00000000000E+00 -0.00000000000E+00 -0.30251991003E+03  0.30251991003E+03  0.00000000000E+00 0. -1.
          6    1    1    2  501    0  0.78512602306E+02 -0.84466000264E+02 -0.52217688491E+02  0.21436982277E+03  0.17300000000E+03 0. -1.
         -6    1    1    2    0  503 -0.78512602306E+02  0.84466000264E+02 -0.10536526057E+03  0.23308704824E+03  0.17300000000E+03 0. -1.
<mgrwt>
<rscale>  2 0.20791280E+03</rscale>
<asrwt>0</asrwt>
<pdfrwt beam="1">  1       21 0.22297994E-01 0.20791280E+03</pdfrwt>
<pdfrwt beam="2">  1       21 0.46541524E-01 0.20791280E+03</pdfrwt>
<totfact> 0.82666956E+04</totfact>
</mgrwt>
</event>
<event>
 4    1  0.4111182E+000  0.1856936E+03  0.7546771E-02  0.1162404E+00
         21   -1    0    0  501  502  0.00000000000E+00  0.00000000000E+00  0.88028650415E+02  0.88028650415E+02  0.00000000000E+00 0.  1.
         21   -1    0    0  502  503 -0.00000000000E+00 -0.00000000000E+00 -0.42179875420E+03  0.42179875420E+03  0.00000000000E+00 0.  1.
          6    1    1    2  501    0 -0.66873533924E+02  0.90014954805E+01 -0.98806493686E+02  0.21034452609E+03  0.17300000000E+03 0.  1.
         -6    1    1    2    0  503  0.66873533924E+02 -0.90014954805E+01 -0.23496361010E+03  0.29948287852E+03  0.17300000000E+03 0.  1.
<mgrwt>
<rscale>  2 0.18569356E+03</rscale>
<asrwt>0</asrwt>
<pdfrwt beam="1">  1       21 0.13542870E-01 0.18569356E+03</pdfrwt>
<pdfrwt beam="2">  1       21 0.64892115E-01 0.18569356E+03</pdfrwt>
<totfact> 0.10355147E+05</totfact>
</mgrwt>
</event>
<event>
 4    1  0.4111182E+000  0.2267935E+03  0.7546771E-02  0.1128917E+00
         21   -1    0    0  503  502  0.00000000000E+00  0.00000000000E+00  0.30727819193E+03  0.30727819193E+03  0.00000000000E+00 0. -1.
         21   -1    0    0  501  503 -0.00000000000E+00 -0.00000000000E+00 -0.17551656601E+03  0.17551656601E+03  0.00000000000E+00 0.  1.
          6    1    1    2  501    0 -0.14627380748E+03 -0.10500374562E+02  0.11782393682E+03  0.25557340376E+03  0.17300000000E+03 0. -1.
         -6    1    1    2    0  502  0.14627380748E+03  0.10500374562E+02  0.13937689110E+02  0.22722135419E+03  0.17300000000E+03 0.  1.
<mgrwt>
<rscale>  2 0.22679348E+03</rscale>
<asrwt>0</asrwt>
<pdfrwt beam="1">  1       21 0.47273568E-01 0.22679348E+03</pdfrwt>
<pdfrwt beam="2">  1       21 0.27002549E-01 0.22679348E+03</pdfrwt>
<totfact> 0.55074441E+04</totfact>
</mgrwt>
</event>
<event>
 4    1  0.4111182E+000  0.1860404E+03  0.7546771E-02  0.1162082E+00
         21   -1    0    0  501  502  0.00000000000E+00  0.00000000000E+00  0.28530514226E+03  0.28530514226E+03  0.00000000000E+00 0. -1.
         21   -1    0    0  502  503 -0.00000000000E+00 -0.00000000000E+00 -0.19569219334E+03  0.19569219334E+03  0.00000000000E+00 0.  1.
          6    1    1    2  501    0  0.34245408859E+02  0.59239142359E+02  0.19307661182E+03  0.26812236395E+03  0.17300000000E+03 0. -1.
         -6    1    1    2    0  503 -0.34245408859E+02 -0.59239142359E+02 -0.10346366291E+03  0.21287497166E+03  0.17300000000E+03 0.  1.
<mgrwt>
<rscale>  2 0.18604038E+03</rscale>
<asrwt>0</asrwt>
<pdfrwt beam="1">  1       21 0.43893099E-01 0.18604038E+03</pdfrwt>
<pdfrwt beam="2">  1       21 0.30106491E-01 0.18604038E+03</pdfrwt>
<totfact> 0.52935995E+04</totfact>
</mgrwt>
</event>
<event>
 4    1  0.4111182E+000  0.1860613E+03  0.7546771E-02  0.1162063E+00
         21   -1    0    0  501  502  0.00000000000E+00  0.00000000000E+00  0.19366846638E+02  0.19366846638E+02  0.00000000000E+00 0.  1.
         21   -1    0    0  502  503 -0.00000000000E+00 -0.00000000000E+00 -0.18456137554E+04  0.18456137554E+04  0.00000000000E+00 0.  1.
          6    1    1    2  501    0 -0.58607291912E+02 -0.35425796473E+02 -0.74769711288E+03  0.77049969133E+03  0.17300000000E+03 0.  1.
         -6    1    1    2    0  503  0.58607291912E+02  0.35425796473E+02 -0.10785497959E+04  0.10944809107E+04  0.17300000000E+03 0.  1.
<mgrwt>
<rscale>  2 0.18606128E+03</rscale>
<asrwt>0</asrwt>
<pdfrwt beam="1">  1       21 0.29795135E-02 0.18606128E+03</pdfrwt>
<pdfrwt beam="2">  1       21 0.28394071E+00 0.18606128E+03</pdfrwt>
<totfact> 0.27195863E+04</totfact>
</mgrwt>
</event>
<event>
 4    1  0.4111182E+000  0.2221043E+03  0.7546771E-02  0.1132324E+00
         21   -1    0    0  503  502  0.00000000000E+00  0.00000000000E+00  0.20814109706E+03  0.20814109706E+03  0.00000000000E+00 0. -1.
         21   -1    0    0  501  503 -0.00000000000E+00 -0.00000000000E+00 -0.10356906719E+04  0.10356906719E+04  0.00000000000E+00 0. -1.
          6    1    1    2  501    0 -0.13312411930E+03 -0.40979286917E+02 -0.95991575642E+03  0.98527589665E+03  0.17300000000E+03 0. -1.
         -6    1    1    2    0  502  0.13312411930E+03  0.40979286917E+02  0.13236618156E+03  0.25855587233E+03  0.17300000000E+03 0. -1.
<mgrwt>
<rscale>  2 0.22210433E+03</rscale>
<asrwt>0</asrwt>
<pdfrwt beam="1">  1       21 0.32021708E-01 0.22210433E+03</pdfrwt>
<pdfrwt beam="2">  1       21 0.15933702E+00 0.22210433E+03</pdfrwt>
<totfact> 0.23244228E+03</totfact>
</mgrwt>
</event>
<event>
 4    1  0.4111182E+000  0.2162926E+03  0.7546771E-02  0.1136678E+00
         21   -1    0    0  503  502  0.00000000000E+00  0.00000000000E+00  0.33746169865E+02  0.33746169865E+02  0.00000000000E+00 0. -1.
         21   -1    0    0  501  503 -0.00000000000E+00 -0.00000000000E+00 -0.17325322548E+04  0.17325322548E+04  0.00000000000E+00 0. -1.
          6    1    1    2  501    0 -0.98430383254E+02 -0.84646113506E+02 -0.12441854050E+04  0.12628459236E+04  0.17300000000E+03 0. -1.
         -6    1    1    2    0  502  0.98430383254E+02  0.84646113506E+02 -0.45460067998E+03  0.50343250106E+03  0.17300000000E+03 0. -1.
<mgrwt>
<rscale>  2 0.21629264E+03</rscale>
<asrwt>0</asrwt>
<pdfrwt beam="1">  1       21 0.51917184E-02 0.21629264E+03</pdfrwt>
<pdfrwt beam="2">  1       21 0.26654342E+00 0.21629264E+03</pdfrwt>
<totfact> 0.13143686E+04</totfact>
</mgrwt>
</event>
<event>
 4    1  0.4111182E+000  0.1791271E+03  0.7546771E-02  0.1168650E+00
         21   -1    0    0  501  502  0.00000000000E+00  0.00000000000E+00  0.19338646248E+04  0.19338646248E+04  0.00000000000E+00 0. -1.
         21   -1    0    0  502  503 -0.00000000000E+00 -0.00000000000E+00 -0.21749927865E+02  0.21749927865E+02  0.00000000000E+00 0. -1.
          6    1    1    2  501    0  0.35288458553E+02  0.30203502908E+02  0.14322309991E+04  0.14433891234E+04  0.17300000000E+03 0. -1.
         -6    1    1    2    0  503 -0.35288458553E+02 -0.30203502908E+02  0.47988369789E+03  0.51222542927E+03  0.17300000000E+03 0. -1.
<mgrwt>
<rscale>  2 0.17912712E+03</rscale>
<asrwt>0</asrwt>
<pdfrwt beam="1">  1       21 0.29751750E+00 0.17912712E+03</pdfrwt>
<pdfrwt beam="2">  1       21 0.33461443E-02 0.17912712E+03</pdfrwt>
<totfact> 0.18884370E+04</totfact>
</mgrwt>
</event>
<event>
 4    1  0.4111182E+000  0.2125067E+03  0.7546771E-02  0.1139596E+00
         21   -1    0    0  501  502  0.00000000000E+00  0.00000000000E+00  0.12489469710E+03  0.12489469710E+03  0.00000000000E+00 0.  1.
         21   -1    0    0  502  503 -0.00000000000E+00 -0.00000000000E+00 -0.43847579638E+03  0.43847579638E+03  0.00000000000E+00 0. -1.
          6    1    1    2  501    0  0.12180487508E+03  0.19841581230E+02 -0.38826528970E+02  0.21602457103E+03  0.17300000000E+03 0.  1.
         -6    1    1    2    0  503 -0.12180487508E+03 -0.19841581230E+02 -0.27475457030E+03  0.34734592245E+03  0.17300000000E+03 0. -1.
<mgrwt>
<rscale>  2 0.21250674E+03</rscale>
<asrwt>0</asrwt>
<pdfrwt beam="1">  1       21 0.19214569E-01 0.21250674E+03</pdfrwt>
<pdfrwt beam="2">  1       21 0.67457814E-01 0.21250674E+03</pdfrwt>
<totfact> 0.49509370E+04</totfact>
</mgrwt>
</event>
<event>
 4    1  0.4111182E+000  0.2242976E+03  0.7546771E-02  0.1130719E+00
         21   -1    0    0  501  502  0.00000000000E+00  0.00000000000E+00  0.34046525653E+03  0.34046525653E+03  0.00000000000E+00 0. -1.
         21   -1    0    0  502  503 -0.00000000000E+00 -0.00000000000E+00 -0.44163000188E+03  0.44163000188E+03  0.00000000000E+00 0. -1.
          6    1    1    2  501    0  0.12592659360E+03 -0.67252573573E+02  0.26840469422E+03  0.34978635695E+03  0.17300000000E+03 0. -1.
         -6    1    1    2    0  503 -0.12592659360E+03  0.67252573573E+02 -0.36956943957E+03  0.43230890147E+03  0.17300000000E+03 0. -1.
<mgrwt>
<rscale>  2 0.22429761E+03</rscale>
<asrwt>0</asrwt>
<pdfrwt beam="1">  1       21 0.52379271E-01 0.22429761E+03</pdfrwt>
<pdfrwt beam="2">  1       21 0.67943077E-01 0.22429761E+03</pdfrwt>
<totfact> 0.66882361E+03</totfact>
</mgrwt>
</event>
<event>
 4    1  0.4111182E+000  0.2329604E+03  0.7546771E-02  0.1124573E+00
         21   -1    0    0  503  502  0.00000000000E+00  0.00000000000E+00  0.38055590898E+03  0.38055590898E+03  0.00000000000E+00 0. -1.
         21   -1    0    0  501  503 -0.00000000000E+00 -0.00000000000E+00 -0.16216468219E+03  0.16216468219E+03  0.00000000000E+00 0.  1.
          6    1    1    2  501    0  0.15361634473E+03  0.27268280948E+02  0.14961264216E+02  0.23344031344E+03  0.17300000000E+03 0.  1.
         -6    1    1    2    0  502 -0.15361634473E+03 -0.27268280948E+02  0.20342996257E+03  0.30928027772E+03  0.17300000000E+03 0. -1.
<mgrwt>
<rscale>  2 0.23296038E+03</rscale>
<asrwt>0</asrwt>
<pdfrwt beam="1">  1       21 0.58547063E-01 0.23296038E+03</pdfrwt>
<pdfrwt beam="2">  1       21 0.24948413E-01 0.23296038E+03</pdfrwt>
<totfact> 0.40721492E+04</totfact>
</mgrwt>
</event>
<event>
 4    1  0.4111182E+000  0.1865620E+03  0.7546771E-02  0.1161599E+00
         21   -1    0    0  501  502  0.00000000000E+00  0.00000000000E+00  0.70827653210E+02  0.70827653210E+02  0.00000000000E+00 0.  1.
         21   -1    0    0  502  503 -0.00000000000E+00 -0.00000000000E+00 -0.52326460599E+03  0.52326460599E+03  0.00000000000E+00 0.  1.
          6    1    1    2  501    0  0.92526021391E+01 -0.69215367393E+02 -0.15292705865E+03  0.24123031111E+03  0.17300000000E+03 0.  1.
         -6    1    1    2    0  503 -0.92526021391E+01  0.69215367393E+02 -0.29950989413E+03  0.35286194810E+03  0.17300000000E+03 0.  1.
<mgrwt>
<rscale>  2 0.18656199E+03</rscale>
<asrwt>0</asrwt>
<pdfrwt beam="1">  1       21 0.10896562E-01 0.18656199E+03</pdfrwt>
<pdfrwt beam="2">  1       21 0.80502248E-01 0.18656199E+03</pdfrwt>
<totfact> 0.94737203E+04</totfact>
</mgrwt>
</event>
<event>
 4    1  0.4111182E+000  0.1918678E+03  0.7546771E-02  0.1156787E+00
         21   -1    0    0  501  502  0.00000000000E+00  0.00000000000E+00  0.63660894139E+02  0.63660894139E+02  0.00000000000E+00 0. -1.
         21   -1    0    0  502  503 -0.00000000000E+00 -0.00000000000E+00 -0.13308445917E+04  0.13308445917E+04  0.00000000000E+00 0. -1.
          6    1    1    2  501    0  0.68379540147E+02  0.46994434204E+02 -0.10926621011E+03  0.22079932751E+03  0.17300000000E+03 0. -1.
         -6    1    1    2    0  503 -0.68379540147E+02 -0.46994434204E+02 -0.11579174875E+04  0.11737061584E+04  0.17300000000E+03 0. -1.
<mgrwt>
<rscale>  2 0.19186776E+03</rscale>
<asrwt>0</asrwt>
<pdfrwt beam="1">  1       21 0.97939845E-02 0.19186776E+03</pdfrwt>
<pdfrwt beam="2">  1       21 0.20474530E+00 0.19186776E+03</pdfrwt>
<totfact> 0.10549366E+04</totfact>
</mgrwt>
</event>
<event>
 4    1  0.4111182E+000  0.1893379E+03  0.7546771E-02  0.1159060E+00
         21   -1    0    0  501  502  0.00000000000E+00  0.00000000000E+00  0.73862248119E+03  0.73862248119E+03  0.00000000000E+00 0. -1.
         21   -1    0    0  502  503 -0.00000000000E+00 -0.00000000000E+00 -0.49870217025E+02  0.49870217025E+02  0.00000000000E+00 0.  1.
          6    1    1    2  501    0 -0.45812765541E+02  0.61814551802E+02  0.40889186776E+03  0.45060116270E+03  0.17300000000E+03 0. -1.
         -6    1    1    2    0  503  0.45812765541E+02 -0.61814551802E+02  0.27986039640E+03  0.33789153552E+03  0.17300000000E+03 0.  1.
<mgrwt>
<rscale>  2 0.18933792E+03</rscale>
<asrwt>0</asrwt>
<pdfrwt beam="1">  1       21 0.11363422E+00 0.18933792E+03</pdfrwt>
<pdfrwt beam="2">  1       21 0.76723416E-02 0.18933792E+03</pdfrwt>
<totfact> 0.78010567E+04</totfact>
</mgrwt>
</event>
<event>
 4    1  0.4111182E+000  0.1736005E+03  0.7546771E-02  0.1174144E+00
         21   -1    0    0  501  502  0.00000000000E+00  0.00000000000E+00  0.66328477915E+02  0.66328477915E+02  0.00000000000E+00 0. -1.
         21   -1    0    0  502  503 -0.00000000000E+00 -0.00000000000E+00 -0.47630168470E+03  0.47630168470E+03  0.00000000000E+00 0. -1.
          6    1    1    2  501    0 -0.67638585846E+01  0.12742772096E+02 -0.14675619490E+03  0.22732027794E+03  0.17300000000E+03 0. -1.
         -6    1    1    2    0  503  0.67638585846E+01 -0.12742772096E+02 -0.26321701189E+03  0.31530988467E+03  0.17300000000E+03 0. -1.
<mgrwt>
<rscale>  2 0.17360048E+03</rscale>
<asrwt>0</asrwt>
<pdfrwt beam="1">  1       21 0.10204381E-01 0.17360048E+03</pdfrwt>
<pdfrwt beam="2">  1       21 0.73277183E-01 0.17360048E+03</pdfrwt>
<totfact> 0.13199504E+05</totfact>
</mgrwt>
</event>
<event>
 4    1  0.4111182E+000  0.2233280E+03  0.7546771E-02  0.1131426E+00
         21   -1    0    0  501  502  0.00000000000E+00  0.00000000000E+00  0.52042613685E+03  0.52042613685E+03  0.00000000000E+00 0. -1.
         21   -1    0    0  502  503 -0.00000000000E+00 -0.00000000000E+00 -0.10448661994E+03  0.10448661994E+03  0.00000000000E+00 0. -1.
          6    1    1    2  501    0  0.52177266045E+02 -0.13123999526E+03  0.29787607092E+03  0.37229767267E+03  0.17300000000E+03 0. -1.
         -6    1    1    2    0  503 -0.52177266045E+02  0.13123999526E+03  0.11806344600E+03  0.25261508413E+03  0.17300000000E+03 0. -1.
<mgrwt>
<rscale>  2 0.22332802E+03</rscale>
<asrwt>0</asrwt>
<pdfrwt beam="1">  1       21 0.80065558E-01 0.22332802E+03</pdfrwt>
<pdfrwt beam="2">  1       21 0.16074865E-01 0.22332802E+03</pdfrwt>
<totfact> 0.46752502E+04</totfact>
</mgrwt>
</event>
<event>
 4    1  0.4111182E+000  0.2346931E+03  0.7546771E-02  0.1123379E+00
         21   -1    0    0  503  502  0.00000000000E+00  0.00000000000E+00  0.13240255807E+03  0.13240255807E+03  0.00000000000E+00 0.  1.
         21   -1    0    0  501  503 -0.00000000000E+00 -0.00000000000E+00 -0.43855244222E+03  0.43855244222E+03  0.00000000000E+00 0.  1.
          6    1    1    2  501    0  0.15061130147E+03  0.49679782593E+02 -0.21779776816E+03  0.32018231173E+03  0.17300000000E+03 0.  1.
         -6    1    1    2    0  502 -0.15061130147E+03 -0.49679782593E+02 -0.88352115994E+02  0.25077268856E+03  0.17300000000E+03 0.  1.
<mgrwt>
<rscale>  2 0.23469309E+03</rscale>
<asrwt>0</asrwt>
<pdfrwt beam="1">  1       21 0.20369624E-01 0.23469309E+03</pdfrwt>
<pdfrwt beam="2">  1       21 0.67469606E-01 0.23469309E+03</pdfrwt>
<totfact> 0.43920372E+04</totfact>
</mgrwt>
</event>
<event>
 4    1  0.4111182E+000  0.2188526E+03  0.7546771E-02  0.1134741E+00
         21   -1    0    0  503  502  0.00000000000E+00  0.00000000000E+00  0.37831951203E+03  0.37831951203E+03  0.00000000000E+00 0. -1.
         21   -1    0    0  501  503 -0.00000000000E+00 -0.00000000000E+00 -0.12679823825E+03  0.12679823825E+03  0.00000000000E+00 0.  1.
          6    1    1    2  501    0  0.10905514935E+03  0.77938792707E+02  0.11585672940E+03  0.24762726578E+03  0.17300000000E+03 0.  1.
         -6    1    1    2    0  502 -0.10905514935E+03 -0.77938792707E+02  0.13566454438E+03  0.25749048450E+03  0.17300000000E+03 0. -1.
<mgrwt>
<rscale>  2 0.21885265E+03</rscale>
<asrwt>0</asrwt>
<pdfrwt beam="1">  1       21 0.58203001E-01 0.21885265E+03</pdfrwt>
<pdfrwt beam="2">  1       21 0.19507421E-01 0.21885265E+03</pdfrwt>
<totfact> 0.66102743E+04</totfact>
</mgrwt>
</event>
<event>
 4    1  0.4111182E+000  0.1807412E+03  0.7546771E-02  0.1167088E+00
         21   -1    0    0  501  502  0.00000000000E+00  0.00000000000E+00  0.36729401465E+04  0.36729401465E+04  0.00000000000E+00 0.  1.
         21   -1    0    0  502  503 -0.00000000000E+00 -0.00000000000E+00 -0.14505455655E+02  0.14505455655E+02  0.00000000000E+00 0.  1.
          6    1    1    2  501    0 -0.52238680794E+02  0.30825420454E+01  0.29759575774E+04  0.29814410751E+04  0.17300000000E+03 0.  1.
         -6    1    1    2    0  503  0.52238680794E+02 -0.30825420454E+01  0.68247711341E+03  0.70600452701E+03  0.17300000000E+03 0.  1.
<mgrwt>
<rscale>  2 0.18074120E+03</rscale>
<asrwt>0</asrwt>
<pdfrwt beam="1">  1       21 0.56506697E+00 0.18074120E+03</pdfrwt>
<pdfrwt beam="2">  1       21 0.22316115E-02 0.18074120E+03</pdfrwt>
<totfact> 0.66476492E+02</totfact>
</mgrwt>
</event>
<event>
 4    1  0.4111182E+000  0.2951230E+03  0.7546771E-02  0.1087704E+00
         21   -1    0    0  503  502  0.00000000000E+00  0.00000000000E+00  0.69145329816E+03  0.69145329816E+03  0.00000000000E+00 0. -1.
         21   -1    0    0  501  503 -0.00000000000E+00 -0.00000000000E+00 -0.15433101521E+03  0.15433101521E+03  0.00000000000E+00 0. -1.
          6    1    1    2  501    0 -0.16869994693E+03  0.16943713396E+03  0.87253301326E+02  0.30775112193E+03  0.17300000000E+03 0. -1.
         -6    1    1    2    0  502  0.16869994693E+03 -0.16943713396E+03  0.44986898162E+03  0.53803319143E+03  0.17300000000E+03 0. -1.
<mgrwt>
<rscale>  2 0.29512305E+03</rscale>
<asrwt>0</asrwt>
<pdfrwt beam="1">  1       21 0.10637743E+00 0.29512305E+03</pdfrwt>
<pdfrwt beam="2">  1       21 0.23743234E-01 0.29512305E+03</pdfrwt>
<totfact> 0.11154892E+04</totfact>
</mgrwt>
</event>
<event>
 4    1  0.4111182E+000  0.1868377E+03  0.7546771E-02  0.1161345E+00
         21   -1    0    0  501  502  0.00000000000E+00  0.00000000000E+00  0.32466988441E+03  0.32466988441E+03  0.00000000000E+00 0. -1.
         21   -1    0    0  502  503 -0.00000000000E+00 -0.00000000000E+00 -0.10852422891E+03  0.10852422891E+03  0.00000000000E+00 0.  1.
          6    1    1    2  501    0  0.70545246926E+02  0.16392432086E+01  0.12891437978E+03  0.22699611515E+03  0.17300000000E+03 0.  1.
         -6    1    1    2    0  503 -0.70545246926E+02 -0.16392432086E+01  0.87231275724E+02  0.20619799816E+03  0.17300000000E+03 0. -1.
<mgrwt>
<rscale>  2 0.18683768E+03</rscale>
<asrwt>0</asrwt>
<pdfrwt beam="1">  1       21 0.49949212E-01 0.18683768E+03</pdfrwt>
<pdfrwt beam="2">  1       21 0.16696035E-01 0.18683768E+03</pdfrwt>
<totfact> 0.12339477E+05</totfact>
</mgrwt>
</event>
<event>
 4    1  0.4111182E+000  0.1787240E+03  0.7546771E-02  0.1169044E+00
         21   -1    0    0  503  502  0.00000000000E+00  0.00000000000E+00  0.26920377645E+02  0.26920377645E+02  0.00000000000E+00 0.  1.
         21   -1    0    0  501  503 -0.00000000000E+00 -0.00000000000E+00 -0.14100579424E+04  0.14100579424E+04  0.00000000000E+00 0.  1.
          6    1    1    2  501    0  0.44868484710E+02  0.26981315799E+00 -0.97762577275E+03  0.99382815681E+03  0.17300000000E+03 0.  1.
         -6    1    1    2    0  502 -0.44868484710E+02 -0.26981315799E+00 -0.40551179197E+03  0.44315016320E+03  0.17300000000E+03 0.  1.
<mgrwt>
<rscale>  2 0.17872396E+03</rscale>
<asrwt>0</asrwt>
<pdfrwt beam="1">  1       21 0.41415956E-02 0.17872396E+03</pdfrwt>
<pdfrwt beam="2">  1       21 0.21693204E+00 0.17872396E+03</pdfrwt>
<totfact> 0.39234671E+04</totfact>
</mgrwt>
</event>
<event>
 4    1  0.4111182E+000  0.2094843E+03  0.7546771E-02  0.1141975E+00
         21   -1    0    0  501  502  0.00000000000E+00  0.00000000000E+00  0.12478126955E+03  0.12478126955E+03  0.00000000000E+00 0. -1.
         21   -1    0    0  502  503 -0.00000000000E+00 -0.00000000000E+00 -0.55627793920E+03  0.55627793920E+03  0.00000000000E+00 0.  1.
          6    1    1    2  501    0  0.10547218177E+03  0.53200467498E+02 -0.92319421185E+01  0.20968762392E+03  0.17300000000E+03 0. -1.
         -6    1    1    2    0  503 -0.10547218177E+03 -0.53200467498E+02 -0.42226472753E+03  0.47137158483E+03  0.17300000000E+03 0.  1.
<mgrwt>
<rscale>  2 0.20948430E+03</rscale>
<asrwt>0</asrwt>
<pdfrwt beam="1">  1       21 0.19197119E-01 0.20948430E+03</pdfrwt>
<pdfrwt beam="2">  1       21 0.85581221E-01 0.20948430E+03</pdfrwt>
<totfact> 0.29116364E+04</totfact>
</mgrwt>
</event>
<event>
 4    1  0.4111182E+000  0.1787326E+03  0.7546771E-02  0.1169035E+00
         21   -1    0    0  501  502  0.00000000000E+00  0.00000000000E+00  0.15685323330E+03  0.15685323330E+03  0.00000000000E+00 0.  1.
         21   -1    0    0  502  503 -0.00000000000E+00 -0.00000000000E+00 -0.27027992567E+03  0.27027992567E+03  0.00000000000E+00 0.  1.
          6    1    1    2  501    0  0.35795745130E+02  0.27110721800E+02  0.49313552847E+02  0.18541076857E+03  0.17300000000E+03 0.  1.
         -6    1    1    2    0  503 -0.35795745130E+02 -0.27110721800E+02 -0.16274024522E+03  0.24172239040E+03  0.17300000000E+03 0.  1.
<mgrwt>
<rscale>  2 0.17873256E+03</rscale>
<asrwt>0</asrwt>
<pdfrwt beam="1">  1       21 0.24131267E-01 0.17873256E+03</pdfrwt>
<pdfrwt beam="2">  1       21 0.41581527E-01 0.17873256E+03</pdfrwt>
<totfact> 0.90715859E+04</totfact>
</mgrwt>
</event>
<event>
 4    1  0.4111182E+000  0.1952882E+03  0.7546771E-02  0.1153776E+00
         21   -1    0    0  503  502  0.00000000000E+00  0.00000000000E+00  0.15590451085E+03  0.15590451085E+03  0.00000000000E+00 0. -1.
         21   -1    0    0  501  503 -0.00000000000E+00 -0.00000000000E+00 -0.62405610567E+03  0.62405610567E+03  0.00000000000E+00 0.  1.
          6    1    1    2  501    0  0.41706177315E+02 -0.80430599270E+02 -0.53816410948E+03  0.57250161157E+03  0.17300000000E+03 0.  1.
         -6    1    1    2    0  502 -0.41706177315E+02  0.80430599270E+02  0.70012514660E+02  0.20745900495E+03  0.17300000000E+03 0. -1.
<mgrwt>
<rscale>  2 0.19528821E+03</rscale>
<asrwt>0</asrwt>
<pdfrwt beam="1">  1       21 0.23985310E-01 0.19528821E+03</pdfrwt>
<pdfrwt beam="2">  1       21 0.96008630E-01 0.19528821E+03</pdfrwt>
<totfact> 0.14787226E+04</totfact>
</mgrwt>
</event>
<event>
 4    1  0.4111182E+000  0.1923134E+03  0.7546771E-02  0.1156391E+00
         21   -1    0    0  503  502  0.00000000000E+00  0.00000000000E+00  0.56776515085E+03  0.56776515085E+03  0.00000000000E+00 0.  1.
         21   -1    0    0  501  503 -0.00000000000E+00 -0.00000000000E+00 -0.66843931271E+02  0.66843931271E+02  0.00000000000E+00 0. -1.
          6    1    1    2  501    0  0.15844850904E+02 -0.82488648773E+02  0.19980551067E+03  0.27732053399E+03  0.17300000000E+03 0. -1.
         -6    1    1    2    0  502 -0.15844850904E+02  0.82488648773E+02  0.30111570891E+03  0.35728854814E+03  0.17300000000E+03 0.  1.
<mgrwt>
<rscale>  2 0.19231338E+03</rscale>
<asrwt>0</asrwt>
<pdfrwt beam="1">  1       21 0.87348481E-01 0.19231338E+03</pdfrwt>
<pdfrwt beam="2">  1       21 0.10283682E-01 0.19231338E+03</pdfrwt>
<totfact> 0.86948199E+04</totfact>
</mgrwt>
</event>
<event>
 4    1  0.4111182E+000  0.2417287E+03  0.7546771E-02  0.1118647E+00
         21   -1    0    0  501  502  0.00000000000E+00  0.00000000000E+00  0.10849720404E+04  0.10849720404E+04  0.00000000000E+00 0.  1.
         21   -1    0    0  502  503 -0.00000000000E+00 -0.00000000000E+00 -0.61797623888E+02  0.61797623888E+02  0.00000000000E+00 0.  1.
          6    1    1    2  501    0 -0.82091352515E+01  0.16863087472E+03  0.71712996484E+03  0.75677483327E+03  0.17300000000E+03 0. -1.
         -6    1    1    2    0  503  0.82091352515E+01 -0.16863087472E+03  0.30604445164E+03  0.38999483098E+03  0.17300000000E+03 0. -1.
<mgrwt>
<rscale>  2 0.24172869E+03</rscale>
<asrwt>0</asrwt>
<pdfrwt beam="1">  1       21 0.16691876E+00 0.24172869E+03</pdfrwt>
<pdfrwt beam="2">  1       21 0.95073276E-02 0.24172869E+03</pdfrwt>
<totfact> 0.19277563E+04</totfact>
</mgrwt>
</event>
<event>
 4    1  0.4111182E+000  0.2126218E+03  0.7546771E-02  0.1139506E+00
         21   -1    0    0  501  502  0.00000000000E+00  0.00000000000E+00  0.68575800185E+03  0.68575800185E+03  0.00000000000E+00 0. -1.
         21   -1    0    0  502  503 -0.00000000000E+00 -0.00000000000E+00 -0.15160772809E+03  0.15160772809E+03  0.00000000000E+00 0. -1.
          6    1    1    2  501    0 -0.10493454473E+03 -0.65328130803E+02  0.58183060062E+03  0.61946337355E+03  0.17300000000E+03 0. -1.
         -6    1    1    2    0  503  0.10493454473E+03  0.65328130803E+02 -0.47680326860E+02  0.21790235639E+03  0.17300000000E+03 0. -1.
<mgrwt>
<rscale>  2 0.21262178E+03</rscale>
<asrwt>0</asrwt>
<pdfrwt beam="1">  1       21 0.10550123E+00 0.21262178E+03</pdfrwt>
<pdfrwt beam="2">  1       21 0.23324266E-01 0.21262178E+03</pdfrwt>
<totfact> 0.12317724E+04</totfact>
</mgrwt>
</event>
<event>
 4    1  0.4111182E+000  0.3002918E+03  0.7546771E-02  0.1085095E+00
         21   -1    0    0  503  502  0.00000000000E+00  0.00000000000E+00  0.16981221710E+04  0.16981221710E+04  0.00000000000E+00 0. -1.
         21   -1    0    0  501  503 -0.00000000000E+00 -0.00000000000E+00 -0.80372827322E+02  0.80372827322E+02  0.00000000000E+00 0.  1.
          6    1    1    2  501    0  0.22996750078E+03 -0.85796805981E+02  0.29089783289E+03  0.41808694372E+03  0.17300000000E+03 0.  1.
         -6    1    1    2    0  502 -0.22996750078E+03  0.85796805981E+02  0.13268515108E+04  0.13604080546E+04  0.17300000000E+03 0. -1.
<mgrwt>
<rscale>  2 0.30029176E+03</rscale>
<asrwt>0</asrwt>
<pdfrwt beam="1">  1       21 0.26124954E+00 0.30029176E+03</pdfrwt>
<pdfrwt beam="2">  1       21 0.12365052E-01 0.30029176E+03</pdfrwt>
<totfact> 0.28845883E+03</totfact>
</mgrwt>
</event>
<event>
 4    1  0.4111182E+000  0.2080625E+03  0.7546771E-02  0.1143110E+00
         21   -1    0    0  503  502  0.00000000000E+00  0.00000000000E+00  0.31000262610E+03  0.31000262610E+03  0.00000000000E+00 0.  1.
         21   -1    0    0  501  503 -0.00000000000E+00 -0.00000000000E+00 -0.40746462913E+03  0.40746462913E+03  0.00000000000E+00 0.  1.
          6    1    1    2  501    0 -0.11466914607E+03  0.14560251526E+02 -0.33956764630E+03  0.39824138459E+03  0.17300000000E+03 0.  1.
         -6    1    1    2    0  502  0.11466914607E+03 -0.14560251526E+02  0.24210564327E+03  0.31922587064E+03  0.17300000000E+03 0.  1.
<mgrwt>
<rscale>  2 0.20806252E+03</rscale>
<asrwt>0</asrwt>
<pdfrwt beam="1">  1       21 0.47692712E-01 0.20806252E+03</pdfrwt>
<pdfrwt beam="2">  1       21 0.62686866E-01 0.20806252E+03</pdfrwt>
<totfact> 0.98065902E+03</totfact>
</mgrwt>
</event>
<event>
 4    1  0.4111182E+000  0.1826293E+03  0.7546771E-02  0.1165282E+00
         21   -1    0    0  503  502  0.00000000000E+00  0.00000000000E+00  0.15298676000E+03  0.15298676000E+03  0.00000000000E+00 0.  1.
         21   -1    0    0  501  503 -0.00000000000E+00 -0.00000000000E+00 -0.22628805820E+03  0.22628805820E+03  0.00000000000E+00 0.  1.
          6    1    1    2  501    0  0.83683200784E+01 -0.57917372606E+02 -0.72909911816E+02  0.19664512725E+03  0.17300000000E+03 0.  1.
         -6    1    1    2    0  502 -0.83683200784E+01  0.57917372606E+02 -0.39138638455E+00  0.18262969094E+03  0.17300000000E+03 0.  1.
<mgrwt>
<rscale>  2 0.18262927E+03</rscale>
<asrwt>0</asrwt>
<pdfrwt beam="1">  1       21 0.23536425E-01 0.18262927E+03</pdfrwt>
<pdfrwt beam="2">  1       21 0.34813547E-01 0.18262927E+03</pdfrwt>
<totfact> 0.13557509E+05</totfact>
</mgrwt>
</event>
