<event>
 4    1  0.4578942E+006  0.4766849E+02  0.7546771E-02  0.1458339E+00
         21   -1    0    0  503  501  0.00000000000E+00  0.00000000000E+00  0.63740382523E+02  0.63740382523E+02  0.00000000000E+00 0. -1.
         21   -1    0    0  504  502 -0.00000000000E+00 -0.00000000000E+00 -0.38250679588E+02  0.38250679588E+02  0.00000000000E+00 0. -1.
         21    1    1    2  503  502  0.72929643754E+01  0.47107303170E+02 -0.55459683292E+00  0.47671720328E+02  0.00000000000E+00 0. -1.
         21    1    1    2  504  501 -0.72929643754E+01 -0.47107303170E+02  0.26044299768E+02  0.54319341783E+02  0.00000000000E+00 0. -1.
<mgrwt>
<rscale>  2 0.47668494E+02</rscale>
<asrwt>0</asrwt>
<pdfrwt beam="1">  1       21 0.98062127E-02 0.47668494E+02</pdfrwt>
<pdfrwt beam="2">  1       21 0.58847200E-02 0.47668494E+02</pdfrwt>
<totfact> 0.14996790E+07</totfact>
</mgrwt>
</event>
<event>
 4    1  0.4578942E+006  0.2133056E+02  0.7546771E-02  0.1720094E+00
         21   -1    0    0  503  501  0.00000000000E+00  0.00000000000E+00  0.10435352554E+02  0.10435352554E+02  0.00000000000E+00 0.  1.
         21   -1    0    0  504  502 -0.00000000000E+00 -0.00000000000E+00 -0.44077762044E+02  0.44077762044E+02  0.00000000000E+00 0.  1.
         21    1    1    2  503  502 -0.10002012932E+01  0.21307092321E+02 -0.13986694302E+02  0.25507257855E+02  0.00000000000E+00 0.  1.
         21    1    1    2  504  501  0.10002012932E+01 -0.21307092321E+02 -0.19655715188E+02  0.29005856743E+02  0.00000000000E+00 0.  1.
<mgrwt>
<rscale>  2 0.21330555E+02</rscale>
<asrwt>0</asrwt>
<pdfrwt beam="1">  1       21 0.16054388E-02 0.21330555E+02</pdfrwt>
<pdfrwt beam="2">  1       21 0.67811942E-02 0.21330555E+02</pdfrwt>
<totfact> 0.17980998E+08</totfact>
</mgrwt>
</event>
<event>
 4    1  0.4578942E+006  0.2747971E+02  0.7546771E-02  0.1627744E+00
         21   -1    0    0  502  501  0.00000000000E+00  0.00000000000E+00  0.31440998078E+02  0.31440998078E+02  0.00000000000E+00 0. -1.
         21   -1    0    0  504  502 -0.00000000000E+00 -0.00000000000E+00 -0.22552714400E+03  0.22552714400E+03  0.00000000000E+00 0.  1.
         21    1    1    2  503  501  0.27427337037E+02 -0.16957355537E+01  0.24407003062E+02  0.36753722730E+02  0.00000000000E+00 0. -1.
         21    1    1    2  504  503 -0.27427337037E+02  0.16957355537E+01 -0.21849314899E+03  0.22021441935E+03  0.00000000000E+00 0.  1.
<mgrwt>
<rscale>  2 0.27479708E+02</rscale>
<asrwt>0</asrwt>
<pdfrwt beam="1">  1       21 0.48370767E-02 0.27479708E+02</pdfrwt>
<pdfrwt beam="2">  1       21 0.34696483E-01 0.27479708E+02</pdfrwt>
<totfact> 0.20595899E+06</totfact>
</mgrwt>
</event>
<event>
 4    1  0.4578942E+006  0.2004092E+02  0.7546771E-02  0.1744515E+00
         21   -1    0    0  503  501  0.00000000000E+00  0.00000000000E+00  0.32325805043E+01  0.32325805043E+01  0.00000000000E+00 0. -1.
         21   -1    0    0  501  502 -0.00000000000E+00 -0.00000000000E+00 -0.15865716490E+03  0.15865716490E+03  0.00000000000E+00 0. -1.
         21    1    1    2  503  504  0.11162985344E+02 -0.16644109125E+02 -0.40015662420E+02  0.44753679729E+02  0.00000000000E+00 0. -1.
         21    1    1    2  504  502 -0.11162985344E+02  0.16644109125E+02 -0.11540892197E+03  0.11713606567E+03  0.00000000000E+00 0. -1.
<mgrwt>
<rscale>  2 0.20040923E+02</rscale>
<asrwt>0</asrwt>
<pdfrwt beam="1">  1       21 0.49732019E-03 0.20040923E+02</pdfrwt>
<pdfrwt beam="2">  1       21 0.24408789E-01 0.20040923E+02</pdfrwt>
<totfact> 0.11788440E+08</totfact>
</mgrwt>
</event>
<event>
 4    1  0.4578942E+006  0.2745491E+02  0.7546771E-02  0.1628055E+00
         21   -1    0    0  504  501  0.00000000000E+00  0.00000000000E+00  0.86309535779E+01  0.86309535779E+01  0.00000000000E+00 0. -1.
         21   -1    0    0  501  502 -0.00000000000E+00 -0.00000000000E+00 -0.10565377810E+03  0.10565377810E+03  0.00000000000E+00 0. -1.
         21    1    1    2  503  502  0.27437562779E+02  0.97584756387E+00 -0.72306138298E+02  0.77343065399E+02  0.00000000000E+00 0. -1.
         21    1    1    2  504  503 -0.27437562779E+02 -0.97584756387E+00 -0.24716686229E+02  0.36941666284E+02  0.00000000000E+00 0. -1.
<mgrwt>
<rscale>  2 0.27454911E+02</rscale>
<asrwt>0</asrwt>
<pdfrwt beam="1">  1       21 0.13278392E-02 0.27454911E+02</pdfrwt>
<pdfrwt beam="2">  1       21 0.16254426E-01 0.27454911E+02</pdfrwt>
<totfact> 0.60033336E+07</totfact>
</mgrwt>
</event>
<event>
 4    1  0.4578942E+006  0.2339146E+02  0.7546771E-02  0.1685242E+00
         21   -1    0    0  503  501  0.00000000000E+00  0.00000000000E+00  0.10762226611E+04  0.10762226611E+04  0.00000000000E+00 0. -1.
         21   -1    0    0  501  502 -0.00000000000E+00 -0.00000000000E+00 -0.92702492098E+00  0.92702492098E+00  0.00000000000E+00 0. -1.
         21    1    1    2  503  504  0.22840059250E+02  0.50489592643E+01  0.89956458794E+03  0.89986866163E+03  0.00000000000E+00 0. -1.
         21    1    1    2  504  502 -0.22840059250E+02 -0.50489592643E+01  0.17573104821E+03  0.17728102437E+03  0.00000000000E+00 0. -1.
<mgrwt>
<rscale>  2 0.23391458E+02</rscale>
<asrwt>0</asrwt>
<pdfrwt beam="1">  1       21 0.16557172E+00 0.23391458E+02</pdfrwt>
<pdfrwt beam="2">  1       21 0.14262008E-03 0.23391458E+02</pdfrwt>
<totfact> 0.15048509E+07</totfact>
</mgrwt>
</event>
<event>
 4    1  0.4578942E+006  0.2437719E+02  0.7546771E-02  0.1670112E+00
         21   -1    0    0  503  501  0.00000000000E+00  0.00000000000E+00  0.20019313515E+01  0.20019313515E+01  0.00000000000E+00 0. -1.
         21   -1    0    0  504  502 -0.00000000000E+00 -0.00000000000E+00 -0.37491283805E+03  0.37491283805E+03  0.00000000000E+00 0. -1.
         21    1    1    2  503  502 -0.23605425769E+02  0.60853511713E+01 -0.27245692351E+03  0.27354528472E+03  0.00000000000E+00 0. -1.
         21    1    1    2  504  501  0.23605425769E+02 -0.60853511713E+01 -0.10045398318E+03  0.10336948467E+03  0.00000000000E+00 0. -1.
<mgrwt>
<rscale>  2 0.24377195E+02</rscale>
<asrwt>0</asrwt>
<pdfrwt beam="1">  1       21 0.30798975E-03 0.24377195E+02</pdfrwt>
<pdfrwt beam="2">  1       21 0.57678839E-01 0.24377195E+02</pdfrwt>
<totfact> 0.50107410E+07</totfact>
</mgrwt>
</event>
<event>
 4    1  0.4578942E+006  0.2358838E+02  0.7546771E-02  0.1682146E+00
         21   -1    0    0  502  501  0.00000000000E+00  0.00000000000E+00  0.18922019866E+02  0.18922019866E+02  0.00000000000E+00 0. -1.
         21   -1    0    0  504  502 -0.00000000000E+00 -0.00000000000E+00 -0.51116002922E+02  0.51116002922E+02  0.00000000000E+00 0. -1.
         21    1    1    2  503  501  0.23555116075E+02  0.12523204126E+01  0.67253499000E+01  0.24528394383E+02  0.00000000000E+00 0. -1.
         21    1    1    2  504  503 -0.23555116075E+02 -0.12523204126E+01 -0.38919332957E+02  0.45509628405E+02  0.00000000000E+00 0. -1.
<mgrwt>
<rscale>  2 0.23588383E+02</rscale>
<asrwt>0</asrwt>
<pdfrwt beam="1">  1       21 0.29110800E-02 0.23588383E+02</pdfrwt>
<pdfrwt beam="2">  1       21 0.78640003E-02 0.23588383E+02</pdfrwt>
<totfact> 0.58317733E+07</totfact>
</mgrwt>
</event>
<event>
 4    1  0.4578942E+006  0.2143526E+02  0.7546771E-02  0.1718206E+00
         21   -1    0    0  502  501  0.00000000000E+00  0.00000000000E+00  0.60373043499E+02  0.60373043499E+02  0.00000000000E+00 0. -1.
         21   -1    0    0  504  502 -0.00000000000E+00 -0.00000000000E+00 -0.23023303806E+02  0.23023303806E+02  0.00000000000E+00 0.  1.
         21    1    1    2  503  501  0.20062721773E+02 -0.75470206074E+01  0.52792097897E+02  0.56977854693E+02  0.00000000000E+00 0. -1.
         21    1    1    2  504  503 -0.20062721773E+02  0.75470206074E+01 -0.15442358204E+02  0.26418492612E+02  0.00000000000E+00 0.  1.
<mgrwt>
<rscale>  2 0.21435259E+02</rscale>
<asrwt>0</asrwt>
<pdfrwt beam="1">  1       21 0.92881605E-02 0.21435259E+02</pdfrwt>
<pdfrwt beam="2">  1       21 0.35420468E-02 0.21435259E+02</pdfrwt>
<totfact> 0.31912581E+07</totfact>
</mgrwt>
</event>
<event>
 4    1  0.4578942E+006  0.2267292E+02  0.7546771E-02  0.1696868E+00
         21   -1    0    0  504  501  0.00000000000E+00  0.00000000000E+00  0.37284366005E+02  0.37284366005E+02  0.00000000000E+00 0. -1.
         21   -1    0    0  501  502 -0.00000000000E+00 -0.00000000000E+00 -0.44569166656E+02  0.44569166656E+02  0.00000000000E+00 0. -1.
         21    1    1    2  503  502 -0.21612582616E+02 -0.68525504518E+01 -0.37654674930E+02  0.43953790725E+02  0.00000000000E+00 0. -1.
         21    1    1    2  504  503  0.21612582616E+02  0.68525504518E+01  0.30369874279E+02  0.37899741935E+02  0.00000000000E+00 0. -1.
<mgrwt>
<rscale>  2 0.22672917E+02</rscale>
<asrwt>0</asrwt>
<pdfrwt beam="1">  1       21 0.57360563E-02 0.22672917E+02</pdfrwt>
<pdfrwt beam="2">  1       21 0.68567949E-02 0.22672917E+02</pdfrwt>
<totfact> 0.24734515E+07</totfact>
</mgrwt>
</event>
<event>
 4    1  0.4578942E+006  0.2053776E+02  0.7546771E-02  0.1734841E+00
         21   -1    0    0  504  501  0.00000000000E+00  0.00000000000E+00  0.93601601119E+01  0.93601601119E+01  0.00000000000E+00 0. -1.
         21   -1    0    0  501  502 -0.00000000000E+00 -0.00000000000E+00 -0.26771424840E+03  0.26771424840E+03  0.00000000000E+00 0. -1.
         21    1    1    2  503  502  0.12130144147E+01  0.20501906610E+02 -0.25551765250E+03  0.25634170617E+03  0.00000000000E+00 0. -1.
         21    1    1    2  504  503 -0.12130144147E+01 -0.20501906610E+02 -0.28364357836E+01  0.20732702346E+02  0.00000000000E+00 0. -1.
<mgrwt>
<rscale>  2 0.20537760E+02</rscale>
<asrwt>0</asrwt>
<pdfrwt beam="1">  1       21 0.14400248E-02 0.20537760E+02</pdfrwt>
<pdfrwt beam="2">  1       21 0.41186803E-01 0.20537760E+02</pdfrwt>
<totfact> 0.93908466E+06</totfact>
</mgrwt>
</event>
<event>
 4    1  0.4578942E+006  0.2229624E+02  0.7546771E-02  0.1703178E+00
         21   -1    0    0  503  501  0.00000000000E+00  0.00000000000E+00  0.55332828426E+03  0.55332828426E+03  0.00000000000E+00 0.  1.
         21   -1    0    0  504  502 -0.00000000000E+00 -0.00000000000E+00 -0.80880062969E+01  0.80880062969E+01  0.00000000000E+00 0.  1.
         21    1    1    2  503  502 -0.38642709205E+01 -0.21958821013E+02  0.53727882904E+03  0.53774125985E+03  0.00000000000E+00 0.  1.
         21    1    1    2  504  501  0.38642709205E+01  0.21958821013E+02  0.79614489232E+01  0.23675030707E+02  0.00000000000E+00 0.  1.
<mgrwt>
<rscale>  2 0.22296242E+02</rscale>
<asrwt>0</asrwt>
<pdfrwt beam="1">  1       21 0.85127398E-01 0.22296242E+02</pdfrwt>
<pdfrwt beam="2">  1       21 0.12443091E-02 0.22296242E+02</pdfrwt>
<totfact> 0.27926244E+06</totfact>
</mgrwt>
</event>
<event>
 4    1  0.4578942E+006  0.2800853E+02  0.7546771E-02  0.1621206E+00
         21   -1    0    0  503  501  0.00000000000E+00  0.00000000000E+00  0.60731173166E+03  0.60731173166E+03  0.00000000000E+00 0.  1.
         21   -1    0    0  504  502 -0.00000000000E+00 -0.00000000000E+00 -0.35307420100E+01  0.35307420100E+01  0.00000000000E+00 0. -1.
         21    1    1    2  503  502  0.12781703254E+02 -0.24921990006E+02  0.58672731406E+02  0.65015128505E+02  0.00000000000E+00 0. -1.
         21    1    1    2  504  501 -0.12781703254E+02  0.24921990006E+02  0.54510825824E+03  0.54582734517E+03  0.00000000000E+00 0.  1.
<mgrwt>
<rscale>  2 0.28008526E+02</rscale>
<asrwt>0</asrwt>
<pdfrwt beam="1">  1       21 0.93432491E-01 0.28008526E+02</pdfrwt>
<pdfrwt beam="2">  1       21 0.54319156E-03 0.28008526E+02</pdfrwt>
<totfact> 0.81623419E+06</totfact>
</mgrwt>
</event>
<event>
 4    1  0.4578942E+006  0.2682372E+02  0.7546771E-02  0.1636109E+00
         21   -1    0    0  503  501  0.00000000000E+00  0.00000000000E+00  0.76786938367E+01  0.76786938367E+01  0.00000000000E+00 0. -1.
         21   -1    0    0  504  502 -0.00000000000E+00 -0.00000000000E+00 -0.18615509656E+03  0.18615509656E+03  0.00000000000E+00 0.  1.
         21    1    1    2  503  502 -0.10892925369E+02  0.24512367079E+02 -0.15753838049E+03  0.15980567352E+03  0.00000000000E+00 0.  1.
         21    1    1    2  504  501  0.10892925369E+02 -0.24512367079E+02 -0.20938022234E+02  0.34028116874E+02  0.00000000000E+00 0. -1.
<mgrwt>
<rscale>  2 0.26823720E+02</rscale>
<asrwt>0</asrwt>
<pdfrwt beam="1">  1       21 0.11813375E-02 0.26823720E+02</pdfrwt>
<pdfrwt beam="2">  1       21 0.28639245E-01 0.26823720E+02</pdfrwt>
<totfact> 0.26168446E+07</totfact>
</mgrwt>
</event>
<event>
 4    1  0.4578942E+006  0.2519758E+02  0.7546771E-02  0.1658180E+00
         21   -1    0    0  503  501  0.00000000000E+00  0.00000000000E+00  0.31657680049E+03  0.31657680049E+03  0.00000000000E+00 0.  1.
         21   -1    0    0  504  502 -0.00000000000E+00 -0.00000000000E+00 -0.34354549257E+01  0.34354549257E+01  0.00000000000E+00 0.  1.
         21    1    1    2  503  502 -0.98169529143E+01  0.23206583570E+02  0.53343393979E+02  0.58995218168E+02  0.00000000000E+00 0.  1.
         21    1    1    2  504  501  0.98169529143E+01 -0.23206583570E+02  0.25979795159E+03  0.26101703725E+03  0.00000000000E+00 0.  1.
<mgrwt>
<rscale>  2 0.25197581E+02</rscale>
<asrwt>0</asrwt>
<pdfrwt beam="1">  1       21 0.48704100E-01 0.25197581E+02</pdfrwt>
<pdfrwt beam="2">  1       21 0.52853178E-03 0.25197581E+02</pdfrwt>
<totfact> 0.31802228E+07</totfact>
</mgrwt>
</event>
<event>
 4    1  0.4578942E+006  0.2204989E+02  0.7546771E-02  0.1707391E+00
         21   -1    0    0  503  501  0.00000000000E+00  0.00000000000E+00  0.19454581208E+02  0.19454581208E+02  0.00000000000E+00 0.  1.
         21   -1    0    0  504  502 -0.00000000000E+00 -0.00000000000E+00 -0.76841720529E+02  0.76841720529E+02  0.00000000000E+00 0.  1.
         21    1    1    2  503  502  0.19155636733E+02 -0.10920591012E+02 -0.68244498419E+02  0.71718263303E+02  0.00000000000E+00 0.  1.
         21    1    1    2  504  501 -0.19155636733E+02  0.10920591012E+02  0.10857359098E+02  0.24578038434E+02  0.00000000000E+00 0.  1.
<mgrwt>
<rscale>  2 0.22049892E+02</rscale>
<asrwt>0</asrwt>
<pdfrwt beam="1">  1       21 0.29930125E-02 0.22049892E+02</pdfrwt>
<pdfrwt beam="2">  1       21 0.11821803E-01 0.22049892E+02</pdfrwt>
<totfact> 0.28025391E+07</totfact>
</mgrwt>
</event>
<event>
 4    1  0.4578942E+006  0.2210153E+02  0.7546771E-02  0.1706502E+00
         21   -1    0    0  504  501  0.00000000000E+00  0.00000000000E+00  0.38119280164E+03  0.38119280164E+03  0.00000000000E+00 0.  1.
         21   -1    0    0  501  502 -0.00000000000E+00 -0.00000000000E+00 -0.47144098936E+02  0.47144098936E+02  0.00000000000E+00 0.  1.
         21    1    1    2  503  502 -0.17129536997E+02  0.13966260209E+02 -0.44213342480E+02  0.49429718948E+02  0.00000000000E+00 0.  1.
         21    1    1    2  504  503  0.17129536997E+02 -0.13966260209E+02  0.37826204518E+03  0.37890718162E+03  0.00000000000E+00 0.  1.
<mgrwt>
<rscale>  2 0.22101526E+02</rscale>
<asrwt>0</asrwt>
<pdfrwt beam="1">  1       21 0.58645044E-01 0.22101526E+02</pdfrwt>
<pdfrwt beam="2">  1       21 0.72529385E-02 0.22101526E+02</pdfrwt>
<totfact> 0.38417627E+05</totfact>
</mgrwt>
</event>
<event>
 4    1  0.4578942E+006  0.5116774E+02  0.7546771E-02  0.1439143E+00
         21   -1    0    0  502  501  0.00000000000E+00  0.00000000000E+00  0.59851347978E+03  0.59851347978E+03  0.00000000000E+00 0.  1.
         21   -1    0    0  503  502 -0.00000000000E+00 -0.00000000000E+00 -0.56968430313E+02  0.56968430313E+02  0.00000000000E+00 0. -1.
         21    1    1    2  503  504  0.31422844544E+02 -0.40382447749E+02 -0.44134113245E+02  0.67571866907E+02  0.00000000000E+00 0. -1.
         21    1    1    2  504  501 -0.31422844544E+02  0.40382447749E+02  0.58567916271E+03  0.58791004319E+03  0.00000000000E+00 0.  1.
<mgrwt>
<rscale>  2 0.51167736E+02</rscale>
<asrwt>0</asrwt>
<pdfrwt beam="1">  1       21 0.92078993E-01 0.51167736E+02</pdfrwt>
<pdfrwt beam="2">  1       21 0.87643743E-02 0.51167736E+02</pdfrwt>
<totfact> 0.10935303E+05</totfact>
</mgrwt>
</event>
<event>
 4    1  0.4578942E+006  0.2517893E+02  0.7546771E-02  0.1658445E+00
         21   -1    0    0  503  501  0.00000000000E+00  0.00000000000E+00  0.53373469818E+02  0.53373469818E+02  0.00000000000E+00 0.  1.
         21   -1    0    0  504  502 -0.00000000000E+00 -0.00000000000E+00 -0.11878219452E+02  0.11878219452E+02  0.00000000000E+00 0.  1.
         21    1    1    2  503  502  0.17286554238E+02  0.18307198505E+02  0.20822205616E+02  0.32673272276E+02  0.00000000000E+00 0.  1.
         21    1    1    2  504  501 -0.17286554238E+02 -0.18307198505E+02  0.20673044751E+02  0.32578416994E+02  0.00000000000E+00 0.  1.
<mgrwt>
<rscale>  2 0.25178929E+02</rscale>
<asrwt>0</asrwt>
<pdfrwt beam="1">  1       21 0.82113030E-02 0.25178929E+02</pdfrwt>
<pdfrwt beam="2">  1       21 0.18274184E-02 0.25178929E+02</pdfrwt>
<totfact> 0.11355372E+08</totfact>
</mgrwt>
</event>
<event>
 4    1  0.4578942E+006  0.3638064E+02  0.7546771E-02  0.1536671E+00
         21   -1    0    0  503  501  0.00000000000E+00  0.00000000000E+00  0.61827226567E+02  0.61827226567E+02  0.00000000000E+00 0. -1.
         21   -1    0    0  501  502 -0.00000000000E+00 -0.00000000000E+00 -0.15804201977E+03  0.15804201977E+03  0.00000000000E+00 0. -1.
         21    1    1    2  503  504 -0.34696736889E+02  0.10940183753E+02  0.54110941088E+02  0.65203873479E+02  0.00000000000E+00 0. -1.
         21    1    1    2  504  502  0.34696736889E+02 -0.10940183753E+02 -0.15032573429E+03  0.15466537286E+03  0.00000000000E+00 0. -1.
<mgrwt>
<rscale>  2 0.36380643E+02</rscale>
<asrwt>0</asrwt>
<pdfrwt beam="1">  1       21 0.95118811E-02 0.36380643E+02</pdfrwt>
<pdfrwt beam="2">  1       21 0.24314157E-01 0.36380643E+02</pdfrwt>
<totfact> 0.13409769E+06</totfact>
</mgrwt>
</event>
<event>
 4    1  0.4578942E+006  0.2168743E+02  0.7546771E-02  0.1713714E+00
         21   -1    0    0  504  501  0.00000000000E+00  0.00000000000E+00  0.70024953768E+01  0.70024953768E+01  0.00000000000E+00 0.  1.
         21   -1    0    0  503  502 -0.00000000000E+00 -0.00000000000E+00 -0.82240542753E+02  0.82240542753E+02  0.00000000000E+00 0. -1.
         21    1    1    2  503  501 -0.19374669035E+02  0.97450971236E+01 -0.18516429561E+02  0.28516712325E+02  0.00000000000E+00 0.  1.
         21    1    1    2  504  502  0.19374669035E+02 -0.97450971236E+01 -0.56721617815E+02  0.60726325804E+02  0.00000000000E+00 0. -1.
<mgrwt>
<rscale>  2 0.21687432E+02</rscale>
<asrwt>0</asrwt>
<pdfrwt beam="1">  1       21 0.10773070E-02 0.21687432E+02</pdfrwt>
<pdfrwt beam="2">  1       21 0.12652391E-01 0.21687432E+02</pdfrwt>
<totfact> 0.11852567E+08</totfact>
</mgrwt>
</event>
<event>
 4    1  0.4578942E+006  0.6510379E+02  0.7546771E-02  0.1377582E+00
         21   -1    0    0  504  501  0.00000000000E+00  0.00000000000E+00  0.48942611844E+03  0.48942611844E+03  0.00000000000E+00 0. -1.
         21   -1    0    0  501  502 -0.00000000000E+00 -0.00000000000E+00 -0.11675388401E+02  0.11675388401E+02  0.00000000000E+00 0. -1.
         21    1    1    2  503  502 -0.97050155818E+00  0.65096556453E+02  0.11154825504E+03  0.12915694615E+03  0.00000000000E+00 0. -1.
         21    1    1    2  504  503  0.97050155818E+00 -0.65096556453E+02  0.36620247500E+03  0.37194456069E+03  0.00000000000E+00 0. -1.
<mgrwt>
<rscale>  2 0.65103790E+02</rscale>
<asrwt>0</asrwt>
<pdfrwt beam="1">  1       21 0.75296310E-01 0.65103790E+02</pdfrwt>
<pdfrwt beam="2">  1       21 0.17962140E-02 0.65103790E+02</pdfrwt>
<totfact> 0.22493914E+06</totfact>
</mgrwt>
</event>
<event>
 4    1  0.4578942E+006  0.3963089E+02  0.7546771E-02  0.1510945E+00
         21   -1    0    0  503  501  0.00000000000E+00  0.00000000000E+00  0.21125204304E+01  0.21125204304E+01  0.00000000000E+00 0.  1.
         21   -1    0    0  504  502 -0.00000000000E+00 -0.00000000000E+00 -0.12131796139E+04  0.12131796139E+04  0.00000000000E+00 0.  1.
         21    1    1    2  503  502  0.39471084203E+02  0.35554327699E+01 -0.22743915777E+03  0.23086614754E+03  0.00000000000E+00 0.  1.
         21    1    1    2  504  501 -0.39471084203E+02 -0.35554327699E+01 -0.98362793571E+03  0.98442598681E+03  0.00000000000E+00 0.  1.
<mgrwt>
<rscale>  2 0.39630892E+02</rscale>
<asrwt>0</asrwt>
<pdfrwt beam="1">  1       21 0.32500291E-03 0.39630892E+02</pdfrwt>
<pdfrwt beam="2">  1       21 0.18664315E+00 0.39630892E+02</pdfrwt>
<totfact> 0.35181569E+06</totfact>
</mgrwt>
</event>
<event>
 4    1  0.4578942E+006  0.2582595E+02  0.7546771E-02  0.1649414E+00
         21   -1    0    0  504  501  0.00000000000E+00  0.00000000000E+00  0.15315897713E+03  0.15315897713E+03  0.00000000000E+00 0. -1.
         21   -1    0    0  503  502 -0.00000000000E+00 -0.00000000000E+00 -0.71534932650E+01  0.71534932650E+01  0.00000000000E+00 0.  1.
         21    1    1    2  503  501  0.87624708259E+01  0.24294011535E+02  0.12313927117E+03  0.12581836112E+03  0.00000000000E+00 0. -1.
         21    1    1    2  504  502 -0.87624708259E+01 -0.24294011535E+02  0.22866212695E+02  0.34494109271E+02  0.00000000000E+00 0.  1.
<mgrwt>
<rscale>  2 0.25825954E+02</rscale>
<asrwt>0</asrwt>
<pdfrwt beam="1">  1       21 0.23562917E-01 0.25825954E+02</pdfrwt>
<pdfrwt beam="2">  1       21 0.11005375E-02 0.25825954E+02</pdfrwt>
<totfact> 0.41063897E+07</totfact>
</mgrwt>
</event>
<event>
 4    1  0.4578942E+006  0.2030356E+02  0.7546771E-02  0.1739358E+00
         21   -1    0    0  502  501  0.00000000000E+00  0.00000000000E+00  0.22101637006E+02  0.22101637006E+02  0.00000000000E+00 0. -1.
         21   -1    0    0  503  502 -0.00000000000E+00 -0.00000000000E+00 -0.16431459325E+03  0.16431459325E+03  0.00000000000E+00 0.  1.
         21    1    1    2  503  504  0.20144187893E+02  0.25389772872E+01 -0.15886514455E+03  0.16015732535E+03  0.00000000000E+00 0.  1.
         21    1    1    2  504  501 -0.20144187893E+02 -0.25389772872E+01  0.16652188303E+02  0.26258904905E+02  0.00000000000E+00 0. -1.
<mgrwt>
<rscale>  2 0.20303564E+02</rscale>
<asrwt>0</asrwt>
<pdfrwt beam="1">  1       21 0.34002519E-02 0.20303564E+02</pdfrwt>
<pdfrwt beam="2">  1       21 0.25279168E-01 0.20303564E+02</pdfrwt>
<totfact> 0.61199546E+06</totfact>
</mgrwt>
</event>
<event>
 4    1  0.4578942E+006  0.2616219E+02  0.7546771E-02  0.1644849E+00
         21   -1    0    0  502  501  0.00000000000E+00  0.00000000000E+00  0.28709437791E+02  0.28709437791E+02  0.00000000000E+00 0. -1.
         21   -1    0    0  503  502 -0.00000000000E+00 -0.00000000000E+00 -0.35982415012E+02  0.35982415012E+02  0.00000000000E+00 0. -1.
         21    1    1    2  503  504  0.26045275441E+02  0.24706370041E+01 -0.22425758011E+02  0.34458308756E+02  0.00000000000E+00 0. -1.
         21    1    1    2  504  501 -0.26045275441E+02 -0.24706370041E+01  0.15152780789E+02  0.30233544047E+02  0.00000000000E+00 0. -1.
<mgrwt>
<rscale>  2 0.26162194E+02</rscale>
<asrwt>0</asrwt>
<pdfrwt beam="1">  1       21 0.44168366E-02 0.26162194E+02</pdfrwt>
<pdfrwt beam="2">  1       21 0.55357562E-02 0.26162194E+02</pdfrwt>
<totfact> 0.54841384E+07</totfact>
</mgrwt>
</event>
<event>
 4    1  0.4578942E+006  0.3039640E+02  0.7546771E-02  0.1593748E+00
         21   -1    0    0  503  501  0.00000000000E+00  0.00000000000E+00  0.54780442392E+01  0.54780442392E+01  0.00000000000E+00 0.  1.
         21   -1    0    0  504  502 -0.00000000000E+00 -0.00000000000E+00 -0.17203888051E+03  0.17203888051E+03  0.00000000000E+00 0.  1.
         21    1    1    2  503  502 -0.23661453436E+02  0.19080800468E+02 -0.70846326246E+02  0.77091784697E+02  0.00000000000E+00 0.  1.
         21    1    1    2  504  501  0.23661453436E+02 -0.19080800468E+02 -0.95714510022E+02  0.10042514005E+03  0.00000000000E+00 0.  1.
<mgrwt>
<rscale>  2 0.30396403E+02</rscale>
<asrwt>0</asrwt>
<pdfrwt beam="1">  1       21 0.84277611E-03 0.30396403E+02</pdfrwt>
<pdfrwt beam="2">  1       21 0.26467518E-01 0.30396403E+02</pdfrwt>
<totfact> 0.51669915E+07</totfact>
</mgrwt>
</event>
<event>
 4    1  0.4578942E+006  0.2016155E+02  0.7546771E-02  0.1742134E+00
         21   -1    0    0  502  501  0.00000000000E+00  0.00000000000E+00  0.46350535952E+02  0.46350535952E+02  0.00000000000E+00 0. -1.
         21   -1    0    0  503  502 -0.00000000000E+00 -0.00000000000E+00 -0.95520553124E+01  0.95520553124E+01  0.00000000000E+00 0. -1.
         21    1    1    2  503  504  0.20327680058E+01 -0.20058811712E+02  0.10400732630E+02  0.22686192106E+02  0.00000000000E+00 0. -1.
         21    1    1    2  504  501 -0.20327680058E+01  0.20058811712E+02  0.26397748010E+02  0.33216399158E+02  0.00000000000E+00 0. -1.
<mgrwt>
<rscale>  2 0.20161549E+02</rscale>
<asrwt>0</asrwt>
<pdfrwt beam="1">  1       21 0.71308516E-02 0.20161549E+02</pdfrwt>
<pdfrwt beam="2">  1       21 0.14695470E-02 0.20161549E+02</pdfrwt>
<totfact> 0.18622487E+08</totfact>
</mgrwt>
</event>
<event>
 4    1  0.4578942E+006  0.2570895E+02  0.7546771E-02  0.1651023E+00
         21   -1    0    0  504  501  0.00000000000E+00  0.00000000000E+00  0.60516904471E+02  0.60516904471E+02  0.00000000000E+00 0. -1.
         21   -1    0    0  501  502 -0.00000000000E+00 -0.00000000000E+00 -0.23882862575E+02  0.23882862575E+02  0.00000000000E+00 0. -1.
         21    1    1    2  503  502  0.57578560952E+01 -0.25055881519E+02 -0.12770730671E+02  0.28706125956E+02  0.00000000000E+00 0. -1.
         21    1    1    2  504  503 -0.57578560952E+01  0.25055881519E+02  0.49404772566E+02  0.55693641090E+02  0.00000000000E+00 0. -1.
<mgrwt>
<rscale>  2 0.25708950E+02</rscale>
<asrwt>0</asrwt>
<pdfrwt beam="1">  1       21 0.93102929E-02 0.25708950E+02</pdfrwt>
<pdfrwt beam="2">  1       21 0.36742866E-02 0.25708950E+02</pdfrwt>
<totfact> 0.31326630E+07</totfact>
</mgrwt>
</event>
<event>
 4    1  0.4578942E+006  0.2112597E+02  0.7546771E-02  0.1723821E+00
         21   -1    0    0  503  501  0.00000000000E+00  0.00000000000E+00  0.12501759983E+03  0.12501759983E+03  0.00000000000E+00 0.  1.
         21   -1    0    0  504  502 -0.00000000000E+00 -0.00000000000E+00 -0.50482206473E+02  0.50482206473E+02  0.00000000000E+00 0. -1.
         21    1    1    2  503  502  0.25429193612E+01 -0.20972369627E+02 -0.47322617405E+02  0.51824095213E+02  0.00000000000E+00 0. -1.
         21    1    1    2  504  501 -0.25429193612E+01  0.20972369627E+02  0.12185801076E+03  0.12367571109E+03  0.00000000000E+00 0.  1.
<mgrwt>
<rscale>  2 0.21125973E+02</rscale>
<asrwt>0</asrwt>
<pdfrwt beam="1">  1       21 0.19233477E-01 0.21125973E+02</pdfrwt>
<pdfrwt beam="2">  1       21 0.77664933E-02 0.21125973E+02</pdfrwt>
<totfact> 0.26783547E+06</totfact>
</mgrwt>
</event>
<event>
 4    1  0.4578942E+006  0.2046169E+02  0.7546771E-02  0.1736300E+00
         21   -1    0    0  503  501  0.00000000000E+00  0.00000000000E+00  0.56410540073E+02  0.56410540073E+02  0.00000000000E+00 0. -1.
         21   -1    0    0  504  502 -0.00000000000E+00 -0.00000000000E+00 -0.11284598816E+02  0.11284598816E+02  0.00000000000E+00 0.  1.
         21    1    1    2  503  502  0.19793374324E+01 -0.20365732677E+02  0.42365579881E+02  0.47048094571E+02  0.00000000000E+00 0.  1.
         21    1    1    2  504  501 -0.19793374324E+01  0.20365732677E+02  0.27603613759E+01  0.20647044318E+02  0.00000000000E+00 0. -1.
<mgrwt>
<rscale>  2 0.20461692E+02</rscale>
<asrwt>0</asrwt>
<pdfrwt beam="1">  1       21 0.86785445E-02 0.20461692E+02</pdfrwt>
<pdfrwt beam="2">  1       21 0.17360922E-02 0.20461692E+02</pdfrwt>
<totfact> 0.10567194E+08</totfact>
</mgrwt>
</event>
<event>
 4    1  0.4578942E+006  0.2620101E+02  0.7546771E-02  0.1644327E+00
         21   -1    0    0  503  501  0.00000000000E+00  0.00000000000E+00  0.56908998829E+01  0.56908998829E+01  0.00000000000E+00 0.  1.
         21   -1    0    0  504  502 -0.00000000000E+00 -0.00000000000E+00 -0.13531468351E+03  0.13531468351E+03  0.00000000000E+00 0.  1.
         21    1    1    2  503  502 -0.85690294019E+01 -0.24760139799E+02 -0.88037513890E+02  0.91853669713E+02  0.00000000000E+00 0.  1.
         21    1    1    2  504  501  0.85690294019E+01  0.24760139799E+02 -0.41586269737E+02  0.49151913680E+02  0.00000000000E+00 0.  1.
<mgrwt>
<rscale>  2 0.26201007E+02</rscale>
<asrwt>0</asrwt>
<pdfrwt beam="1">  1       21 0.87552313E-03 0.26201007E+02</pdfrwt>
<pdfrwt beam="2">  1       21 0.20817642E-01 0.26201007E+02</pdfrwt>
<totfact> 0.72434294E+07</totfact>
</mgrwt>
</event>
<event>
 4    1  0.4578942E+006  0.3241266E+02  0.7546771E-02  0.1572855E+00
         21   -1    0    0  502  501  0.00000000000E+00  0.00000000000E+00  0.14640613411E+01  0.14640613411E+01  0.00000000000E+00 0.  1.
         21   -1    0    0  503  502 -0.00000000000E+00 -0.00000000000E+00 -0.22149080345E+04  0.22149080345E+04  0.00000000000E+00 0.  1.
         21    1    1    2  503  504  0.30448632288E+02  0.11111309939E+02 -0.20178793268E+04  0.20181396279E+04  0.00000000000E+00 0.  1.
         21    1    1    2  504  501 -0.30448632288E+02 -0.11111309939E+02 -0.19556464638E+03  0.19823246791E+03  0.00000000000E+00 0.  1.
<mgrwt>
<rscale>  2 0.32412658E+02</rscale>
<asrwt>0</asrwt>
<pdfrwt beam="1">  1       21 0.22524117E-03 0.32412658E+02</pdfrwt>
<pdfrwt beam="2">  1       21 0.34075363E+00 0.32412658E+02</pdfrwt>
<totfact> 0.93002720E+05</totfact>
</mgrwt>
</event>
<event>
 4    1  0.4578942E+006  0.3174805E+02  0.7546771E-02  0.1579533E+00
         21   -1    0    0  502  501  0.00000000000E+00  0.00000000000E+00  0.11710400068E+02  0.11710400068E+02  0.00000000000E+00 0. -1.
         21   -1    0    0  504  502 -0.00000000000E+00 -0.00000000000E+00 -0.23399044571E+03  0.23399044571E+03  0.00000000000E+00 0.  1.
         21    1    1    2  503  501 -0.30484109031E+02 -0.88689355748E+01 -0.13463860155E+02  0.34484988791E+02  0.00000000000E+00 0. -1.
         21    1    1    2  504  503  0.30484109031E+02  0.88689355748E+01 -0.20881618549E+03  0.21121585699E+03  0.00000000000E+00 0.  1.
<mgrwt>
<rscale>  2 0.31748054E+02</rscale>
<asrwt>0</asrwt>
<pdfrwt beam="1">  1       21 0.18016000E-02 0.31748054E+02</pdfrwt>
<pdfrwt beam="2">  1       21 0.35998530E-01 0.31748054E+02</pdfrwt>
<totfact> 0.92447150E+06</totfact>
</mgrwt>
</event>
<event>
 4    1  0.4578942E+006  0.2610477E+02  0.7546771E-02  0.1645623E+00
         21   -1    0    0  503  501  0.00000000000E+00  0.00000000000E+00  0.65800696149E+03  0.65800696149E+03  0.00000000000E+00 0.  1.
         21   -1    0    0  504  502 -0.00000000000E+00 -0.00000000000E+00 -0.17664779045E+01  0.17664779045E+01  0.00000000000E+00 0.  1.
         21    1    1    2  503  502  0.25356742164E+02  0.62043862823E+01  0.54030835697E+03  0.54093860964E+03  0.00000000000E+00 0.  1.
         21    1    1    2  504  501 -0.25356742164E+02 -0.62043862823E+01  0.11593212661E+03  0.11883482976E+03  0.00000000000E+00 0.  1.
<mgrwt>
<rscale>  2 0.26104766E+02</rscale>
<asrwt>0</asrwt>
<pdfrwt beam="1">  1       21 0.10123164E+00 0.26104766E+02</pdfrwt>
<pdfrwt beam="2">  1       21 0.27176636E-03 0.26104766E+02</pdfrwt>
<totfact> 0.18791284E+07</totfact>
</mgrwt>
</event>
<event>
 4    1  0.4578942E+006  0.2263288E+02  0.7546771E-02  0.1697531E+00
         21   -1    0    0  504  501  0.00000000000E+00  0.00000000000E+00  0.13541469973E+02  0.13541469973E+02  0.00000000000E+00 0.  1.
         21   -1    0    0  503  502 -0.00000000000E+00 -0.00000000000E+00 -0.39138207663E+02  0.39138207663E+02  0.00000000000E+00 0. -1.
         21    1    1    2  503  501 -0.40442573839E+01  0.22268616341E+02 -0.17617578207E+02  0.28681463586E+02  0.00000000000E+00 0. -1.
         21    1    1    2  504  502  0.40442573839E+01 -0.22268616341E+02 -0.79791594833E+01  0.23998214050E+02  0.00000000000E+00 0.  1.
<mgrwt>
<rscale>  2 0.22632881E+02</rscale>
<asrwt>0</asrwt>
<pdfrwt beam="1">  1       21 0.20833031E-02 0.22632881E+02</pdfrwt>
<pdfrwt beam="2">  1       21 0.60212626E-02 0.22632881E+02</pdfrwt>
<totfact> 0.14893462E+08</totfact>
</mgrwt>
</event>
<event>
 4    1  0.4578942E+006  0.2314067E+02  0.7546771E-02  0.1689240E+00
         21   -1    0    0  502  501  0.00000000000E+00  0.00000000000E+00  0.67191922350E+02  0.67191922350E+02  0.00000000000E+00 0. -1.
         21   -1    0    0  504  502 -0.00000000000E+00 -0.00000000000E+00 -0.15559664196E+02  0.15559664196E+02  0.00000000000E+00 0. -1.
         21    1    1    2  503  501  0.21410369453E+02 -0.87798905505E+01  0.54714272815E+02  0.59406582529E+02  0.00000000000E+00 0. -1.
         21    1    1    2  504  503 -0.21410369453E+02  0.87798905505E+01 -0.30820146605E+01  0.23345004017E+02  0.00000000000E+00 0. -1.
<mgrwt>
<rscale>  2 0.23140665E+02</rscale>
<asrwt>0</asrwt>
<pdfrwt beam="1">  1       21 0.10337219E-01 0.23140665E+02</pdfrwt>
<pdfrwt beam="2">  1       21 0.23937945E-02 0.23140665E+02</pdfrwt>
<totfact> 0.50124201E+07</totfact>
</mgrwt>
</event>
<event>
 4    1  0.4578942E+006  0.4331102E+02  0.7546771E-02  0.1485170E+00
         21   -1    0    0  503  501  0.00000000000E+00  0.00000000000E+00  0.95630054727E+02  0.95630054727E+02  0.00000000000E+00 0. -1.
         21   -1    0    0  504  502 -0.00000000000E+00 -0.00000000000E+00 -0.91576186528E+03  0.91576186528E+03  0.00000000000E+00 0. -1.
         21    1    1    2  503  502 -0.39367242657E+02 -0.18057250428E+02  0.90184729502E+02  0.10004563720E+03  0.00000000000E+00 0. -1.
         21    1    1    2  504  501  0.39367242657E+02  0.18057250428E+02 -0.91031654006E+03  0.91134628281E+03  0.00000000000E+00 0. -1.
<mgrwt>
<rscale>  2 0.43311016E+02</rscale>
<asrwt>0</asrwt>
<pdfrwt beam="1">  1       21 0.14712317E-01 0.43311016E+02</pdfrwt>
<pdfrwt beam="2">  1       21 0.14088644E+00 0.43311016E+02</pdfrwt>
<totfact> 0.16973507E+04</totfact>
</mgrwt>
</event>
<event>
 4    1  0.4578942E+006  0.7146164E+02  0.7546771E-02  0.1355192E+00
         21   -1    0    0  502  501  0.00000000000E+00  0.00000000000E+00  0.52803709455E+03  0.52803709455E+03  0.00000000000E+00 0.  1.
         21   -1    0    0  503  502 -0.00000000000E+00 -0.00000000000E+00 -0.22335652962E+02  0.22335652962E+02  0.00000000000E+00 0. -1.
         21    1    1    2  503  504  0.36028824143E+01  0.71370762558E+02  0.45636118511E+02  0.84790458322E+02  0.00000000000E+00 0. -1.
         21    1    1    2  504  501 -0.36028824143E+01 -0.71370762558E+02  0.46006532308E+03  0.46558228919E+03  0.00000000000E+00 0.  1.
<mgrwt>
<rscale>  2 0.71461644E+02</rscale>
<asrwt>0</asrwt>
<pdfrwt beam="1">  1       21 0.81236467E-01 0.71461644E+02</pdfrwt>
<pdfrwt beam="2">  1       21 0.34362547E-02 0.71461644E+02</pdfrwt>
<totfact> 0.67622328E+05</totfact>
</mgrwt>
</event>
<event>
 4    1  0.4578942E+006  0.4486860E+02  0.7546771E-02  0.1475164E+00
         21   -1    0    0  502  501  0.00000000000E+00  0.00000000000E+00  0.15783596159E+03  0.15783596159E+03  0.00000000000E+00 0.  1.
         21   -1    0    0  504  502 -0.00000000000E+00 -0.00000000000E+00 -0.13451721568E+02  0.13451721568E+02  0.00000000000E+00 0.  1.
         21    1    1    2  503  501  0.34247803893E+02 -0.28987571570E+02  0.91683801130E+02  0.10207404551E+03  0.00000000000E+00 0.  1.
         21    1    1    2  504  503 -0.34247803893E+02  0.28987571570E+02  0.52700438887E+02  0.69213637644E+02  0.00000000000E+00 0.  1.
<mgrwt>
<rscale>  2 0.44868601E+02</rscale>
<asrwt>0</asrwt>
<pdfrwt beam="1">  1       21 0.24282454E-01 0.44868601E+02</pdfrwt>
<pdfrwt beam="2">  1       21 0.20694957E-02 0.44868601E+02</pdfrwt>
<totfact> 0.16231013E+07</totfact>
</mgrwt>
</event>
<event>
 4    1  0.4578942E+006  0.2120222E+02  0.7546771E-02  0.1722426E+00
         21   -1    0    0  503  501  0.00000000000E+00  0.00000000000E+00  0.11548056242E+03  0.11548056242E+03  0.00000000000E+00 0.  1.
         21   -1    0    0  504  502 -0.00000000000E+00 -0.00000000000E+00 -0.51438739693E+01  0.51438739693E+01  0.00000000000E+00 0.  1.
         21    1    1    2  503  502  0.19358268198E+02  0.86482190379E+01  0.84913373510E+02  0.87520370435E+02  0.00000000000E+00 0.  1.
         21    1    1    2  504  501 -0.19358268198E+02 -0.86482190379E+01  0.25423314941E+02  0.33104065955E+02  0.00000000000E+00 0.  1.
<mgrwt>
<rscale>  2 0.21202223E+02</rscale>
<asrwt>0</asrwt>
<pdfrwt beam="1">  1       21 0.17766238E-01 0.21202223E+02</pdfrwt>
<pdfrwt beam="2">  1       21 0.79136532E-03 0.21202223E+02</pdfrwt>
<totfact> 0.10494099E+08</totfact>
</mgrwt>
</event>
<event>
 4    1  0.4578942E+006  0.2023914E+02  0.7546771E-02  0.1740614E+00
         21   -1    0    0  503  501  0.00000000000E+00  0.00000000000E+00  0.43014467504E+02  0.43014467504E+02  0.00000000000E+00 0. -1.
         21   -1    0    0  504  502 -0.00000000000E+00 -0.00000000000E+00 -0.96246503500E+01  0.96246503500E+01  0.00000000000E+00 0. -1.
         21    1    1    2  503  502  0.56373121455E+01 -0.19438198024E+02  0.19400961698E+02  0.28036050817E+02  0.00000000000E+00 0. -1.
         21    1    1    2  504  501 -0.56373121455E+01  0.19438198024E+02  0.13988855457E+02  0.24603067037E+02  0.00000000000E+00 0. -1.
<mgrwt>
<rscale>  2 0.20239141E+02</rscale>
<asrwt>0</asrwt>
<pdfrwt beam="1">  1       21 0.66176103E-02 0.20239141E+02</pdfrwt>
<pdfrwt beam="2">  1       21 0.14807155E-02 0.20239141E+02</pdfrwt>
<totfact> 0.20789131E+08</totfact>
</mgrwt>
</event>
<event>
 4    1  0.4578942E+006  0.2577791E+02  0.7546771E-02  0.1650074E+00
         21   -1    0    0  504  501  0.00000000000E+00  0.00000000000E+00  0.11017093030E+03  0.11017093030E+03  0.00000000000E+00 0.  1.
         21   -1    0    0  503  502 -0.00000000000E+00 -0.00000000000E+00 -0.60769104255E+01  0.60769104255E+01  0.00000000000E+00 0.  1.
         21    1    1    2  503  501  0.10886809945E+02 -0.23366170774E+02  0.47024839389E+02  0.53626822459E+02  0.00000000000E+00 0.  1.
         21    1    1    2  504  502 -0.10886809945E+02  0.23366170774E+02  0.57069180481E+02  0.62621018262E+02  0.00000000000E+00 0.  1.
<mgrwt>
<rscale>  2 0.25777909E+02</rscale>
<asrwt>0</asrwt>
<pdfrwt beam="1">  1       21 0.16949372E-01 0.25777909E+02</pdfrwt>
<pdfrwt beam="2">  1       21 0.93490938E-03 0.25777909E+02</pdfrwt>
<totfact> 0.93545475E+07</totfact>
</mgrwt>
</event>
<event>
 4    1  0.4578942E+006  0.2479822E+02  0.7546771E-02  0.1663917E+00
         21   -1    0    0  504  501  0.00000000000E+00  0.00000000000E+00  0.31549230337E+01  0.31549230337E+01  0.00000000000E+00 0. -1.
         21   -1    0    0  503  502 -0.00000000000E+00 -0.00000000000E+00 -0.25932045141E+03  0.25932045141E+03  0.00000000000E+00 0. -1.
         21    1    1    2  503  501  0.23094738199E+02  0.90324166798E+01 -0.19348478598E+03  0.19506745984E+03  0.00000000000E+00 0. -1.
         21    1    1    2  504  502 -0.23094738199E+02 -0.90324166798E+01 -0.62680742398E+02  0.67407914604E+02  0.00000000000E+00 0. -1.
<mgrwt>
<rscale>  2 0.24798215E+02</rscale>
<asrwt>0</asrwt>
<pdfrwt beam="1">  1       21 0.48537243E-03 0.24798215E+02</pdfrwt>
<pdfrwt beam="2">  1       21 0.39895482E-01 0.24798215E+02</pdfrwt>
<totfact> 0.52692221E+07</totfact>
</mgrwt>
</event>
<event>
 4    1  0.4578942E+006  0.2018975E+02  0.7546771E-02  0.1741581E+00
         21   -1    0    0  503  501  0.00000000000E+00  0.00000000000E+00  0.16220062666E+02  0.16220062666E+02  0.00000000000E+00 0.  1.
         21   -1    0    0  504  502 -0.00000000000E+00 -0.00000000000E+00 -0.74377942893E+02  0.74377942893E+02  0.00000000000E+00 0.  1.
         21    1    1    2  503  502  0.15623449290E+02  0.12788027520E+02  0.77811468556E+01  0.21637284070E+02  0.00000000000E+00 0.  1.
         21    1    1    2  504  501 -0.15623449290E+02 -0.12788027520E+02 -0.65939027083E+02  0.68960721488E+02  0.00000000000E+00 0.  1.
<mgrwt>
<rscale>  2 0.20189745E+02</rscale>
<asrwt>0</asrwt>
<pdfrwt beam="1">  1       21 0.24953942E-02 0.20189745E+02</pdfrwt>
<pdfrwt beam="2">  1       21 0.11442761E-01 0.20189745E+02</pdfrwt>
<totfact> 0.38353149E+07</totfact>
</mgrwt>
</event>
<event>
 4    1  0.4578942E+006  0.2014137E+02  0.7546771E-02  0.1742531E+00
         21   -1    0    0  504  501  0.00000000000E+00  0.00000000000E+00  0.74105819264E+02  0.74105819264E+02  0.00000000000E+00 0.  1.
         21   -1    0    0  503  502 -0.00000000000E+00 -0.00000000000E+00 -0.78172354709E+02  0.78172354709E+02  0.00000000000E+00 0.  1.
         21    1    1    2  503  501  0.68438375121E+01 -0.18942981620E+02  0.71391499175E+02  0.74178304234E+02  0.00000000000E+00 0.  1.
         21    1    1    2  504  502 -0.68438375121E+01  0.18942981620E+02 -0.75458034620E+02  0.78099869740E+02  0.00000000000E+00 0.  1.
<mgrwt>
<rscale>  2 0.20141367E+02</rscale>
<asrwt>0</asrwt>
<pdfrwt beam="1">  1       21 0.11400895E-01 0.20141367E+02</pdfrwt>
<pdfrwt beam="2">  1       21 0.12026516E-01 0.20141367E+02</pdfrwt>
<totfact> 0.31433352E+06</totfact>
</mgrwt>
</event>
<event>
 4    1  0.4578942E+006  0.2468029E+02  0.7546771E-02  0.1665637E+00
         21   -1    0    0  503  501  0.00000000000E+00  0.00000000000E+00  0.75485144300E+00  0.75485144300E+00  0.00000000000E+00 0.  1.
         21   -1    0    0  504  502 -0.00000000000E+00 -0.00000000000E+00 -0.10544649751E+04  0.10544649751E+04  0.00000000000E+00 0.  1.
         21    1    1    2  503  502 -0.12217411741E+02  0.21444150290E+02 -0.27122614855E+03  0.27234672825E+03  0.00000000000E+00 0.  1.
         21    1    1    2  504  501  0.12217411741E+02 -0.21444150290E+02 -0.78248397506E+03  0.78287309825E+03  0.00000000000E+00 0.  1.
<mgrwt>
<rscale>  2 0.24680290E+02</rscale>
<asrwt>0</asrwt>
<pdfrwt beam="1">  1       21 0.11613108E-03 0.24680290E+02</pdfrwt>
<pdfrwt beam="2">  1       21 0.16222526E+00 0.24680290E+02</pdfrwt>
<totfact> 0.21401148E+07</totfact>
</mgrwt>
</event>
<event>
 4    1  0.4578942E+006  0.2045587E+02  0.7546771E-02  0.1736412E+00
         21   -1    0    0  502  501  0.00000000000E+00  0.00000000000E+00  0.48716845022E+03  0.48716845022E+03  0.00000000000E+00 0.  1.
         21   -1    0    0  504  502 -0.00000000000E+00 -0.00000000000E+00 -0.91743298851E+00  0.91743298851E+00  0.00000000000E+00 0.  1.
         21    1    1    2  503  501 -0.16070172627E+02 -0.12656706817E+02  0.30475308940E+03  0.30543884523E+03  0.00000000000E+00 0.  1.
         21    1    1    2  504  503  0.16070172627E+02  0.12656706817E+02  0.18149792783E+03  0.18264703797E+03  0.00000000000E+00 0.  1.
<mgrwt>
<rscale>  2 0.20455871E+02</rscale>
<asrwt>0</asrwt>
<pdfrwt beam="1">  1       21 0.74948786E-01 0.20455871E+02</pdfrwt>
<pdfrwt beam="2">  1       21 0.14114393E-03 0.20455871E+02</pdfrwt>
<totfact> 0.87130944E+07</totfact>
</mgrwt>
</event>
<event>
 4    1  0.4578942E+006  0.2480327E+02  0.7546771E-02  0.1663844E+00
         21   -1    0    0  502  501  0.00000000000E+00  0.00000000000E+00  0.25622783584E+02  0.25622783584E+02  0.00000000000E+00 0.  1.
         21   -1    0    0  504  502 -0.00000000000E+00 -0.00000000000E+00 -0.63877502192E+02  0.63877502192E+02  0.00000000000E+00 0. -1.
         21    1    1    2  503  501 -0.23749913273E+02  0.71515081673E+01  0.16225952305E+02  0.29639230384E+02  0.00000000000E+00 0.  1.
         21    1    1    2  504  503  0.23749913273E+02 -0.71515081673E+01 -0.54480670912E+02  0.59861055392E+02  0.00000000000E+00 0. -1.
<mgrwt>
<rscale>  2 0.24803275E+02</rscale>
<asrwt>0</asrwt>
<pdfrwt beam="1">  1       21 0.39419667E-02 0.24803275E+02</pdfrwt>
<pdfrwt beam="2">  1       21 0.98273081E-02 0.24803275E+02</pdfrwt>
<totfact> 0.25438173E+07</totfact>
</mgrwt>
</event>
<event>
 4    1  0.4578942E+006  0.2950297E+02  0.7546771E-02  0.1603648E+00
         21   -1    0    0  503  501  0.00000000000E+00  0.00000000000E+00  0.54971144325E+02  0.54971144325E+02  0.00000000000E+00 0.  1.
         21   -1    0    0  504  502 -0.00000000000E+00 -0.00000000000E+00 -0.18255061854E+02  0.18255061854E+02  0.00000000000E+00 0. -1.
         21    1    1    2  503  502 -0.17982691968E+02  0.23389063975E+02  0.31691031232E+02  0.43298348520E+02  0.00000000000E+00 0.  1.
         21    1    1    2  504  501  0.17982691968E+02 -0.23389063975E+02  0.50250512395E+01  0.29927857658E+02  0.00000000000E+00 0. -1.
<mgrwt>
<rscale>  2 0.29502975E+02</rscale>
<asrwt>0</asrwt>
<pdfrwt beam="1">  1       21 0.84570991E-02 0.29502975E+02</pdfrwt>
<pdfrwt beam="2">  1       21 0.28084711E-02 0.29502975E+02</pdfrwt>
<totfact> 0.57819756E+07</totfact>
</mgrwt>
</event>
<event>
 4    1  0.4578942E+006  0.2520087E+02  0.7546771E-02  0.1658133E+00
         21   -1    0    0  503  501  0.00000000000E+00  0.00000000000E+00  0.12006544726E+04  0.12006544726E+04  0.00000000000E+00 0.  1.
         21   -1    0    0  504  502 -0.00000000000E+00 -0.00000000000E+00 -0.15962594217E+01  0.15962594217E+01  0.00000000000E+00 0.  1.
         21    1    1    2  503  502  0.17376775550E+02  0.18251895205E+02  0.10910690986E+04  0.10913600973E+04  0.00000000000E+00 0.  1.
         21    1    1    2  504  501 -0.17376775550E+02 -0.18251895205E+02  0.10798911462E+03  0.11089063479E+03  0.00000000000E+00 0.  1.
<mgrwt>
<rscale>  2 0.25200873E+02</rscale>
<asrwt>0</asrwt>
<pdfrwt beam="1">  1       21 0.18471535E+00 0.25200873E+02</pdfrwt>
<pdfrwt beam="2">  1       21 0.24557933E-03 0.25200873E+02</pdfrwt>
<totfact> 0.52823078E+06</totfact>
</mgrwt>
</event>
<event>
 4    1  0.4578942E+006  0.2269397E+02  0.7546771E-02  0.1696519E+00
         21   -1    0    0  504  501  0.00000000000E+00  0.00000000000E+00  0.55693246303E+01  0.55693246303E+01  0.00000000000E+00 0.  1.
         21   -1    0    0  503  502 -0.00000000000E+00 -0.00000000000E+00 -0.12105013935E+03  0.12105013935E+03  0.00000000000E+00 0.  1.
         21    1    1    2  503  501  0.22611475302E+02 -0.19332494483E+01 -0.88500780104E+02  0.91364130532E+02  0.00000000000E+00 0.  1.
         21    1    1    2  504  502 -0.22611475302E+02  0.19332494483E+01 -0.26980034618E+02  0.35255333451E+02  0.00000000000E+00 0.  1.
<mgrwt>
<rscale>  2 0.22693970E+02</rscale>
<asrwt>0</asrwt>
<pdfrwt beam="1">  1       21 0.85681921E-03 0.22693970E+02</pdfrwt>
<pdfrwt beam="2">  1       21 0.18623098E-01 0.22693970E+02</pdfrwt>
<totfact> 0.87582616E+07</totfact>
</mgrwt>
</event>
<event>
 4    1  0.4578942E+006  0.3105744E+02  0.7546771E-02  0.1586686E+00
         21   -1    0    0  503  501  0.00000000000E+00  0.00000000000E+00  0.95726697765E+01  0.95726697765E+01  0.00000000000E+00 0.  1.
         21   -1    0    0  501  502 -0.00000000000E+00 -0.00000000000E+00 -0.11084816363E+03  0.11084816363E+03  0.00000000000E+00 0.  1.
         21    1    1    2  503  504  0.11743705110E+02 -0.28751525189E+02 -0.32475791387E+02  0.44935974859E+02  0.00000000000E+00 0.  1.
         21    1    1    2  504  502 -0.11743705110E+02  0.28751525189E+02 -0.68799702471E+02  0.75484858551E+02  0.00000000000E+00 0.  1.
<mgrwt>
<rscale>  2 0.31057444E+02</rscale>
<asrwt>0</asrwt>
<pdfrwt beam="1">  1       21 0.14727185E-02 0.31057444E+02</pdfrwt>
<pdfrwt beam="2">  1       21 0.17053562E-01 0.31057444E+02</pdfrwt>
<totfact> 0.48466248E+07</totfact>
</mgrwt>
</event>
<event>
 4    1  0.4578942E+006  0.2430325E+02  0.7546771E-02  0.1671216E+00
         21   -1    0    0  504  501  0.00000000000E+00  0.00000000000E+00  0.76528330665E+03  0.76528330665E+03  0.00000000000E+00 0.  1.
         21   -1    0    0  503  502 -0.00000000000E+00 -0.00000000000E+00 -0.11088800873E+01  0.11088800873E+01  0.00000000000E+00 0.  1.
         21    1    1    2  503  501 -0.11361910309E+02 -0.21483832973E+02  0.59335986567E+03  0.59385737199E+03  0.00000000000E+00 0.  1.
         21    1    1    2  504  502  0.11361910309E+02  0.21483832973E+02  0.17081456089E+03  0.17253481474E+03  0.00000000000E+00 0.  1.
<mgrwt>
<rscale>  2 0.24303253E+02</rscale>
<asrwt>0</asrwt>
<pdfrwt beam="1">  1       21 0.11773547E+00 0.24303253E+02</pdfrwt>
<pdfrwt beam="2">  1       21 0.17059755E-03 0.24303253E+02</pdfrwt>
<totfact> 0.26020819E+07</totfact>
</mgrwt>
</event>
<event>
 4    1  0.4578942E+006  0.2919091E+02  0.7546771E-02  0.1607208E+00
         21   -1    0    0  504  501  0.00000000000E+00  0.00000000000E+00  0.29692800377E+02  0.29692800377E+02  0.00000000000E+00 0.  1.
         21   -1    0    0  501  502 -0.00000000000E+00 -0.00000000000E+00 -0.86552752496E+02  0.86552752496E+02  0.00000000000E+00 0.  1.
         21    1    1    2  503  502 -0.27769943584E+02 -0.89966300213E+01 -0.75950072038E+02  0.81366593643E+02  0.00000000000E+00 0.  1.
         21    1    1    2  504  503  0.27769943584E+02  0.89966300213E+01  0.19090119920E+02  0.34878959230E+02  0.00000000000E+00 0.  1.
<mgrwt>
<rscale>  2 0.29190908E+02</rscale>
<asrwt>0</asrwt>
<pdfrwt beam="1">  1       21 0.45681232E-02 0.29190908E+02</pdfrwt>
<pdfrwt beam="2">  1       21 0.13315808E-01 0.29190908E+02</pdfrwt>
<totfact> 0.12473102E+07</totfact>
</mgrwt>
</event>
<event>
 4    1  0.4578942E+006  0.4398564E+02  0.7546771E-02  0.1480775E+00
         21   -1    0    0  502  501  0.00000000000E+00  0.00000000000E+00  0.27052643490E+02  0.27052643490E+02  0.00000000000E+00 0. -1.
         21   -1    0    0  504  502 -0.00000000000E+00 -0.00000000000E+00 -0.81268476856E+02  0.81268476856E+02  0.00000000000E+00 0. -1.
         21    1    1    2  503  501 -0.31034556749E+02 -0.31170390218E+02 -0.83473239717E+01  0.44770690819E+02  0.00000000000E+00 0. -1.
         21    1    1    2  504  503  0.31034556749E+02  0.31170390218E+02 -0.45868509394E+02  0.63550429526E+02  0.00000000000E+00 0. -1.
<mgrwt>
<rscale>  2 0.43985645E+02</rscale>
<asrwt>0</asrwt>
<pdfrwt beam="1">  1       21 0.41619452E-02 0.43985645E+02</pdfrwt>
<pdfrwt beam="2">  1       21 0.12502842E-01 0.43985645E+02</pdfrwt>
<totfact> 0.17225176E+07</totfact>
</mgrwt>
</event>
<event>
 4    1  0.4578942E+006  0.2007069E+02  0.7546771E-02  0.1743926E+00
         21   -1    0    0  504  501  0.00000000000E+00  0.00000000000E+00  0.81836048570E+01  0.81836048570E+01  0.00000000000E+00 0. -1.
         21   -1    0    0  503  502 -0.00000000000E+00 -0.00000000000E+00 -0.12720753496E+03  0.12720753496E+03  0.00000000000E+00 0.  1.
         21    1    1    2  503  501  0.89073790282E+01  0.17985860555E+02 -0.65084915750E+01  0.21099598187E+02  0.00000000000E+00 0. -1.
         21    1    1    2  504  502 -0.89073790282E+01 -0.17985860555E+02 -0.11251543852E+03  0.11429154163E+03  0.00000000000E+00 0.  1.
<mgrwt>
<rscale>  2 0.20070690E+02</rscale>
<asrwt>0</asrwt>
<pdfrwt beam="1">  1       21 0.12590160E-02 0.20070690E+02</pdfrwt>
<pdfrwt beam="2">  1       21 0.19570392E-01 0.20070690E+02</pdfrwt>
<totfact> 0.43679649E+07</totfact>
</mgrwt>
</event>
<event>
 4    1  0.4578942E+006  0.4689339E+02  0.7546771E-02  0.1462856E+00
         21   -1    0    0  504  501  0.00000000000E+00  0.00000000000E+00  0.19186342101E+04  0.19186342101E+04  0.00000000000E+00 0. -1.
         21   -1    0    0  503  502 -0.00000000000E+00 -0.00000000000E+00 -0.14553828046E+02  0.14553828046E+02  0.00000000000E+00 0. -1.
         21    1    1    2  503  501 -0.44210763009E+02  0.15633245013E+02  0.18797939336E+04  0.18803787445E+04  0.00000000000E+00 0. -1.
         21    1    1    2  504  502  0.44210763009E+02 -0.15633245013E+02  0.24286448402E+02  0.52809293609E+02  0.00000000000E+00 0. -1.
<mgrwt>
<rscale>  2 0.46893389E+02</rscale>
<asrwt>0</asrwt>
<pdfrwt beam="1">  1       21 0.29517429E+00 0.46893389E+02</pdfrwt>
<pdfrwt beam="2">  1       21 0.22390520E-02 0.46893389E+02</pdfrwt>
<totfact> 0.46850447E+04</totfact>
</mgrwt>
</event>
<event>
 4    1  0.4578942E+006  0.2134126E+02  0.7546771E-02  0.1719900E+00
         21   -1    0    0  504  501  0.00000000000E+00  0.00000000000E+00  0.34903471902E+03  0.34903471902E+03  0.00000000000E+00 0.  1.
         21   -1    0    0  501  502 -0.00000000000E+00 -0.00000000000E+00 -0.56794302660E+01  0.56794302660E+01  0.00000000000E+00 0.  1.
         21    1    1    2  503  502 -0.20382457286E+02  0.63249343656E+01  0.16022777765E+02  0.26686677707E+02  0.00000000000E+00 0.  1.
         21    1    1    2  504  503  0.20382457286E+02 -0.63249343656E+01  0.32733251099E+03  0.32802747158E+03  0.00000000000E+00 0.  1.
<mgrwt>
<rscale>  2 0.21341260E+02</rscale>
<asrwt>0</asrwt>
<pdfrwt beam="1">  1       21 0.53697632E-01 0.21341260E+02</pdfrwt>
<pdfrwt beam="2">  1       21 0.87375877E-03 0.21341260E+02</pdfrwt>
<totfact> 0.12040466E+07</totfact>
</mgrwt>
</event>
<event>
 4    1  0.4578942E+006  0.2180531E+02  0.7546771E-02  0.1711641E+00
         21   -1    0    0  502  501  0.00000000000E+00  0.00000000000E+00  0.16506653147E+03  0.16506653147E+03  0.00000000000E+00 0. -1.
         21   -1    0    0  504  502 -0.00000000000E+00 -0.00000000000E+00 -0.61443961598E+02  0.61443961598E+02  0.00000000000E+00 0.  1.
         21    1    1    2  503  501 -0.61707741086E+01 -0.20913946428E+02  0.16237997180E+03  0.16383750136E+03  0.00000000000E+00 0. -1.
         21    1    1    2  504  503  0.61707741086E+01  0.20913946428E+02 -0.58757401931E+02  0.62672991711E+02  0.00000000000E+00 0.  1.
<mgrwt>
<rscale>  2 0.21805311E+02</rscale>
<asrwt>0</asrwt>
<pdfrwt beam="1">  1       21 0.25394851E-01 0.21805311E+02</pdfrwt>
<pdfrwt beam="2">  1       21 0.94529172E-02 0.21805311E+02</pdfrwt>
<totfact> 0.11972691E+06</totfact>
</mgrwt>
</event>
<event>
 4    1  0.4578942E+006  0.2172460E+02  0.7546771E-02  0.1713059E+00
         21   -1    0    0  503  501  0.00000000000E+00  0.00000000000E+00  0.15836618447E+02  0.15836618447E+02  0.00000000000E+00 0.  1.
         21   -1    0    0  501  502 -0.00000000000E+00 -0.00000000000E+00 -0.52126962414E+02  0.52126962414E+02  0.00000000000E+00 0.  1.
         21    1    1    2  503  504  0.67554431144E+01  0.20647568267E+02  0.40937317166E+01  0.22106938422E+02  0.00000000000E+00 0.  1.
         21    1    1    2  504  502 -0.67554431144E+01 -0.20647568267E+02 -0.40384075683E+02  0.45856642439E+02  0.00000000000E+00 0.  1.
<mgrwt>
<rscale>  2 0.21724596E+02</rscale>
<asrwt>0</asrwt>
<pdfrwt beam="1">  1       21 0.24364029E-02 0.21724596E+02</pdfrwt>
<pdfrwt beam="2">  1       21 0.80195326E-02 0.21724596E+02</pdfrwt>
<totfact> 0.72776865E+07</totfact>
</mgrwt>
</event>
<event>
 4    1  0.4578942E+006  0.4508246E+02  0.7546771E-02  0.1473828E+00
         21   -1    0    0  504  501  0.00000000000E+00  0.00000000000E+00  0.12389229434E+02  0.12389229434E+02  0.00000000000E+00 0. -1.
         21   -1    0    0  503  502 -0.00000000000E+00 -0.00000000000E+00 -0.16439312115E+03  0.16439312115E+03  0.00000000000E+00 0.  1.
         21    1    1    2  503  501  0.33403776869E+02  0.30275669176E+02 -0.71952033607E+02  0.84908913509E+02  0.00000000000E+00 0. -1.
         21    1    1    2  504  502 -0.33403776869E+02 -0.30275669176E+02 -0.80051858107E+02  0.91873437073E+02  0.00000000000E+00 0.  1.
<mgrwt>
<rscale>  2 0.45082463E+02</rscale>
<asrwt>0</asrwt>
<pdfrwt beam="1">  1       21 0.19060354E-02 0.45082463E+02</pdfrwt>
<pdfrwt beam="2">  1       21 0.25291248E-01 0.45082463E+02</pdfrwt>
<totfact> 0.17154094E+07</totfact>
</mgrwt>
</event>
<event>
 4    1  0.4578942E+006  0.2352977E+02  0.7546771E-02  0.1683064E+00
         21   -1    0    0  504  501  0.00000000000E+00  0.00000000000E+00  0.24454653040E+03  0.24454653040E+03  0.00000000000E+00 0.  1.
         21   -1    0    0  501  502 -0.00000000000E+00 -0.00000000000E+00 -0.21648651024E+03  0.21648651024E+03  0.00000000000E+00 0.  1.
         21    1    1    2  503  502 -0.10107576372E+02  0.21248226750E+02 -0.21527798664E+03  0.21656006505E+03  0.00000000000E+00 0.  1.
         21    1    1    2  504  503  0.10107576372E+02 -0.21248226750E+02  0.24333800680E+03  0.24447297559E+03  0.00000000000E+00 0.  1.
<mgrwt>
<rscale>  2 0.23529773E+02</rscale>
<asrwt>0</asrwt>
<pdfrwt beam="1">  1       21 0.37622543E-01 0.23529773E+02</pdfrwt>
<pdfrwt beam="2">  1       21 0.33305617E-01 0.23529773E+02</pdfrwt>
<totfact> 0.66257281E+04</totfact>
</mgrwt>
</event>
<event>
 4    1  0.4578942E+006  0.2278240E+02  0.7546771E-02  0.1695062E+00
         21   -1    0    0  504  501  0.00000000000E+00  0.00000000000E+00  0.48368491854E+02  0.48368491854E+02  0.00000000000E+00 0. -1.
         21   -1    0    0  503  502 -0.00000000000E+00 -0.00000000000E+00 -0.11279333067E+02  0.11279333067E+02  0.00000000000E+00 0. -1.
         21    1    1    2  503  501  0.47130022349E+01 -0.22289581764E+02  0.25120877313E+02  0.33913070080E+02  0.00000000000E+00 0. -1.
         21    1    1    2  504  502 -0.47130022349E+01  0.22289581764E+02  0.11968281474E+02  0.25734754841E+02  0.00000000000E+00 0. -1.
<mgrwt>
<rscale>  2 0.22782402E+02</rscale>
<asrwt>0</asrwt>
<pdfrwt beam="1">  1       21 0.74413063E-02 0.22782402E+02</pdfrwt>
<pdfrwt beam="2">  1       21 0.17352820E-02 0.22782402E+02</pdfrwt>
<totfact> 0.14024566E+08</totfact>
</mgrwt>
</event>
<event>
 4    1  0.4578942E+006  0.2816669E+02  0.7546771E-02  0.1619285E+00
         21   -1    0    0  503  501  0.00000000000E+00  0.00000000000E+00  0.10702064073E+03  0.10702064073E+03  0.00000000000E+00 0. -1.
         21   -1    0    0  504  502 -0.00000000000E+00 -0.00000000000E+00 -0.94875681937E+01  0.94875681937E+01  0.00000000000E+00 0. -1.
         21    1    1    2  503  502  0.28144270655E+02  0.11235522921E+01  0.76005777362E+02  0.81057020256E+02  0.00000000000E+00 0. -1.
         21    1    1    2  504  501 -0.28144270655E+02 -0.11235522921E+01  0.21527295177E+02  0.35451188670E+02  0.00000000000E+00 0. -1.
<mgrwt>
<rscale>  2 0.28166688E+02</rscale>
<asrwt>0</asrwt>
<pdfrwt beam="1">  1       21 0.16464713E-01 0.28166688E+02</pdfrwt>
<pdfrwt beam="2">  1       21 0.14596260E-02 0.28166688E+02</pdfrwt>
<totfact> 0.51120276E+07</totfact>
</mgrwt>
</event>
<event>
 4    1  0.4578942E+006  0.2334592E+02  0.7546771E-02  0.1685963E+00
         21   -1    0    0  504  501  0.00000000000E+00  0.00000000000E+00  0.13028571441E+04  0.13028571441E+04  0.00000000000E+00 0. -1.
         21   -1    0    0  503  502 -0.00000000000E+00 -0.00000000000E+00 -0.10736665298E+02  0.10736665298E+02  0.00000000000E+00 0.  1.
         21    1    1    2  503  501  0.60334253569E+00  0.23338127018E+02  0.12899345228E+04  0.12901457690E+04  0.00000000000E+00 0. -1.
         21    1    1    2  504  502 -0.60334253569E+00 -0.23338127018E+02  0.21859560186E+01  0.23448040401E+02  0.00000000000E+00 0.  1.
<mgrwt>
<rscale>  2 0.23345925E+02</rscale>
<asrwt>0</asrwt>
<pdfrwt beam="1">  1       21 0.20043944E+00 0.23345925E+02</pdfrwt>
<pdfrwt beam="2">  1       21 0.16517957E-02 0.23345925E+02</pdfrwt>
<totfact> 0.25073699E+05</totfact>
</mgrwt>
</event>
<event>
 4    1  0.4578942E+006  0.2168488E+02  0.7546771E-02  0.1713760E+00
         21   -1    0    0  503  501  0.00000000000E+00  0.00000000000E+00  0.67726501370E+01  0.67726501370E+01  0.00000000000E+00 0. -1.
         21   -1    0    0  504  502 -0.00000000000E+00 -0.00000000000E+00 -0.10182743737E+03  0.10182743737E+03  0.00000000000E+00 0. -1.
         21    1    1    2  503  502 -0.76620779054E+01 -0.20286114022E+02 -0.16899690311E+02  0.27492424276E+02  0.00000000000E+00 0. -1.
         21    1    1    2  504  501  0.76620779054E+01  0.20286114022E+02 -0.78155096925E+02  0.81107663234E+02  0.00000000000E+00 0. -1.
<mgrwt>
<rscale>  2 0.21684876E+02</rscale>
<asrwt>0</asrwt>
<pdfrwt beam="1">  1       21 0.10419462E-02 0.21684876E+02</pdfrwt>
<pdfrwt beam="2">  1       21 0.15665760E-01 0.21684876E+02</pdfrwt>
<totfact> 0.86844959E+07</totfact>
</mgrwt>
</event>
<event>
 4    1  0.4578942E+006  0.2472153E+02  0.7546771E-02  0.1665034E+00
         21   -1    0    0  504  501  0.00000000000E+00  0.00000000000E+00  0.31239810865E+02  0.31239810865E+02  0.00000000000E+00 0.  1.
         21   -1    0    0  503  502 -0.00000000000E+00 -0.00000000000E+00 -0.15105161987E+03  0.15105161987E+03  0.00000000000E+00 0. -1.
         21    1    1    2  503  501  0.46808423695E+01 -0.24274339622E+02 -0.14494470965E+03  0.14703782746E+03  0.00000000000E+00 0. -1.
         21    1    1    2  504  502 -0.46808423695E+01  0.24274339622E+02  0.25132900641E+02  0.35253603277E+02  0.00000000000E+00 0.  1.
<mgrwt>
<rscale>  2 0.24721526E+02</rscale>
<asrwt>0</asrwt>
<pdfrwt beam="1">  1       21 0.48061249E-02 0.24721526E+02</pdfrwt>
<pdfrwt beam="2">  1       21 0.23238710E-01 0.24721526E+02</pdfrwt>
<totfact> 0.42558559E+06</totfact>
</mgrwt>
</event>
<event>
 4    1  0.4578942E+006  0.2380499E+02  0.7546771E-02  0.1678784E+00
         21   -1    0    0  504  501  0.00000000000E+00  0.00000000000E+00  0.59733779612E+02  0.59733779612E+02  0.00000000000E+00 0. -1.
         21   -1    0    0  501  502 -0.00000000000E+00 -0.00000000000E+00 -0.83140003779E+02  0.83140003779E+02  0.00000000000E+00 0. -1.
         21    1    1    2  503  502  0.22652721519E+02  0.73165437375E+01 -0.78940926582E+02  0.82452092115E+02  0.00000000000E+00 0. -1.
         21    1    1    2  504  503 -0.22652721519E+02 -0.73165437375E+01  0.55534702414E+02  0.60421691277E+02  0.00000000000E+00 0. -1.
<mgrwt>
<rscale>  2 0.23804991E+02</rscale>
<asrwt>0</asrwt>
<pdfrwt beam="1">  1       21 0.91898123E-02 0.23804991E+02</pdfrwt>
<pdfrwt beam="2">  1       21 0.12790770E-01 0.23804991E+02</pdfrwt>
<totfact> 0.41554075E+06</totfact>
</mgrwt>
</event>
<event>
 4    1  0.4578942E+006  0.2243128E+02  0.7546771E-02  0.1700898E+00
         21   -1    0    0  503  501  0.00000000000E+00  0.00000000000E+00  0.45142885372E+01  0.45142885372E+01  0.00000000000E+00 0. -1.
         21   -1    0    0  501  502 -0.00000000000E+00 -0.00000000000E+00 -0.12566251718E+03  0.12566251718E+03  0.00000000000E+00 0. -1.
         21    1    1    2  503  504  0.26503138742E+01 -0.22274162857E+02 -0.38692278392E+02  0.44724209347E+02  0.00000000000E+00 0. -1.
         21    1    1    2  504  502 -0.26503138742E+01  0.22274162857E+02 -0.82455950255E+02  0.85452596374E+02  0.00000000000E+00 0. -1.
<mgrwt>
<rscale>  2 0.22431284E+02</rscale>
<asrwt>0</asrwt>
<pdfrwt beam="1">  1       21 0.69450603E-03 0.22431284E+02</pdfrwt>
<pdfrwt beam="2">  1       21 0.19332692E-01 0.22431284E+02</pdfrwt>
<totfact> 0.11188475E+08</totfact>
</mgrwt>
</event>
<event>
 4    1  0.4578942E+006  0.2442379E+02  0.7546771E-02  0.1669419E+00
         21   -1    0    0  502  501  0.00000000000E+00  0.00000000000E+00  0.27989141446E+03  0.27989141446E+03  0.00000000000E+00 0.  1.
         21   -1    0    0  503  502 -0.00000000000E+00 -0.00000000000E+00 -0.38842970460E+02  0.38842970460E+02  0.00000000000E+00 0.  1.
         21    1    1    2  503  504  0.15948461163E+02  0.18497781042E+02 -0.34409165159E+02  0.42196113137E+02  0.00000000000E+00 0.  1.
         21    1    1    2  504  501 -0.15948461163E+02 -0.18497781042E+02  0.27545760916E+03  0.27653827178E+03  0.00000000000E+00 0.  1.
<mgrwt>
<rscale>  2 0.24423786E+02</rscale>
<asrwt>0</asrwt>
<pdfrwt beam="1">  1       21 0.43060216E-01 0.24423786E+02</pdfrwt>
<pdfrwt beam="2">  1       21 0.59758418E-02 0.24423786E+02</pdfrwt>
<totfact> 0.96545249E+05</totfact>
</mgrwt>
</event>
<event>
 4    1  0.4578942E+006  0.2176806E+02  0.7546771E-02  0.1712294E+00
         21   -1    0    0  503  501  0.00000000000E+00  0.00000000000E+00  0.57408784853E+02  0.57408784853E+02  0.00000000000E+00 0.  1.
         21   -1    0    0  504  502 -0.00000000000E+00 -0.00000000000E+00 -0.84592086366E+01  0.84592086366E+01  0.00000000000E+00 0.  1.
         21    1    1    2  503  502  0.11211371491E+02 -0.18658873503E+02  0.19344455064E+02  0.29121407123E+02  0.00000000000E+00 0.  1.
         21    1    1    2  504  501 -0.11211371491E+02  0.18658873503E+02  0.29605121152E+02  0.36746586366E+02  0.00000000000E+00 0.  1.
<mgrwt>
<rscale>  2 0.21768059E+02</rscale>
<asrwt>0</asrwt>
<pdfrwt beam="1">  1       21 0.88321205E-02 0.21768059E+02</pdfrwt>
<pdfrwt beam="2">  1       21 0.13014167E-02 0.21768059E+02</pdfrwt>
<totfact> 0.16190524E+08</totfact>
</mgrwt>
</event>
<event>
 4    1  0.4578942E+006  0.2760537E+02  0.7546771E-02  0.1626174E+00
         21   -1    0    0  502  501  0.00000000000E+00  0.00000000000E+00  0.24341757688E+03  0.24341757688E+03  0.00000000000E+00 0. -1.
         21   -1    0    0  503  502 -0.00000000000E+00 -0.00000000000E+00 -0.49445889098E+01  0.49445889098E+01  0.00000000000E+00 0.  1.
         21    1    1    2  503  504  0.27333625267E+02  0.38638803375E+01  0.44022095760E+02  0.51961539206E+02  0.00000000000E+00 0.  1.
         21    1    1    2  504  501 -0.27333625267E+02 -0.38638803375E+01  0.19445089221E+03  0.19640062658E+03  0.00000000000E+00 0. -1.
<mgrwt>
<rscale>  2 0.27605373E+02</rscale>
<asrwt>0</asrwt>
<pdfrwt beam="1">  1       21 0.37448849E-01 0.27605373E+02</pdfrwt>
<pdfrwt beam="2">  1       21 0.76070618E-03 0.27605373E+02</pdfrwt>
<totfact> 0.31121355E+07</totfact>
</mgrwt>
</event>
<event>
 4    1  0.4578942E+006  0.3020001E+02  0.7546771E-02  0.1595888E+00
         21   -1    0    0  503  501  0.00000000000E+00  0.00000000000E+00  0.23177040071E+02  0.23177040071E+02  0.00000000000E+00 0. -1.
         21   -1    0    0  501  502 -0.00000000000E+00 -0.00000000000E+00 -0.94399035500E+02  0.94399035500E+02  0.00000000000E+00 0.  1.
         21    1    1    2  503  504 -0.22990787078E+02 -0.19582237407E+02  0.92817300800E+01  0.31594158094E+02  0.00000000000E+00 0. -1.
         21    1    1    2  504  502  0.22990787078E+02  0.19582237407E+02 -0.80503725509E+02  0.85981917478E+02  0.00000000000E+00 0.  1.
<mgrwt>
<rscale>  2 0.30200005E+02</rscale>
<asrwt>0</asrwt>
<pdfrwt beam="1">  1       21 0.35656985E-02 0.30200005E+02</pdfrwt>
<pdfrwt beam="2">  1       21 0.14522928E-01 0.30200005E+02</pdfrwt>
<totfact> 0.16044522E+07</totfact>
</mgrwt>
</event>
<event>
 4    1  0.4578942E+006  0.2319603E+02  0.7546771E-02  0.1688352E+00
         21   -1    0    0  502  501  0.00000000000E+00  0.00000000000E+00  0.22412747961E+02  0.22412747961E+02  0.00000000000E+00 0.  1.
         21   -1    0    0  504  502 -0.00000000000E+00 -0.00000000000E+00 -0.44995999520E+02  0.44995999520E+02  0.00000000000E+00 0.  1.
         21    1    1    2  503  501 -0.21389425906E+02  0.89748691059E+01  0.11728008596E+02  0.25992345059E+02  0.00000000000E+00 0.  1.
         21    1    1    2  504  503  0.21389425906E+02 -0.89748691059E+01 -0.34311260156E+02  0.41416402421E+02  0.00000000000E+00 0.  1.
<mgrwt>
<rscale>  2 0.23196030E+02</rscale>
<asrwt>0</asrwt>
<pdfrwt beam="1">  1       21 0.34481151E-02 0.23196030E+02</pdfrwt>
<pdfrwt beam="2">  1       21 0.69224614E-02 0.23196030E+02</pdfrwt>
<totfact> 0.54835259E+07</totfact>
</mgrwt>
</event>
<event>
 4    1  0.4578942E+006  0.2252557E+02  0.7546771E-02  0.1699318E+00
         21   -1    0    0  504  501  0.00000000000E+00  0.00000000000E+00  0.71306696174E+03  0.71306696174E+03  0.00000000000E+00 0.  1.
         21   -1    0    0  503  502 -0.00000000000E+00 -0.00000000000E+00 -0.97747860840E+00  0.97747860840E+00  0.00000000000E+00 0.  1.
         21    1    1    2  503  501  0.19974960401E+02  0.10411641215E+02  0.54225471483E+03  0.54272237568E+03  0.00000000000E+00 0.  1.
         21    1    1    2  504  502 -0.19974960401E+02 -0.10411641215E+02  0.16983476830E+03  0.17132206466E+03  0.00000000000E+00 0.  1.
<mgrwt>
<rscale>  2 0.22525570E+02</rscale>
<asrwt>0</asrwt>
<pdfrwt beam="1">  1       21 0.10970219E+00 0.22525570E+02</pdfrwt>
<pdfrwt beam="2">  1       21 0.15038189E-03 0.22525570E+02</pdfrwt>
<totfact> 0.36002903E+07</totfact>
</mgrwt>
</event>
<event>
 4    1  0.4578942E+006  0.3025765E+02  0.7546771E-02  0.1595258E+00
         21   -1    0    0  504  501  0.00000000000E+00  0.00000000000E+00  0.11482051185E+02  0.11482051185E+02  0.00000000000E+00 0.  1.
         21   -1    0    0  503  502 -0.00000000000E+00 -0.00000000000E+00 -0.18936155219E+03  0.18936155219E+03  0.00000000000E+00 0. -1.
         21    1    1    2  503  501 -0.27012872495E+02 -0.13631957247E+02 -0.12531674892E+02  0.32750090296E+02  0.00000000000E+00 0.  1.
         21    1    1    2  504  502  0.27012872495E+02  0.13631957247E+02 -0.16534782612E+03  0.16809351308E+03  0.00000000000E+00 0. -1.
<mgrwt>
<rscale>  2 0.30257653E+02</rscale>
<asrwt>0</asrwt>
<pdfrwt beam="1">  1       21 0.17664696E-02 0.30257653E+02</pdfrwt>
<pdfrwt beam="2">  1       21 0.29132543E-01 0.30257653E+02</pdfrwt>
<totfact> 0.14016964E+07</totfact>
</mgrwt>
</event>
<event>
 4    1  0.4578942E+006  0.2051364E+02  0.7546771E-02  0.1735302E+00
         21   -1    0    0  502  501  0.00000000000E+00  0.00000000000E+00  0.85243431126E+02  0.85243431126E+02  0.00000000000E+00 0.  1.
         21   -1    0    0  504  502 -0.00000000000E+00 -0.00000000000E+00 -0.18556197716E+02  0.18556197716E+02  0.00000000000E+00 0.  1.
         21    1    1    2  503  501 -0.50426243820E+01  0.19884201123E+02  0.77807158005E+02  0.80465914223E+02  0.00000000000E+00 0.  1.
         21    1    1    2  504  503  0.50426243820E+01 -0.19884201123E+02 -0.11119924595E+02  0.23333714620E+02  0.00000000000E+00 0.  1.
<mgrwt>
<rscale>  2 0.20513642E+02</rscale>
<asrwt>0</asrwt>
<pdfrwt beam="1">  1       21 0.13114374E-01 0.20513642E+02</pdfrwt>
<pdfrwt beam="2">  1       21 0.28547997E-02 0.20513642E+02</pdfrwt>
<totfact> 0.24921540E+07</totfact>
</mgrwt>
</event>
<event>
 4    1  0.4578942E+006  0.3333150E+02  0.7546771E-02  0.1563937E+00
         21   -1    0    0  504  501  0.00000000000E+00  0.00000000000E+00  0.50875186517E+01  0.50875186517E+01  0.00000000000E+00 0. -1.
         21   -1    0    0  501  502 -0.00000000000E+00 -0.00000000000E+00 -0.28960222179E+03  0.28960222179E+03  0.00000000000E+00 0. -1.
         21    1    1    2  503  502  0.32432826849E+02 -0.76877015058E+01 -0.21533016088E+03  0.21789462406E+03  0.00000000000E+00 0. -1.
         21    1    1    2  504  503 -0.32432826849E+02  0.76877015058E+01 -0.69184542262E+02  0.76795116381E+02  0.00000000000E+00 0. -1.
<mgrwt>
<rscale>  2 0.33331502E+02</rscale>
<asrwt>0</asrwt>
<pdfrwt beam="1">  1       21 0.78269519E-03 0.33331502E+02</pdfrwt>
<pdfrwt beam="2">  1       21 0.44554187E-01 0.33331502E+02</pdfrwt>
<totfact> 0.22143872E+07</totfact>
</mgrwt>
</event>
<event>
 4    1  0.4578942E+006  0.4288825E+02  0.7546771E-02  0.1487973E+00
         21   -1    0    0  502  501  0.00000000000E+00  0.00000000000E+00  0.21931346529E+03  0.21931346529E+03  0.00000000000E+00 0. -1.
         21   -1    0    0  503  502 -0.00000000000E+00 -0.00000000000E+00 -0.17553976331E+02  0.17553976331E+02  0.00000000000E+00 0. -1.
         21    1    1    2  503  504  0.42420420167E+02  0.63174193549E+01  0.15294570922E+02  0.45533786731E+02  0.00000000000E+00 0. -1.
         21    1    1    2  504  501 -0.42420420167E+02 -0.63174193549E+01  0.18646491804E+03  0.19133365489E+03  0.00000000000E+00 0. -1.
<mgrwt>
<rscale>  2 0.42888248E+02</rscale>
<asrwt>0</asrwt>
<pdfrwt beam="1">  1       21 0.33740531E-01 0.42888248E+02</pdfrwt>
<pdfrwt beam="2">  1       21 0.27006119E-02 0.42888248E+02</pdfrwt>
<totfact> 0.57601689E+06</totfact>
</mgrwt>
</event>
<event>
 4    1  0.4578942E+006  0.2070816E+02  0.7546771E-02  0.1731601E+00
         21   -1    0    0  504  501  0.00000000000E+00  0.00000000000E+00  0.52079054796E+02  0.52079054796E+02  0.00000000000E+00 0.  1.
         21   -1    0    0  503  502 -0.00000000000E+00 -0.00000000000E+00 -0.74993982831E+02  0.74993982831E+02  0.00000000000E+00 0. -1.
         21    1    1    2  503  501  0.16384890225E+02  0.12663463803E+02 -0.71404505168E+02  0.74346696642E+02  0.00000000000E+00 0. -1.
         21    1    1    2  504  502 -0.16384890225E+02 -0.12663463803E+02  0.48489577134E+02  0.52726340986E+02  0.00000000000E+00 0.  1.
<mgrwt>
<rscale>  2 0.20708161E+02</rscale>
<asrwt>0</asrwt>
<pdfrwt beam="1">  1       21 0.80121623E-02 0.20708161E+02</pdfrwt>
<pdfrwt beam="2">  1       21 0.11537536E-01 0.20708161E+02</pdfrwt>
<totfact> 0.60371227E+06</totfact>
</mgrwt>
</event>
<event>
 4    1  0.4578942E+006  0.2987613E+02  0.7546771E-02  0.1599462E+00
         21   -1    0    0  503  501  0.00000000000E+00  0.00000000000E+00  0.10006296335E+01  0.10006296335E+01  0.00000000000E+00 0.  1.
         21   -1    0    0  504  502 -0.00000000000E+00 -0.00000000000E+00 -0.11359359222E+04  0.11359359222E+04  0.00000000000E+00 0. -1.
         21    1    1    2  503  502  0.25026317809E+02  0.16317673619E+02 -0.30404801485E+03  0.30551232118E+03  0.00000000000E+00 0.  1.
         21    1    1    2  504  501 -0.25026317809E+02 -0.16317673619E+02 -0.83088727775E+03  0.83142423069E+03  0.00000000000E+00 0. -1.
<mgrwt>
<rscale>  2 0.29876129E+02</rscale>
<asrwt>0</asrwt>
<pdfrwt beam="1">  1       21 0.15394309E-03 0.29876129E+02</pdfrwt>
<pdfrwt beam="2">  1       21 0.17475929E+00 0.29876129E+02</pdfrwt>
<totfact> 0.12178628E+07</totfact>
</mgrwt>
</event>
<event>
 4    1  0.4578942E+006  0.2221029E+02  0.7546771E-02  0.1704640E+00
         21   -1    0    0  504  501  0.00000000000E+00  0.00000000000E+00  0.20342584686E+01  0.20342584686E+01  0.00000000000E+00 0. -1.
         21   -1    0    0  503  502 -0.00000000000E+00 -0.00000000000E+00 -0.40310824842E+03  0.40310824842E+03  0.00000000000E+00 0.  1.
         21    1    1    2  503  501  0.11244457896E+01 -0.22181809337E+02 -0.32840384424E+03  0.32915403986E+03  0.00000000000E+00 0.  1.
         21    1    1    2  504  502 -0.11244457896E+01  0.22181809337E+02 -0.72670145712E+02  0.75988467031E+02  0.00000000000E+00 0. -1.
<mgrwt>
<rscale>  2 0.22210291E+02</rscale>
<asrwt>0</asrwt>
<pdfrwt beam="1">  1       21 0.31296260E-03 0.22210291E+02</pdfrwt>
<pdfrwt beam="2">  1       21 0.62016702E-01 0.22210291E+02</pdfrwt>
<totfact> 0.41454506E+07</totfact>
</mgrwt>
</event>
<event>
 4    1  0.4578942E+006  0.2426075E+02  0.7546771E-02  0.1671853E+00
         21   -1    0    0  504  501  0.00000000000E+00  0.00000000000E+00  0.12020736117E+02  0.12020736117E+02  0.00000000000E+00 0. -1.
         21   -1    0    0  503  502 -0.00000000000E+00 -0.00000000000E+00 -0.73985912669E+02  0.73985912669E+02  0.00000000000E+00 0. -1.
         21    1    1    2  503  501  0.23353605931E+02 -0.65721592675E+01 -0.59741172482E+01  0.24985481070E+02  0.00000000000E+00 0. -1.
         21    1    1    2  504  502 -0.23353605931E+02  0.65721592675E+01 -0.55991059304E+02  0.61021167716E+02  0.00000000000E+00 0. -1.
<mgrwt>
<rscale>  2 0.24260754E+02</rscale>
<asrwt>0</asrwt>
<pdfrwt beam="1">  1       21 0.18493441E-02 0.24260754E+02</pdfrwt>
<pdfrwt beam="2">  1       21 0.11382448E-01 0.24260754E+02</pdfrwt>
<totfact> 0.64301751E+07</totfact>
</mgrwt>
</event>
<event>
 4    1  0.4578942E+006  0.2113483E+02  0.7546771E-02  0.1723659E+00
         21   -1    0    0  503  501  0.00000000000E+00  0.00000000000E+00  0.10817439234E+02  0.10817439234E+02  0.00000000000E+00 0. -1.
         21   -1    0    0  504  502 -0.00000000000E+00 -0.00000000000E+00 -0.47936347134E+02  0.47936347134E+02  0.00000000000E+00 0. -1.
         21    1    1    2  503  502 -0.17146254738E+02 -0.12356655163E+02 -0.76229739002E+01  0.22467547918E+02  0.00000000000E+00 0. -1.
         21    1    1    2  504  501  0.17146254738E+02  0.12356655163E+02 -0.29495933999E+02  0.36286238450E+02  0.00000000000E+00 0. -1.
<mgrwt>
<rscale>  2 0.21134829E+02</rscale>
<asrwt>0</asrwt>
<pdfrwt beam="1">  1       21 0.16642214E-02 0.21134829E+02</pdfrwt>
<pdfrwt beam="2">  1       21 0.73748228E-02 0.21134829E+02</pdfrwt>
<totfact> 0.14824297E+08</totfact>
</mgrwt>
</event>
<event>
 4    1  0.4578942E+006  0.2007794E+02  0.7546771E-02  0.1743783E+00
         21   -1    0    0  503  501  0.00000000000E+00  0.00000000000E+00  0.10796427251E+03  0.10796427251E+03  0.00000000000E+00 0.  1.
         21   -1    0    0  501  502 -0.00000000000E+00 -0.00000000000E+00 -0.72618855515E+01  0.72618855515E+01  0.00000000000E+00 0. -1.
         21    1    1    2  503  504  0.19988769950E+02  0.18901811347E+01  0.90508272529E+02  0.92708527682E+02  0.00000000000E+00 0.  1.
         21    1    1    2  504  502 -0.19988769950E+02 -0.18901811347E+01  0.10194114428E+02  0.22517630377E+02  0.00000000000E+00 0. -1.
<mgrwt>
<rscale>  2 0.20077941E+02</rscale>
<asrwt>0</asrwt>
<pdfrwt beam="1">  1       21 0.16609887E-01 0.20077941E+02</pdfrwt>
<pdfrwt beam="2">  1       21 0.11172132E-02 0.20077941E+02</pdfrwt>
<totfact> 0.69288901E+07</totfact>
</mgrwt>
</event>
<event>
 4    1  0.4578942E+006  0.2119901E+02  0.7546771E-02  0.1722485E+00
         21   -1    0    0  502  501  0.00000000000E+00  0.00000000000E+00  0.42270162326E+03  0.42270162326E+03  0.00000000000E+00 0. -1.
         21   -1    0    0  504  502 -0.00000000000E+00 -0.00000000000E+00 -0.40966882979E+01  0.40966882979E+01  0.00000000000E+00 0.  1.
         21    1    1    2  503  501  0.65144608892E+01  0.20173241176E+02  0.39293538411E+03  0.39350681563E+03  0.00000000000E+00 0. -1.
         21    1    1    2  504  503 -0.65144608892E+01 -0.20173241176E+02  0.25669550848E+02  0.33291495925E+02  0.00000000000E+00 0.  1.
<mgrwt>
<rscale>  2 0.21199006E+02</rscale>
<asrwt>0</asrwt>
<pdfrwt beam="1">  1       21 0.65030984E-01 0.21199006E+02</pdfrwt>
<pdfrwt beam="2">  1       21 0.63026007E-03 0.21199006E+02</pdfrwt>
<totfact> 0.13353026E+07</totfact>
</mgrwt>
</event>
<event>
 4    1  0.4578942E+006  0.2004846E+02  0.7546771E-02  0.1744366E+00
         21   -1    0    0  502  501  0.00000000000E+00  0.00000000000E+00  0.92705935332E+00  0.92705935332E+00  0.00000000000E+00 0.  1.
         21   -1    0    0  504  502 -0.00000000000E+00 -0.00000000000E+00 -0.53661545105E+03  0.53661545105E+03  0.00000000000E+00 0.  1.
         21    1    1    2  503  501  0.19885581440E+02 -0.25503801237E+01 -0.15006312441E+03  0.15139644017E+03  0.00000000000E+00 0.  1.
         21    1    1    2  504  503 -0.19885581440E+02  0.25503801237E+01 -0.38562526729E+03  0.38614607024E+03  0.00000000000E+00 0.  1.
<mgrwt>
<rscale>  2 0.20048461E+02</rscale>
<asrwt>0</asrwt>
<pdfrwt beam="1">  1       21 0.14262472E-03 0.20048461E+02</pdfrwt>
<pdfrwt beam="2">  1       21 0.82556104E-01 0.20048461E+02</pdfrwt>
<totfact> 0.69846823E+07</totfact>
</mgrwt>
</event>
<event>
 4    1  0.4578942E+006  0.2266776E+02  0.7546771E-02  0.1696953E+00
         21   -1    0    0  504  501  0.00000000000E+00  0.00000000000E+00  0.28072219297E+01  0.28072219297E+01  0.00000000000E+00 0. -1.
         21   -1    0    0  503  502 -0.00000000000E+00 -0.00000000000E+00 -0.60592884185E+03  0.60592884185E+03  0.00000000000E+00 0. -1.
         21    1    1    2  503  501  0.20332621122E+02 -0.10020564502E+02 -0.55583516622E+03  0.55629718604E+03  0.00000000000E+00 0. -1.
         21    1    1    2  504  502 -0.20332621122E+02  0.10020564502E+02 -0.47286453706E+02  0.52438877740E+02  0.00000000000E+00 0. -1.
<mgrwt>
<rscale>  2 0.22667757E+02</rscale>
<asrwt>0</asrwt>
<pdfrwt beam="1">  1       21 0.43188060E-03 0.22667757E+02</pdfrwt>
<pdfrwt beam="2">  1       21 0.93219755E-01 0.22667757E+02</pdfrwt>
<totfact> 0.11141485E+07</totfact>
</mgrwt>
</event>
<event>
 4    1  0.4578942E+006  0.2091425E+02  0.7546771E-02  0.1727735E+00
         21   -1    0    0  504  501  0.00000000000E+00  0.00000000000E+00  0.92156983402E+01  0.92156983402E+01  0.00000000000E+00 0.  1.
         21   -1    0    0  501  502 -0.00000000000E+00 -0.00000000000E+00 -0.16852248037E+03  0.16852248037E+03  0.00000000000E+00 0. -1.
         21    1    1    2  503  502  0.11924307814E+02  0.17181866862E+02 -0.15497524852E+03  0.15638009246E+03  0.00000000000E+00 0. -1.
         21    1    1    2  504  503 -0.11924307814E+02 -0.17181866862E+02 -0.43315335169E+01  0.21358086252E+02  0.00000000000E+00 0.  1.
<mgrwt>
<rscale>  2 0.20914246E+02</rscale>
<asrwt>0</asrwt>
<pdfrwt beam="1">  1       21 0.14177999E-02 0.20914246E+02</pdfrwt>
<pdfrwt beam="2">  1       21 0.25926532E-01 0.20914246E+02</pdfrwt>
<totfact> 0.22509182E+07</totfact>
</mgrwt>
</event>
<event>
 4    1  0.4578942E+006  0.2630672E+02  0.7546771E-02  0.1642913E+00
         21   -1    0    0  503  501  0.00000000000E+00  0.00000000000E+00  0.16606860085E+02  0.16606860085E+02  0.00000000000E+00 0. -1.
         21   -1    0    0  504  502 -0.00000000000E+00 -0.00000000000E+00 -0.91233794165E+03  0.91233794165E+03  0.00000000000E+00 0.  1.
         21    1    1    2  503  502 -0.26175325401E+02  0.26260422467E+01  0.58752073419E+01  0.26954810684E+02  0.00000000000E+00 0. -1.
         21    1    1    2  504  501  0.26175325401E+02 -0.26260422467E+01 -0.90160628891E+03  0.90198999105E+03  0.00000000000E+00 0.  1.
<mgrwt>
<rscale>  2 0.26306725E+02</rscale>
<asrwt>0</asrwt>
<pdfrwt beam="1">  1       21 0.25549005E-02 0.26306725E+02</pdfrwt>
<pdfrwt beam="2">  1       21 0.14035974E+00 0.26306725E+02</pdfrwt>
<totfact> 0.30764724E+05</totfact>
</mgrwt>
</event>
<event>
 4    1  0.4578942E+006  0.2157818E+02  0.7546771E-02  0.1715651E+00
         21   -1    0    0  502  501  0.00000000000E+00  0.00000000000E+00  0.94192711283E+01  0.94192711283E+01  0.00000000000E+00 0.  1.
         21   -1    0    0  504  502 -0.00000000000E+00 -0.00000000000E+00 -0.60222799842E+03  0.60222799842E+03  0.00000000000E+00 0. -1.
         21    1    1    2  503  501 -0.21346014405E+02 -0.31568245200E+01 -0.34008464591E+01  0.21844533153E+02  0.00000000000E+00 0.  1.
         21    1    1    2  504  503  0.21346014405E+02  0.31568245200E+01 -0.58940788083E+03  0.58980273639E+03  0.00000000000E+00 0. -1.
<mgrwt>
<rscale>  2 0.21578180E+02</rscale>
<asrwt>0</asrwt>
<pdfrwt beam="1">  1       21 0.14491185E-02 0.21578180E+02</pdfrwt>
<pdfrwt beam="2">  1       21 0.92650473E-01 0.21578180E+02</pdfrwt>
<totfact> 0.18442907E+06</totfact>
</mgrwt>
</event>
<event>
 4    1  0.4578942E+006  0.2105306E+02  0.7546771E-02  0.1725163E+00
         21   -1    0    0  502  501  0.00000000000E+00  0.00000000000E+00  0.10556777576E+02  0.10556777576E+02  0.00000000000E+00 0.  1.
         21   -1    0    0  503  502 -0.00000000000E+00 -0.00000000000E+00 -0.87718013840E+02  0.87718013840E+02  0.00000000000E+00 0.  1.
         21    1    1    2  503  504  0.55828191586E+01  0.20299342577E+02 -0.74060360709E+02  0.76994598558E+02  0.00000000000E+00 0.  1.
         21    1    1    2  504  501 -0.55828191586E+01 -0.20299342577E+02 -0.31008755553E+01  0.21280192857E+02  0.00000000000E+00 0.  1.
<mgrwt>
<rscale>  2 0.21053056E+02</rscale>
<asrwt>0</asrwt>
<pdfrwt beam="1">  1       21 0.16241197E-02 0.21053056E+02</pdfrwt>
<pdfrwt beam="2">  1       21 0.13495078E-01 0.21053056E+02</pdfrwt>
<totfact> 0.56746474E+07</totfact>
</mgrwt>
</event>
<event>
 4    1  0.4578942E+006  0.2123895E+02  0.7546771E-02  0.1721756E+00
         21   -1    0    0  502  501  0.00000000000E+00  0.00000000000E+00  0.21822819136E+04  0.21822819136E+04  0.00000000000E+00 0.  1.
         21   -1    0    0  504  502 -0.00000000000E+00 -0.00000000000E+00 -0.24289128797E+00  0.24289128797E+00  0.00000000000E+00 0.  1.
         21    1    1    2  503  501  0.36067935168E+01  0.20930453907E+02  0.15122147752E+04  0.15123639175E+04  0.00000000000E+00 0.  1.
         21    1    1    2  504  503 -0.36067935168E+01 -0.20930453907E+02  0.66982424716E+03  0.67016088736E+03  0.00000000000E+00 0.  1.
<mgrwt>
<rscale>  2 0.21238947E+02</rscale>
<asrwt>0</asrwt>
<pdfrwt beam="1">  1       21 0.33571998E+00 0.21238947E+02</pdfrwt>
<pdfrwt beam="2">  1       21 0.37369638E-04 0.21238947E+02</pdfrwt>
<totfact> 0.13083819E+07</totfact>
</mgrwt>
</event>
<event>
 4    1  0.4578942E+006  0.2122012E+02  0.7546771E-02  0.1722099E+00
         21   -1    0    0  504  501  0.00000000000E+00  0.00000000000E+00  0.58627267947E+03  0.58627267947E+03  0.00000000000E+00 0. -1.
         21   -1    0    0  503  502 -0.00000000000E+00 -0.00000000000E+00 -0.76807010181E+00  0.76807010181E+00  0.00000000000E+00 0. -1.
         21    1    1    2  503  501  0.15280771066E+02  0.14723844880E+02  0.29177970480E+03  0.29255031995E+03  0.00000000000E+00 0. -1.
         21    1    1    2  504  502 -0.15280771066E+02 -0.14723844880E+02  0.29372490457E+03  0.29449042962E+03  0.00000000000E+00 0. -1.
<mgrwt>
<rscale>  2 0.21220122E+02</rscale>
<asrwt>0</asrwt>
<pdfrwt beam="1">  1       21 0.90195439E-01 0.21220122E+02</pdfrwt>
<pdfrwt beam="2">  1       21 0.11816510E-03 0.21220122E+02</pdfrwt>
<totfact> 0.76823567E+07</totfact>
</mgrwt>
</event>
<event>
 4    1  0.4578942E+006  0.2505883E+02  0.7546771E-02  0.1660158E+00
         21   -1    0    0  504  501  0.00000000000E+00  0.00000000000E+00  0.27870866375E+01  0.27870866375E+01  0.00000000000E+00 0. -1.
         21   -1    0    0  503  502 -0.00000000000E+00 -0.00000000000E+00 -0.46322907393E+03  0.46322907393E+03  0.00000000000E+00 0. -1.
         21    1    1    2  503  501 -0.69868998386E+01 -0.24065079530E+02 -0.39721165448E+03  0.39800131065E+03  0.00000000000E+00 0. -1.
         21    1    1    2  504  502  0.69868998386E+01  0.24065079530E+02 -0.63230332817E+02  0.68014849925E+02  0.00000000000E+00 0. -1.
<mgrwt>
<rscale>  2 0.25058827E+02</rscale>
<asrwt>0</asrwt>
<pdfrwt beam="1">  1       21 0.42878226E-03 0.25058827E+02</pdfrwt>
<pdfrwt beam="2">  1       21 0.71266061E-01 0.25058827E+02</pdfrwt>
<totfact> 0.20195250E+07</totfact>
</mgrwt>
</event>
<event>
 4    1  0.4578942E+006  0.2206357E+02  0.7546771E-02  0.1707155E+00
         21   -1    0    0  503  501  0.00000000000E+00  0.00000000000E+00  0.18307809096E+01  0.18307809096E+01  0.00000000000E+00 0.  1.
         21   -1    0    0  504  502 -0.00000000000E+00 -0.00000000000E+00 -0.12895856354E+04  0.12895856354E+04  0.00000000000E+00 0.  1.
         21    1    1    2  503  502 -0.15003012820E+02 -0.16177481153E+02 -0.12191781331E+04  0.12193777600E+04  0.00000000000E+00 0.  1.
         21    1    1    2  504  501  0.15003012820E+02  0.16177481153E+02 -0.68576721414E+02  0.72038656359E+02  0.00000000000E+00 0.  1.
<mgrwt>
<rscale>  2 0.22063574E+02</rscale>
<asrwt>0</asrwt>
<pdfrwt beam="1">  1       21 0.28165872E-03 0.22063574E+02</pdfrwt>
<pdfrwt beam="2">  1       21 0.19839771E+00 0.22063574E+02</pdfrwt>
<totfact> 0.35643827E+06</totfact>
</mgrwt>
</event>
<event>
 4    1  0.4578942E+006  0.3168389E+02  0.7546771E-02  0.1580188E+00
         21   -1    0    0  503  501  0.00000000000E+00  0.00000000000E+00  0.15484310077E+02  0.15484310077E+02  0.00000000000E+00 0.  1.
         21   -1    0    0  504  502 -0.00000000000E+00 -0.00000000000E+00 -0.19878021423E+03  0.19878021423E+03  0.00000000000E+00 0. -1.
         21    1    1    2  503  502  0.14881045934E+02 -0.27971831799E+02 -0.17959134105E+03  0.18236479563E+03  0.00000000000E+00 0. -1.
         21    1    1    2  504  501 -0.14881045934E+02  0.27971831799E+02 -0.37045631015E+01  0.31899728683E+02  0.00000000000E+00 0.  1.
<mgrwt>
<rscale>  2 0.31683890E+02</rscale>
<asrwt>0</asrwt>
<pdfrwt beam="1">  1       21 0.23822015E-02 0.31683890E+02</pdfrwt>
<pdfrwt beam="2">  1       21 0.30581572E-01 0.31683890E+02</pdfrwt>
<totfact> 0.81159552E+06</totfact>
</mgrwt>
</event>
<event>
 4    1  0.4578942E+006  0.2123205E+02  0.7546771E-02  0.1721882E+00
         21   -1    0    0  502  501  0.00000000000E+00  0.00000000000E+00  0.72350340222E+02  0.72350340222E+02  0.00000000000E+00 0. -1.
         21   -1    0    0  503  502 -0.00000000000E+00 -0.00000000000E+00 -0.29644744647E+02  0.29644744647E+02  0.00000000000E+00 0.  1.
         21    1    1    2  503  504  0.20520879742E+02  0.54491813287E+01 -0.23969585395E+02  0.32020947933E+02  0.00000000000E+00 0.  1.
         21    1    1    2  504  501 -0.20520879742E+02 -0.54491813287E+01  0.66675180969E+02  0.69974136935E+02  0.00000000000E+00 0. -1.
<mgrwt>
<rscale>  2 0.21232053E+02</rscale>
<asrwt>0</asrwt>
<pdfrwt beam="1">  1       21 0.11130822E-01 0.21232053E+02</pdfrwt>
<pdfrwt beam="2">  1       21 0.45607300E-02 0.21232053E+02</pdfrwt>
<totfact> 0.15875911E+07</totfact>
</mgrwt>
</event>
<event>
 4    1  0.4578942E+006  0.2501650E+02  0.7546771E-02  0.1660765E+00
         21   -1    0    0  502  501  0.00000000000E+00  0.00000000000E+00  0.23453064872E+02  0.23453064872E+02  0.00000000000E+00 0. -1.
         21   -1    0    0  503  502 -0.00000000000E+00 -0.00000000000E+00 -0.33739542502E+02  0.33739542502E+02  0.00000000000E+00 0. -1.
         21    1    1    2  503  504  0.23161838856E+02 -0.94527452746E+01 -0.18220018343E+02  0.30948251015E+02  0.00000000000E+00 0. -1.
         21    1    1    2  504  501 -0.23161838856E+02  0.94527452746E+01  0.79335407133E+01  0.26244356359E+02  0.00000000000E+00 0. -1.
<mgrwt>
<rscale>  2 0.25016498E+02</rscale>
<asrwt>0</asrwt>
<pdfrwt beam="1">  1       21 0.36081639E-02 0.25016498E+02</pdfrwt>
<pdfrwt beam="2">  1       21 0.51906988E-02 0.25016498E+02</pdfrwt>
<totfact> 0.82800551E+07</totfact>
</mgrwt>
</event>
<event>
 4    1  0.4578942E+006  0.2363701E+02  0.7546771E-02  0.1681388E+00
         21   -1    0    0  503  501  0.00000000000E+00  0.00000000000E+00  0.35388191390E+02  0.35388191390E+02  0.00000000000E+00 0.  1.
         21   -1    0    0  504  502 -0.00000000000E+00 -0.00000000000E+00 -0.18586430504E+02  0.18586430504E+02  0.00000000000E+00 0.  1.
         21    1    1    2  503  502 -0.13678667514E+02  0.19276992367E+02 -0.20708806711E+01  0.23727556268E+02  0.00000000000E+00 0.  1.
         21    1    1    2  504  501  0.13678667514E+02 -0.19276992367E+02  0.18872641557E+02  0.30247065626E+02  0.00000000000E+00 0.  1.
<mgrwt>
<rscale>  2 0.23637013E+02</rscale>
<asrwt>0</asrwt>
<pdfrwt beam="1">  1       21 0.54443371E-02 0.23637013E+02</pdfrwt>
<pdfrwt beam="2">  1       21 0.28594509E-02 0.23637013E+02</pdfrwt>
<totfact> 0.10867888E+08</totfact>
</mgrwt>
</event>
<event>
 4    1  0.4578942E+006  0.2167857E+02  0.7546771E-02  0.1713871E+00
         21   -1    0    0  503  501  0.00000000000E+00  0.00000000000E+00  0.94667159124E+03  0.94667159124E+03  0.00000000000E+00 0.  1.
         21   -1    0    0  504  502 -0.00000000000E+00 -0.00000000000E+00 -0.73460789814E+01  0.73460789814E+01  0.00000000000E+00 0. -1.
         21    1    1    2  503  502 -0.30134261774E+01 -0.21468104605E+02  0.93027199843E+03  0.93052455708E+03  0.00000000000E+00 0.  1.
         21    1    1    2  504  501  0.30134261774E+01  0.21468104605E+02  0.90535138251E+01  0.23493113145E+02  0.00000000000E+00 0. -1.
<mgrwt>
<rscale>  2 0.21678567E+02</rscale>
<asrwt>0</asrwt>
<pdfrwt beam="1">  1       21 0.14564169E+00 0.21678567E+02</pdfrwt>
<pdfrwt beam="2">  1       21 0.11301667E-02 0.21678567E+02</pdfrwt>
<totfact> 0.97266022E+05</totfact>
</mgrwt>
</event>
<event>
 4    1  0.4578942E+006  0.2281057E+02  0.7546771E-02  0.1694599E+00
         21   -1    0    0  503  501  0.00000000000E+00  0.00000000000E+00  0.15628396604E+02  0.15628396604E+02  0.00000000000E+00 0.  1.
         21   -1    0    0  504  502 -0.00000000000E+00 -0.00000000000E+00 -0.83053640753E+02  0.83053640753E+02  0.00000000000E+00 0.  1.
         21    1    1    2  503  502 -0.16631940769E+02 -0.15610912156E+02 -0.71904422291E+02  0.75435853393E+02  0.00000000000E+00 0.  1.
         21    1    1    2  504  501  0.16631940769E+02  0.15610912156E+02  0.44791781417E+01  0.23246183964E+02  0.00000000000E+00 0.  1.
<mgrwt>
<rscale>  2 0.22810568E+02</rscale>
<asrwt>0</asrwt>
<pdfrwt beam="1">  1       21 0.24043688E-02 0.22810568E+02</pdfrwt>
<pdfrwt beam="2">  1       21 0.12777483E-01 0.22810568E+02</pdfrwt>
<totfact> 0.34822888E+07</totfact>
</mgrwt>
</event>
<event>
 4    1  0.4578942E+006  0.2133126E+02  0.7546771E-02  0.1720081E+00
         21   -1    0    0  503  501  0.00000000000E+00  0.00000000000E+00  0.99740095523E+03  0.99740095523E+03  0.00000000000E+00 0. -1.
         21   -1    0    0  504  502 -0.00000000000E+00 -0.00000000000E+00 -0.28446558260E+01  0.28446558260E+01  0.00000000000E+00 0.  1.
         21    1    1    2  503  502 -0.28207312760E+01 -0.21143938989E+02  0.95554626188E+03  0.95578432780E+03  0.00000000000E+00 0. -1.
         21    1    1    2  504  501  0.28207312760E+01  0.21143938989E+02  0.39010037528E+02  0.44461283257E+02  0.00000000000E+00 0.  1.
<mgrwt>
<rscale>  2 0.21331261E+02</rscale>
<asrwt>0</asrwt>
<pdfrwt beam="1">  1       21 0.15344602E+00 0.21331261E+02</pdfrwt>
<pdfrwt beam="2">  1       21 0.43764015E-03 0.21331261E+02</pdfrwt>
<totfact> 0.35116451E+06</totfact>
</mgrwt>
</event>
<event>
 4    1  0.4578942E+006  0.2311072E+02  0.7546771E-02  0.1689722E+00
         21   -1    0    0  504  501  0.00000000000E+00  0.00000000000E+00  0.67645205615E+02  0.67645205615E+02  0.00000000000E+00 0. -1.
         21   -1    0    0  501  502 -0.00000000000E+00 -0.00000000000E+00 -0.10241197444E+02  0.10241197444E+02  0.00000000000E+00 0. -1.
         21    1    1    2  503  502  0.15709770970E+02  0.16950178478E+02  0.10065053513E+02  0.25207355208E+02  0.00000000000E+00 0. -1.
         21    1    1    2  504  503 -0.15709770970E+02 -0.16950178478E+02  0.47338954658E+02  0.52679047851E+02  0.00000000000E+00 0. -1.
<mgrwt>
<rscale>  2 0.23110722E+02</rscale>
<asrwt>0</asrwt>
<pdfrwt beam="1">  1       21 0.10406954E-01 0.23110722E+02</pdfrwt>
<pdfrwt beam="2">  1       21 0.15755689E-02 0.23110722E+02</pdfrwt>
<totfact> 0.94096363E+07</totfact>
</mgrwt>
</event>
<event>
 4    1  0.4578942E+006  0.2343473E+02  0.7546771E-02  0.1684559E+00
         21   -1    0    0  503  501  0.00000000000E+00  0.00000000000E+00  0.40488698642E+03  0.40488698642E+03  0.00000000000E+00 0.  1.
         21   -1    0    0  504  502 -0.00000000000E+00 -0.00000000000E+00 -0.13610894753E+01  0.13610894753E+01  0.00000000000E+00 0.  1.
         21    1    1    2  503  502 -0.17237311500E+02 -0.15876453875E+02  0.18983377913E+03  0.19127480334E+03  0.00000000000E+00 0.  1.
         21    1    1    2  504  501  0.17237311500E+02  0.15876453875E+02  0.21369211782E+03  0.21497327255E+03  0.00000000000E+00 0.  1.
<mgrwt>
<rscale>  2 0.23434733E+02</rscale>
<asrwt>0</asrwt>
<pdfrwt beam="1">  1       21 0.62290210E-01 0.23434733E+02</pdfrwt>
<pdfrwt beam="2">  1       21 0.20939870E-03 0.23434733E+02</pdfrwt>
<totfact> 0.74563941E+07</totfact>
</mgrwt>
</event>
<event>
 4    1  0.4578942E+006  0.2440875E+02  0.7546771E-02  0.1669642E+00
         21   -1    0    0  504  501  0.00000000000E+00  0.00000000000E+00  0.76409798823E+02  0.76409798823E+02  0.00000000000E+00 0.  1.
         21   -1    0    0  503  502 -0.00000000000E+00 -0.00000000000E+00 -0.12046034751E+02  0.12046034751E+02  0.00000000000E+00 0. -1.
         21    1    1    2  503  501  0.96917784920E+01 -0.22402152452E+02  0.58448631030E+02  0.63340583153E+02  0.00000000000E+00 0.  1.
         21    1    1    2  504  502 -0.96917784920E+01  0.22402152452E+02  0.59151330418E+01  0.25115250421E+02  0.00000000000E+00 0. -1.
<mgrwt>
<rscale>  2 0.24408749E+02</rscale>
<asrwt>0</asrwt>
<pdfrwt beam="1">  1       21 0.11755353E-01 0.24408749E+02</pdfrwt>
<pdfrwt beam="2">  1       21 0.18532362E-02 0.24408749E+02</pdfrwt>
<totfact> 0.60824884E+07</totfact>
</mgrwt>
</event>
<event>
 4    1  0.4578942E+006  0.2459320E+02  0.7546771E-02  0.1666915E+00
         21   -1    0    0  502  501  0.00000000000E+00  0.00000000000E+00  0.12678630303E+03  0.12678630303E+03  0.00000000000E+00 0.  1.
         21   -1    0    0  504  502 -0.00000000000E+00 -0.00000000000E+00 -0.95327569863E+01  0.95327569863E+01  0.00000000000E+00 0.  1.
         21    1    1    2  503  501 -0.20041217838E+01 -0.24511402231E+02  0.10680234440E+03  0.10959729063E+03  0.00000000000E+00 0.  1.
         21    1    1    2  504  503  0.20041217838E+01  0.24511402231E+02  0.10451201643E+02  0.26721769389E+02  0.00000000000E+00 0.  1.
<mgrwt>
<rscale>  2 0.24593197E+02</rscale>
<asrwt>0</asrwt>
<pdfrwt beam="1">  1       21 0.19505584E-01 0.24593197E+02</pdfrwt>
<pdfrwt beam="2">  1       21 0.14665781E-02 0.24593197E+02</pdfrwt>
<totfact> 0.36664013E+07</totfact>
</mgrwt>
</event>
<event>
 4    1  0.4578942E+006  0.2397626E+02  0.7546771E-02  0.1676157E+00
         21   -1    0    0  503  501  0.00000000000E+00  0.00000000000E+00  0.61262586786E+02  0.61262586786E+02  0.00000000000E+00 0.  1.
         21   -1    0    0  501  502 -0.00000000000E+00 -0.00000000000E+00 -0.25505415914E+02  0.25505415914E+02  0.00000000000E+00 0. -1.
         21    1    1    2  503  504  0.22224885310E+02  0.89953126556E+01  0.52370786873E+02  0.57598268155E+02  0.00000000000E+00 0.  1.
         21    1    1    2  504  502 -0.22224885310E+02 -0.89953126556E+01 -0.16613616000E+02  0.29169734545E+02  0.00000000000E+00 0. -1.
<mgrwt>
<rscale>  2 0.23976263E+02</rscale>
<asrwt>0</asrwt>
<pdfrwt beam="1">  1       21 0.94250133E-02 0.23976263E+02</pdfrwt>
<pdfrwt beam="2">  1       21 0.39239102E-02 0.23976263E+02</pdfrwt>
<totfact> 0.27249399E+07</totfact>
</mgrwt>
</event>
<event>
 4    1  0.4578942E+006  0.4574878E+02  0.7546771E-02  0.1469721E+00
         21   -1    0    0  502  501  0.00000000000E+00  0.00000000000E+00  0.93932887516E+01  0.93932887516E+01  0.00000000000E+00 0.  1.
         21   -1    0    0  503  502 -0.00000000000E+00 -0.00000000000E+00 -0.33115960038E+03  0.33115960038E+03  0.00000000000E+00 0. -1.
         21    1    1    2  503  504  0.45701066222E+02 -0.20887969676E+01 -0.25827952287E+03  0.26229994750E+03  0.00000000000E+00 0. -1.
         21    1    1    2  504  501 -0.45701066222E+02  0.20887969676E+01 -0.63486788760E+02  0.78252941629E+02  0.00000000000E+00 0.  1.
<mgrwt>
<rscale>  2 0.45748776E+02</rscale>
<asrwt>0</asrwt>
<pdfrwt beam="1">  1       21 0.14451214E-02 0.45748776E+02</pdfrwt>
<pdfrwt beam="2">  1       21 0.50947628E-01 0.45748776E+02</pdfrwt>
<totfact> 0.69385502E+06</totfact>
</mgrwt>
</event>
<event>
 4    1  0.4578942E+006  0.2421248E+02  0.7546771E-02  0.1672578E+00
         21   -1    0    0  504  501  0.00000000000E+00  0.00000000000E+00  0.17136668373E+03  0.17136668373E+03  0.00000000000E+00 0. -1.
         21   -1    0    0  503  502 -0.00000000000E+00 -0.00000000000E+00 -0.34235122649E+01  0.34235122649E+01  0.00000000000E+00 0. -1.
         21    1    1    2  503  501 -0.24085939121E+02 -0.24721604432E+01  0.86342855708E+02  0.89673478645E+02  0.00000000000E+00 0. -1.
         21    1    1    2  504  502  0.24085939121E+02  0.24721604432E+01  0.81600315754E+02  0.85116717346E+02  0.00000000000E+00 0. -1.
<mgrwt>
<rscale>  2 0.24212477E+02</rscale>
<asrwt>0</asrwt>
<pdfrwt beam="1">  1       21 0.26364099E-01 0.24212477E+02</pdfrwt>
<pdfrwt beam="2">  1       21 0.52669433E-03 0.24212477E+02</pdfrwt>
<totfact> 0.99547406E+07</totfact>
</mgrwt>
</event>
<event>
 4    1  0.4578942E+006  0.2859549E+02  0.7546771E-02  0.1614153E+00
         21   -1    0    0  503  501  0.00000000000E+00  0.00000000000E+00  0.71877872640E+03  0.71877872640E+03  0.00000000000E+00 0. -1.
         21   -1    0    0  501  502 -0.00000000000E+00 -0.00000000000E+00 -0.45704045566E+01  0.45704045566E+01  0.00000000000E+00 0. -1.
         21    1    1    2  503  504  0.18921786181E+02 -0.21439875614E+02  0.67055068795E+03  0.67116013541E+03  0.00000000000E+00 0. -1.
         21    1    1    2  504  502 -0.18921786181E+02  0.21439875614E+02  0.43657633896E+02  0.52188995546E+02  0.00000000000E+00 0. -1.
<mgrwt>
<rscale>  2 0.28595494E+02</rscale>
<asrwt>0</asrwt>
<pdfrwt beam="1">  1       21 0.11058125E+00 0.28595494E+02</pdfrwt>
<pdfrwt beam="2">  1       21 0.70313973E-03 0.28595494E+02</pdfrwt>
<totfact> 0.38316785E+06</totfact>
</mgrwt>
</event>
<event>
 4    1  0.4578942E+006  0.3872596E+02  0.7546771E-02  0.1517802E+00
         21   -1    0    0  504  501  0.00000000000E+00  0.00000000000E+00  0.80996284074E+02  0.80996284074E+02  0.00000000000E+00 0.  1.
         21   -1    0    0  503  502 -0.00000000000E+00 -0.00000000000E+00 -0.37971157535E+02  0.37971157535E+02  0.00000000000E+00 0.  1.
         21    1    1    2  503  501  0.34429454289E+02  0.17728863643E+02  0.64091257779E+02  0.74882502979E+02  0.00000000000E+00 0.  1.
         21    1    1    2  504  502 -0.34429454289E+02 -0.17728863643E+02 -0.21066131240E+02  0.44084938631E+02  0.00000000000E+00 0.  1.
<mgrwt>
<rscale>  2 0.38725959E+02</rscale>
<asrwt>0</asrwt>
<pdfrwt beam="1">  1       21 0.12460967E-01 0.38725959E+02</pdfrwt>
<pdfrwt beam="2">  1       21 0.58417165E-02 0.38725959E+02</pdfrwt>
<totfact> 0.98045252E+06</totfact>
</mgrwt>
</event>
<event>
 4    1  0.4578942E+006  0.2879180E+02  0.7546771E-02  0.1611841E+00
         21   -1    0    0  502  501  0.00000000000E+00  0.00000000000E+00  0.22422425691E+02  0.22422425691E+02  0.00000000000E+00 0.  1.
         21   -1    0    0  503  502 -0.00000000000E+00 -0.00000000000E+00 -0.25747951855E+03  0.25747951855E+03  0.00000000000E+00 0. -1.
         21    1    1    2  503  504  0.20219397651E+02  0.20497401977E+02 -0.24704286558E+03  0.24871498741E+03  0.00000000000E+00 0. -1.
         21    1    1    2  504  501 -0.20219397651E+02 -0.20497401977E+02  0.11985772714E+02  0.31186956836E+02  0.00000000000E+00 0.  1.
<mgrwt>
<rscale>  2 0.28791796E+02</rscale>
<asrwt>0</asrwt>
<pdfrwt beam="1">  1       21 0.34496038E-02 0.28791796E+02</pdfrwt>
<pdfrwt beam="2">  1       21 0.39612235E-01 0.28791796E+02</pdfrwt>
<totfact> 0.27616520E+06</totfact>
</mgrwt>
</event>
<event>
 4    1  0.4578942E+006  0.2723668E+02  0.7546771E-02  0.1630809E+00
         21   -1    0    0  504  501  0.00000000000E+00  0.00000000000E+00  0.13112540987E+04  0.13112540987E+04  0.00000000000E+00 0. -1.
         21   -1    0    0  503  502 -0.00000000000E+00 -0.00000000000E+00 -0.78394178586E+00  0.78394178586E+00  0.00000000000E+00 0. -1.
         21    1    1    2  503  501  0.16999246879E+02  0.21280557455E+02  0.10013321198E+04  0.10017024761E+04  0.00000000000E+00 0. -1.
         21    1    1    2  504  502 -0.16999246879E+02 -0.21280557455E+02  0.30913803713E+03  0.31033556438E+03  0.00000000000E+00 0. -1.
<mgrwt>
<rscale>  2 0.27236676E+02</rscale>
<asrwt>0</asrwt>
<pdfrwt beam="1">  1       21 0.20172964E+00 0.27236676E+02</pdfrwt>
<pdfrwt beam="2">  1       21 0.12060748E-03 0.27236676E+02</pdfrwt>
<totfact> 0.11862572E+07</totfact>
</mgrwt>
</event>
<event>
 4    1  0.4578942E+006  0.2703991E+02  0.7546771E-02  0.1633320E+00
         21   -1    0    0  504  501  0.00000000000E+00  0.00000000000E+00  0.60318280452E+01  0.60318280452E+01  0.00000000000E+00 0.  1.
         21   -1    0    0  501  502 -0.00000000000E+00 -0.00000000000E+00 -0.15218271399E+03  0.15218271399E+03  0.00000000000E+00 0.  1.
         21    1    1    2  503  502 -0.26357880418E+02  0.60348230256E+01 -0.10875980632E+03  0.11207074738E+03  0.00000000000E+00 0.  1.
         21    1    1    2  504  503  0.26357880418E+02 -0.60348230256E+01 -0.37391079630E+02  0.46143794653E+02  0.00000000000E+00 0.  1.
<mgrwt>
<rscale>  2 0.27039914E+02</rscale>
<asrwt>0</asrwt>
<pdfrwt beam="1">  1       21 0.92797358E-03 0.27039914E+02</pdfrwt>
<pdfrwt beam="2">  1       21 0.23412724E-01 0.27039914E+02</pdfrwt>
<totfact> 0.54291252E+07</totfact>
</mgrwt>
</event>
<event>
 4    1  0.4578942E+006  0.2535603E+02  0.7546771E-02  0.1655940E+00
         21   -1    0    0  504  501  0.00000000000E+00  0.00000000000E+00  0.18783106506E+01  0.18783106506E+01  0.00000000000E+00 0. -1.
         21   -1    0    0  503  502 -0.00000000000E+00 -0.00000000000E+00 -0.63111907743E+03  0.63111907743E+03  0.00000000000E+00 0.  1.
         21    1    1    2  503  501 -0.48248518798E+01  0.24892752690E+02 -0.52872999939E+03  0.52933764327E+03  0.00000000000E+00 0.  1.
         21    1    1    2  504  502  0.48248518798E+01 -0.24892752690E+02 -0.10051076739E+03  0.10365974481E+03  0.00000000000E+00 0. -1.
<mgrwt>
<rscale>  2 0.25356031E+02</rscale>
<asrwt>0</asrwt>
<pdfrwt beam="1">  1       21 0.28897103E-03 0.25356031E+02</pdfrwt>
<pdfrwt beam="2">  1       21 0.97095188E-01 0.25356031E+02</pdfrwt>
<totfact> 0.18734159E+07</totfact>
</mgrwt>
</event>
<event>
 4    1  0.4578942E+006  0.2639450E+02  0.7546771E-02  0.1641744E+00
         21   -1    0    0  503  501  0.00000000000E+00  0.00000000000E+00  0.13915665143E+02  0.13915665143E+02  0.00000000000E+00 0. -1.
         21   -1    0    0  504  502 -0.00000000000E+00 -0.00000000000E+00 -0.12157038519E+03  0.12157038519E+03  0.00000000000E+00 0.  1.
         21    1    1    2  503  502 -0.18859758125E+01  0.26327031110E+02 -0.10578196654E+03  0.10902519854E+03  0.00000000000E+00 0.  1.
         21    1    1    2  504  501  0.18859758125E+01 -0.26327031110E+02 -0.18727535062E+01  0.26460851792E+02  0.00000000000E+00 0. -1.
<mgrwt>
<rscale>  2 0.26394497E+02</rscale>
<asrwt>0</asrwt>
<pdfrwt beam="1">  1       21 0.21408715E-02 0.26394497E+02</pdfrwt>
<pdfrwt beam="2">  1       21 0.18703136E-01 0.26394497E+02</pdfrwt>
<totfact> 0.22417591E+07</totfact>
</mgrwt>
</event>
<event>
 4    1  0.4578942E+006  0.2274810E+02  0.7546771E-02  0.1695626E+00
         21   -1    0    0  503  501  0.00000000000E+00  0.00000000000E+00  0.45167591557E+03  0.45167591557E+03  0.00000000000E+00 0. -1.
         21   -1    0    0  501  502 -0.00000000000E+00 -0.00000000000E+00 -0.23472716315E+01  0.23472716315E+01  0.00000000000E+00 0. -1.
         21    1    1    2  503  504  0.14252449089E+02  0.17729742686E+02  0.38708630285E+03  0.38775415141E+03  0.00000000000E+00 0. -1.
         21    1    1    2  504  502 -0.14252449089E+02 -0.17729742686E+02  0.62242341090E+02  0.66269035795E+02  0.00000000000E+00 0. -1.
<mgrwt>
<rscale>  2 0.22748101E+02</rscale>
<asrwt>0</asrwt>
<pdfrwt beam="1">  1       21 0.69488533E-01 0.22748101E+02</pdfrwt>
<pdfrwt beam="2">  1       21 0.36111907E-03 0.22748101E+02</pdfrwt>
<totfact> 0.26852477E+07</totfact>
</mgrwt>
</event>
<event>
 4    1  0.4578942E+006  0.2100189E+02  0.7546771E-02  0.1726108E+00
         21   -1    0    0  503  501  0.00000000000E+00  0.00000000000E+00  0.11107674469E+04  0.11107674469E+04  0.00000000000E+00 0.  1.
         21   -1    0    0  504  502 -0.00000000000E+00 -0.00000000000E+00 -0.10203065118E+01  0.10203065118E+01  0.00000000000E+00 0. -1.
         21    1    1    2  503  502 -0.96926770156E+01  0.18631463834E+02  0.12041883497E+03  0.12223655447E+03  0.00000000000E+00 0. -1.
         21    1    1    2  504  501  0.96926770156E+01 -0.18631463834E+02  0.98932830537E+03  0.98955119890E+03  0.00000000000E+00 0.  1.
<mgrwt>
<rscale>  2 0.21001891E+02</rscale>
<asrwt>0</asrwt>
<pdfrwt beam="1">  1       21 0.17088633E+00 0.21001891E+02</pdfrwt>
<pdfrwt beam="2">  1       21 0.15697112E-03 0.21001891E+02</pdfrwt>
<totfact> 0.11950111E+07</totfact>
</mgrwt>
</event>
<event>
 4    1  0.4578942E+006  0.2349019E+02  0.7546771E-02  0.1683685E+00
         21   -1    0    0  502  501  0.00000000000E+00  0.00000000000E+00  0.11543276556E+02  0.11543276556E+02  0.00000000000E+00 0. -1.
         21   -1    0    0  504  502 -0.00000000000E+00 -0.00000000000E+00 -0.21926532756E+03  0.21926532756E+03  0.00000000000E+00 0. -1.
         21    1    1    2  503  501  0.17675656540E+02 -0.15471267628E+02 -0.18086911302E+01  0.23559718159E+02  0.00000000000E+00 0. -1.
         21    1    1    2  504  503 -0.17675656540E+02  0.15471267628E+02 -0.20591335987E+03  0.20724888596E+03  0.00000000000E+00 0. -1.
<mgrwt>
<rscale>  2 0.23490189E+02</rscale>
<asrwt>0</asrwt>
<pdfrwt beam="1">  1       21 0.17758885E-02 0.23490189E+02</pdfrwt>
<pdfrwt beam="2">  1       21 0.33733131E-01 0.23490189E+02</pdfrwt>
<totfact> 0.10155749E+07</totfact>
</mgrwt>
</event>
<event>
 4    1  0.4578942E+006  0.2348638E+02  0.7546771E-02  0.1683745E+00
         21   -1    0    0  504  501  0.00000000000E+00  0.00000000000E+00  0.22877302747E+02  0.22877302747E+02  0.00000000000E+00 0. -1.
         21   -1    0    0  503  502 -0.00000000000E+00 -0.00000000000E+00 -0.13302954682E+03  0.13302954682E+03  0.00000000000E+00 0. -1.
         21    1    1    2  503  501  0.15178844681E+02 -0.17922407639E+02 -0.12561210512E+03  0.12778893134E+03  0.00000000000E+00 0. -1.
         21    1    1    2  504  502 -0.15178844681E+02  0.17922407639E+02  0.15459861049E+02  0.28117918221E+02  0.00000000000E+00 0. -1.
<mgrwt>
<rscale>  2 0.23486379E+02</rscale>
<asrwt>0</asrwt>
<pdfrwt beam="1">  1       21 0.35195852E-02 0.23486379E+02</pdfrwt>
<pdfrwt beam="2">  1       21 0.20466083E-01 0.23486379E+02</pdfrwt>
<totfact> 0.86378816E+06</totfact>
</mgrwt>
</event>
<event>
 4    1  0.4578942E+006  0.4991062E+02  0.7546771E-02  0.1445824E+00
         21   -1    0    0  502  501  0.00000000000E+00  0.00000000000E+00  0.17967805355E+03  0.17967805355E+03  0.00000000000E+00 0. -1.
         21   -1    0    0  504  502 -0.00000000000E+00 -0.00000000000E+00 -0.34090828590E+02  0.34090828590E+02  0.00000000000E+00 0.  1.
         21    1    1    2  503  501 -0.33779571673E+02  0.36742492260E+02  0.15512374085E+03  0.16295534718E+03  0.00000000000E+00 0. -1.
         21    1    1    2  504  503  0.33779571673E+02 -0.36742492260E+02 -0.95365158885E+01  0.50813534960E+02  0.00000000000E+00 0.  1.
<mgrwt>
<rscale>  2 0.49910622E+02</rscale>
<asrwt>0</asrwt>
<pdfrwt beam="1">  1       21 0.27642777E-01 0.49910622E+02</pdfrwt>
<pdfrwt beam="2">  1       21 0.52447430E-02 0.49910622E+02</pdfrwt>
<totfact> 0.29119594E+06</totfact>
</mgrwt>
</event>
<event>
 4    1  0.4578942E+006  0.2263594E+02  0.7546771E-02  0.1697480E+00
         21   -1    0    0  503  501  0.00000000000E+00  0.00000000000E+00  0.15438606997E+02  0.15438606997E+02  0.00000000000E+00 0.  1.
         21   -1    0    0  501  502 -0.00000000000E+00 -0.00000000000E+00 -0.51788545693E+02  0.51788545693E+02  0.00000000000E+00 0.  1.
         21    1    1    2  503  504 -0.22635752557E+02 -0.91521338309E-01  0.19694041252E+01  0.22721448514E+02  0.00000000000E+00 0.  1.
         21    1    1    2  504  502  0.22635752557E+02  0.91521338309E-01 -0.38319342821E+02  0.44505704176E+02  0.00000000000E+00 0.  1.
<mgrwt>
<rscale>  2 0.22635938E+02</rscale>
<asrwt>0</asrwt>
<pdfrwt beam="1">  1       21 0.23751703E-02 0.22635938E+02</pdfrwt>
<pdfrwt beam="2">  1       21 0.79674686E-02 0.22635938E+02</pdfrwt>
<totfact> 0.77376238E+07</totfact>
</mgrwt>
</event>
<event>
 4    1  0.4578942E+006  0.2028277E+02  0.7546771E-02  0.1739763E+00
         21   -1    0    0  503  501  0.00000000000E+00  0.00000000000E+00  0.15570813052E+02  0.15570813052E+02  0.00000000000E+00 0. -1.
         21   -1    0    0  504  502 -0.00000000000E+00 -0.00000000000E+00 -0.24139947969E+03  0.24139947969E+03  0.00000000000E+00 0. -1.
         21    1    1    2  503  502 -0.30326513504E+00 -0.20280505963E+02 -0.23416457504E+03  0.23504135614E+03  0.00000000000E+00 0. -1.
         21    1    1    2  504  501  0.30326513504E+00  0.20280505963E+02  0.83359083989E+01  0.21928936606E+02  0.00000000000E+00 0. -1.
<mgrwt>
<rscale>  2 0.20282773E+02</rscale>
<asrwt>0</asrwt>
<pdfrwt beam="1">  1       21 0.23955100E-02 0.20282773E+02</pdfrwt>
<pdfrwt beam="2">  1       21 0.37138377E-01 0.20282773E+02</pdfrwt>
<totfact> 0.52349187E+06</totfact>
</mgrwt>
</event>
<event>
 4    1  0.4578942E+006  0.2269788E+02  0.7546771E-02  0.1696455E+00
         21   -1    0    0  502  501  0.00000000000E+00  0.00000000000E+00  0.17788661719E+04  0.17788661719E+04  0.00000000000E+00 0. -1.
         21   -1    0    0  504  502 -0.00000000000E+00 -0.00000000000E+00 -0.55471512972E+00  0.55471512972E+00  0.00000000000E+00 0. -1.
         21    1    1    2  503  501 -0.78064358620E+01  0.21313221098E+02  0.15042124876E+04  0.15043837282E+04  0.00000000000E+00 0. -1.
         21    1    1    2  504  503  0.78064358620E+01 -0.21313221098E+02  0.27409896915E+03  0.27503715881E+03  0.00000000000E+00 0. -1.
<mgrwt>
<rscale>  2 0.22697882E+02</rscale>
<asrwt>0</asrwt>
<pdfrwt beam="1">  1       21 0.27366715E+00 0.22697882E+02</pdfrwt>
<pdfrwt beam="2">  1       21 0.85342214E-04 0.22697882E+02</pdfrwt>
<totfact> 0.81569732E+06</totfact>
</mgrwt>
</event>
<event>
 4    1  0.4578942E+006  0.3074905E+02  0.7546771E-02  0.1589953E+00
         21   -1    0    0  502  501  0.00000000000E+00  0.00000000000E+00  0.10066734858E+03  0.10066734858E+03  0.00000000000E+00 0.  1.
         21   -1    0    0  504  502 -0.00000000000E+00 -0.00000000000E+00 -0.17565295466E+02  0.17565295466E+02  0.00000000000E+00 0.  1.
         21    1    1    2  503  501 -0.51638238274E+01  0.30312357242E+02  0.81875498125E+02  0.87459140582E+02  0.00000000000E+00 0.  1.
         21    1    1    2  504  503  0.51638238274E+01 -0.30312357242E+02  0.12265549857E+01  0.30773503460E+02  0.00000000000E+00 0.  1.
<mgrwt>
<rscale>  2 0.30749050E+02</rscale>
<asrwt>0</asrwt>
<pdfrwt beam="1">  1       21 0.15487284E-01 0.30749050E+02</pdfrwt>
<pdfrwt beam="2">  1       21 0.27023532E-02 0.30749050E+02</pdfrwt>
<totfact> 0.22302251E+07</totfact>
</mgrwt>
</event>
<event>
 4    1  0.4578942E+006  0.2173296E+02  0.7546771E-02  0.1712912E+00
         21   -1    0    0  502  501  0.00000000000E+00  0.00000000000E+00  0.14544275075E+01  0.14544275075E+01  0.00000000000E+00 0. -1.
         21   -1    0    0  504  502 -0.00000000000E+00 -0.00000000000E+00 -0.32679488257E+03  0.32679488257E+03  0.00000000000E+00 0.  1.
         21    1    1    2  503  501 -0.13707953172E+02 -0.16864563034E+02 -0.14967893051E+03  0.15124848331E+03  0.00000000000E+00 0. -1.
         21    1    1    2  504  503  0.13707953172E+02  0.16864563034E+02 -0.17566152455E+03  0.17700082676E+03  0.00000000000E+00 0.  1.
<mgrwt>
<rscale>  2 0.21732958E+02</rscale>
<asrwt>0</asrwt>
<pdfrwt beam="1">  1       21 0.22375811E-03 0.21732958E+02</pdfrwt>
<pdfrwt beam="2">  1       21 0.50276128E-01 0.21732958E+02</pdfrwt>
<totfact> 0.10149384E+08</totfact>
</mgrwt>
</event>
<event>
 4    1  0.4578942E+006  0.2303936E+02  0.7546771E-02  0.1690873E+00
         21   -1    0    0  504  501  0.00000000000E+00  0.00000000000E+00  0.21875523783E+01  0.21875523783E+01  0.00000000000E+00 0.  1.
         21   -1    0    0  503  502 -0.00000000000E+00 -0.00000000000E+00 -0.27230809973E+03  0.27230809973E+03  0.00000000000E+00 0.  1.
         21    1    1    2  503  501  0.13953522221E+02  0.18333333365E+02 -0.89766435593E+02  0.92675913018E+02  0.00000000000E+00 0.  1.
         21    1    1    2  504  502 -0.13953522221E+02 -0.18333333365E+02 -0.18035411176E+03  0.18181973909E+03  0.00000000000E+00 0.  1.
<mgrwt>
<rscale>  2 0.23039355E+02</rscale>
<asrwt>0</asrwt>
<pdfrwt beam="1">  1       21 0.33654645E-03 0.23039355E+02</pdfrwt>
<pdfrwt beam="2">  1       21 0.41893562E-01 0.23039355E+02</pdfrwt>
<totfact> 0.80802343E+07</totfact>
</mgrwt>
</event>
<event>
 4    1  0.4578942E+006  0.2306190E+02  0.7546771E-02  0.1690509E+00
         21   -1    0    0  503  501  0.00000000000E+00  0.00000000000E+00  0.26348120180E+03  0.26348120180E+03  0.00000000000E+00 0.  1.
         21   -1    0    0  504  502 -0.00000000000E+00 -0.00000000000E+00 -0.22609313806E+01  0.22609313806E+01  0.00000000000E+00 0.  1.
         21    1    1    2  503  502  0.88004897603E+01 -0.21316726519E+02  0.17411435262E+03  0.17563501712E+03  0.00000000000E+00 0.  1.
         21    1    1    2  504  501 -0.88004897603E+01  0.21316726519E+02  0.87105917795E+02  0.90107116059E+02  0.00000000000E+00 0.  1.
<mgrwt>
<rscale>  2 0.23061905E+02</rscale>
<asrwt>0</asrwt>
<pdfrwt beam="1">  1       21 0.40535545E-01 0.23061905E+02</pdfrwt>
<pdfrwt beam="2">  1       21 0.34783581E-03 0.23061905E+02</pdfrwt>
<totfact> 0.81972386E+07</totfact>
</mgrwt>
</event>
<event>
 4    1  0.4578942E+006  0.2411416E+02  0.7546771E-02  0.1674061E+00
         21   -1    0    0  502  501  0.00000000000E+00  0.00000000000E+00  0.20232454433E+02  0.20232454433E+02  0.00000000000E+00 0.  1.
         21   -1    0    0  503  502 -0.00000000000E+00 -0.00000000000E+00 -0.32291627330E+02  0.32291627330E+02  0.00000000000E+00 0.  1.
         21    1    1    2  503  504 -0.17245596761E+02  0.16854742254E+02 -0.14738426626E+02  0.28261531514E+02  0.00000000000E+00 0.  1.
         21    1    1    2  504  501  0.17245596761E+02 -0.16854742254E+02  0.26792537289E+01  0.24262550250E+02  0.00000000000E+00 0.  1.
<mgrwt>
<rscale>  2 0.24114165E+02</rscale>
<asrwt>0</asrwt>
<pdfrwt beam="1">  1       21 0.31126853E-02 0.24114165E+02</pdfrwt>
<pdfrwt beam="2">  1       21 0.49679426E-02 0.24114165E+02</pdfrwt>
<totfact> 0.11084754E+08</totfact>
</mgrwt>
</event>
<event>
 4    1  0.4578942E+006  0.2190716E+02  0.7546771E-02  0.1709863E+00
         21   -1    0    0  504  501  0.00000000000E+00  0.00000000000E+00  0.94663789521E+01  0.94663789521E+01  0.00000000000E+00 0. -1.
         21   -1    0    0  501  502 -0.00000000000E+00 -0.00000000000E+00 -0.22328660813E+03  0.22328660813E+03  0.00000000000E+00 0. -1.
         21    1    1    2  503  502 -0.20550372252E+02 -0.75898605479E+01 -0.20922536017E+03  0.21036914014E+03  0.00000000000E+00 0. -1.
         21    1    1    2  504  503  0.20550372252E+02  0.75898605479E+01 -0.45948690047E+01  0.22383846944E+02  0.00000000000E+00 0. -1.
<mgrwt>
<rscale>  2 0.21907163E+02</rscale>
<asrwt>0</asrwt>
<pdfrwt beam="1">  1       21 0.14563661E-02 0.21907163E+02</pdfrwt>
<pdfrwt beam="2">  1       21 0.34351783E-01 0.21907163E+02</pdfrwt>
<totfact> 0.13106520E+07</totfact>
</mgrwt>
</event>
<event>
 4    1  0.4578942E+006  0.2281445E+02  0.7546771E-02  0.1694536E+00
         21   -1    0    0  502  501  0.00000000000E+00  0.00000000000E+00  0.53136281242E+03  0.53136281242E+03  0.00000000000E+00 0.  1.
         21   -1    0    0  503  502 -0.00000000000E+00 -0.00000000000E+00 -0.22065918863E+01  0.22065918863E+01  0.00000000000E+00 0.  1.
         21    1    1    2  503  504  0.19116489167E+02  0.12452266801E+02  0.65635083423E+02  0.69487144729E+02  0.00000000000E+00 0.  1.
         21    1    1    2  504  501 -0.19116489167E+02 -0.12452266801E+02  0.46352113711E+03  0.46408225957E+03  0.00000000000E+00 0.  1.
<mgrwt>
<rscale>  2 0.22814450E+02</rscale>
<asrwt>0</asrwt>
<pdfrwt beam="1">  1       21 0.81748023E-01 0.22814450E+02</pdfrwt>
<pdfrwt beam="2">  1       21 0.33947610E-03 0.22814450E+02</pdfrwt>
<totfact> 0.20990984E+07</totfact>
</mgrwt>
</event>
<event>
 4    1  0.4578942E+006  0.2802065E+02  0.7546771E-02  0.1621058E+00
         21   -1    0    0  504  501  0.00000000000E+00  0.00000000000E+00  0.32200750909E+02  0.32200750909E+02  0.00000000000E+00 0. -1.
         21   -1    0    0  503  502 -0.00000000000E+00 -0.00000000000E+00 -0.12528919799E+03  0.12528919799E+03  0.00000000000E+00 0. -1.
         21    1    1    2  503  501  0.27953842211E+02  0.19337624308E+01  0.24124063461E+02  0.36974682816E+02  0.00000000000E+00 0. -1.
         21    1    1    2  504  502 -0.27953842211E+02 -0.19337624308E+01 -0.11721251054E+03  0.12051526608E+03  0.00000000000E+00 0. -1.
<mgrwt>
<rscale>  2 0.28020648E+02</rscale>
<asrwt>0</asrwt>
<pdfrwt beam="1">  1       21 0.49539617E-02 0.28020648E+02</pdfrwt>
<pdfrwt beam="2">  1       21 0.19275261E-01 0.28020648E+02</pdfrwt>
<totfact> 0.57431128E+06</totfact>
</mgrwt>
</event>
<event>
 4    1  0.4578942E+006  0.2398086E+02  0.7546771E-02  0.1676087E+00
         21   -1    0    0  503  501  0.00000000000E+00  0.00000000000E+00  0.94977756596E+00  0.94977756596E+00  0.00000000000E+00 0.  1.
         21   -1    0    0  501  502 -0.00000000000E+00 -0.00000000000E+00 -0.76349903856E+03  0.76349903856E+03  0.00000000000E+00 0.  1.
         21    1    1    2  503  504  0.21878723237E+02 -0.98184970355E+01 -0.20739277246E+03  0.20877462366E+03  0.00000000000E+00 0.  1.
         21    1    1    2  504  502 -0.21878723237E+02  0.98184970355E+01 -0.55515648853E+03  0.55567419247E+03  0.00000000000E+00 0.  1.
<mgrwt>
<rscale>  2 0.23980855E+02</rscale>
<asrwt>0</asrwt>
<pdfrwt beam="1">  1       21 0.14612010E-03 0.23980855E+02</pdfrwt>
<pdfrwt beam="2">  1       21 0.11746101E+00 0.23980855E+02</pdfrwt>
<totfact> 0.32605527E+07</totfact>
</mgrwt>
</event>
<event>
 4    1  0.4578942E+006  0.2509891E+02  0.7546771E-02  0.1659585E+00
         21   -1    0    0  504  501  0.00000000000E+00  0.00000000000E+00  0.91084401085E+03  0.91084401085E+03  0.00000000000E+00 0. -1.
         21   -1    0    0  501  502 -0.00000000000E+00 -0.00000000000E+00 -0.52871773422E+02  0.52871773422E+02  0.00000000000E+00 0. -1.
         21    1    1    2  503  502  0.14155389366E+02  0.20726318436E+02 -0.49709800698E+02  0.55686799239E+02  0.00000000000E+00 0. -1.
         21    1    1    2  504  503 -0.14155389366E+02 -0.20726318436E+02  0.90768203812E+03  0.90802898503E+03  0.00000000000E+00 0. -1.
<mgrwt>
<rscale>  2 0.25098911E+02</rscale>
<asrwt>0</asrwt>
<pdfrwt beam="1">  1       21 0.14012984E+00 0.25098911E+02</pdfrwt>
<pdfrwt beam="2">  1       21 0.81341196E-02 0.25098911E+02</pdfrwt>
<totfact> 0.48810337E+04</totfact>
</mgrwt>
</event>
<event>
 4    1  0.4578942E+006  0.2788364E+02  0.7546771E-02  0.1622734E+00
         21   -1    0    0  504  501  0.00000000000E+00  0.00000000000E+00  0.44542620667E+02  0.44542620667E+02  0.00000000000E+00 0.  1.
         21   -1    0    0  503  502 -0.00000000000E+00 -0.00000000000E+00 -0.40870642004E+02  0.40870642004E+02  0.00000000000E+00 0.  1.
         21    1    1    2  503  501  0.47971064000E+01  0.27467893113E+02  0.34161201542E+02  0.44096315863E+02  0.00000000000E+00 0.  1.
         21    1    1    2  504  502 -0.47971064000E+01 -0.27467893113E+02 -0.30489222878E+02  0.41316946809E+02  0.00000000000E+00 0.  1.
<mgrwt>
<rscale>  2 0.27883640E+02</rscale>
<asrwt>0</asrwt>
<pdfrwt beam="1">  1       21 0.68527109E-02 0.27883640E+02</pdfrwt>
<pdfrwt beam="2">  1       21 0.62877910E-02 0.27883640E+02</pdfrwt>
<totfact> 0.22329818E+07</totfact>
</mgrwt>
</event>
<event>
 4    1  0.4578942E+006  0.4135356E+02  0.7546771E-02  0.1498481E+00
         21   -1    0    0  503  501  0.00000000000E+00  0.00000000000E+00  0.24467548785E+03  0.24467548785E+03  0.00000000000E+00 0. -1.
         21   -1    0    0  501  502 -0.00000000000E+00 -0.00000000000E+00 -0.17962546686E+03  0.17962546686E+03  0.00000000000E+00 0. -1.
         21    1    1    2  503  504  0.26936322425E+02 -0.31377559799E+02  0.24050709089E+03  0.24403642657E+03  0.00000000000E+00 0. -1.
         21    1    1    2  504  502 -0.26936322425E+02  0.31377559799E+02 -0.17545706991E+03  0.18026452814E+03  0.00000000000E+00 0. -1.
<mgrwt>
<rscale>  2 0.41353558E+02</rscale>
<asrwt>0</asrwt>
<pdfrwt beam="1">  1       21 0.37642383E-01 0.41353558E+02</pdfrwt>
<pdfrwt beam="2">  1       21 0.27634687E-01 0.41353558E+02</pdfrwt>
<totfact> 0.91948732E+04</totfact>
</mgrwt>
</event>
<event>
 4    1  0.4578942E+006  0.2167017E+02  0.7546771E-02  0.1714019E+00
         21   -1    0    0  502  501  0.00000000000E+00  0.00000000000E+00  0.12523458947E+03  0.12523458947E+03  0.00000000000E+00 0. -1.
         21   -1    0    0  504  502 -0.00000000000E+00 -0.00000000000E+00 -0.55176233832E+01  0.55176233832E+01  0.00000000000E+00 0. -1.
         21    1    1    2  503  501  0.20506366360E+02  0.70060829460E+01  0.96864360379E+02  0.99258755640E+02  0.00000000000E+00 0. -1.
         21    1    1    2  504  503 -0.20506366360E+02 -0.70060829460E+01  0.22852605703E+02  0.31493457209E+02  0.00000000000E+00 0. -1.
<mgrwt>
<rscale>  2 0.21670170E+02</rscale>
<asrwt>0</asrwt>
<pdfrwt beam="1">  1       21 0.19266858E-01 0.21670170E+02</pdfrwt>
<pdfrwt beam="2">  1       21 0.84886523E-03 0.21670170E+02</pdfrwt>
<totfact> 0.82677415E+07</totfact>
</mgrwt>
</event>
<event>
 4    1  0.4578942E+006  0.2025279E+02  0.7546771E-02  0.1740347E+00
         21   -1    0    0  504  501  0.00000000000E+00  0.00000000000E+00  0.12053608288E+04  0.12053608288E+04  0.00000000000E+00 0. -1.
         21   -1    0    0  503  502 -0.00000000000E+00 -0.00000000000E+00 -0.10266363829E+01  0.10266363829E+01  0.00000000000E+00 0. -1.
         21    1    1    2  503  501  0.17903176118E+02 -0.94684558422E+01  0.10953628703E+04  0.10955500869E+04  0.00000000000E+00 0. -1.
         21    1    1    2  504  502 -0.17903176118E+02  0.94684558422E+01  0.10897132218E+03  0.11083737830E+03  0.00000000000E+00 0. -1.
<mgrwt>
<rscale>  2 0.20252787E+02</rscale>
<asrwt>0</asrwt>
<pdfrwt beam="1">  1       21 0.18543900E+00 0.20252787E+02</pdfrwt>
<pdfrwt beam="2">  1       21 0.15794502E-03 0.20252787E+02</pdfrwt>
<totfact> 0.96341004E+06</totfact>
</mgrwt>
</event>
<event>
 4    1  0.4578942E+006  0.2488551E+02  0.7546771E-02  0.1662652E+00
         21   -1    0    0  502  501  0.00000000000E+00  0.00000000000E+00  0.25550136828E+02  0.25550136828E+02  0.00000000000E+00 0.  1.
         21   -1    0    0  504  502 -0.00000000000E+00 -0.00000000000E+00 -0.30073859102E+02  0.30073859102E+02  0.00000000000E+00 0.  1.
         21    1    1    2  503  501 -0.16381520223E+02 -0.18733236891E+02  0.99894892175E+01  0.26815634695E+02  0.00000000000E+00 0.  1.
         21    1    1    2  504  503  0.16381520223E+02  0.18733236891E+02 -0.14513211491E+02  0.28808361235E+02  0.00000000000E+00 0.  1.
<mgrwt>
<rscale>  2 0.24885505E+02</rscale>
<asrwt>0</asrwt>
<pdfrwt beam="1">  1       21 0.39307903E-02 0.24885505E+02</pdfrwt>
<pdfrwt beam="2">  1       21 0.46267475E-02 0.24885505E+02</pdfrwt>
<totfact> 0.86795880E+07</totfact>
</mgrwt>
</event>
<event>
 4    1  0.4578942E+006  0.2937788E+02  0.7546771E-02  0.1605069E+00
         21   -1    0    0  504  501  0.00000000000E+00  0.00000000000E+00  0.37991098215E+02  0.37991098215E+02  0.00000000000E+00 0.  1.
         21   -1    0    0  503  502 -0.00000000000E+00 -0.00000000000E+00 -0.13611448284E+03  0.13611448284E+03  0.00000000000E+00 0. -1.
         21    1    1    2  503  501  0.21014213375E+02  0.20529560568E+02  0.30395171073E+02  0.42272052771E+02  0.00000000000E+00 0.  1.
         21    1    1    2  504  502 -0.21014213375E+02 -0.20529560568E+02 -0.12851855570E+03  0.13183352829E+03  0.00000000000E+00 0. -1.
<mgrwt>
<rscale>  2 0.29377883E+02</rscale>
<asrwt>0</asrwt>
<pdfrwt beam="1">  1       21 0.58447843E-02 0.29377883E+02</pdfrwt>
<pdfrwt beam="2">  1       21 0.20940690E-01 0.29377883E+02</pdfrwt>
<totfact> 0.38277431E+06</totfact>
</mgrwt>
</event>
<event>
 4    1  0.4578942E+006  0.2495192E+02  0.7546771E-02  0.1661694E+00
         21   -1    0    0  503  501  0.00000000000E+00  0.00000000000E+00  0.31843763572E+02  0.31843763572E+02  0.00000000000E+00 0.  1.
         21   -1    0    0  504  502 -0.00000000000E+00 -0.00000000000E+00 -0.26510115226E+02  0.26510115226E+02  0.00000000000E+00 0.  1.
         21    1    1    2  503  502 -0.50493485509E+01 -0.24435675340E+02 -0.12281435267E+02  0.27810641890E+02  0.00000000000E+00 0.  1.
         21    1    1    2  504  501  0.50493485509E+01  0.24435675340E+02  0.17615083612E+02  0.30543236908E+02  0.00000000000E+00 0.  1.
<mgrwt>
<rscale>  2 0.24951917E+02</rscale>
<asrwt>0</asrwt>
<pdfrwt beam="1">  1       21 0.48990405E-02 0.24951917E+02</pdfrwt>
<pdfrwt beam="2">  1       21 0.40784793E-02 0.24951917E+02</pdfrwt>
<totfact> 0.74800887E+07</totfact>
</mgrwt>
</event>
<event>
 4    1  0.4578942E+006  0.2031591E+02  0.7546771E-02  0.1739118E+00
         21   -1    0    0  503  501  0.00000000000E+00  0.00000000000E+00  0.50217026905E+01  0.50217026905E+01  0.00000000000E+00 0.  1.
         21   -1    0    0  501  502 -0.00000000000E+00 -0.00000000000E+00 -0.65675887778E+03  0.65675887778E+03  0.00000000000E+00 0.  1.
         21    1    1    2  503  504 -0.20315077251E+02 -0.18358497566E+00 -0.16374810259E+02  0.26093494940E+02  0.00000000000E+00 0.  1.
         21    1    1    2  504  502  0.20315077251E+02  0.18358497566E+00 -0.63536236483E+03  0.63568708553E+03  0.00000000000E+00 0.  1.
<mgrwt>
<rscale>  2 0.20315907E+02</rscale>
<asrwt>0</asrwt>
<pdfrwt beam="1">  1       21 0.77256948E-03 0.20315907E+02</pdfrwt>
<pdfrwt beam="2">  1       21 0.10103985E+00 0.20315907E+02</pdfrwt>
<totfact> 0.38965886E+06</totfact>
</mgrwt>
</event>
<event>
 4    1  0.4578942E+006  0.2699179E+02  0.7546771E-02  0.1633938E+00
         21   -1    0    0  503  501  0.00000000000E+00  0.00000000000E+00  0.64449056622E+03  0.64449056622E+03  0.00000000000E+00 0.  1.
         21   -1    0    0  501  502 -0.00000000000E+00 -0.00000000000E+00 -0.11930814553E+01  0.11930814553E+01  0.00000000000E+00 0.  1.
         21    1    1    2  503  504  0.23038602299E+02 -0.14063411004E+02  0.39562495084E+03  0.39654464875E+03  0.00000000000E+00 0.  1.
         21    1    1    2  504  502 -0.23038602299E+02  0.14063411004E+02  0.24767253392E+03  0.24913899892E+03  0.00000000000E+00 0.  1.
<mgrwt>
<rscale>  2 0.26991790E+02</rscale>
<asrwt>0</asrwt>
<pdfrwt beam="1">  1       21 0.99152116E-01 0.26991790E+02</pdfrwt>
<pdfrwt beam="2">  1       21 0.18355151E-03 0.26991790E+02</pdfrwt>
<totfact> 0.35016129E+07</totfact>
</mgrwt>
</event>
<event>
 4    1  0.4578942E+006  0.4228855E+02  0.7546771E-02  0.1492015E+00
         21   -1    0    0  504  501  0.00000000000E+00  0.00000000000E+00  0.15396516427E+03  0.15396516427E+03  0.00000000000E+00 0. -1.
         21   -1    0    0  503  502 -0.00000000000E+00 -0.00000000000E+00 -0.12490022150E+02  0.12490022150E+02  0.00000000000E+00 0. -1.
         21    1    1    2  503  501  0.17011769311E+01  0.42254317817E+02  0.48709854790E+02  0.64505591469E+02  0.00000000000E+00 0. -1.
         21    1    1    2  504  502 -0.17011769311E+01 -0.42254317817E+02  0.92765287330E+02  0.10194959495E+03  0.00000000000E+00 0. -1.
<mgrwt>
<rscale>  2 0.42288549E+02</rscale>
<asrwt>0</asrwt>
<pdfrwt beam="1">  1       21 0.23686947E-01 0.42288549E+02</pdfrwt>
<pdfrwt beam="2">  1       21 0.19215420E-02 0.42288549E+02</pdfrwt>
<totfact> 0.18915764E+07</totfact>
</mgrwt>
</event>
<event>
 4    1  0.4578942E+006  0.2097621E+02  0.7546771E-02  0.1726584E+00
         21   -1    0    0  503  501  0.00000000000E+00  0.00000000000E+00  0.17033662825E+03  0.17033662825E+03  0.00000000000E+00 0.  1.
         21   -1    0    0  504  502 -0.00000000000E+00 -0.00000000000E+00 -0.43376760553E+01  0.43376760553E+01  0.00000000000E+00 0.  1.
         21    1    1    2  503  502  0.20956793059E+02  0.90237665056E+00  0.13854550264E+03  0.14012443670E+03  0.00000000000E+00 0.  1.
         21    1    1    2  504  501 -0.20956793059E+02 -0.90237665056E+00  0.27453449547E+02  0.34549867597E+02  0.00000000000E+00 0.  1.
<mgrwt>
<rscale>  2 0.20976212E+02</rscale>
<asrwt>0</asrwt>
<pdfrwt beam="1">  1       21 0.26205630E-01 0.20976212E+02</pdfrwt>
<pdfrwt beam="2">  1       21 0.66733491E-03 0.20976212E+02</pdfrwt>
<totfact> 0.68228875E+07</totfact>
</mgrwt>
</event>
<event>
 4    1  0.4578942E+006  0.3756673E+02  0.7546771E-02  0.1526921E+00
         21   -1    0    0  503  501  0.00000000000E+00  0.00000000000E+00  0.22016467477E+02  0.22016467477E+02  0.00000000000E+00 0.  1.
         21   -1    0    0  504  502 -0.00000000000E+00 -0.00000000000E+00 -0.84752019435E+02  0.84752019435E+02  0.00000000000E+00 0.  1.
         21    1    1    2  503  502 -0.13621744704E+02 -0.35010101089E+02 -0.57720021971E+02  0.68868425591E+02  0.00000000000E+00 0.  1.
         21    1    1    2  504  501  0.13621744704E+02  0.35010101089E+02 -0.50155299868E+01  0.37900061320E+02  0.00000000000E+00 0.  1.
<mgrwt>
<rscale>  2 0.37566729E+02</rscale>
<asrwt>0</asrwt>
<pdfrwt beam="1">  1       21 0.33871488E-02 0.37566729E+02</pdfrwt>
<pdfrwt beam="2">  1       21 0.13038772E-01 0.37566729E+02</pdfrwt>
<totfact> 0.21752303E+07</totfact>
</mgrwt>
</event>
<event>
 4    1  0.4578942E+006  0.3342411E+02  0.7546771E-02  0.1563057E+00
         21   -1    0    0  503  501  0.00000000000E+00  0.00000000000E+00  0.10612769120E+02  0.10612769120E+02  0.00000000000E+00 0.  1.
         21   -1    0    0  504  502 -0.00000000000E+00 -0.00000000000E+00 -0.10530353030E+03  0.10530353030E+03  0.00000000000E+00 0.  1.
         21    1    1    2  503  502  0.12262865946E+02 -0.31093304144E+02 -0.48428935078E+02  0.58843293556E+02  0.00000000000E+00 0.  1.
         21    1    1    2  504  501 -0.12262865946E+02  0.31093304144E+02 -0.46261826098E+02  0.57073005859E+02  0.00000000000E+00 0.  1.
<mgrwt>
<rscale>  2 0.33424115E+02</rscale>
<asrwt>0</asrwt>
<pdfrwt beam="1">  1       21 0.16327338E-02 0.33424115E+02</pdfrwt>
<pdfrwt beam="2">  1       21 0.16200543E-01 0.33424115E+02</pdfrwt>
<totfact> 0.45904144E+07</totfact>
</mgrwt>
</event>
<event>
 4    1  0.4578942E+006  0.8051839E+02  0.7546771E-02  0.1327587E+00
         21   -1    0    0  504  501  0.00000000000E+00  0.00000000000E+00  0.82527603302E+02  0.82527603302E+02  0.00000000000E+00 0. -1.
         21   -1    0    0  503  502 -0.00000000000E+00 -0.00000000000E+00 -0.20614367159E+04  0.20614367159E+04  0.00000000000E+00 0.  1.
         21    1    1    2  503  501 -0.77389932981E+02 -0.22226311102E+02 -0.20408125480E+04  0.20424003199E+04  0.00000000000E+00 0.  1.
         21    1    1    2  504  502  0.77389932981E+02  0.22226311102E+02  0.61903435428E+02  0.10156399928E+03  0.00000000000E+00 0. -1.
<mgrwt>
<rscale>  2 0.80518387E+02</rscale>
<asrwt>0</asrwt>
<pdfrwt beam="1">  1       21 0.12696554E-01 0.80518387E+02</pdfrwt>
<pdfrwt beam="2">  1       21 0.31714412E+00 0.80518387E+02</pdfrwt>
<totfact> 0.18011180E+03</totfact>
</mgrwt>
</event>
<event>
 4    1  0.4578942E+006  0.2512768E+02  0.7546771E-02  0.1659175E+00
         21   -1    0    0  504  501  0.00000000000E+00  0.00000000000E+00  0.17992590328E+03  0.17992590328E+03  0.00000000000E+00 0.  1.
         21   -1    0    0  503  502 -0.00000000000E+00 -0.00000000000E+00 -0.82983901122E+01  0.82983901122E+01  0.00000000000E+00 0.  1.
         21    1    1    2  503  501  0.76990612723E+01 -0.23919134089E+02  0.14318266000E+02  0.28920810177E+02  0.00000000000E+00 0.  1.
         21    1    1    2  504  502 -0.76990612723E+01  0.23919134089E+02  0.15730924717E+03  0.15930348322E+03  0.00000000000E+00 0.  1.
<mgrwt>
<rscale>  2 0.25127684E+02</rscale>
<asrwt>0</asrwt>
<pdfrwt beam="1">  1       21 0.27680905E-01 0.25127684E+02</pdfrwt>
<pdfrwt beam="2">  1       21 0.12766755E-02 0.25127684E+02</pdfrwt>
<totfact> 0.24418532E+07</totfact>
</mgrwt>
</event>
<event>
 4    1  0.4578942E+006  0.2049160E+02  0.7546771E-02  0.1735725E+00
         21   -1    0    0  502  501  0.00000000000E+00  0.00000000000E+00  0.28802377883E+02  0.28802377883E+02  0.00000000000E+00 0.  1.
         21   -1    0    0  503  502 -0.00000000000E+00 -0.00000000000E+00 -0.16572192143E+02  0.16572192143E+02  0.00000000000E+00 0.  1.
         21    1    1    2  503  504  0.17477996391E+02 -0.10696973183E+02 -0.17532503565E+01  0.20566464935E+02  0.00000000000E+00 0.  1.
         21    1    1    2  504  501 -0.17477996391E+02  0.10696973183E+02  0.13983436096E+02  0.24808105091E+02  0.00000000000E+00 0.  1.
<mgrwt>
<rscale>  2 0.20491598E+02</rscale>
<asrwt>0</asrwt>
<pdfrwt beam="1">  1       21 0.44311350E-02 0.20491598E+02</pdfrwt>
<pdfrwt beam="2">  1       21 0.25495680E-02 0.20491598E+02</pdfrwt>
<totfact> 0.17236711E+08</totfact>
</mgrwt>
</event>
<event>
 4    1  0.4578942E+006  0.3187113E+02  0.7546771E-02  0.1578281E+00
         21   -1    0    0  503  501  0.00000000000E+00  0.00000000000E+00  0.11843096663E+02  0.11843096663E+02  0.00000000000E+00 0. -1.
         21   -1    0    0  504  502 -0.00000000000E+00 -0.00000000000E+00 -0.47439591902E+03  0.47439591902E+03  0.00000000000E+00 0.  1.
         21    1    1    2  503  502  0.11400531258E+02  0.29762336220E+02 -0.45132361782E+03  0.45244754036E+03  0.00000000000E+00 0.  1.
         21    1    1    2  504  501 -0.11400531258E+02 -0.29762336220E+02 -0.11229204533E+02  0.33791475326E+02  0.00000000000E+00 0. -1.
<mgrwt>
<rscale>  2 0.31871128E+02</rscale>
<asrwt>0</asrwt>
<pdfrwt beam="1">  1       21 0.18220152E-02 0.31871128E+02</pdfrwt>
<pdfrwt beam="2">  1       21 0.72983976E-01 0.31871128E+02</pdfrwt>
<totfact> 0.22408688E+06</totfact>
</mgrwt>
</event>
<event>
 4    1  0.4578942E+006  0.3802022E+02  0.7546771E-02  0.1523307E+00
         21   -1    0    0  504  501  0.00000000000E+00  0.00000000000E+00  0.29661207855E+02  0.29661207855E+02  0.00000000000E+00 0. -1.
         21   -1    0    0  503  502 -0.00000000000E+00 -0.00000000000E+00 -0.74009099669E+02  0.74009099669E+02  0.00000000000E+00 0. -1.
         21    1    1    2  503  501 -0.22749513420E+02 -0.30463038293E+02  0.81175156493E+01  0.38877128537E+02  0.00000000000E+00 0. -1.
         21    1    1    2  504  502  0.22749513420E+02  0.30463038293E+02 -0.52465407463E+02  0.64793178987E+02  0.00000000000E+00 0. -1.
<mgrwt>
<rscale>  2 0.38020219E+02</rscale>
<asrwt>0</asrwt>
<pdfrwt beam="1">  1       21 0.45632628E-02 0.38020219E+02</pdfrwt>
<pdfrwt beam="2">  1       21 0.11386015E-01 0.38020219E+02</pdfrwt>
<totfact> 0.17037421E+07</totfact>
</mgrwt>
</event>
<event>
 4    1  0.4578942E+006  0.2295155E+02  0.7546771E-02  0.1692297E+00
         21   -1    0    0  504  501  0.00000000000E+00  0.00000000000E+00  0.24433198589E+02  0.24433198589E+02  0.00000000000E+00 0.  1.
         21   -1    0    0  503  502 -0.00000000000E+00 -0.00000000000E+00 -0.41320081156E+02  0.41320081156E+02  0.00000000000E+00 0.  1.
         21    1    1    2  503  501  0.28193545984E+01 -0.22777732637E+02 -0.31178907054E+02  0.38715605504E+02  0.00000000000E+00 0.  1.
         21    1    1    2  504  502 -0.28193545984E+01  0.22777732637E+02  0.14292024487E+02  0.27037674241E+02  0.00000000000E+00 0.  1.
<mgrwt>
<rscale>  2 0.22951555E+02</rscale>
<asrwt>0</asrwt>
<pdfrwt beam="1">  1       21 0.37589537E-02 0.22951555E+02</pdfrwt>
<pdfrwt beam="2">  1       21 0.63569355E-02 0.22951555E+02</pdfrwt>
<totfact> 0.54803718E+07</totfact>
</mgrwt>
</event>
<event>
 4    1  0.4578942E+006  0.2182909E+02  0.7546771E-02  0.1711225E+00
         21   -1    0    0  503  501  0.00000000000E+00  0.00000000000E+00  0.89317115941E+00  0.89317115941E+00  0.00000000000E+00 0. -1.
         21   -1    0    0  501  502 -0.00000000000E+00 -0.00000000000E+00 -0.11878344627E+04  0.11878344627E+04  0.00000000000E+00 0. -1.
         21    1    1    2  503  504 -0.98584604000E+01 -0.19476141951E+02 -0.15233377479E+03  0.15388985766E+03  0.00000000000E+00 0. -1.
         21    1    1    2  504  502  0.98584604000E+01  0.19476141951E+02 -0.10346075168E+04  0.10348377762E+04  0.00000000000E+00 0. -1.
<mgrwt>
<rscale>  2 0.21829094E+02</rscale>
<asrwt>0</asrwt>
<pdfrwt beam="1">  1       21 0.13741101E-03 0.21829094E+02</pdfrwt>
<pdfrwt beam="2">  1       21 0.18274368E+00 0.21829094E+02</pdfrwt>
<totfact> 0.12325033E+07</totfact>
</mgrwt>
</event>
<event>
 4    1  0.4578942E+006  0.2425304E+02  0.7546771E-02  0.1671968E+00
         21   -1    0    0  504  501  0.00000000000E+00  0.00000000000E+00  0.54260191502E+03  0.54260191502E+03  0.00000000000E+00 0. -1.
         21   -1    0    0  503  502 -0.00000000000E+00 -0.00000000000E+00 -0.21239208015E+01  0.21239208015E+01  0.00000000000E+00 0.  1.
         21    1    1    2  503  501  0.21241631946E+02  0.11704829287E+02  0.79663260779E+02  0.83273315499E+02  0.00000000000E+00 0.  1.
         21    1    1    2  504  502 -0.21241631946E+02 -0.11704829287E+02  0.46081473344E+03  0.46145252033E+03  0.00000000000E+00 0. -1.
<mgrwt>
<rscale>  2 0.24253040E+02</rscale>
<asrwt>0</asrwt>
<pdfrwt beam="1">  1       21 0.83477107E-01 0.24253040E+02</pdfrwt>
<pdfrwt beam="2">  1       21 0.32675748E-03 0.24253040E+02</pdfrwt>
<totfact> 0.21489610E+07</totfact>
</mgrwt>
</event>
<event>
 4    1  0.4578942E+006  0.2079913E+02  0.7546771E-02  0.1729888E+00
         21   -1    0    0  503  501  0.00000000000E+00  0.00000000000E+00  0.64707818144E+02  0.64707818144E+02  0.00000000000E+00 0.  1.
         21   -1    0    0  504  502 -0.00000000000E+00 -0.00000000000E+00 -0.15409682297E+02  0.15409682297E+02  0.00000000000E+00 0.  1.
         21    1    1    2  503  502 -0.20795493195E+02 -0.38875950721E+00  0.54790445070E+02  0.58605430996E+02  0.00000000000E+00 0.  1.
         21    1    1    2  504  501  0.20795493195E+02  0.38875950721E+00 -0.54923092232E+01  0.21512069445E+02  0.00000000000E+00 0.  1.
<mgrwt>
<rscale>  2 0.20799127E+02</rscale>
<asrwt>0</asrwt>
<pdfrwt beam="1">  1       21 0.99550488E-02 0.20799127E+02</pdfrwt>
<pdfrwt beam="2">  1       21 0.23707204E-02 0.20799127E+02</pdfrwt>
<totfact> 0.52650976E+07</totfact>
</mgrwt>
</event>
<event>
 4    1  0.4578942E+006  0.2504920E+02  0.7546771E-02  0.1660296E+00
         21   -1    0    0  502  501  0.00000000000E+00  0.00000000000E+00  0.26466274641E+02  0.26466274641E+02  0.00000000000E+00 0. -1.
         21   -1    0    0  504  502 -0.00000000000E+00 -0.00000000000E+00 -0.98746255747E+03  0.98746255747E+03  0.00000000000E+00 0. -1.
         21    1    1    2  503  501 -0.18838315689E+02  0.16509998379E+02  0.20343445810E+02  0.32269458810E+02  0.00000000000E+00 0. -1.
         21    1    1    2  504  503  0.18838315689E+02 -0.16509998379E+02 -0.98133972864E+03  0.98165937330E+03  0.00000000000E+00 0. -1.
<mgrwt>
<rscale>  2 0.25049195E+02</rscale>
<asrwt>0</asrwt>
<pdfrwt beam="1">  1       21 0.40717352E-02 0.25049195E+02</pdfrwt>
<pdfrwt beam="2">  1       21 0.15191729E+00 0.25049195E+02</pdfrwt>
<totfact> 0.12275975E+05</totfact>
</mgrwt>
</event>
<event>
 4    1  0.4578942E+006  0.2004324E+02  0.7546771E-02  0.1744470E+00
         21   -1    0    0  504  501  0.00000000000E+00  0.00000000000E+00  0.54660509706E+01  0.54660509706E+01  0.00000000000E+00 0.  1.
         21   -1    0    0  503  502 -0.00000000000E+00 -0.00000000000E+00 -0.10218121232E+03  0.10218121232E+03  0.00000000000E+00 0.  1.
         21    1    1    2  503  501  0.16115007259E+02 -0.11917966812E+02 -0.76875548217E+02  0.79445461202E+02  0.00000000000E+00 0.  1.
         21    1    1    2  504  502 -0.16115007259E+02  0.11917966812E+02 -0.19839613136E+02  0.28201802093E+02  0.00000000000E+00 0.  1.
<mgrwt>
<rscale>  2 0.20043238E+02</rscale>
<asrwt>0</asrwt>
<pdfrwt beam="1">  1       21 0.84093094E-03 0.20043238E+02</pdfrwt>
<pdfrwt beam="2">  1       21 0.15720186E-01 0.20043238E+02</pdfrwt>
<totfact> 0.11624382E+08</totfact>
</mgrwt>
</event>
<event>
 4    1  0.4578942E+006  0.2704192E+02  0.7546771E-02  0.1633294E+00
         21   -1    0    0  503  501  0.00000000000E+00  0.00000000000E+00  0.78246228706E+01  0.78246228706E+01  0.00000000000E+00 0. -1.
         21   -1    0    0  504  502 -0.00000000000E+00 -0.00000000000E+00 -0.17120777658E+03  0.17120777658E+03  0.00000000000E+00 0. -1.
         21    1    1    2  503  502  0.26283023929E+02 -0.63614552693E+01 -0.21367265226E+02  0.34464844163E+02  0.00000000000E+00 0. -1.
         21    1    1    2  504  501 -0.26283023929E+02  0.63614552693E+01 -0.14201588848E+03  0.14456755529E+03  0.00000000000E+00 0. -1.
<mgrwt>
<rscale>  2 0.27041920E+02</rscale>
<asrwt>0</asrwt>
<pdfrwt beam="1">  1       21 0.12037880E-02 0.27041920E+02</pdfrwt>
<pdfrwt beam="2">  1       21 0.26339660E-01 0.27041920E+02</pdfrwt>
<totfact> 0.29648154E+07</totfact>
</mgrwt>
</event>
<event>
 4    1  0.4578942E+006  0.2266999E+02  0.7546771E-02  0.1696916E+00
         21   -1    0    0  504  501  0.00000000000E+00  0.00000000000E+00  0.12039468486E+03  0.12039468486E+03  0.00000000000E+00 0.  1.
         21   -1    0    0  503  502 -0.00000000000E+00 -0.00000000000E+00 -0.26083454509E+02  0.26083454509E+02  0.00000000000E+00 0. -1.
         21    1    1    2  503  501  0.11126441498E+02 -0.19751728704E+02 -0.19822890606E+02  0.30114373299E+02  0.00000000000E+00 0. -1.
         21    1    1    2  504  502 -0.11126441498E+02  0.19751728704E+02  0.11413412096E+03  0.11636376607E+03  0.00000000000E+00 0.  1.
<mgrwt>
<rscale>  2 0.22669991E+02</rscale>
<asrwt>0</asrwt>
<pdfrwt beam="1">  1       21 0.18522259E-01 0.22669991E+02</pdfrwt>
<pdfrwt beam="2">  1       21 0.40128392E-02 0.22669991E+02</pdfrwt>
<totfact> 0.83075845E+06</totfact>
</mgrwt>
</event>
<event>
 4    1  0.4578942E+006  0.2329287E+02  0.7546771E-02  0.1686806E+00
         21   -1    0    0  502  501  0.00000000000E+00  0.00000000000E+00  0.15475631900E+04  0.15475631900E+04  0.00000000000E+00 0. -1.
         21   -1    0    0  504  502 -0.00000000000E+00 -0.00000000000E+00 -0.38256156062E+01  0.38256156062E+01  0.00000000000E+00 0. -1.
         21    1    1    2  503  501  0.85250478262E+01  0.21676745694E+02  0.15111660450E+04  0.15113455506E+04  0.00000000000E+00 0. -1.
         21    1    1    2  504  503 -0.85250478262E+01 -0.21676745694E+02  0.32571529364E+02  0.40043254981E+02  0.00000000000E+00 0. -1.
<mgrwt>
<rscale>  2 0.23292869E+02</rscale>
<asrwt>0</asrwt>
<pdfrwt beam="1">  1       21 0.23808614E+00 0.23292869E+02</pdfrwt>
<pdfrwt beam="2">  1       21 0.58855748E-03 0.23292869E+02</pdfrwt>
<totfact> 0.74637569E+05</totfact>
</mgrwt>
</event>
<event>
 4    1  0.4578942E+006  0.2151385E+02  0.7546771E-02  0.1716798E+00
         21   -1    0    0  502  501  0.00000000000E+00  0.00000000000E+00  0.87477045746E+03  0.87477045746E+03  0.00000000000E+00 0.  1.
         21   -1    0    0  503  502 -0.00000000000E+00 -0.00000000000E+00 -0.31076335089E+01  0.31076335089E+01  0.00000000000E+00 0.  1.
         21    1    1    2  503  504  0.14700558514E+02 -0.15707933578E+02  0.36001511425E+02  0.41939890591E+02  0.00000000000E+00 0.  1.
         21    1    1    2  504  501 -0.14700558514E+02  0.15707933578E+02  0.83566131252E+03  0.83593820037E+03  0.00000000000E+00 0.  1.
<mgrwt>
<rscale>  2 0.21513847E+02</rscale>
<asrwt>0</asrwt>
<pdfrwt beam="1">  1       21 0.13457987E+00 0.21513847E+02</pdfrwt>
<pdfrwt beam="2">  1       21 0.47809816E-03 0.21513847E+02</pdfrwt>
<totfact> 0.41961301E+06</totfact>
</mgrwt>
</event>
<event>
 4    1  0.4578942E+006  0.4197014E+02  0.7546771E-02  0.1494194E+00
         21   -1    0    0  504  501  0.00000000000E+00  0.00000000000E+00  0.75105664220E+02  0.75105664220E+02  0.00000000000E+00 0.  1.
         21   -1    0    0  503  502 -0.00000000000E+00 -0.00000000000E+00 -0.46829730613E+02  0.46829730613E+02  0.00000000000E+00 0. -1.
         21    1    1    2  503  501 -0.41764224529E+02  0.41523874128E+01  0.57213032474E+02  0.70956492702E+02  0.00000000000E+00 0.  1.
         21    1    1    2  504  502  0.41764224529E+02 -0.41523874128E+01 -0.28937098867E+02  0.50978902132E+02  0.00000000000E+00 0. -1.
<mgrwt>
<rscale>  2 0.41970141E+02</rscale>
<asrwt>0</asrwt>
<pdfrwt beam="1">  1       21 0.11554718E-01 0.41970141E+02</pdfrwt>
<pdfrwt beam="2">  1       21 0.72045740E-02 0.41970141E+02</pdfrwt>
<totfact> 0.79841149E+06</totfact>
</mgrwt>
</event>
<event>
 4    1  0.4578942E+006  0.2772991E+02  0.7546771E-02  0.1624628E+00
         21   -1    0    0  502  501  0.00000000000E+00  0.00000000000E+00  0.40361358421E+02  0.40361358421E+02  0.00000000000E+00 0. -1.
         21   -1    0    0  504  502 -0.00000000000E+00 -0.00000000000E+00 -0.24662104101E+02  0.24662104101E+02  0.00000000000E+00 0. -1.
         21    1    1    2  503  501  0.24273126636E+02  0.13407578879E+02  0.23356583289E+02  0.36255728251E+02  0.00000000000E+00 0. -1.
         21    1    1    2  504  503 -0.24273126636E+02 -0.13407578879E+02 -0.76573289686E+01  0.28767734270E+02  0.00000000000E+00 0. -1.
<mgrwt>
<rscale>  2 0.27729909E+02</rscale>
<asrwt>0</asrwt>
<pdfrwt beam="1">  1       21 0.62094397E-02 0.27729909E+02</pdfrwt>
<pdfrwt beam="2">  1       21 0.37941699E-02 0.27729909E+02</pdfrwt>
<totfact> 0.58806853E+07</totfact>
</mgrwt>
</event>
<event>
 4    1  0.4578942E+006  0.2545496E+02  0.7546771E-02  0.1654552E+00
         21   -1    0    0  502  501  0.00000000000E+00  0.00000000000E+00  0.12469546532E+03  0.12469546532E+03  0.00000000000E+00 0. -1.
         21   -1    0    0  503  502 -0.00000000000E+00 -0.00000000000E+00 -0.20588463867E+03  0.20588463867E+03  0.00000000000E+00 0.  1.
         21    1    1    2  503  504 -0.22457990249E+02  0.11983056676E+02 -0.20378544008E+03  0.20536908375E+03  0.00000000000E+00 0.  1.
         21    1    1    2  504  501  0.22457990249E+02 -0.11983056676E+02  0.12259626673E+03  0.12521102024E+03  0.00000000000E+00 0. -1.
<mgrwt>
<rscale>  2 0.25454960E+02</rscale>
<asrwt>0</asrwt>
<pdfrwt beam="1">  1       21 0.19183918E-01 0.25454960E+02</pdfrwt>
<pdfrwt beam="2">  1       21 0.31674559E-01 0.25454960E+02</pdfrwt>
<totfact> 0.24497468E+05</totfact>
</mgrwt>
</event>
<event>
 4    1  0.4578942E+006  0.2675302E+02  0.7546771E-02  0.1637028E+00
         21   -1    0    0  503  501  0.00000000000E+00  0.00000000000E+00  0.39491056198E+02  0.39491056198E+02  0.00000000000E+00 0.  1.
         21   -1    0    0  504  502 -0.00000000000E+00 -0.00000000000E+00 -0.15358842162E+03  0.15358842162E+03  0.00000000000E+00 0.  1.
         21    1    1    2  503  502 -0.16283738153E+02  0.21226491591E+02  0.33616383902E+02  0.42962603973E+02  0.00000000000E+00 0.  1.
         21    1    1    2  504  501  0.16283738153E+02 -0.21226491591E+02 -0.14771374932E+03  0.15011687384E+03  0.00000000000E+00 0.  1.
<mgrwt>
<rscale>  2 0.26753020E+02</rscale>
<asrwt>0</asrwt>
<pdfrwt beam="1">  1       21 0.60755472E-02 0.26753020E+02</pdfrwt>
<pdfrwt beam="2">  1       21 0.23628988E-01 0.26753020E+02</pdfrwt>
<totfact> 0.28660163E+06</totfact>
</mgrwt>
</event>
<event>
 4    1  0.4578942E+006  0.2126410E+02  0.7546771E-02  0.1721299E+00
         21   -1    0    0  502  501  0.00000000000E+00  0.00000000000E+00  0.39307916048E+02  0.39307916048E+02  0.00000000000E+00 0. -1.
         21   -1    0    0  504  502 -0.00000000000E+00 -0.00000000000E+00 -0.13736751578E+02  0.13736751578E+02  0.00000000000E+00 0. -1.
         21    1    1    2  503  501 -0.11488918786E+02  0.17893199118E+02  0.23480564036E+02  0.31678047872E+02  0.00000000000E+00 0. -1.
         21    1    1    2  504  503  0.11488918786E+02 -0.17893199118E+02  0.20906004333E+01  0.21366619754E+02  0.00000000000E+00 0. -1.
<mgrwt>
<rscale>  2 0.21264097E+02</rscale>
<asrwt>0</asrwt>
<pdfrwt beam="1">  1       21 0.60473716E-02 0.21264097E+02</pdfrwt>
<pdfrwt beam="2">  1       21 0.21133464E-02 0.21264097E+02</pdfrwt>
<totfact> 0.14196310E+08</totfact>
</mgrwt>
</event>
<event>
 4    1  0.4578942E+006  0.2030135E+02  0.7546771E-02  0.1739401E+00
         21   -1    0    0  504  501  0.00000000000E+00  0.00000000000E+00  0.56896352898E+02  0.56896352898E+02  0.00000000000E+00 0.  1.
         21   -1    0    0  501  502 -0.00000000000E+00 -0.00000000000E+00 -0.26131815214E+02  0.26131815214E+02  0.00000000000E+00 0. -1.
         21    1    1    2  503  502  0.18472561560E+02  0.84207743434E+01 -0.19911984663E+02  0.28436457310E+02  0.00000000000E+00 0. -1.
         21    1    1    2  504  503 -0.18472561560E+02 -0.84207743434E+01  0.50676522347E+02  0.54591710803E+02  0.00000000000E+00 0.  1.
<mgrwt>
<rscale>  2 0.20301354E+02</rscale>
<asrwt>0</asrwt>
<pdfrwt beam="1">  1       21 0.87532851E-02 0.20301354E+02</pdfrwt>
<pdfrwt beam="2">  1       21 0.40202793E-02 0.20301354E+02</pdfrwt>
<totfact> 0.28460269E+07</totfact>
</mgrwt>
</event>
<event>
 4    1  0.4578942E+006  0.2111360E+02  0.7546771E-02  0.1724049E+00
         21   -1    0    0  502  501  0.00000000000E+00  0.00000000000E+00  0.43041944812E+01  0.43041944812E+01  0.00000000000E+00 0.  1.
         21   -1    0    0  503  502 -0.00000000000E+00 -0.00000000000E+00 -0.84063542662E+03  0.84063542662E+03  0.00000000000E+00 0.  1.
         21    1    1    2  503  504  0.20852402291E+02  0.33108042182E+01 -0.81375528940E+03  0.81402914882E+03  0.00000000000E+00 0.  1.
         21    1    1    2  504  501 -0.20852402291E+02 -0.33108042182E+01 -0.22575942733E+02  0.30910472273E+02  0.00000000000E+00 0.  1.
<mgrwt>
<rscale>  2 0.21113600E+02</rscale>
<asrwt>0</asrwt>
<pdfrwt beam="1">  1       21 0.66218396E-03 0.21113600E+02</pdfrwt>
<pdfrwt beam="2">  1       21 0.12932849E+00 0.21113600E+02</pdfrwt>
<totfact> 0.28365983E+06</totfact>
</mgrwt>
</event>
<event>
 4    1  0.4578942E+006  0.3903524E+02  0.7546771E-02  0.1515434E+00
         21   -1    0    0  504  501  0.00000000000E+00  0.00000000000E+00  0.22584400990E+03  0.22584400990E+03  0.00000000000E+00 0. -1.
         21   -1    0    0  503  502 -0.00000000000E+00 -0.00000000000E+00 -0.71513200395E+01  0.71513200395E+01  0.00000000000E+00 0.  1.
         21    1    1    2  503  501 -0.35497386620E+02 -0.16238390244E+02  0.81642902821E+02  0.90494825021E+02  0.00000000000E+00 0.  1.
         21    1    1    2  504  502  0.35497386620E+02  0.16238390244E+02  0.13704978704E+03  0.14250050492E+03  0.00000000000E+00 0. -1.
<mgrwt>
<rscale>  2 0.39035238E+02</rscale>
<asrwt>0</asrwt>
<pdfrwt beam="1">  1       21 0.34745227E-01 0.39035238E+02</pdfrwt>
<pdfrwt beam="2">  1       21 0.11002033E-02 0.39035238E+02</pdfrwt>
<totfact> 0.21786860E+07</totfact>
</mgrwt>
</event>
<event>
 4    1  0.4578942E+006  0.2304583E+02  0.7546771E-02  0.1690768E+00
         21   -1    0    0  504  501  0.00000000000E+00  0.00000000000E+00  0.18389968869E+02  0.18389968869E+02  0.00000000000E+00 0.  1.
         21   -1    0    0  503  502 -0.00000000000E+00 -0.00000000000E+00 -0.36626684082E+02  0.36626684082E+02  0.00000000000E+00 0.  1.
         21    1    1    2  503  501 -0.54900967095E+01 -0.22382343760E+02 -0.21768949134E+02  0.31701697439E+02  0.00000000000E+00 0.  1.
         21    1    1    2  504  502  0.54900967095E+01  0.22382343760E+02  0.35322339213E+01  0.23314955513E+02  0.00000000000E+00 0.  1.
<mgrwt>
<rscale>  2 0.23045834E+02</rscale>
<asrwt>0</asrwt>
<pdfrwt beam="1">  1       21 0.28292260E-02 0.23045834E+02</pdfrwt>
<pdfrwt beam="2">  1       21 0.56348744E-02 0.23045834E+02</pdfrwt>
<totfact> 0.10380474E+08</totfact>
</mgrwt>
</event>
<event>
 4    1  0.4578942E+006  0.2404389E+02  0.7546771E-02  0.1675127E+00
         21   -1    0    0  504  501  0.00000000000E+00  0.00000000000E+00  0.14158795800E+03  0.14158795800E+03  0.00000000000E+00 0.  1.
         21   -1    0    0  503  502 -0.00000000000E+00 -0.00000000000E+00 -0.10119794470E+03  0.10119794470E+03  0.00000000000E+00 0. -1.
         21    1    1    2  503  501 -0.16870556971E+02  0.17131629129E+02 -0.98723810936E+02  0.10160954313E+03  0.00000000000E+00 0. -1.
         21    1    1    2  504  502  0.16870556971E+02 -0.17131629129E+02  0.13911382424E+03  0.14117635958E+03  0.00000000000E+00 0.  1.
<mgrwt>
<rscale>  2 0.24043885E+02</rscale>
<asrwt>0</asrwt>
<pdfrwt beam="1">  1       21 0.21782763E-01 0.24043885E+02</pdfrwt>
<pdfrwt beam="2">  1       21 0.15568915E-01 0.24043885E+02</pdfrwt>
<totfact> 0.68708871E+05</totfact>
</mgrwt>
</event>
<event>
 4    1  0.4578942E+006  0.3610027E+02  0.7546771E-02  0.1539041E+00
         21   -1    0    0  504  501  0.00000000000E+00  0.00000000000E+00  0.37571394274E+03  0.37571394274E+03  0.00000000000E+00 0. -1.
         21   -1    0    0  501  502 -0.00000000000E+00 -0.00000000000E+00 -0.96526747182E+01  0.96526747182E+01  0.00000000000E+00 0. -1.
         21    1    1    2  503  502  0.35458033156E+02  0.67791756241E+01  0.28805551565E+02  0.46184295365E+02  0.00000000000E+00 0. -1.
         21    1    1    2  504  503 -0.35458033156E+02 -0.67791756241E+01  0.33725571646E+03  0.33918232209E+03  0.00000000000E+00 0. -1.
<mgrwt>
<rscale>  2 0.36100268E+02</rscale>
<asrwt>0</asrwt>
<pdfrwt beam="1">  1       21 0.57802134E-01 0.36100268E+02</pdfrwt>
<pdfrwt beam="2">  1       21 0.14850272E-02 0.36100268E+02</pdfrwt>
<totfact> 0.50306364E+06</totfact>
</mgrwt>
</event>
<event>
 4    1  0.4578942E+006  0.2851951E+02  0.7546771E-02  0.1615055E+00
         21   -1    0    0  503  501  0.00000000000E+00  0.00000000000E+00  0.12985856043E+04  0.12985856043E+04  0.00000000000E+00 0. -1.
         21   -1    0    0  504  502 -0.00000000000E+00 -0.00000000000E+00 -0.35915482467E+02  0.35915482467E+02  0.00000000000E+00 0. -1.
         21    1    1    2  503  502 -0.12211058007E+01  0.28493352414E+02 -0.30071665337E+02  0.41444749816E+02  0.00000000000E+00 0. -1.
         21    1    1    2  504  501  0.12211058007E+01 -0.28493352414E+02  0.12927417872E+04  0.12930563370E+04  0.00000000000E+00 0. -1.
<mgrwt>
<rscale>  2 0.28519506E+02</rscale>
<asrwt>0</asrwt>
<pdfrwt beam="1">  1       21 0.19978237E+00 0.28519506E+02</pdfrwt>
<pdfrwt beam="2">  1       21 0.55254598E-02 0.28519506E+02</pdfrwt>
<totfact> 0.37787493E+04</totfact>
</mgrwt>
</event>
<event>
 4    1  0.4578942E+006  0.3002970E+02  0.7546771E-02  0.1597761E+00
         21   -1    0    0  503  501  0.00000000000E+00  0.00000000000E+00  0.71669000384E+03  0.71669000384E+03  0.00000000000E+00 0. -1.
         21   -1    0    0  501  502 -0.00000000000E+00 -0.00000000000E+00 -0.43792545356E+03  0.43792545356E+03  0.00000000000E+00 0.  1.
         21    1    1    2  503  504 -0.29169505594E+02 -0.71360178198E+01  0.71586003825E+03  0.71648962112E+03  0.00000000000E+00 0. -1.
         21    1    1    2  504  502  0.29169505594E+02  0.71360178198E+01 -0.43709548797E+03  0.43812583628E+03  0.00000000000E+00 0.  1.
<mgrwt>
<rscale>  2 0.30029699E+02</rscale>
<asrwt>0</asrwt>
<pdfrwt beam="1">  1       21 0.11026000E+00 0.30029699E+02</pdfrwt>
<pdfrwt beam="2">  1       21 0.67373147E-01 0.30029699E+02</pdfrwt>
<totfact> 0.18242608E+03</totfact>
</mgrwt>
</event>
<event>
 4    1  0.4578942E+006  0.3238566E+02  0.7546771E-02  0.1573123E+00
         21   -1    0    0  504  501  0.00000000000E+00  0.00000000000E+00  0.58421340927E+03  0.58421340927E+03  0.00000000000E+00 0.  1.
         21   -1    0    0  503  502 -0.00000000000E+00 -0.00000000000E+00 -0.18791108568E+01  0.18791108568E+01  0.00000000000E+00 0.  1.
         21    1    1    2  503  501 -0.22335833827E+01 -0.32308542137E+02  0.35306044031E+03  0.35454267064E+03  0.00000000000E+00 0.  1.
         21    1    1    2  504  502  0.22335833827E+01  0.32308542137E+02  0.22927385810E+03  0.23154984949E+03  0.00000000000E+00 0.  1.
<mgrwt>
<rscale>  2 0.32385657E+02</rscale>
<asrwt>0</asrwt>
<pdfrwt beam="1">  1       21 0.89878841E-01 0.32385657E+02</pdfrwt>
<pdfrwt beam="2">  1       21 0.28909445E-03 0.32385657E+02</pdfrwt>
<totfact> 0.23069837E+07</totfact>
</mgrwt>
</event>
<event>
 4    1  0.4578942E+006  0.2068908E+02  0.7546771E-02  0.1731962E+00
         21   -1    0    0  504  501  0.00000000000E+00  0.00000000000E+00  0.27479756397E+02  0.27479756397E+02  0.00000000000E+00 0.  1.
         21   -1    0    0  503  502 -0.00000000000E+00 -0.00000000000E+00 -0.33474901258E+02  0.33474901258E+02  0.00000000000E+00 0.  1.
         21    1    1    2  503  501 -0.83444725229E+01  0.18931661496E+02  0.19288038477E+02  0.28285446028E+02  0.00000000000E+00 0.  1.
         21    1    1    2  504  502  0.83444725229E+01 -0.18931661496E+02 -0.25283183338E+02  0.32669211628E+02  0.00000000000E+00 0.  1.
<mgrwt>
<rscale>  2 0.20689080E+02</rscale>
<asrwt>0</asrwt>
<pdfrwt beam="1">  1       21 0.42276548E-02 0.20689080E+02</pdfrwt>
<pdfrwt beam="2">  1       21 0.51499848E-02 0.20689080E+02</pdfrwt>
<totfact> 0.62033096E+07</totfact>
</mgrwt>
</event>
<event>
 4    1  0.4578942E+006  0.2310715E+02  0.7546771E-02  0.1689779E+00
         21   -1    0    0  504  501  0.00000000000E+00  0.00000000000E+00  0.33576277393E+03  0.33576277393E+03  0.00000000000E+00 0.  1.
         21   -1    0    0  503  502 -0.00000000000E+00 -0.00000000000E+00 -0.84627153507E+01  0.84627153507E+01  0.00000000000E+00 0. -1.
         21    1    1    2  503  501  0.18471658668E+02 -0.13883013209E+02  0.31875119316E+03  0.31958764584E+03  0.00000000000E+00 0.  1.
         21    1    1    2  504  502 -0.18471658668E+02  0.13883013209E+02  0.85488654195E+01  0.24637843446E+02  0.00000000000E+00 0. -1.
<mgrwt>
<rscale>  2 0.23107147E+02</rscale>
<asrwt>0</asrwt>
<pdfrwt beam="1">  1       21 0.51655801E-01 0.23107147E+02</pdfrwt>
<pdfrwt beam="2">  1       21 0.13019565E-02 0.23107147E+02</pdfrwt>
<totfact> 0.72354552E+06</totfact>
</mgrwt>
</event>
<event>
 4    1  0.4578942E+006  0.2576777E+02  0.7546771E-02  0.1650213E+00
         21   -1    0    0  503  501  0.00000000000E+00  0.00000000000E+00  0.90370110089E+02  0.90370110089E+02  0.00000000000E+00 0. -1.
         21   -1    0    0  504  502 -0.00000000000E+00 -0.00000000000E+00 -0.75614591073E+01  0.75614591073E+01  0.00000000000E+00 0. -1.
         21    1    1    2  503  502  0.34736054085E+01  0.25532570161E+02  0.49644537739E+02  0.55933515899E+02  0.00000000000E+00 0. -1.
         21    1    1    2  504  501 -0.34736054085E+01 -0.25532570161E+02  0.33164113243E+02  0.41998053297E+02  0.00000000000E+00 0. -1.
<mgrwt>
<rscale>  2 0.25767772E+02</rscale>
<asrwt>0</asrwt>
<pdfrwt beam="1">  1       21 0.13903093E-01 0.25767772E+02</pdfrwt>
<pdfrwt beam="2">  1       21 0.11633015E-02 0.25767772E+02</pdfrwt>
<totfact> 0.94437468E+07</totfact>
</mgrwt>
</event>
<event>
 4    1  0.4578942E+006  0.2744809E+02  0.7546771E-02  0.1628140E+00
         21   -1    0    0  504  501  0.00000000000E+00  0.00000000000E+00  0.10940239816E+02  0.10940239816E+02  0.00000000000E+00 0. -1.
         21   -1    0    0  503  502 -0.00000000000E+00 -0.00000000000E+00 -0.17155575405E+03  0.17155575405E+03  0.00000000000E+00 0. -1.
         21    1    1    2  503  501  0.24240007259E+02 -0.12877109824E+02 -0.15090483026E+03  0.15338078662E+03  0.00000000000E+00 0. -1.
         21    1    1    2  504  502 -0.24240007259E+02  0.12877109824E+02 -0.97106839694E+01  0.29115207238E+02  0.00000000000E+00 0. -1.
<mgrwt>
<rscale>  2 0.27448095E+02</rscale>
<asrwt>0</asrwt>
<pdfrwt beam="1">  1       21 0.16831141E-02 0.27448095E+02</pdfrwt>
<pdfrwt beam="2">  1       21 0.26393189E-01 0.27448095E+02</pdfrwt>
<totfact> 0.17760167E+07</totfact>
</mgrwt>
</event>
<event>
 4    1  0.4578942E+006  0.2229105E+02  0.7546771E-02  0.1703266E+00
         21   -1    0    0  502  501  0.00000000000E+00  0.00000000000E+00  0.24694742079E+02  0.24694742079E+02  0.00000000000E+00 0.  1.
         21   -1    0    0  503  502 -0.00000000000E+00 -0.00000000000E+00 -0.21899693663E+02  0.21899693663E+02  0.00000000000E+00 0.  1.
         21    1    1    2  503  504  0.82600368648E+01  0.20704172896E+02 -0.52413689116E+01  0.22898972299E+02  0.00000000000E+00 0.  1.
         21    1    1    2  504  501 -0.82600368648E+01 -0.20704172896E+02  0.80364173270E+01  0.23695463443E+02  0.00000000000E+00 0.  1.
<mgrwt>
<rscale>  2 0.22291052E+02</rscale>
<asrwt>0</asrwt>
<pdfrwt beam="1">  1       21 0.37991911E-02 0.22291052E+02</pdfrwt>
<pdfrwt beam="2">  1       21 0.33691836E-02 0.22291052E+02</pdfrwt>
<totfact> 0.14626076E+08</totfact>
</mgrwt>
</event>
<event>
 4    1  0.4578942E+006  0.2465251E+02  0.7546771E-02  0.1666044E+00
         21   -1    0    0  503  501  0.00000000000E+00  0.00000000000E+00  0.83536038793E+02  0.83536038793E+02  0.00000000000E+00 0.  1.
         21   -1    0    0  504  502 -0.00000000000E+00 -0.00000000000E+00 -0.76376322729E+01  0.76376322729E+01  0.00000000000E+00 0.  1.
         21    1    1    2  503  502 -0.19248125771E+02  0.15403106302E+02  0.47878996907E+02  0.53852988536E+02  0.00000000000E+00 0.  1.
         21    1    1    2  504  501  0.19248125771E+02 -0.15403106302E+02  0.28019409614E+02  0.37320682530E+02  0.00000000000E+00 0.  1.
<mgrwt>
<rscale>  2 0.24652506E+02</rscale>
<asrwt>0</asrwt>
<pdfrwt beam="1">  1       21 0.12851698E-01 0.24652506E+02</pdfrwt>
<pdfrwt beam="2">  1       21 0.11750204E-02 0.24652506E+02</pdfrwt>
<totfact> 0.10505549E+08</totfact>
</mgrwt>
</event>
<event>
 4    1  0.4578942E+006  0.2476477E+02  0.7546771E-02  0.1664404E+00
         21   -1    0    0  503  501  0.00000000000E+00  0.00000000000E+00  0.91338461325E+02  0.91338461325E+02  0.00000000000E+00 0.  1.
         21   -1    0    0  504  502 -0.00000000000E+00 -0.00000000000E+00 -0.70680167601E+01  0.70680167601E+01  0.00000000000E+00 0.  1.
         21    1    1    2  503  502 -0.19588616840E+02  0.15151890903E+02  0.53138931135E+02  0.58626271498E+02  0.00000000000E+00 0.  1.
         21    1    1    2  504  501  0.19588616840E+02 -0.15151890903E+02  0.31131513430E+02  0.39780206587E+02  0.00000000000E+00 0.  1.
<mgrwt>
<rscale>  2 0.24764767E+02</rscale>
<asrwt>0</asrwt>
<pdfrwt beam="1">  1       21 0.14052070E-01 0.24764767E+02</pdfrwt>
<pdfrwt beam="2">  1       21 0.10873873E-02 0.24764767E+02</pdfrwt>
<totfact> 0.10165324E+08</totfact>
</mgrwt>
</event>
<event>
 4    1  0.4578942E+006  0.2453083E+02  0.7546771E-02  0.1667834E+00
         21   -1    0    0  503  501  0.00000000000E+00  0.00000000000E+00  0.24982902728E+02  0.24982902728E+02  0.00000000000E+00 0. -1.
         21   -1    0    0  504  502 -0.00000000000E+00 -0.00000000000E+00 -0.32307420836E+02  0.32307420836E+02  0.00000000000E+00 0. -1.
         21    1    1    2  503  502  0.15864234355E+02  0.18710630838E+02  0.10787106851E+02  0.26797822901E+02  0.00000000000E+00 0. -1.
         21    1    1    2  504  501 -0.15864234355E+02 -0.18710630838E+02 -0.18111624958E+02  0.30492500663E+02  0.00000000000E+00 0. -1.
<mgrwt>
<rscale>  2 0.24530830E+02</rscale>
<asrwt>0</asrwt>
<pdfrwt beam="1">  1       21 0.38435235E-02 0.24530830E+02</pdfrwt>
<pdfrwt beam="2">  1       21 0.49703724E-02 0.24530830E+02</pdfrwt>
<totfact> 0.79927048E+07</totfact>
</mgrwt>
</event>
<event>
 4    1  0.4578942E+006  0.3591021E+02  0.7546771E-02  0.1540663E+00
         21   -1    0    0  504  501  0.00000000000E+00  0.00000000000E+00  0.97026450269E+02  0.97026450269E+02  0.00000000000E+00 0.  1.
         21   -1    0    0  503  502 -0.00000000000E+00 -0.00000000000E+00 -0.31014447788E+02  0.31014447788E+02  0.00000000000E+00 0. -1.
         21    1    1    2  503  501 -0.30844556074E+02  0.18389037553E+02  0.81402644498E+02  0.88971534059E+02  0.00000000000E+00 0.  1.
         21    1    1    2  504  502  0.30844556074E+02 -0.18389037553E+02 -0.15390642017E+02  0.39069363998E+02  0.00000000000E+00 0. -1.
<mgrwt>
<rscale>  2 0.35910212E+02</rscale>
<asrwt>0</asrwt>
<pdfrwt beam="1">  1       21 0.14927146E-01 0.35910212E+02</pdfrwt>
<pdfrwt beam="2">  1       21 0.47714535E-02 0.35910212E+02</pdfrwt>
<totfact> 0.98766217E+06</totfact>
</mgrwt>
</event>
<event>
 4    1  0.4578942E+006  0.2369868E+02  0.7546771E-02  0.1680429E+00
         21   -1    0    0  504  501  0.00000000000E+00  0.00000000000E+00  0.62310646926E+03  0.62310646926E+03  0.00000000000E+00 0. -1.
         21   -1    0    0  503  502 -0.00000000000E+00 -0.00000000000E+00 -0.13393831142E+01  0.13393831142E+01  0.00000000000E+00 0. -1.
         21    1    1    2  503  501 -0.11509288929E+02 -0.20716272053E+02  0.48943906908E+03  0.49001247944E+03  0.00000000000E+00 0. -1.
         21    1    1    2  504  502  0.11509288929E+02  0.20716272053E+02  0.13232801706E+03  0.13443337293E+03  0.00000000000E+00 0. -1.
<mgrwt>
<rscale>  2 0.23698685E+02</rscale>
<asrwt>0</asrwt>
<pdfrwt beam="1">  1       21 0.95862302E-01 0.23698685E+02</pdfrwt>
<pdfrwt beam="2">  1       21 0.20605944E-03 0.23698685E+02</pdfrwt>
<totfact> 0.31092843E+07</totfact>
</mgrwt>
</event>
<event>
 4    1  0.4578942E+006  0.2027031E+02  0.7546771E-02  0.1740005E+00
         21   -1    0    0  504  501  0.00000000000E+00  0.00000000000E+00  0.33642884445E+02  0.33642884445E+02  0.00000000000E+00 0. -1.
         21   -1    0    0  503  502 -0.00000000000E+00 -0.00000000000E+00 -0.19062834523E+02  0.19062834523E+02  0.00000000000E+00 0.  1.
         21    1    1    2  503  501  0.18976798772E+02 -0.71250620542E+01  0.23086837858E+02  0.30722751882E+02  0.00000000000E+00 0. -1.
         21    1    1    2  504  502 -0.18976798772E+02  0.71250620542E+01 -0.85067879362E+01  0.21982967086E+02  0.00000000000E+00 0.  1.
<mgrwt>
<rscale>  2 0.20270308E+02</rscale>
<asrwt>0</asrwt>
<pdfrwt beam="1">  1       21 0.51758284E-02 0.20270308E+02</pdfrwt>
<pdfrwt beam="2">  1       21 0.29327438E-02 0.20270308E+02</pdfrwt>
<totfact> 0.10825143E+08</totfact>
</mgrwt>
</event>
<event>
 4    1  0.4578942E+006  0.2290604E+02  0.7546771E-02  0.1693038E+00
         21   -1    0    0  503  501  0.00000000000E+00  0.00000000000E+00  0.50614092523E+01  0.50614092523E+01  0.00000000000E+00 0.  1.
         21   -1    0    0  504  502 -0.00000000000E+00 -0.00000000000E+00 -0.17508380978E+03  0.17508380978E+03  0.00000000000E+00 0. -1.
         21    1    1    2  503  502 -0.21653287045E+02 -0.74714157615E+01 -0.27483300899E+02  0.35777349282E+02  0.00000000000E+00 0.  1.
         21    1    1    2  504  501  0.21653287045E+02  0.74714157615E+01 -0.14253909963E+03  0.14436786975E+03  0.00000000000E+00 0. -1.
<mgrwt>
<rscale>  2 0.22906045E+02</rscale>
<asrwt>0</asrwt>
<pdfrwt beam="1">  1       21 0.77867845E-03 0.22906045E+02</pdfrwt>
<pdfrwt beam="2">  1       21 0.26935967E-01 0.22906045E+02</pdfrwt>
<totfact> 0.52825310E+07</totfact>
</mgrwt>
</event>
<event>
 4    1  0.4578942E+006  0.3058119E+02  0.7546771E-02  0.1591752E+00
         21   -1    0    0  502  501  0.00000000000E+00  0.00000000000E+00  0.34094565770E+01  0.34094565770E+01  0.00000000000E+00 0. -1.
         21   -1    0    0  504  502 -0.00000000000E+00 -0.00000000000E+00 -0.42157715372E+03  0.42157715372E+03  0.00000000000E+00 0. -1.
         21    1    1    2  503  501  0.11115172777E+02  0.28489688487E+02 -0.83487687485E+02  0.88912335351E+02  0.00000000000E+00 0. -1.
         21    1    1    2  504  503 -0.11115172777E+02 -0.28489688487E+02 -0.33468000966E+03  0.33607427494E+03  0.00000000000E+00 0. -1.
<mgrwt>
<rscale>  2 0.30581194E+02</rscale>
<asrwt>0</asrwt>
<pdfrwt beam="1">  1       21 0.52453139E-03 0.30581194E+02</pdfrwt>
<pdfrwt beam="2">  1       21 0.64858072E-01 0.30581194E+02</pdfrwt>
<totfact> 0.18828592E+07</totfact>
</mgrwt>
</event>
<event>
 4    1  0.4578942E+006  0.3356285E+02  0.7546771E-02  0.1561746E+00
         21   -1    0    0  503  501  0.00000000000E+00  0.00000000000E+00  0.17383719938E+03  0.17383719938E+03  0.00000000000E+00 0.  1.
         21   -1    0    0  504  502 -0.00000000000E+00 -0.00000000000E+00 -0.62769565907E+02  0.62769565907E+02  0.00000000000E+00 0.  1.
         21    1    1    2  503  502 -0.32116921032E+02  0.97451606308E+01  0.16756438939E+03  0.17089262525E+03  0.00000000000E+00 0.  1.
         21    1    1    2  504  501  0.32116921032E+02 -0.97451606308E+01 -0.56496755916E+02  0.65714140041E+02  0.00000000000E+00 0.  1.
<mgrwt>
<rscale>  2 0.33562848E+02</rscale>
<asrwt>0</asrwt>
<pdfrwt beam="1">  1       21 0.26744184E-01 0.33562848E+02</pdfrwt>
<pdfrwt beam="2">  1       21 0.96568563E-02 0.33562848E+02</pdfrwt>
<totfact> 0.10932286E+06</totfact>
</mgrwt>
</event>
<event>
 4    1  0.4578942E+006  0.3203376E+02  0.7546771E-02  0.1576638E+00
         21   -1    0    0  503  501  0.00000000000E+00  0.00000000000E+00  0.36705557638E+01  0.36705557638E+01  0.00000000000E+00 0. -1.
         21   -1    0    0  504  502 -0.00000000000E+00 -0.00000000000E+00 -0.28536352582E+03  0.28536352582E+03  0.00000000000E+00 0. -1.
         21    1    1    2  503  502  0.16250648983E+02 -0.27605765307E+02 -0.16144559913E+03  0.16459296264E+03  0.00000000000E+00 0. -1.
         21    1    1    2  504  501 -0.16250648983E+02  0.27605765307E+02 -0.12024737093E+03  0.12444111895E+03  0.00000000000E+00 0. -1.
<mgrwt>
<rscale>  2 0.32033761E+02</rscale>
<asrwt>0</asrwt>
<pdfrwt beam="1">  1       21 0.56470084E-03 0.32033761E+02</pdfrwt>
<pdfrwt beam="2">  1       21 0.43902085E-01 0.32033761E+02</pdfrwt>
<totfact> 0.36952086E+07</totfact>
</mgrwt>
</event>
<event>
 4    1  0.4578942E+006  0.2098618E+02  0.7546771E-02  0.1726399E+00
         21   -1    0    0  502  501  0.00000000000E+00  0.00000000000E+00  0.36911200806E+01  0.36911200806E+01  0.00000000000E+00 0.  1.
         21   -1    0    0  504  502 -0.00000000000E+00 -0.00000000000E+00 -0.38919484976E+03  0.38919484976E+03  0.00000000000E+00 0.  1.
         21    1    1    2  503  501 -0.14582348753E+02 -0.15092217840E+02 -0.29169993190E+02  0.35934780328E+02  0.00000000000E+00 0.  1.
         21    1    1    2  504  503  0.14582348753E+02  0.15092217840E+02 -0.35633373649E+03  0.35695118951E+03  0.00000000000E+00 0.  1.
<mgrwt>
<rscale>  2 0.20986184E+02</rscale>
<asrwt>0</asrwt>
<pdfrwt beam="1">  1       21 0.56786420E-03 0.20986184E+02</pdfrwt>
<pdfrwt beam="2">  1       21 0.59876176E-01 0.20986184E+02</pdfrwt>
<totfact> 0.18342670E+07</totfact>
</mgrwt>
</event>
<event>
 4    1  0.4578942E+006  0.4155412E+02  0.7546771E-02  0.1497077E+00
         21   -1    0    0  504  501  0.00000000000E+00  0.00000000000E+00  0.44419197530E+02  0.44419197530E+02  0.00000000000E+00 0.  1.
         21   -1    0    0  503  502 -0.00000000000E+00 -0.00000000000E+00 -0.89555204380E+02  0.89555204380E+02  0.00000000000E+00 0.  1.
         21    1    1    2  503  501  0.38509450979E+02 -0.15613039019E+02  0.27825037142E+02  0.50009773986E+02  0.00000000000E+00 0.  1.
         21    1    1    2  504  502 -0.38509450979E+02  0.15613039019E+02 -0.72961043992E+02  0.83964627925E+02  0.00000000000E+00 0.  1.
<mgrwt>
<rscale>  2 0.41554119E+02</rscale>
<asrwt>0</asrwt>
<pdfrwt beam="1">  1       21 0.68337227E-02 0.41554119E+02</pdfrwt>
<pdfrwt beam="2">  1       21 0.13777724E-01 0.41554119E+02</pdfrwt>
<totfact> 0.64312130E+06</totfact>
</mgrwt>
</event>
<event>
 4    1  0.4578942E+006  0.4330913E+02  0.7546771E-02  0.1485182E+00
         21   -1    0    0  503  501  0.00000000000E+00  0.00000000000E+00  0.50838189212E+03  0.50838189212E+03  0.00000000000E+00 0.  1.
         21   -1    0    0  504  502 -0.00000000000E+00 -0.00000000000E+00 -0.10975072549E+03  0.10975072549E+03  0.00000000000E+00 0.  1.
         21    1    1    2  503  502  0.40009670269E+02  0.16580308295E+02  0.50314251265E+03  0.50500303798E+03  0.00000000000E+00 0.  1.
         21    1    1    2  504  501 -0.40009670269E+02 -0.16580308295E+02 -0.10451134602E+03  0.11312957962E+03  0.00000000000E+00 0.  1.
<mgrwt>
<rscale>  2 0.43309125E+02</rscale>
<asrwt>0</asrwt>
<pdfrwt beam="1">  1       21 0.78212597E-01 0.43309125E+02</pdfrwt>
<pdfrwt beam="2">  1       21 0.16884727E-01 0.43309125E+02</pdfrwt>
<totfact> 0.50845788E+04</totfact>
</mgrwt>
</event>
<event>
 4    1  0.4578942E+006  0.2078540E+02  0.7546771E-02  0.1730146E+00
         21   -1    0    0  503  501  0.00000000000E+00  0.00000000000E+00  0.18227529189E+02  0.18227529189E+02  0.00000000000E+00 0.  1.
         21   -1    0    0  504  502 -0.00000000000E+00 -0.00000000000E+00 -0.73134482109E+02  0.73134482109E+02  0.00000000000E+00 0. -1.
         21    1    1    2  503  502  0.17416255998E+02  0.11344897485E+02  0.10102569349E+02  0.23110486351E+02  0.00000000000E+00 0.  1.
         21    1    1    2  504  501 -0.17416255998E+02 -0.11344897485E+02 -0.65009522269E+02  0.68251524947E+02  0.00000000000E+00 0. -1.
<mgrwt>
<rscale>  2 0.20785396E+02</rscale>
<asrwt>0</asrwt>
<pdfrwt beam="1">  1       21 0.28042353E-02 0.20785396E+02</pdfrwt>
<pdfrwt beam="2">  1       21 0.11251458E-01 0.20785396E+02</pdfrwt>
<totfact> 0.33186409E+07</totfact>
</mgrwt>
</event>
<event>
 4    1  0.4578942E+006  0.2015417E+02  0.7546771E-02  0.1742279E+00
         21   -1    0    0  504  501  0.00000000000E+00  0.00000000000E+00  0.84997905551E+03  0.84997905551E+03  0.00000000000E+00 0.  1.
         21   -1    0    0  501  502 -0.00000000000E+00 -0.00000000000E+00 -0.54320888779E+00  0.54320888779E+00  0.00000000000E+00 0.  1.
         21    1    1    2  503  502  0.16080483829E+02 -0.12149435939E+02  0.27724439004E+03  0.27797597479E+03  0.00000000000E+00 0.  1.
         21    1    1    2  504  503 -0.16080483829E+02  0.12149435939E+02  0.57219145658E+03  0.57254628960E+03  0.00000000000E+00 0.  1.
<mgrwt>
<rscale>  2 0.20154175E+02</rscale>
<asrwt>0</asrwt>
<pdfrwt beam="1">  1       21 0.13076494E+00 0.20154175E+02</pdfrwt>
<pdfrwt beam="2">  1       21 0.83571278E-04 0.20154175E+02</pdfrwt>
<totfact> 0.54573458E+07</totfact>
</mgrwt>
</event>
<event>
 4    1  0.4578942E+006  0.2266034E+02  0.7546771E-02  0.1697076E+00
         21   -1    0    0  504  501  0.00000000000E+00  0.00000000000E+00  0.12092304775E+01  0.12092304775E+01  0.00000000000E+00 0.  1.
         21   -1    0    0  503  502 -0.00000000000E+00 -0.00000000000E+00 -0.49074897846E+03  0.49074897846E+03  0.00000000000E+00 0.  1.
         21    1    1    2  503  501 -0.18577483097E+02  0.12975683091E+02 -0.15449041284E+03  0.15614345612E+03  0.00000000000E+00 0.  1.
         21    1    1    2  504  502  0.18577483097E+02 -0.12975683091E+02 -0.33504933514E+03  0.33581475281E+03  0.00000000000E+00 0.  1.
<mgrwt>
<rscale>  2 0.22660345E+02</rscale>
<asrwt>0</asrwt>
<pdfrwt beam="1">  1       21 0.18603568E-03 0.22660345E+02</pdfrwt>
<pdfrwt beam="2">  1       21 0.75499753E-01 0.22660345E+02</pdfrwt>
<totfact> 0.59227375E+07</totfact>
</mgrwt>
</event>
<event>
 4    1  0.4578942E+006  0.2985007E+02  0.7546771E-02  0.1599752E+00
         21   -1    0    0  503  501  0.00000000000E+00  0.00000000000E+00  0.77035498391E+03  0.77035498391E+03  0.00000000000E+00 0. -1.
         21   -1    0    0  504  502 -0.00000000000E+00 -0.00000000000E+00 -0.12729403729E+01  0.12729403729E+01  0.00000000000E+00 0.  1.
         21    1    1    2  503  502  0.21800774392E+02  0.20390014815E+02  0.26792532833E+03  0.26958302623E+03  0.00000000000E+00 0.  1.
         21    1    1    2  504  501 -0.21800774392E+02 -0.20390014815E+02  0.50115671520E+03  0.50204489805E+03  0.00000000000E+00 0. -1.
<mgrwt>
<rscale>  2 0.29850066E+02</rscale>
<asrwt>0</asrwt>
<pdfrwt beam="1">  1       21 0.11851578E+00 0.29850066E+02</pdfrwt>
<pdfrwt beam="2">  1       21 0.19583760E-03 0.29850066E+02</pdfrwt>
<totfact> 0.21732505E+07</totfact>
</mgrwt>
</event>
<event>
 4    1  0.4578942E+006  0.2255654E+02  0.7546771E-02  0.1698801E+00
         21   -1    0    0  503  501  0.00000000000E+00  0.00000000000E+00  0.17663497479E+02  0.17663497479E+02  0.00000000000E+00 0.  1.
         21   -1    0    0  504  502 -0.00000000000E+00 -0.00000000000E+00 -0.92304110625E+02  0.92304110625E+02  0.00000000000E+00 0.  1.
         21    1    1    2  503  502  0.11086323663E+02  0.19644108631E+02 -0.82924836183E+02  0.85937919641E+02  0.00000000000E+00 0.  1.
         21    1    1    2  504  501 -0.11086323663E+02 -0.19644108631E+02  0.82842230374E+01  0.24029688463E+02  0.00000000000E+00 0.  1.
<mgrwt>
<rscale>  2 0.22556542E+02</rscale>
<asrwt>0</asrwt>
<pdfrwt beam="1">  1       21 0.27174612E-02 0.22556542E+02</pdfrwt>
<pdfrwt beam="2">  1       21 0.14200632E-01 0.22556542E+02</pdfrwt>
<totfact> 0.24047486E+07</totfact>
</mgrwt>
</event>
<event>
 4    1  0.4578942E+006  0.2484236E+02  0.7546771E-02  0.1663276E+00
         21   -1    0    0  504  501  0.00000000000E+00  0.00000000000E+00  0.61801483271E+01  0.61801483271E+01  0.00000000000E+00 0. -1.
         21   -1    0    0  503  502 -0.00000000000E+00 -0.00000000000E+00 -0.29516889930E+03  0.29516889930E+03  0.00000000000E+00 0. -1.
         21    1    1    2  503  501  0.88646209870E+00 -0.24826543694E+02 -0.21929304856E+02  0.33136648870E+02  0.00000000000E+00 0. -1.
         21    1    1    2  504  502 -0.88646209870E+00  0.24826543694E+02 -0.26705944612E+03  0.26821239876E+03  0.00000000000E+00 0. -1.
<mgrwt>
<rscale>  2 0.24842365E+02</rscale>
<asrwt>0</asrwt>
<pdfrwt beam="1">  1       21 0.95079221E-03 0.24842365E+02</pdfrwt>
<pdfrwt beam="2">  1       21 0.45410592E-01 0.24842365E+02</pdfrwt>
<totfact> 0.15117860E+07</totfact>
</mgrwt>
</event>
<event>
 4    1  0.4578942E+006  0.4864020E+02  0.7546771E-02  0.1452817E+00
         21   -1    0    0  502  501  0.00000000000E+00  0.00000000000E+00  0.85296324309E+02  0.85296324309E+02  0.00000000000E+00 0.  1.
         21   -1    0    0  503  502 -0.00000000000E+00 -0.00000000000E+00 -0.82414429050E+02  0.82414429050E+02  0.00000000000E+00 0.  1.
         21    1    1    2  503  504 -0.35231904075E+02 -0.33534782716E+02 -0.66861004616E+02  0.82681694799E+02  0.00000000000E+00 0.  1.
         21    1    1    2  504  501  0.35231904075E+02  0.33534782716E+02  0.69742899875E+02  0.85029058560E+02  0.00000000000E+00 0.  1.
<mgrwt>
<rscale>  2 0.48640197E+02</rscale>
<asrwt>0</asrwt>
<pdfrwt beam="1">  1       21 0.13122511E-01 0.48640197E+02</pdfrwt>
<pdfrwt beam="2">  1       21 0.12679143E-01 0.48640197E+02</pdfrwt>
<totfact> 0.25010828E+06</totfact>
</mgrwt>
</event>
<event>
 4    1  0.4578942E+006  0.2443653E+02  0.7546771E-02  0.1669230E+00
         21   -1    0    0  503  501  0.00000000000E+00  0.00000000000E+00  0.10394044437E+03  0.10394044437E+03  0.00000000000E+00 0. -1.
         21   -1    0    0  504  502 -0.00000000000E+00 -0.00000000000E+00 -0.91803083190E+02  0.91803083190E+02  0.00000000000E+00 0. -1.
         21    1    1    2  503  502 -0.13745593877E+02 -0.20204020967E+02 -0.88691192623E+02  0.91996040476E+02  0.00000000000E+00 0. -1.
         21    1    1    2  504  501  0.13745593877E+02  0.20204020967E+02  0.10082855380E+03  0.10374748708E+03  0.00000000000E+00 0. -1.
<mgrwt>
<rscale>  2 0.24436526E+02</rscale>
<asrwt>0</asrwt>
<pdfrwt beam="1">  1       21 0.15990838E-01 0.24436526E+02</pdfrwt>
<pdfrwt beam="2">  1       21 0.14123551E-01 0.24436526E+02</pdfrwt>
<totfact> 0.13905119E+06</totfact>
</mgrwt>
</event>
<event>
 4    1  0.4578942E+006  0.2211353E+02  0.7546771E-02  0.1706296E+00
         21   -1    0    0  503  501  0.00000000000E+00  0.00000000000E+00  0.43689714576E+01  0.43689714576E+01  0.00000000000E+00 0. -1.
         21   -1    0    0  504  502 -0.00000000000E+00 -0.00000000000E+00 -0.11196811929E+03  0.11196811929E+03  0.00000000000E+00 0. -1.
         21    1    1    2  503  502  0.18249428656E+02  0.12488657153E+02 -0.54907019432E+02  0.59192811951E+02  0.00000000000E+00 0. -1.
         21    1    1    2  504  501 -0.18249428656E+02 -0.12488657153E+02 -0.52692128396E+02  0.57144278792E+02  0.00000000000E+00 0. -1.
<mgrwt>
<rscale>  2 0.22113530E+02</rscale>
<asrwt>0</asrwt>
<pdfrwt beam="1">  1       21 0.67214942E-03 0.22113530E+02</pdfrwt>
<pdfrwt beam="2">  1       21 0.17225865E-01 0.22113530E+02</pdfrwt>
<totfact> 0.14278383E+08</totfact>
</mgrwt>
</event>
<event>
 4    1  0.4578942E+006  0.2047662E+02  0.7546771E-02  0.1736013E+00
         21   -1    0    0  502  501  0.00000000000E+00  0.00000000000E+00  0.40836584908E+01  0.40836584908E+01  0.00000000000E+00 0.  1.
         21   -1    0    0  503  502 -0.00000000000E+00 -0.00000000000E+00 -0.12407389375E+03  0.12407389375E+03  0.00000000000E+00 0.  1.
         21    1    1    2  503  504  0.19756002407E+02 -0.53844471621E+01 -0.86606291387E+02  0.88994053791E+02  0.00000000000E+00 0.  1.
         21    1    1    2  504  501 -0.19756002407E+02  0.53844471621E+01 -0.33383943870E+02  0.39163498448E+02  0.00000000000E+00 0.  1.
<mgrwt>
<rscale>  2 0.20476618E+02</rscale>
<asrwt>0</asrwt>
<pdfrwt beam="1">  1       21 0.62825514E-03 0.20476618E+02</pdfrwt>
<pdfrwt beam="2">  1       21 0.19088292E-01 0.20476618E+02</pdfrwt>
<totfact> 0.12925008E+08</totfact>
</mgrwt>
</event>
<event>
 4    1  0.4578942E+006  0.2073396E+02  0.7546771E-02  0.1731114E+00
         21   -1    0    0  502  501  0.00000000000E+00  0.00000000000E+00  0.19592184313E+03  0.19592184313E+03  0.00000000000E+00 0. -1.
         21   -1    0    0  503  502 -0.00000000000E+00 -0.00000000000E+00 -0.44426616698E+02  0.44426616698E+02  0.00000000000E+00 0. -1.
         21    1    1    2  503  504  0.18923249693E+02  0.84739317389E+01 -0.41421342229E+02  0.46320886111E+02  0.00000000000E+00 0. -1.
         21    1    1    2  504  501 -0.18923249693E+02 -0.84739317389E+01  0.19291656866E+03  0.19402757372E+03  0.00000000000E+00 0. -1.
<mgrwt>
<rscale>  2 0.20733955E+02</rscale>
<asrwt>0</asrwt>
<pdfrwt beam="1">  1       21 0.30141822E-01 0.20733955E+02</pdfrwt>
<pdfrwt beam="2">  1       21 0.68348642E-02 0.20733955E+02</pdfrwt>
<totfact> 0.14832613E+06</totfact>
</mgrwt>
</event>
<event>
 4    1  0.4578942E+006  0.6376722E+02  0.7546771E-02  0.1382670E+00
         21   -1    0    0  504  501  0.00000000000E+00  0.00000000000E+00  0.37938958048E+03  0.37938958048E+03  0.00000000000E+00 0. -1.
         21   -1    0    0  503  502 -0.00000000000E+00 -0.00000000000E+00 -0.10873583669E+02  0.10873583669E+02  0.00000000000E+00 0. -1.
         21    1    1    2  503  501 -0.33216122025E+02  0.54432963292E+02  0.20760696331E+03  0.21717944072E+03  0.00000000000E+00 0. -1.
         21    1    1    2  504  502  0.33216122025E+02 -0.54432963292E+02  0.16090903351E+03  0.17308372344E+03  0.00000000000E+00 0. -1.
<mgrwt>
<rscale>  2 0.63767219E+02</rscale>
<asrwt>0</asrwt>
<pdfrwt beam="1">  1       21 0.58367618E-01 0.63767219E+02</pdfrwt>
<pdfrwt beam="2">  1       21 0.16728593E-02 0.63767219E+02</pdfrwt>
<totfact> 0.43067465E+06</totfact>
</mgrwt>
</event>
<event>
 4    1  0.4578942E+006  0.2976371E+02  0.7546771E-02  0.1600715E+00
         21   -1    0    0  503  501  0.00000000000E+00  0.00000000000E+00  0.27070460081E+02  0.27070460081E+02  0.00000000000E+00 0.  1.
         21   -1    0    0  501  502 -0.00000000000E+00 -0.00000000000E+00 -0.33118250893E+02  0.33118250893E+02  0.00000000000E+00 0.  1.
         21    1    1    2  503  504  0.16495939495E+02 -0.24774226168E+02  0.25582847716E+00  0.29764807244E+02  0.00000000000E+00 0.  1.
         21    1    1    2  504  502 -0.16495939495E+02  0.24774226168E+02 -0.63036192882E+01  0.30423903730E+02  0.00000000000E+00 0.  1.
<mgrwt>
<rscale>  2 0.29763708E+02</rscale>
<asrwt>0</asrwt>
<pdfrwt beam="1">  1       21 0.41646862E-02 0.29763708E+02</pdfrwt>
<pdfrwt beam="2">  1       21 0.50951155E-02 0.29763708E+02</pdfrwt>
<totfact> 0.71004023E+07</totfact>
</mgrwt>
</event>
<event>
 4    1  0.4578942E+006  0.2898404E+02  0.7546771E-02  0.1609598E+00
         21   -1    0    0  504  501  0.00000000000E+00  0.00000000000E+00  0.15017396869E+03  0.15017396869E+03  0.00000000000E+00 0. -1.
         21   -1    0    0  503  502 -0.00000000000E+00 -0.00000000000E+00 -0.45465738441E+03  0.45465738441E+03  0.00000000000E+00 0. -1.
         21    1    1    2  503  501  0.25815453363E+02 -0.13177141155E+02  0.14830778080E+03  0.15111344257E+03  0.00000000000E+00 0. -1.
         21    1    1    2  504  502 -0.25815453363E+02  0.13177141155E+02 -0.45279119652E+03  0.45371791052E+03  0.00000000000E+00 0. -1.
<mgrwt>
<rscale>  2 0.28984042E+02</rscale>
<asrwt>0</asrwt>
<pdfrwt beam="1">  1       21 0.23103687E-01 0.28984042E+02</pdfrwt>
<pdfrwt beam="2">  1       21 0.69947291E-01 0.28984042E+02</pdfrwt>
<totfact> 0.37723227E+04</totfact>
</mgrwt>
</event>
<event>
 4    1  0.4578942E+006  0.2205300E+02  0.7546771E-02  0.1707337E+00
         21   -1    0    0  504  501  0.00000000000E+00  0.00000000000E+00  0.34150361409E+03  0.34150361409E+03  0.00000000000E+00 0. -1.
         21   -1    0    0  503  502 -0.00000000000E+00 -0.00000000000E+00 -0.14658583690E+01  0.14658583690E+01  0.00000000000E+00 0. -1.
         21    1    1    2  503  501  0.86064177144E+01  0.20304296317E+02  0.19896281821E+03  0.20018126262E+03  0.00000000000E+00 0. -1.
         21    1    1    2  504  502 -0.86064177144E+01 -0.20304296317E+02  0.14107493752E+03  0.14278820985E+03  0.00000000000E+00 0. -1.
<mgrwt>
<rscale>  2 0.22053001E+02</rscale>
<asrwt>0</asrwt>
<pdfrwt beam="1">  1       21 0.52538954E-01 0.22053001E+02</pdfrwt>
<pdfrwt beam="2">  1       21 0.22551694E-03 0.22053001E+02</pdfrwt>
<totfact> 0.92461321E+07</totfact>
</mgrwt>
</event>
<event>
 4    1  0.4578942E+006  0.3236753E+02  0.7546771E-02  0.1573302E+00
         21   -1    0    0  504  501  0.00000000000E+00  0.00000000000E+00  0.51342794506E+02  0.51342794506E+02  0.00000000000E+00 0. -1.
         21   -1    0    0  503  502 -0.00000000000E+00 -0.00000000000E+00 -0.20425052325E+02  0.20425052325E+02  0.00000000000E+00 0. -1.
         21    1    1    2  503  501 -0.31908801622E+02  0.54300509387E+01  0.16579197117E+02  0.36366562268E+02  0.00000000000E+00 0. -1.
         21    1    1    2  504  502  0.31908801622E+02 -0.54300509387E+01  0.14338545063E+02  0.35401284563E+02  0.00000000000E+00 0. -1.
<mgrwt>
<rscale>  2 0.32367531E+02</rscale>
<asrwt>0</asrwt>
<pdfrwt beam="1">  1       21 0.78988914E-02 0.32367531E+02</pdfrwt>
<pdfrwt beam="2">  1       21 0.31423158E-02 0.32367531E+02</pdfrwt>
<totfact> 0.55352972E+07</totfact>
</mgrwt>
</event>
<event>
 4    1  0.4578942E+006  0.3152110E+02  0.7546771E-02  0.1581859E+00
         21   -1    0    0  502  501  0.00000000000E+00  0.00000000000E+00  0.49533625929E+02  0.49533625929E+02  0.00000000000E+00 0.  1.
         21   -1    0    0  503  502 -0.00000000000E+00 -0.00000000000E+00 -0.14430461620E+03  0.14430461620E+03  0.00000000000E+00 0. -1.
         21    1    1    2  503  504 -0.27800102838E+02  0.14857115737E+02 -0.13731670484E+03  0.14088810111E+03  0.00000000000E+00 0. -1.
         21    1    1    2  504  501  0.27800102838E+02 -0.14857115737E+02  0.42545714570E+02  0.52950141020E+02  0.00000000000E+00 0.  1.
<mgrwt>
<rscale>  2 0.31521098E+02</rscale>
<asrwt>0</asrwt>
<pdfrwt beam="1">  1       21 0.76205580E-02 0.31521098E+02</pdfrwt>
<pdfrwt beam="2">  1       21 0.22200710E-01 0.31521098E+02</pdfrwt>
<totfact> 0.22544796E+06</totfact>
</mgrwt>
</event>
<event>
 4    1  0.4578942E+006  0.2108377E+02  0.7546771E-02  0.1724597E+00
         21   -1    0    0  503  501  0.00000000000E+00  0.00000000000E+00  0.30220115246E+02  0.30220115246E+02  0.00000000000E+00 0. -1.
         21   -1    0    0  504  502 -0.00000000000E+00 -0.00000000000E+00 -0.30147120889E+02  0.30147120889E+02  0.00000000000E+00 0. -1.
         21    1    1    2  503  502 -0.70724954968E+01 -0.19862149584E+02 -0.21562691951E+02  0.30157500938E+02  0.00000000000E+00 0. -1.
         21    1    1    2  504  501  0.70724954968E+01  0.19862149584E+02  0.21635686308E+02  0.30209735197E+02  0.00000000000E+00 0. -1.
<mgrwt>
<rscale>  2 0.21083766E+02</rscale>
<asrwt>0</asrwt>
<pdfrwt beam="1">  1       21 0.46492485E-02 0.21083766E+02</pdfrwt>
<pdfrwt beam="2">  1       21 0.46380186E-02 0.21083766E+02</pdfrwt>
<totfact> 0.63358966E+07</totfact>
</mgrwt>
</event>
<event>
 4    1  0.4578942E+006  0.2483728E+02  0.7546771E-02  0.1663350E+00
         21   -1    0    0  503  501  0.00000000000E+00  0.00000000000E+00  0.15083295235E+02  0.15083295235E+02  0.00000000000E+00 0. -1.
         21   -1    0    0  504  502 -0.00000000000E+00 -0.00000000000E+00 -0.60953543391E+02  0.60953543391E+02  0.00000000000E+00 0. -1.
         21    1    1    2  503  502 -0.24831844915E+02 -0.51978323847E+00 -0.44742413185E+02  0.51173960509E+02  0.00000000000E+00 0. -1.
         21    1    1    2  504  501  0.24831844915E+02  0.51978323847E+00 -0.11278349705E+01  0.24862878116E+02  0.00000000000E+00 0. -1.
<mgrwt>
<rscale>  2 0.24837284E+02</rscale>
<asrwt>0</asrwt>
<pdfrwt beam="1">  1       21 0.23205070E-02 0.24837284E+02</pdfrwt>
<pdfrwt beam="2">  1       21 0.93774681E-02 0.24837284E+02</pdfrwt>
<totfact> 0.62934041E+07</totfact>
</mgrwt>
</event>
<event>
 4    1  0.4578942E+006  0.2052430E+02  0.7546771E-02  0.1735098E+00
         21   -1    0    0  502  501  0.00000000000E+00  0.00000000000E+00  0.26903162757E+02  0.26903162757E+02  0.00000000000E+00 0.  1.
         21   -1    0    0  504  502 -0.00000000000E+00 -0.00000000000E+00 -0.42525577164E+02  0.42525577164E+02  0.00000000000E+00 0. -1.
         21    1    1    2  503  501 -0.51964293648E+01  0.19855582339E+02  0.19781813135E+02  0.28505563651E+02  0.00000000000E+00 0.  1.
         21    1    1    2  504  503  0.51964293648E+01 -0.19855582339E+02 -0.35404227541E+02  0.40923176269E+02  0.00000000000E+00 0. -1.
<mgrwt>
<rscale>  2 0.20524303E+02</rscale>
<asrwt>0</asrwt>
<pdfrwt beam="1">  1       21 0.41389481E-02 0.20524303E+02</pdfrwt>
<pdfrwt beam="2">  1       21 0.65423965E-02 0.20524303E+02</pdfrwt>
<totfact> 0.43676486E+07</totfact>
</mgrwt>
</event>
<event>
 4    1  0.4578942E+006  0.2697693E+02  0.7546771E-02  0.1634129E+00
         21   -1    0    0  502  501  0.00000000000E+00  0.00000000000E+00  0.43660744234E+03  0.43660744234E+03  0.00000000000E+00 0.  1.
         21   -1    0    0  504  502 -0.00000000000E+00 -0.00000000000E+00 -0.13129354674E+02  0.13129354674E+02  0.00000000000E+00 0. -1.
         21    1    1    2  503  501  0.17349019861E+02 -0.20658323996E+02  0.42184902558E+03  0.42271072286E+03  0.00000000000E+00 0.  1.
         21    1    1    2  504  503 -0.17349019861E+02  0.20658323996E+02  0.16290620796E+01  0.27026074146E+02  0.00000000000E+00 0. -1.
<mgrwt>
<rscale>  2 0.26976932E+02</rscale>
<asrwt>0</asrwt>
<pdfrwt beam="1">  1       21 0.67170365E-01 0.26976932E+02</pdfrwt>
<pdfrwt beam="2">  1       21 0.20199010E-02 0.26976932E+02</pdfrwt>
<totfact> 0.22326802E+06</totfact>
</mgrwt>
</event>
<event>
 4    1  0.4578942E+006  0.2359546E+02  0.7546771E-02  0.1682036E+00
         21   -1    0    0  502  501  0.00000000000E+00  0.00000000000E+00  0.35571044837E+01  0.35571044837E+01  0.00000000000E+00 0.  1.
         21   -1    0    0  504  502 -0.00000000000E+00 -0.00000000000E+00 -0.15663009181E+03  0.15663009181E+03  0.00000000000E+00 0.  1.
         21    1    1    2  503  501  0.14404109148E+02 -0.18688702405E+02 -0.78692306764E+02  0.82153667610E+02  0.00000000000E+00 0.  1.
         21    1    1    2  504  503 -0.14404109148E+02  0.18688702405E+02 -0.74380680563E+02  0.78033528685E+02  0.00000000000E+00 0.  1.
<mgrwt>
<rscale>  2 0.23595465E+02</rscale>
<asrwt>0</asrwt>
<pdfrwt beam="1">  1       21 0.54724680E-03 0.23595465E+02</pdfrwt>
<pdfrwt beam="2">  1       21 0.24096939E-01 0.23595465E+02</pdfrwt>
<totfact> 0.10969684E+08</totfact>
</mgrwt>
</event>
<event>
 4    1  0.4578942E+006  0.2075416E+02  0.7546771E-02  0.1730734E+00
         21   -1    0    0  504  501  0.00000000000E+00  0.00000000000E+00  0.92177620295E+01  0.92177620295E+01  0.00000000000E+00 0. -1.
         21   -1    0    0  503  502 -0.00000000000E+00 -0.00000000000E+00 -0.46751798437E+02  0.46751798437E+02  0.00000000000E+00 0.  1.
         21    1    1    2  503  501  0.12395472929E+02  0.16645940449E+02 -0.19387522213E+02  0.28400899636E+02  0.00000000000E+00 0.  1.
         21    1    1    2  504  502 -0.12395472929E+02 -0.16645940449E+02 -0.18146514194E+02  0.27568660830E+02  0.00000000000E+00 0. -1.
<mgrwt>
<rscale>  2 0.20754158E+02</rscale>
<asrwt>0</asrwt>
<pdfrwt beam="1">  1       21 0.14181173E-02 0.20754158E+02</pdfrwt>
<pdfrwt beam="2">  1       21 0.71925843E-02 0.20754158E+02</pdfrwt>
<totfact> 0.19562746E+08</totfact>
</mgrwt>
</event>
<event>
 4    1  0.4578942E+006  0.3149380E+02  0.7546771E-02  0.1582140E+00
         21   -1    0    0  503  501  0.00000000000E+00  0.00000000000E+00  0.35590330841E+03  0.35590330841E+03  0.00000000000E+00 0. -1.
         21   -1    0    0  504  502 -0.00000000000E+00 -0.00000000000E+00 -0.60883975476E+02  0.60883975476E+02  0.00000000000E+00 0.  1.
         21    1    1    2  503  502 -0.15246675288E+02 -0.27557181587E+02  0.35107797987E+03  0.35248774065E+03  0.00000000000E+00 0. -1.
         21    1    1    2  504  501  0.15246675288E+02  0.27557181587E+02 -0.56058646930E+02  0.64299543233E+02  0.00000000000E+00 0.  1.
<mgrwt>
<rscale>  2 0.31493799E+02</rscale>
<asrwt>0</asrwt>
<pdfrwt beam="1">  1       21 0.54754354E-01 0.31493799E+02</pdfrwt>
<pdfrwt beam="2">  1       21 0.93667657E-02 0.31493799E+02</pdfrwt>
<totfact> 0.29323236E+05</totfact>
</mgrwt>
</event>
<event>
 4    1  0.4578942E+006  0.2130122E+02  0.7546771E-02  0.1720625E+00
         21   -1    0    0  504  501  0.00000000000E+00  0.00000000000E+00  0.43629122376E+01  0.43629122376E+01  0.00000000000E+00 0.  1.
         21   -1    0    0  503  502 -0.00000000000E+00 -0.00000000000E+00 -0.16660826582E+03  0.16660826582E+03  0.00000000000E+00 0.  1.
         21    1    1    2  503  501  0.21268417584E+02 -0.11816598826E+01 -0.13352629112E+03  0.13521468976E+03  0.00000000000E+00 0.  1.
         21    1    1    2  504  502 -0.21268417584E+02  0.11816598826E+01 -0.28719062458E+02  0.35756488293E+02  0.00000000000E+00 0.  1.
<mgrwt>
<rscale>  2 0.21301218E+02</rscale>
<asrwt>0</asrwt>
<pdfrwt beam="1">  1       21 0.67121730E-03 0.21301218E+02</pdfrwt>
<pdfrwt beam="2">  1       21 0.25632039E-01 0.21301218E+02</pdfrwt>
<totfact> 0.70655422E+07</totfact>
</mgrwt>
</event>
<event>
 4    1  0.4578942E+006  0.2853019E+02  0.7546771E-02  0.1614928E+00
         21   -1    0    0  504  501  0.00000000000E+00  0.00000000000E+00  0.72527356020E+01  0.72527356020E+01  0.00000000000E+00 0.  1.
         21   -1    0    0  503  502 -0.00000000000E+00 -0.00000000000E+00 -0.62774619787E+03  0.62774619787E+03  0.00000000000E+00 0.  1.
         21    1    1    2  503  501 -0.28498338416E+02 -0.13477695405E+01 -0.22525260292E+02  0.36350503799E+02  0.00000000000E+00 0.  1.
         21    1    1    2  504  502  0.28498338416E+02  0.13477695405E+01 -0.59796820197E+03  0.59864842967E+03  0.00000000000E+00 0.  1.
<mgrwt>
<rscale>  2 0.28530191E+02</rscale>
<asrwt>0</asrwt>
<pdfrwt beam="1">  1       21 0.11158056E-02 0.28530191E+02</pdfrwt>
<pdfrwt beam="2">  1       21 0.96576331E-01 0.28530191E+02</pdfrwt>
<totfact> 0.25805960E+06</totfact>
</mgrwt>
</event>
<event>
 4    1  0.4578942E+006  0.2960161E+02  0.7546771E-02  0.1602535E+00
         21   -1    0    0  503  501  0.00000000000E+00  0.00000000000E+00  0.11160037406E+02  0.11160037406E+02  0.00000000000E+00 0.  1.
         21   -1    0    0  504  502 -0.00000000000E+00 -0.00000000000E+00 -0.24360376908E+03  0.24360376908E+03  0.00000000000E+00 0.  1.
         21    1    1    2  503  502 -0.17522913146E+02  0.23857966244E+02 -0.22108469849E+03  0.22305761351E+03  0.00000000000E+00 0.  1.
         21    1    1    2  504  501  0.17522913146E+02 -0.23857966244E+02 -0.11359033190E+02  0.31706192982E+02  0.00000000000E+00 0.  1.
<mgrwt>
<rscale>  2 0.29601605E+02</rscale>
<asrwt>0</asrwt>
<pdfrwt beam="1">  1       21 0.17169290E-02 0.29601605E+02</pdfrwt>
<pdfrwt beam="2">  1       21 0.37477500E-01 0.29601605E+02</pdfrwt>
<totfact> 0.91355811E+06</totfact>
</mgrwt>
</event>
<event>
 4    1  0.4578942E+006  0.2139376E+02  0.7546771E-02  0.1718953E+00
         21   -1    0    0  503  501  0.00000000000E+00  0.00000000000E+00  0.13926633876E+03  0.13926633876E+03  0.00000000000E+00 0.  1.
         21   -1    0    0  504  502 -0.00000000000E+00 -0.00000000000E+00 -0.41493429261E+01  0.41493429261E+01  0.00000000000E+00 0.  1.
         21    1    1    2  503  502  0.13489391415E+02  0.16605097586E+02  0.10025892845E+03  0.10251607523E+03  0.00000000000E+00 0.  1.
         21    1    1    2  504  501 -0.13489391415E+02 -0.16605097586E+02  0.34858067386E+02  0.40899606459E+02  0.00000000000E+00 0.  1.
<mgrwt>
<rscale>  2 0.21393760E+02</rscale>
<asrwt>0</asrwt>
<pdfrwt beam="1">  1       21 0.21425587E-01 0.21393760E+02</pdfrwt>
<pdfrwt beam="2">  1       21 0.63836056E-03 0.21393760E+02</pdfrwt>
<totfact> 0.10456915E+08</totfact>
</mgrwt>
</event>
<event>
 4    1  0.4578942E+006  0.4765076E+02  0.7546771E-02  0.1458441E+00
         21   -1    0    0  502  501  0.00000000000E+00  0.00000000000E+00  0.63399951511E+02  0.63399951511E+02  0.00000000000E+00 0. -1.
         21   -1    0    0  503  502 -0.00000000000E+00 -0.00000000000E+00 -0.68579206930E+02  0.68579206930E+02  0.00000000000E+00 0. -1.
         21    1    1    2  503  504 -0.29798824632E+02 -0.37183670951E+02 -0.48202423006E+02  0.67779561215E+02  0.00000000000E+00 0. -1.
         21    1    1    2  504  501  0.29798824632E+02  0.37183670951E+02  0.43023167587E+02  0.64199597226E+02  0.00000000000E+00 0. -1.
<mgrwt>
<rscale>  2 0.47650764E+02</rscale>
<asrwt>0</asrwt>
<pdfrwt beam="1">  1       21 0.97538387E-02 0.47650764E+02</pdfrwt>
<pdfrwt beam="2">  1       21 0.10550647E-01 0.47650764E+02</pdfrwt>
<totfact> 0.56914892E+06</totfact>
</mgrwt>
</event>
<event>
 4    1  0.4578942E+006  0.3723793E+02  0.7546771E-02  0.1529580E+00
         21   -1    0    0  504  501  0.00000000000E+00  0.00000000000E+00  0.61062950235E+02  0.61062950235E+02  0.00000000000E+00 0.  1.
         21   -1    0    0  501  502 -0.00000000000E+00 -0.00000000000E+00 -0.52637483822E+02  0.52637483822E+02  0.00000000000E+00 0.  1.
         21    1    1    2  503  502  0.12185203655E+02 -0.35187845345E+02 -0.38654819805E+02  0.53673631723E+02  0.00000000000E+00 0.  1.
         21    1    1    2  504  503 -0.12185203655E+02  0.35187845345E+02  0.47080286217E+02  0.60026802334E+02  0.00000000000E+00 0.  1.
<mgrwt>
<rscale>  2 0.37237933E+02</rscale>
<asrwt>0</asrwt>
<pdfrwt beam="1">  1       21 0.93943001E-02 0.37237933E+02</pdfrwt>
<pdfrwt beam="2">  1       21 0.80980744E-02 0.37237933E+02</pdfrwt>
<totfact> 0.91877698E+06</totfact>
</mgrwt>
</event>
<event>
 4    1  0.4578942E+006  0.2614130E+02  0.7546771E-02  0.1645130E+00
         21   -1    0    0  503  501  0.00000000000E+00  0.00000000000E+00  0.10124767839E+02  0.10124767839E+02  0.00000000000E+00 0.  1.
         21   -1    0    0  501  502 -0.00000000000E+00 -0.00000000000E+00 -0.67900989112E+02  0.67900989112E+02  0.00000000000E+00 0.  1.
         21    1    1    2  503  504  0.24578563356E+02 -0.89028964177E+01 -0.25870027733E+02  0.36778059712E+02  0.00000000000E+00 0.  1.
         21    1    1    2  504  502 -0.24578563356E+02  0.89028964177E+01 -0.31906193541E+02  0.41247697239E+02  0.00000000000E+00 0.  1.
<mgrwt>
<rscale>  2 0.26141296E+02</rscale>
<asrwt>0</asrwt>
<pdfrwt beam="1">  1       21 0.15576566E-02 0.26141296E+02</pdfrwt>
<pdfrwt beam="2">  1       21 0.10446306E-01 0.26141296E+02</pdfrwt>
<totfact> 0.98372342E+07</totfact>
</mgrwt>
</event>
<event>
 4    1  0.4578942E+006  0.3923394E+02  0.7546771E-02  0.1513926E+00
         21   -1    0    0  502  501  0.00000000000E+00  0.00000000000E+00  0.57135133201E+01  0.57135133201E+01  0.00000000000E+00 0. -1.
         21   -1    0    0  504  502 -0.00000000000E+00 -0.00000000000E+00 -0.33814675252E+03  0.33814675252E+03  0.00000000000E+00 0.  1.
         21    1    1    2  503  501 -0.80489574244E+01 -0.38399428566E+02 -0.88702555294E+02  0.96991984955E+02  0.00000000000E+00 0. -1.
         21    1    1    2  504  503  0.80489574244E+01  0.38399428566E+02 -0.24373068390E+03  0.24686828088E+03  0.00000000000E+00 0.  1.
<mgrwt>
<rscale>  2 0.39233937E+02</rscale>
<asrwt>0</asrwt>
<pdfrwt beam="1">  1       21 0.87900176E-03 0.39233937E+02</pdfrwt>
<pdfrwt beam="2">  1       21 0.52022595E-01 0.39233937E+02</pdfrwt>
<totfact> 0.14029530E+07</totfact>
</mgrwt>
</event>
<event>
 4    1  0.4578942E+006  0.2052846E+02  0.7546771E-02  0.1735019E+00
         21   -1    0    0  504  501  0.00000000000E+00  0.00000000000E+00  0.39208097474E+01  0.39208097474E+01  0.00000000000E+00 0.  1.
         21   -1    0    0  503  502 -0.00000000000E+00 -0.00000000000E+00 -0.10779344467E+03  0.10779344467E+03  0.00000000000E+00 0.  1.
         21    1    1    2  503  501 -0.19477213683E+02 -0.64850540909E+01 -0.48935493734E+02  0.53066941936E+02  0.00000000000E+00 0.  1.
         21    1    1    2  504  502  0.19477213683E+02  0.64850540909E+01 -0.54937141193E+02  0.58647312486E+02  0.00000000000E+00 0.  1.
<mgrwt>
<rscale>  2 0.20528463E+02</rscale>
<asrwt>0</asrwt>
<pdfrwt beam="1">  1       21 0.60320152E-03 0.20528463E+02</pdfrwt>
<pdfrwt beam="2">  1       21 0.16583606E-01 0.20528463E+02</pdfrwt>
<totfact> 0.17490600E+08</totfact>
</mgrwt>
</event>
<event>
 4    1  0.4578942E+006  0.2271556E+02  0.7546771E-02  0.1696163E+00
         21   -1    0    0  503  501  0.00000000000E+00  0.00000000000E+00  0.49906407838E+02  0.49906407838E+02  0.00000000000E+00 0.  1.
         21   -1    0    0  504  502 -0.00000000000E+00 -0.00000000000E+00 -0.14254211740E+02  0.14254211740E+02  0.00000000000E+00 0.  1.
         21    1    1    2  503  502  0.18882265771E+02 -0.12627618706E+02  0.34638455451E+02  0.41422449359E+02  0.00000000000E+00 0.  1.
         21    1    1    2  504  501 -0.18882265771E+02  0.12627618706E+02  0.10137406463E+01  0.22738170219E+02  0.00000000000E+00 0.  1.
<mgrwt>
<rscale>  2 0.22715561E+02</rscale>
<asrwt>0</asrwt>
<pdfrwt beam="1">  1       21 0.76779088E-02 0.22715561E+02</pdfrwt>
<pdfrwt beam="2">  1       21 0.21929557E-02 0.22715561E+02</pdfrwt>
<totfact> 0.93030767E+07</totfact>
</mgrwt>
</event>
<event>
 4    1  0.4578942E+006  0.2517992E+02  0.7546771E-02  0.1658431E+00
         21   -1    0    0  503  501  0.00000000000E+00  0.00000000000E+00  0.29587033296E+02  0.29587033296E+02  0.00000000000E+00 0.  1.
         21   -1    0    0  504  502 -0.00000000000E+00 -0.00000000000E+00 -0.50197151544E+02  0.50197151544E+02  0.00000000000E+00 0.  1.
         21    1    1    2  503  502  0.20413884951E+02  0.14741147770E+02 -0.40504668099E+02  0.47693356709E+02  0.00000000000E+00 0.  1.
         21    1    1    2  504  501 -0.20413884951E+02 -0.14741147770E+02  0.19894549851E+02  0.32090828131E+02  0.00000000000E+00 0.  1.
<mgrwt>
<rscale>  2 0.25179915E+02</rscale>
<asrwt>0</asrwt>
<pdfrwt beam="1">  1       21 0.45518513E-02 0.25179915E+02</pdfrwt>
<pdfrwt beam="2">  1       21 0.77226387E-02 0.25179915E+02</pdfrwt>
<totfact> 0.30208362E+07</totfact>
</mgrwt>
</event>
<event>
 4    1  0.4578942E+006  0.3948000E+02  0.7546771E-02  0.1512073E+00
         21   -1    0    0  503  501  0.00000000000E+00  0.00000000000E+00  0.45255958431E+01  0.45255958431E+01  0.00000000000E+00 0.  1.
         21   -1    0    0  504  502 -0.00000000000E+00 -0.00000000000E+00 -0.95001730709E+03  0.95001730709E+03  0.00000000000E+00 0. -1.
         21    1    1    2  503  502 -0.14090434260E+02 -0.36879937312E+02 -0.85380684219E+03  0.85471913158E+03  0.00000000000E+00 0. -1.
         21    1    1    2  504  501  0.14090434260E+02  0.36879937312E+02 -0.91684869058E+02  0.99823771357E+02  0.00000000000E+00 0.  1.
<mgrwt>
<rscale>  2 0.39479996E+02</rscale>
<asrwt>0</asrwt>
<pdfrwt beam="1">  1       21 0.69624454E-03 0.39479996E+02</pdfrwt>
<pdfrwt beam="2">  1       21 0.14615671E+00 0.39479996E+02</pdfrwt>
<totfact> 0.20790447E+06</totfact>
</mgrwt>
</event>
<event>
 4    1  0.4578942E+006  0.2105491E+02  0.7546771E-02  0.1725129E+00
         21   -1    0    0  504  501  0.00000000000E+00  0.00000000000E+00  0.13299031249E+03  0.13299031249E+03  0.00000000000E+00 0. -1.
         21   -1    0    0  503  502 -0.00000000000E+00 -0.00000000000E+00 -0.65350482045E+01  0.65350482045E+01  0.00000000000E+00 0.  1.
         21    1    1    2  503  501  0.14045206874E+02 -0.15685701305E+02  0.11205755038E+03  0.11401843561E+03  0.00000000000E+00 0. -1.
         21    1    1    2  504  502 -0.14045206874E+02  0.15685701305E+02  0.14397713904E+02  0.25506925084E+02  0.00000000000E+00 0.  1.
<mgrwt>
<rscale>  2 0.21054906E+02</rscale>
<asrwt>0</asrwt>
<pdfrwt beam="1">  1       21 0.20460046E-01 0.21054906E+02</pdfrwt>
<pdfrwt beam="2">  1       21 0.10053921E-02 0.21054906E+02</pdfrwt>
<totfact> 0.57387808E+07</totfact>
</mgrwt>
</event>
<event>
 4    1  0.4578942E+006  0.2396369E+02  0.7546771E-02  0.1676349E+00
         21   -1    0    0  503  501  0.00000000000E+00  0.00000000000E+00  0.92950445403E+01  0.92950445403E+01  0.00000000000E+00 0. -1.
         21   -1    0    0  504  502 -0.00000000000E+00 -0.00000000000E+00 -0.63755051312E+02  0.63755051312E+02  0.00000000000E+00 0. -1.
         21    1    1    2  503  502 -0.23183112836E+02 -0.60664462627E+01 -0.33656833266E+02  0.41316351684E+02  0.00000000000E+00 0. -1.
         21    1    1    2  504  501  0.23183112836E+02  0.60664462627E+01 -0.20803173505E+02  0.31733744168E+02  0.00000000000E+00 0. -1.
<mgrwt>
<rscale>  2 0.23963691E+02</rscale>
<asrwt>0</asrwt>
<pdfrwt beam="1">  1       21 0.14300068E-02 0.23963691E+02</pdfrwt>
<pdfrwt beam="2">  1       21 0.98084696E-02 0.23963691E+02</pdfrwt>
<totfact> 0.12154669E+08</totfact>
</mgrwt>
</event>
<event>
 4    1  0.4578942E+006  0.3714647E+02  0.7546771E-02  0.1530326E+00
         21   -1    0    0  504  501  0.00000000000E+00  0.00000000000E+00  0.27687655321E+03  0.27687655321E+03  0.00000000000E+00 0.  1.
         21   -1    0    0  503  502 -0.00000000000E+00 -0.00000000000E+00 -0.51828829733E+02  0.51828829733E+02  0.00000000000E+00 0.  1.
         21    1    1    2  503  501 -0.97174377112E+00  0.37133753023E+02 -0.43727390250E+02  0.57375469999E+02  0.00000000000E+00 0.  1.
         21    1    1    2  504  502  0.97174377112E+00 -0.37133753023E+02  0.26877511373E+03  0.27132991295E+03  0.00000000000E+00 0.  1.
<mgrwt>
<rscale>  2 0.37146466E+02</rscale>
<asrwt>0</asrwt>
<pdfrwt beam="1">  1       21 0.42596392E-01 0.37146466E+02</pdfrwt>
<pdfrwt beam="2">  1       21 0.79736663E-02 0.37146466E+02</pdfrwt>
<totfact> 0.63142105E+05</totfact>
</mgrwt>
</event>
<event>
 4    1  0.4578942E+006  0.2835103E+02  0.7546771E-02  0.1617065E+00
         21   -1    0    0  504  501  0.00000000000E+00  0.00000000000E+00  0.10747680093E+03  0.10747680093E+03  0.00000000000E+00 0.  1.
         21   -1    0    0  503  502 -0.00000000000E+00 -0.00000000000E+00 -0.72060937368E+02  0.72060937368E+02  0.00000000000E+00 0. -1.
         21    1    1    2  503  501 -0.23942374269E+01  0.28249750862E+02  0.10269102416E+03  0.10653275196E+03  0.00000000000E+00 0.  1.
         21    1    1    2  504  502  0.23942374269E+01 -0.28249750862E+02 -0.67275160599E+02  0.73004986338E+02  0.00000000000E+00 0. -1.
<mgrwt>
<rscale>  2 0.28351028E+02</rscale>
<asrwt>0</asrwt>
<pdfrwt beam="1">  1       21 0.16534892E-01 0.28351028E+02</pdfrwt>
<pdfrwt beam="2">  1       21 0.11086298E-01 0.28351028E+02</pdfrwt>
<totfact> 0.20065293E+06</totfact>
</mgrwt>
</event>
<event>
 4    1  0.4578942E+006  0.2440438E+02  0.7546771E-02  0.1669707E+00
         21   -1    0    0  504  501  0.00000000000E+00  0.00000000000E+00  0.91856284563E+01  0.91856284563E+01  0.00000000000E+00 0. -1.
         21   -1    0    0  503  502 -0.00000000000E+00 -0.00000000000E+00 -0.27893498722E+03  0.27893498722E+03  0.00000000000E+00 0.  1.
         21    1    1    2  503  501 -0.23812578439E+02  0.53418111767E+01 -0.26108607103E+03  0.26222416045E+03  0.00000000000E+00 0.  1.
         21    1    1    2  504  502  0.23812578439E+02 -0.53418111767E+01 -0.86632877255E+01  0.25896455217E+02  0.00000000000E+00 0. -1.
<mgrwt>
<rscale>  2 0.24404382E+02</rscale>
<asrwt>0</asrwt>
<pdfrwt beam="1">  1       21 0.14131738E-02 0.24404382E+02</pdfrwt>
<pdfrwt beam="2">  1       21 0.42913069E-01 0.24404382E+02</pdfrwt>
<totfact> 0.92252352E+06</totfact>
</mgrwt>
</event>
<event>
 4    1  0.4578942E+006  0.2102854E+02  0.7546771E-02  0.1725615E+00
         21   -1    0    0  502  501  0.00000000000E+00  0.00000000000E+00  0.50960378197E+02  0.50960378197E+02  0.00000000000E+00 0.  1.
         21   -1    0    0  504  502 -0.00000000000E+00 -0.00000000000E+00 -0.20488559249E+02  0.20488559249E+02  0.00000000000E+00 0.  1.
         21    1    1    2  503  501 -0.15386455375E+02 -0.14333754361E+02  0.42360163133E+02  0.47292525242E+02  0.00000000000E+00 0.  1.
         21    1    1    2  504  503  0.15386455375E+02  0.14333754361E+02 -0.11888344185E+02  0.24156412204E+02  0.00000000000E+00 0.  1.
<mgrwt>
<rscale>  2 0.21028541E+02</rscale>
<asrwt>0</asrwt>
<pdfrwt beam="1">  1       21 0.78400581E-02 0.21028541E+02</pdfrwt>
<pdfrwt beam="2">  1       21 0.31520861E-02 0.21028541E+02</pdfrwt>
<totfact> 0.50232261E+07</totfact>
</mgrwt>
</event>
<event>
 4    1  0.4578942E+006  0.2130593E+02  0.7546771E-02  0.1720540E+00
         21   -1    0    0  504  501  0.00000000000E+00  0.00000000000E+00  0.41024014781E+02  0.41024014781E+02  0.00000000000E+00 0. -1.
         21   -1    0    0  503  502 -0.00000000000E+00 -0.00000000000E+00 -0.14265675763E+02  0.14265675763E+02  0.00000000000E+00 0. -1.
         21    1    1    2  503  501 -0.19027761645E+02  0.95857684103E+01  0.28526789346E+00  0.21307840036E+02  0.00000000000E+00 0. -1.
         21    1    1    2  504  502  0.19027761645E+02 -0.95857684103E+01  0.26473071125E+02  0.33981850509E+02  0.00000000000E+00 0. -1.
<mgrwt>
<rscale>  2 0.21305930E+02</rscale>
<asrwt>0</asrwt>
<pdfrwt beam="1">  1       21 0.63113868E-02 0.21305930E+02</pdfrwt>
<pdfrwt beam="2">  1       21 0.21947194E-02 0.21305930E+02</pdfrwt>
<totfact> 0.12517152E+08</totfact>
</mgrwt>
</event>
<event>
 4    1  0.4578942E+006  0.7018518E+02  0.7546771E-02  0.1359464E+00
         21   -1    0    0  504  501  0.00000000000E+00  0.00000000000E+00  0.16224589928E+03  0.16224589928E+03  0.00000000000E+00 0.  1.
         21   -1    0    0  503  502 -0.00000000000E+00 -0.00000000000E+00 -0.43479146124E+02  0.43479146124E+02  0.00000000000E+00 0.  1.
         21    1    1    2  503  501 -0.63701299074E+02 -0.29463602021E+02  0.11588380184E+03  0.13548068082E+03  0.00000000000E+00 0.  1.
         21    1    1    2  504  502  0.63701299074E+02  0.29463602021E+02  0.28829513228E+01  0.70244364586E+02  0.00000000000E+00 0.  1.
<mgrwt>
<rscale>  2 0.70185179E+02</rscale>
<asrwt>0</asrwt>
<pdfrwt beam="1">  1       21 0.24960907E-01 0.70185179E+02</pdfrwt>
<pdfrwt beam="2">  1       21 0.66890995E-02 0.70185179E+02</pdfrwt>
<totfact> 0.24037304E+06</totfact>
</mgrwt>
</event>
<event>
 4    1  0.4578942E+006  0.2310874E+02  0.7546771E-02  0.1689753E+00
         21   -1    0    0  504  501  0.00000000000E+00  0.00000000000E+00  0.10712296713E+01  0.10712296713E+01  0.00000000000E+00 0.  1.
         21   -1    0    0  503  502 -0.00000000000E+00 -0.00000000000E+00 -0.90054795234E+03  0.90054795234E+03  0.00000000000E+00 0.  1.
         21    1    1    2  503  501 -0.16973028571E+01  0.23046326700E+02 -0.14852403943E+03  0.15031102521E+03  0.00000000000E+00 0.  1.
         21    1    1    2  504  502  0.16973028571E+01 -0.23046326700E+02 -0.75095268324E+03  0.75130815681E+03  0.00000000000E+00 0.  1.
<mgrwt>
<rscale>  2 0.23108743E+02</rscale>
<asrwt>0</asrwt>
<pdfrwt beam="1">  1       21 0.16480461E-03 0.23108743E+02</pdfrwt>
<pdfrwt beam="2">  1       21 0.13854580E+00 0.23108743E+02</pdfrwt>
<totfact> 0.18648702E+07</totfact>
</mgrwt>
</event>
<event>
 4    1  0.4578942E+006  0.3386439E+02  0.7546771E-02  0.1558923E+00
         21   -1    0    0  504  501  0.00000000000E+00  0.00000000000E+00  0.10968716525E+02  0.10968716525E+02  0.00000000000E+00 0.  1.
         21   -1    0    0  501  502 -0.00000000000E+00 -0.00000000000E+00 -0.10534282629E+03  0.10534282629E+03  0.00000000000E+00 0. -1.
         21    1    1    2  503  502  0.33431655855E+02  0.53964307246E+01 -0.52227110293E+02  0.62245225740E+02  0.00000000000E+00 0. -1.
         21    1    1    2  504  503 -0.33431655855E+02 -0.53964307246E+01 -0.42146999476E+02  0.54066317080E+02  0.00000000000E+00 0.  1.
<mgrwt>
<rscale>  2 0.33864392E+02</rscale>
<asrwt>0</asrwt>
<pdfrwt beam="1">  1       21 0.16874948E-02 0.33864392E+02</pdfrwt>
<pdfrwt beam="2">  1       21 0.16206589E-01 0.33864392E+02</pdfrwt>
<totfact> 0.43711046E+07</totfact>
</mgrwt>
</event>
<event>
 4    1  0.4578942E+006  0.2204490E+02  0.7546771E-02  0.1707477E+00
         21   -1    0    0  504  501  0.00000000000E+00  0.00000000000E+00  0.15699920522E+02  0.15699920522E+02  0.00000000000E+00 0. -1.
         21   -1    0    0  501  502 -0.00000000000E+00 -0.00000000000E+00 -0.60555497072E+02  0.60555497072E+02  0.00000000000E+00 0.  1.
         21    1    1    2  503  502 -0.16321824923E+02 -0.14818078558E+02 -0.49085310921E+02  0.53808411695E+02  0.00000000000E+00 0.  1.
         21    1    1    2  504  503  0.16321824923E+02  0.14818078558E+02  0.42297343711E+01  0.22447005899E+02  0.00000000000E+00 0. -1.
<mgrwt>
<rscale>  2 0.22044896E+02</rscale>
<asrwt>0</asrwt>
<pdfrwt beam="1">  1       21 0.24153724E-02 0.22044896E+02</pdfrwt>
<pdfrwt beam="2">  1       21 0.93162303E-02 0.22044896E+02</pdfrwt>
<totfact> 0.57950368E+07</totfact>
</mgrwt>
</event>
<event>
 4    1  0.4578942E+006  0.2351858E+02  0.7546771E-02  0.1683239E+00
         21   -1    0    0  504  501  0.00000000000E+00  0.00000000000E+00  0.21506473921E+02  0.21506473921E+02  0.00000000000E+00 0.  1.
         21   -1    0    0  503  502 -0.00000000000E+00 -0.00000000000E+00 -0.49633600262E+03  0.49633600262E+03  0.00000000000E+00 0. -1.
         21    1    1    2  503  501  0.13198410936E+02 -0.19466008864E+02 -0.48953843645E+03  0.49010305479E+03  0.00000000000E+00 0. -1.
         21    1    1    2  504  502 -0.13198410936E+02  0.19466008864E+02  0.14708907745E+02  0.27739421756E+02  0.00000000000E+00 0.  1.
<mgrwt>
<rscale>  2 0.23518579E+02</rscale>
<asrwt>0</asrwt>
<pdfrwt beam="1">  1       21 0.33086884E-02 0.23518579E+02</pdfrwt>
<pdfrwt beam="2">  1       21 0.76359383E-01 0.23518579E+02</pdfrwt>
<totfact> 0.78581306E+05</totfact>
</mgrwt>
</event>
<event>
 4    1  0.4578942E+006  0.2147155E+02  0.7546771E-02  0.1717555E+00
         21   -1    0    0  503  501  0.00000000000E+00  0.00000000000E+00  0.47646894004E+01  0.47646894004E+01  0.00000000000E+00 0. -1.
         21   -1    0    0  504  502 -0.00000000000E+00 -0.00000000000E+00 -0.99011442411E+02  0.99011442411E+02  0.00000000000E+00 0. -1.
         21    1    1    2  503  502  0.10148998494E+02 -0.18921560623E+02 -0.54949207938E+02  0.58995280149E+02  0.00000000000E+00 0. -1.
         21    1    1    2  504  501 -0.10148998494E+02  0.18921560623E+02 -0.39297545072E+02  0.44780851662E+02  0.00000000000E+00 0. -1.
<mgrwt>
<rscale>  2 0.21471554E+02</rscale>
<asrwt>0</asrwt>
<pdfrwt beam="1">  1       21 0.73302914E-03 0.21471554E+02</pdfrwt>
<pdfrwt beam="2">  1       21 0.15232530E-01 0.21471554E+02</pdfrwt>
<totfact> 0.15354882E+08</totfact>
</mgrwt>
</event>
<event>
 4    1  0.4578942E+006  0.2300299E+02  0.7546771E-02  0.1691462E+00
         21   -1    0    0  504  501  0.00000000000E+00  0.00000000000E+00  0.22318835219E+01  0.22318835219E+01  0.00000000000E+00 0.  1.
         21   -1    0    0  501  502 -0.00000000000E+00 -0.00000000000E+00 -0.56328765050E+03  0.56328765050E+03  0.00000000000E+00 0. -1.
         21    1    1    2  503  502 -0.20800204490E+02  0.98228879499E+01 -0.49570633074E+03  0.49623976460E+03  0.00000000000E+00 0. -1.
         21    1    1    2  504  503  0.20800204490E+02 -0.98228879499E+01 -0.65349436236E+02  0.69279769420E+02  0.00000000000E+00 0.  1.
<mgrwt>
<rscale>  2 0.23002992E+02</rscale>
<asrwt>0</asrwt>
<pdfrwt beam="1">  1       21 0.34336678E-03 0.23002992E+02</pdfrwt>
<pdfrwt beam="2">  1       21 0.86659616E-01 0.23002992E+02</pdfrwt>
<totfact> 0.18276010E+07</totfact>
</mgrwt>
</event>
<event>
 4    1  0.4578942E+006  0.3946866E+02  0.7546771E-02  0.1512158E+00
         21   -1    0    0  504  501  0.00000000000E+00  0.00000000000E+00  0.86468582185E+02  0.86468582185E+02  0.00000000000E+00 0.  1.
         21   -1    0    0  503  502 -0.00000000000E+00 -0.00000000000E+00 -0.44025302541E+02  0.44025302541E+02  0.00000000000E+00 0.  1.
         21    1    1    2  503  501 -0.37841854659E+02  0.11214683185E+02  0.71372395855E+02  0.81558530965E+02  0.00000000000E+00 0.  1.
         21    1    1    2  504  502  0.37841854659E+02 -0.11214683185E+02 -0.28929116211E+02  0.48935353761E+02  0.00000000000E+00 0.  1.
<mgrwt>
<rscale>  2 0.39468660E+02</rscale>
<asrwt>0</asrwt>
<pdfrwt beam="1">  1       21 0.13302859E-01 0.39468660E+02</pdfrwt>
<pdfrwt beam="2">  1       21 0.67731235E-02 0.39468660E+02</pdfrwt>
<totfact> 0.68899573E+06</totfact>
</mgrwt>
</event>
<event>
 4    1  0.4578942E+006  0.3207451E+02  0.7546771E-02  0.1576228E+00
         21   -1    0    0  503  501  0.00000000000E+00  0.00000000000E+00  0.18923466366E+01  0.18923466366E+01  0.00000000000E+00 0. -1.
         21   -1    0    0  504  502 -0.00000000000E+00 -0.00000000000E+00 -0.58563682011E+03  0.58563682011E+03  0.00000000000E+00 0. -1.
         21    1    1    2  503  502 -0.22158305663E+02 -0.23190164641E+02 -0.21321444511E+03  0.21561348253E+03  0.00000000000E+00 0. -1.
         21    1    1    2  504  501  0.22158305663E+02  0.23190164641E+02 -0.37053002836E+03  0.37191568421E+03  0.00000000000E+00 0. -1.
<mgrwt>
<rscale>  2 0.32074511E+02</rscale>
<asrwt>0</asrwt>
<pdfrwt beam="1">  1       21 0.29113031E-03 0.32074511E+02</pdfrwt>
<pdfrwt beam="2">  1       21 0.90097955E-01 0.32074511E+02</pdfrwt>
<totfact> 0.22677724E+07</totfact>
</mgrwt>
</event>
<event>
 4    1  0.4578942E+006  0.2081240E+02  0.7546771E-02  0.1729639E+00
         21   -1    0    0  503  501  0.00000000000E+00  0.00000000000E+00  0.10911946567E+04  0.10911946567E+04  0.00000000000E+00 0. -1.
         21   -1    0    0  504  502 -0.00000000000E+00 -0.00000000000E+00 -0.44352347474E+00  0.44352347474E+00  0.00000000000E+00 0.  1.
         21    1    1    2  503  502 -0.91489227584E+01  0.18693669426E+02  0.72223678889E+03  0.72253659789E+03  0.00000000000E+00 0. -1.
         21    1    1    2  504  501  0.91489227584E+01 -0.18693669426E+02  0.36851434431E+03  0.36910158226E+03  0.00000000000E+00 0.  1.
<mgrwt>
<rscale>  2 0.20812402E+02</rscale>
<asrwt>0</asrwt>
<pdfrwt beam="1">  1       21 0.16787395E+00 0.20812402E+02</pdfrwt>
<pdfrwt beam="2">  1       21 0.68235254E-04 0.20812402E+02</pdfrwt>
<totfact> 0.40677036E+07</totfact>
</mgrwt>
</event>
<event>
 4    1  0.4578942E+006  0.2243071E+02  0.7546771E-02  0.1700908E+00
         21   -1    0    0  504  501  0.00000000000E+00  0.00000000000E+00  0.31741724906E+01  0.31741724906E+01  0.00000000000E+00 0. -1.
         21   -1    0    0  501  502 -0.00000000000E+00 -0.00000000000E+00 -0.54225133621E+03  0.54225133621E+03  0.00000000000E+00 0. -1.
         21    1    1    2  503  502  0.98501635735E+01 -0.20152195813E+02 -0.49895509196E+03  0.49945902786E+03  0.00000000000E+00 0. -1.
         21    1    1    2  504  503 -0.98501635735E+01  0.20152195813E+02 -0.40122071755E+02  0.45966480836E+02  0.00000000000E+00 0. -1.
<mgrwt>
<rscale>  2 0.22430709E+02</rscale>
<asrwt>0</asrwt>
<pdfrwt beam="1">  1       21 0.48833471E-03 0.22430709E+02</pdfrwt>
<pdfrwt beam="2">  1       21 0.83423200E-01 0.22430709E+02</pdfrwt>
<totfact> 0.11761731E+07</totfact>
</mgrwt>
</event>
<event>
 4    1  0.4578942E+006  0.2149813E+02  0.7546771E-02  0.1717079E+00
         21   -1    0    0  503  501  0.00000000000E+00  0.00000000000E+00  0.15176978105E+03  0.15176978105E+03  0.00000000000E+00 0. -1.
         21   -1    0    0  504  502 -0.00000000000E+00 -0.00000000000E+00 -0.13661106645E+02  0.13661106645E+02  0.00000000000E+00 0. -1.
         21    1    1    2  503  502 -0.18769945231E+02  0.10481351880E+02  0.14197022637E+03  0.14358869996E+03  0.00000000000E+00 0. -1.
         21    1    1    2  504  501  0.18769945231E+02 -0.10481351880E+02 -0.38615519687E+01  0.21842187729E+02  0.00000000000E+00 0. -1.
<mgrwt>
<rscale>  2 0.21498130E+02</rscale>
<asrwt>0</asrwt>
<pdfrwt beam="1">  1       21 0.23349196E-01 0.21498130E+02</pdfrwt>
<pdfrwt beam="2">  1       21 0.21017088E-02 0.21498130E+02</pdfrwt>
<totfact> 0.14974480E+07</totfact>
</mgrwt>
</event>
<event>
 4    1  0.4578942E+006  0.2011904E+02  0.7546771E-02  0.1742971E+00
         21   -1    0    0  504  501  0.00000000000E+00  0.00000000000E+00  0.35782459839E+03  0.35782459839E+03  0.00000000000E+00 0. -1.
         21   -1    0    0  503  502 -0.00000000000E+00 -0.00000000000E+00 -0.67527324481E+01  0.67527324481E+01  0.00000000000E+00 0.  1.
         21    1    1    2  503  501  0.67733899143E+00 -0.20107638174E+02  0.34185680213E+03  0.34244831590E+03  0.00000000000E+00 0. -1.
         21    1    1    2  504  502 -0.67733899143E+00  0.20107638174E+02  0.92150638126E+01  0.22129014937E+02  0.00000000000E+00 0.  1.
<mgrwt>
<rscale>  2 0.20119043E+02</rscale>
<asrwt>0</asrwt>
<pdfrwt beam="1">  1       21 0.55049923E-01 0.20119043E+02</pdfrwt>
<pdfrwt beam="2">  1       21 0.10388822E-02 0.20119043E+02</pdfrwt>
<totfact> 0.87566816E+06</totfact>
</mgrwt>
</event>
<event>
 4    1  0.4578942E+006  0.2650521E+02  0.7546771E-02  0.1640278E+00
         21   -1    0    0  504  501  0.00000000000E+00  0.00000000000E+00  0.30086878025E+03  0.30086878025E+03  0.00000000000E+00 0.  1.
         21   -1    0    0  503  502 -0.00000000000E+00 -0.00000000000E+00 -0.23474227331E+01  0.23474227331E+01  0.00000000000E+00 0.  1.
         21    1    1    2  503  501 -0.26245527800E+02 -0.37011413252E+01  0.13822812148E+03  0.14074636671E+03  0.00000000000E+00 0.  1.
         21    1    1    2  504  502  0.26245527800E+02  0.37011413252E+01  0.16029323604E+03  0.16246983627E+03  0.00000000000E+00 0.  1.
<mgrwt>
<rscale>  2 0.26505210E+02</rscale>
<asrwt>0</asrwt>
<pdfrwt beam="1">  1       21 0.46287474E-01 0.26505210E+02</pdfrwt>
<pdfrwt beam="2">  1       21 0.36114220E-03 0.26505210E+02</pdfrwt>
<totfact> 0.62245172E+07</totfact>
</mgrwt>
</event>
<event>
 4    1  0.4578942E+006  0.2055703E+02  0.7546771E-02  0.1734473E+00
         21   -1    0    0  504  501  0.00000000000E+00  0.00000000000E+00  0.70328480867E+02  0.70328480867E+02  0.00000000000E+00 0. -1.
         21   -1    0    0  501  502 -0.00000000000E+00 -0.00000000000E+00 -0.69236186665E+01  0.69236186665E+01  0.00000000000E+00 0. -1.
         21    1    1    2  503  502  0.20555450098E+02  0.25458886277E+00  0.17662145536E+02  0.27102448767E+02  0.00000000000E+00 0. -1.
         21    1    1    2  504  503 -0.20555450098E+02 -0.25458886277E+00  0.45742716664E+02  0.50149650767E+02  0.00000000000E+00 0. -1.
<mgrwt>
<rscale>  2 0.20557027E+02</rscale>
<asrwt>0</asrwt>
<pdfrwt beam="1">  1       21 0.10819766E-01 0.20557027E+02</pdfrwt>
<pdfrwt beam="2">  1       21 0.10651721E-02 0.20557027E+02</pdfrwt>
<totfact> 0.15395590E+08</totfact>
</mgrwt>
</event>
<event>
 4    1  0.4578942E+006  0.2343507E+02  0.7546771E-02  0.1684553E+00
         21   -1    0    0  503  501  0.00000000000E+00  0.00000000000E+00  0.18556429310E+01  0.18556429310E+01  0.00000000000E+00 0. -1.
         21   -1    0    0  504  502 -0.00000000000E+00 -0.00000000000E+00 -0.30313648495E+03  0.30313648495E+03  0.00000000000E+00 0. -1.
         21    1    1    2  503  502 -0.12618430853E+02  0.19747855770E+02 -0.12718252645E+03  0.12932361593E+03  0.00000000000E+00 0. -1.
         21    1    1    2  504  501  0.12618430853E+02 -0.19747855770E+02 -0.17409831558E+03  0.17566851195E+03  0.00000000000E+00 0. -1.
<mgrwt>
<rscale>  2 0.23435072E+02</rscale>
<asrwt>0</asrwt>
<pdfrwt beam="1">  1       21 0.28548371E-03 0.23435072E+02</pdfrwt>
<pdfrwt beam="2">  1       21 0.46636352E-01 0.23435072E+02</pdfrwt>
<totfact> 0.84050485E+07</totfact>
</mgrwt>
</event>
<event>
 4    1  0.4578942E+006  0.2070223E+02  0.7546771E-02  0.1731714E+00
         21   -1    0    0  502  501  0.00000000000E+00  0.00000000000E+00  0.18238615228E+04  0.18238615228E+04  0.00000000000E+00 0. -1.
         21   -1    0    0  504  502 -0.00000000000E+00 -0.00000000000E+00 -0.24722422840E+00  0.24722422840E+00  0.00000000000E+00 0. -1.
         21    1    1    2  503  501 -0.81228234662E+01 -0.19042108808E+02  0.11147305386E+04  0.11149227578E+04  0.00000000000E+00 0. -1.
         21    1    1    2  504  503  0.81228234662E+01  0.19042108808E+02  0.70888375999E+03  0.70918598925E+03  0.00000000000E+00 0. -1.
<mgrwt>
<rscale>  2 0.20702226E+02</rscale>
<asrwt>0</asrwt>
<pdfrwt beam="1">  1       21 0.28058331E+00 0.20702226E+02</pdfrwt>
<pdfrwt beam="2">  1       21 0.38035957E-04 0.20702226E+02</pdfrwt>
<totfact> 0.23425845E+07</totfact>
</mgrwt>
</event>
<event>
 4    1  0.4578942E+006  0.2136890E+02  0.7546771E-02  0.1719401E+00
         21   -1    0    0  504  501  0.00000000000E+00  0.00000000000E+00  0.17160602509E+01  0.17160602509E+01  0.00000000000E+00 0.  1.
         21   -1    0    0  501  502 -0.00000000000E+00 -0.00000000000E+00 -0.48306174850E+03  0.48306174850E+03  0.00000000000E+00 0. -1.
         21    1    1    2  503  502  0.16422695328E+01  0.21305695675E+02 -0.40311962624E+03  0.40368559892E+03  0.00000000000E+00 0. -1.
         21    1    1    2  504  503 -0.16422695328E+01 -0.21305695675E+02 -0.78226062012E+02  0.81092209832E+02  0.00000000000E+00 0.  1.
<mgrwt>
<rscale>  2 0.21368896E+02</rscale>
<asrwt>0</asrwt>
<pdfrwt beam="1">  1       21 0.26400906E-03 0.21368896E+02</pdfrwt>
<pdfrwt beam="2">  1       21 0.74317252E-01 0.21368896E+02</pdfrwt>
<totfact> 0.36408476E+07</totfact>
</mgrwt>
</event>
<event>
 4    1  0.4578942E+006  0.2005443E+02  0.7546771E-02  0.1744248E+00
         21   -1    0    0  504  501  0.00000000000E+00  0.00000000000E+00  0.17661746354E+03  0.17661746354E+03  0.00000000000E+00 0.  1.
         21   -1    0    0  501  502 -0.00000000000E+00 -0.00000000000E+00 -0.47545083607E+01  0.47545083607E+01  0.00000000000E+00 0. -1.
         21    1    1    2  503  502  0.19348329455E+02 -0.52747018800E+01  0.20470296758E+02  0.28656820863E+02  0.00000000000E+00 0. -1.
         21    1    1    2  504  503 -0.19348329455E+02  0.52747018800E+01  0.15139265842E+03  0.15271515103E+03  0.00000000000E+00 0.  1.
<mgrwt>
<rscale>  2 0.20054434E+02</rscale>
<asrwt>0</asrwt>
<pdfrwt beam="1">  1       21 0.27171912E-01 0.20054434E+02</pdfrwt>
<pdfrwt beam="2">  1       21 0.73146296E-03 0.20054434E+02</pdfrwt>
<totfact> 0.55164561E+07</totfact>
</mgrwt>
</event>
<event>
 4    1  0.4578942E+006  0.2029856E+02  0.7546771E-02  0.1739455E+00
         21   -1    0    0  504  501  0.00000000000E+00  0.00000000000E+00  0.79634183415E+01  0.79634183415E+01  0.00000000000E+00 0. -1.
         21   -1    0    0  503  502 -0.00000000000E+00 -0.00000000000E+00 -0.24483024597E+03  0.24483024597E+03  0.00000000000E+00 0. -1.
         21    1    1    2  503  501 -0.10972697731E+02 -0.17077216552E+02 -0.61842185684E+01  0.21219707349E+02  0.00000000000E+00 0. -1.
         21    1    1    2  504  502  0.10972697731E+02  0.17077216552E+02 -0.23068260906E+03  0.23157395696E+03  0.00000000000E+00 0. -1.
<mgrwt>
<rscale>  2 0.20298557E+02</rscale>
<asrwt>0</asrwt>
<pdfrwt beam="1">  1       21 0.12251411E-02 0.20298557E+02</pdfrwt>
<pdfrwt beam="2">  1       21 0.37666198E-01 0.20298557E+02</pdfrwt>
<totfact> 0.14129064E+07</totfact>
</mgrwt>
</event>
<event>
 4    1  0.4578942E+006  0.2706643E+02  0.7546771E-02  0.1632980E+00
         21   -1    0    0  504  501  0.00000000000E+00  0.00000000000E+00  0.92319731343E+00  0.92319731343E+00  0.00000000000E+00 0. -1.
         21   -1    0    0  503  502 -0.00000000000E+00 -0.00000000000E+00 -0.16685287379E+04  0.16685287379E+04  0.00000000000E+00 0. -1.
         21    1    1    2  503  501  0.12476628996E+02  0.24019268356E+02 -0.14382786485E+04  0.14385333025E+04  0.00000000000E+00 0. -1.
         21    1    1    2  504  502 -0.12476628996E+02 -0.24019268356E+02 -0.22932689200E+03  0.23091863267E+03  0.00000000000E+00 0. -1.
<mgrwt>
<rscale>  2 0.27066428E+02</rscale>
<asrwt>0</asrwt>
<pdfrwt beam="1">  1       21 0.14203241E-03 0.27066428E+02</pdfrwt>
<pdfrwt beam="2">  1       21 0.25669302E+00 0.27066428E+02</pdfrwt>
<totfact> 0.48102602E+06</totfact>
</mgrwt>
</event>
<event>
 4    1  0.4578942E+006  0.3344773E+02  0.7546771E-02  0.1562834E+00
         21   -1    0    0  504  501  0.00000000000E+00  0.00000000000E+00  0.14472513521E+02  0.14472513521E+02  0.00000000000E+00 0.  1.
         21   -1    0    0  503  502 -0.00000000000E+00 -0.00000000000E+00 -0.83696337109E+02  0.83696337109E+02  0.00000000000E+00 0. -1.
         21    1    1    2  503  501  0.17085433097E+02 -0.28754801156E+02 -0.48179315829E+02  0.58651488365E+02  0.00000000000E+00 0. -1.
         21    1    1    2  504  502 -0.17085433097E+02  0.28754801156E+02 -0.21044507758E+02  0.39517362266E+02  0.00000000000E+00 0.  1.
<mgrwt>
<rscale>  2 0.33447730E+02</rscale>
<asrwt>0</asrwt>
<pdfrwt beam="1">  1       21 0.22265405E-02 0.33447730E+02</pdfrwt>
<pdfrwt beam="2">  1       21 0.12876360E-01 0.33447730E+02</pdfrwt>
<totfact> 0.42140946E+07</totfact>
</mgrwt>
</event>
<event>
 4    1  0.4578942E+006  0.2768251E+02  0.7546771E-02  0.1625215E+00
         21   -1    0    0  503  501  0.00000000000E+00  0.00000000000E+00  0.25486054193E+03  0.25486054193E+03  0.00000000000E+00 0. -1.
         21   -1    0    0  501  502 -0.00000000000E+00 -0.00000000000E+00 -0.72858901655E+01  0.72858901655E+01  0.00000000000E+00 0. -1.
         21    1    1    2  503  504  0.27453498286E+02 -0.35533817386E+01  0.22423666588E+03  0.22593893736E+03  0.00000000000E+00 0. -1.
         21    1    1    2  504  502 -0.27453498286E+02  0.35533817386E+01  0.23337985884E+02  0.36207494736E+02  0.00000000000E+00 0. -1.
<mgrwt>
<rscale>  2 0.27682505E+02</rscale>
<asrwt>0</asrwt>
<pdfrwt beam="1">  1       21 0.39209307E-01 0.27682505E+02</pdfrwt>
<pdfrwt beam="2">  1       21 0.11209064E-02 0.27682505E+02</pdfrwt>
<totfact> 0.15912197E+07</totfact>
</mgrwt>
</event>
<event>
 4    1  0.4578942E+006  0.2631103E+02  0.7546771E-02  0.1642855E+00
         21   -1    0    0  503  501  0.00000000000E+00  0.00000000000E+00  0.97552647191E+02  0.97552647191E+02  0.00000000000E+00 0.  1.
         21   -1    0    0  504  502 -0.00000000000E+00 -0.00000000000E+00 -0.16314245662E+02  0.16314245662E+02  0.00000000000E+00 0.  1.
         21    1    1    2  503  502 -0.25488133028E+02 -0.65288308549E+01  0.83414807321E+02  0.87465997039E+02  0.00000000000E+00 0.  1.
         21    1    1    2  504  501  0.25488133028E+02  0.65288308549E+01 -0.21764057917E+01  0.26400895814E+02  0.00000000000E+00 0.  1.
<mgrwt>
<rscale>  2 0.26311035E+02</rscale>
<asrwt>0</asrwt>
<pdfrwt beam="1">  1       21 0.15008099E-01 0.26311035E+02</pdfrwt>
<pdfrwt beam="2">  1       21 0.25098840E-02 0.26311035E+02</pdfrwt>
<totfact> 0.25609578E+07</totfact>
</mgrwt>
</event>
<event>
 4    1  0.4578942E+006  0.2920617E+02  0.7546771E-02  0.1607033E+00
         21   -1    0    0  504  501  0.00000000000E+00  0.00000000000E+00  0.25587171363E+01  0.25587171363E+01  0.00000000000E+00 0. -1.
         21   -1    0    0  503  502 -0.00000000000E+00 -0.00000000000E+00 -0.47135021087E+03  0.47135021087E+03  0.00000000000E+00 0. -1.
         21    1    1    2  503  501 -0.23685730033E+02 -0.17087613642E+02 -0.10619193371E+03  0.11013504043E+03  0.00000000000E+00 0. -1.
         21    1    1    2  504  502  0.23685730033E+02  0.17087613642E+02 -0.36259956003E+03  0.36377388757E+03  0.00000000000E+00 0. -1.
<mgrwt>
<rscale>  2 0.29206170E+02</rscale>
<asrwt>0</asrwt>
<pdfrwt beam="1">  1       21 0.39364921E-03 0.29206170E+02</pdfrwt>
<pdfrwt beam="2">  1       21 0.72515340E-01 0.29206170E+02</pdfrwt>
<totfact> 0.22716199E+07</totfact>
</mgrwt>
</event>
<event>
 4    1  0.4578942E+006  0.2036102E+02  0.7546771E-02  0.1738242E+00
         21   -1    0    0  502  501  0.00000000000E+00  0.00000000000E+00  0.21025468232E+03  0.21025468232E+03  0.00000000000E+00 0.  1.
         21   -1    0    0  504  502 -0.00000000000E+00 -0.00000000000E+00 -0.84935414771E+01  0.84935414771E+01  0.00000000000E+00 0. -1.
         21    1    1    2  503  501 -0.13177797259E+02  0.15521501074E+02  0.19672200909E+03  0.19777290056E+03  0.00000000000E+00 0.  1.
         21    1    1    2  504  503  0.13177797259E+02 -0.15521501074E+02  0.50391317595E+01  0.20975323242E+02  0.00000000000E+00 0. -1.
<mgrwt>
<rscale>  2 0.20361025E+02</rscale>
<asrwt>0</asrwt>
<pdfrwt beam="1">  1       21 0.32346871E-01 0.20361025E+02</pdfrwt>
<pdfrwt beam="2">  1       21 0.13066988E-02 0.20361025E+02</pdfrwt>
<totfact> 0.16983651E+07</totfact>
</mgrwt>
</event>
<event>
 4    1  0.4578942E+006  0.2958811E+02  0.7546771E-02  0.1602687E+00
         21   -1    0    0  503  501  0.00000000000E+00  0.00000000000E+00  0.10331996899E+02  0.10331996899E+02  0.00000000000E+00 0.  1.
         21   -1    0    0  501  502 -0.00000000000E+00 -0.00000000000E+00 -0.49535039165E+03  0.49535039165E+03  0.00000000000E+00 0. -1.
         21    1    1    2  503  504 -0.16469523486E+02  0.24580701070E+02 -0.12306448765E+02  0.32045354580E+02  0.00000000000E+00 0.  1.
         21    1    1    2  504  502  0.16469523486E+02 -0.24580701070E+02 -0.47271194598E+03  0.47363703397E+03  0.00000000000E+00 0. -1.
<mgrwt>
<rscale>  2 0.29588107E+02</rscale>
<asrwt>0</asrwt>
<pdfrwt beam="1">  1       21 0.15895377E-02 0.29588107E+02</pdfrwt>
<pdfrwt beam="2">  1       21 0.76207766E-01 0.29588107E+02</pdfrwt>
<totfact> 0.25086156E+06</totfact>
</mgrwt>
</event>
<event>
 4    1  0.4578942E+006  0.5241631E+02  0.7546771E-02  0.1432728E+00
         21   -1    0    0  504  501  0.00000000000E+00  0.00000000000E+00  0.40674000541E+01  0.40674000541E+01  0.00000000000E+00 0. -1.
         21   -1    0    0  503  502 -0.00000000000E+00 -0.00000000000E+00 -0.24787349867E+04  0.24787349867E+04  0.00000000000E+00 0. -1.
         21    1    1    2  503  501 -0.19489819897E+02 -0.48658156974E+02 -0.17850673348E+03  0.18604333693E+03  0.00000000000E+00 0. -1.
         21    1    1    2  504  502  0.19489819897E+02  0.48658156974E+02 -0.22961608531E+04  0.22967590498E+04  0.00000000000E+00 0. -1.
<mgrwt>
<rscale>  2 0.52416308E+02</rscale>
<asrwt>0</asrwt>
<pdfrwt beam="1">  1       21 0.62575349E-03 0.52416308E+02</pdfrwt>
<pdfrwt beam="2">  1       21 0.38134407E+00 0.52416308E+02</pdfrwt>
<totfact> 0.11400515E+05</totfact>
</mgrwt>
</event>
<event>
 4    1  0.4578942E+006  0.3532998E+02  0.7546771E-02  0.1545690E+00
         21   -1    0    0  502  501  0.00000000000E+00  0.00000000000E+00  0.18154166769E+03  0.18154166769E+03  0.00000000000E+00 0.  1.
         21   -1    0    0  504  502 -0.00000000000E+00 -0.00000000000E+00 -0.19016337562E+02  0.19016337562E+02  0.00000000000E+00 0. -1.
         21    1    1    2  503  501  0.73094112264E+01  0.34565591191E+02  0.16138786614E+03  0.16520971801E+03  0.00000000000E+00 0.  1.
         21    1    1    2  504  503 -0.73094112264E+01 -0.34565591191E+02  0.11374639874E+01  0.35348287245E+02  0.00000000000E+00 0. -1.
<mgrwt>
<rscale>  2 0.35329981E+02</rscale>
<asrwt>0</asrwt>
<pdfrwt beam="1">  1       21 0.27929486E-01 0.35329981E+02</pdfrwt>
<pdfrwt beam="2">  1       21 0.29255905E-02 0.35329981E+02</pdfrwt>
<totfact> 0.70526127E+06</totfact>
</mgrwt>
</event>
<event>
 4    1  0.4578942E+006  0.2099816E+02  0.7546771E-02  0.1726177E+00
         21   -1    0    0  504  501  0.00000000000E+00  0.00000000000E+00  0.26322782891E+02  0.26322782891E+02  0.00000000000E+00 0.  1.
         21   -1    0    0  503  502 -0.00000000000E+00 -0.00000000000E+00 -0.15088088746E+03  0.15088088746E+03  0.00000000000E+00 0. -1.
         21    1    1    2  503  501  0.19580549716E+02 -0.75844992033E+01  0.21259899380E+02  0.29881530701E+02  0.00000000000E+00 0.  1.
         21    1    1    2  504  502 -0.19580549716E+02  0.75844992033E+01 -0.14581800395E+03  0.14732213965E+03  0.00000000000E+00 0. -1.
<mgrwt>
<rscale>  2 0.20998156E+02</rscale>
<asrwt>0</asrwt>
<pdfrwt beam="1">  1       21 0.40496589E-02 0.20998156E+02</pdfrwt>
<pdfrwt beam="2">  1       21 0.23212444E-01 0.20998156E+02</pdfrwt>
<totfact> 0.54458869E+06</totfact>
</mgrwt>
</event>
<event>
 4    1  0.4578942E+006  0.2001690E+02  0.7546771E-02  0.1744992E+00
         21   -1    0    0  503  501  0.00000000000E+00  0.00000000000E+00  0.27200158364E+03  0.27200158364E+03  0.00000000000E+00 0.  1.
         21   -1    0    0  504  502 -0.00000000000E+00 -0.00000000000E+00 -0.15775386580E+01  0.15775386580E+01  0.00000000000E+00 0. -1.
         21    1    1    2  503  502  0.10126197009E+02 -0.17266628913E+02  0.17041373989E+03  0.17158531139E+03  0.00000000000E+00 0. -1.
         21    1    1    2  504  501 -0.10126197009E+02  0.17266628913E+02  0.10001030509E+03  0.10199381091E+03  0.00000000000E+00 0.  1.
<mgrwt>
<rscale>  2 0.20016901E+02</rscale>
<asrwt>0</asrwt>
<pdfrwt beam="1">  1       21 0.41846360E-01 0.20016901E+02</pdfrwt>
<pdfrwt beam="2">  1       21 0.24269847E-03 0.20016901E+02</pdfrwt>
<totfact> 0.12531522E+08</totfact>
</mgrwt>
</event>
<event>
 4    1  0.4578942E+006  0.2010360E+02  0.7546771E-02  0.1743276E+00
         21   -1    0    0  502  501  0.00000000000E+00  0.00000000000E+00  0.10730454817E+02  0.10730454817E+02  0.00000000000E+00 0.  1.
         21   -1    0    0  503  502 -0.00000000000E+00 -0.00000000000E+00 -0.48989620148E+02  0.48989620148E+02  0.00000000000E+00 0.  1.
         21    1    1    2  503  504  0.18383796941E+02 -0.81357643772E+01 -0.33486602558E+02  0.39057741906E+02  0.00000000000E+00 0.  1.
         21    1    1    2  504  501 -0.18383796941E+02  0.81357643772E+01 -0.47725627737E+01  0.20662333058E+02  0.00000000000E+00 0.  1.
<mgrwt>
<rscale>  2 0.20103598E+02</rscale>
<asrwt>0</asrwt>
<pdfrwt beam="1">  1       21 0.16508392E-02 0.20103598E+02</pdfrwt>
<pdfrwt beam="2">  1       21 0.75368648E-02 0.20103598E+02</pdfrwt>
<totfact> 0.14265440E+08</totfact>
</mgrwt>
</event>
<event>
 4    1  0.4578942E+006  0.2209769E+02  0.7546771E-02  0.1706568E+00
         21   -1    0    0  503  501  0.00000000000E+00  0.00000000000E+00  0.28423407683E+01  0.28423407683E+01  0.00000000000E+00 0. -1.
         21   -1    0    0  504  502 -0.00000000000E+00 -0.00000000000E+00 -0.19844425144E+03  0.19844425144E+03  0.00000000000E+00 0. -1.
         21    1    1    2  503  502 -0.11223695248E+02 -0.19035144462E+02 -0.60921474661E+02  0.64805355755E+02  0.00000000000E+00 0. -1.
         21    1    1    2  504  501  0.11223695248E+02  0.19035144462E+02 -0.13468043601E+03  0.13648123645E+03  0.00000000000E+00 0. -1.
<mgrwt>
<rscale>  2 0.22097694E+02</rscale>
<asrwt>0</asrwt>
<pdfrwt beam="1">  1       21 0.43728321E-03 0.22097694E+02</pdfrwt>
<pdfrwt beam="2">  1       21 0.30529884E-01 0.22097694E+02</pdfrwt>
<totfact> 0.97993841E+07</totfact>
</mgrwt>
</event>
<event>
 4    1  0.4578942E+006  0.6174436E+02  0.7546771E-02  0.1390654E+00
         21   -1    0    0  502  501  0.00000000000E+00  0.00000000000E+00  0.82686095643E+02  0.82686095643E+02  0.00000000000E+00 0. -1.
         21   -1    0    0  503  502 -0.00000000000E+00 -0.00000000000E+00 -0.14574771105E+03  0.14574771105E+03  0.00000000000E+00 0. -1.
         21    1    1    2  503  504  0.61721774379E+02  0.16698938953E+01 -0.12596929490E+03  0.14028766601E+03  0.00000000000E+00 0. -1.
         21    1    1    2  504  501 -0.61721774379E+02 -0.16698938953E+01  0.62907679490E+02  0.88146140681E+02  0.00000000000E+00 0. -1.
<mgrwt>
<rscale>  2 0.61744360E+02</rscale>
<asrwt>0</asrwt>
<pdfrwt beam="1">  1       21 0.12720938E-01 0.61744360E+02</pdfrwt>
<pdfrwt beam="2">  1       21 0.22422725E-01 0.61744360E+02</pdfrwt>
<totfact> 0.97128573E+05</totfact>
</mgrwt>
</event>
<event>
 4    1  0.4578942E+006  0.2096281E+02  0.7546771E-02  0.1726833E+00
         21   -1    0    0  503  501  0.00000000000E+00  0.00000000000E+00  0.73857809383E+02  0.73857809383E+02  0.00000000000E+00 0.  1.
         21   -1    0    0  501  502 -0.00000000000E+00 -0.00000000000E+00 -0.10166564180E+03  0.10166564180E+03  0.00000000000E+00 0.  1.
         21    1    1    2  503  504 -0.96445451887E+01  0.18612420325E+02  0.71251044820E+02  0.74270793925E+02  0.00000000000E+00 0.  1.
         21    1    1    2  504  502  0.96445451887E+01 -0.18612420325E+02 -0.99058877236E+02  0.10125265726E+03  0.00000000000E+00 0.  1.
<mgrwt>
<rscale>  2 0.20962811E+02</rscale>
<asrwt>0</asrwt>
<pdfrwt beam="1">  1       21 0.11362740E-01 0.20962811E+02</pdfrwt>
<pdfrwt beam="2">  1       21 0.15640868E-01 0.20962811E+02</pdfrwt>
<totfact> 0.20427745E+06</totfact>
</mgrwt>
</event>
<event>
 4    1  0.4578942E+006  0.2944270E+02  0.7546771E-02  0.1604332E+00
         21   -1    0    0  504  501  0.00000000000E+00  0.00000000000E+00  0.16069897166E+01  0.16069897166E+01  0.00000000000E+00 0.  1.
         21   -1    0    0  503  502 -0.00000000000E+00 -0.00000000000E+00 -0.54538602750E+03  0.54538602750E+03  0.00000000000E+00 0.  1.
         21    1    1    2  503  501  0.10944090671E+02  0.27333117347E+02 -0.24332932548E+03  0.24510412698E+03  0.00000000000E+00 0.  1.
         21    1    1    2  504  502 -0.10944090671E+02 -0.27333117347E+02 -0.30044971230E+03  0.30188889024E+03  0.00000000000E+00 0.  1.
<mgrwt>
<rscale>  2 0.29442697E+02</rscale>
<asrwt>0</asrwt>
<pdfrwt beam="1">  1       21 0.24722927E-03 0.29442697E+02</pdfrwt>
<pdfrwt beam="2">  1       21 0.83905513E-01 0.29442697E+02</pdfrwt>
<totfact> 0.33124234E+07</totfact>
</mgrwt>
</event>
<event>
 4    1  0.4578942E+006  0.2804188E+02  0.7546771E-02  0.1620799E+00
         21   -1    0    0  502  501  0.00000000000E+00  0.00000000000E+00  0.31972181041E+02  0.31972181041E+02  0.00000000000E+00 0. -1.
         21   -1    0    0  504  502 -0.00000000000E+00 -0.00000000000E+00 -0.27611072276E+02  0.27611072276E+02  0.00000000000E+00 0. -1.
         21    1    1    2  503  501 -0.18683500325E+02  0.20911098433E+02  0.12027300755E+02  0.30512344806E+02  0.00000000000E+00 0. -1.
         21    1    1    2  504  503  0.18683500325E+02 -0.20911098433E+02 -0.76661919903E+01  0.29070908512E+02  0.00000000000E+00 0. -1.
<mgrwt>
<rscale>  2 0.28041883E+02</rscale>
<asrwt>0</asrwt>
<pdfrwt beam="1">  1       21 0.49187971E-02 0.28041883E+02</pdfrwt>
<pdfrwt beam="2">  1       21 0.42478573E-02 0.28041883E+02</pdfrwt>
<totfact> 0.71752754E+07</totfact>
</mgrwt>
</event>
<event>
 4    1  0.4578942E+006  0.3284133E+02  0.7546771E-02  0.1568650E+00
         21   -1    0    0  504  501  0.00000000000E+00  0.00000000000E+00  0.49707817409E+01  0.49707817409E+01  0.00000000000E+00 0. -1.
         21   -1    0    0  501  502 -0.00000000000E+00 -0.00000000000E+00 -0.42153818624E+03  0.42153818624E+03  0.00000000000E+00 0. -1.
         21    1    1    2  503  502  0.23303698415E+02 -0.23140675871E+02 -0.35683950950E+03  0.35834758096E+03  0.00000000000E+00 0. -1.
         21    1    1    2  504  503 -0.23303698415E+02  0.23140675871E+02 -0.59727894998E+02  0.68161387019E+02  0.00000000000E+00 0. -1.
<mgrwt>
<rscale>  2 0.32841334E+02</rscale>
<asrwt>0</asrwt>
<pdfrwt beam="1">  1       21 0.76473570E-03 0.32841334E+02</pdfrwt>
<pdfrwt beam="2">  1       21 0.64852025E-01 0.32841334E+02</pdfrwt>
<totfact> 0.10816584E+07</totfact>
</mgrwt>
</event>
<event>
 4    1  0.4578942E+006  0.2041835E+02  0.7546771E-02  0.1737134E+00
         21   -1    0    0  502  501  0.00000000000E+00  0.00000000000E+00  0.49223779718E+03  0.49223779718E+03  0.00000000000E+00 0.  1.
         21   -1    0    0  504  502 -0.00000000000E+00 -0.00000000000E+00 -0.52718625233E+02  0.52718625233E+02  0.00000000000E+00 0. -1.
         21    1    1    2  503  501  0.12876210997E+02 -0.15846521346E+02  0.49004014482E+03  0.49046534289E+03  0.00000000000E+00 0.  1.
         21    1    1    2  504  503 -0.12876210997E+02  0.15846521346E+02 -0.50520972865E+02  0.54491079524E+02  0.00000000000E+00 0. -1.
<mgrwt>
<rscale>  2 0.20418351E+02</rscale>
<asrwt>0</asrwt>
<pdfrwt beam="1">  1       21 0.75728889E-01 0.20418351E+02</pdfrwt>
<pdfrwt beam="2">  1       21 0.81105580E-02 0.20418351E+02</pdfrwt>
<totfact> 0.19027009E+05</totfact>
</mgrwt>
</event>
<event>
 4    1  0.4578942E+006  0.2118255E+02  0.7546771E-02  0.1722785E+00
         21   -1    0    0  504  501  0.00000000000E+00  0.00000000000E+00  0.54185988206E+01  0.54185988206E+01  0.00000000000E+00 0. -1.
         21   -1    0    0  503  502 -0.00000000000E+00 -0.00000000000E+00 -0.89139996952E+02  0.89139996952E+02  0.00000000000E+00 0. -1.
         21    1    1    2  503  501  0.52502999863E+01 -0.20521566917E+02 -0.54462246284E+02  0.58436603503E+02  0.00000000000E+00 0. -1.
         21    1    1    2  504  502 -0.52502999863E+01  0.20521566917E+02 -0.29259151848E+02  0.36121992270E+02  0.00000000000E+00 0. -1.
<mgrwt>
<rscale>  2 0.21182548E+02</rscale>
<asrwt>0</asrwt>
<pdfrwt beam="1">  1       21 0.83363058E-03 0.21182548E+02</pdfrwt>
<pdfrwt beam="2">  1       21 0.13713846E-01 0.21182548E+02</pdfrwt>
<totfact> 0.15085578E+08</totfact>
</mgrwt>
</event>
<event>
 4    1  0.4578942E+006  0.2090411E+02  0.7546771E-02  0.1727924E+00
         21   -1    0    0  504  501  0.00000000000E+00  0.00000000000E+00  0.45828517351E+02  0.45828517351E+02  0.00000000000E+00 0.  1.
         21   -1    0    0  501  502 -0.00000000000E+00 -0.00000000000E+00 -0.15495882954E+03  0.15495882954E+03  0.00000000000E+00 0.  1.
         21    1    1    2  503  502 -0.16524619290E+02  0.12803072919E+02 -0.15182100940E+03  0.15325338695E+03  0.00000000000E+00 0.  1.
         21    1    1    2  504  503  0.16524619290E+02 -0.12803072919E+02  0.42690697209E+02  0.47533959935E+02  0.00000000000E+00 0.  1.
<mgrwt>
<rscale>  2 0.20904108E+02</rscale>
<asrwt>0</asrwt>
<pdfrwt beam="1">  1       21 0.70505411E-02 0.20904108E+02</pdfrwt>
<pdfrwt beam="2">  1       21 0.23839820E-01 0.20904108E+02</pdfrwt>
<totfact> 0.21483652E+06</totfact>
</mgrwt>
</event>
<event>
 4    1  0.4578942E+006  0.2220082E+02  0.7546771E-02  0.1704802E+00
         21   -1    0    0  503  501  0.00000000000E+00  0.00000000000E+00  0.24223332746E+02  0.24223332746E+02  0.00000000000E+00 0. -1.
         21   -1    0    0  504  502 -0.00000000000E+00 -0.00000000000E+00 -0.30992483031E+02  0.30992483031E+02  0.00000000000E+00 0. -1.
         21    1    1    2  503  502 -0.15110234743E+01  0.22149340610E+02 -0.19564792485E+02  0.29591512066E+02  0.00000000000E+00 0. -1.
         21    1    1    2  504  501  0.15110234743E+01 -0.22149340610E+02  0.12795642200E+02  0.25624303711E+02  0.00000000000E+00 0. -1.
<mgrwt>
<rscale>  2 0.22200822E+02</rscale>
<asrwt>0</asrwt>
<pdfrwt beam="1">  1       21 0.37266666E-02 0.22200822E+02</pdfrwt>
<pdfrwt beam="2">  1       21 0.47680743E-02 0.22200822E+02</pdfrwt>
<totfact> 0.87166655E+07</totfact>
</mgrwt>
</event>
<event>
 4    1  0.4578942E+006  0.2307784E+02  0.7546771E-02  0.1690252E+00
         21   -1    0    0  504  501  0.00000000000E+00  0.00000000000E+00  0.11275517473E+02  0.11275517473E+02  0.00000000000E+00 0.  1.
         21   -1    0    0  503  502 -0.00000000000E+00 -0.00000000000E+00 -0.48174984706E+02  0.48174984706E+02  0.00000000000E+00 0.  1.
         21    1    1    2  503  501  0.21760226636E+02 -0.76862888398E+01 -0.22604364850E+02  0.32303928703E+02  0.00000000000E+00 0.  1.
         21    1    1    2  504  502 -0.21760226636E+02  0.76862888398E+01 -0.14295102383E+02  0.27146573476E+02  0.00000000000E+00 0.  1.
<mgrwt>
<rscale>  2 0.23077836E+02</rscale>
<asrwt>0</asrwt>
<pdfrwt beam="1">  1       21 0.17346950E-02 0.23077836E+02</pdfrwt>
<pdfrwt beam="2">  1       21 0.74115361E-02 0.23077836E+02</pdfrwt>
<totfact> 0.14178207E+08</totfact>
</mgrwt>
</event>
<event>
 4    1  0.4578942E+006  0.2307346E+02  0.7546771E-02  0.1690322E+00
         21   -1    0    0  502  501  0.00000000000E+00  0.00000000000E+00  0.21214149916E+03  0.21214149916E+03  0.00000000000E+00 0.  1.
         21   -1    0    0  504  502 -0.00000000000E+00 -0.00000000000E+00 -0.77300374304E+01  0.77300374304E+01  0.00000000000E+00 0.  1.
         21    1    1    2  503  501 -0.91731406308E+01 -0.21171631689E+02  0.19255045661E+03  0.19392798364E+03  0.00000000000E+00 0.  1.
         21    1    1    2  504  503  0.91731406308E+01  0.21171631689E+02  0.11861005123E+02  0.25943552955E+02  0.00000000000E+00 0.  1.
<mgrwt>
<rscale>  2 0.23073459E+02</rscale>
<asrwt>0</asrwt>
<pdfrwt beam="1">  1       21 0.32637149E-01 0.23073459E+02</pdfrwt>
<pdfrwt beam="2">  1       21 0.11892367E-02 0.23073459E+02</pdfrwt>
<totfact> 0.19777086E+07</totfact>
</mgrwt>
</event>
<event>
 4    1  0.4578942E+006  0.4804291E+02  0.7546771E-02  0.1456193E+00
         21   -1    0    0  502  501  0.00000000000E+00  0.00000000000E+00  0.11022803146E+03  0.11022803146E+03  0.00000000000E+00 0. -1.
         21   -1    0    0  504  502 -0.00000000000E+00 -0.00000000000E+00 -0.43776878999E+02  0.43776878999E+02  0.00000000000E+00 0. -1.
         21    1    1    2  503  501 -0.47591933505E+02  0.65672628551E+01  0.88842274120E+02  0.10100035023E+03  0.00000000000E+00 0. -1.
         21    1    1    2  504  503  0.47591933505E+02 -0.65672628551E+01 -0.22391121657E+02  0.53004560230E+02  0.00000000000E+00 0. -1.
<mgrwt>
<rscale>  2 0.48042909E+02</rscale>
<asrwt>0</asrwt>
<pdfrwt beam="1">  1       21 0.16958159E-01 0.48042909E+02</pdfrwt>
<pdfrwt beam="2">  1       21 0.67349045E-02 0.48042909E+02</pdfrwt>
<totfact> 0.46528225E+06</totfact>
</mgrwt>
</event>
<event>
 4    1  0.4578942E+006  0.2547884E+02  0.7546771E-02  0.1654218E+00
         21   -1    0    0  504  501  0.00000000000E+00  0.00000000000E+00  0.11660954070E+02  0.11660954070E+02  0.00000000000E+00 0.  1.
         21   -1    0    0  503  502 -0.00000000000E+00 -0.00000000000E+00 -0.74680510282E+02  0.74680510282E+02  0.00000000000E+00 0.  1.
         21    1    1    2  503  501  0.18149793772E+02  0.17881734619E+02 -0.53290719910E+02  0.59068369501E+02  0.00000000000E+00 0.  1.
         21    1    1    2  504  502 -0.18149793772E+02 -0.17881734619E+02 -0.97288363023E+01  0.27273094851E+02  0.00000000000E+00 0.  1.
<mgrwt>
<rscale>  2 0.25478843E+02</rscale>
<asrwt>0</asrwt>
<pdfrwt beam="1">  1       21 0.17939929E-02 0.25478843E+02</pdfrwt>
<pdfrwt beam="2">  1       21 0.11489309E-01 0.25478843E+02</pdfrwt>
<totfact> 0.67139721E+07</totfact>
</mgrwt>
</event>
<event>
 4    1  0.4578942E+006  0.2875875E+02  0.7546771E-02  0.1612229E+00
         21   -1    0    0  504  501  0.00000000000E+00  0.00000000000E+00  0.10747679159E+03  0.10747679159E+03  0.00000000000E+00 0.  1.
         21   -1    0    0  503  502 -0.00000000000E+00 -0.00000000000E+00 -0.91951591327E+01  0.91951591327E+01  0.00000000000E+00 0.  1.
         21    1    1    2  503  501 -0.54249098521E+01  0.28242448706E+02  0.25580404217E+02  0.38489253510E+02  0.00000000000E+00 0.  1.
         21    1    1    2  504  502  0.54249098521E+01 -0.28242448706E+02  0.72701228237E+02  0.78182697210E+02  0.00000000000E+00 0.  1.
<mgrwt>
<rscale>  2 0.28758747E+02</rscale>
<asrwt>0</asrwt>
<pdfrwt beam="1">  1       21 0.16534890E-01 0.28758747E+02</pdfrwt>
<pdfrwt beam="2">  1       21 0.14146399E-02 0.28758747E+02</pdfrwt>
<totfact> 0.53489329E+07</totfact>
</mgrwt>
</event>
<event>
 4    1  0.4578942E+006  0.4430363E+02  0.7546771E-02  0.1478736E+00
         21   -1    0    0  503  501  0.00000000000E+00  0.00000000000E+00  0.94165202772E+02  0.94165202772E+02  0.00000000000E+00 0.  1.
         21   -1    0    0  504  502 -0.00000000000E+00 -0.00000000000E+00 -0.21403292206E+02  0.21403292206E+02  0.00000000000E+00 0. -1.
         21    1    1    2  503  502  0.36664035816E+00 -0.44302108400E+02  0.45719035889E+02  0.63663501918E+02  0.00000000000E+00 0.  1.
         21    1    1    2  504  501 -0.36664035816E+00  0.44302108400E+02  0.27042874676E+02  0.51904993060E+02  0.00000000000E+00 0. -1.
<mgrwt>
<rscale>  2 0.44303626E+02</rscale>
<asrwt>0</asrwt>
<pdfrwt beam="1">  1       21 0.14486954E-01 0.44303626E+02</pdfrwt>
<pdfrwt beam="2">  1       21 0.32928142E-02 0.44303626E+02</pdfrwt>
<totfact> 0.19469607E+07</totfact>
</mgrwt>
</event>
<event>
 4    1  0.4578942E+006  0.2562459E+02  0.7546771E-02  0.1652189E+00
         21   -1    0    0  502  501  0.00000000000E+00  0.00000000000E+00  0.28692724635E+02  0.28692724635E+02  0.00000000000E+00 0. -1.
         21   -1    0    0  504  502 -0.00000000000E+00 -0.00000000000E+00 -0.11730186379E+03  0.11730186379E+03  0.00000000000E+00 0. -1.
         21    1    1    2  503  501 -0.24808094056E+02  0.64170158752E+01  0.21186210564E+02  0.33248686312E+02  0.00000000000E+00 0. -1.
         21    1    1    2  504  503  0.24808094056E+02 -0.64170158752E+01 -0.10979534971E+03  0.11274590211E+03  0.00000000000E+00 0. -1.
<mgrwt>
<rscale>  2 0.25624590E+02</rscale>
<asrwt>0</asrwt>
<pdfrwt beam="1">  1       21 0.44142654E-02 0.25624590E+02</pdfrwt>
<pdfrwt beam="2">  1       21 0.18046440E-01 0.25624590E+02</pdfrwt>
<totfact> 0.76374112E+06</totfact>
</mgrwt>
</event>
<event>
 4    1  0.4578942E+006  0.2938755E+02  0.7546771E-02  0.1604959E+00
         21   -1    0    0  503  501  0.00000000000E+00  0.00000000000E+00  0.62997120041E+03  0.62997120041E+03  0.00000000000E+00 0. -1.
         21   -1    0    0  504  502 -0.00000000000E+00 -0.00000000000E+00 -0.91546345393E+01  0.91546345393E+01  0.00000000000E+00 0. -1.
         21    1    1    2  503  502 -0.22091852751E+02 -0.19379831082E+02  0.60507417372E+03  0.60578740785E+03  0.00000000000E+00 0. -1.
         21    1    1    2  504  501  0.22091852751E+02  0.19379831082E+02  0.15742392155E+02  0.33338427100E+02  0.00000000000E+00 0. -1.
<mgrwt>
<rscale>  2 0.29387545E+02</rscale>
<asrwt>0</asrwt>
<pdfrwt beam="1">  1       21 0.96918612E-01 0.29387545E+02</pdfrwt>
<pdfrwt beam="2">  1       21 0.14084058E-02 0.29387545E+02</pdfrwt>
<totfact> 0.18006612E+06</totfact>
</mgrwt>
</event>
<event>
 4    1  0.4578942E+006  0.2216449E+02  0.7546771E-02  0.1705423E+00
         21   -1    0    0  503  501  0.00000000000E+00  0.00000000000E+00  0.23434292860E+02  0.23434292860E+02  0.00000000000E+00 0.  1.
         21   -1    0    0  501  502 -0.00000000000E+00 -0.00000000000E+00 -0.69124385898E+02  0.69124385898E+02  0.00000000000E+00 0.  1.
         21    1    1    2  503  504 -0.21977537472E+02 -0.28726992539E+01  0.15784426924E+02  0.27210525310E+02  0.00000000000E+00 0.  1.
         21    1    1    2  504  502  0.21977537472E+02  0.28726992539E+01 -0.61474519962E+02  0.65348153447E+02  0.00000000000E+00 0.  1.
<mgrwt>
<rscale>  2 0.22164489E+02</rscale>
<asrwt>0</asrwt>
<pdfrwt beam="1">  1       21 0.36052759E-02 0.22164489E+02</pdfrwt>
<pdfrwt beam="2">  1       21 0.10634521E-01 0.22164489E+02</pdfrwt>
<totfact> 0.25027838E+07</totfact>
</mgrwt>
</event>
<event>
 4    1  0.4578942E+006  0.2204552E+02  0.7546771E-02  0.1707466E+00
         21   -1    0    0  504  501  0.00000000000E+00  0.00000000000E+00  0.10129039708E+02  0.10129039708E+02  0.00000000000E+00 0.  1.
         21   -1    0    0  501  502 -0.00000000000E+00 -0.00000000000E+00 -0.49344059436E+03  0.49344059436E+03  0.00000000000E+00 0. -1.
         21    1    1    2  503  502 -0.12962492429E+02  0.17831959886E+02 -0.48088602410E+03  0.48139108132E+03  0.00000000000E+00 0. -1.
         21    1    1    2  504  503  0.12962492429E+02 -0.17831959886E+02 -0.24255305510E+01  0.22178552744E+02  0.00000000000E+00 0.  1.
<mgrwt>
<rscale>  2 0.22045521E+02</rscale>
<asrwt>0</asrwt>
<pdfrwt beam="1">  1       21 0.15583137E-02 0.22045521E+02</pdfrwt>
<pdfrwt beam="2">  1       21 0.75913942E-01 0.22045521E+02</pdfrwt>
<totfact> 0.25213946E+06</totfact>
</mgrwt>
</event>
<event>
 4    1  0.4578942E+006  0.2299048E+02  0.7546771E-02  0.1691665E+00
         21   -1    0    0  503  501  0.00000000000E+00  0.00000000000E+00  0.28872130272E+01  0.28872130272E+01  0.00000000000E+00 0.  1.
         21   -1    0    0  504  502 -0.00000000000E+00 -0.00000000000E+00 -0.40406943806E+03  0.40406943806E+03  0.00000000000E+00 0.  1.
         21    1    1    2  503  502  0.70169992247E+00 -0.22979764551E+02 -0.50108687486E+02  0.55131139324E+02  0.00000000000E+00 0.  1.
         21    1    1    2  504  501 -0.70169992247E+00  0.22979764551E+02 -0.35107353755E+03  0.35182551177E+03  0.00000000000E+00 0.  1.
<mgrwt>
<rscale>  2 0.22990475E+02</rscale>
<asrwt>0</asrwt>
<pdfrwt beam="1">  1       21 0.44418663E-03 0.22990475E+02</pdfrwt>
<pdfrwt beam="2">  1       21 0.62164527E-01 0.22990475E+02</pdfrwt>
<totfact> 0.24899147E+07</totfact>
</mgrwt>
</event>
<event>
 4    1  0.4578942E+006  0.2012783E+02  0.7546771E-02  0.1742798E+00
         21   -1    0    0  502  501  0.00000000000E+00  0.00000000000E+00  0.12716104336E+01  0.12716104336E+01  0.00000000000E+00 0.  1.
         21   -1    0    0  504  502 -0.00000000000E+00 -0.00000000000E+00 -0.59003360600E+03  0.59003360600E+03  0.00000000000E+00 0.  1.
         21    1    1    2  503  501  0.18343716399E+02  0.82847917074E+01 -0.93851376804E+02  0.95985470947E+02  0.00000000000E+00 0.  1.
         21    1    1    2  504  503 -0.18343716399E+02 -0.82847917074E+01 -0.49491061876E+03  0.49531974548E+03  0.00000000000E+00 0.  1.
<mgrwt>
<rscale>  2 0.20127834E+02</rscale>
<asrwt>0</asrwt>
<pdfrwt beam="1">  1       21 0.19563237E-03 0.20127834E+02</pdfrwt>
<pdfrwt beam="2">  1       21 0.90774403E-01 0.20127834E+02</pdfrwt>
<totfact> 0.36388754E+07</totfact>
</mgrwt>
</event>
<event>
 4    1  0.4578942E+006  0.2066641E+02  0.7546771E-02  0.1732391E+00
         21   -1    0    0  504  501  0.00000000000E+00  0.00000000000E+00  0.78465599251E+03  0.78465599251E+03  0.00000000000E+00 0. -1.
         21   -1    0    0  503  502 -0.00000000000E+00 -0.00000000000E+00 -0.56937159645E+00  0.56937159645E+00  0.00000000000E+00 0.  1.
         21    1    1    2  503  501 -0.18646866566E+02 -0.89103784156E+01  0.47440447852E+03  0.47485440897E+03  0.00000000000E+00 0. -1.
         21    1    1    2  504  502  0.18646866566E+02  0.89103784156E+01  0.30968214239E+03  0.31037095513E+03  0.00000000000E+00 0.  1.
<mgrwt>
<rscale>  2 0.20666409E+02</rscale>
<asrwt>0</asrwt>
<pdfrwt beam="1">  1       21 0.12071544E+00 0.20666409E+02</pdfrwt>
<pdfrwt beam="2">  1       21 0.87596257E-04 0.20666409E+02</pdfrwt>
<totfact> 0.61594053E+07</totfact>
</mgrwt>
</event>
<event>
 4    1  0.4578942E+006  0.2259394E+02  0.7546771E-02  0.1698178E+00
         21   -1    0    0  503  501  0.00000000000E+00  0.00000000000E+00  0.49494932812E+03  0.49494932812E+03  0.00000000000E+00 0.  1.
         21   -1    0    0  501  502 -0.00000000000E+00 -0.00000000000E+00 -0.56638209707E+01  0.56638209707E+01  0.00000000000E+00 0. -1.
         21    1    1    2  503  504  0.23978056618E+01 -0.22466342142E+02  0.47101436185E+03  0.47155595116E+03  0.00000000000E+00 0.  1.
         21    1    1    2  504  502 -0.23978056618E+01  0.22466342142E+02  0.18271145297E+02  0.29057197933E+02  0.00000000000E+00 0. -1.
<mgrwt>
<rscale>  2 0.22593937E+02</rscale>
<asrwt>0</asrwt>
<pdfrwt beam="1">  1       21 0.76146017E-01 0.22593937E+02</pdfrwt>
<pdfrwt beam="2">  1       21 0.87135746E-03 0.22593937E+02</pdfrwt>
<totfact> 0.60376477E+06</totfact>
</mgrwt>
</event>
<event>
 4    1  0.4578942E+006  0.2352717E+02  0.7546771E-02  0.1683105E+00
         21   -1    0    0  502  501  0.00000000000E+00  0.00000000000E+00  0.55901938737E+02  0.55901938737E+02  0.00000000000E+00 0.  1.
         21   -1    0    0  504  502 -0.00000000000E+00 -0.00000000000E+00 -0.24445024969E+02  0.24445024969E+02  0.00000000000E+00 0. -1.
         21    1    1    2  503  501  0.95504417407E+01  0.21501557348E+02  0.46715140854E+02  0.52305184168E+02  0.00000000000E+00 0.  1.
         21    1    1    2  504  503 -0.95504417407E+01 -0.21501557348E+02 -0.15258227087E+02  0.28041779538E+02  0.00000000000E+00 0. -1.
<mgrwt>
<rscale>  2 0.23527174E+02</rscale>
<asrwt>0</asrwt>
<pdfrwt beam="1">  1       21 0.86002982E-02 0.23527174E+02</pdfrwt>
<pdfrwt beam="2">  1       21 0.37607731E-02 0.23527174E+02</pdfrwt>
<totfact> 0.33719142E+07</totfact>
</mgrwt>
</event>
<event>
 4    1  0.4578942E+006  0.3511909E+02  0.7546771E-02  0.1547546E+00
         21   -1    0    0  504  501  0.00000000000E+00  0.00000000000E+00  0.27928304770E+01  0.27928304770E+01  0.00000000000E+00 0.  1.
         21   -1    0    0  503  502 -0.00000000000E+00 -0.00000000000E+00 -0.44167850166E+03  0.44167850166E+03  0.00000000000E+00 0.  1.
         21    1    1    2  503  501 -0.29200499831E+02 -0.19511055596E+02 -0.21673820991E+03  0.21956502935E+03  0.00000000000E+00 0.  1.
         21    1    1    2  504  502  0.29200499831E+02  0.19511055596E+02 -0.22214746127E+03  0.22490630278E+03  0.00000000000E+00 0.  1.
<mgrwt>
<rscale>  2 0.35119090E+02</rscale>
<asrwt>0</asrwt>
<pdfrwt beam="1">  1       21 0.42966612E-03 0.35119090E+02</pdfrwt>
<pdfrwt beam="2">  1       21 0.67950556E-01 0.35119090E+02</pdfrwt>
<totfact> 0.23542495E+07</totfact>
</mgrwt>
</event>
<event>
 4    1  0.4578942E+006  0.2183680E+02  0.7546771E-02  0.1711090E+00
         21   -1    0    0  504  501  0.00000000000E+00  0.00000000000E+00  0.63936493966E+01  0.63936493966E+01  0.00000000000E+00 0.  1.
         21   -1    0    0  503  502 -0.00000000000E+00 -0.00000000000E+00 -0.16529185356E+03  0.16529185356E+03  0.00000000000E+00 0.  1.
         21    1    1    2  503  501  0.18058393371E+02  0.12277634860E+02 -0.15856424601E+02  0.26986516819E+02  0.00000000000E+00 0.  1.
         21    1    1    2  504  502 -0.18058393371E+02 -0.12277634860E+02 -0.14304177956E+03  0.14469898613E+03  0.00000000000E+00 0.  1.
<mgrwt>
<rscale>  2 0.21836801E+02</rscale>
<asrwt>0</asrwt>
<pdfrwt beam="1">  1       21 0.98363854E-03 0.21836801E+02</pdfrwt>
<pdfrwt beam="2">  1       21 0.25429512E-01 0.21836801E+02</pdfrwt>
<totfact> 0.40806304E+07</totfact>
</mgrwt>
</event>
<event>
 4    1  0.4578942E+006  0.2731558E+02  0.7546771E-02  0.1629810E+00
         21   -1    0    0  504  501  0.00000000000E+00  0.00000000000E+00  0.15665734074E+01  0.15665734074E+01  0.00000000000E+00 0. -1.
         21   -1    0    0  501  502 -0.00000000000E+00 -0.00000000000E+00 -0.79756829482E+03  0.79756829482E+03  0.00000000000E+00 0. -1.
         21    1    1    2  503  502 -0.11597503440E+00  0.27315338193E+02 -0.65159998060E+03  0.65217227468E+03  0.00000000000E+00 0. -1.
         21    1    1    2  504  503  0.11597503440E+00 -0.27315338193E+02 -0.14440174082E+03  0.14696259355E+03  0.00000000000E+00 0. -1.
<mgrwt>
<rscale>  2 0.27315584E+02</rscale>
<asrwt>0</asrwt>
<pdfrwt beam="1">  1       21 0.24101120E-03 0.27315584E+02</pdfrwt>
<pdfrwt beam="2">  1       21 0.12270286E+00 0.27315584E+02</pdfrwt>
<totfact> 0.14631261E+07</totfact>
</mgrwt>
</event>
<event>
 4    1  0.4578942E+006  0.2590347E+02  0.7546771E-02  0.1648354E+00
         21   -1    0    0  503  501  0.00000000000E+00  0.00000000000E+00  0.12558197538E+02  0.12558197538E+02  0.00000000000E+00 0.  1.
         21   -1    0    0  501  502 -0.00000000000E+00 -0.00000000000E+00 -0.38324285613E+03  0.38324285613E+03  0.00000000000E+00 0. -1.
         21    1    1    2  503  504  0.11580363460E+02  0.23170783289E+02 -0.17546986022E+01  0.25962838506E+02  0.00000000000E+00 0.  1.
         21    1    1    2  504  502 -0.11580363460E+02 -0.23170783289E+02 -0.36892995999E+03  0.36983821517E+03  0.00000000000E+00 0. -1.
<mgrwt>
<rscale>  2 0.25903475E+02</rscale>
<asrwt>0</asrwt>
<pdfrwt beam="1">  1       21 0.19320303E-02 0.25903475E+02</pdfrwt>
<pdfrwt beam="2">  1       21 0.58960442E-01 0.25903475E+02</pdfrwt>
<totfact> 0.31000166E+06</totfact>
</mgrwt>
</event>
<event>
 4    1  0.4578942E+006  0.3119136E+02  0.7546771E-02  0.1585281E+00
         21   -1    0    0  504  501  0.00000000000E+00  0.00000000000E+00  0.33348164774E+03  0.33348164774E+03  0.00000000000E+00 0.  1.
         21   -1    0    0  503  502 -0.00000000000E+00 -0.00000000000E+00 -0.47959421460E+01  0.47959421460E+01  0.00000000000E+00 0.  1.
         21    1    1    2  503  501  0.20717514858E+02  0.23317060834E+02  0.58486663823E+02  0.66284165477E+02  0.00000000000E+00 0.  1.
         21    1    1    2  504  502 -0.20717514858E+02 -0.23317060834E+02  0.27019904177E+03  0.27199342441E+03  0.00000000000E+00 0.  1.
<mgrwt>
<rscale>  2 0.31191357E+02</rscale>
<asrwt>0</asrwt>
<pdfrwt beam="1">  1       21 0.51304851E-01 0.31191357E+02</pdfrwt>
<pdfrwt beam="2">  1       21 0.73783751E-03 0.31191357E+02</pdfrwt>
<totfact> 0.18159576E+07</totfact>
</mgrwt>
</event>
<event>
 4    1  0.4578942E+006  0.2279564E+02  0.7546771E-02  0.1694844E+00
         21   -1    0    0  502  501  0.00000000000E+00  0.00000000000E+00  0.50923721373E+03  0.50923721373E+03  0.00000000000E+00 0. -1.
         21   -1    0    0  504  502 -0.00000000000E+00 -0.00000000000E+00 -0.63809670284E+02  0.63809670284E+02  0.00000000000E+00 0.  1.
         21    1    1    2  503  501 -0.18387292581E+02  0.13473997718E+02  0.50693697002E+03  0.50744924152E+03  0.00000000000E+00 0. -1.
         21    1    1    2  504  503  0.18387292581E+02 -0.13473997718E+02 -0.61509426577E+02  0.65597642494E+02  0.00000000000E+00 0.  1.
<mgrwt>
<rscale>  2 0.22795639E+02</rscale>
<asrwt>0</asrwt>
<pdfrwt beam="1">  1       21 0.78344184E-01 0.22795639E+02</pdfrwt>
<pdfrwt beam="2">  1       21 0.98168727E-02 0.22795639E+02</pdfrwt>
<totfact> 0.12992361E+05</totfact>
</mgrwt>
</event>
<event>
 4    1  0.4578942E+006  0.6562238E+02  0.7546771E-02  0.1375646E+00
         21   -1    0    0  504  501  0.00000000000E+00  0.00000000000E+00  0.75809816399E+02  0.75809816399E+02  0.00000000000E+00 0. -1.
         21   -1    0    0  503  502 -0.00000000000E+00 -0.00000000000E+00 -0.12241400272E+03  0.12241400272E+03  0.00000000000E+00 0.  1.
         21    1    1    2  503  501  0.29384977237E+02  0.58675551923E+02  0.49257606467E+02  0.82052477571E+02  0.00000000000E+00 0. -1.
         21    1    1    2  504  502 -0.29384977237E+02 -0.58675551923E+02 -0.95861792786E+02  0.11617134155E+03  0.00000000000E+00 0.  1.
<mgrwt>
<rscale>  2 0.65622384E+02</rscale>
<asrwt>0</asrwt>
<pdfrwt beam="1">  1       21 0.11663049E-01 0.65622384E+02</pdfrwt>
<pdfrwt beam="2">  1       21 0.18832923E-01 0.65622384E+02</pdfrwt>
<totfact> 0.15542337E+06</totfact>
</mgrwt>
</event>
<event>
 4    1  0.4578942E+006  0.2612588E+02  0.7546771E-02  0.1645338E+00
         21   -1    0    0  504  501  0.00000000000E+00  0.00000000000E+00  0.24495394065E+01  0.24495394065E+01  0.00000000000E+00 0.  1.
         21   -1    0    0  503  502 -0.00000000000E+00 -0.00000000000E+00 -0.16970123741E+04  0.16970123741E+04  0.00000000000E+00 0.  1.
         21    1    1    2  503  501 -0.21905000134E+02  0.14238416764E+02 -0.70439412947E+02  0.75128373064E+02  0.00000000000E+00 0.  1.
         21    1    1    2  504  502  0.21905000134E+02 -0.14238416764E+02 -0.16241234218E+04  0.16243335405E+04  0.00000000000E+00 0.  1.
<mgrwt>
<rscale>  2 0.26125879E+02</rscale>
<asrwt>0</asrwt>
<pdfrwt beam="1">  1       21 0.37685109E-03 0.26125879E+02</pdfrwt>
<pdfrwt beam="2">  1       21 0.26107961E+00 0.26125879E+02</pdfrwt>
<totfact> 0.11046832E+06</totfact>
</mgrwt>
</event>
<event>
 4    1  0.4578942E+006  0.2153139E+02  0.7546771E-02  0.1716485E+00
         21   -1    0    0  503  501  0.00000000000E+00  0.00000000000E+00  0.39672849587E+02  0.39672849587E+02  0.00000000000E+00 0. -1.
         21   -1    0    0  501  502 -0.00000000000E+00 -0.00000000000E+00 -0.12114201420E+02  0.12114201420E+02  0.00000000000E+00 0.  1.
         21    1    1    2  503  504 -0.11062422460E+02  0.18472233379E+02  0.18649856027E+02  0.28485394969E+02  0.00000000000E+00 0. -1.
         21    1    1    2  504  502  0.11062422460E+02 -0.18472233379E+02  0.89087921403E+01  0.23301656038E+02  0.00000000000E+00 0.  1.
<mgrwt>
<rscale>  2 0.21531386E+02</rscale>
<asrwt>0</asrwt>
<pdfrwt beam="1">  1       21 0.61035153E-02 0.21531386E+02</pdfrwt>
<pdfrwt beam="2">  1       21 0.18637233E-02 0.21531386E+02</pdfrwt>
<totfact> 0.17018883E+08</totfact>
</mgrwt>
</event>
<event>
 4    1  0.4578942E+006  0.2147146E+02  0.7546771E-02  0.1717556E+00
         21   -1    0    0  504  501  0.00000000000E+00  0.00000000000E+00  0.32616461497E+03  0.32616461497E+03  0.00000000000E+00 0. -1.
         21   -1    0    0  501  502 -0.00000000000E+00 -0.00000000000E+00 -0.76237136192E+01  0.76237136192E+01  0.00000000000E+00 0.  1.
         21    1    1    2  503  502 -0.14145049539E+02  0.16153667851E+02  0.86401874348E+01  0.23144680824E+02  0.00000000000E+00 0.  1.
         21    1    1    2  504  503  0.14145049539E+02 -0.16153667851E+02  0.30990071391E+03  0.31064364776E+03  0.00000000000E+00 0. -1.
<mgrwt>
<rscale>  2 0.21471456E+02</rscale>
<asrwt>0</asrwt>
<pdfrwt beam="1">  1       21 0.50179161E-01 0.21471456E+02</pdfrwt>
<pdfrwt beam="2">  1       21 0.11728793E-02 0.21471456E+02</pdfrwt>
<totfact> 0.88482174E+06</totfact>
</mgrwt>
</event>
<event>
 4    1  0.4578942E+006  0.2056485E+02  0.7546771E-02  0.1734323E+00
         21   -1    0    0  503  501  0.00000000000E+00  0.00000000000E+00  0.34847187074E+02  0.34847187074E+02  0.00000000000E+00 0. -1.
         21   -1    0    0  504  502 -0.00000000000E+00 -0.00000000000E+00 -0.44912198014E+02  0.44912198014E+02  0.00000000000E+00 0.  1.
         21    1    1    2  503  502  0.20398449125E+02 -0.26108336762E+01 -0.39100570425E+02  0.44178816040E+02  0.00000000000E+00 0.  1.
         21    1    1    2  504  501 -0.20398449125E+02  0.26108336762E+01  0.29035559484E+02  0.35580569048E+02  0.00000000000E+00 0. -1.
<mgrwt>
<rscale>  2 0.20564853E+02</rscale>
<asrwt>0</asrwt>
<pdfrwt beam="1">  1       21 0.53611057E-02 0.20564853E+02</pdfrwt>
<pdfrwt beam="2">  1       21 0.69095689E-02 0.20564853E+02</pdfrwt>
<totfact> 0.26591392E+07</totfact>
</mgrwt>
</event>
<event>
 4    1  0.4578942E+006  0.2859049E+02  0.7546771E-02  0.1614213E+00
         21   -1    0    0  502  501  0.00000000000E+00  0.00000000000E+00  0.36797369198E+03  0.36797369198E+03  0.00000000000E+00 0.  1.
         21   -1    0    0  503  502 -0.00000000000E+00 -0.00000000000E+00 -0.10947093305E+02  0.10947093305E+02  0.00000000000E+00 0.  1.
         21    1    1    2  503  504 -0.17893612222E+02  0.22298758614E+02  0.93644503114E+01  0.30085028232E+02  0.00000000000E+00 0.  1.
         21    1    1    2  504  501  0.17893612222E+02 -0.22298758614E+02  0.34766214837E+03  0.34883575706E+03  0.00000000000E+00 0.  1.
<mgrwt>
<rscale>  2 0.28590488E+02</rscale>
<asrwt>0</asrwt>
<pdfrwt beam="1">  1       21 0.56611328E-01 0.28590488E+02</pdfrwt>
<pdfrwt beam="2">  1       21 0.16841685E-02 0.28590488E+02</pdfrwt>
<totfact> 0.42047847E+06</totfact>
</mgrwt>
</event>
<event>
 4    1  0.4578942E+006  0.2080779E+02  0.7546771E-02  0.1729725E+00
         21   -1    0    0  504  501  0.00000000000E+00  0.00000000000E+00  0.59377278241E+02  0.59377278241E+02  0.00000000000E+00 0.  1.
         21   -1    0    0  503  502 -0.00000000000E+00 -0.00000000000E+00 -0.24720257425E+02  0.24720257425E+02  0.00000000000E+00 0. -1.
         21    1    1    2  503  501  0.20491816249E+02 -0.36124319024E+01  0.52635191304E+02  0.56598830033E+02  0.00000000000E+00 0.  1.
         21    1    1    2  504  502 -0.20491816249E+02  0.36124319024E+01 -0.17978170488E+02  0.27498705634E+02  0.00000000000E+00 0. -1.
<mgrwt>
<rscale>  2 0.20807792E+02</rscale>
<asrwt>0</asrwt>
<pdfrwt beam="1">  1       21 0.91349658E-02 0.20807792E+02</pdfrwt>
<pdfrwt beam="2">  1       21 0.38031165E-02 0.20807792E+02</pdfrwt>
<totfact> 0.29129310E+07</totfact>
</mgrwt>
</event>
<event>
 4    1  0.4578942E+006  0.2313990E+02  0.7546771E-02  0.1689252E+00
         21   -1    0    0  502  501  0.00000000000E+00  0.00000000000E+00  0.16932029149E+02  0.16932029149E+02  0.00000000000E+00 0.  1.
         21   -1    0    0  503  502 -0.00000000000E+00 -0.00000000000E+00 -0.34715217304E+02  0.34715217304E+02  0.00000000000E+00 0.  1.
         21    1    1    2  503  504 -0.83720395719E+01 -0.21572297899E+02 -0.11854675928E+01  0.23170248523E+02  0.00000000000E+00 0.  1.
         21    1    1    2  504  501  0.83720395719E+01  0.21572297899E+02 -0.16597720562E+02  0.28476997930E+02  0.00000000000E+00 0.  1.
<mgrwt>
<rscale>  2 0.23139902E+02</rscale>
<asrwt>0</asrwt>
<pdfrwt beam="1">  1       21 0.26049276E-02 0.23139902E+02</pdfrwt>
<pdfrwt beam="2">  1       21 0.53408025E-02 0.23139902E+02</pdfrwt>
<totfact> 0.12871135E+08</totfact>
</mgrwt>
</event>
<event>
 4    1  0.4578942E+006  0.2969731E+02  0.7546771E-02  0.1601459E+00
         21   -1    0    0  504  501  0.00000000000E+00  0.00000000000E+00  0.63292363195E+02  0.63292363195E+02  0.00000000000E+00 0. -1.
         21   -1    0    0  503  502 -0.00000000000E+00 -0.00000000000E+00 -0.15381551598E+02  0.15381551598E+02  0.00000000000E+00 0. -1.
         21    1    1    2  503  501  0.22859633940E+02 -0.18956980412E+02  0.36021983240E+02  0.46685257274E+02  0.00000000000E+00 0. -1.
         21    1    1    2  504  502 -0.22859633940E+02  0.18956980412E+02  0.11888828357E+02  0.31988657520E+02  0.00000000000E+00 0. -1.
<mgrwt>
<rscale>  2 0.29697306E+02</rscale>
<asrwt>0</asrwt>
<pdfrwt beam="1">  1       21 0.97372865E-02 0.29697306E+02</pdfrwt>
<pdfrwt beam="2">  1       21 0.23663926E-02 0.29697306E+02</pdfrwt>
<totfact> 0.59878601E+07</totfact>
</mgrwt>
</event>
<event>
 4    1  0.4578942E+006  0.3159017E+02  0.7546771E-02  0.1581148E+00
         21   -1    0    0  504  501  0.00000000000E+00  0.00000000000E+00  0.66274782258E+03  0.66274782258E+03  0.00000000000E+00 0.  1.
         21   -1    0    0  501  502 -0.00000000000E+00 -0.00000000000E+00 -0.36524232124E+01  0.36524232124E+01  0.00000000000E+00 0.  1.
         21    1    1    2  503  502  0.31201118780E+02  0.49425713300E+01  0.74103165659E+02  0.80555682513E+02  0.00000000000E+00 0.  1.
         21    1    1    2  504  503 -0.31201118780E+02 -0.49425713300E+01  0.58499223371E+03  0.58584456328E+03  0.00000000000E+00 0.  1.
<mgrwt>
<rscale>  2 0.31590170E+02</rscale>
<asrwt>0</asrwt>
<pdfrwt beam="1">  1       21 0.10196111E+00 0.31590170E+02</pdfrwt>
<pdfrwt beam="2">  1       21 0.56191179E-03 0.31590170E+02</pdfrwt>
<totfact> 0.65015927E+06</totfact>
</mgrwt>
</event>
<event>
 4    1  0.4578942E+006  0.2149871E+02  0.7546771E-02  0.1717068E+00
         21   -1    0    0  504  501  0.00000000000E+00  0.00000000000E+00  0.74510707755E+00  0.74510707755E+00  0.00000000000E+00 0. -1.
         21   -1    0    0  503  502 -0.00000000000E+00 -0.00000000000E+00 -0.63285395749E+03  0.63285395749E+03  0.00000000000E+00 0. -1.
         21    1    1    2  503  501  0.20091105173E+02  0.76512875110E+01 -0.27144650832E+03  0.27229653245E+03  0.00000000000E+00 0. -1.
         21    1    1    2  504  502 -0.20091105173E+02 -0.76512875110E+01 -0.36066234209E+03  0.36130253211E+03  0.00000000000E+00 0. -1.
<mgrwt>
<rscale>  2 0.21498714E+02</rscale>
<asrwt>0</asrwt>
<pdfrwt beam="1">  1       21 0.11463103E-03 0.21498714E+02</pdfrwt>
<pdfrwt beam="2">  1       21 0.97362851E-01 0.21498714E+02</pdfrwt>
<totfact> 0.68270130E+07</totfact>
</mgrwt>
</event>
<event>
 4    1  0.4578942E+006  0.6121594E+02  0.7546771E-02  0.1392799E+00
         21   -1    0    0  504  501  0.00000000000E+00  0.00000000000E+00  0.10675270695E+02  0.10675270695E+02  0.00000000000E+00 0.  1.
         21   -1    0    0  501  502 -0.00000000000E+00 -0.00000000000E+00 -0.95743204768E+03  0.95743204768E+03  0.00000000000E+00 0.  1.
         21    1    1    2  503  502 -0.15939423867E+02 -0.59104366617E+02 -0.85860665138E+03  0.86078613672E+03  0.00000000000E+00 0.  1.
         21    1    1    2  504  503  0.15939423867E+02  0.59104366617E+02 -0.88150125604E+02  0.10732118165E+03  0.00000000000E+00 0.  1.
<mgrwt>
<rscale>  2 0.61215941E+02</rscale>
<asrwt>0</asrwt>
<pdfrwt beam="1">  1       21 0.16423490E-02 0.61215941E+02</pdfrwt>
<pdfrwt beam="2">  1       21 0.14729727E+00 0.61215941E+02</pdfrwt>
<totfact> 0.54809290E+05</totfact>
</mgrwt>
</event>
<event>
 4    1  0.4578942E+006  0.2339449E+02  0.7546771E-02  0.1685194E+00
         21   -1    0    0  503  501  0.00000000000E+00  0.00000000000E+00  0.49846766776E+02  0.49846766776E+02  0.00000000000E+00 0. -1.
         21   -1    0    0  504  502 -0.00000000000E+00 -0.00000000000E+00 -0.63176439139E+02  0.63176439139E+02  0.00000000000E+00 0. -1.
         21    1    1    2  503  502  0.16534511330E+02  0.16550284454E+02  0.44701878234E+02  0.50453541978E+02  0.00000000000E+00 0. -1.
         21    1    1    2  504  501 -0.16534511330E+02 -0.16550284454E+02 -0.58031550597E+02  0.62569663937E+02  0.00000000000E+00 0. -1.
<mgrwt>
<rscale>  2 0.23394486E+02</rscale>
<asrwt>0</asrwt>
<pdfrwt beam="1">  1       21 0.76687334E-02 0.23394486E+02</pdfrwt>
<pdfrwt beam="2">  1       21 0.97194521E-02 0.23394486E+02</pdfrwt>
<totfact> 0.88091846E+06</totfact>
</mgrwt>
</event>
<event>
 4    1  0.4578942E+006  0.2012951E+02  0.7546771E-02  0.1742765E+00
         21   -1    0    0  503  501  0.00000000000E+00  0.00000000000E+00  0.73621615901E+03  0.73621615901E+03  0.00000000000E+00 0. -1.
         21   -1    0    0  501  502 -0.00000000000E+00 -0.00000000000E+00 -0.13876202177E+01  0.13876202177E+01  0.00000000000E+00 0.  1.
         21    1    1    2  503  504  0.19667101195E+02 -0.42897767789E+01  0.65388709461E+03  0.65419685841E+03  0.00000000000E+00 0. -1.
         21    1    1    2  504  502 -0.19667101195E+02  0.42897767789E+01  0.80941444188E+02  0.83406920825E+02  0.00000000000E+00 0.  1.
<mgrwt>
<rscale>  2 0.20129507E+02</rscale>
<asrwt>0</asrwt>
<pdfrwt beam="1">  1       21 0.11326371E+00 0.20129507E+02</pdfrwt>
<pdfrwt beam="2">  1       21 0.21348062E-03 0.20129507E+02</pdfrwt>
<totfact> 0.19814338E+07</totfact>
</mgrwt>
</event>
<event>
 4    1  0.4578942E+006  0.2016800E+02  0.7546771E-02  0.1742008E+00
         21   -1    0    0  503  501  0.00000000000E+00  0.00000000000E+00  0.12480711354E+03  0.12480711354E+03  0.00000000000E+00 0.  1.
         21   -1    0    0  501  502 -0.00000000000E+00 -0.00000000000E+00 -0.32636470040E+01  0.32636470040E+01  0.00000000000E+00 0.  1.
         21    1    1    2  503  504 -0.91439510176E+01 -0.17975990635E+02  0.58358947161E+02  0.61745564968E+02  0.00000000000E+00 0.  1.
         21    1    1    2  504  502  0.91439510176E+01  0.17975990635E+02  0.63184519373E+02  0.66325195574E+02  0.00000000000E+00 0.  1.
<mgrwt>
<rscale>  2 0.20167996E+02</rscale>
<asrwt>0</asrwt>
<pdfrwt beam="1">  1       21 0.19201091E-01 0.20167996E+02</pdfrwt>
<pdfrwt beam="2">  1       21 0.50209964E-03 0.20167996E+02</pdfrwt>
<totfact> 0.17715944E+08</totfact>
</mgrwt>
</event>
<event>
 4    1  0.4578942E+006  0.2333409E+02  0.7546771E-02  0.1686151E+00
         21   -1    0    0  503  501  0.00000000000E+00  0.00000000000E+00  0.18202665696E+03  0.18202665696E+03  0.00000000000E+00 0.  1.
         21   -1    0    0  504  502 -0.00000000000E+00 -0.00000000000E+00 -0.33801540953E+02  0.33801540953E+02  0.00000000000E+00 0. -1.
         21    1    1    2  503  502 -0.22266572393E+02  0.69770661929E+01 -0.28916120840E+02  0.37156718682E+02  0.00000000000E+00 0. -1.
         21    1    1    2  504  501  0.22266572393E+02 -0.69770661929E+01  0.17714123684E+03  0.17867147923E+03  0.00000000000E+00 0.  1.
<mgrwt>
<rscale>  2 0.23334089E+02</rscale>
<asrwt>0</asrwt>
<pdfrwt beam="1">  1       21 0.28004101E-01 0.23334089E+02</pdfrwt>
<pdfrwt beam="2">  1       21 0.52002371E-02 0.23334089E+02</pdfrwt>
<totfact> 0.26655082E+06</totfact>
</mgrwt>
</event>
<event>
 4    1  0.4578942E+006  0.3445950E+02  0.7546771E-02  0.1553453E+00
         21   -1    0    0  502  501  0.00000000000E+00  0.00000000000E+00  0.11346037598E+03  0.11346037598E+03  0.00000000000E+00 0. -1.
         21   -1    0    0  504  502 -0.00000000000E+00 -0.00000000000E+00 -0.14233814366E+02  0.14233814366E+02  0.00000000000E+00 0. -1.
         21    1    1    2  503  501 -0.32322995474E+02  0.11944924117E+02  0.82463246294E+02  0.89373621600E+02  0.00000000000E+00 0. -1.
         21    1    1    2  504  503  0.32322995474E+02 -0.11944924117E+02  0.16763315324E+02  0.38320568749E+02  0.00000000000E+00 0. -1.
<mgrwt>
<rscale>  2 0.34459502E+02</rscale>
<asrwt>0</asrwt>
<pdfrwt beam="1">  1       21 0.17455442E-01 0.34459502E+02</pdfrwt>
<pdfrwt beam="2">  1       21 0.21898177E-02 0.34459502E+02</pdfrwt>
<totfact> 0.25701323E+07</totfact>
</mgrwt>
</event>
<event>
 4    1  0.4578942E+006  0.2799907E+02  0.7546771E-02  0.1621321E+00
         21   -1    0    0  502  501  0.00000000000E+00  0.00000000000E+00  0.13072730337E+02  0.13072730337E+02  0.00000000000E+00 0.  1.
         21   -1    0    0  503  502 -0.00000000000E+00 -0.00000000000E+00 -0.92824856944E+02  0.92824856944E+02  0.00000000000E+00 0.  1.
         21    1    1    2  503  504 -0.11520035627E+01  0.27975360563E+02 -0.71377888085E+02  0.76673012320E+02  0.00000000000E+00 0.  1.
         21    1    1    2  504  501  0.11520035627E+01 -0.27975360563E+02 -0.83742385225E+01  0.29224574961E+02  0.00000000000E+00 0.  1.
<mgrwt>
<rscale>  2 0.27999070E+02</rscale>
<asrwt>0</asrwt>
<pdfrwt beam="1">  1       21 0.20111893E-02 0.27999070E+02</pdfrwt>
<pdfrwt beam="2">  1       21 0.14280747E-01 0.27999070E+02</pdfrwt>
<totfact> 0.39834632E+07</totfact>
</mgrwt>
</event>
<event>
 4    1  0.4578942E+006  0.2551425E+02  0.7546771E-02  0.1653724E+00
         21   -1    0    0  504  501  0.00000000000E+00  0.00000000000E+00  0.63703468868E+02  0.63703468868E+02  0.00000000000E+00 0. -1.
         21   -1    0    0  501  502 -0.00000000000E+00 -0.00000000000E+00 -0.11593324779E+02  0.11593324779E+02  0.00000000000E+00 0. -1.
         21    1    1    2  503  502  0.20089420573E+02 -0.15728696923E+02  0.39018192358E+02  0.46619696060E+02  0.00000000000E+00 0. -1.
         21    1    1    2  504  503 -0.20089420573E+02  0.15728696923E+02  0.13091951731E+02  0.28677097587E+02  0.00000000000E+00 0. -1.
<mgrwt>
<rscale>  2 0.25514246E+02</rscale>
<asrwt>0</asrwt>
<pdfrwt beam="1">  1       21 0.98005335E-02 0.25514246E+02</pdfrwt>
<pdfrwt beam="2">  1       21 0.17835885E-02 0.25514246E+02</pdfrwt>
<totfact> 0.88338473E+07</totfact>
</mgrwt>
</event>
<event>
 4    1  0.4578942E+006  0.3015087E+02  0.7546771E-02  0.1596427E+00
         21   -1    0    0  504  501  0.00000000000E+00  0.00000000000E+00  0.92096313308E+01  0.92096313308E+01  0.00000000000E+00 0. -1.
         21   -1    0    0  503  502 -0.00000000000E+00 -0.00000000000E+00 -0.10013887125E+03  0.10013887125E+03  0.00000000000E+00 0. -1.
         21    1    1    2  503  501 -0.30032710508E+02 -0.26666974260E+01 -0.38931725898E+02  0.49241793804E+02  0.00000000000E+00 0. -1.
         21    1    1    2  504  502  0.30032710508E+02  0.26666974260E+01 -0.51997514024E+02  0.60106708779E+02  0.00000000000E+00 0. -1.
<mgrwt>
<rscale>  2 0.30150870E+02</rscale>
<asrwt>0</asrwt>
<pdfrwt beam="1">  1       21 0.14168663E-02 0.30150870E+02</pdfrwt>
<pdfrwt beam="2">  1       21 0.15405981E-01 0.30150870E+02</pdfrwt>
<totfact> 0.60942029E+07</totfact>
</mgrwt>
</event>
<event>
 4    1  0.4578942E+006  0.2083760E+02  0.7546771E-02  0.1729167E+00
         21   -1    0    0  502  501  0.00000000000E+00  0.00000000000E+00  0.83359213513E+03  0.83359213513E+03  0.00000000000E+00 0. -1.
         21   -1    0    0  503  502 -0.00000000000E+00 -0.00000000000E+00 -0.14837948040E+01  0.14837948040E+01  0.00000000000E+00 0. -1.
         21    1    1    2  503  504  0.20617999126E+02  0.30172013003E+01  0.79696048554E+02  0.82375151270E+02  0.00000000000E+00 0. -1.
         21    1    1    2  504  501 -0.20617999126E+02 -0.30172013003E+01  0.75241229177E+03  0.75270077866E+03  0.00000000000E+00 0. -1.
<mgrwt>
<rscale>  2 0.20837596E+02</rscale>
<asrwt>0</asrwt>
<pdfrwt beam="1">  1       21 0.12824457E+00 0.20837596E+02</pdfrwt>
<pdfrwt beam="2">  1       21 0.22827679E-03 0.20837596E+02</pdfrwt>
<totfact> 0.13686763E+07</totfact>
</mgrwt>
</event>
<event>
 4    1  0.4578942E+006  0.2668334E+02  0.7546771E-02  0.1637938E+00
         21   -1    0    0  503  501  0.00000000000E+00  0.00000000000E+00  0.12764385539E+01  0.12764385539E+01  0.00000000000E+00 0. -1.
         21   -1    0    0  504  502 -0.00000000000E+00 -0.00000000000E+00 -0.63177439979E+03  0.63177439979E+03  0.00000000000E+00 0. -1.
         21    1    1    2  503  502  0.22069838094E+02  0.14997429414E+02 -0.20694088815E+03  0.20865409612E+03  0.00000000000E+00 0. -1.
         21    1    1    2  504  501 -0.22069838094E+02 -0.14997429414E+02 -0.42355707309E+03  0.42439674222E+03  0.00000000000E+00 0. -1.
<mgrwt>
<rscale>  2 0.26683340E+02</rscale>
<asrwt>0</asrwt>
<pdfrwt beam="1">  1       21 0.19637501E-03 0.26683340E+02</pdfrwt>
<pdfrwt beam="2">  1       21 0.97196136E-01 0.26683340E+02</pdfrwt>
<totfact> 0.33097913E+07</totfact>
</mgrwt>
</event>
<event>
 4    1  0.4578942E+006  0.2302485E+02  0.7546771E-02  0.1691108E+00
         21   -1    0    0  502  501  0.00000000000E+00  0.00000000000E+00  0.15366991002E+02  0.15366991002E+02  0.00000000000E+00 0.  1.
         21   -1    0    0  504  502 -0.00000000000E+00 -0.00000000000E+00 -0.89241486133E+02  0.89241486133E+02  0.00000000000E+00 0. -1.
         21    1    1    2  503  501  0.22127728432E+02 -0.63645230816E+01  0.40280713435E+01  0.23374534827E+02  0.00000000000E+00 0.  1.
         21    1    1    2  504  503 -0.22127728432E+02  0.63645230816E+01 -0.77902566475E+02  0.81233942309E+02  0.00000000000E+00 0. -1.
<mgrwt>
<rscale>  2 0.23024846E+02</rscale>
<asrwt>0</asrwt>
<pdfrwt beam="1">  1       21 0.23641525E-02 0.23024846E+02</pdfrwt>
<pdfrwt beam="2">  1       21 0.13729459E-01 0.23024846E+02</pdfrwt>
<totfact> 0.31734129E+07</totfact>
</mgrwt>
</event>
<event>
 4    1  0.4578942E+006  0.3210462E+02  0.7546771E-02  0.1575926E+00
         21   -1    0    0  503  501  0.00000000000E+00  0.00000000000E+00  0.12713159962E+02  0.12713159962E+02  0.00000000000E+00 0. -1.
         21   -1    0    0  504  502 -0.00000000000E+00 -0.00000000000E+00 -0.16535711792E+03  0.16535711792E+03  0.00000000000E+00 0.  1.
         21    1    1    2  503  502  0.31508437321E+02 -0.61583279856E+01 -0.13988730979E+03  0.14352409577E+03  0.00000000000E+00 0.  1.
         21    1    1    2  504  501 -0.31508437321E+02  0.61583279856E+01 -0.12756648166E+02  0.34546182111E+02  0.00000000000E+00 0. -1.
<mgrwt>
<rscale>  2 0.32104620E+02</rscale>
<asrwt>0</asrwt>
<pdfrwt beam="1">  1       21 0.19558707E-02 0.32104620E+02</pdfrwt>
<pdfrwt beam="2">  1       21 0.25439557E-01 0.32104620E+02</pdfrwt>
<totfact> 0.15478242E+07</totfact>
</mgrwt>
</event>
<event>
 4    1  0.4578942E+006  0.2029842E+02  0.7546771E-02  0.1739458E+00
         21   -1    0    0  503  501  0.00000000000E+00  0.00000000000E+00  0.11367674207E+02  0.11367674207E+02  0.00000000000E+00 0. -1.
         21   -1    0    0  504  502 -0.00000000000E+00 -0.00000000000E+00 -0.59219152502E+02  0.59219152502E+02  0.00000000000E+00 0.  1.
         21    1    1    2  503  502 -0.19830619639E+02 -0.43326976255E+01 -0.45908319351E+02  0.50195612653E+02  0.00000000000E+00 0.  1.
         21    1    1    2  504  501  0.19830619639E+02  0.43326976255E+01 -0.19431589434E+01  0.20391214055E+02  0.00000000000E+00 0. -1.
<mgrwt>
<rscale>  2 0.20298417E+02</rscale>
<asrwt>0</asrwt>
<pdfrwt beam="1">  1       21 0.17488730E-02 0.20298417E+02</pdfrwt>
<pdfrwt beam="2">  1       21 0.91106389E-02 0.20298417E+02</pdfrwt>
<totfact> 0.96299371E+07</totfact>
</mgrwt>
</event>
<event>
 4    1  0.4578942E+006  0.2884745E+02  0.7546771E-02  0.1611189E+00
         21   -1    0    0  504  501  0.00000000000E+00  0.00000000000E+00  0.33547126287E+03  0.33547126287E+03  0.00000000000E+00 0.  1.
         21   -1    0    0  501  502 -0.00000000000E+00 -0.00000000000E+00 -0.10894353177E+03  0.10894353177E+03  0.00000000000E+00 0.  1.
         21    1    1    2  503  502 -0.26527133208E+02  0.11335202822E+02 -0.10639916155E+03  0.11024045173E+03  0.00000000000E+00 0.  1.
         21    1    1    2  504  503  0.26527133208E+02 -0.11335202822E+02  0.33292689264E+03  0.33417434291E+03  0.00000000000E+00 0.  1.
<mgrwt>
<rscale>  2 0.28847454E+02</rscale>
<asrwt>0</asrwt>
<pdfrwt beam="1">  1       21 0.51610963E-01 0.28847454E+02</pdfrwt>
<pdfrwt beam="2">  1       21 0.16760543E-01 0.28847454E+02</pdfrwt>
<totfact> 0.12261455E+05</totfact>
</mgrwt>
</event>
<event>
 4    1  0.4578942E+006  0.2865573E+02  0.7546771E-02  0.1613441E+00
         21   -1    0    0  503  501  0.00000000000E+00  0.00000000000E+00  0.26660876011E+03  0.26660876011E+03  0.00000000000E+00 0. -1.
         21   -1    0    0  504  502 -0.00000000000E+00 -0.00000000000E+00 -0.10806726863E+02  0.10806726863E+02  0.00000000000E+00 0. -1.
         21    1    1    2  503  502 -0.95224751322E+01 -0.27027272793E+02  0.24518854064E+03  0.24685739095E+03  0.00000000000E+00 0. -1.
         21    1    1    2  504  501  0.95224751322E+01  0.27027272793E+02  0.10613492613E+02  0.30558096026E+02  0.00000000000E+00 0. -1.
<mgrwt>
<rscale>  2 0.28655733E+02</rscale>
<asrwt>0</asrwt>
<pdfrwt beam="1">  1       21 0.41016727E-01 0.28655733E+02</pdfrwt>
<pdfrwt beam="2">  1       21 0.16625736E-02 0.28655733E+02</pdfrwt>
<totfact> 0.80475608E+06</totfact>
</mgrwt>
</event>
<event>
 4    1  0.4578942E+006  0.2397746E+02  0.7546771E-02  0.1676139E+00
         21   -1    0    0  502  501  0.00000000000E+00  0.00000000000E+00  0.12089294022E+03  0.12089294022E+03  0.00000000000E+00 0.  1.
         21   -1    0    0  503  502 -0.00000000000E+00 -0.00000000000E+00 -0.10108148688E+03  0.10108148688E+03  0.00000000000E+00 0.  1.
         21    1    1    2  503  504 -0.18330973331E+02  0.15456203151E+02 -0.98439214782E+02  0.10131731247E+03  0.00000000000E+00 0.  1.
         21    1    1    2  504  501  0.18330973331E+02 -0.15456203151E+02  0.11825066812E+03  0.12065711462E+03  0.00000000000E+00 0.  1.
<mgrwt>
<rscale>  2 0.23977464E+02</rscale>
<asrwt>0</asrwt>
<pdfrwt beam="1">  1       21 0.18598914E-01 0.23977464E+02</pdfrwt>
<pdfrwt beam="2">  1       21 0.15550998E-01 0.23977464E+02</pdfrwt>
<totfact> 0.90742059E+05</totfact>
</mgrwt>
</event>
<event>
 4    1  0.4578942E+006  0.2825230E+02  0.7546771E-02  0.1618251E+00
         21   -1    0    0  502  501  0.00000000000E+00  0.00000000000E+00  0.39050395640E+01  0.39050395640E+01  0.00000000000E+00 0. -1.
         21   -1    0    0  504  502 -0.00000000000E+00 -0.00000000000E+00 -0.27478446679E+03  0.27478446679E+03  0.00000000000E+00 0. -1.
         21    1    1    2  503  501  0.24373143348E+01 -0.28146965928E+02 -0.64916632139E+02  0.70798031897E+02  0.00000000000E+00 0. -1.
         21    1    1    2  504  503 -0.24373143348E+01  0.28146965928E+02 -0.20596279509E+03  0.20789147446E+03  0.00000000000E+00 0. -1.
<mgrwt>
<rscale>  2 0.28252295E+02</rscale>
<asrwt>0</asrwt>
<pdfrwt beam="1">  1       21 0.60077514E-03 0.28252295E+02</pdfrwt>
<pdfrwt beam="2">  1       21 0.42274546E-01 0.28252295E+02</pdfrwt>
<totfact> 0.35358864E+07</totfact>
</mgrwt>
</event>
<event>
 4    1  0.4578942E+006  0.2694944E+02  0.7546771E-02  0.1634483E+00
         21   -1    0    0  504  501  0.00000000000E+00  0.00000000000E+00  0.29528070009E+02  0.29528070009E+02  0.00000000000E+00 0.  1.
         21   -1    0    0  503  502 -0.00000000000E+00 -0.00000000000E+00 -0.25242197043E+02  0.25242197043E+02  0.00000000000E+00 0.  1.
         21    1    1    2  503  501  0.60129499316E+01 -0.26270073640E+02 -0.22386825282E+01  0.27042263873E+02  0.00000000000E+00 0.  1.
         21    1    1    2  504  502 -0.60129499316E+01  0.26270073640E+02  0.65245554942E+01  0.27728003179E+02  0.00000000000E+00 0.  1.
<mgrwt>
<rscale>  2 0.26949440E+02</rscale>
<asrwt>0</asrwt>
<pdfrwt beam="1">  1       21 0.45427800E-02 0.26949440E+02</pdfrwt>
<pdfrwt beam="2">  1       21 0.38834149E-02 0.26949440E+02</pdfrwt>
<totfact> 0.93005842E+07</totfact>
</mgrwt>
</event>
<event>
 4    1  0.4578942E+006  0.2092564E+02  0.7546771E-02  0.1727523E+00
         21   -1    0    0  503  501  0.00000000000E+00  0.00000000000E+00  0.25818287382E+02  0.25818287382E+02  0.00000000000E+00 0.  1.
         21   -1    0    0  504  502 -0.00000000000E+00 -0.00000000000E+00 -0.49929393277E+03  0.49929393277E+03  0.00000000000E+00 0.  1.
         21    1    1    2  503  502  0.56170170990E+01  0.20157663669E+02 -0.49479611624E+03  0.49523840615E+03  0.00000000000E+00 0.  1.
         21    1    1    2  504  501 -0.56170170990E+01 -0.20157663669E+02  0.21320470849E+02  0.29873814000E+02  0.00000000000E+00 0.  1.
<mgrwt>
<rscale>  2 0.20925637E+02</rscale>
<asrwt>0</asrwt>
<pdfrwt beam="1">  1       21 0.39720446E-02 0.20925637E+02</pdfrwt>
<pdfrwt beam="2">  1       21 0.76814443E-01 0.20925637E+02</pdfrwt>
<totfact> 0.57780863E+05</totfact>
</mgrwt>
</event>
<event>
 4    1  0.4578942E+006  0.2005892E+02  0.7546771E-02  0.1744159E+00
         21   -1    0    0  503  501  0.00000000000E+00  0.00000000000E+00  0.16077882400E+02  0.16077882400E+02  0.00000000000E+00 0.  1.
         21   -1    0    0  504  502 -0.00000000000E+00 -0.00000000000E+00 -0.25711958082E+02  0.25711958082E+02  0.00000000000E+00 0. -1.
         21    1    1    2  503  502 -0.12221840494E+02  0.15905564374E+02 -0.82306555249E+01  0.21681883071E+02  0.00000000000E+00 0.  1.
         21    1    1    2  504  501  0.12221840494E+02 -0.15905564374E+02 -0.14034201576E+01  0.20107957411E+02  0.00000000000E+00 0. -1.
<mgrwt>
<rscale>  2 0.20058922E+02</rscale>
<asrwt>0</asrwt>
<pdfrwt beam="1">  1       21 0.24735204E-02 0.20058922E+02</pdfrwt>
<pdfrwt beam="2">  1       21 0.39556859E-02 0.20058922E+02</pdfrwt>
<totfact> 0.21432434E+08</totfact>
</mgrwt>
</event>
<event>
 4    1  0.4578942E+006  0.2359296E+02  0.7546771E-02  0.1682075E+00
         21   -1    0    0  503  501  0.00000000000E+00  0.00000000000E+00  0.43808367830E+02  0.43808367830E+02  0.00000000000E+00 0. -1.
         21   -1    0    0  504  502 -0.00000000000E+00 -0.00000000000E+00 -0.82527342181E+03  0.82527342181E+03  0.00000000000E+00 0. -1.
         21    1    1    2  503  502 -0.18704973240E+02  0.14378864602E+02 -0.82191533485E+03  0.82225388137E+03  0.00000000000E+00 0. -1.
         21    1    1    2  504  501  0.18704973240E+02 -0.14378864602E+02  0.40450280865E+02  0.46827908273E+02  0.00000000000E+00 0. -1.
<mgrwt>
<rscale>  2 0.23592960E+02</rscale>
<asrwt>0</asrwt>
<pdfrwt beam="1">  1       21 0.67397493E-02 0.23592960E+02</pdfrwt>
<pdfrwt beam="2">  1       21 0.12696514E+00 0.23592960E+02</pdfrwt>
<totfact> 0.83519982E+04</totfact>
</mgrwt>
</event>
<event>
 4    1  0.4578942E+006  0.2105341E+02  0.7546771E-02  0.1725156E+00
         21   -1    0    0  502  501  0.00000000000E+00  0.00000000000E+00  0.20852171497E+02  0.20852171497E+02  0.00000000000E+00 0. -1.
         21   -1    0    0  504  502 -0.00000000000E+00 -0.00000000000E+00 -0.27214382546E+02  0.27214382546E+02  0.00000000000E+00 0. -1.
         21    1    1    2  503  501  0.21044103560E+02 -0.62582935787E+00  0.80638209027E+01  0.22544870028E+02  0.00000000000E+00 0. -1.
         21    1    1    2  504  503 -0.21044103560E+02  0.62582935787E+00 -0.14426031952E+02  0.25521684014E+02  0.00000000000E+00 0. -1.
<mgrwt>
<rscale>  2 0.21053407E+02</rscale>
<asrwt>0</asrwt>
<pdfrwt beam="1">  1       21 0.32080264E-02 0.21053407E+02</pdfrwt>
<pdfrwt beam="2">  1       21 0.41868280E-02 0.21053407E+02</pdfrwt>
<totfact> 0.13317537E+08</totfact>
</mgrwt>
</event>
<event>
 4    1  0.4578942E+006  0.2567821E+02  0.7546771E-02  0.1651447E+00
         21   -1    0    0  504  501  0.00000000000E+00  0.00000000000E+00  0.80323630696E+03  0.80323630696E+03  0.00000000000E+00 0. -1.
         21   -1    0    0  503  502 -0.00000000000E+00 -0.00000000000E+00 -0.22697206742E+01  0.22697206742E+01  0.00000000000E+00 0. -1.
         21    1    1    2  503  501  0.12207320341E+02 -0.22590965169E+02  0.72226480390E+03  0.72272112002E+03  0.00000000000E+00 0. -1.
         21    1    1    2  504  502 -0.12207320341E+02  0.22590965169E+02  0.78701782385E+02  0.82784907609E+02  0.00000000000E+00 0. -1.
<mgrwt>
<rscale>  2 0.25678208E+02</rscale>
<asrwt>0</asrwt>
<pdfrwt beam="1">  1       21 0.12357459E+00 0.25678208E+02</pdfrwt>
<pdfrwt beam="2">  1       21 0.34918844E-03 0.25678208E+02</pdfrwt>
<totfact> 0.82949436E+06</totfact>
</mgrwt>
</event>
<event>
 4    1  0.4578942E+006  0.2047775E+02  0.7546771E-02  0.1735991E+00
         21   -1    0    0  502  501  0.00000000000E+00  0.00000000000E+00  0.69568609209E+02  0.69568609209E+02  0.00000000000E+00 0.  1.
         21   -1    0    0  504  502 -0.00000000000E+00 -0.00000000000E+00 -0.68440962350E+01  0.68440962350E+01  0.00000000000E+00 0.  1.
         21    1    1    2  503  501  0.19884430606E+02 -0.48936417976E+01  0.44557868403E+02  0.49038168269E+02  0.00000000000E+00 0.  1.
         21    1    1    2  504  503 -0.19884430606E+02  0.48936417976E+01  0.18166644572E+02  0.27374537175E+02  0.00000000000E+00 0.  1.
<mgrwt>
<rscale>  2 0.20477752E+02</rscale>
<asrwt>0</asrwt>
<pdfrwt beam="1">  1       21 0.10702862E-01 0.20477752E+02</pdfrwt>
<pdfrwt beam="2">  1       21 0.10529379E-02 0.20477752E+02</pdfrwt>
<totfact> 0.15929392E+08</totfact>
</mgrwt>
</event>
<event>
 4    1  0.4578942E+006  0.2071512E+02  0.7546771E-02  0.1731470E+00
         21   -1    0    0  503  501  0.00000000000E+00  0.00000000000E+00  0.36481689923E+00  0.36481689923E+00  0.00000000000E+00 0.  1.
         21   -1    0    0  504  502 -0.00000000000E+00 -0.00000000000E+00 -0.15560280065E+04  0.15560280065E+04  0.00000000000E+00 0.  1.
         21    1    1    2  503  502 -0.14763740431E+02  0.14530932310E+02 -0.39337687835E+03  0.39392192685E+03  0.00000000000E+00 0.  1.
         21    1    1    2  504  501  0.14763740431E+02 -0.14530932310E+02 -0.11622863112E+04  0.11624708965E+04  0.00000000000E+00 0.  1.
<mgrwt>
<rscale>  2 0.20715116E+02</rscale>
<asrwt>0</asrwt>
<pdfrwt beam="1">  1       21 0.56125650E-04 0.20715116E+02</pdfrwt>
<pdfrwt beam="2">  1       21 0.23938904E+00 0.20715116E+02</pdfrwt>
<totfact> 0.21532403E+07</totfact>
</mgrwt>
</event>
<event>
 4    1  0.4578942E+006  0.3202089E+02  0.7546771E-02  0.1576768E+00
         21   -1    0    0  503  501  0.00000000000E+00  0.00000000000E+00  0.13308749624E+03  0.13308749624E+03  0.00000000000E+00 0. -1.
         21   -1    0    0  504  502 -0.00000000000E+00 -0.00000000000E+00 -0.85669990852E+01  0.85669990852E+01  0.00000000000E+00 0. -1.
         21    1    1    2  503  502  0.40751861418E+00  0.32018300559E+02  0.84736893010E+02  0.90585201215E+02  0.00000000000E+00 0. -1.
         21    1    1    2  504  501 -0.40751861418E+00 -0.32018300559E+02  0.39783604142E+02  0.51069294108E+02  0.00000000000E+00 0. -1.
<mgrwt>
<rscale>  2 0.32020894E+02</rscale>
<asrwt>0</asrwt>
<pdfrwt beam="1">  1       21 0.20474998E-01 0.32020894E+02</pdfrwt>
<pdfrwt beam="2">  1       21 0.13180000E-02 0.32020894E+02</pdfrwt>
<totfact> 0.41934598E+07</totfact>
</mgrwt>
</event>
<event>
 4    1  0.4578942E+006  0.2589824E+02  0.7546771E-02  0.1648425E+00
         21   -1    0    0  503  501  0.00000000000E+00  0.00000000000E+00  0.14296895574E+02  0.14296895574E+02  0.00000000000E+00 0. -1.
         21   -1    0    0  504  502 -0.00000000000E+00 -0.00000000000E+00 -0.83833738259E+02  0.83833738259E+02  0.00000000000E+00 0.  1.
         21    1    1    2  503  502 -0.24700891454E+02  0.77836330099E+01 -0.67329350799E+02  0.72138481135E+02  0.00000000000E+00 0.  1.
         21    1    1    2  504  501  0.24700891454E+02 -0.77836330099E+01 -0.22074918855E+01  0.25992152698E+02  0.00000000000E+00 0. -1.
<mgrwt>
<rscale>  2 0.25898243E+02</rscale>
<asrwt>0</asrwt>
<pdfrwt beam="1">  1       21 0.21995224E-02 0.25898243E+02</pdfrwt>
<pdfrwt beam="2">  1       21 0.12897498E-01 0.25898243E+02</pdfrwt>
<totfact> 0.40531537E+07</totfact>
</mgrwt>
</event>
<event>
 4    1  0.4578942E+006  0.2524968E+02  0.7546771E-02  0.1657441E+00
         21   -1    0    0  504  501  0.00000000000E+00  0.00000000000E+00  0.22767101628E+02  0.22767101628E+02  0.00000000000E+00 0.  1.
         21   -1    0    0  501  502 -0.00000000000E+00 -0.00000000000E+00 -0.22502237194E+03  0.22502237194E+03  0.00000000000E+00 0.  1.
         21    1    1    2  503  502  0.22134911069E+02 -0.12148745383E+02 -0.21705728237E+03  0.21852096040E+03  0.00000000000E+00 0.  1.
         21    1    1    2  504  503 -0.22134911069E+02  0.12148745383E+02  0.14802012058E+02  0.29268513173E+02  0.00000000000E+00 0.  1.
<mgrwt>
<rscale>  2 0.25249679E+02</rscale>
<asrwt>0</asrwt>
<pdfrwt beam="1">  1       21 0.35026310E-02 0.25249679E+02</pdfrwt>
<pdfrwt beam="2">  1       21 0.34618827E-01 0.25249679E+02</pdfrwt>
<totfact> 0.34165354E+06</totfact>
</mgrwt>
</event>
<event>
 4    1  0.4578942E+006  0.2186542E+02  0.7546771E-02  0.1710590E+00
         21   -1    0    0  502  501  0.00000000000E+00  0.00000000000E+00  0.63539759690E+01  0.63539759690E+01  0.00000000000E+00 0. -1.
         21   -1    0    0  504  502 -0.00000000000E+00 -0.00000000000E+00 -0.10194690799E+03  0.10194690799E+03  0.00000000000E+00 0. -1.
         21    1    1    2  503  501 -0.11503267093E+02  0.18594926982E+02 -0.20082610421E+02  0.29688511323E+02  0.00000000000E+00 0. -1.
         21    1    1    2  504  503  0.11503267093E+02 -0.18594926982E+02 -0.75510321597E+02  0.78612372632E+02  0.00000000000E+00 0. -1.
<mgrwt>
<rscale>  2 0.21865417E+02</rscale>
<asrwt>0</asrwt>
<pdfrwt beam="1">  1       21 0.97753484E-03 0.21865417E+02</pdfrwt>
<pdfrwt beam="2">  1       21 0.15684139E-01 0.21865417E+02</pdfrwt>
<totfact> 0.95595921E+07</totfact>
</mgrwt>
</event>
<event>
 4    1  0.4578942E+006  0.2802102E+02  0.7546771E-02  0.1621054E+00
         21   -1    0    0  503  501  0.00000000000E+00  0.00000000000E+00  0.51657809527E+02  0.51657809527E+02  0.00000000000E+00 0.  1.
         21   -1    0    0  504  502 -0.00000000000E+00 -0.00000000000E+00 -0.99865868430E+02  0.99865868430E+02  0.00000000000E+00 0. -1.
         21    1    1    2  503  502  0.20836952635E+02 -0.18734970697E+02 -0.93862538813E+02  0.97955877387E+02  0.00000000000E+00 0. -1.
         21    1    1    2  504  501 -0.20836952635E+02  0.18734970697E+02  0.45654479910E+02  0.53567800571E+02  0.00000000000E+00 0.  1.
<mgrwt>
<rscale>  2 0.28021023E+02</rscale>
<asrwt>0</asrwt>
<pdfrwt beam="1">  1       21 0.79473553E-02 0.28021023E+02</pdfrwt>
<pdfrwt beam="2">  1       21 0.15363980E-01 0.28021023E+02</pdfrwt>
<totfact> 0.39536970E+06</totfact>
</mgrwt>
</event>
<event>
 4    1  0.4578942E+006  0.2284587E+02  0.7546771E-02  0.1694021E+00
         21   -1    0    0  503  501  0.00000000000E+00  0.00000000000E+00  0.25574132832E+01  0.25574132832E+01  0.00000000000E+00 0.  1.
         21   -1    0    0  504  502 -0.00000000000E+00 -0.00000000000E+00 -0.21318312190E+03  0.21318312190E+03  0.00000000000E+00 0.  1.
         21    1    1    2  503  502  0.22396338263E+02  0.45097310587E+01 -0.12759537600E+03  0.12962451010E+03  0.00000000000E+00 0.  1.
         21    1    1    2  504  501 -0.22396338263E+02 -0.45097310587E+01 -0.83030332616E+02  0.86116025084E+02  0.00000000000E+00 0.  1.
<mgrwt>
<rscale>  2 0.22845867E+02</rscale>
<asrwt>0</asrwt>
<pdfrwt beam="1">  1       21 0.39344799E-03 0.22845867E+02</pdfrwt>
<pdfrwt beam="2">  1       21 0.32797421E-01 0.22845867E+02</pdfrwt>
<totfact> 0.10127910E+08</totfact>
</mgrwt>
</event>
<event>
 4    1  0.4578942E+006  0.3543369E+02  0.7546771E-02  0.1544783E+00
         21   -1    0    0  504  501  0.00000000000E+00  0.00000000000E+00  0.16159267894E+02  0.16159267894E+02  0.00000000000E+00 0. -1.
         21   -1    0    0  503  502 -0.00000000000E+00 -0.00000000000E+00 -0.10917421469E+03  0.10917421469E+03  0.00000000000E+00 0.  1.
         21    1    1    2  503  501  0.85820119690E+01 -0.34378703108E+02 -0.80156064792E+02  0.87638695105E+02  0.00000000000E+00 0.  1.
         21    1    1    2  504  502 -0.85820119690E+01  0.34378703108E+02 -0.12858882008E+02  0.37694787482E+02  0.00000000000E+00 0. -1.
<mgrwt>
<rscale>  2 0.35433687E+02</rscale>
<asrwt>0</asrwt>
<pdfrwt beam="1">  1       21 0.24860411E-02 0.35433687E+02</pdfrwt>
<pdfrwt beam="2">  1       21 0.16796034E-01 0.35433687E+02</pdfrwt>
<totfact> 0.22654601E+07</totfact>
</mgrwt>
</event>
<event>
 4    1  0.4578942E+006  0.2342434E+02  0.7546771E-02  0.1684723E+00
         21   -1    0    0  502  501  0.00000000000E+00  0.00000000000E+00  0.23673835254E+01  0.23673835254E+01  0.00000000000E+00 0. -1.
         21   -1    0    0  503  502 -0.00000000000E+00 -0.00000000000E+00 -0.23998711617E+03  0.23998711617E+03  0.00000000000E+00 0.  1.
         21    1    1    2  503  504  0.23103106072E+02 -0.38660110812E+01 -0.14122612923E+03  0.14315557666E+03  0.00000000000E+00 0. -1.
         21    1    1    2  504  501 -0.23103106072E+02  0.38660110812E+01 -0.96393603406E+02  0.99198923026E+02  0.00000000000E+00 0.  1.
<mgrwt>
<rscale>  2 0.23424337E+02</rscale>
<asrwt>0</asrwt>
<pdfrwt beam="1">  1       21 0.36421281E-03 0.23424337E+02</pdfrwt>
<pdfrwt beam="2">  1       21 0.36921098E-01 0.23424337E+02</pdfrwt>
<totfact> 0.91685772E+07</totfact>
</mgrwt>
</event>
<event>
 4    1  0.4578942E+006  0.2466887E+02  0.7546771E-02  0.1665804E+00
         21   -1    0    0  503  501  0.00000000000E+00  0.00000000000E+00  0.46515642635E+02  0.46515642635E+02  0.00000000000E+00 0.  1.
         21   -1    0    0  501  502 -0.00000000000E+00 -0.00000000000E+00 -0.15863878816E+03  0.15863878816E+03  0.00000000000E+00 0.  1.
         21    1    1    2  503  504 -0.22000874658E+02  0.11158603427E+02  0.42194932664E+02  0.48877042245E+02  0.00000000000E+00 0.  1.
         21    1    1    2  504  502  0.22000874658E+02 -0.11158603427E+02 -0.15431807819E+03  0.15627738855E+03  0.00000000000E+00 0.  1.
<mgrwt>
<rscale>  2 0.24668865E+02</rscale>
<asrwt>0</asrwt>
<pdfrwt beam="1">  1       21 0.71562525E-02 0.24668865E+02</pdfrwt>
<pdfrwt beam="2">  1       21 0.24405968E-01 0.24668865E+02</pdfrwt>
<totfact> 0.20547804E+06</totfact>
</mgrwt>
</event>
<event>
 4    1  0.4578942E+006  0.2724047E+02  0.7546771E-02  0.1630761E+00
         21   -1    0    0  504  501  0.00000000000E+00  0.00000000000E+00  0.66120036667E+02  0.66120036667E+02  0.00000000000E+00 0. -1.
         21   -1    0    0  503  502 -0.00000000000E+00 -0.00000000000E+00 -0.20756931287E+03  0.20756931287E+03  0.00000000000E+00 0.  1.
         21    1    1    2  503  501  0.25508957513E+02  0.95570117792E+01  0.62369236210E+02  0.68058541073E+02  0.00000000000E+00 0. -1.
         21    1    1    2  504  502 -0.25508957513E+02 -0.95570117792E+01 -0.20381851242E+03  0.20563080847E+03  0.00000000000E+00 0.  1.
<mgrwt>
<rscale>  2 0.27240473E+02</rscale>
<asrwt>0</asrwt>
<pdfrwt beam="1">  1       21 0.10172314E-01 0.27240473E+02</pdfrwt>
<pdfrwt beam="2">  1       21 0.31933740E-01 0.27240473E+02</pdfrwt>
<totfact> 0.71360668E+05</totfact>
</mgrwt>
</event>
<event>
 4    1  0.4578942E+006  0.3322061E+02  0.7546771E-02  0.1564995E+00
         21   -1    0    0  503  501  0.00000000000E+00  0.00000000000E+00  0.17373991911E+03  0.17373991911E+03  0.00000000000E+00 0.  1.
         21   -1    0    0  501  502 -0.00000000000E+00 -0.00000000000E+00 -0.19768681256E+02  0.19768681256E+02  0.00000000000E+00 0. -1.
         21    1    1    2  503  504 -0.32985614823E+02  0.39443439742E+01  0.15669378143E+03  0.16017662056E+03  0.00000000000E+00 0.  1.
         21    1    1    2  504  502  0.32985614823E+02 -0.39443439742E+01 -0.27225435724E+01  0.33331979812E+02  0.00000000000E+00 0. -1.
<mgrwt>
<rscale>  2 0.33220606E+02</rscale>
<asrwt>0</asrwt>
<pdfrwt beam="1">  1       21 0.26729217E-01 0.33220606E+02</pdfrwt>
<pdfrwt beam="2">  1       21 0.30413357E-02 0.33220606E+02</pdfrwt>
<totfact> 0.71279046E+06</totfact>
</mgrwt>
</event>
<event>
 4    1  0.4578942E+006  0.2078576E+02  0.7546771E-02  0.1730139E+00
         21   -1    0    0  504  501  0.00000000000E+00  0.00000000000E+00  0.17465418614E+03  0.17465418614E+03  0.00000000000E+00 0.  1.
         21   -1    0    0  503  502 -0.00000000000E+00 -0.00000000000E+00 -0.25129585219E+01  0.25129585219E+01  0.00000000000E+00 0.  1.
         21    1    1    2  503  501 -0.11633423878E+02 -0.17225308277E+02  0.97138017902E+02  0.99337013838E+02  0.00000000000E+00 0.  1.
         21    1    1    2  504  502  0.11633423878E+02  0.17225308277E+02  0.75003209721E+02  0.77830130828E+02  0.00000000000E+00 0.  1.
<mgrwt>
<rscale>  2 0.20785759E+02</rscale>
<asrwt>0</asrwt>
<pdfrwt beam="1">  1       21 0.26869865E-01 0.20785759E+02</pdfrwt>
<pdfrwt beam="2">  1       21 0.38660914E-03 0.20785759E+02</pdfrwt>
<totfact> 0.14523696E+08</totfact>
</mgrwt>
</event>
<event>
 4    1  0.4578942E+006  0.3099494E+02  0.7546771E-02  0.1587344E+00
         21   -1    0    0  503  501  0.00000000000E+00  0.00000000000E+00  0.85821411808E+02  0.85821411808E+02  0.00000000000E+00 0. -1.
         21   -1    0    0  504  502 -0.00000000000E+00 -0.00000000000E+00 -0.11208317320E+02  0.11208317320E+02  0.00000000000E+00 0. -1.
         21    1    1    2  503  502 -0.12052772176E+02  0.28555503130E+02  0.35573443094E+02  0.47182156900E+02  0.00000000000E+00 0. -1.
         21    1    1    2  504  501  0.12052772176E+02 -0.28555503130E+02  0.39039651393E+02  0.49847572228E+02  0.00000000000E+00 0. -1.
<mgrwt>
<rscale>  2 0.30994936E+02</rscale>
<asrwt>0</asrwt>
<pdfrwt beam="1">  1       21 0.13203294E-01 0.30994936E+02</pdfrwt>
<pdfrwt beam="2">  1       21 0.17243566E-02 0.30994936E+02</pdfrwt>
<totfact> 0.59071079E+07</totfact>
</mgrwt>
</event>
<event>
 4    1  0.4578942E+006  0.2142146E+02  0.7546771E-02  0.1718454E+00
         21   -1    0    0  503  501  0.00000000000E+00  0.00000000000E+00  0.12302166517E+03  0.12302166517E+03  0.00000000000E+00 0.  1.
         21   -1    0    0  501  502 -0.00000000000E+00 -0.00000000000E+00 -0.10375448130E+02  0.10375448130E+02  0.00000000000E+00 0.  1.
         21    1    1    2  503  504  0.16842839682E+02  0.13236219692E+02  0.10970242754E+03  0.11177433233E+03  0.00000000000E+00 0.  1.
         21    1    1    2  504  502 -0.16842839682E+02 -0.13236219692E+02  0.29437895049E+01  0.21622780972E+02  0.00000000000E+00 0.  1.
<mgrwt>
<rscale>  2 0.21421456E+02</rscale>
<asrwt>0</asrwt>
<pdfrwt beam="1">  1       21 0.18926409E-01 0.21421456E+02</pdfrwt>
<pdfrwt beam="2">  1       21 0.15962229E-02 0.21421456E+02</pdfrwt>
<totfact> 0.32864443E+07</totfact>
</mgrwt>
</event>
<event>
 4    1  0.4578942E+006  0.2766394E+02  0.7546771E-02  0.1625446E+00
         21   -1    0    0  503  501  0.00000000000E+00  0.00000000000E+00  0.12494868723E+01  0.12494868723E+01  0.00000000000E+00 0. -1.
         21   -1    0    0  504  502 -0.00000000000E+00 -0.00000000000E+00 -0.61266077704E+03  0.61266077704E+03  0.00000000000E+00 0. -1.
         21    1    1    2  503  502  0.99290441277E+01 -0.25820682302E+02 -0.31088616442E+03  0.31211456355E+03  0.00000000000E+00 0. -1.
         21    1    1    2  504  501 -0.99290441277E+01  0.25820682302E+02 -0.30052512575E+03  0.30179570036E+03  0.00000000000E+00 0. -1.
<mgrwt>
<rscale>  2 0.27663940E+02</rscale>
<asrwt>0</asrwt>
<pdfrwt beam="1">  1       21 0.19222837E-03 0.27663940E+02</pdfrwt>
<pdfrwt beam="2">  1       21 0.94255691E-01 0.27663940E+02</pdfrwt>
<totfact> 0.36754445E+07</totfact>
</mgrwt>
</event>
<event>
 4    1  0.4578942E+006  0.2632409E+02  0.7546771E-02  0.1642681E+00
         21   -1    0    0  504  501  0.00000000000E+00  0.00000000000E+00  0.78248956524E+03  0.78248956524E+03  0.00000000000E+00 0.  1.
         21   -1    0    0  503  502 -0.00000000000E+00 -0.00000000000E+00 -0.28713853086E+02  0.28713853086E+02  0.00000000000E+00 0. -1.
         21    1    1    2  503  501  0.20481665443E+02  0.16536603733E+02 -0.22410166964E+02  0.34571280938E+02  0.00000000000E+00 0. -1.
         21    1    1    2  504  502 -0.20481665443E+02 -0.16536603733E+02  0.77618587912E+03  0.77663213739E+03  0.00000000000E+00 0.  1.
<mgrwt>
<rscale>  2 0.26324093E+02</rscale>
<asrwt>0</asrwt>
<pdfrwt beam="1">  1       21 0.12038299E+00 0.26324093E+02</pdfrwt>
<pdfrwt beam="2">  1       21 0.44175165E-02 0.26324093E+02</pdfrwt>
<totfact> 0.18563434E+05</totfact>
</mgrwt>
</event>
<event>
 4    1  0.4578942E+006  0.2004258E+02  0.7546771E-02  0.1744483E+00
         21   -1    0    0  503  501  0.00000000000E+00  0.00000000000E+00  0.90443134700E+02  0.90443134700E+02  0.00000000000E+00 0. -1.
         21   -1    0    0  504  502 -0.00000000000E+00 -0.00000000000E+00 -0.11691098861E+02  0.11691098861E+02  0.00000000000E+00 0. -1.
         21    1    1    2  503  502 -0.15806448725E+02 -0.12323203424E+02 -0.83730897203E+00  0.20060066057E+02  0.00000000000E+00 0. -1.
         21    1    1    2  504  501  0.15806448725E+02  0.12323203424E+02  0.79589344811E+02  0.82074167504E+02  0.00000000000E+00 0. -1.
<mgrwt>
<rscale>  2 0.20042584E+02</rscale>
<asrwt>0</asrwt>
<pdfrwt beam="1">  1       21 0.13914328E-01 0.20042584E+02</pdfrwt>
<pdfrwt beam="2">  1       21 0.17986307E-02 0.20042584E+02</pdfrwt>
<totfact> 0.45552838E+07</totfact>
</mgrwt>
</event>
<event>
 4    1  0.4578942E+006  0.5053086E+02  0.7546771E-02  0.1442499E+00
         21   -1    0    0  504  501  0.00000000000E+00  0.00000000000E+00  0.10780655451E+02  0.10780655451E+02  0.00000000000E+00 0.  1.
         21   -1    0    0  503  502 -0.00000000000E+00 -0.00000000000E+00 -0.24520729258E+03  0.24520729258E+03  0.00000000000E+00 0.  1.
         21    1    1    2  503  501  0.47459262724E+02  0.17348940173E+02 -0.14084693029E+03  0.14963697777E+03  0.00000000000E+00 0.  1.
         21    1    1    2  504  502 -0.47459262724E+02 -0.17348940173E+02 -0.93579706831E+02  0.10635097025E+03  0.00000000000E+00 0.  1.
<mgrwt>
<rscale>  2 0.50530855E+02</rscale>
<asrwt>0</asrwt>
<pdfrwt beam="1">  1       21 0.16585626E-02 0.50530855E+02</pdfrwt>
<pdfrwt beam="2">  1       21 0.37724195E-01 0.50530855E+02</pdfrwt>
<totfact> 0.10210366E+07</totfact>
</mgrwt>
</event>
<event>
 4    1  0.4578942E+006  0.3982805E+02  0.7546771E-02  0.1509481E+00
         21   -1    0    0  503  501  0.00000000000E+00  0.00000000000E+00  0.28837275216E+02  0.28837275216E+02  0.00000000000E+00 0. -1.
         21   -1    0    0  504  502 -0.00000000000E+00 -0.00000000000E+00 -0.65042170825E+02  0.65042170825E+02  0.00000000000E+00 0. -1.
         21    1    1    2  503  502  0.81637276538E+00 -0.39819677554E+02 -0.36539415503E+02  0.54049996025E+02  0.00000000000E+00 0. -1.
         21    1    1    2  504  501 -0.81637276538E+00  0.39819677554E+02  0.33451989310E+00  0.39829450016E+02  0.00000000000E+00 0. -1.
<mgrwt>
<rscale>  2 0.39828045E+02</rscale>
<asrwt>0</asrwt>
<pdfrwt beam="1">  1       21 0.44365039E-02 0.39828045E+02</pdfrwt>
<pdfrwt beam="2">  1       21 0.10006488E-01 0.39828045E+02</pdfrwt>
<totfact> 0.22361116E+07</totfact>
</mgrwt>
</event>
<event>
 4    1  0.4578942E+006  0.2539965E+02  0.7546771E-02  0.1655327E+00
         21   -1    0    0  504  501  0.00000000000E+00  0.00000000000E+00  0.27409134287E+02  0.27409134287E+02  0.00000000000E+00 0. -1.
         21   -1    0    0  503  502 -0.00000000000E+00 -0.00000000000E+00 -0.23538008035E+02  0.23538008035E+02  0.00000000000E+00 0. -1.
         21    1    1    2  503  501  0.28057906145E+00 -0.25398103219E+02  0.18166808803E+01  0.25464538110E+02  0.00000000000E+00 0. -1.
         21    1    1    2  504  502 -0.28057906145E+00  0.25398103219E+02  0.20544453717E+01  0.25482604213E+02  0.00000000000E+00 0. -1.
<mgrwt>
<rscale>  2 0.25399653E+02</rscale>
<asrwt>0</asrwt>
<pdfrwt beam="1">  1       21 0.42167899E-02 0.25399653E+02</pdfrwt>
<pdfrwt beam="2">  1       21 0.36212320E-02 0.25399653E+02</pdfrwt>
<totfact> 0.11509324E+08</totfact>
</mgrwt>
</event>
<event>
 4    1  0.4578942E+006  0.2056224E+02  0.7546771E-02  0.1734373E+00
         21   -1    0    0  504  501  0.00000000000E+00  0.00000000000E+00  0.41659549160E+03  0.41659549160E+03  0.00000000000E+00 0. -1.
         21   -1    0    0  503  502 -0.00000000000E+00 -0.00000000000E+00 -0.17332584075E+01  0.17332584075E+01  0.00000000000E+00 0. -1.
         21    1    1    2  503  501 -0.75458163432E+01 -0.19127636908E+02  0.72775516780E+02  0.75624610284E+02  0.00000000000E+00 0. -1.
         21    1    1    2  504  502  0.75458163432E+01  0.19127636908E+02  0.34208671642E+03  0.34270413973E+03  0.00000000000E+00 0. -1.
<mgrwt>
<rscale>  2 0.20562243E+02</rscale>
<asrwt>0</asrwt>
<pdfrwt beam="1">  1       21 0.64091534E-01 0.20562243E+02</pdfrwt>
<pdfrwt beam="2">  1       21 0.26665547E-03 0.20562243E+02</pdfrwt>
<totfact> 0.48084957E+07</totfact>
</mgrwt>
</event>
<event>
 4    1  0.4578942E+006  0.2059892E+02  0.7546771E-02  0.1733674E+00
         21   -1    0    0  503  501  0.00000000000E+00  0.00000000000E+00  0.12901761315E+02  0.12901761315E+02  0.00000000000E+00 0. -1.
         21   -1    0    0  501  502 -0.00000000000E+00 -0.00000000000E+00 -0.89998818545E+02  0.89998818545E+02  0.00000000000E+00 0. -1.
         21    1    1    2  503  504 -0.27386705421E+01  0.20416049825E+02  0.24367547927E+01  0.20742545184E+02  0.00000000000E+00 0. -1.
         21    1    1    2  504  502  0.27386705421E+01 -0.20416049825E+02 -0.79533812023E+02  0.82158034675E+02  0.00000000000E+00 0. -1.
<mgrwt>
<rscale>  2 0.20598918E+02</rscale>
<asrwt>0</asrwt>
<pdfrwt beam="1">  1       21 0.19848865E-02 0.20598918E+02</pdfrwt>
<pdfrwt beam="2">  1       21 0.13845971E-01 0.20598918E+02</pdfrwt>
<totfact> 0.39812797E+07</totfact>
</mgrwt>
</event>
<event>
 4    1  0.4578942E+006  0.2235573E+02  0.7546771E-02  0.1702171E+00
         21   -1    0    0  504  501  0.00000000000E+00  0.00000000000E+00  0.69039317866E+02  0.69039317866E+02  0.00000000000E+00 0. -1.
         21   -1    0    0  501  502 -0.00000000000E+00 -0.00000000000E+00 -0.77132027912E+01  0.77132027912E+01  0.00000000000E+00 0. -1.
         21    1    1    2  503  502  0.19821361469E+02 -0.10338877267E+02  0.21148106508E+02  0.30773708949E+02  0.00000000000E+00 0. -1.
         21    1    1    2  504  503 -0.19821361469E+02  0.10338877267E+02  0.40178008567E+02  0.45978811708E+02  0.00000000000E+00 0. -1.
<mgrwt>
<rscale>  2 0.22355732E+02</rscale>
<asrwt>0</asrwt>
<pdfrwt beam="1">  1       21 0.10621433E-01 0.22355732E+02</pdfrwt>
<pdfrwt beam="2">  1       21 0.11866466E-02 0.22355732E+02</pdfrwt>
<totfact> 0.13842977E+08</totfact>
</mgrwt>
</event>
<event>
 4    1  0.4578942E+006  0.2171575E+02  0.7546771E-02  0.1713215E+00
         21   -1    0    0  504  501  0.00000000000E+00  0.00000000000E+00  0.15458265245E+02  0.15458265245E+02  0.00000000000E+00 0. -1.
         21   -1    0    0  503  502 -0.00000000000E+00 -0.00000000000E+00 -0.51519700665E+02  0.51519700665E+02  0.00000000000E+00 0. -1.
         21    1    1    2  503  501 -0.19915011059E+02  0.86582895336E+01 -0.39418414622E+02  0.45004278179E+02  0.00000000000E+00 0. -1.
         21    1    1    2  504  502  0.19915011059E+02 -0.86582895336E+01  0.33569792024E+01  0.21973687730E+02  0.00000000000E+00 0. -1.
<mgrwt>
<rscale>  2 0.21715746E+02</rscale>
<asrwt>0</asrwt>
<pdfrwt beam="1">  1       21 0.23781946E-02 0.21715746E+02</pdfrwt>
<pdfrwt beam="2">  1       21 0.79261079E-02 0.21715746E+02</pdfrwt>
<totfact> 0.76985571E+07</totfact>
</mgrwt>
</event>
<event>
 4    1  0.4578942E+006  0.3770658E+02  0.7546771E-02  0.1525800E+00
         21   -1    0    0  502  501  0.00000000000E+00  0.00000000000E+00  0.81229453366E+03  0.81229453366E+03  0.00000000000E+00 0.  1.
         21   -1    0    0  504  502 -0.00000000000E+00 -0.00000000000E+00 -0.35014845932E+01  0.35014845932E+01  0.00000000000E+00 0. -1.
         21    1    1    2  503  501  0.22888724992E+02 -0.29964851534E+02  0.69285767250E+03  0.69388294430E+03  0.00000000000E+00 0.  1.
         21    1    1    2  504  503 -0.22888724992E+02  0.29964851534E+02  0.11593537657E+03  0.12191307395E+03  0.00000000000E+00 0. -1.
<mgrwt>
<rscale>  2 0.37706578E+02</rscale>
<asrwt>0</asrwt>
<pdfrwt beam="1">  1       21 0.12496824E+00 0.37706578E+02</pdfrwt>
<pdfrwt beam="2">  1       21 0.53869058E-03 0.37706578E+02</pdfrwt>
<totfact> 0.44316193E+06</totfact>
</mgrwt>
</event>
<event>
 4    1  0.4578942E+006  0.2062833E+02  0.7546771E-02  0.1733114E+00
         21   -1    0    0  504  501  0.00000000000E+00  0.00000000000E+00  0.55602295459E+03  0.55602295459E+03  0.00000000000E+00 0.  1.
         21   -1    0    0  503  502 -0.00000000000E+00 -0.00000000000E+00 -0.78865516574E+00  0.78865516574E+00  0.00000000000E+00 0. -1.
         21    1    1    2  503  501 -0.19278546647E+02 -0.73393145225E+01  0.32552063687E+03  0.32617359324E+03  0.00000000000E+00 0.  1.
         21    1    1    2  504  502  0.19278546647E+02  0.73393145225E+01  0.22971366255E+03  0.23063801652E+03  0.00000000000E+00 0. -1.
<mgrwt>
<rscale>  2 0.20628328E+02</rscale>
<asrwt>0</asrwt>
<pdfrwt beam="1">  1       21 0.85541680E-01 0.20628328E+02</pdfrwt>
<pdfrwt beam="2">  1       21 0.12133201E-03 0.20628328E+02</pdfrwt>
<totfact> 0.82208022E+07</totfact>
</mgrwt>
</event>
<event>
 4    1  0.4578942E+006  0.2149427E+02  0.7546771E-02  0.1717148E+00
         21   -1    0    0  502  501  0.00000000000E+00  0.00000000000E+00  0.95566919474E+02  0.95566919474E+02  0.00000000000E+00 0.  1.
         21   -1    0    0  503  502 -0.00000000000E+00 -0.00000000000E+00 -0.63001363029E+01  0.63001363029E+01  0.00000000000E+00 0.  1.
         21    1    1    2  503  504 -0.76466290736E+01 -0.20088119789E+02  0.20065674400E+02  0.29404672791E+02  0.00000000000E+00 0.  1.
         21    1    1    2  504  501  0.76466290736E+01  0.20088119789E+02  0.69201108771E+02  0.72462382986E+02  0.00000000000E+00 0.  1.
<mgrwt>
<rscale>  2 0.21494267E+02</rscale>
<asrwt>0</asrwt>
<pdfrwt beam="1">  1       21 0.14702602E-01 0.21494267E+02</pdfrwt>
<pdfrwt beam="2">  1       21 0.96925181E-03 0.21494267E+02</pdfrwt>
<totfact> 0.10753964E+08</totfact>
</mgrwt>
</event>
<event>
 4    1  0.4578942E+006  0.3071253E+02  0.7546771E-02  0.1590343E+00
         21   -1    0    0  503  501  0.00000000000E+00  0.00000000000E+00  0.21621180122E+02  0.21621180122E+02  0.00000000000E+00 0. -1.
         21   -1    0    0  504  502 -0.00000000000E+00 -0.00000000000E+00 -0.57468397129E+02  0.57468397129E+02  0.00000000000E+00 0. -1.
         21    1    1    2  503  502  0.20535337144E+02  0.22837681963E+02  0.14839130246E+01  0.30748362345E+02  0.00000000000E+00 0. -1.
         21    1    1    2  504  501 -0.20535337144E+02 -0.22837681963E+02 -0.37331130032E+02  0.48341214905E+02  0.00000000000E+00 0. -1.
<mgrwt>
<rscale>  2 0.30712535E+02</rscale>
<asrwt>0</asrwt>
<pdfrwt beam="1">  1       21 0.33263354E-02 0.30712535E+02</pdfrwt>
<pdfrwt beam="2">  1       21 0.88412918E-02 0.30712535E+02</pdfrwt>
<totfact> 0.41512537E+07</totfact>
</mgrwt>
</event>
<event>
 4    1  0.4578942E+006  0.2726128E+02  0.7546771E-02  0.1630497E+00
         21   -1    0    0  504  501  0.00000000000E+00  0.00000000000E+00  0.21343917097E+03  0.21343917097E+03  0.00000000000E+00 0.  1.
         21   -1    0    0  503  502 -0.00000000000E+00 -0.00000000000E+00 -0.36350152478E+01  0.36350152478E+01  0.00000000000E+00 0.  1.
         21    1    1    2  503  501 -0.26303471399E+02  0.71627508876E+01  0.12717664707E+03  0.13006566483E+03  0.00000000000E+00 0.  1.
         21    1    1    2  504  502  0.26303471399E+02 -0.71627508876E+01  0.82627508654E+02  0.87008521389E+02  0.00000000000E+00 0.  1.
<mgrwt>
<rscale>  2 0.27261284E+02</rscale>
<asrwt>0</asrwt>
<pdfrwt beam="1">  1       21 0.32836786E-01 0.27261284E+02</pdfrwt>
<pdfrwt beam="2">  1       21 0.55923328E-03 0.27261284E+02</pdfrwt>
<totfact> 0.62806848E+07</totfact>
</mgrwt>
</event>
<event>
 4    1  0.4578942E+006  0.2830098E+02  0.7546771E-02  0.1617666E+00
         21   -1    0    0  503  501  0.00000000000E+00  0.00000000000E+00  0.58033149244E+03  0.58033149244E+03  0.00000000000E+00 0. -1.
         21   -1    0    0  501  502 -0.00000000000E+00 -0.00000000000E+00 -0.22570971494E+01  0.22570971494E+01  0.00000000000E+00 0. -1.
         21    1    1    2  503  504 -0.27151940695E+02  0.79823211254E+01  0.47060682868E+03  0.47145703148E+03  0.00000000000E+00 0. -1.
         21    1    1    2  504  502  0.27151940695E+02 -0.79823211254E+01  0.10746756661E+03  0.11113155810E+03  0.00000000000E+00 0. -1.
<mgrwt>
<rscale>  2 0.28300978E+02</rscale>
<asrwt>0</asrwt>
<pdfrwt beam="1">  1       21 0.89281649E-01 0.28300978E+02</pdfrwt>
<pdfrwt beam="2">  1       21 0.34724618E-03 0.28300978E+02</pdfrwt>
<totfact> 0.17490090E+07</totfact>
</mgrwt>
</event>
<event>
 4    1  0.4578942E+006  0.2869305E+02  0.7546771E-02  0.1613001E+00
         21   -1    0    0  502  501  0.00000000000E+00  0.00000000000E+00  0.14035646866E+04  0.14035646866E+04  0.00000000000E+00 0.  1.
         21   -1    0    0  503  502 -0.00000000000E+00 -0.00000000000E+00 -0.35805590501E+01  0.35805590501E+01  0.00000000000E+00 0.  1.
         21    1    1    2  503  504 -0.23399349063E+02  0.16606072349E+02  0.56625480081E+02  0.63480202975E+02  0.00000000000E+00 0.  1.
         21    1    1    2  504  501  0.23399349063E+02 -0.16606072349E+02  0.13433586474E+04  0.13436650426E+04  0.00000000000E+00 0.  1.
<mgrwt>
<rscale>  2 0.28693051E+02</rscale>
<asrwt>0</asrwt>
<pdfrwt beam="1">  1       21 0.21593259E+00 0.28693051E+02</pdfrwt>
<pdfrwt beam="2">  1       21 0.55085636E-03 0.28693051E+02</pdfrwt>
<totfact> 0.10780882E+06</totfact>
</mgrwt>
</event>
<event>
 4    1  0.4578942E+006  0.2176072E+02  0.7546771E-02  0.1712423E+00
         21   -1    0    0  502  501  0.00000000000E+00  0.00000000000E+00  0.86289580956E+02  0.86289580956E+02  0.00000000000E+00 0.  1.
         21   -1    0    0  503  502 -0.00000000000E+00 -0.00000000000E+00 -0.27859181951E+02  0.27859181951E+02  0.00000000000E+00 0.  1.
         21    1    1    2  503  504  0.21655553537E+02 -0.21367992434E+01 -0.21929977176E+02  0.30894219668E+02  0.00000000000E+00 0.  1.
         21    1    1    2  504  501 -0.21655553537E+02  0.21367992434E+01  0.80360376181E+02  0.83254543239E+02  0.00000000000E+00 0.  1.
<mgrwt>
<rscale>  2 0.21760719E+02</rscale>
<asrwt>0</asrwt>
<pdfrwt beam="1">  1       21 0.13275320E-01 0.21760719E+02</pdfrwt>
<pdfrwt beam="2">  1       21 0.42860280E-02 0.21760719E+02</pdfrwt>
<totfact> 0.13113562E+07</totfact>
</mgrwt>
</event>
<event>
 4    1  0.4578942E+006  0.2071016E+02  0.7546771E-02  0.1731564E+00
         21   -1    0    0  503  501  0.00000000000E+00  0.00000000000E+00  0.11064657683E+02  0.11064657683E+02  0.00000000000E+00 0.  1.
         21   -1    0    0  504  502 -0.00000000000E+00 -0.00000000000E+00 -0.39406486046E+02  0.39406486046E+02  0.00000000000E+00 0.  1.
         21    1    1    2  503  502 -0.99563303614E+01 -0.18159901738E+02 -0.10948685108E+02  0.23426144604E+02  0.00000000000E+00 0.  1.
         21    1    1    2  504  501  0.99563303614E+01  0.18159901738E+02 -0.17393143255E+02  0.27044999126E+02  0.00000000000E+00 0.  1.
<mgrwt>
<rscale>  2 0.20710156E+02</rscale>
<asrwt>0</asrwt>
<pdfrwt beam="1">  1       21 0.17022551E-02 0.20710156E+02</pdfrwt>
<pdfrwt beam="2">  1       21 0.60625362E-02 0.20710156E+02</pdfrwt>
<totfact> 0.19509169E+08</totfact>
</mgrwt>
</event>
<event>
 4    1  0.4578942E+006  0.2402945E+02  0.7546771E-02  0.1675347E+00
         21   -1    0    0  503  501  0.00000000000E+00  0.00000000000E+00  0.78018513426E+02  0.78018513426E+02  0.00000000000E+00 0.  1.
         21   -1    0    0  504  502 -0.00000000000E+00 -0.00000000000E+00 -0.17903132418E+02  0.17903132418E+02  0.00000000000E+00 0.  1.
         21    1    1    2  503  502  0.23631919512E+02  0.43528036338E+01  0.66791078944E+02  0.70982129764E+02  0.00000000000E+00 0.  1.
         21    1    1    2  504  501 -0.23631919512E+02 -0.43528036338E+01 -0.66756979364E+01  0.24939516079E+02  0.00000000000E+00 0.  1.
<mgrwt>
<rscale>  2 0.24029451E+02</rscale>
<asrwt>0</asrwt>
<pdfrwt beam="1">  1       21 0.12002848E-01 0.24029451E+02</pdfrwt>
<pdfrwt beam="2">  1       21 0.27543281E-02 0.24029451E+02</pdfrwt>
<totfact> 0.31733021E+07</totfact>
</mgrwt>
</event>
<event>
 4    1  0.4578942E+006  0.2381934E+02  0.7546771E-02  0.1678563E+00
         21   -1    0    0  503  501  0.00000000000E+00  0.00000000000E+00  0.72327227008E+01  0.72327227008E+01  0.00000000000E+00 0. -1.
         21   -1    0    0  504  502 -0.00000000000E+00 -0.00000000000E+00 -0.11266491396E+03  0.11266491396E+03  0.00000000000E+00 0.  1.
         21    1    1    2  503  502 -0.23269577018E+02  0.50879858018E+01 -0.85755683085E+02  0.89002235901E+02  0.00000000000E+00 0.  1.
         21    1    1    2  504  501  0.23269577018E+02 -0.50879858018E+01 -0.19676508175E+02  0.30895400759E+02  0.00000000000E+00 0. -1.
<mgrwt>
<rscale>  2 0.23819337E+02</rscale>
<asrwt>0</asrwt>
<pdfrwt beam="1">  1       21 0.11127266E-02 0.23819337E+02</pdfrwt>
<pdfrwt beam="2">  1       21 0.17333063E-01 0.23819337E+02</pdfrwt>
<totfact> 0.67846685E+07</totfact>
</mgrwt>
</event>
<event>
 4    1  0.4578942E+006  0.2587839E+02  0.7546771E-02  0.1648697E+00
         21   -1    0    0  503  501  0.00000000000E+00  0.00000000000E+00  0.38722908056E+02  0.38722908056E+02  0.00000000000E+00 0.  1.
         21   -1    0    0  504  502 -0.00000000000E+00 -0.00000000000E+00 -0.70995699596E+02  0.70995699596E+02  0.00000000000E+00 0. -1.
         21    1    1    2  503  502 -0.25123165176E+02 -0.62062536115E+01 -0.63848273241E+02  0.68893345166E+02  0.00000000000E+00 0. -1.
         21    1    1    2  504  501  0.25123165176E+02  0.62062536115E+01  0.31575481701E+02  0.40825262486E+02  0.00000000000E+00 0.  1.
<mgrwt>
<rscale>  2 0.25878389E+02</rscale>
<asrwt>0</asrwt>
<pdfrwt beam="1">  1       21 0.59573706E-02 0.25878389E+02</pdfrwt>
<pdfrwt beam="2">  1       21 0.10922415E-01 0.25878389E+02</pdfrwt>
<totfact> 0.11130714E+07</totfact>
</mgrwt>
</event>
<event>
 4    1  0.4578942E+006  0.2032377E+02  0.7546771E-02  0.1738965E+00
         21   -1    0    0  502  501  0.00000000000E+00  0.00000000000E+00  0.17290862357E+02  0.17290862357E+02  0.00000000000E+00 0.  1.
         21   -1    0    0  503  502 -0.00000000000E+00 -0.00000000000E+00 -0.86328619262E+02  0.86328619262E+02  0.00000000000E+00 0.  1.
         21    1    1    2  503  504  0.19965802955E+02 -0.37976847462E+01 -0.78580988875E+02  0.81166665014E+02  0.00000000000E+00 0.  1.
         21    1    1    2  504  501 -0.19965802955E+02  0.37976847462E+01  0.95432319690E+01  0.22452816605E+02  0.00000000000E+00 0.  1.
<mgrwt>
<rscale>  2 0.20323772E+02</rscale>
<asrwt>0</asrwt>
<pdfrwt beam="1">  1       21 0.26601327E-02 0.20323772E+02</pdfrwt>
<pdfrwt beam="2">  1       21 0.13281326E-01 0.20323772E+02</pdfrwt>
<totfact> 0.27150869E+07</totfact>
</mgrwt>
</event>
<event>
 4    1  0.4578942E+006  0.2243388E+02  0.7546771E-02  0.1700855E+00
         21   -1    0    0  502  501  0.00000000000E+00  0.00000000000E+00  0.37642811444E+03  0.37642811444E+03  0.00000000000E+00 0.  1.
         21   -1    0    0  504  502 -0.00000000000E+00 -0.00000000000E+00 -0.54710556221E+01  0.54710556221E+01  0.00000000000E+00 0. -1.
         21    1    1    2  503  501  0.18871305885E+02 -0.12130646503E+02  0.35146477264E+03  0.35218001814E+03  0.00000000000E+00 0.  1.
         21    1    1    2  504  503 -0.18871305885E+02  0.12130646503E+02  0.19492286170E+02  0.29719151914E+02  0.00000000000E+00 0. -1.
<mgrwt>
<rscale>  2 0.22433876E+02</rscale>
<asrwt>0</asrwt>
<pdfrwt beam="1">  1       21 0.57911997E-01 0.22433876E+02</pdfrwt>
<pdfrwt beam="2">  1       21 0.84170116E-03 0.22433876E+02</pdfrwt>
<totfact> 0.11072573E+07</totfact>
</mgrwt>
</event>
<event>
 4    1  0.4578942E+006  0.2067251E+02  0.7546771E-02  0.1732276E+00
         21   -1    0    0  504  501  0.00000000000E+00  0.00000000000E+00  0.22870889507E+03  0.22870889507E+03  0.00000000000E+00 0. -1.
         21   -1    0    0  501  502 -0.00000000000E+00 -0.00000000000E+00 -0.23413507466E+01  0.23413507466E+01  0.00000000000E+00 0. -1.
         21    1    1    2  503  502  0.14446785463E+02 -0.14786584312E+02  0.61269720155E+02  0.64663214378E+02  0.00000000000E+00 0. -1.
         21    1    1    2  504  503 -0.14446785463E+02  0.14786584312E+02  0.16509782417E+03  0.16638703144E+03  0.00000000000E+00 0. -1.
<mgrwt>
<rscale>  2 0.20672510E+02</rscale>
<asrwt>0</asrwt>
<pdfrwt beam="1">  1       21 0.35185966E-01 0.20672510E+02</pdfrwt>
<pdfrwt beam="2">  1       21 0.36020799E-03 0.20672510E+02</pdfrwt>
<totfact> 0.98527644E+07</totfact>
</mgrwt>
</event>
<event>
 4    1  0.4578942E+006  0.2062887E+02  0.7546771E-02  0.1733104E+00
         21   -1    0    0  504  501  0.00000000000E+00  0.00000000000E+00  0.14111812727E+02  0.14111812727E+02  0.00000000000E+00 0.  1.
         21   -1    0    0  503  502 -0.00000000000E+00 -0.00000000000E+00 -0.34612403078E+02  0.34612403078E+02  0.00000000000E+00 0.  1.
         21    1    1    2  503  501 -0.20500160801E+02  0.23008372650E+01 -0.15083154795E+01  0.20683942094E+02  0.00000000000E+00 0.  1.
         21    1    1    2  504  502  0.20500160801E+02 -0.23008372650E+01 -0.18992274872E+02  0.28040273711E+02  0.00000000000E+00 0.  1.
<mgrwt>
<rscale>  2 0.20628874E+02</rscale>
<asrwt>0</asrwt>
<pdfrwt beam="1">  1       21 0.21710481E-02 0.20628874E+02</pdfrwt>
<pdfrwt beam="2">  1       21 0.53249850E-02 0.20628874E+02</pdfrwt>
<totfact> 0.16531537E+08</totfact>
</mgrwt>
</event>
<event>
 4    1  0.4578942E+006  0.2432123E+02  0.7546771E-02  0.1670947E+00
         21   -1    0    0  502  501  0.00000000000E+00  0.00000000000E+00  0.86062022147E+02  0.86062022147E+02  0.00000000000E+00 0. -1.
         21   -1    0    0  503  502 -0.00000000000E+00 -0.00000000000E+00 -0.56803748005E+02  0.56803748005E+02  0.00000000000E+00 0.  1.
         21    1    1    2  503  504  0.23488379715E+02 -0.63101538330E+01 -0.52342795973E+02  0.57717331135E+02  0.00000000000E+00 0.  1.
         21    1    1    2  504  501 -0.23488379715E+02  0.63101538330E+01  0.81601070115E+02  0.85148439017E+02  0.00000000000E+00 0. -1.
<mgrwt>
<rscale>  2 0.24321226E+02</rscale>
<asrwt>0</asrwt>
<pdfrwt beam="1">  1       21 0.13240311E-01 0.24321226E+02</pdfrwt>
<pdfrwt beam="2">  1       21 0.87390381E-02 0.24321226E+02</pdfrwt>
<totfact> 0.42729521E+06</totfact>
</mgrwt>
</event>
<event>
 4    1  0.4578942E+006  0.2285155E+02  0.7546771E-02  0.1693928E+00
         21   -1    0    0  504  501  0.00000000000E+00  0.00000000000E+00  0.33484760180E+03  0.33484760180E+03  0.00000000000E+00 0. -1.
         21   -1    0    0  501  502 -0.00000000000E+00 -0.00000000000E+00 -0.85469357034E+01  0.85469357034E+01  0.00000000000E+00 0. -1.
         21    1    1    2  503  502 -0.22163620444E+02  0.55648312521E+01  0.79054794482E+01  0.24180364417E+02  0.00000000000E+00 0. -1.
         21    1    1    2  504  503  0.22163620444E+02 -0.55648312521E+01  0.31839518665E+03  0.31921417309E+03  0.00000000000E+00 0. -1.
<mgrwt>
<rscale>  2 0.22851552E+02</rscale>
<asrwt>0</asrwt>
<pdfrwt beam="1">  1       21 0.51515006E-01 0.22851552E+02</pdfrwt>
<pdfrwt beam="2">  1       21 0.13149134E-02 0.22851552E+02</pdfrwt>
<totfact> 0.71524709E+06</totfact>
</mgrwt>
</event>
<event>
 4    1  0.4578942E+006  0.2166747E+02  0.7546771E-02  0.1714067E+00
         21   -1    0    0  502  501  0.00000000000E+00  0.00000000000E+00  0.34647786952E+02  0.34647786952E+02  0.00000000000E+00 0.  1.
         21   -1    0    0  503  502 -0.00000000000E+00 -0.00000000000E+00 -0.13634765024E+02  0.13634765024E+02  0.00000000000E+00 0.  1.
         21    1    1    2  503  504 -0.14602169232E+02 -0.16007994407E+02  0.12409418452E+02  0.24969439271E+02  0.00000000000E+00 0.  1.
         21    1    1    2  504  501  0.14602169232E+02  0.16007994407E+02  0.86036034771E+01  0.23313112705E+02  0.00000000000E+00 0.  1.
<mgrwt>
<rscale>  2 0.21667469E+02</rscale>
<asrwt>0</asrwt>
<pdfrwt beam="1">  1       21 0.53304287E-02 0.21667469E+02</pdfrwt>
<pdfrwt beam="2">  1       21 0.20976562E-02 0.21667469E+02</pdfrwt>
<totfact> 0.17668652E+08</totfact>
</mgrwt>
</event>
<event>
 4    1  0.4578942E+006  0.3278531E+02  0.7546771E-02  0.1569196E+00
         21   -1    0    0  503  501  0.00000000000E+00  0.00000000000E+00  0.66758677346E+03  0.66758677346E+03  0.00000000000E+00 0. -1.
         21   -1    0    0  504  502 -0.00000000000E+00 -0.00000000000E+00 -0.71525861270E+01  0.71525861270E+01  0.00000000000E+00 0.  1.
         21    1    1    2  503  502 -0.30848735409E+02  0.11100984959E+02  0.33237158014E+02  0.46686025920E+02  0.00000000000E+00 0.  1.
         21    1    1    2  504  501  0.30848735409E+02 -0.11100984959E+02  0.62719702932E+03  0.62805333367E+03  0.00000000000E+00 0. -1.
<mgrwt>
<rscale>  2 0.32785307E+02</rscale>
<asrwt>0</asrwt>
<pdfrwt beam="1">  1       21 0.10270561E+00 0.32785307E+02</pdfrwt>
<pdfrwt beam="2">  1       21 0.11003984E-02 0.32785307E+02</pdfrwt>
<totfact> 0.23288366E+06</totfact>
</mgrwt>
</event>
<event>
 4    1  0.4578942E+006  0.2706463E+02  0.7546771E-02  0.1633003E+00
         21   -1    0    0  503  501  0.00000000000E+00  0.00000000000E+00  0.27249141573E+02  0.27249141573E+02  0.00000000000E+00 0. -1.
         21   -1    0    0  501  502 -0.00000000000E+00 -0.00000000000E+00 -0.27340995108E+02  0.27340995108E+02  0.00000000000E+00 0. -1.
         21    1    1    2  503  504 -0.27021265065E+02  0.15315027715E+01 -0.35849118536E+01  0.27301023048E+02  0.00000000000E+00 0. -1.
         21    1    1    2  504  502  0.27021265065E+02 -0.15315027715E+01  0.34930583188E+01  0.27289113633E+02  0.00000000000E+00 0. -1.
<mgrwt>
<rscale>  2 0.27064631E+02</rscale>
<asrwt>0</asrwt>
<pdfrwt beam="1">  1       21 0.41921756E-02 0.27064631E+02</pdfrwt>
<pdfrwt beam="2">  1       21 0.42063069E-02 0.27064631E+02</pdfrwt>
<totfact> 0.93218182E+07</totfact>
</mgrwt>
</event>
<event>
 4    1  0.4578942E+006  0.2706624E+02  0.7546771E-02  0.1632983E+00
         21   -1    0    0  503  501  0.00000000000E+00  0.00000000000E+00  0.85967061705E+02  0.85967061705E+02  0.00000000000E+00 0.  1.
         21   -1    0    0  501  502 -0.00000000000E+00 -0.00000000000E+00 -0.47401590191E+02  0.47401590191E+02  0.00000000000E+00 0.  1.
         21    1    1    2  503  504  0.12610718590E+01  0.27036841253E+02  0.79676223664E+02  0.84147975047E+02  0.00000000000E+00 0.  1.
         21    1    1    2  504  502 -0.12610718590E+01 -0.27036841253E+02 -0.41110752149E+02  0.49220676849E+02  0.00000000000E+00 0.  1.
<mgrwt>
<rscale>  2 0.27066235E+02</rscale>
<asrwt>0</asrwt>
<pdfrwt beam="1">  1       21 0.13225702E-01 0.27066235E+02</pdfrwt>
<pdfrwt beam="2">  1       21 0.72925523E-02 0.27066235E+02</pdfrwt>
<totfact> 0.58508831E+06</totfact>
</mgrwt>
</event>
<event>
 4    1  0.4578942E+006  0.2122785E+02  0.7546771E-02  0.1721959E+00
         21   -1    0    0  503  501  0.00000000000E+00  0.00000000000E+00  0.39994596317E+03  0.39994596317E+03  0.00000000000E+00 0. -1.
         21   -1    0    0  504  502 -0.00000000000E+00 -0.00000000000E+00 -0.37313661707E+02  0.37313661707E+02  0.00000000000E+00 0. -1.
         21    1    1    2  503  502  0.13744484901E+02 -0.16177472544E+02 -0.33987538838E+02  0.40072113488E+02  0.00000000000E+00 0. -1.
         21    1    1    2  504  501 -0.13744484901E+02  0.16177472544E+02  0.39661984030E+03  0.39718751139E+03  0.00000000000E+00 0. -1.
<mgrwt>
<rscale>  2 0.21227847E+02</rscale>
<asrwt>0</asrwt>
<pdfrwt beam="1">  1       21 0.61530145E-01 0.21227847E+02</pdfrwt>
<pdfrwt beam="2">  1       21 0.57405636E-02 0.21227847E+02</pdfrwt>
<totfact> 0.50726441E+05</totfact>
</mgrwt>
</event>
<event>
 4    1  0.4578942E+006  0.2066395E+02  0.7546771E-02  0.1732438E+00
         21   -1    0    0  504  501  0.00000000000E+00  0.00000000000E+00  0.87860137380E+01  0.87860137380E+01  0.00000000000E+00 0.  1.
         21   -1    0    0  503  502 -0.00000000000E+00 -0.00000000000E+00 -0.96309882276E+02  0.96309882276E+02  0.00000000000E+00 0. -1.
         21    1    1    2  503  501 -0.12182145164E+02  0.16691146598E+02 -0.67769748703E+01  0.21746871589E+02  0.00000000000E+00 0.  1.
         21    1    1    2  504  502  0.12182145164E+02 -0.16691146598E+02 -0.80746893667E+02  0.83349024424E+02  0.00000000000E+00 0. -1.
<mgrwt>
<rscale>  2 0.20663955E+02</rscale>
<asrwt>0</asrwt>
<pdfrwt beam="1">  1       21 0.13516944E-02 0.20663955E+02</pdfrwt>
<pdfrwt beam="2">  1       21 0.14816905E-01 0.20663955E+02</pdfrwt>
<totfact> 0.63678976E+07</totfact>
</mgrwt>
</event>
<event>
 4    1  0.4578942E+006  0.2068729E+02  0.7546771E-02  0.1731996E+00
         21   -1    0    0  504  501  0.00000000000E+00  0.00000000000E+00  0.27011510383E+02  0.27011510383E+02  0.00000000000E+00 0.  1.
         21   -1    0    0  503  502 -0.00000000000E+00 -0.00000000000E+00 -0.34073584198E+02  0.34073584198E+02  0.00000000000E+00 0. -1.
         21    1    1    2  503  501  0.20618691193E+02 -0.16832689277E+01  0.18809191810E+02  0.27959783929E+02  0.00000000000E+00 0.  1.
         21    1    1    2  504  502 -0.20618691193E+02  0.16832689277E+01 -0.25871265625E+02  0.33125310653E+02  0.00000000000E+00 0. -1.
<mgrwt>
<rscale>  2 0.20687286E+02</rscale>
<asrwt>0</asrwt>
<pdfrwt beam="1">  1       21 0.41556170E-02 0.20687286E+02</pdfrwt>
<pdfrwt beam="2">  1       21 0.52420899E-02 0.20687286E+02</pdfrwt>
<totfact> 0.61961674E+07</totfact>
</mgrwt>
</event>
<event>
 4    1  0.4578942E+006  0.2482854E+02  0.7546771E-02  0.1663477E+00
         21   -1    0    0  502  501  0.00000000000E+00  0.00000000000E+00  0.10013232914E+04  0.10013232914E+04  0.00000000000E+00 0. -1.
         21   -1    0    0  503  502 -0.00000000000E+00 -0.00000000000E+00 -0.64716457928E+00  0.64716457928E+00  0.00000000000E+00 0. -1.
         21    1    1    2  503  504 -0.31191186937E+01  0.24631842498E+02  0.38977013748E+03  0.39056013191E+03  0.00000000000E+00 0. -1.
         21    1    1    2  504  501  0.31191186937E+01 -0.24631842498E+02  0.61090598930E+03  0.61141032403E+03  0.00000000000E+00 0. -1.
<mgrwt>
<rscale>  2 0.24828543E+02</rscale>
<asrwt>0</asrwt>
<pdfrwt beam="1">  1       21 0.15404850E+00 0.24828543E+02</pdfrwt>
<pdfrwt beam="2">  1       21 0.99564582E-04 0.24828543E+02</pdfrwt>
<totfact> 0.30243070E+07</totfact>
</mgrwt>
</event>
<event>
 4    1  0.4578942E+006  0.2075629E+02  0.7546771E-02  0.1730693E+00
         21   -1    0    0  503  501  0.00000000000E+00  0.00000000000E+00  0.28365145786E+02  0.28365145786E+02  0.00000000000E+00 0.  1.
         21   -1    0    0  504  502 -0.00000000000E+00 -0.00000000000E+00 -0.16140989938E+02  0.16140989938E+02  0.00000000000E+00 0.  1.
         21    1    1    2  503  502 -0.17032900559E+02  0.11861865034E+02  0.11517863445E+02  0.23737833133E+02  0.00000000000E+00 0.  1.
         21    1    1    2  504  501  0.17032900559E+02 -0.11861865034E+02  0.70629240387E+00  0.20768302591E+02  0.00000000000E+00 0.  1.
<mgrwt>
<rscale>  2 0.20756289E+02</rscale>
<asrwt>0</asrwt>
<pdfrwt beam="1">  1       21 0.43638686E-02 0.20756289E+02</pdfrwt>
<pdfrwt beam="2">  1       21 0.24832292E-02 0.20756289E+02</pdfrwt>
<totfact> 0.18464219E+08</totfact>
</mgrwt>
</event>
<event>
 4    1  0.4578942E+006  0.2028783E+02  0.7546771E-02  0.1739664E+00
         21   -1    0    0  504  501  0.00000000000E+00  0.00000000000E+00  0.70669250887E+02  0.70669250887E+02  0.00000000000E+00 0. -1.
         21   -1    0    0  503  502 -0.00000000000E+00 -0.00000000000E+00 -0.61842264626E+01  0.61842264626E+01  0.00000000000E+00 0. -1.
         21    1    1    2  503  501 -0.33529289733E+01  0.20008846298E+02  0.22971607954E+02  0.30647852044E+02  0.00000000000E+00 0. -1.
         21    1    1    2  504  502  0.33529289733E+01 -0.20008846298E+02  0.41513416470E+02  0.46205625305E+02  0.00000000000E+00 0. -1.
<mgrwt>
<rscale>  2 0.20287830E+02</rscale>
<asrwt>0</asrwt>
<pdfrwt beam="1">  1       21 0.10872192E-01 0.20287830E+02</pdfrwt>
<pdfrwt beam="2">  1       21 0.95141951E-03 0.20287830E+02</pdfrwt>
<totfact> 0.18009853E+08</totfact>
</mgrwt>
</event>
<event>
 4    1  0.4578942E+006  0.2538255E+02  0.7546771E-02  0.1655567E+00
         21   -1    0    0  503  501  0.00000000000E+00  0.00000000000E+00  0.17775155836E+01  0.17775155836E+01  0.00000000000E+00 0.  1.
         21   -1    0    0  504  502 -0.00000000000E+00 -0.00000000000E+00 -0.41017142121E+03  0.41017142121E+03  0.00000000000E+00 0.  1.
         21    1    1    2  503  502 -0.15002503020E+02 -0.20474339553E+02 -0.13394576022E+03  0.13632952856E+03  0.00000000000E+00 0.  1.
         21    1    1    2  504  501  0.15002503020E+02  0.20474339553E+02 -0.27444814541E+03  0.27561940824E+03  0.00000000000E+00 0.  1.
<mgrwt>
<rscale>  2 0.25382547E+02</rscale>
<asrwt>0</asrwt>
<pdfrwt beam="1">  1       21 0.27346363E-03 0.25382547E+02</pdfrwt>
<pdfrwt beam="2">  1       21 0.63103367E-01 0.25382547E+02</pdfrwt>
<totfact> 0.50201424E+07</totfact>
</mgrwt>
</event>
<event>
 4    1  0.4578942E+006  0.2369445E+02  0.7546771E-02  0.1680494E+00
         21   -1    0    0  502  501  0.00000000000E+00  0.00000000000E+00  0.75711944630E+01  0.75711944630E+01  0.00000000000E+00 0.  1.
         21   -1    0    0  504  502 -0.00000000000E+00 -0.00000000000E+00 -0.78613177702E+02  0.78613177702E+02  0.00000000000E+00 0. -1.
         21    1    1    2  503  501 -0.21426081106E+01  0.23597377887E+02 -0.25256783364E+02  0.34631374772E+02  0.00000000000E+00 0.  1.
         21    1    1    2  504  503  0.21426081106E+01 -0.23597377887E+02 -0.45785199875E+02  0.51552997394E+02  0.00000000000E+00 0. -1.
<mgrwt>
<rscale>  2 0.23694451E+02</rscale>
<asrwt>0</asrwt>
<pdfrwt beam="1">  1       21 0.11647992E-02 0.23694451E+02</pdfrwt>
<pdfrwt beam="2">  1       21 0.12094335E-01 0.23694451E+02</pdfrwt>
<totfact> 0.11660623E+08</totfact>
</mgrwt>
</event>
<event>
 4    1  0.4578942E+006  0.2657404E+02  0.7546771E-02  0.1639371E+00
         21   -1    0    0  504  501  0.00000000000E+00  0.00000000000E+00  0.17244769317E+02  0.17244769317E+02  0.00000000000E+00 0. -1.
         21   -1    0    0  503  502 -0.00000000000E+00 -0.00000000000E+00 -0.12901612211E+03  0.12901612211E+03  0.00000000000E+00 0.  1.
         21    1    1    2  503  501  0.15666451770E+02  0.21464893382E+02  0.45341953538E+01  0.26958083880E+02  0.00000000000E+00 0. -1.
         21    1    1    2  504  502 -0.15666451770E+02 -0.21464893382E+02 -0.11630554815E+03  0.11930280755E+03  0.00000000000E+00 0.  1.
<mgrwt>
<rscale>  2 0.26574035E+02</rscale>
<asrwt>0</asrwt>
<pdfrwt beam="1">  1       21 0.26530415E-02 0.26574035E+02</pdfrwt>
<pdfrwt beam="2">  1       21 0.19848633E-01 0.26574035E+02</pdfrwt>
<totfact> 0.14502020E+07</totfact>
</mgrwt>
</event>
<event>
 4    1  0.4578942E+006  0.2062300E+02  0.7546771E-02  0.1733215E+00
         21   -1    0    0  503  501  0.00000000000E+00  0.00000000000E+00  0.56510574531E+02  0.56510574531E+02  0.00000000000E+00 0. -1.
         21   -1    0    0  504  502 -0.00000000000E+00 -0.00000000000E+00 -0.13495077656E+02  0.13495077656E+02  0.00000000000E+00 0. -1.
         21    1    1    2  503  502 -0.10179370235E+02  0.17935680272E+02 -0.17711720531E+01  0.20698919190E+02  0.00000000000E+00 0. -1.
         21    1    1    2  504  501  0.10179370235E+02 -0.17935680272E+02  0.44786668928E+02  0.49306732997E+02  0.00000000000E+00 0. -1.
<mgrwt>
<rscale>  2 0.20623002E+02</rscale>
<asrwt>0</asrwt>
<pdfrwt beam="1">  1       21 0.86939344E-02 0.20623002E+02</pdfrwt>
<pdfrwt beam="2">  1       21 0.20761658E-02 0.20623002E+02</pdfrwt>
<totfact> 0.80391015E+07</totfact>
</mgrwt>
</event>
<event>
 4    1  0.4578942E+006  0.2239196E+02  0.7546771E-02  0.1701560E+00
         21   -1    0    0  503  501  0.00000000000E+00  0.00000000000E+00  0.18375085805E+02  0.18375085805E+02  0.00000000000E+00 0. -1.
         21   -1    0    0  501  502 -0.00000000000E+00 -0.00000000000E+00 -0.65790679754E+02  0.65790679754E+02  0.00000000000E+00 0. -1.
         21    1    1    2  503  504  0.59937336588E+01  0.21574865830E+02  0.84861933386E+01  0.23946088535E+02  0.00000000000E+00 0. -1.
         21    1    1    2  504  502 -0.59937336588E+01 -0.21574865830E+02 -0.55901787288E+02  0.60219677023E+02  0.00000000000E+00 0. -1.
<mgrwt>
<rscale>  2 0.22391956E+02</rscale>
<asrwt>0</asrwt>
<pdfrwt beam="1">  1       21 0.28269363E-02 0.22391956E+02</pdfrwt>
<pdfrwt beam="2">  1       21 0.10121643E-01 0.22391956E+02</pdfrwt>
<totfact> 0.39786632E+07</totfact>
</mgrwt>
</event>
<event>
 4    1  0.4578942E+006  0.2542758E+02  0.7546771E-02  0.1654935E+00
         21   -1    0    0  503  501  0.00000000000E+00  0.00000000000E+00  0.94981236333E+01  0.94981236333E+01  0.00000000000E+00 0.  1.
         21   -1    0    0  504  502 -0.00000000000E+00 -0.00000000000E+00 -0.31331766224E+03  0.31331766224E+03  0.00000000000E+00 0.  1.
         21    1    1    2  503  502  0.25311268247E+02 -0.24292636224E+01 -0.29471118007E+03  0.29580608730E+03  0.00000000000E+00 0.  1.
         21    1    1    2  504  501 -0.25311268247E+02  0.24292636224E+01 -0.91083585348E+01  0.27009698577E+02  0.00000000000E+00 0.  1.
<mgrwt>
<rscale>  2 0.25427576E+02</rscale>
<asrwt>0</asrwt>
<pdfrwt beam="1">  1       21 0.14612498E-02 0.25427576E+02</pdfrwt>
<pdfrwt beam="2">  1       21 0.48202718E-01 0.25427576E+02</pdfrwt>
<totfact> 0.70558917E+06</totfact>
</mgrwt>
</event>
<event>
 4    1  0.4578942E+006  0.2201750E+02  0.7546771E-02  0.1707950E+00
         21   -1    0    0  503  501  0.00000000000E+00  0.00000000000E+00  0.23604836651E+01  0.23604836651E+01  0.00000000000E+00 0.  1.
         21   -1    0    0  501  502 -0.00000000000E+00 -0.00000000000E+00 -0.23810723579E+03  0.23810723579E+03  0.00000000000E+00 0.  1.
         21    1    1    2  503  504 -0.23628481749E+01  0.21890346050E+02 -0.73290533231E+02  0.76526286745E+02  0.00000000000E+00 0.  1.
         21    1    1    2  504  502  0.23628481749E+01 -0.21890346050E+02 -0.16245621890E+03  0.16394143271E+03  0.00000000000E+00 0.  1.
<mgrwt>
<rscale>  2 0.22017500E+02</rscale>
<asrwt>0</asrwt>
<pdfrwt beam="1">  1       21 0.36315122E-03 0.22017500E+02</pdfrwt>
<pdfrwt beam="2">  1       21 0.36631894E-01 0.22017500E+02</pdfrwt>
<totfact> 0.91923038E+07</totfact>
</mgrwt>
</event>
<event>
 4    1  0.4578942E+006  0.2842204E+02  0.7546771E-02  0.1616216E+00
         21   -1    0    0  504  501  0.00000000000E+00  0.00000000000E+00  0.84135596042E+02  0.84135596042E+02  0.00000000000E+00 0. -1.
         21   -1    0    0  503  502 -0.00000000000E+00 -0.00000000000E+00 -0.52794463500E+02  0.52794463500E+02  0.00000000000E+00 0. -1.
         21    1    1    2  503  501 -0.69511753105E+01 -0.27558905309E+02  0.77597853760E+02  0.82639209872E+02  0.00000000000E+00 0. -1.
         21    1    1    2  504  502  0.69511753105E+01  0.27558905309E+02 -0.46256721219E+02  0.54290849670E+02  0.00000000000E+00 0. -1.
<mgrwt>
<rscale>  2 0.28422035E+02</rscale>
<asrwt>0</asrwt>
<pdfrwt beam="1">  1       21 0.12943938E-01 0.28422035E+02</pdfrwt>
<pdfrwt beam="2">  1       21 0.81222252E-02 0.28422035E+02</pdfrwt>
<totfact> 0.51231819E+06</totfact>
</mgrwt>
</event>
<event>
 4    1  0.4578942E+006  0.2055933E+02  0.7546771E-02  0.1734429E+00
         21   -1    0    0  502  501  0.00000000000E+00  0.00000000000E+00  0.94011597124E+01  0.94011597124E+01  0.00000000000E+00 0. -1.
         21   -1    0    0  503  502 -0.00000000000E+00 -0.00000000000E+00 -0.15760295126E+03  0.15760295126E+03  0.00000000000E+00 0. -1.
         21    1    1    2  503  504 -0.10903851273E+02  0.17429626641E+02 -0.14469444397E+03  0.14614776076E+03  0.00000000000E+00 0. -1.
         21    1    1    2  504  501  0.10903851273E+02 -0.17429626641E+02 -0.35073475776E+01  0.20856350219E+02  0.00000000000E+00 0. -1.
<mgrwt>
<rscale>  2 0.20559325E+02</rscale>
<asrwt>0</asrwt>
<pdfrwt beam="1">  1       21 0.14463325E-02 0.20559325E+02</pdfrwt>
<pdfrwt beam="2">  1       21 0.24246605E-01 0.20559325E+02</pdfrwt>
<totfact> 0.24503919E+07</totfact>
</mgrwt>
</event>
<event>
 4    1  0.4578942E+006  0.2020366E+02  0.7546771E-02  0.1741308E+00
         21   -1    0    0  503  501  0.00000000000E+00  0.00000000000E+00  0.27766861250E+01  0.27766861250E+01  0.00000000000E+00 0.  1.
         21   -1    0    0  504  502 -0.00000000000E+00 -0.00000000000E+00 -0.14718111094E+03  0.14718111094E+03  0.00000000000E+00 0.  1.
         21    1    1    2  503  502  0.11556749887E+02 -0.16571946620E+02 -0.69611615452E+02  0.72484238897E+02  0.00000000000E+00 0.  1.
         21    1    1    2  504  501 -0.11556749887E+02  0.16571946620E+02 -0.74792809362E+02  0.77473558166E+02  0.00000000000E+00 0.  1.
<mgrwt>
<rscale>  2 0.20203660E+02</rscale>
<asrwt>0</asrwt>
<pdfrwt beam="1">  1       21 0.42718241E-03 0.20203660E+02</pdfrwt>
<pdfrwt beam="2">  1       21 0.22643251E-01 0.20203660E+02</pdfrwt>
<totfact> 0.16854560E+08</totfact>
</mgrwt>
</event>
<event>
 4    1  0.4578942E+006  0.2173325E+02  0.7546771E-02  0.1712907E+00
         21   -1    0    0  504  501  0.00000000000E+00  0.00000000000E+00  0.12156722293E+03  0.12156722293E+03  0.00000000000E+00 0.  1.
         21   -1    0    0  503  502 -0.00000000000E+00 -0.00000000000E+00 -0.50106297238E+01  0.50106297238E+01  0.00000000000E+00 0.  1.
         21    1    1    2  503  501  0.21733088232E+02 -0.83619587156E-01  0.88270419398E+02  0.90906551233E+02  0.00000000000E+00 0.  1.
         21    1    1    2  504  502 -0.21733088232E+02  0.83619587156E-01  0.28286173806E+02  0.35671301419E+02  0.00000000000E+00 0.  1.
<mgrwt>
<rscale>  2 0.21733249E+02</rscale>
<asrwt>0</asrwt>
<pdfrwt beam="1">  1       21 0.18702647E-01 0.21733249E+02</pdfrwt>
<pdfrwt beam="2">  1       21 0.77086620E-03 0.21733249E+02</pdfrwt>
<totfact> 0.10057174E+08</totfact>
</mgrwt>
</event>
<event>
 4    1  0.4578942E+006  0.2210828E+02  0.7546771E-02  0.1706386E+00
         21   -1    0    0  503  501  0.00000000000E+00  0.00000000000E+00  0.10237868339E+02  0.10237868339E+02  0.00000000000E+00 0. -1.
         21   -1    0    0  504  502 -0.00000000000E+00 -0.00000000000E+00 -0.13164881577E+04  0.13164881577E+04  0.00000000000E+00 0.  1.
         21    1    1    2  503  502  0.18117541166E+02 -0.12670065917E+02 -0.19015128532E+01  0.22189899039E+02  0.00000000000E+00 0. -1.
         21    1    1    2  504  501 -0.18117541166E+02  0.12670065917E+02 -0.13043487765E+04  0.13045361270E+04  0.00000000000E+00 0.  1.
<mgrwt>
<rscale>  2 0.22108276E+02</rscale>
<asrwt>0</asrwt>
<pdfrwt beam="1">  1       21 0.15750553E-02 0.22108276E+02</pdfrwt>
<pdfrwt beam="2">  1       21 0.20253682E+00 0.22108276E+02</pdfrwt>
<totfact> 0.26254572E+05</totfact>
</mgrwt>
</event>
<event>
 4    1  0.4578942E+006  0.2823935E+02  0.7546771E-02  0.1618407E+00
         21   -1    0    0  504  501  0.00000000000E+00  0.00000000000E+00  0.18833414538E+02  0.18833414538E+02  0.00000000000E+00 0. -1.
         21   -1    0    0  503  502 -0.00000000000E+00 -0.00000000000E+00 -0.24694830703E+03  0.24694830703E+03  0.00000000000E+00 0. -1.
         21    1    1    2  503  501 -0.14268355633E+02 -0.24369552883E+02  0.69050271485E+01  0.29071299939E+02  0.00000000000E+00 0. -1.
         21    1    1    2  504  502  0.14268355633E+02  0.24369552883E+02 -0.23501991964E+03  0.23671042163E+03  0.00000000000E+00 0. -1.
<mgrwt>
<rscale>  2 0.28239353E+02</rscale>
<asrwt>0</asrwt>
<pdfrwt beam="1">  1       21 0.28974484E-02 0.28239353E+02</pdfrwt>
<pdfrwt beam="2">  1       21 0.37992047E-01 0.28239353E+02</pdfrwt>
<totfact> 0.39231458E+06</totfact>
</mgrwt>
</event>
<event>
 4    1  0.4578942E+006  0.2022596E+02  0.7546771E-02  0.1740871E+00
         21   -1    0    0  504  501  0.00000000000E+00  0.00000000000E+00  0.73046321167E+02  0.73046321167E+02  0.00000000000E+00 0. -1.
         21   -1    0    0  503  502 -0.00000000000E+00 -0.00000000000E+00 -0.80345962288E+01  0.80345962288E+01  0.00000000000E+00 0. -1.
         21    1    1    2  503  501  0.42346924507E+01 -0.19777688930E+02  0.10191564774E+02  0.22648567109E+02  0.00000000000E+00 0. -1.
         21    1    1    2  504  502 -0.42346924507E+01  0.19777688930E+02  0.54820160165E+02  0.58432350287E+02  0.00000000000E+00 0. -1.
<mgrwt>
<rscale>  2 0.20225964E+02</rscale>
<asrwt>0</asrwt>
<pdfrwt beam="1">  1       21 0.11237895E-01 0.20225964E+02</pdfrwt>
<pdfrwt beam="2">  1       21 0.12360918E-02 0.20225964E+02</pdfrwt>
<totfact> 0.11507042E+08</totfact>
</mgrwt>
</event>
<event>
 4    1  0.4578942E+006  0.2197845E+02  0.7546771E-02  0.1708625E+00
         21   -1    0    0  503  501  0.00000000000E+00  0.00000000000E+00  0.46054899227E+01  0.46054899227E+01  0.00000000000E+00 0. -1.
         21   -1    0    0  504  502 -0.00000000000E+00 -0.00000000000E+00 -0.18278220618E+03  0.18278220618E+03  0.00000000000E+00 0. -1.
         21    1    1    2  503  502 -0.11201479085E+02 -0.18909758027E+02 -0.15025320157E+03  0.15185215397E+03  0.00000000000E+00 0. -1.
         21    1    1    2  504  501  0.11201479085E+02  0.18909758027E+02 -0.27923514683E+02  0.35535542131E+02  0.00000000000E+00 0. -1.
<mgrwt>
<rscale>  2 0.21978446E+02</rscale>
<asrwt>0</asrwt>
<pdfrwt beam="1">  1       21 0.70853686E-03 0.21978446E+02</pdfrwt>
<pdfrwt beam="2">  1       21 0.28120341E-01 0.21978446E+02</pdfrwt>
<totfact> 0.55682139E+07</totfact>
</mgrwt>
</event>
<event>
 4    1  0.4578942E+006  0.2250715E+02  0.7546771E-02  0.1699626E+00
         21   -1    0    0  504  501  0.00000000000E+00  0.00000000000E+00  0.14222638779E+02  0.14222638779E+02  0.00000000000E+00 0.  1.
         21   -1    0    0  501  502 -0.00000000000E+00 -0.00000000000E+00 -0.52582134216E+02  0.52582134216E+02  0.00000000000E+00 0.  1.
         21    1    1    2  503  502  0.20393918042E+02 -0.95215505443E+01 -0.38152632053E+02  0.44296672002E+02  0.00000000000E+00 0.  1.
         21    1    1    2  504  503 -0.20393918042E+02  0.95215505443E+01 -0.20686338397E+00  0.22508100994E+02  0.00000000000E+00 0.  1.
<mgrwt>
<rscale>  2 0.22507150E+02</rscale>
<asrwt>0</asrwt>
<pdfrwt beam="1">  1       21 0.21880983E-02 0.22507150E+02</pdfrwt>
<pdfrwt beam="2">  1       21 0.80895591E-02 0.22507150E+02</pdfrwt>
<totfact> 0.85511181E+07</totfact>
</mgrwt>
</event>
<event>
 4    1  0.4578942E+006  0.2209432E+02  0.7546771E-02  0.1706626E+00
         21   -1    0    0  504  501  0.00000000000E+00  0.00000000000E+00  0.40427295421E+01  0.40427295421E+01  0.00000000000E+00 0.  1.
         21   -1    0    0  503  502 -0.00000000000E+00 -0.00000000000E+00 -0.17727807840E+03  0.17727807840E+03  0.00000000000E+00 0.  1.
         21    1    1    2  503  501  0.20063922782E+02 -0.92519083186E+01 -0.13781213738E+03  0.13957200297E+03  0.00000000000E+00 0.  1.
         21    1    1    2  504  502 -0.20063922782E+02  0.92519083186E+01 -0.35423211484E+02  0.41748804975E+02  0.00000000000E+00 0.  1.
<mgrwt>
<rscale>  2 0.22094316E+02</rscale>
<asrwt>0</asrwt>
<pdfrwt beam="1">  1       21 0.62195840E-03 0.22094316E+02</pdfrwt>
<pdfrwt beam="2">  1       21 0.27273550E-01 0.22094316E+02</pdfrwt>
<totfact> 0.71475362E+07</totfact>
</mgrwt>
</event>
<event>
 4    1  0.4578942E+006  0.2676326E+02  0.7546771E-02  0.1636895E+00
         21   -1    0    0  503  501  0.00000000000E+00  0.00000000000E+00  0.16055162520E+02  0.16055162520E+02  0.00000000000E+00 0. -1.
         21   -1    0    0  501  502 -0.00000000000E+00 -0.00000000000E+00 -0.95149014497E+02  0.95149014497E+02  0.00000000000E+00 0. -1.
         21    1    1    2  503  504 -0.11678335212E+02 -0.24080880031E+02  0.97485829418E+00  0.26781012772E+02  0.00000000000E+00 0. -1.
         21    1    1    2  504  502  0.11678335212E+02  0.24080880031E+02 -0.80068710271E+02  0.84423164244E+02  0.00000000000E+00 0. -1.
<mgrwt>
<rscale>  2 0.26763264E+02</rscale>
<asrwt>0</asrwt>
<pdfrwt beam="1">  1       21 0.24700250E-02 0.26763264E+02</pdfrwt>
<pdfrwt beam="2">  1       21 0.14638310E-01 0.26763264E+02</pdfrwt>
<totfact> 0.27498145E+07</totfact>
</mgrwt>
</event>
<event>
 4    1  0.4578942E+006  0.2017331E+02  0.7546771E-02  0.1741903E+00
         21   -1    0    0  503  501  0.00000000000E+00  0.00000000000E+00  0.25084718218E+02  0.25084718218E+02  0.00000000000E+00 0. -1.
         21   -1    0    0  501  502 -0.00000000000E+00 -0.00000000000E+00 -0.46245940734E+03  0.46245940734E+03  0.00000000000E+00 0.  1.
         21    1    1    2  503  504  0.15255178856E+02  0.13200067348E+02  0.20770667966E+02  0.28954842560E+02  0.00000000000E+00 0. -1.
         21    1    1    2  504  502 -0.15255178856E+02 -0.13200067348E+02 -0.45814535709E+03  0.45858928300E+03  0.00000000000E+00 0.  1.
<mgrwt>
<rscale>  2 0.20173306E+02</rscale>
<asrwt>0</asrwt>
<pdfrwt beam="1">  1       21 0.38591875E-02 0.20173306E+02</pdfrwt>
<pdfrwt beam="2">  1       21 0.71147599E-01 0.20173306E+02</pdfrwt>
<totfact> 0.70583472E+05</totfact>
</mgrwt>
</event>
<event>
 4    1  0.4578942E+006  0.2374802E+02  0.7546771E-02  0.1679664E+00
         21   -1    0    0  503  501  0.00000000000E+00  0.00000000000E+00  0.11635627149E+03  0.11635627149E+03  0.00000000000E+00 0. -1.
         21   -1    0    0  501  502 -0.00000000000E+00 -0.00000000000E+00 -0.93707330091E+01  0.93707330091E+01  0.00000000000E+00 0. -1.
         21    1    1    2  503  504  0.23130331189E+02 -0.53811200922E+01  0.97170942849E+02  0.10003079930E+03  0.00000000000E+00 0. -1.
         21    1    1    2  504  502 -0.23130331189E+02  0.53811200922E+01  0.98145956352E+01  0.25696205203E+02  0.00000000000E+00 0. -1.
<mgrwt>
<rscale>  2 0.23748025E+02</rscale>
<asrwt>0</asrwt>
<pdfrwt beam="1">  1       21 0.17900964E-01 0.23748025E+02</pdfrwt>
<pdfrwt beam="2">  1       21 0.14416513E-02 0.23748025E+02</pdfrwt>
<totfact> 0.43323468E+07</totfact>
</mgrwt>
</event>
<event>
 4    1  0.4578942E+006  0.2966785E+02  0.7546771E-02  0.1601789E+00
         21   -1    0    0  503  501  0.00000000000E+00  0.00000000000E+00  0.10845803972E+03  0.10845803972E+03  0.00000000000E+00 0.  1.
         21   -1    0    0  504  502 -0.00000000000E+00 -0.00000000000E+00 -0.10302304874E+03  0.10302304874E+03  0.00000000000E+00 0.  1.
         21    1    1    2  503  502  0.19683357714E+02 -0.22197894289E+02 -0.98772897620E+02  0.10313227616E+03  0.00000000000E+00 0.  1.
         21    1    1    2  504  501 -0.19683357714E+02  0.22197894289E+02  0.10420788859E+03  0.10834881230E+03  0.00000000000E+00 0.  1.
<mgrwt>
<rscale>  2 0.29667846E+02</rscale>
<asrwt>0</asrwt>
<pdfrwt beam="1">  1       21 0.16685852E-01 0.29667846E+02</pdfrwt>
<pdfrwt beam="2">  1       21 0.15849700E-01 0.29667846E+02</pdfrwt>
<totfact> 0.10792830E+06</totfact>
</mgrwt>
</event>
<event>
 4    1  0.4578942E+006  0.2720592E+02  0.7546771E-02  0.1631200E+00
         21   -1    0    0  503  501  0.00000000000E+00  0.00000000000E+00  0.79887346043E+02  0.79887346043E+02  0.00000000000E+00 0. -1.
         21   -1    0    0  504  502 -0.00000000000E+00 -0.00000000000E+00 -0.10624782732E+02  0.10624782732E+02  0.00000000000E+00 0. -1.
         21    1    1    2  503  502  0.11333418932E+01 -0.27182299481E+02  0.18441525583E+02  0.32867183249E+02  0.00000000000E+00 0. -1.
         21    1    1    2  504  501 -0.11333418932E+01  0.27182299481E+02  0.50821037728E+02  0.57644945526E+02  0.00000000000E+00 0. -1.
<mgrwt>
<rscale>  2 0.27205916E+02</rscale>
<asrwt>0</asrwt>
<pdfrwt beam="1">  1       21 0.12290361E-01 0.27205916E+02</pdfrwt>
<pdfrwt beam="2">  1       21 0.16345820E-02 0.27205916E+02</pdfrwt>
<totfact> 0.70262845E+07</totfact>
</mgrwt>
</event>
<event>
 4    1  0.4578942E+006  0.2179056E+02  0.7546771E-02  0.1711899E+00
         21   -1    0    0  503  501  0.00000000000E+00  0.00000000000E+00  0.13229997108E+03  0.13229997108E+03  0.00000000000E+00 0. -1.
         21   -1    0    0  504  502 -0.00000000000E+00 -0.00000000000E+00 -0.10189188292E+02  0.10189188292E+02  0.00000000000E+00 0.  1.
         21    1    1    2  503  502  0.13705614117E+02  0.16940623910E+02  0.11839559128E+03  0.12038415440E+03  0.00000000000E+00 0. -1.
         21    1    1    2  504  501 -0.13705614117E+02 -0.16940623910E+02  0.37151915085E+01  0.22105004970E+02  0.00000000000E+00 0.  1.
<mgrwt>
<rscale>  2 0.21790562E+02</rscale>
<asrwt>0</asrwt>
<pdfrwt beam="1">  1       21 0.20353841E-01 0.21790562E+02</pdfrwt>
<pdfrwt beam="2">  1       21 0.15675675E-02 0.21790562E+02</pdfrwt>
<totfact> 0.29894333E+07</totfact>
</mgrwt>
</event>
<event>
 4    1  0.4578942E+006  0.2847654E+02  0.7546771E-02  0.1615566E+00
         21   -1    0    0  504  501  0.00000000000E+00  0.00000000000E+00  0.39173510650E+03  0.39173510650E+03  0.00000000000E+00 0.  1.
         21   -1    0    0  501  502 -0.00000000000E+00 -0.00000000000E+00 -0.32056261812E+03  0.32056261812E+03  0.00000000000E+00 0.  1.
         21    1    1    2  503  502  0.29578567099E+01 -0.28322509114E+02 -0.31941082755E+03  0.32067770455E+03  0.00000000000E+00 0.  1.
         21    1    1    2  504  503 -0.29578567099E+01  0.28322509114E+02  0.39058331593E+03  0.39162002007E+03  0.00000000000E+00 0.  1.
<mgrwt>
<rscale>  2 0.28476542E+02</rscale>
<asrwt>0</asrwt>
<pdfrwt beam="1">  1       21 0.60266939E-01 0.28476542E+02</pdfrwt>
<pdfrwt beam="2">  1       21 0.49317326E-01 0.28476542E+02</pdfrwt>
<totfact> 0.12453430E+04</totfact>
</mgrwt>
</event>
<event>
 4    1  0.4578942E+006  0.2019019E+02  0.7546771E-02  0.1741572E+00
         21   -1    0    0  502  501  0.00000000000E+00  0.00000000000E+00  0.17668512788E+02  0.17668512788E+02  0.00000000000E+00 0. -1.
         21   -1    0    0  504  502 -0.00000000000E+00 -0.00000000000E+00 -0.45656003501E+02  0.45656003501E+02  0.00000000000E+00 0.  1.
         21    1    1    2  503  501 -0.16328070336E+02  0.11875943839E+02  0.82749915425E+01  0.21820160586E+02  0.00000000000E+00 0. -1.
         21    1    1    2  504  503  0.16328070336E+02 -0.11875943839E+02 -0.36262482256E+02  0.41504355703E+02  0.00000000000E+00 0.  1.
<mgrwt>
<rscale>  2 0.20190194E+02</rscale>
<asrwt>0</asrwt>
<pdfrwt beam="1">  1       21 0.27182328E-02 0.20190194E+02</pdfrwt>
<pdfrwt beam="2">  1       21 0.70240003E-02 0.20190194E+02</pdfrwt>
<totfact> 0.74636018E+07</totfact>
</mgrwt>
</event>
<event>
 4    1  0.4578942E+006  0.2319297E+02  0.7546771E-02  0.1688401E+00
         21   -1    0    0  502  501  0.00000000000E+00  0.00000000000E+00  0.96844395721E+01  0.96844395721E+01  0.00000000000E+00 0. -1.
         21   -1    0    0  503  502 -0.00000000000E+00 -0.00000000000E+00 -0.15220394326E+03  0.15220394326E+03  0.00000000000E+00 0.  1.
         21    1    1    2  503  504 -0.15603910056E+02  0.17159011382E+02 -0.13576510151E+03  0.13773190069E+03  0.00000000000E+00 0.  1.
         21    1    1    2  504  501  0.15603910056E+02 -0.17159011382E+02 -0.67544021813E+01  0.24156482142E+02  0.00000000000E+00 0. -1.
<mgrwt>
<rscale>  2 0.23192966E+02</rscale>
<asrwt>0</asrwt>
<pdfrwt beam="1">  1       21 0.14899139E-02 0.23192966E+02</pdfrwt>
<pdfrwt beam="2">  1       21 0.23415990E-01 0.23192966E+02</pdfrwt>
<totfact> 0.25609313E+07</totfact>
</mgrwt>
</event>
<event>
 4    1  0.4578942E+006  0.2198308E+02  0.7546771E-02  0.1708545E+00
         21   -1    0    0  504  501  0.00000000000E+00  0.00000000000E+00  0.19967431577E+02  0.19967431577E+02  0.00000000000E+00 0. -1.
         21   -1    0    0  503  502 -0.00000000000E+00 -0.00000000000E+00 -0.40472926433E+02  0.40472926433E+02  0.00000000000E+00 0.  1.
         21    1    1    2  503  501  0.17569556774E+02  0.13212365531E+02 -0.29413744135E+02  0.36720896942E+02  0.00000000000E+00 0.  1.
         21    1    1    2  504  502 -0.17569556774E+02 -0.13212365531E+02  0.89082492788E+01  0.23719461068E+02  0.00000000000E+00 0. -1.
<mgrwt>
<rscale>  2 0.21983083E+02</rscale>
<asrwt>0</asrwt>
<pdfrwt beam="1">  1       21 0.30719126E-02 0.21983083E+02</pdfrwt>
<pdfrwt beam="2">  1       21 0.62266040E-02 0.21983083E+02</pdfrwt>
<totfact> 0.76780094E+07</totfact>
</mgrwt>
</event>
<event>
 4    1  0.4578942E+006  0.2490076E+02  0.7546771E-02  0.1662431E+00
         21   -1    0    0  504  501  0.00000000000E+00  0.00000000000E+00  0.60179087853E+02  0.60179087853E+02  0.00000000000E+00 0. -1.
         21   -1    0    0  503  502 -0.00000000000E+00 -0.00000000000E+00 -0.31085845958E+02  0.31085845958E+02  0.00000000000E+00 0. -1.
         21    1    1    2  503  501  0.56916246484E+01 -0.24241561314E+02 -0.22764746208E+02  0.33738428475E+02  0.00000000000E+00 0. -1.
         21    1    1    2  504  502 -0.56916246484E+01  0.24241561314E+02  0.51857988103E+02  0.57526505336E+02  0.00000000000E+00 0. -1.
<mgrwt>
<rscale>  2 0.24900761E+02</rscale>
<asrwt>0</asrwt>
<pdfrwt beam="1">  1       21 0.92583212E-02 0.24900761E+02</pdfrwt>
<pdfrwt beam="2">  1       21 0.47824379E-02 0.24900761E+02</pdfrwt>
<totfact> 0.20679487E+07</totfact>
</mgrwt>
</event>
<event>
 4    1  0.4578942E+006  0.2461291E+02  0.7546771E-02  0.1666625E+00
         21   -1    0    0  503  501  0.00000000000E+00  0.00000000000E+00  0.12219286582E+02  0.12219286582E+02  0.00000000000E+00 0. -1.
         21   -1    0    0  504  502 -0.00000000000E+00 -0.00000000000E+00 -0.26302439942E+03  0.26302439942E+03  0.00000000000E+00 0. -1.
         21    1    1    2  503  502 -0.21451737477E+02 -0.12067247055E+02 -0.14273639524E+01  0.24654266570E+02  0.00000000000E+00 0. -1.
         21    1    1    2  504  501  0.21451737477E+02  0.12067247055E+02 -0.24937774888E+03  0.25058941943E+03  0.00000000000E+00 0. -1.
<mgrwt>
<rscale>  2 0.24612913E+02</rscale>
<asrwt>0</asrwt>
<pdfrwt beam="1">  1       21 0.18798902E-02 0.24612913E+02</pdfrwt>
<pdfrwt beam="2">  1       21 0.40465293E-01 0.24612913E+02</pdfrwt>
<totfact> 0.66789715E+06</totfact>
</mgrwt>
</event>
<event>
 4    1  0.4578942E+006  0.3811886E+02  0.7546771E-02  0.1522529E+00
         21   -1    0    0  503  501  0.00000000000E+00  0.00000000000E+00  0.40067529593E+01  0.40067529593E+01  0.00000000000E+00 0. -1.
         21   -1    0    0  504  502 -0.00000000000E+00 -0.00000000000E+00 -0.37154299278E+03  0.37154299278E+03  0.00000000000E+00 0.  1.
         21    1    1    2  503  502  0.92267575981E+01 -0.36985326419E+02 -0.21281946603E+03  0.21620631940E+03  0.00000000000E+00 0. -1.
         21    1    1    2  504  501 -0.92267575981E+01  0.36985326419E+02 -0.15471677379E+03  0.15934342634E+03  0.00000000000E+00 0.  1.
<mgrwt>
<rscale>  2 0.38118859E+02</rscale>
<asrwt>0</asrwt>
<pdfrwt beam="1">  1       21 0.61642367E-03 0.38118859E+02</pdfrwt>
<pdfrwt beam="2">  1       21 0.57160448E-01 0.38118859E+02</pdfrwt>
<totfact> 0.19789204E+07</totfact>
</mgrwt>
</event>
<event>
 4    1  0.4578942E+006  0.2096222E+02  0.7546771E-02  0.1726844E+00
         21   -1    0    0  503  501  0.00000000000E+00  0.00000000000E+00  0.30576218200E+02  0.30576218200E+02  0.00000000000E+00 0.  1.
         21   -1    0    0  504  502 -0.00000000000E+00 -0.00000000000E+00 -0.16105791965E+02  0.16105791965E+02  0.00000000000E+00 0.  1.
         21    1    1    2  503  502 -0.19557537620E+02  0.75443603610E+01 -0.42492456810E+00  0.20966525986E+02  0.00000000000E+00 0.  1.
         21    1    1    2  504  501  0.19557537620E+02 -0.75443603610E+01  0.14895350803E+02  0.25715484179E+02  0.00000000000E+00 0.  1.
<mgrwt>
<rscale>  2 0.20962220E+02</rscale>
<asrwt>0</asrwt>
<pdfrwt beam="1">  1       21 0.47040335E-02 0.20962220E+02</pdfrwt>
<pdfrwt beam="2">  1       21 0.24778142E-02 0.20962220E+02</pdfrwt>
<totfact> 0.16507822E+08</totfact>
</mgrwt>
</event>
<event>
 4    1  0.4578942E+006  0.2148192E+02  0.7546771E-02  0.1717369E+00
         21   -1    0    0  503  501  0.00000000000E+00  0.00000000000E+00  0.50858322966E+01  0.50858322966E+01  0.00000000000E+00 0.  1.
         21   -1    0    0  504  502 -0.00000000000E+00 -0.00000000000E+00 -0.25498828647E+03  0.25498828647E+03  0.00000000000E+00 0.  1.
         21    1    1    2  503  502  0.21479826307E+02  0.30018718828E+00 -0.22931780520E+03  0.23032179409E+03  0.00000000000E+00 0.  1.
         21    1    1    2  504  501 -0.21479826307E+02 -0.30018718828E+00 -0.20584648981E+02  0.29752324685E+02  0.00000000000E+00 0.  1.
<mgrwt>
<rscale>  2 0.21481924E+02</rscale>
<asrwt>0</asrwt>
<pdfrwt beam="1">  1       21 0.78243573E-03 0.21481924E+02</pdfrwt>
<pdfrwt beam="2">  1       21 0.39228968E-01 0.21481924E+02</pdfrwt>
<totfact> 0.25926167E+07</totfact>
</mgrwt>
</event>
<event>
 4    1  0.4578942E+006  0.3384613E+02  0.7546771E-02  0.1559093E+00
         21   -1    0    0  503  501  0.00000000000E+00  0.00000000000E+00  0.27627103268E+01  0.27627103268E+01  0.00000000000E+00 0. -1.
         21   -1    0    0  504  502 -0.00000000000E+00 -0.00000000000E+00 -0.42470976445E+03  0.42470976445E+03  0.00000000000E+00 0. -1.
         21    1    1    2  503  502  0.33104729604E+02  0.70453939958E+01 -0.17808051969E+03  0.18126839822E+03  0.00000000000E+00 0. -1.
         21    1    1    2  504  501 -0.33104729604E+02 -0.70453939958E+01 -0.24386653444E+03  0.24620407656E+03  0.00000000000E+00 0. -1.
<mgrwt>
<rscale>  2 0.33846133E+02</rscale>
<asrwt>0</asrwt>
<pdfrwt beam="1">  1       21 0.42503257E-03 0.33846133E+02</pdfrwt>
<pdfrwt beam="2">  1       21 0.65339931E-01 0.33846133E+02</pdfrwt>
<totfact> 0.25789338E+07</totfact>
</mgrwt>
</event>
<event>
 4    1  0.4578942E+006  0.2536617E+02  0.7546771E-02  0.1655798E+00
         21   -1    0    0  503  501  0.00000000000E+00  0.00000000000E+00  0.12829261019E+01  0.12829261019E+01  0.00000000000E+00 0. -1.
         21   -1    0    0  504  502 -0.00000000000E+00 -0.00000000000E+00 -0.60003080327E+03  0.60003080327E+03  0.00000000000E+00 0. -1.
         21    1    1    2  503  502  0.25278487094E+02 -0.21072849117E+01 -0.42118189484E+03  0.42194505697E+03  0.00000000000E+00 0. -1.
         21    1    1    2  504  501 -0.25278487094E+02  0.21072849117E+01 -0.17756598233E+03  0.17936867240E+03  0.00000000000E+00 0. -1.
<mgrwt>
<rscale>  2 0.25366170E+02</rscale>
<asrwt>0</asrwt>
<pdfrwt beam="1">  1       21 0.19737328E-03 0.25366170E+02</pdfrwt>
<pdfrwt beam="2">  1       21 0.92312418E-01 0.25366170E+02</pdfrwt>
<totfact> 0.36398474E+07</totfact>
</mgrwt>
</event>
<event>
 4    1  0.4578942E+006  0.2500473E+02  0.7546771E-02  0.1660934E+00
         21   -1    0    0  504  501  0.00000000000E+00  0.00000000000E+00  0.42149988108E+02  0.42149988108E+02  0.00000000000E+00 0. -1.
         21   -1    0    0  503  502 -0.00000000000E+00 -0.00000000000E+00 -0.16539884371E+02  0.16539884371E+02  0.00000000000E+00 0. -1.
         21    1    1    2  503  501 -0.24953407589E+02  0.16012487742E+01  0.33798387372E+01  0.25232119567E+02  0.00000000000E+00 0. -1.
         21    1    1    2  504  502  0.24953407589E+02 -0.16012487742E+01  0.22230264999E+02  0.33457752912E+02  0.00000000000E+00 0. -1.
<mgrwt>
<rscale>  2 0.25004731E+02</rscale>
<asrwt>0</asrwt>
<pdfrwt beam="1">  1       21 0.64846135E-02 0.25004731E+02</pdfrwt>
<pdfrwt beam="2">  1       21 0.25445976E-02 0.25004731E+02</pdfrwt>
<totfact> 0.99886240E+07</totfact>
</mgrwt>
</event>
<event>
 4    1  0.4578942E+006  0.2912707E+02  0.7546771E-02  0.1607943E+00
         21   -1    0    0  504  501  0.00000000000E+00  0.00000000000E+00  0.19700928422E+01  0.19700928422E+01  0.00000000000E+00 0. -1.
         21   -1    0    0  503  502 -0.00000000000E+00 -0.00000000000E+00 -0.60947020468E+03  0.60947020468E+03  0.00000000000E+00 0. -1.
         21    1    1    2  503  501  0.91885287640E+01 -0.27639779462E+02 -0.46935644224E+03  0.47025935008E+03  0.00000000000E+00 0. -1.
         21    1    1    2  504  502 -0.91885287640E+01  0.27639779462E+02 -0.13814366960E+03  0.14118094744E+03  0.00000000000E+00 0. -1.
<mgrwt>
<rscale>  2 0.29127075E+02</rscale>
<asrwt>0</asrwt>
<pdfrwt beam="1">  1       21 0.30309069E-03 0.29127075E+02</pdfrwt>
<pdfrwt beam="2">  1       21 0.93764806E-01 0.29127075E+02</pdfrwt>
<totfact> 0.19297781E+07</totfact>
</mgrwt>
</event>
<event>
 4    1  0.4578942E+006  0.2222712E+02  0.7546771E-02  0.1704353E+00
         21   -1    0    0  504  501  0.00000000000E+00  0.00000000000E+00  0.36139090214E+03  0.36139090214E+03  0.00000000000E+00 0.  1.
         21   -1    0    0  503  502 -0.00000000000E+00 -0.00000000000E+00 -0.17432457641E+01  0.17432457641E+01  0.00000000000E+00 0.  1.
         21    1    1    2  503  501  0.88390387745E+01 -0.20394029466E+02  0.95479521436E+02  0.98032566314E+02  0.00000000000E+00 0.  1.
         21    1    1    2  504  502 -0.88390387745E+01  0.20394029466E+02  0.26416813494E+03  0.26510158159E+03  0.00000000000E+00 0.  1.
<mgrwt>
<rscale>  2 0.22227124E+02</rscale>
<asrwt>0</asrwt>
<pdfrwt beam="1">  1       21 0.55598541E-01 0.22227124E+02</pdfrwt>
<pdfrwt beam="2">  1       21 0.26819194E-03 0.22227124E+02</pdfrwt>
<totfact> 0.64495645E+07</totfact>
</mgrwt>
</event>
<event>
 4    1  0.4578942E+006  0.2224122E+02  0.7546771E-02  0.1704113E+00
         21   -1    0    0  504  501  0.00000000000E+00  0.00000000000E+00  0.17949115211E+02  0.17949115211E+02  0.00000000000E+00 0. -1.
         21   -1    0    0  503  502 -0.00000000000E+00 -0.00000000000E+00 -0.29030494013E+02  0.29030494013E+02  0.00000000000E+00 0. -1.
         21    1    1    2  503  501 -0.15909051248E+02 -0.15542642492E+02 -0.25340203333E+00  0.22242658560E+02  0.00000000000E+00 0. -1.
         21    1    1    2  504  502  0.15909051248E+02  0.15542642492E+02 -0.10827976769E+02  0.24736950664E+02  0.00000000000E+00 0. -1.
<mgrwt>
<rscale>  2 0.22241215E+02</rscale>
<asrwt>0</asrwt>
<pdfrwt beam="1">  1       21 0.27614023E-02 0.22241215E+02</pdfrwt>
<pdfrwt beam="2">  1       21 0.44662298E-02 0.22241215E+02</pdfrwt>
<totfact> 0.15437940E+08</totfact>
</mgrwt>
</event>
<event>
 4    1  0.4578942E+006  0.2545985E+02  0.7546771E-02  0.1654483E+00
         21   -1    0    0  503  501  0.00000000000E+00  0.00000000000E+00  0.25448808576E+03  0.25448808576E+03  0.00000000000E+00 0.  1.
         21   -1    0    0  504  502 -0.00000000000E+00 -0.00000000000E+00 -0.29921985148E+01  0.29921985148E+01  0.00000000000E+00 0.  1.
         21    1    1    2  503  502  0.32198549988E+01 -0.25255429687E+02  0.17540162719E+03  0.17723976703E+03  0.00000000000E+00 0.  1.
         21    1    1    2  504  501 -0.32198549988E+01  0.25255429687E+02  0.76094260056E+02  0.80240517249E+02  0.00000000000E+00 0.  1.
<mgrwt>
<rscale>  2 0.25459855E+02</rscale>
<asrwt>0</asrwt>
<pdfrwt beam="1">  1       21 0.39151996E-01 0.25459855E+02</pdfrwt>
<pdfrwt beam="2">  1       21 0.46033843E-03 0.25459855E+02</pdfrwt>
<totfact> 0.59394320E+07</totfact>
</mgrwt>
</event>
<event>
 4    1  0.4578942E+006  0.4129103E+02  0.7546771E-02  0.1498920E+00
         21   -1    0    0  502  501  0.00000000000E+00  0.00000000000E+00  0.95682909146E+02  0.95682909146E+02  0.00000000000E+00 0. -1.
         21   -1    0    0  503  502 -0.00000000000E+00 -0.00000000000E+00 -0.12359147022E+03  0.12359147022E+03  0.00000000000E+00 0. -1.
         21    1    1    2  503  504  0.41257084002E+02 -0.16739083539E+01 -0.11538056150E+03  0.12254641130E+03  0.00000000000E+00 0. -1.
         21    1    1    2  504  501 -0.41257084002E+02  0.16739083539E+01  0.87472000423E+02  0.96727968073E+02  0.00000000000E+00 0. -1.
<mgrwt>
<rscale>  2 0.41291027E+02</rscale>
<asrwt>0</asrwt>
<pdfrwt beam="1">  1       21 0.14720448E-01 0.41291027E+02</pdfrwt>
<pdfrwt beam="2">  1       21 0.19014072E-01 0.41291027E+02</pdfrwt>
<totfact> 0.99666392E+05</totfact>
</mgrwt>
</event>
<event>
 4    1  0.4578942E+006  0.5108016E+02  0.7546771E-02  0.1439601E+00
         21   -1    0    0  504  501  0.00000000000E+00  0.00000000000E+00  0.40139345504E+02  0.40139345504E+02  0.00000000000E+00 0.  1.
         21   -1    0    0  503  502 -0.00000000000E+00 -0.00000000000E+00 -0.81447492268E+02  0.81447492268E+02  0.00000000000E+00 0.  1.
         21    1    1    2  503  501 -0.35827873039E+02 -0.36408058266E+02  0.66624983859E+01  0.51512834109E+02  0.00000000000E+00 0.  1.
         21    1    1    2  504  502  0.35827873039E+02  0.36408058266E+02 -0.47970645150E+02  0.70074003663E+02  0.00000000000E+00 0.  1.
<mgrwt>
<rscale>  2 0.51080164E+02</rscale>
<asrwt>0</asrwt>
<pdfrwt beam="1">  1       21 0.61752840E-02 0.51080164E+02</pdfrwt>
<pdfrwt beam="2">  1       21 0.12530383E-01 0.51080164E+02</pdfrwt>
<totfact> 0.91809443E+06</totfact>
</mgrwt>
</event>
<event>
 4    1  0.4578942E+006  0.3164408E+02  0.7546771E-02  0.1580595E+00
         21   -1    0    0  504  501  0.00000000000E+00  0.00000000000E+00  0.21332119706E+02  0.21332119706E+02  0.00000000000E+00 0.  1.
         21   -1    0    0  503  502 -0.00000000000E+00 -0.00000000000E+00 -0.54309480489E+02  0.54309480489E+02  0.00000000000E+00 0.  1.
         21    1    1    2  503  501 -0.89462420511E+01 -0.30353135216E+02 -0.30419797895E+02  0.43894329569E+02  0.00000000000E+00 0.  1.
         21    1    1    2  504  502  0.89462420511E+01  0.30353135216E+02 -0.25575628877E+01  0.31747270626E+02  0.00000000000E+00 0.  1.
<mgrwt>
<rscale>  2 0.31644084E+02</rscale>
<asrwt>0</asrwt>
<pdfrwt beam="1">  1       21 0.32818646E-02 0.31644084E+02</pdfrwt>
<pdfrwt beam="2">  1       21 0.83553046E-02 0.31644084E+02</pdfrwt>
<totfact> 0.46865789E+07</totfact>
</mgrwt>
</event>
<event>
 4    1  0.4578942E+006  0.3036037E+02  0.7546771E-02  0.1594139E+00
         21   -1    0    0  502  501  0.00000000000E+00  0.00000000000E+00  0.11333684687E+04  0.11333684687E+04  0.00000000000E+00 0. -1.
         21   -1    0    0  504  502 -0.00000000000E+00 -0.00000000000E+00 -0.22901837803E+01  0.22901837803E+01  0.00000000000E+00 0. -1.
         21    1    1    2  503  501 -0.30355752467E+02 -0.52963504344E+00  0.10215318878E+04  0.10219829500E+04  0.00000000000E+00 0. -1.
         21    1    1    2  504  503  0.30355752467E+02  0.52963504344E+00  0.10954639712E+03  0.11367570252E+03  0.00000000000E+00 0. -1.
<mgrwt>
<rscale>  2 0.30360373E+02</rscale>
<asrwt>0</asrwt>
<pdfrwt beam="1">  1       21 0.17436393E+00 0.30360373E+02</pdfrwt>
<pdfrwt beam="2">  1       21 0.35233687E-03 0.30360373E+02</pdfrwt>
<totfact> 0.36579827E+06</totfact>
</mgrwt>
</event>
<event>
 4    1  0.4578942E+006  0.4379004E+02  0.7546771E-02  0.1482040E+00
         21   -1    0    0  504  501  0.00000000000E+00  0.00000000000E+00  0.88536222961E+03  0.88536222961E+03  0.00000000000E+00 0. -1.
         21   -1    0    0  503  502 -0.00000000000E+00 -0.00000000000E+00 -0.86176052946E+01  0.86176052946E+01  0.00000000000E+00 0. -1.
         21    1    1    2  503  501 -0.29836309161E+02 -0.32052492853E+02  0.82513373436E+03  0.82629489120E+03  0.00000000000E+00 0. -1.
         21    1    1    2  504  502  0.29836309161E+02  0.32052492853E+02  0.51610889954E+02  0.67684943704E+02  0.00000000000E+00 0. -1.
<mgrwt>
<rscale>  2 0.43790040E+02</rscale>
<asrwt>0</asrwt>
<pdfrwt beam="1">  1       21 0.13620950E+00 0.43790040E+02</pdfrwt>
<pdfrwt beam="2">  1       21 0.13257861E-02 0.43790040E+02</pdfrwt>
<totfact> 0.92449123E+05</totfact>
</mgrwt>
</event>
<event>
 4    1  0.4578942E+006  0.2386562E+02  0.7546771E-02  0.1677851E+00
         21   -1    0    0  503  501  0.00000000000E+00  0.00000000000E+00  0.80383328265E+03  0.80383328265E+03  0.00000000000E+00 0.  1.
         21   -1    0    0  504  502 -0.00000000000E+00 -0.00000000000E+00 -0.75695599114E+01  0.75695599114E+01  0.00000000000E+00 0. -1.
         21    1    1    2  503  502  0.40893713526E+01 -0.23512650864E+02  0.78437855876E+03  0.78474154418E+03  0.00000000000E+00 0.  1.
         21    1    1    2  504  501 -0.40893713526E+01  0.23512650864E+02  0.11885163970E+02  0.26661298380E+02  0.00000000000E+00 0. -1.
<mgrwt>
<rscale>  2 0.23865618E+02</rscale>
<asrwt>0</asrwt>
<pdfrwt beam="1">  1       21 0.12366659E+00 0.23865618E+02</pdfrwt>
<pdfrwt beam="2">  1       21 0.11645483E-02 0.23865618E+02</pdfrwt>
<totfact> 0.13680399E+06</totfact>
</mgrwt>
</event>
<event>
 4    1  0.4578942E+006  0.2302910E+02  0.7546771E-02  0.1691039E+00
         21   -1    0    0  502  501  0.00000000000E+00  0.00000000000E+00  0.25234258936E+01  0.25234258936E+01  0.00000000000E+00 0.  1.
         21   -1    0    0  504  502 -0.00000000000E+00 -0.00000000000E+00 -0.21778595171E+03  0.21778595171E+03  0.00000000000E+00 0.  1.
         21    1    1    2  503  501 -0.21395526893E+01  0.22929498179E+02 -0.87027331574E+02  0.90022752754E+02  0.00000000000E+00 0.  1.
         21    1    1    2  504  503  0.21395526893E+01 -0.22929498179E+02 -0.12823519424E+03  0.13028662485E+03  0.00000000000E+00 0.  1.
<mgrwt>
<rscale>  2 0.23029103E+02</rscale>
<asrwt>0</asrwt>
<pdfrwt beam="1">  1       21 0.38821918E-03 0.23029103E+02</pdfrwt>
<pdfrwt beam="2">  1       21 0.33505547E-01 0.23029103E+02</pdfrwt>
<totfact> 0.99517179E+07</totfact>
</mgrwt>
</event>
<event>
 4    1  0.4578942E+006  0.3208009E+02  0.7546771E-02  0.1576172E+00
         21   -1    0    0  504  501  0.00000000000E+00  0.00000000000E+00  0.13871558187E+03  0.13871558187E+03  0.00000000000E+00 0. -1.
         21   -1    0    0  503  502 -0.00000000000E+00 -0.00000000000E+00 -0.99930065283E+01  0.99930065283E+01  0.00000000000E+00 0.  1.
         21    1    1    2  503  501  0.19199236308E+02 -0.25700610905E+02  0.26624747658E+02  0.41689438274E+02  0.00000000000E+00 0.  1.
         21    1    1    2  504  502 -0.19199236308E+02  0.25700610905E+02  0.10209782768E+03  0.10701915012E+03  0.00000000000E+00 0. -1.
<mgrwt>
<rscale>  2 0.32080088E+02</rscale>
<asrwt>0</asrwt>
<pdfrwt beam="1">  1       21 0.21340857E-01 0.32080088E+02</pdfrwt>
<pdfrwt beam="2">  1       21 0.15373857E-02 0.32080088E+02</pdfrwt>
<totfact> 0.30770696E+07</totfact>
</mgrwt>
</event>
<event>
 4    1  0.4578942E+006  0.2574402E+02  0.7546771E-02  0.1650540E+00
         21   -1    0    0  504  501  0.00000000000E+00  0.00000000000E+00  0.21125841969E+02  0.21125841969E+02  0.00000000000E+00 0.  1.
         21   -1    0    0  503  502 -0.00000000000E+00 -0.00000000000E+00 -0.62632626483E+02  0.62632626483E+02  0.00000000000E+00 0.  1.
         21    1    1    2  503  501 -0.25741564192E+02  0.35523982454E+00  0.88334827582E+01  0.27217361004E+02  0.00000000000E+00 0.  1.
         21    1    1    2  504  502  0.25741564192E+02 -0.35523982454E+00 -0.50340267272E+02  0.56541107448E+02  0.00000000000E+00 0.  1.
<mgrwt>
<rscale>  2 0.25744015E+02</rscale>
<asrwt>0</asrwt>
<pdfrwt beam="1">  1       21 0.32501296E-02 0.25744015E+02</pdfrwt>
<pdfrwt beam="2">  1       21 0.96357886E-02 0.25744015E+02</pdfrwt>
<totfact> 0.35901973E+07</totfact>
</mgrwt>
</event>
<event>
 4    1  0.4578942E+006  0.2098725E+02  0.7546771E-02  0.1726379E+00
         21   -1    0    0  503  501  0.00000000000E+00  0.00000000000E+00  0.83236637573E+02  0.83236637573E+02  0.00000000000E+00 0. -1.
         21   -1    0    0  501  502 -0.00000000000E+00 -0.00000000000E+00 -0.72468244794E+02  0.72468244794E+02  0.00000000000E+00 0.  1.
         21    1    1    2  503  504 -0.14983745857E+02  0.14695310814E+02  0.80340323192E+02  0.83036331388E+02  0.00000000000E+00 0. -1.
         21    1    1    2  504  502  0.14983745857E+02 -0.14695310814E+02 -0.69571930413E+02  0.72668550978E+02  0.00000000000E+00 0.  1.
<mgrwt>
<rscale>  2 0.20987253E+02</rscale>
<asrwt>0</asrwt>
<pdfrwt beam="1">  1       21 0.12805637E-01 0.20987253E+02</pdfrwt>
<pdfrwt beam="2">  1       21 0.11148961E-01 0.20987253E+02</pdfrwt>
<totfact> 0.29555782E+06</totfact>
</mgrwt>
</event>
<event>
 4    1  0.4578942E+006  0.2001277E+02  0.7546771E-02  0.1745074E+00
         21   -1    0    0  503  501  0.00000000000E+00  0.00000000000E+00  0.46330495501E+01  0.46330495501E+01  0.00000000000E+00 0.  1.
         21   -1    0    0  501  502 -0.00000000000E+00 -0.00000000000E+00 -0.92939515049E+02  0.92939515049E+02  0.00000000000E+00 0.  1.
         21    1    1    2  503  504  0.15398781548E+02 -0.12782350643E+02 -0.31258260365E+02  0.37115896893E+02  0.00000000000E+00 0.  1.
         21    1    1    2  504  502 -0.15398781548E+02  0.12782350643E+02 -0.57048205134E+02  0.60456667706E+02  0.00000000000E+00 0.  1.
<mgrwt>
<rscale>  2 0.20012770E+02</rscale>
<asrwt>0</asrwt>
<pdfrwt beam="1">  1       21 0.71277681E-03 0.20012770E+02</pdfrwt>
<pdfrwt beam="2">  1       21 0.14298388E-01 0.20012770E+02</pdfrwt>
<totfact> 0.17434254E+08</totfact>
</mgrwt>
</event>
<event>
 4    1  0.4578942E+006  0.2577794E+02  0.7546771E-02  0.1650073E+00
         21   -1    0    0  504  501  0.00000000000E+00  0.00000000000E+00  0.67526761789E+01  0.67526761789E+01  0.00000000000E+00 0.  1.
         21   -1    0    0  503  502 -0.00000000000E+00 -0.00000000000E+00 -0.23190226991E+03  0.23190226991E+03  0.00000000000E+00 0.  1.
         21    1    1    2  503  501  0.17439940073E+02  0.18982902815E+02 -0.22038457792E+02  0.33914535687E+02  0.00000000000E+00 0.  1.
         21    1    1    2  504  502 -0.17439940073E+02 -0.18982902815E+02 -0.20311113594E+03  0.20474041040E+03  0.00000000000E+00 0.  1.
<mgrwt>
<rscale>  2 0.25777938E+02</rscale>
<asrwt>0</asrwt>
<pdfrwt beam="1">  1       21 0.10388733E-02 0.25777938E+02</pdfrwt>
<pdfrwt beam="2">  1       21 0.35677270E-01 0.25777938E+02</pdfrwt>
<totfact> 0.21035092E+07</totfact>
</mgrwt>
</event>
<event>
 4    1  0.4578942E+006  0.2293910E+02  0.7546771E-02  0.1692499E+00
         21   -1    0    0  502  501  0.00000000000E+00  0.00000000000E+00  0.12202324887E+03  0.12202324887E+03  0.00000000000E+00 0. -1.
         21   -1    0    0  504  502 -0.00000000000E+00 -0.00000000000E+00 -0.16931128114E+02  0.16931128114E+02  0.00000000000E+00 0.  1.
         21    1    1    2  503  501  0.19787492557E+02 -0.11604207078E+02  0.11252635167E+03  0.11484068227E+03  0.00000000000E+00 0. -1.
         21    1    1    2  504  503 -0.19787492557E+02  0.11604207078E+02 -0.74342309139E+01  0.24113694717E+02  0.00000000000E+00 0.  1.
<mgrwt>
<rscale>  2 0.22939104E+02</rscale>
<asrwt>0</asrwt>
<pdfrwt beam="1">  1       21 0.18772807E-01 0.22939104E+02</pdfrwt>
<pdfrwt beam="2">  1       21 0.26047890E-02 0.22939104E+02</pdfrwt>
<totfact> 0.15975248E+07</totfact>
</mgrwt>
</event>
<event>
 4    1  0.4578942E+006  0.2128728E+02  0.7546771E-02  0.1720878E+00
         21   -1    0    0  502  501  0.00000000000E+00  0.00000000000E+00  0.36151969701E+02  0.36151969701E+02  0.00000000000E+00 0. -1.
         21   -1    0    0  504  502 -0.00000000000E+00 -0.00000000000E+00 -0.22475023085E+02  0.22475023085E+02  0.00000000000E+00 0. -1.
         21    1    1    2  503  501 -0.12528905987E+01  0.21250375350E+02  0.26333389331E+02  0.33861417292E+02  0.00000000000E+00 0. -1.
         21    1    1    2  504  503  0.12528905987E+01 -0.21250375350E+02 -0.12656442714E+02  0.24765575494E+02  0.00000000000E+00 0. -1.
<mgrwt>
<rscale>  2 0.21287278E+02</rscale>
<asrwt>0</asrwt>
<pdfrwt beam="1">  1       21 0.55618415E-02 0.21287278E+02</pdfrwt>
<pdfrwt beam="2">  1       21 0.34576958E-02 0.21287278E+02</pdfrwt>
<totfact> 0.75809718E+07</totfact>
</mgrwt>
</event>
<event>
 4    1  0.4578942E+006  0.5350000E+02  0.7546771E-02  0.1427329E+00
         21   -1    0    0  504  501  0.00000000000E+00  0.00000000000E+00  0.17233467354E+03  0.17233467354E+03  0.00000000000E+00 0. -1.
         21   -1    0    0  501  502 -0.00000000000E+00 -0.00000000000E+00 -0.30450797689E+02  0.30450797689E+02  0.00000000000E+00 0. -1.
         21    1    1    2  503  502  0.52319266447E+02  0.11177852360E+02  0.25808600602E+01  0.53562214886E+02  0.00000000000E+00 0. -1.
         21    1    1    2  504  503 -0.52319266447E+02 -0.11177852360E+02  0.13930301580E+03  0.14922325635E+03  0.00000000000E+00 0. -1.
<mgrwt>
<rscale>  2 0.53500000E+02</rscale>
<asrwt>0</asrwt>
<pdfrwt beam="1">  1       21 0.26513026E-01 0.53500000E+02</pdfrwt>
<pdfrwt beam="2">  1       21 0.46847382E-02 0.53500000E+02</pdfrwt>
<totfact> 0.38061853E+06</totfact>
</mgrwt>
</event>
<event>
 4    1  0.4578942E+006  0.2238907E+02  0.7546771E-02  0.1701609E+00
         21   -1    0    0  502  501  0.00000000000E+00  0.00000000000E+00  0.31656240100E+03  0.31656240100E+03  0.00000000000E+00 0.  1.
         21   -1    0    0  503  502 -0.00000000000E+00 -0.00000000000E+00 -0.30624531262E+02  0.30624531262E+02  0.00000000000E+00 0.  1.
         21    1    1    2  503  504  0.24420737732E+00  0.22387735701E+02 -0.26077031972E+02  0.34369782418E+02  0.00000000000E+00 0.  1.
         21    1    1    2  504  501 -0.24420737732E+00 -0.22387735701E+02  0.31201490171E+03  0.31281714984E+03  0.00000000000E+00 0.  1.
<mgrwt>
<rscale>  2 0.22389068E+02</rscale>
<asrwt>0</asrwt>
<pdfrwt beam="1">  1       21 0.48701906E-01 0.22389068E+02</pdfrwt>
<pdfrwt beam="2">  1       21 0.47114666E-02 0.22389068E+02</pdfrwt>
<totfact> 0.11049449E+06</totfact>
</mgrwt>
</event>
<event>
 4    1  0.4578942E+006  0.2698841E+02  0.7546771E-02  0.1633982E+00
         21   -1    0    0  503  501  0.00000000000E+00  0.00000000000E+00  0.33489257734E+02  0.33489257734E+02  0.00000000000E+00 0.  1.
         21   -1    0    0  504  502 -0.00000000000E+00 -0.00000000000E+00 -0.63277510829E+02  0.63277510829E+02  0.00000000000E+00 0.  1.
         21    1    1    2  503  502 -0.23942964850E+02 -0.12454255878E+02 -0.54090167315E+02  0.60449319727E+02  0.00000000000E+00 0.  1.
         21    1    1    2  504  501  0.23942964850E+02  0.12454255878E+02  0.24301914220E+02  0.36317448837E+02  0.00000000000E+00 0.  1.
<mgrwt>
<rscale>  2 0.26988406E+02</rscale>
<asrwt>0</asrwt>
<pdfrwt beam="1">  1       21 0.51521935E-02 0.26988406E+02</pdfrwt>
<pdfrwt beam="2">  1       21 0.97350016E-02 0.26988406E+02</pdfrwt>
<totfact> 0.17167147E+07</totfact>
</mgrwt>
</event>
<event>
 4    1  0.4578942E+006  0.2686205E+02  0.7546771E-02  0.1635612E+00
         21   -1    0    0  503  501  0.00000000000E+00  0.00000000000E+00  0.10334198181E+02  0.10334198181E+02  0.00000000000E+00 0.  1.
         21   -1    0    0  501  502 -0.00000000000E+00 -0.00000000000E+00 -0.16077708049E+03  0.16077708049E+03  0.00000000000E+00 0.  1.
         21    1    1    2  503  504 -0.15283218203E+02  0.22090565936E+02 -0.10871748385E+02  0.28978695191E+02  0.00000000000E+00 0.  1.
         21    1    1    2  504  502  0.15283218203E+02 -0.22090565936E+02 -0.13957113392E+03  0.14213258348E+03  0.00000000000E+00 0.  1.
<mgrwt>
<rscale>  2 0.26862052E+02</rscale>
<asrwt>0</asrwt>
<pdfrwt beam="1">  1       21 0.15898769E-02 0.26862052E+02</pdfrwt>
<pdfrwt beam="2">  1       21 0.24734931E-01 0.26862052E+02</pdfrwt>
<totfact> 0.21691722E+07</totfact>
</mgrwt>
</event>
<event>
 4    1  0.4578942E+006  0.2226087E+02  0.7546771E-02  0.1703779E+00
         21   -1    0    0  503  501  0.00000000000E+00  0.00000000000E+00  0.23637510550E+01  0.23637510550E+01  0.00000000000E+00 0.  1.
         21   -1    0    0  504  502 -0.00000000000E+00 -0.00000000000E+00 -0.23592530265E+03  0.23592530265E+03  0.00000000000E+00 0.  1.
         21    1    1    2  503  502 -0.64317462780E+01 -0.21311472792E+02 -0.15654662464E+03  0.15812144674E+03  0.00000000000E+00 0.  1.
         21    1    1    2  504  501  0.64317462780E+01  0.21311472792E+02 -0.77014926959E+02  0.80167606970E+02  0.00000000000E+00 0.  1.
<mgrwt>
<rscale>  2 0.22260868E+02</rscale>
<asrwt>0</asrwt>
<pdfrwt beam="1">  1       21 0.36365395E-03 0.22260868E+02</pdfrwt>
<pdfrwt beam="2">  1       21 0.36296206E-01 0.22260868E+02</pdfrwt>
<totfact> 0.93594037E+07</totfact>
</mgrwt>
</event>
<event>
 4    1  0.4578942E+006  0.2491954E+02  0.7546771E-02  0.1662160E+00
         21   -1    0    0  504  501  0.00000000000E+00  0.00000000000E+00  0.15079900897E+03  0.15079900897E+03  0.00000000000E+00 0. -1.
         21   -1    0    0  503  502 -0.00000000000E+00 -0.00000000000E+00 -0.10535396190E+02  0.10535396190E+02  0.00000000000E+00 0. -1.
         21    1    1    2  503  501  0.24689949510E+02  0.33748864156E+01  0.71735742803E+01  0.25931518141E+02  0.00000000000E+00 0. -1.
         21    1    1    2  504  502 -0.24689949510E+02 -0.33748864156E+01  0.13309003850E+03  0.13540288702E+03  0.00000000000E+00 0. -1.
<mgrwt>
<rscale>  2 0.24919540E+02</rscale>
<asrwt>0</asrwt>
<pdfrwt beam="1">  1       21 0.23199846E-01 0.24919540E+02</pdfrwt>
<pdfrwt beam="2">  1       21 0.16208303E-02 0.24919540E+02</pdfrwt>
<totfact> 0.23258728E+07</totfact>
</mgrwt>
</event>
<event>
 4    1  0.4578942E+006  0.2471605E+02  0.7546771E-02  0.1665114E+00
         21   -1    0    0  504  501  0.00000000000E+00  0.00000000000E+00  0.42101055806E+02  0.42101055806E+02  0.00000000000E+00 0.  1.
         21   -1    0    0  503  502 -0.00000000000E+00 -0.00000000000E+00 -0.10321236707E+03  0.10321236707E+03  0.00000000000E+00 0. -1.
         21    1    1    2  503  501  0.15921820563E+02 -0.18904466239E+02  0.36800556066E+02  0.44330171899E+02  0.00000000000E+00 0.  1.
         21    1    1    2  504  502 -0.15921820563E+02  0.18904466239E+02 -0.97911867329E+02  0.10098325098E+03  0.00000000000E+00 0. -1.
<mgrwt>
<rscale>  2 0.24716052E+02</rscale>
<asrwt>0</asrwt>
<pdfrwt beam="1">  1       21 0.64770855E-02 0.24716052E+02</pdfrwt>
<pdfrwt beam="2">  1       21 0.15878826E-01 0.24716052E+02</pdfrwt>
<totfact> 0.51223758E+06</totfact>
</mgrwt>
</event>
<event>
 4    1  0.4578942E+006  0.6539280E+02  0.7546771E-02  0.1376500E+00
         21   -1    0    0  502  501  0.00000000000E+00  0.00000000000E+00  0.89959531106E+02  0.89959531106E+02  0.00000000000E+00 0.  1.
         21   -1    0    0  503  502 -0.00000000000E+00 -0.00000000000E+00 -0.16568925482E+03  0.16568925482E+03  0.00000000000E+00 0. -1.
         21    1    1    2  503  504  0.14127052319E+02 -0.63848605609E+02 -0.14580709986E+03  0.15979965086E+03  0.00000000000E+00 0. -1.
         21    1    1    2  504  501 -0.14127052319E+02  0.63848605609E+02  0.70077376145E+02  0.95849135066E+02  0.00000000000E+00 0.  1.
<mgrwt>
<rscale>  2 0.65392798E+02</rscale>
<asrwt>0</asrwt>
<pdfrwt beam="1">  1       21 0.13839928E-01 0.65392798E+02</pdfrwt>
<pdfrwt beam="2">  1       21 0.25490654E-01 0.65392798E+02</pdfrwt>
<totfact> 0.66258464E+05</totfact>
</mgrwt>
</event>
<event>
 4    1  0.4578942E+006  0.2216558E+02  0.7546771E-02  0.1705404E+00
         21   -1    0    0  504  501  0.00000000000E+00  0.00000000000E+00  0.25318134938E+01  0.25318134938E+01  0.00000000000E+00 0.  1.
         21   -1    0    0  501  502 -0.00000000000E+00 -0.00000000000E+00 -0.16767712514E+04  0.16767712514E+04  0.00000000000E+00 0.  1.
         21    1    1    2  503  502 -0.24424132742E+01  0.22030609346E+02 -0.16266905208E+04  0.16268415299E+04  0.00000000000E+00 0.  1.
         21    1    1    2  504  503  0.24424132742E+01 -0.22030609346E+02 -0.47548917183E+02  0.52461535014E+02  0.00000000000E+00 0.  1.
<mgrwt>
<rscale>  2 0.22165584E+02</rscale>
<asrwt>0</asrwt>
<pdfrwt beam="1">  1       21 0.38951106E-03 0.22165584E+02</pdfrwt>
<pdfrwt beam="2">  1       21 0.25796395E+00 0.22165584E+02</pdfrwt>
<totfact> 0.10914395E+06</totfact>
</mgrwt>
</event>
<event>
 4    1  0.4578942E+006  0.3669412E+02  0.7546771E-02  0.1534051E+00
         21   -1    0    0  502  501  0.00000000000E+00  0.00000000000E+00  0.20893550247E+03  0.20893550247E+03  0.00000000000E+00 0.  1.
         21   -1    0    0  503  502 -0.00000000000E+00 -0.00000000000E+00 -0.41867390636E+03  0.41867390636E+03  0.00000000000E+00 0.  1.
         21    1    1    2  503  504  0.34447720899E+02  0.12641715601E+02 -0.41624944534E+03  0.41786368494E+03  0.00000000000E+00 0.  1.
         21    1    1    2  504  501 -0.34447720899E+02 -0.12641715601E+02  0.20651104145E+03  0.20974572389E+03  0.00000000000E+00 0.  1.
<mgrwt>
<rscale>  2 0.36694120E+02</rscale>
<asrwt>0</asrwt>
<pdfrwt beam="1">  1       21 0.32143924E-01 0.36694120E+02</pdfrwt>
<pdfrwt beam="2">  1       21 0.64411370E-01 0.36694120E+02</pdfrwt>
<totfact> 0.24091158E+04</totfact>
</mgrwt>
</event>
<event>
 4    1  0.4578942E+006  0.2128334E+02  0.7546771E-02  0.1720949E+00
         21   -1    0    0  502  501  0.00000000000E+00  0.00000000000E+00  0.47348964537E+02  0.47348964537E+02  0.00000000000E+00 0.  1.
         21   -1    0    0  503  502 -0.00000000000E+00 -0.00000000000E+00 -0.65537782017E+02  0.65537782017E+02  0.00000000000E+00 0. -1.
         21    1    1    2  503  504 -0.11445228826E+02  0.17944005328E+02 -0.61255701746E+02  0.64847834092E+02  0.00000000000E+00 0. -1.
         21    1    1    2  504  501  0.11445228826E+02 -0.17944005328E+02  0.43066884266E+02  0.48038912461E+02  0.00000000000E+00 0.  1.
<mgrwt>
<rscale>  2 0.21283341E+02</rscale>
<asrwt>0</asrwt>
<pdfrwt beam="1">  1       21 0.72844561E-02 0.21283341E+02</pdfrwt>
<pdfrwt beam="2">  1       21 0.10082736E-01 0.21283341E+02</pdfrwt>
<totfact> 0.88511999E+06</totfact>
</mgrwt>
</event>
<event>
 4    1  0.4578942E+006  0.2233487E+02  0.7546771E-02  0.1702524E+00
         21   -1    0    0  502  501  0.00000000000E+00  0.00000000000E+00  0.91257652267E+01  0.91257652267E+01  0.00000000000E+00 0. -1.
         21   -1    0    0  503  502 -0.00000000000E+00 -0.00000000000E+00 -0.70023904328E+02  0.70023904328E+02  0.00000000000E+00 0. -1.
         21    1    1    2  503  504 -0.18091593917E+02  0.13097349992E+02 -0.48984264130E+02  0.53835903259E+02  0.00000000000E+00 0. -1.
         21    1    1    2  504  501  0.18091593917E+02 -0.13097349992E+02 -0.11913874971E+02  0.25313766296E+02  0.00000000000E+00 0. -1.
<mgrwt>
<rscale>  2 0.22334868E+02</rscale>
<asrwt>0</asrwt>
<pdfrwt beam="1">  1       21 0.14039639E-02 0.22334868E+02</pdfrwt>
<pdfrwt beam="2">  1       21 0.10772908E-01 0.22334868E+02</pdfrwt>
<totfact> 0.10483739E+08</totfact>
</mgrwt>
</event>
<event>
 4    1  0.4578942E+006  0.2265601E+02  0.7546771E-02  0.1697147E+00
         21   -1    0    0  504  501  0.00000000000E+00  0.00000000000E+00  0.49339993701E+03  0.49339993701E+03  0.00000000000E+00 0. -1.
         21   -1    0    0  503  502 -0.00000000000E+00 -0.00000000000E+00 -0.26945315357E+02  0.26945315357E+02  0.00000000000E+00 0. -1.
         21    1    1    2  503  501  0.41865685197E+00  0.22652143498E+02  0.48832804401E+03  0.48885332508E+03  0.00000000000E+00 0. -1.
         21    1    1    2  504  502 -0.41865685197E+00 -0.22652143498E+02 -0.21873422355E+02  0.31491927285E+02  0.00000000000E+00 0. -1.
<mgrwt>
<rscale>  2 0.22656012E+02</rscale>
<asrwt>0</asrwt>
<pdfrwt beam="1">  1       21 0.75907676E-01 0.22656012E+02</pdfrwt>
<pdfrwt beam="2">  1       21 0.41454335E-02 0.22656012E+02</pdfrwt>
<totfact> 0.55677325E+05</totfact>
</mgrwt>
</event>
<event>
 4    1  0.4578942E+006  0.2057703E+02  0.7546771E-02  0.1734091E+00
         21   -1    0    0  504  501  0.00000000000E+00  0.00000000000E+00  0.63135329951E+03  0.63135329951E+03  0.00000000000E+00 0.  1.
         21   -1    0    0  503  502 -0.00000000000E+00 -0.00000000000E+00 -0.10863927766E+01  0.10863927766E+01  0.00000000000E+00 0.  1.
         21    1    1    2  503  501 -0.19211140283E+02 -0.73720009044E+01  0.11951476348E+03  0.12127321632E+03  0.00000000000E+00 0.  1.
         21    1    1    2  504  502  0.19211140283E+02  0.73720009044E+01  0.51075214326E+03  0.51116647597E+03  0.00000000000E+00 0.  1.
<mgrwt>
<rscale>  2 0.20577034E+02</rscale>
<asrwt>0</asrwt>
<pdfrwt beam="1">  1       21 0.97130984E-01 0.20577034E+02</pdfrwt>
<pdfrwt beam="2">  1       21 0.16713785E-03 0.20577034E+02</pdfrwt>
<totfact> 0.39639619E+07</totfact>
</mgrwt>
</event>
<event>
 4    1  0.4578942E+006  0.3266229E+02  0.7546771E-02  0.1570397E+00
         21   -1    0    0  504  501  0.00000000000E+00  0.00000000000E+00  0.22224808404E+02  0.22224808404E+02  0.00000000000E+00 0. -1.
         21   -1    0    0  503  502 -0.00000000000E+00 -0.00000000000E+00 -0.54851887708E+02  0.54851887708E+02  0.00000000000E+00 0. -1.
         21    1    1    2  503  501  0.26522004371E+02 -0.19063273939E+02 -0.26942808887E+01  0.32773225027E+02  0.00000000000E+00 0. -1.
         21    1    1    2  504  502 -0.26522004371E+02  0.19063273939E+02 -0.29932798416E+02  0.44303471085E+02  0.00000000000E+00 0. -1.
<mgrwt>
<rscale>  2 0.32662289E+02</rscale>
<asrwt>0</asrwt>
<pdfrwt beam="1">  1       21 0.34192013E-02 0.32662289E+02</pdfrwt>
<pdfrwt beam="2">  1       21 0.84387519E-02 0.32662289E+02</pdfrwt>
<totfact> 0.43490548E+07</totfact>
</mgrwt>
</event>
<event>
 4    1  0.4578942E+006  0.3245854E+02  0.7546771E-02  0.1572401E+00
         21   -1    0    0  503  501  0.00000000000E+00  0.00000000000E+00  0.52926826142E+02  0.52926826142E+02  0.00000000000E+00 0.  1.
         21   -1    0    0  504  502 -0.00000000000E+00 -0.00000000000E+00 -0.48321587992E+02  0.48321587992E+02  0.00000000000E+00 0. -1.
         21    1    1    2  503  502  0.26314457077E+02 -0.19002797136E+02 -0.36518370445E+02  0.48858451984E+02  0.00000000000E+00 0. -1.
         21    1    1    2  504  501 -0.26314457077E+02  0.19002797136E+02  0.41123608595E+02  0.52389962151E+02  0.00000000000E+00 0.  1.
<mgrwt>
<rscale>  2 0.32458542E+02</rscale>
<asrwt>0</asrwt>
<pdfrwt beam="1">  1       21 0.81425887E-02 0.32458542E+02</pdfrwt>
<pdfrwt beam="2">  1       21 0.74340904E-02 0.32458542E+02</pdfrwt>
<totfact> 0.13153845E+07</totfact>
</mgrwt>
</event>
<event>
 4    1  0.4578942E+006  0.2496752E+02  0.7546771E-02  0.1661469E+00
         21   -1    0    0  502  501  0.00000000000E+00  0.00000000000E+00  0.75311145702E+03  0.75311145702E+03  0.00000000000E+00 0.  1.
         21   -1    0    0  503  502 -0.00000000000E+00 -0.00000000000E+00 -0.11315208507E+01  0.11315208507E+01  0.00000000000E+00 0.  1.
         21    1    1    2  503  504 -0.23903615396E+02  0.72107071414E+01  0.18058600089E+03  0.18230381467E+03  0.00000000000E+00 0.  1.
         21    1    1    2  504  501  0.23903615396E+02 -0.72107071414E+01  0.57139393528E+03  0.57193916320E+03  0.00000000000E+00 0.  1.
<mgrwt>
<rscale>  2 0.24967521E+02</rscale>
<asrwt>0</asrwt>
<pdfrwt beam="1">  1       21 0.11586290E+00 0.24967521E+02</pdfrwt>
<pdfrwt beam="2">  1       21 0.17408073E-03 0.24967521E+02</pdfrwt>
<totfact> 0.26331871E+07</totfact>
</mgrwt>
</event>
<event>
 4    1  0.4578942E+006  0.2414301E+02  0.7546771E-02  0.1673625E+00
         21   -1    0    0  504  501  0.00000000000E+00  0.00000000000E+00  0.52428036696E+00  0.52428036696E+00  0.00000000000E+00 0. -1.
         21   -1    0    0  503  502 -0.00000000000E+00 -0.00000000000E+00 -0.13746279277E+04  0.13746279277E+04  0.00000000000E+00 0. -1.
         21    1    1    2  503  501 -0.20177724207E+02  0.13256858100E+02 -0.98771470757E+03  0.98800973092E+03  0.00000000000E+00 0. -1.
         21    1    1    2  504  502  0.20177724207E+02 -0.13256858100E+02 -0.38638893973E+03  0.38714247711E+03  0.00000000000E+00 0. -1.
<mgrwt>
<rscale>  2 0.24143008E+02</rscale>
<asrwt>0</asrwt>
<pdfrwt beam="1">  1       21 0.80658570E-04 0.24143008E+02</pdfrwt>
<pdfrwt beam="2">  1       21 0.21148108E+00 0.24143008E+02</pdfrwt>
<totfact> 0.18356470E+07</totfact>
</mgrwt>
</event>
<event>
 4    1  0.4578942E+006  0.2608564E+02  0.7546771E-02  0.1645881E+00
         21   -1    0    0  503  501  0.00000000000E+00  0.00000000000E+00  0.15013174144E+02  0.15013174144E+02  0.00000000000E+00 0. -1.
         21   -1    0    0  504  502 -0.00000000000E+00 -0.00000000000E+00 -0.46799058404E+02  0.46799058404E+02  0.00000000000E+00 0. -1.
         21    1    1    2  503  502 -0.31654632316E+01  0.25892866680E+02 -0.10406444366E+02  0.28084778559E+02  0.00000000000E+00 0. -1.
         21    1    1    2  504  501  0.31654632316E+01 -0.25892866680E+02 -0.21379439894E+02  0.33727453988E+02  0.00000000000E+00 0. -1.
<mgrwt>
<rscale>  2 0.26085642E+02</rscale>
<asrwt>0</asrwt>
<pdfrwt beam="1">  1       21 0.23097191E-02 0.26085642E+02</pdfrwt>
<pdfrwt beam="2">  1       21 0.71998551E-02 0.26085642E+02</pdfrwt>
<totfact> 0.99032592E+07</totfact>
</mgrwt>
</event>
<event>
 4    1  0.4578942E+006  0.3451965E+02  0.7546771E-02  0.1552908E+00
         21   -1    0    0  503  501  0.00000000000E+00  0.00000000000E+00  0.30010746196E+02  0.30010746196E+02  0.00000000000E+00 0. -1.
         21   -1    0    0  504  502 -0.00000000000E+00 -0.00000000000E+00 -0.41184267996E+02  0.41184267996E+02  0.00000000000E+00 0. -1.
         21    1    1    2  503  502  0.33516061030E+02  0.82631748704E+01  0.11574614479E+01  0.34539052143E+02  0.00000000000E+00 0. -1.
         21    1    1    2  504  501 -0.33516061030E+02 -0.82631748704E+01 -0.12330983248E+02  0.36655962050E+02  0.00000000000E+00 0. -1.
<mgrwt>
<rscale>  2 0.34519652E+02</rscale>
<asrwt>0</asrwt>
<pdfrwt beam="1">  1       21 0.46170379E-02 0.34519652E+02</pdfrwt>
<pdfrwt beam="2">  1       21 0.63360412E-02 0.34519652E+02</pdfrwt>
<totfact> 0.43653261E+07</totfact>
</mgrwt>
</event>
<event>
 4    1  0.4578942E+006  0.2800097E+02  0.7546771E-02  0.1621298E+00
         21   -1    0    0  502  501  0.00000000000E+00  0.00000000000E+00  0.89590318755E+02  0.89590318755E+02  0.00000000000E+00 0. -1.
         21   -1    0    0  504  502 -0.00000000000E+00 -0.00000000000E+00 -0.90381888420E+01  0.90381888420E+01  0.00000000000E+00 0. -1.
         21    1    1    2  503  501  0.14053272320E+02 -0.24218994075E+02  0.31493943757E+02  0.42141697050E+02  0.00000000000E+00 0. -1.
         21    1    1    2  504  503 -0.14053272320E+02  0.24218994075E+02  0.49058186156E+02  0.56486810547E+02  0.00000000000E+00 0. -1.
<mgrwt>
<rscale>  2 0.28000967E+02</rscale>
<asrwt>0</asrwt>
<pdfrwt beam="1">  1       21 0.13783125E-01 0.28000967E+02</pdfrwt>
<pdfrwt beam="2">  1       21 0.13904907E-02 0.28000967E+02</pdfrwt>
<totfact> 0.74608124E+07</totfact>
</mgrwt>
</event>
<event>
 4    1  0.4578942E+006  0.3432904E+02  0.7546771E-02  0.1554641E+00
         21   -1    0    0  503  501  0.00000000000E+00  0.00000000000E+00  0.96687523226E+03  0.96687523226E+03  0.00000000000E+00 0.  1.
         21   -1    0    0  504  502 -0.00000000000E+00 -0.00000000000E+00 -0.76023846311E+01  0.76023846311E+01  0.00000000000E+00 0. -1.
         21    1    1    2  503  502  0.34322503519E+02  0.66991832000E+00  0.92611159324E+03  0.92674762809E+03  0.00000000000E+00 0.  1.
         21    1    1    2  504  501 -0.34322503519E+02 -0.66991832000E+00  0.33161254393E+02  0.47729988804E+02  0.00000000000E+00 0. -1.
<mgrwt>
<rscale>  2 0.34329041E+02</rscale>
<asrwt>0</asrwt>
<pdfrwt beam="1">  1       21 0.14874994E+00 0.34329041E+02</pdfrwt>
<pdfrwt beam="2">  1       21 0.11695984E-02 0.34329041E+02</pdfrwt>
<totfact> 0.89965650E+05</totfact>
</mgrwt>
</event>
<event>
 4    1  0.4578942E+006  0.2010398E+02  0.7546771E-02  0.1743268E+00
         21   -1    0    0  502  501  0.00000000000E+00  0.00000000000E+00  0.17269293145E+02  0.17269293145E+02  0.00000000000E+00 0.  1.
         21   -1    0    0  503  502 -0.00000000000E+00 -0.00000000000E+00 -0.33220892892E+02  0.33220892892E+02  0.00000000000E+00 0.  1.
         21    1    1    2  503  504 -0.13324223699E+02  0.15054400382E+02 -0.21699118801E+02  0.29580765115E+02  0.00000000000E+00 0.  1.
         21    1    1    2  504  501  0.13324223699E+02 -0.15054400382E+02  0.57475190538E+01  0.20909420922E+02  0.00000000000E+00 0.  1.
<mgrwt>
<rscale>  2 0.20103977E+02</rscale>
<asrwt>0</asrwt>
<pdfrwt beam="1">  1       21 0.26568144E-02 0.20103977E+02</pdfrwt>
<pdfrwt beam="2">  1       21 0.51109065E-02 0.20103977E+02</pdfrwt>
<totfact> 0.12831630E+08</totfact>
</mgrwt>
</event>
<event>
 4    1  0.4578942E+006  0.3881067E+02  0.7546771E-02  0.1517151E+00
         21   -1    0    0  503  501  0.00000000000E+00  0.00000000000E+00  0.38165316175E+02  0.38165316175E+02  0.00000000000E+00 0. -1.
         21   -1    0    0  504  502 -0.00000000000E+00 -0.00000000000E+00 -0.57419526857E+02  0.57419526857E+02  0.00000000000E+00 0.  1.
         21    1    1    2  503  502  0.87717013074E+00  0.38800751453E+02  0.17096368264E+02  0.42409356852E+02  0.00000000000E+00 0. -1.
         21    1    1    2  504  501 -0.87717013074E+00 -0.38800751453E+02 -0.36350578946E+02  0.53175486180E+02  0.00000000000E+00 0.  1.
<mgrwt>
<rscale>  2 0.38810665E+02</rscale>
<asrwt>0</asrwt>
<pdfrwt beam="1">  1       21 0.58715871E-02 0.38810665E+02</pdfrwt>
<pdfrwt beam="2">  1       21 0.88337734E-02 0.38810665E+02</pdfrwt>
<totfact> 0.17414547E+07</totfact>
</mgrwt>
</event>
<event>
 4    1  0.4578942E+006  0.2038118E+02  0.7546771E-02  0.1737852E+00
         21   -1    0    0  504  501  0.00000000000E+00  0.00000000000E+00  0.43994723385E+02  0.43994723385E+02  0.00000000000E+00 0.  1.
         21   -1    0    0  501  502 -0.00000000000E+00 -0.00000000000E+00 -0.39321895446E+02  0.39321895446E+02  0.00000000000E+00 0.  1.
         21    1    1    2  503  502  0.17284411752E+02  0.10800081857E+02 -0.33977651144E+02  0.39621628374E+02  0.00000000000E+00 0.  1.
         21    1    1    2  504  503 -0.17284411752E+02 -0.10800081857E+02  0.38650479083E+02  0.43694990457E+02  0.00000000000E+00 0.  1.
<mgrwt>
<rscale>  2 0.20381184E+02</rscale>
<asrwt>0</asrwt>
<pdfrwt beam="1">  1       21 0.67684190E-02 0.20381184E+02</pdfrwt>
<pdfrwt beam="2">  1       21 0.60495224E-02 0.20381184E+02</pdfrwt>
<totfact> 0.22625383E+07</totfact>
</mgrwt>
</event>
<event>
 4    1  0.4578942E+006  0.2122079E+02  0.7546771E-02  0.1722087E+00
         21   -1    0    0  502  501  0.00000000000E+00  0.00000000000E+00  0.25884944868E+03  0.25884944868E+03  0.00000000000E+00 0.  1.
         21   -1    0    0  503  502 -0.00000000000E+00 -0.00000000000E+00 -0.13868853946E+02  0.13868853946E+02  0.00000000000E+00 0.  1.
         21    1    1    2  503  504 -0.20268056956E+01 -0.21123776592E+02 -0.50299519426E+01  0.21808766480E+02  0.00000000000E+00 0.  1.
         21    1    1    2  504  501  0.20268056956E+01  0.21123776592E+02  0.25001054668E+03  0.25090953614E+03  0.00000000000E+00 0.  1.
<mgrwt>
<rscale>  2 0.21220789E+02</rscale>
<asrwt>0</asrwt>
<pdfrwt beam="1">  1       21 0.39822989E-01 0.21220789E+02</pdfrwt>
<pdfrwt beam="2">  1       21 0.21336700E-02 0.21220789E+02</pdfrwt>
<totfact> 0.55306596E+06</totfact>
</mgrwt>
</event>
<event>
 4    1  0.4578942E+006  0.4734737E+02  0.7546771E-02  0.1460198E+00
         21   -1    0    0  504  501  0.00000000000E+00  0.00000000000E+00  0.71765483125E+03  0.71765483125E+03  0.00000000000E+00 0.  1.
         21   -1    0    0  503  502 -0.00000000000E+00 -0.00000000000E+00 -0.22542111509E+02  0.22542111509E+02  0.00000000000E+00 0.  1.
         21    1    1    2  503  501 -0.98598044445E+01 -0.46309369491E+02  0.69105600951E+03  0.69267610160E+03  0.00000000000E+00 0.  1.
         21    1    1    2  504  502  0.98598044445E+01  0.46309369491E+02  0.40567102268E+01  0.47520841157E+02  0.00000000000E+00 0.  1.
<mgrwt>
<rscale>  2 0.47347370E+02</rscale>
<asrwt>0</asrwt>
<pdfrwt beam="1">  1       21 0.11040842E+00 0.47347370E+02</pdfrwt>
<pdfrwt beam="2">  1       21 0.34680177E-02 0.47347370E+02</pdfrwt>
<totfact> 0.33346558E+05</totfact>
</mgrwt>
</event>
<event>
 4    1  0.4578942E+006  0.2056475E+02  0.7546771E-02  0.1734325E+00
         21   -1    0    0  504  501  0.00000000000E+00  0.00000000000E+00  0.14670295682E+02  0.14670295682E+02  0.00000000000E+00 0. -1.
         21   -1    0    0  503  502 -0.00000000000E+00 -0.00000000000E+00 -0.28844219377E+02  0.28844219377E+02  0.00000000000E+00 0. -1.
         21    1    1    2  503  501  0.13048081046E+02 -0.15895176324E+02 -0.65643150780E+01  0.21587016510E+02  0.00000000000E+00 0. -1.
         21    1    1    2  504  502 -0.13048081046E+02  0.15895176324E+02 -0.76096086173E+01  0.21927498550E+02  0.00000000000E+00 0. -1.
<mgrwt>
<rscale>  2 0.20564753E+02</rscale>
<asrwt>0</asrwt>
<pdfrwt beam="1">  1       21 0.22569686E-02 0.20564753E+02</pdfrwt>
<pdfrwt beam="2">  1       21 0.44375722E-02 0.20564753E+02</pdfrwt>
<totfact> 0.20765905E+08</totfact>
</mgrwt>
</event>
<event>
 4    1  0.4578942E+006  0.3487126E+02  0.7546771E-02  0.1549747E+00
         21   -1    0    0  504  501  0.00000000000E+00  0.00000000000E+00  0.66590623384E+01  0.66590623384E+01  0.00000000000E+00 0.  1.
         21   -1    0    0  503  502 -0.00000000000E+00 -0.00000000000E+00 -0.18368791149E+03  0.18368791149E+03  0.00000000000E+00 0.  1.
         21    1    1    2  503  501 -0.14068242318E+02  0.31907511041E+02 -0.81220370849E+02  0.88389780765E+02  0.00000000000E+00 0.  1.
         21    1    1    2  504  502  0.14068242318E+02 -0.31907511041E+02 -0.95808478299E+02  0.10195719306E+03  0.00000000000E+00 0.  1.
<mgrwt>
<rscale>  2 0.34871259E+02</rscale>
<asrwt>0</asrwt>
<pdfrwt beam="1">  1       21 0.10244712E-02 0.34871259E+02</pdfrwt>
<pdfrwt beam="2">  1       21 0.28259675E-01 0.34871259E+02</pdfrwt>
<totfact> 0.35034586E+07</totfact>
</mgrwt>
</event>
<event>
 4    1  0.4578942E+006  0.2783346E+02  0.7546771E-02  0.1623351E+00
         21   -1    0    0  503  501  0.00000000000E+00  0.00000000000E+00  0.26665089730E+02  0.26665089730E+02  0.00000000000E+00 0. -1.
         21   -1    0    0  501  502 -0.00000000000E+00 -0.00000000000E+00 -0.54907063769E+02  0.54907063769E+02  0.00000000000E+00 0. -1.
         21    1    1    2  503  504 -0.18347569465E+02  0.20930075580E+02  0.13866381553E+02  0.31096268368E+02  0.00000000000E+00 0. -1.
         21    1    1    2  504  502  0.18347569465E+02 -0.20930075580E+02 -0.42108355592E+02  0.50475885131E+02  0.00000000000E+00 0. -1.
<mgrwt>
<rscale>  2 0.27833458E+02</rscale>
<asrwt>0</asrwt>
<pdfrwt beam="1">  1       21 0.41023215E-02 0.27833458E+02</pdfrwt>
<pdfrwt beam="2">  1       21 0.84472405E-02 0.27833458E+02</pdfrwt>
<totfact> 0.31440237E+07</totfact>
</mgrwt>
</event>
<event>
 4    1  0.4578942E+006  0.2516410E+02  0.7546771E-02  0.1658656E+00
         21   -1    0    0  503  501  0.00000000000E+00  0.00000000000E+00  0.25200846780E+02  0.25200846780E+02  0.00000000000E+00 0. -1.
         21   -1    0    0  504  502 -0.00000000000E+00 -0.00000000000E+00 -0.25152654563E+02  0.25152654563E+02  0.00000000000E+00 0.  1.
         21    1    1    2  503  502  0.18855296574E+02  0.16664630445E+02 -0.77344858038E+00  0.25175987359E+02  0.00000000000E+00 0.  1.
         21    1    1    2  504  501 -0.18855296574E+02 -0.16664630445E+02  0.82164079712E+00  0.25177513983E+02  0.00000000000E+00 0. -1.
<mgrwt>
<rscale>  2 0.25164104E+02</rscale>
<asrwt>0</asrwt>
<pdfrwt beam="1">  1       21 0.38770533E-02 0.25164104E+02</pdfrwt>
<pdfrwt beam="2">  1       21 0.38696392E-02 0.25164104E+02</pdfrwt>
<totfact> 0.11809487E+08</totfact>
</mgrwt>
</event>
<event>
 4    1  0.4578942E+006  0.2156087E+02  0.7546771E-02  0.1715959E+00
         21   -1    0    0  504  501  0.00000000000E+00  0.00000000000E+00  0.24518443505E+02  0.24518443505E+02  0.00000000000E+00 0.  1.
         21   -1    0    0  503  502 -0.00000000000E+00 -0.00000000000E+00 -0.33783615799E+02  0.33783615799E+02  0.00000000000E+00 0.  1.
         21    1    1    2  503  501 -0.23985216208E+01  0.21427047435E+02 -0.23942350163E+02  0.32219674099E+02  0.00000000000E+00 0.  1.
         21    1    1    2  504  502  0.23985216208E+01 -0.21427047435E+02  0.14677177869E+02  0.26082385204E+02  0.00000000000E+00 0.  1.
<mgrwt>
<rscale>  2 0.21560874E+02</rscale>
<asrwt>0</asrwt>
<pdfrwt beam="1">  1       21 0.37720682E-02 0.21560874E+02</pdfrwt>
<pdfrwt beam="2">  1       21 0.51974794E-02 0.21560874E+02</pdfrwt>
<totfact> 0.73964783E+07</totfact>
</mgrwt>
</event>
<event>
 4    1  0.4578942E+006  0.3168261E+02  0.7546771E-02  0.1580201E+00
         21   -1    0    0  504  501  0.00000000000E+00  0.00000000000E+00  0.53715885074E+03  0.53715885074E+03  0.00000000000E+00 0.  1.
         21   -1    0    0  501  502 -0.00000000000E+00 -0.00000000000E+00 -0.10325942973E+02  0.10325942973E+02  0.00000000000E+00 0.  1.
         21    1    1    2  503  502  0.15837375059E+02  0.27440214201E+02  0.15679009417E+02  0.35349952482E+02  0.00000000000E+00 0.  1.
         21    1    1    2  504  503 -0.15837375059E+02 -0.27440214201E+02  0.51115389835E+03  0.51213484123E+03  0.00000000000E+00 0.  1.
<mgrwt>
<rscale>  2 0.31682610E+02</rscale>
<asrwt>0</asrwt>
<pdfrwt beam="1">  1       21 0.82639802E-01 0.31682610E+02</pdfrwt>
<pdfrwt beam="2">  1       21 0.15886070E-02 0.31682610E+02</pdfrwt>
<totfact> 0.21276218E+06</totfact>
</mgrwt>
</event>
<event>
 4    1  0.4578942E+006  0.2159423E+02  0.7546771E-02  0.1715366E+00
         21   -1    0    0  504  501  0.00000000000E+00  0.00000000000E+00  0.17095287713E+03  0.17095287713E+03  0.00000000000E+00 0. -1.
         21   -1    0    0  501  502 -0.00000000000E+00 -0.00000000000E+00 -0.33637048628E+02  0.33637048628E+02  0.00000000000E+00 0. -1.
         21    1    1    2  503  502 -0.11623487629E+02 -0.18199042639E+02 -0.29401689320E+02  0.36479719743E+02  0.00000000000E+00 0. -1.
         21    1    1    2  504  503  0.11623487629E+02  0.18199042639E+02  0.16671751782E+03  0.16811020601E+03  0.00000000000E+00 0. -1.
<mgrwt>
<rscale>  2 0.21594226E+02</rscale>
<asrwt>0</asrwt>
<pdfrwt beam="1">  1       21 0.26300442E-01 0.21594226E+02</pdfrwt>
<pdfrwt beam="2">  1       21 0.51749306E-02 0.21594226E+02</pdfrwt>
<totfact> 0.29743834E+06</totfact>
</mgrwt>
</event>
<event>
 4    1  0.4578942E+006  0.2171114E+02  0.7546771E-02  0.1713296E+00
         21   -1    0    0  504  501  0.00000000000E+00  0.00000000000E+00  0.13643133629E+03  0.13643133629E+03  0.00000000000E+00 0. -1.
         21   -1    0    0  503  502 -0.00000000000E+00 -0.00000000000E+00 -0.72466405865E+01  0.72466405865E+01  0.00000000000E+00 0. -1.
         21    1    1    2  503  501  0.64145643159E+01 -0.20741908177E+02  0.12628163118E+02  0.25116605939E+02  0.00000000000E+00 0. -1.
         21    1    1    2  504  502 -0.64145643159E+01  0.20741908177E+02  0.11655653258E+03  0.11856137093E+03  0.00000000000E+00 0. -1.
<mgrwt>
<rscale>  2 0.21711135E+02</rscale>
<asrwt>0</asrwt>
<pdfrwt beam="1">  1       21 0.20989434E-01 0.21711135E+02</pdfrwt>
<pdfrwt beam="2">  1       21 0.11148679E-02 0.21711135E+02</pdfrwt>
<totfact> 0.47373980E+07</totfact>
</mgrwt>
</event>
<event>
 4    1  0.4578942E+006  0.2595544E+02  0.7546771E-02  0.1647646E+00
         21   -1    0    0  502  501  0.00000000000E+00  0.00000000000E+00  0.28338054981E+02  0.28338054981E+02  0.00000000000E+00 0. -1.
         21   -1    0    0  504  502 -0.00000000000E+00 -0.00000000000E+00 -0.11427060293E+04  0.11427060293E+04  0.00000000000E+00 0. -1.
         21    1    1    2  503  501 -0.25046092020E+02  0.68101532574E+01  0.22215366833E+02  0.34164417694E+02  0.00000000000E+00 0. -1.
         21    1    1    2  504  503  0.25046092020E+02 -0.68101532574E+01 -0.11365833411E+04  0.11368796665E+04  0.00000000000E+00 0. -1.
<mgrwt>
<rscale>  2 0.25955441E+02</rscale>
<asrwt>0</asrwt>
<pdfrwt beam="1">  1       21 0.43597013E-02 0.25955441E+02</pdfrwt>
<pdfrwt beam="2">  1       21 0.17580091E+00 0.25955441E+02</pdfrwt>
<totfact> 0.77054845E+04</totfact>
</mgrwt>
</event>
<event>
 4    1  0.4578942E+006  0.2205715E+02  0.7546771E-02  0.1707266E+00
         21   -1    0    0  504  501  0.00000000000E+00  0.00000000000E+00  0.36401413713E+01  0.36401413713E+01  0.00000000000E+00 0. -1.
         21   -1    0    0  503  502 -0.00000000000E+00 -0.00000000000E+00 -0.39573496871E+03  0.39573496871E+03  0.00000000000E+00 0.  1.
         21    1    1    2  503  501 -0.11332627627E+02  0.18923245302E+02 -0.33542335700E+02  0.40144812192E+02  0.00000000000E+00 0. -1.
         21    1    1    2  504  502  0.11332627627E+02 -0.18923245302E+02 -0.35855249164E+03  0.35923029789E+03  0.00000000000E+00 0.  1.
<mgrwt>
<rscale>  2 0.22057145E+02</rscale>
<asrwt>0</asrwt>
<pdfrwt beam="1">  1       21 0.56002163E-03 0.22057145E+02</pdfrwt>
<pdfrwt beam="2">  1       21 0.60882316E-01 0.22057145E+02</pdfrwt>
<totfact> 0.18294989E+07</totfact>
</mgrwt>
</event>
<event>
 4    1  0.4578942E+006  0.3081423E+02  0.7546771E-02  0.1589259E+00
         21   -1    0    0  502  501  0.00000000000E+00  0.00000000000E+00  0.14528587065E+02  0.14528587065E+02  0.00000000000E+00 0. -1.
         21   -1    0    0  503  502 -0.00000000000E+00 -0.00000000000E+00 -0.14947883618E+03  0.14947883618E+03  0.00000000000E+00 0. -1.
         21    1    1    2  503  504 -0.30612458248E+02 -0.35205579953E+01 -0.12899323552E+03  0.13262266676E+03  0.00000000000E+00 0. -1.
         21    1    1    2  504  501  0.30612458248E+02  0.35205579953E+01 -0.59570135925E+01  0.31384756483E+02  0.00000000000E+00 0. -1.
<mgrwt>
<rscale>  2 0.30814233E+02</rscale>
<asrwt>0</asrwt>
<pdfrwt beam="1">  1       21 0.22351672E-02 0.30814233E+02</pdfrwt>
<pdfrwt beam="2">  1       21 0.22996744E-01 0.30814233E+02</pdfrwt>
<totfact> 0.14982586E+07</totfact>
</mgrwt>
</event>
<event>
 4    1  0.4578942E+006  0.2949673E+02  0.7546771E-02  0.1603719E+00
         21   -1    0    0  504  501  0.00000000000E+00  0.00000000000E+00  0.65936290525E+03  0.65936290525E+03  0.00000000000E+00 0. -1.
         21   -1    0    0  501  502 -0.00000000000E+00 -0.00000000000E+00 -0.10083292664E+03  0.10083292664E+03  0.00000000000E+00 0. -1.
         21    1    1    2  503  502 -0.58809879788E+01  0.28904518128E+02 -0.98337675438E+02  0.10266623397E+03  0.00000000000E+00 0. -1.
         21    1    1    2  504  503  0.58809879788E+01 -0.28904518128E+02  0.65686765405E+03  0.65752959791E+03  0.00000000000E+00 0. -1.
<mgrwt>
<rscale>  2 0.29496732E+02</rscale>
<asrwt>0</asrwt>
<pdfrwt beam="1">  1       21 0.10144044E+00 0.29496732E+02</pdfrwt>
<pdfrwt beam="2">  1       21 0.15512758E-01 0.29496732E+02</pdfrwt>
<totfact> 0.34198103E+04</totfact>
</mgrwt>
</event>
<event>
 4    1  0.4578942E+006  0.2206084E+02  0.7546771E-02  0.1707202E+00
         21   -1    0    0  503  501  0.00000000000E+00  0.00000000000E+00  0.13088430384E+04  0.13088430384E+04  0.00000000000E+00 0.  1.
         21   -1    0    0  501  502 -0.00000000000E+00 -0.00000000000E+00 -0.12251343921E+01  0.12251343921E+01  0.00000000000E+00 0.  1.
         21    1    1    2  503  504 -0.65220616210E+00 -0.22051192847E+02  0.12004741480E+04  0.12006768344E+04  0.00000000000E+00 0.  1.
         21    1    1    2  504  502  0.65220616210E+00  0.22051192847E+02  0.10714375594E+03  0.10939133839E+03  0.00000000000E+00 0.  1.
<mgrwt>
<rscale>  2 0.22060836E+02</rscale>
<asrwt>0</asrwt>
<pdfrwt beam="1">  1       21 0.20135935E+00 0.22060836E+02</pdfrwt>
<pdfrwt beam="2">  1       21 0.18848326E-03 0.22060836E+02</pdfrwt>
<totfact> 0.61346618E+06</totfact>
</mgrwt>
</event>
<event>
 4    1  0.4578942E+006  0.4787511E+02  0.7546771E-02  0.1457152E+00
         21   -1    0    0  504  501  0.00000000000E+00  0.00000000000E+00  0.14268516096E+04  0.14268516096E+04  0.00000000000E+00 0. -1.
         21   -1    0    0  503  502 -0.00000000000E+00 -0.00000000000E+00 -0.26492575017E+01  0.26492575017E+01  0.00000000000E+00 0. -1.
         21    1    1    2  503  501 -0.31020391318E+02  0.36465893591E+02  0.26365037876E+03  0.26796184111E+03  0.00000000000E+00 0. -1.
         21    1    1    2  504  502  0.31020391318E+02 -0.36465893591E+02  0.11605519734E+04  0.11615390260E+04  0.00000000000E+00 0. -1.
<mgrwt>
<rscale>  2 0.47875109E+02</rscale>
<asrwt>0</asrwt>
<pdfrwt beam="1">  1       21 0.21951502E+00 0.47875109E+02</pdfrwt>
<pdfrwt beam="2">  1       21 0.40757922E-03 0.47875109E+02</pdfrwt>
<totfact> 0.16200357E+06</totfact>
</mgrwt>
</event>
<event>
 4    1  0.4578942E+006  0.2067867E+02  0.7546771E-02  0.1732159E+00
         21   -1    0    0  502  501  0.00000000000E+00  0.00000000000E+00  0.20829051761E+01  0.20829051761E+01  0.00000000000E+00 0.  1.
         21   -1    0    0  504  502 -0.00000000000E+00 -0.00000000000E+00 -0.25814546702E+03  0.25814546702E+03  0.00000000000E+00 0.  1.
         21    1    1    2  503  501 -0.99942302311E+01 -0.18103118774E+02 -0.69157532680E+02  0.72182905688E+02  0.00000000000E+00 0.  1.
         21    1    1    2  504  503  0.99942302311E+01  0.18103118774E+02 -0.18690502916E+03  0.18804546651E+03  0.00000000000E+00 0.  1.
<mgrwt>
<rscale>  2 0.20678674E+02</rscale>
<asrwt>0</asrwt>
<pdfrwt beam="1">  1       21 0.32044715E-03 0.20678674E+02</pdfrwt>
<pdfrwt beam="2">  1       21 0.39714663E-01 0.20678674E+02</pdfrwt>
<totfact> 0.93286102E+07</totfact>
</mgrwt>
</event>
<event>
 4    1  0.4578942E+006  0.3439973E+02  0.7546771E-02  0.1553997E+00
         21   -1    0    0  503  501  0.00000000000E+00  0.00000000000E+00  0.18849833228E+02  0.18849833228E+02  0.00000000000E+00 0.  1.
         21   -1    0    0  504  502 -0.00000000000E+00 -0.00000000000E+00 -0.14355555409E+03  0.14355555409E+03  0.00000000000E+00 0.  1.
         21    1    1    2  503  502  0.34389196043E+02  0.85109118189E+00 -0.12326554424E+03  0.12797552718E+03  0.00000000000E+00 0.  1.
         21    1    1    2  504  501 -0.34389196043E+02 -0.85109118189E+00 -0.14401766284E+01  0.34429860142E+02  0.00000000000E+00 0.  1.
<mgrwt>
<rscale>  2 0.34399726E+02</rscale>
<asrwt>0</asrwt>
<pdfrwt beam="1">  1       21 0.28999744E-02 0.34399726E+02</pdfrwt>
<pdfrwt beam="2">  1       21 0.22085470E-01 0.34399726E+02</pdfrwt>
<totfact> 0.10901220E+07</totfact>
</mgrwt>
</event>
<event>
 4    1  0.4578942E+006  0.2063763E+02  0.7546771E-02  0.1732937E+00
         21   -1    0    0  504  501  0.00000000000E+00  0.00000000000E+00  0.14196318602E+03  0.14196318602E+03  0.00000000000E+00 0. -1.
         21   -1    0    0  503  502 -0.00000000000E+00 -0.00000000000E+00 -0.30011678597E+01  0.30011678597E+01  0.00000000000E+00 0. -1.
         21    1    1    2  503  501  0.19534916808E+02 -0.66557302391E+01  0.70811840177E+02  0.73757904179E+02  0.00000000000E+00 0. -1.
         21    1    1    2  504  502 -0.19534916808E+02  0.66557302391E+01  0.68150177983E+02  0.71206449699E+02  0.00000000000E+00 0. -1.
<mgrwt>
<rscale>  2 0.20637629E+02</rscale>
<asrwt>0</asrwt>
<pdfrwt beam="1">  1       21 0.21840485E-01 0.20637629E+02</pdfrwt>
<pdfrwt beam="2">  1       21 0.46171824E-03 0.20637629E+02</pdfrwt>
<totfact> 0.16126750E+08</totfact>
</mgrwt>
</event>
<event>
 4    1  0.4578942E+006  0.4449302E+02  0.7546771E-02  0.1477532E+00
         21   -1    0    0  504  501  0.00000000000E+00  0.00000000000E+00  0.55640093582E+02  0.55640093582E+02  0.00000000000E+00 0. -1.
         21   -1    0    0  503  502 -0.00000000000E+00 -0.00000000000E+00 -0.36148929342E+02  0.36148929342E+02  0.00000000000E+00 0. -1.
         21    1    1    2  503  501 -0.85445354904E+01  0.43664853333E+02  0.15507375733E+02  0.47118013598E+02  0.00000000000E+00 0. -1.
         21    1    1    2  504  502  0.85445354904E+01 -0.43664853333E+02  0.39837885082E+01  0.44671009326E+02  0.00000000000E+00 0. -1.
<mgrwt>
<rscale>  2 0.44493016E+02</rscale>
<asrwt>0</asrwt>
<pdfrwt beam="1">  1       21 0.85600144E-02 0.44493016E+02</pdfrwt>
<pdfrwt beam="2">  1       21 0.55613737E-02 0.44493016E+02</pdfrwt>
<totfact> 0.20497019E+07</totfact>
</mgrwt>
</event>
<event>
 4    1  0.4578942E+006  0.2879399E+02  0.7546771E-02  0.1611815E+00
         21   -1    0    0  502  501  0.00000000000E+00  0.00000000000E+00  0.14434119929E+03  0.14434119929E+03  0.00000000000E+00 0.  1.
         21   -1    0    0  503  502 -0.00000000000E+00 -0.00000000000E+00 -0.68092205821E+02  0.68092205821E+02  0.00000000000E+00 0.  1.
         21    1    1    2  503  504  0.80037990276E+01  0.27659234313E+02 -0.63513509464E+02  0.69735643154E+02  0.00000000000E+00 0.  1.
         21    1    1    2  504  501 -0.80037990276E+01 -0.27659234313E+02  0.13976250293E+03  0.14269776195E+03  0.00000000000E+00 0.  1.
<mgrwt>
<rscale>  2 0.28793993E+02</rscale>
<asrwt>0</asrwt>
<pdfrwt beam="1">  1       21 0.22206338E-01 0.28793993E+02</pdfrwt>
<pdfrwt beam="2">  1       21 0.10475724E-01 0.28793993E+02</pdfrwt>
<totfact> 0.13174468E+06</totfact>
</mgrwt>
</event>
<event>
 4    1  0.4578942E+006  0.4758352E+02  0.7546771E-02  0.1458829E+00
         21   -1    0    0  503  501  0.00000000000E+00  0.00000000000E+00  0.23293012333E+01  0.23293012333E+01  0.00000000000E+00 0. -1.
         21   -1    0    0  504  502 -0.00000000000E+00 -0.00000000000E+00 -0.11322265815E+04  0.11322265815E+04  0.00000000000E+00 0. -1.
         21    1    1    2  503  502  0.40114098932E+02  0.25593950384E+02 -0.77831809389E+03  0.77977127833E+03  0.00000000000E+00 0. -1.
         21    1    1    2  504  501 -0.40114098932E+02 -0.25593950384E+02 -0.35157918637E+03  0.35478460440E+03  0.00000000000E+00 0. -1.
<mgrwt>
<rscale>  2 0.47583518E+02</rscale>
<asrwt>0</asrwt>
<pdfrwt beam="1">  1       21 0.35835436E-03 0.47583518E+02</pdfrwt>
<pdfrwt beam="2">  1       21 0.17418855E+00 0.47583518E+02</pdfrwt>
<totfact> 0.36712071E+06</totfact>
</mgrwt>
</event>
<event>
 4    1  0.4578942E+006  0.2107213E+02  0.7546771E-02  0.1724811E+00
         21   -1    0    0  504  501  0.00000000000E+00  0.00000000000E+00  0.34065344324E+02  0.34065344324E+02  0.00000000000E+00 0.  1.
         21   -1    0    0  503  502 -0.00000000000E+00 -0.00000000000E+00 -0.19046800768E+02  0.19046800768E+02  0.00000000000E+00 0.  1.
         21    1    1    2  503  501  0.18965210958E+02  0.91845225230E+01 -0.74105153357E+01  0.22337198083E+02  0.00000000000E+00 0.  1.
         21    1    1    2  504  502 -0.18965210958E+02 -0.91845225230E+01  0.22429058891E+02  0.30774947009E+02  0.00000000000E+00 0.  1.
<mgrwt>
<rscale>  2 0.21072130E+02</rscale>
<asrwt>0</asrwt>
<pdfrwt beam="1">  1       21 0.52408222E-02 0.21072130E+02</pdfrwt>
<pdfrwt beam="2">  1       21 0.29302770E-02 0.21072130E+02</pdfrwt>
<totfact> 0.10749916E+08</totfact>
</mgrwt>
</event>
<event>
 4    1  0.4578942E+006  0.2201789E+02  0.7546771E-02  0.1707943E+00
         21   -1    0    0  504  501  0.00000000000E+00  0.00000000000E+00  0.19757937357E+02  0.19757937357E+02  0.00000000000E+00 0.  1.
         21   -1    0    0  503  502 -0.00000000000E+00 -0.00000000000E+00 -0.44555147458E+02  0.44555147458E+02  0.00000000000E+00 0.  1.
         21    1    1    2  503  501  0.17148938081E+02 -0.13809469099E+02 -0.33953180802E+02  0.40467344868E+02  0.00000000000E+00 0.  1.
         21    1    1    2  504  502 -0.17148938081E+02  0.13809469099E+02  0.91559707017E+01  0.23845739947E+02  0.00000000000E+00 0.  1.
<mgrwt>
<rscale>  2 0.22017891E+02</rscale>
<asrwt>0</asrwt>
<pdfrwt beam="1">  1       21 0.30396827E-02 0.22017891E+02</pdfrwt>
<pdfrwt beam="2">  1       21 0.68546380E-02 0.22017891E+02</pdfrwt>
<totfact> 0.66887841E+07</totfact>
</mgrwt>
</event>
<event>
 4    1  0.4578942E+006  0.2045817E+02  0.7546771E-02  0.1736367E+00
         21   -1    0    0  502  501  0.00000000000E+00  0.00000000000E+00  0.18704297176E+02  0.18704297176E+02  0.00000000000E+00 0.  1.
         21   -1    0    0  504  502 -0.00000000000E+00 -0.00000000000E+00 -0.26259064325E+02  0.26259064325E+02  0.00000000000E+00 0.  1.
         21    1    1    2  503  501  0.19949670953E+02  0.45329407458E+01  0.48672747611E+01  0.21029200806E+02  0.00000000000E+00 0.  1.
         21    1    1    2  504  503 -0.19949670953E+02 -0.45329407458E+01 -0.12422041911E+02  0.23934160695E+02  0.00000000000E+00 0.  1.
<mgrwt>
<rscale>  2 0.20458175E+02</rscale>
<asrwt>0</asrwt>
<pdfrwt beam="1">  1       21 0.28775842E-02 0.20458175E+02</pdfrwt>
<pdfrwt beam="2">  1       21 0.40398560E-02 0.20458175E+02</pdfrwt>
<totfact> 0.16527325E+08</totfact>
</mgrwt>
</event>
<event>
 4    1  0.4578942E+006  0.3484588E+02  0.7546771E-02  0.1549973E+00
         21   -1    0    0  504  501  0.00000000000E+00  0.00000000000E+00  0.10938797826E+03  0.10938797826E+03  0.00000000000E+00 0. -1.
         21   -1    0    0  503  502 -0.00000000000E+00 -0.00000000000E+00 -0.27399949706E+02  0.27399949706E+02  0.00000000000E+00 0. -1.
         21    1    1    2  503  501 -0.79544529525E+01 -0.33925830534E+02  0.93745236250E+02  0.10001202237E+03  0.00000000000E+00 0. -1.
         21    1    1    2  504  502  0.79544529525E+01  0.33925830534E+02 -0.11757207700E+02  0.36775905591E+02  0.00000000000E+00 0. -1.
<mgrwt>
<rscale>  2 0.34845879E+02</rscale>
<asrwt>0</asrwt>
<pdfrwt beam="1">  1       21 0.16828920E-01 0.34845879E+02</pdfrwt>
<pdfrwt beam="2">  1       21 0.42153769E-02 0.34845879E+02</pdfrwt>
<totfact> 0.97429555E+06</totfact>
</mgrwt>
</event>
<event>
 4    1  0.4578942E+006  0.3605862E+02  0.7546771E-02  0.1539396E+00
         21   -1    0    0  504  501  0.00000000000E+00  0.00000000000E+00  0.20282385132E+02  0.20282385132E+02  0.00000000000E+00 0. -1.
         21   -1    0    0  503  502 -0.00000000000E+00 -0.00000000000E+00 -0.64119814979E+02  0.64119814979E+02  0.00000000000E+00 0. -1.
         21    1    1    2  503  501 -0.34656191993E+02 -0.99585271106E+01 -0.22536694238E+02  0.42522070656E+02  0.00000000000E+00 0. -1.
         21    1    1    2  504  502  0.34656191993E+02  0.99585271106E+01 -0.21300735609E+02  0.41880129455E+02  0.00000000000E+00 0. -1.
<mgrwt>
<rscale>  2 0.36058618E+02</rscale>
<asrwt>0</asrwt>
<pdfrwt beam="1">  1       21 0.31203670E-02 0.36058618E+02</pdfrwt>
<pdfrwt beam="2">  1       21 0.98645868E-02 0.36058618E+02</pdfrwt>
<totfact> 0.39519778E+07</totfact>
</mgrwt>
</event>
<event>
 4    1  0.4578942E+006  0.2429731E+02  0.7546771E-02  0.1671305E+00
         21   -1    0    0  504  501  0.00000000000E+00  0.00000000000E+00  0.60507929994E+02  0.60507929994E+02  0.00000000000E+00 0.  1.
         21   -1    0    0  501  502 -0.00000000000E+00 -0.00000000000E+00 -0.67807984728E+02  0.67807984728E+02  0.00000000000E+00 0.  1.
         21    1    1    2  503  502  0.17391648296E+02  0.16967313545E+02 -0.63013040793E+02  0.67535194301E+02  0.00000000000E+00 0.  1.
         21    1    1    2  504  503 -0.17391648296E+02 -0.16967313545E+02  0.55712986058E+02  0.60780720421E+02  0.00000000000E+00 0.  1.
<mgrwt>
<rscale>  2 0.24297308E+02</rscale>
<asrwt>0</asrwt>
<pdfrwt beam="1">  1       21 0.93089123E-02 0.24297308E+02</pdfrwt>
<pdfrwt beam="2">  1       21 0.10431998E-01 0.24297308E+02</pdfrwt>
<totfact> 0.57409998E+06</totfact>
</mgrwt>
</event>
<event>
 4    1  0.4578942E+006  0.3297114E+02  0.7546771E-02  0.1567392E+00
         21   -1    0    0  503  501  0.00000000000E+00  0.00000000000E+00  0.77266120651E+03  0.77266120651E+03  0.00000000000E+00 0. -1.
         21   -1    0    0  504  502 -0.00000000000E+00 -0.00000000000E+00 -0.20956048236E+03  0.20956048236E+03  0.00000000000E+00 0.  1.
         21    1    1    2  503  502 -0.23589336202E+02  0.23035604471E+02  0.77100981648E+03  0.77171447632E+03  0.00000000000E+00 0. -1.
         21    1    1    2  504  501  0.23589336202E+02 -0.23035604471E+02 -0.20790909234E+03  0.21050721254E+03  0.00000000000E+00 0.  1.
<mgrwt>
<rscale>  2 0.32971137E+02</rscale>
<asrwt>0</asrwt>
<pdfrwt beam="1">  1       21 0.11887095E+00 0.32971137E+02</pdfrwt>
<pdfrwt beam="2">  1       21 0.32240075E-01 0.32971137E+02</pdfrwt>
<totfact> 0.63933333E+03</totfact>
</mgrwt>
</event>
<event>
 4    1  0.4578942E+006  0.2354502E+02  0.7546771E-02  0.1682825E+00
         21   -1    0    0  503  501  0.00000000000E+00  0.00000000000E+00  0.32647520434E+03  0.32647520434E+03  0.00000000000E+00 0.  1.
         21   -1    0    0  504  502 -0.00000000000E+00 -0.00000000000E+00 -0.10938400398E+02  0.10938400398E+02  0.00000000000E+00 0.  1.
         21    1    1    2  503  502 -0.10844792605E+02 -0.20898761004E+02  0.27082674346E+01  0.23700262671E+02  0.00000000000E+00 0.  1.
         21    1    1    2  504  501  0.10844792605E+02  0.20898761004E+02  0.31282853650E+03  0.31371334207E+03  0.00000000000E+00 0.  1.
<mgrwt>
<rscale>  2 0.23545015E+02</rscale>
<asrwt>0</asrwt>
<pdfrwt beam="1">  1       21 0.50226947E-01 0.23545015E+02</pdfrwt>
<pdfrwt beam="2">  1       21 0.16828311E-02 0.23545015E+02</pdfrwt>
<totfact> 0.51894706E+06</totfact>
</mgrwt>
</event>
<event>
 4    1  0.4578942E+006  0.2373542E+02  0.7546771E-02  0.1679859E+00
         21   -1    0    0  503  501  0.00000000000E+00  0.00000000000E+00  0.14383669296E+02  0.14383669296E+02  0.00000000000E+00 0.  1.
         21   -1    0    0  504  502 -0.00000000000E+00 -0.00000000000E+00 -0.67033848183E+02  0.67033848183E+02  0.00000000000E+00 0.  1.
         21    1    1    2  503  502 -0.12675928623E+01  0.23701552506E+02 -0.77955395980E-01  0.23735552657E+02  0.00000000000E+00 0.  1.
         21    1    1    2  504  501  0.12675928623E+01 -0.23701552506E+02 -0.52572223492E+02  0.57681964822E+02  0.00000000000E+00 0.  1.
<mgrwt>
<rscale>  2 0.23735425E+02</rscale>
<asrwt>0</asrwt>
<pdfrwt beam="1">  1       21 0.22128722E-02 0.23735425E+02</pdfrwt>
<pdfrwt beam="2">  1       21 0.10312900E-01 0.23735425E+02</pdfrwt>
<totfact> 0.57184856E+07</totfact>
</mgrwt>
</event>
<event>
 4    1  0.4578942E+006  0.2335441E+02  0.7546771E-02  0.1685829E+00
         21   -1    0    0  504  501  0.00000000000E+00  0.00000000000E+00  0.87319090910E+02  0.87319090910E+02  0.00000000000E+00 0. -1.
         21   -1    0    0  503  502 -0.00000000000E+00 -0.00000000000E+00 -0.67598200104E+02  0.67598200104E+02  0.00000000000E+00 0. -1.
         21    1    1    2  503  501 -0.15268625458E+02  0.17671935767E+02  0.83653596733E+02  0.86852475402E+02  0.00000000000E+00 0. -1.
         21    1    1    2  504  502  0.15268625458E+02 -0.17671935767E+02 -0.63932705927E+02  0.68064815612E+02  0.00000000000E+00 0. -1.
<mgrwt>
<rscale>  2 0.23354405E+02</rscale>
<asrwt>0</asrwt>
<pdfrwt beam="1">  1       21 0.13433706E-01 0.23354405E+02</pdfrwt>
<pdfrwt beam="2">  1       21 0.10399723E-01 0.23354405E+02</pdfrwt>
<totfact> 0.31087897E+06</totfact>
</mgrwt>
</event>
<event>
 4    1  0.4578942E+006  0.2461290E+02  0.7546771E-02  0.1666625E+00
         21   -1    0    0  503  501  0.00000000000E+00  0.00000000000E+00  0.59862890460E+01  0.59862890460E+01  0.00000000000E+00 0. -1.
         21   -1    0    0  504  502 -0.00000000000E+00 -0.00000000000E+00 -0.10940526750E+03  0.10940526750E+03  0.00000000000E+00 0. -1.
         21    1    1    2  503  502  0.30041592960E+01  0.24428874980E+02 -0.35906150669E+02  0.43532132519E+02  0.00000000000E+00 0. -1.
         21    1    1    2  504  501 -0.30041592960E+01 -0.24428874980E+02 -0.67512827782E+02  0.71859424023E+02  0.00000000000E+00 0. -1.
<mgrwt>
<rscale>  2 0.24612901E+02</rscale>
<asrwt>0</asrwt>
<pdfrwt beam="1">  1       21 0.92096764E-03 0.24612901E+02</pdfrwt>
<pdfrwt beam="2">  1       21 0.16831578E-01 0.24612901E+02</pdfrwt>
<totfact> 0.95701361E+07</totfact>
</mgrwt>
</event>
<event>
 4    1  0.4578942E+006  0.2040721E+02  0.7546771E-02  0.1737349E+00
         21   -1    0    0  504  501  0.00000000000E+00  0.00000000000E+00  0.15937199134E+02  0.15937199134E+02  0.00000000000E+00 0.  1.
         21   -1    0    0  501  502 -0.00000000000E+00 -0.00000000000E+00 -0.47107372619E+03  0.47107372619E+03  0.00000000000E+00 0.  1.
         21    1    1    2  503  502  0.33914845200E+01  0.20123424801E+02 -0.46422362064E+03  0.46467195348E+03  0.00000000000E+00 0.  1.
         21    1    1    2  504  503 -0.33914845200E+01 -0.20123424801E+02  0.90870935862E+01  0.22338971839E+02  0.00000000000E+00 0.  1.
<mgrwt>
<rscale>  2 0.20407214E+02</rscale>
<asrwt>0</asrwt>
<pdfrwt beam="1">  1       21 0.24518769E-02 0.20407214E+02</pdfrwt>
<pdfrwt beam="2">  1       21 0.72472877E-01 0.20407214E+02</pdfrwt>
<totfact> 0.13752365E+06</totfact>
</mgrwt>
</event>
<event>
 4    1  0.4578942E+006  0.3601232E+02  0.7546771E-02  0.1539790E+00
         21   -1    0    0  503  501  0.00000000000E+00  0.00000000000E+00  0.31958042212E+02  0.31958042212E+02  0.00000000000E+00 0. -1.
         21   -1    0    0  501  502 -0.00000000000E+00 -0.00000000000E+00 -0.67702700593E+02  0.67702700593E+02  0.00000000000E+00 0. -1.
         21    1    1    2  503  504  0.55605731329E+01  0.35580437854E+02  0.13666824272E+02  0.38518432174E+02  0.00000000000E+00 0. -1.
         21    1    1    2  504  502 -0.55605731329E+01 -0.35580437854E+02 -0.49411482652E+02  0.61142310631E+02  0.00000000000E+00 0. -1.
<mgrwt>
<rscale>  2 0.36012325E+02</rscale>
<asrwt>0</asrwt>
<pdfrwt beam="1">  1       21 0.49166220E-02 0.36012325E+02</pdfrwt>
<pdfrwt beam="2">  1       21 0.10415800E-01 0.36012325E+02</pdfrwt>
<totfact> 0.17412885E+07</totfact>
</mgrwt>
</event>
<event>
 4    1  0.4578942E+006  0.2330381E+02  0.7546771E-02  0.1686632E+00
         21   -1    0    0  503  501  0.00000000000E+00  0.00000000000E+00  0.32042755803E+01  0.32042755803E+01  0.00000000000E+00 0.  1.
         21   -1    0    0  504  502 -0.00000000000E+00 -0.00000000000E+00 -0.41151609461E+03  0.41151609461E+03  0.00000000000E+00 0. -1.
         21    1    1    2  503  502 -0.10286168234E+02  0.20910819726E+02 -0.45129203292E+02  0.50790871506E+02  0.00000000000E+00 0.  1.
         21    1    1    2  504  501  0.10286168234E+02 -0.20910819726E+02 -0.36318261574E+03  0.36392949868E+03  0.00000000000E+00 0. -1.
<mgrwt>
<rscale>  2 0.23303812E+02</rscale>
<asrwt>0</asrwt>
<pdfrwt beam="1">  1       21 0.49296550E-03 0.23303812E+02</pdfrwt>
<pdfrwt beam="2">  1       21 0.63310165E-01 0.23303812E+02</pdfrwt>
<totfact> 0.20642583E+07</totfact>
</mgrwt>
</event>
<event>
 4    1  0.4578942E+006  0.3163023E+02  0.7546771E-02  0.1580737E+00
         21   -1    0    0  504  501  0.00000000000E+00  0.00000000000E+00  0.39306199059E+01  0.39306199059E+01  0.00000000000E+00 0. -1.
         21   -1    0    0  503  502 -0.00000000000E+00 -0.00000000000E+00 -0.29151049514E+03  0.29151049514E+03  0.00000000000E+00 0. -1.
         21    1    1    2  503  501 -0.31598040965E+02  0.14266454900E+01 -0.19640184278E+03  0.19893253971E+03  0.00000000000E+00 0. -1.
         21    1    1    2  504  502  0.31598040965E+02 -0.14266454900E+01 -0.91178032456E+02  0.96508575332E+02  0.00000000000E+00 0. -1.
<mgrwt>
<rscale>  2 0.31630231E+02</rscale>
<asrwt>0</asrwt>
<pdfrwt beam="1">  1       21 0.60471068E-03 0.31630231E+02</pdfrwt>
<pdfrwt beam="2">  1       21 0.44847774E-01 0.31630231E+02</pdfrwt>
<totfact> 0.31930658E+07</totfact>
</mgrwt>
</event>
<event>
 4    1  0.4578942E+006  0.2291360E+02  0.7546771E-02  0.1692914E+00
         21   -1    0    0  504  501  0.00000000000E+00  0.00000000000E+00  0.76358203910E+02  0.76358203910E+02  0.00000000000E+00 0. -1.
         21   -1    0    0  503  502 -0.00000000000E+00 -0.00000000000E+00 -0.10530764210E+02  0.10530764210E+02  0.00000000000E+00 0.  1.
         21    1    1    2  503  501 -0.75983367852E+01  0.21617082986E+02  0.73196672197E+01  0.24054324496E+02  0.00000000000E+00 0.  1.
         21    1    1    2  504  502  0.75983367852E+01 -0.21617082986E+02  0.58507772481E+02  0.62834643624E+02  0.00000000000E+00 0. -1.
<mgrwt>
<rscale>  2 0.22913599E+02</rscale>
<asrwt>0</asrwt>
<pdfrwt beam="1">  1       21 0.11747416E-01 0.22913599E+02</pdfrwt>
<pdfrwt beam="2">  1       21 0.16201176E-02 0.22913599E+02</pdfrwt>
<totfact> 0.73532682E+07</totfact>
</mgrwt>
</event>
<event>
 4    1  0.4578942E+006  0.3314751E+02  0.7546771E-02  0.1565694E+00
         21   -1    0    0  503  501  0.00000000000E+00  0.00000000000E+00  0.22527399064E+03  0.22527399064E+03  0.00000000000E+00 0.  1.
         21   -1    0    0  504  502 -0.00000000000E+00 -0.00000000000E+00 -0.50210655468E+01  0.50210655468E+01  0.00000000000E+00 0.  1.
         21    1    1    2  503  502 -0.33016526034E+02 -0.29439235838E+01  0.90650873094E+02  0.96521181458E+02  0.00000000000E+00 0.  1.
         21    1    1    2  504  501  0.33016526034E+02  0.29439235838E+01  0.12960205200E+03  0.13377387473E+03  0.00000000000E+00 0.  1.
<mgrwt>
<rscale>  2 0.33147514E+02</rscale>
<asrwt>0</asrwt>
<pdfrwt beam="1">  1       21 0.34657529E-01 0.33147514E+02</pdfrwt>
<pdfrwt beam="2">  1       21 0.77247179E-03 0.33147514E+02</pdfrwt>
<totfact> 0.36448685E+07</totfact>
</mgrwt>
</event>
<event>
 4    1  0.4578942E+006  0.2827804E+02  0.7546771E-02  0.1617942E+00
         21   -1    0    0  503  501  0.00000000000E+00  0.00000000000E+00  0.37785315510E+02  0.37785315510E+02  0.00000000000E+00 0.  1.
         21   -1    0    0  501  502 -0.00000000000E+00 -0.00000000000E+00 -0.32513216489E+03  0.32513216489E+03  0.00000000000E+00 0. -1.
         21    1    1    2  503  504  0.96964314268E+01 -0.26563641079E+02  0.31780360515E+02  0.42539853364E+02  0.00000000000E+00 0.  1.
         21    1    1    2  504  502 -0.96964314268E+01  0.26563641079E+02 -0.31912720989E+03  0.32037762703E+03  0.00000000000E+00 0. -1.
<mgrwt>
<rscale>  2 0.28278045E+02</rscale>
<asrwt>0</asrwt>
<pdfrwt beam="1">  1       21 0.58131257E-02 0.28278045E+02</pdfrwt>
<pdfrwt beam="2">  1       21 0.50020331E-01 0.28278045E+02</pdfrwt>
<totfact> 0.76372384E+05</totfact>
</mgrwt>
</event>
<event>
 4    1  0.4578942E+006  0.2171302E+02  0.7546771E-02  0.1713263E+00
         21   -1    0    0  503  501  0.00000000000E+00  0.00000000000E+00  0.51556271444E+02  0.51556271444E+02  0.00000000000E+00 0.  1.
         21   -1    0    0  501  502 -0.00000000000E+00 -0.00000000000E+00 -0.17243946973E+03  0.17243946973E+03  0.00000000000E+00 0.  1.
         21    1    1    2  503  504  0.15442946534E+02  0.15263377399E+02  0.48546193354E+02  0.53180712448E+02  0.00000000000E+00 0.  1.
         21    1    1    2  504  502 -0.15442946534E+02 -0.15263377399E+02 -0.16942939164E+03  0.17081502873E+03  0.00000000000E+00 0.  1.
<mgrwt>
<rscale>  2 0.21713021E+02</rscale>
<asrwt>0</asrwt>
<pdfrwt beam="1">  1       21 0.79317341E-02 0.21713021E+02</pdfrwt>
<pdfrwt beam="2">  1       21 0.26529149E-01 0.21713021E+02</pdfrwt>
<totfact> 0.14748004E+06</totfact>
</mgrwt>
</event>
<event>
 4    1  0.4578942E+006  0.2143680E+02  0.7546771E-02  0.1718178E+00
         21   -1    0    0  502  501  0.00000000000E+00  0.00000000000E+00  0.19272342984E+02  0.19272342984E+02  0.00000000000E+00 0.  1.
         21   -1    0    0  503  502 -0.00000000000E+00 -0.00000000000E+00 -0.38812801579E+02  0.38812801579E+02  0.00000000000E+00 0.  1.
         21    1    1    2  503  504  0.10421149321E+01 -0.21411449795E+02 -0.27806064205E+02  0.35110018405E+02  0.00000000000E+00 0.  1.
         21    1    1    2  504  501 -0.10421149321E+01  0.21411449795E+02  0.82656056099E+01  0.22975126157E+02  0.00000000000E+00 0.  1.
<mgrwt>
<rscale>  2 0.21436795E+02</rscale>
<asrwt>0</asrwt>
<pdfrwt beam="1">  1       21 0.29649759E-02 0.21436795E+02</pdfrwt>
<pdfrwt beam="2">  1       21 0.59712002E-02 0.21436795E+02</pdfrwt>
<totfact> 0.86147362E+07</totfact>
</mgrwt>
</event>
<event>
 4    1  0.4578942E+006  0.2183194E+02  0.7546771E-02  0.1711175E+00
         21   -1    0    0  503  501  0.00000000000E+00  0.00000000000E+00  0.19614476597E+01  0.19614476597E+01  0.00000000000E+00 0. -1.
         21   -1    0    0  504  502 -0.00000000000E+00 -0.00000000000E+00 -0.27560497892E+03  0.27560497892E+03  0.00000000000E+00 0. -1.
         21    1    1    2  503  502  0.13022738410E+02 -0.17522613940E+02 -0.18455587296E+03  0.18584268605E+03  0.00000000000E+00 0. -1.
         21    1    1    2  504  501 -0.13022738410E+02  0.17522613940E+02 -0.89087658308E+02  0.91723740536E+02  0.00000000000E+00 0. -1.
<mgrwt>
<rscale>  2 0.21831943E+02</rscale>
<asrwt>0</asrwt>
<pdfrwt beam="1">  1       21 0.30176136E-03 0.21831943E+02</pdfrwt>
<pdfrwt beam="2">  1       21 0.42400741E-01 0.21831943E+02</pdfrwt>
<totfact> 0.91310183E+07</totfact>
</mgrwt>
</event>
<event>
 4    1  0.4578942E+006  0.2312019E+02  0.7546771E-02  0.1689569E+00
         21   -1    0    0  502  501  0.00000000000E+00  0.00000000000E+00  0.12818180673E+01  0.12818180673E+01  0.00000000000E+00 0.  1.
         21   -1    0    0  504  502 -0.00000000000E+00 -0.00000000000E+00 -0.13715527968E+04  0.13715527968E+04  0.00000000000E+00 0.  1.
         21    1    1    2  503  501  0.23074746618E+02 -0.14489568213E+01 -0.11250106528E+03  0.11485222287E+03  0.00000000000E+00 0.  1.
         21    1    1    2  504  503 -0.23074746618E+02  0.14489568213E+01 -0.12577699135E+04  0.12579823920E+04  0.00000000000E+00 0.  1.
<mgrwt>
<rscale>  2 0.23120195E+02</rscale>
<asrwt>0</asrwt>
<pdfrwt beam="1">  1       21 0.19720186E-03 0.23120195E+02</pdfrwt>
<pdfrwt beam="2">  1       21 0.21100911E+00 0.23120195E+02</pdfrwt>
<totfact> 0.51120899E+06</totfact>
</mgrwt>
</event>
<event>
 4    1  0.4578942E+006  0.5228697E+02  0.7546771E-02  0.1433383E+00
         21   -1    0    0  503  501  0.00000000000E+00  0.00000000000E+00  0.27857785091E+02  0.27857785091E+02  0.00000000000E+00 0.  1.
         21   -1    0    0  504  502 -0.00000000000E+00 -0.00000000000E+00 -0.16302829738E+03  0.16302829738E+03  0.00000000000E+00 0.  1.
         21    1    1    2  503  502  0.33766424842E+02 -0.39921866034E+02 -0.73708634916E+01  0.52803943630E+02  0.00000000000E+00 0.  1.
         21    1    1    2  504  501 -0.33766424842E+02  0.39921866034E+02 -0.12779964880E+03  0.13808213884E+03  0.00000000000E+00 0.  1.
<mgrwt>
<rscale>  2 0.52286966E+02</rscale>
<asrwt>0</asrwt>
<pdfrwt beam="1">  1       21 0.42858130E-02 0.52286966E+02</pdfrwt>
<pdfrwt beam="2">  1       21 0.25081277E-01 0.52286966E+02</pdfrwt>
<totfact> 0.48662470E+06</totfact>
</mgrwt>
</event>
<event>
 4    1  0.4578942E+006  0.2407755E+02  0.7546771E-02  0.1674616E+00
         21   -1    0    0  503  501  0.00000000000E+00  0.00000000000E+00  0.13984737651E+03  0.13984737651E+03  0.00000000000E+00 0. -1.
         21   -1    0    0  501  502 -0.00000000000E+00 -0.00000000000E+00 -0.12444362362E+02  0.12444362362E+02  0.00000000000E+00 0. -1.
         21    1    1    2  503  504 -0.34481991855E+01 -0.23829361106E+02  0.12588440353E+03  0.12816634340E+03  0.00000000000E+00 0. -1.
         21    1    1    2  504  502  0.34481991855E+01  0.23829361106E+02  0.15186106153E+01  0.24125395469E+02  0.00000000000E+00 0. -1.
<mgrwt>
<rscale>  2 0.24077552E+02</rscale>
<asrwt>0</asrwt>
<pdfrwt beam="1">  1       21 0.21514980E-01 0.24077552E+02</pdfrwt>
<pdfrwt beam="2">  1       21 0.19145174E-02 0.24077552E+02</pdfrwt>
<totfact> 0.20445964E+07</totfact>
</mgrwt>
</event>
<event>
 4    1  0.4578942E+006  0.2995150E+02  0.7546771E-02  0.1598625E+00
         21   -1    0    0  504  501  0.00000000000E+00  0.00000000000E+00  0.19448417845E+02  0.19448417845E+02  0.00000000000E+00 0.  1.
         21   -1    0    0  503  502 -0.00000000000E+00 -0.00000000000E+00 -0.20273067623E+03  0.20273067623E+03  0.00000000000E+00 0.  1.
         21    1    1    2  503  501 -0.29687094898E+02  0.39709937152E+01 -0.18927820823E+03  0.19163332827E+03  0.00000000000E+00 0.  1.
         21    1    1    2  504  502  0.29687094898E+02 -0.39709937152E+01  0.59959498355E+01  0.30545765811E+02  0.00000000000E+00 0.  1.
<mgrwt>
<rscale>  2 0.29951501E+02</rscale>
<asrwt>0</asrwt>
<pdfrwt beam="1">  1       21 0.29920643E-02 0.29951501E+02</pdfrwt>
<pdfrwt beam="2">  1       21 0.31189335E-01 0.29951501E+02</pdfrwt>
<totfact> 0.54339175E+06</totfact>
</mgrwt>
</event>
<event>
 4    1  0.4578942E+006  0.2048340E+02  0.7546771E-02  0.1735882E+00
         21   -1    0    0  503  501  0.00000000000E+00  0.00000000000E+00  0.94841500301E+01  0.94841500301E+01  0.00000000000E+00 0.  1.
         21   -1    0    0  501  502 -0.00000000000E+00 -0.00000000000E+00 -0.51116445009E+03  0.51116445009E+03  0.00000000000E+00 0. -1.
         21    1    1    2  503  504 -0.19004576963E+02 -0.76417069160E+01 -0.20356988755E+01  0.20584307131E+02  0.00000000000E+00 0.  1.
         21    1    1    2  504  502  0.19004576963E+02  0.76417069160E+01 -0.49964460118E+03  0.50006429299E+03  0.00000000000E+00 0. -1.
<mgrwt>
<rscale>  2 0.20483399E+02</rscale>
<asrwt>0</asrwt>
<pdfrwt beam="1">  1       21 0.14591000E-02 0.20483399E+02</pdfrwt>
<pdfrwt beam="2">  1       21 0.78640686E-01 0.20483399E+02</pdfrwt>
<totfact> 0.25645835E+06</totfact>
</mgrwt>
</event>
<event>
 4    1  0.4578942E+006  0.2387002E+02  0.7546771E-02  0.1677783E+00
         21   -1    0    0  504  501  0.00000000000E+00  0.00000000000E+00  0.15025021692E+04  0.15025021692E+04  0.00000000000E+00 0. -1.
         21   -1    0    0  503  502 -0.00000000000E+00 -0.00000000000E+00 -0.15405836818E+03  0.15405836818E+03  0.00000000000E+00 0. -1.
         21    1    1    2  503  501  0.23784581948E+02  0.20178425223E+01 -0.15303832132E+03  0.15488868848E+03  0.00000000000E+00 0. -1.
         21    1    1    2  504  502 -0.23784581948E+02 -0.20178425223E+01  0.15014821224E+04  0.15016718489E+04  0.00000000000E+00 0. -1.
<mgrwt>
<rscale>  2 0.23870024E+02</rscale>
<asrwt>0</asrwt>
<pdfrwt beam="1">  1       21 0.23115417E+00 0.23870024E+02</pdfrwt>
<pdfrwt beam="2">  1       21 0.23701288E-01 0.23870024E+02</pdfrwt>
<totfact> 0.22640641E+03</totfact>
</mgrwt>
</event>
<event>
 4    1  0.4578942E+006  0.3555396E+02  0.7546771E-02  0.1543736E+00
         21   -1    0    0  502  501  0.00000000000E+00  0.00000000000E+00  0.27633577796E+01  0.27633577796E+01  0.00000000000E+00 0.  1.
         21   -1    0    0  504  502 -0.00000000000E+00 -0.00000000000E+00 -0.53255423977E+03  0.53255423977E+03  0.00000000000E+00 0.  1.
         21    1    1    2  503  501 -0.24137483054E+02  0.26104906519E+02 -0.16437688298E+03  0.16817801250E+03  0.00000000000E+00 0.  1.
         21    1    1    2  504  503  0.24137483054E+02 -0.26104906519E+02 -0.36541399901E+03  0.36713958504E+03  0.00000000000E+00 0.  1.
<mgrwt>
<rscale>  2 0.35553962E+02</rscale>
<asrwt>0</asrwt>
<pdfrwt beam="1">  1       21 0.42513183E-03 0.35553962E+02</pdfrwt>
<pdfrwt beam="2">  1       21 0.81931448E-01 0.35553962E+02</pdfrwt>
<totfact> 0.16144280E+07</totfact>
</mgrwt>
</event>
<event>
 4    1  0.4578942E+006  0.2014271E+02  0.7546771E-02  0.1742505E+00
         21   -1    0    0  504  501  0.00000000000E+00  0.00000000000E+00  0.30501631599E+02  0.30501631599E+02  0.00000000000E+00 0.  1.
         21   -1    0    0  503  502 -0.00000000000E+00 -0.00000000000E+00 -0.28960355636E+02  0.28960355636E+02  0.00000000000E+00 0. -1.
         21    1    1    2  503  501 -0.10929602999E+02 -0.16919589113E+02 -0.21090983318E+02  0.29164332579E+02  0.00000000000E+00 0. -1.
         21    1    1    2  504  502  0.10929602999E+02  0.16919589113E+02  0.22632259281E+02  0.30297654655E+02  0.00000000000E+00 0.  1.
<mgrwt>
<rscale>  2 0.20142709E+02</rscale>
<asrwt>0</asrwt>
<pdfrwt beam="1">  1       21 0.46925587E-02 0.20142709E+02</pdfrwt>
<pdfrwt beam="2">  1       21 0.44554393E-02 0.20142709E+02</pdfrwt>
<totfact> 0.65680383E+07</totfact>
</mgrwt>
</event>
<event>
 4    1  0.4578942E+006  0.3414790E+02  0.7546771E-02  0.1556300E+00
         21   -1    0    0  504  501  0.00000000000E+00  0.00000000000E+00  0.55437763759E+02  0.55437763759E+02  0.00000000000E+00 0. -1.
         21   -1    0    0  503  502 -0.00000000000E+00 -0.00000000000E+00 -0.85433099019E+03  0.85433099019E+03  0.00000000000E+00 0.  1.
         21    1    1    2  503  501 -0.15870872552E+01  0.34111000170E+02  0.49803134342E+02  0.60385688444E+02  0.00000000000E+00 0. -1.
         21    1    1    2  504  502  0.15870872552E+01 -0.34111000170E+02 -0.84869636078E+03  0.84938306551E+03  0.00000000000E+00 0.  1.
<mgrwt>
<rscale>  2 0.34147902E+02</rscale>
<asrwt>0</asrwt>
<pdfrwt beam="1">  1       21 0.85288870E-02 0.34147902E+02</pdfrwt>
<pdfrwt beam="2">  1       21 0.13143553E+00 0.34147902E+02</pdfrwt>
<totfact> 0.51617993E+04</totfact>
</mgrwt>
</event>
<event>
 4    1  0.4578942E+006  0.2252891E+02  0.7546771E-02  0.1699262E+00
         21   -1    0    0  503  501  0.00000000000E+00  0.00000000000E+00  0.99245826105E+01  0.99245826105E+01  0.00000000000E+00 0. -1.
         21   -1    0    0  504  502 -0.00000000000E+00 -0.00000000000E+00 -0.51232753317E+02  0.51232753317E+02  0.00000000000E+00 0. -1.
         21    1    1    2  503  502  0.17178444195E+02 -0.14575755303E+02 -0.19358962358E+02  0.29703888823E+02  0.00000000000E+00 0. -1.
         21    1    1    2  504  501 -0.17178444195E+02  0.14575755303E+02 -0.21949208349E+02  0.31453447105E+02  0.00000000000E+00 0. -1.
<mgrwt>
<rscale>  2 0.22528906E+02</rscale>
<asrwt>0</asrwt>
<pdfrwt beam="1">  1       21 0.15268589E-02 0.22528906E+02</pdfrwt>
<pdfrwt beam="2">  1       21 0.78819620E-02 0.22528906E+02</pdfrwt>
<totfact> 0.15467653E+08</totfact>
</mgrwt>
</event>
<event>
 4    1  0.4578942E+006  0.2357324E+02  0.7546771E-02  0.1682383E+00
         21   -1    0    0  504  501  0.00000000000E+00  0.00000000000E+00  0.86616035689E+01  0.86616035689E+01  0.00000000000E+00 0. -1.
         21   -1    0    0  503  502 -0.00000000000E+00 -0.00000000000E+00 -0.67868185817E+02  0.67868185817E+02  0.00000000000E+00 0. -1.
         21    1    1    2  503  501  0.20448060117E+02 -0.11729210323E+02 -0.20654646220E+02  0.31341856164E+02  0.00000000000E+00 0. -1.
         21    1    1    2  504  502 -0.20448060117E+02  0.11729210323E+02 -0.38551936028E+02  0.45187933222E+02  0.00000000000E+00 0. -1.
<mgrwt>
<rscale>  2 0.23573238E+02</rscale>
<asrwt>0</asrwt>
<pdfrwt beam="1">  1       21 0.13325544E-02 0.23573238E+02</pdfrwt>
<pdfrwt beam="2">  1       21 0.10441259E-01 0.23573238E+02</pdfrwt>
<totfact> 0.12139302E+08</totfact>
</mgrwt>
</event>
<event>
 4    1  0.4578942E+006  0.2065332E+02  0.7546771E-02  0.1732640E+00
         21   -1    0    0  503  501  0.00000000000E+00  0.00000000000E+00  0.63473828961E+01  0.63473828961E+01  0.00000000000E+00 0. -1.
         21   -1    0    0  501  502 -0.00000000000E+00 -0.00000000000E+00 -0.19835430870E+03  0.19835430870E+03  0.00000000000E+00 0.  1.
         21    1    1    2  503  504 -0.34240682631E+01  0.20367506796E+02 -0.12777683905E+02  0.24286390891E+02  0.00000000000E+00 0. -1.
         21    1    1    2  504  502  0.34240682631E+01 -0.20367506796E+02 -0.17922924190E+03  0.18041530070E+03  0.00000000000E+00 0.  1.
<mgrwt>
<rscale>  2 0.20653319E+02</rscale>
<asrwt>0</asrwt>
<pdfrwt beam="1">  1       21 0.97652040E-03 0.20653319E+02</pdfrwt>
<pdfrwt beam="2">  1       21 0.30516049E-01 0.20653319E+02</pdfrwt>
<totfact> 0.29329596E+07</totfact>
</mgrwt>
</event>
<event>
 4    1  0.4578942E+006  0.2347427E+02  0.7546771E-02  0.1683936E+00
         21   -1    0    0  504  501  0.00000000000E+00  0.00000000000E+00  0.65697142831E+01  0.65697142831E+01  0.00000000000E+00 0. -1.
         21   -1    0    0  501  502 -0.00000000000E+00 -0.00000000000E+00 -0.95283062577E+02  0.95283062577E+02  0.00000000000E+00 0. -1.
         21    1    1    2  503  502  0.15606062429E+02  0.17535452156E+02 -0.61977335002E+02  0.66273911313E+02  0.00000000000E+00 0. -1.
         21    1    1    2  504  503 -0.15606062429E+02 -0.17535452156E+02 -0.26736013292E+02  0.35578865547E+02  0.00000000000E+00 0. -1.
<mgrwt>
<rscale>  2 0.23474268E+02</rscale>
<asrwt>0</asrwt>
<pdfrwt beam="1">  1       21 0.10107253E-02 0.23474268E+02</pdfrwt>
<pdfrwt beam="2">  1       21 0.14658932E-01 0.23474268E+02</pdfrwt>
<totfact> 0.10407413E+08</totfact>
</mgrwt>
</event>
<event>
 4    1  0.4578942E+006  0.3828695E+02  0.7546771E-02  0.1521210E+00
         21   -1    0    0  502  501  0.00000000000E+00  0.00000000000E+00  0.42585833056E+03  0.42585833056E+03  0.00000000000E+00 0. -1.
         21   -1    0    0  503  502 -0.00000000000E+00 -0.00000000000E+00 -0.11917275666E+02  0.11917275666E+02  0.00000000000E+00 0.  1.
         21    1    1    2  503  504  0.18637272877E+02 -0.33444623669E+02  0.22381965312E+02  0.44349105559E+02  0.00000000000E+00 0.  1.
         21    1    1    2  504  501 -0.18637272877E+02  0.33444623669E+02  0.39155908958E+03  0.39342650066E+03  0.00000000000E+00 0. -1.
<mgrwt>
<rscale>  2 0.38286953E+02</rscale>
<asrwt>0</asrwt>
<pdfrwt beam="1">  1       21 0.65516655E-01 0.38286953E+02</pdfrwt>
<pdfrwt beam="2">  1       21 0.18334274E-02 0.38286953E+02</pdfrwt>
<totfact> 0.28237741E+06</totfact>
</mgrwt>
</event>
<event>
 4    1  0.4578942E+006  0.2112116E+02  0.7546771E-02  0.1723910E+00
         21   -1    0    0  503  501  0.00000000000E+00  0.00000000000E+00  0.13946333865E+03  0.13946333865E+03  0.00000000000E+00 0. -1.
         21   -1    0    0  504  502 -0.00000000000E+00 -0.00000000000E+00 -0.45973698810E+01  0.45973698810E+01  0.00000000000E+00 0. -1.
         21    1    1    2  503  502 -0.16067389133E+02 -0.13709212069E+02  0.27703210565E+02  0.34836351197E+02  0.00000000000E+00 0. -1.
         21    1    1    2  504  501  0.16067389133E+02  0.13709212069E+02  0.10716275820E+03  0.10922435733E+03  0.00000000000E+00 0. -1.
<mgrwt>
<rscale>  2 0.21121162E+02</rscale>
<asrwt>0</asrwt>
<pdfrwt beam="1">  1       21 0.21455895E-01 0.21121162E+02</pdfrwt>
<pdfrwt beam="2">  1       21 0.70728778E-03 0.21121162E+02</pdfrwt>
<totfact> 0.89286161E+07</totfact>
</mgrwt>
</event>
<event>
 4    1  0.4578942E+006  0.2452110E+02  0.7546771E-02  0.1667977E+00
         21   -1    0    0  504  501  0.00000000000E+00  0.00000000000E+00  0.42330246828E+02  0.42330246828E+02  0.00000000000E+00 0. -1.
         21   -1    0    0  503  502 -0.00000000000E+00 -0.00000000000E+00 -0.21055192794E+03  0.21055192794E+03  0.00000000000E+00 0. -1.
         21    1    1    2  503  501  0.20540046244E+02 -0.13393678083E+02 -0.20621237212E+03  0.20766517890E+03  0.00000000000E+00 0. -1.
         21    1    1    2  504  502 -0.20540046244E+02  0.13393678083E+02  0.37990691006E+02  0.45216995869E+02  0.00000000000E+00 0. -1.
<mgrwt>
<rscale>  2 0.24521095E+02</rscale>
<asrwt>0</asrwt>
<pdfrwt beam="1">  1       21 0.65123456E-02 0.24521095E+02</pdfrwt>
<pdfrwt beam="2">  1       21 0.32392604E-01 0.24521095E+02</pdfrwt>
<totfact> 0.14328418E+06</totfact>
</mgrwt>
</event>
<event>
 4    1  0.4578942E+006  0.2042719E+02  0.7546771E-02  0.1736964E+00
         21   -1    0    0  504  501  0.00000000000E+00  0.00000000000E+00  0.84157597951E+00  0.84157597951E+00  0.00000000000E+00 0. -1.
         21   -1    0    0  503  502 -0.00000000000E+00 -0.00000000000E+00 -0.65477478755E+03  0.65477478755E+03  0.00000000000E+00 0. -1.
         21    1    1    2  503  501  0.12004773864E+02  0.16527412638E+02 -0.16545229528E+03  0.16670852401E+03  0.00000000000E+00 0. -1.
         21    1    1    2  504  502 -0.12004773864E+02 -0.16527412638E+02 -0.48848091629E+03  0.48890783952E+03  0.00000000000E+00 0. -1.
<mgrwt>
<rscale>  2 0.20427187E+02</rscale>
<asrwt>0</asrwt>
<pdfrwt beam="1">  1       21 0.12947319E-03 0.20427187E+02</pdfrwt>
<pdfrwt beam="2">  1       21 0.10073461E+00 0.20427187E+02</pdfrwt>
<totfact> 0.52665204E+07</totfact>
</mgrwt>
</event>
<event>
 4    1  0.4578942E+006  0.4321992E+02  0.7546771E-02  0.1485770E+00
         21   -1    0    0  502  501  0.00000000000E+00  0.00000000000E+00  0.96008661185E+01  0.96008661185E+01  0.00000000000E+00 0. -1.
         21   -1    0    0  504  502 -0.00000000000E+00 -0.00000000000E+00 -0.19460308883E+03  0.19460308883E+03  0.00000000000E+00 0. -1.
         21    1    1    2  503  501  0.39830436206E+02 -0.16777887094E+02 -0.91012671555E+02  0.10075349883E+03  0.00000000000E+00 0. -1.
         21    1    1    2  504  503 -0.39830436206E+02  0.16777887094E+02 -0.93989551153E+02  0.10345045611E+03  0.00000000000E+00 0. -1.
<mgrwt>
<rscale>  2 0.43219916E+02</rscale>
<asrwt>0</asrwt>
<pdfrwt beam="1">  1       21 0.14770563E-02 0.43219916E+02</pdfrwt>
<pdfrwt beam="2">  1       21 0.29938937E-01 0.43219916E+02</pdfrwt>
<totfact> 0.18580318E+07</totfact>
</mgrwt>
</event>
<event>
 4    1  0.4578942E+006  0.3066035E+02  0.7546771E-02  0.1590902E+00
         21   -1    0    0  503  501  0.00000000000E+00  0.00000000000E+00  0.16033216730E+03  0.16033216730E+03  0.00000000000E+00 0.  1.
         21   -1    0    0  501  502 -0.00000000000E+00 -0.00000000000E+00 -0.15271019032E+02  0.15271019032E+02  0.00000000000E+00 0.  1.
         21    1    1    2  503  504  0.22310335630E+02  0.21031071552E+02  0.14144548944E+03  0.14473038219E+03  0.00000000000E+00 0.  1.
         21    1    1    2  504  502 -0.22310335630E+02 -0.21031071552E+02  0.36156588260E+01  0.30872804137E+02  0.00000000000E+00 0.  1.
<mgrwt>
<rscale>  2 0.30660350E+02</rscale>
<asrwt>0</asrwt>
<pdfrwt beam="1">  1       21 0.24666486E-01 0.30660350E+02</pdfrwt>
<pdfrwt beam="2">  1       21 0.23493877E-02 0.30660350E+02</pdfrwt>
<totfact> 0.12213910E+07</totfact>
</mgrwt>
</event>
<event>
 4    1  0.4578942E+006  0.2678097E+02  0.7546771E-02  0.1636665E+00
         21   -1    0    0  504  501  0.00000000000E+00  0.00000000000E+00  0.44149827141E+02  0.44149827141E+02  0.00000000000E+00 0. -1.
         21   -1    0    0  503  502 -0.00000000000E+00 -0.00000000000E+00 -0.46986129748E+02  0.46986129748E+02  0.00000000000E+00 0. -1.
         21    1    1    2  503  501  0.14017434975E+02 -0.22819549184E+02  0.35440022937E+02  0.44420890739E+02  0.00000000000E+00 0. -1.
         21    1    1    2  504  502 -0.14017434975E+02  0.22819549184E+02 -0.38276325544E+02  0.46715066150E+02  0.00000000000E+00 0. -1.
<mgrwt>
<rscale>  2 0.26780969E+02</rscale>
<asrwt>0</asrwt>
<pdfrwt beam="1">  1       21 0.67922811E-02 0.26780969E+02</pdfrwt>
<pdfrwt beam="2">  1       21 0.72286353E-02 0.26780969E+02</pdfrwt>
<totfact> 0.17909024E+07</totfact>
</mgrwt>
</event>
<event>
 4    1  0.4578942E+006  0.2842694E+02  0.7546771E-02  0.1616157E+00
         21   -1    0    0  504  501  0.00000000000E+00  0.00000000000E+00  0.27587369440E+03  0.27587369440E+03  0.00000000000E+00 0.  1.
         21   -1    0    0  503  502 -0.00000000000E+00 -0.00000000000E+00 -0.33389531406E+01  0.33389531406E+01  0.00000000000E+00 0.  1.
         21    1    1    2  503  501 -0.19122078473E+02 -0.21034185601E+02  0.87361842194E+02  0.91870464898E+02  0.00000000000E+00 0.  1.
         21    1    1    2  504  502  0.19122078473E+02  0.21034185601E+02  0.18517289907E+03  0.18734218264E+03  0.00000000000E+00 0.  1.
<mgrwt>
<rscale>  2 0.28426939E+02</rscale>
<asrwt>0</asrwt>
<pdfrwt beam="1">  1       21 0.42442089E-01 0.28426939E+02</pdfrwt>
<pdfrwt beam="2">  1       21 0.51368531E-03 0.28426939E+02</pdfrwt>
<totfact> 0.44364250E+07</totfact>
</mgrwt>
</event>
<event>
 4    1  0.4578942E+006  0.2394721E+02  0.7546771E-02  0.1676601E+00
         21   -1    0    0  504  501  0.00000000000E+00  0.00000000000E+00  0.44848634451E+03  0.44848634451E+03  0.00000000000E+00 0. -1.
         21   -1    0    0  501  502 -0.00000000000E+00 -0.00000000000E+00 -0.13797015592E+01  0.13797015592E+01  0.00000000000E+00 0. -1.
         21    1    1    2  503  502 -0.21807966640E+02  0.98935091394E+01  0.16268724853E+03  0.16444029241E+03  0.00000000000E+00 0. -1.
         21    1    1    2  504  503  0.21807966640E+02 -0.98935091394E+01  0.28441939442E+03  0.28542575366E+03  0.00000000000E+00 0. -1.
<mgrwt>
<rscale>  2 0.23947211E+02</rscale>
<asrwt>0</asrwt>
<pdfrwt beam="1">  1       21 0.68997783E-01 0.23947211E+02</pdfrwt>
<pdfrwt beam="2">  1       21 0.21226214E-03 0.23947211E+02</pdfrwt>
<totfact> 0.59706003E+07</totfact>
</mgrwt>
</event>
<event>
 4    1  0.4578942E+006  0.3259285E+02  0.7546771E-02  0.1571078E+00
         21   -1    0    0  504  501  0.00000000000E+00  0.00000000000E+00  0.34807861705E+01  0.34807861705E+01  0.00000000000E+00 0.  1.
         21   -1    0    0  503  502 -0.00000000000E+00 -0.00000000000E+00 -0.58875849991E+03  0.58875849991E+03  0.00000000000E+00 0.  1.
         21    1    1    2  503  501  0.18580440690E+02  0.26777992034E+02 -0.87130605227E+02  0.93027071333E+02  0.00000000000E+00 0.  1.
         21    1    1    2  504  502 -0.18580440690E+02 -0.26777992034E+02 -0.49814710851E+03  0.49921221475E+03  0.00000000000E+00 0.  1.
<mgrwt>
<rscale>  2 0.32592846E+02</rscale>
<asrwt>0</asrwt>
<pdfrwt beam="1">  1       21 0.53550531E-03 0.32592846E+02</pdfrwt>
<pdfrwt beam="2">  1       21 0.90578274E-01 0.32592846E+02</pdfrwt>
<totfact> 0.91025318E+06</totfact>
</mgrwt>
</event>
<event>
 4    1  0.4578942E+006  0.2697789E+02  0.7546771E-02  0.1634117E+00
         21   -1    0    0  504  501  0.00000000000E+00  0.00000000000E+00  0.29919619746E+02  0.29919619746E+02  0.00000000000E+00 0.  1.
         21   -1    0    0  503  502 -0.00000000000E+00 -0.00000000000E+00 -0.31091591759E+02  0.31091591759E+02  0.00000000000E+00 0.  1.
         21    1    1    2  503  501 -0.82965229624E+01  0.25670489005E+02  0.13644861844E+02  0.30232243611E+02  0.00000000000E+00 0.  1.
         21    1    1    2  504  502  0.82965229624E+01 -0.25670489005E+02 -0.14816833857E+02  0.30778967894E+02  0.00000000000E+00 0.  1.
<mgrwt>
<rscale>  2 0.26977885E+02</rscale>
<asrwt>0</asrwt>
<pdfrwt beam="1">  1       21 0.46030184E-02 0.26977885E+02</pdfrwt>
<pdfrwt beam="2">  1       21 0.47833218E-02 0.26977885E+02</pdfrwt>
<totfact> 0.65389417E+07</totfact>
</mgrwt>
</event>
<event>
 4    1  0.4578942E+006  0.2353086E+02  0.7546771E-02  0.1683047E+00
         21   -1    0    0  503  501  0.00000000000E+00  0.00000000000E+00  0.50298200246E+01  0.50298200246E+01  0.00000000000E+00 0. -1.
         21   -1    0    0  504  502 -0.00000000000E+00 -0.00000000000E+00 -0.11396239856E+03  0.11396239856E+03  0.00000000000E+00 0.  1.
         21    1    1    2  503  502  0.14208337189E+02  0.18756991724E+02 -0.43490228610E+02  0.49447968298E+02  0.00000000000E+00 0. -1.
         21    1    1    2  504  501 -0.14208337189E+02 -0.18756991724E+02 -0.65442349927E+02  0.69544250289E+02  0.00000000000E+00 0.  1.
<mgrwt>
<rscale>  2 0.23530865E+02</rscale>
<asrwt>0</asrwt>
<pdfrwt beam="1">  1       21 0.77381857E-03 0.23530865E+02</pdfrwt>
<pdfrwt beam="2">  1       21 0.17532674E-01 0.23530865E+02</pdfrwt>
<totfact> 0.11433768E+08</totfact>
</mgrwt>
</event>
<event>
 4    1  0.4578942E+006  0.2474960E+02  0.7546771E-02  0.1664625E+00
         21   -1    0    0  503  501  0.00000000000E+00  0.00000000000E+00  0.26958141832E+01  0.26958141832E+01  0.00000000000E+00 0. -1.
         21   -1    0    0  504  502 -0.00000000000E+00 -0.00000000000E+00 -0.23772247715E+03  0.23772247715E+03  0.00000000000E+00 0. -1.
         21    1    1    2  503  502  0.24160802166E+02  0.53664005408E+01 -0.92246520740E+02  0.95508969237E+02  0.00000000000E+00 0. -1.
         21    1    1    2  504  501 -0.24160802166E+02 -0.53664005408E+01 -0.14278014223E+03  0.14490932210E+03  0.00000000000E+00 0. -1.
<mgrwt>
<rscale>  2 0.24749598E+02</rscale>
<asrwt>0</asrwt>
<pdfrwt beam="1">  1       21 0.41474066E-03 0.24749598E+02</pdfrwt>
<pdfrwt beam="2">  1       21 0.36572687E-01 0.24749598E+02</pdfrwt>
<totfact> 0.78201479E+07</totfact>
</mgrwt>
</event>
<event>
 4    1  0.4578942E+006  0.2310360E+02  0.7546771E-02  0.1689836E+00
         21   -1    0    0  504  501  0.00000000000E+00  0.00000000000E+00  0.22541025932E+03  0.22541025932E+03  0.00000000000E+00 0. -1.
         21   -1    0    0  503  502 -0.00000000000E+00 -0.00000000000E+00 -0.27001325836E+03  0.27001325836E+03  0.00000000000E+00 0. -1.
         21    1    1    2  503  501 -0.25798931021E+01 -0.22959103769E+02 -0.26892464795E+03  0.26991525072E+03  0.00000000000E+00 0. -1.
         21    1    1    2  504  502  0.25798931021E+01  0.22959103769E+02  0.22432164892E+03  0.22550826696E+03  0.00000000000E+00 0. -1.
<mgrwt>
<rscale>  2 0.23103599E+02</rscale>
<asrwt>0</asrwt>
<pdfrwt beam="1">  1       21 0.34678501E-01 0.23103599E+02</pdfrwt>
<pdfrwt beam="2">  1       21 0.41540501E-01 0.23103599E+02</pdfrwt>
<totfact> 0.51056454E+04</totfact>
</mgrwt>
</event>
<event>
 4    1  0.4578942E+006  0.2343705E+02  0.7546771E-02  0.1684522E+00
         21   -1    0    0  504  501  0.00000000000E+00  0.00000000000E+00  0.56280406164E+02  0.56280406164E+02  0.00000000000E+00 0.  1.
         21   -1    0    0  503  502 -0.00000000000E+00 -0.00000000000E+00 -0.32923193944E+02  0.32923193944E+02  0.00000000000E+00 0.  1.
         21    1    1    2  503  501  0.22474620457E+02 -0.66473246500E+01 -0.25732525105E+02  0.34806010084E+02  0.00000000000E+00 0.  1.
         21    1    1    2  504  502 -0.22474620457E+02  0.66473246500E+01  0.49089737325E+02  0.54397590023E+02  0.00000000000E+00 0.  1.
<mgrwt>
<rscale>  2 0.23437054E+02</rscale>
<asrwt>0</asrwt>
<pdfrwt beam="1">  1       21 0.86585240E-02 0.23437054E+02</pdfrwt>
<pdfrwt beam="2">  1       21 0.50651068E-02 0.23437054E+02</pdfrwt>
<totfact> 0.20793745E+07</totfact>
</mgrwt>
</event>
<event>
 4    1  0.4578942E+006  0.4168740E+02  0.7546771E-02  0.1496149E+00
         21   -1    0    0  504  501  0.00000000000E+00  0.00000000000E+00  0.79910902002E+02  0.79910902002E+02  0.00000000000E+00 0.  1.
         21   -1    0    0  503  502 -0.00000000000E+00 -0.00000000000E+00 -0.26711117514E+02  0.26711117514E+02  0.00000000000E+00 0.  1.
         21    1    1    2  503  501  0.36913122142E+02  0.19371653132E+02  0.49581611806E+02  0.64777895617E+02  0.00000000000E+00 0.  1.
         21    1    1    2  504  502 -0.36913122142E+02 -0.19371653132E+02  0.36181726818E+01  0.41844123899E+02  0.00000000000E+00 0.  1.
<mgrwt>
<rscale>  2 0.41687403E+02</rscale>
<asrwt>0</asrwt>
<pdfrwt beam="1">  1       21 0.12293985E-01 0.41687403E+02</pdfrwt>
<pdfrwt beam="2">  1       21 0.41094027E-02 0.41687403E+02</pdfrwt>
<totfact> 0.17953333E+07</totfact>
</mgrwt>
</event>
<event>
 4    1  0.4578942E+006  0.7827357E+02  0.7546771E-02  0.1334023E+00
         21   -1    0    0  503  501  0.00000000000E+00  0.00000000000E+00  0.25398753360E+03  0.25398753360E+03  0.00000000000E+00 0. -1.
         21   -1    0    0  501  502 -0.00000000000E+00 -0.00000000000E+00 -0.32706413581E+02  0.32706413581E+02  0.00000000000E+00 0. -1.
         21    1    1    2  503  504  0.72754676019E+02  0.28870546558E+02  0.18407858744E+03  0.20002919211E+03  0.00000000000E+00 0. -1.
         21    1    1    2  504  502 -0.72754676019E+02 -0.28870546558E+02  0.37202532573E+02  0.86664755068E+02  0.00000000000E+00 0. -1.
<mgrwt>
<rscale>  2 0.78273567E+02</rscale>
<asrwt>0</asrwt>
<pdfrwt beam="1">  1       21 0.39075004E-01 0.78273567E+02</pdfrwt>
<pdfrwt beam="2">  1       21 0.50317561E-02 0.78273567E+02</pdfrwt>
<totfact> 0.16517536E+06</totfact>
</mgrwt>
</event>
<event>
 4    1  0.4578942E+006  0.4636175E+02  0.7546771E-02  0.1466015E+00
         21   -1    0    0  502  501  0.00000000000E+00  0.00000000000E+00  0.32785118835E+03  0.32785118835E+03  0.00000000000E+00 0. -1.
         21   -1    0    0  504  502 -0.00000000000E+00 -0.00000000000E+00 -0.10501637508E+02  0.10501637508E+02  0.00000000000E+00 0.  1.
         21    1    1    2  503  501  0.70429582530E+01  0.45823671194E+02  0.26237186881E+03  0.26643650209E+03  0.00000000000E+00 0. -1.
         21    1    1    2  504  503 -0.70429582530E+01 -0.45823671194E+02  0.54977682029E+02  0.71916323765E+02  0.00000000000E+00 0.  1.
<mgrwt>
<rscale>  2 0.46361753E+02</rscale>
<asrwt>0</asrwt>
<pdfrwt beam="1">  1       21 0.50438637E-01 0.46361753E+02</pdfrwt>
<pdfrwt beam="2">  1       21 0.16156368E-02 0.46361753E+02</pdfrwt>
<totfact> 0.59594323E+06</totfact>
</mgrwt>
</event>
<event>
 4    1  0.4578942E+006  0.2059357E+02  0.7546771E-02  0.1733775E+00
         21   -1    0    0  503  501  0.00000000000E+00  0.00000000000E+00  0.25015065470E+03  0.25015065470E+03  0.00000000000E+00 0.  1.
         21   -1    0    0  504  502 -0.00000000000E+00 -0.00000000000E+00 -0.19877809546E+02  0.19877809546E+02  0.00000000000E+00 0. -1.
         21    1    1    2  503  502 -0.55673176253E+01  0.19826751658E+02 -0.13991896720E+02  0.24897154067E+02  0.00000000000E+00 0. -1.
         21    1    1    2  504  501  0.55673176253E+01 -0.19826751658E+02  0.24426474187E+03  0.24513131018E+03  0.00000000000E+00 0.  1.
<mgrwt>
<rscale>  2 0.20593570E+02</rscale>
<asrwt>0</asrwt>
<pdfrwt beam="1">  1       21 0.38484714E-01 0.20593570E+02</pdfrwt>
<pdfrwt beam="2">  1       21 0.30581247E-02 0.20593570E+02</pdfrwt>
<totfact> 0.33684107E+06</totfact>
</mgrwt>
</event>
<event>
 4    1  0.4578942E+006  0.2498362E+02  0.7546771E-02  0.1661237E+00
         21   -1    0    0  503  501  0.00000000000E+00  0.00000000000E+00  0.28071794940E+02  0.28071794940E+02  0.00000000000E+00 0. -1.
         21   -1    0    0  504  502 -0.00000000000E+00 -0.00000000000E+00 -0.31149250705E+02  0.31149250705E+02  0.00000000000E+00 0.  1.
         21    1    1    2  503  502 -0.24898090649E+02 -0.20654625258E+01  0.14301470749E+02  0.28787377772E+02  0.00000000000E+00 0. -1.
         21    1    1    2  504  501  0.24898090649E+02  0.20654625258E+01 -0.17378926513E+02  0.30433667873E+02  0.00000000000E+00 0.  1.
<mgrwt>
<rscale>  2 0.24983616E+02</rscale>
<asrwt>0</asrwt>
<pdfrwt beam="1">  1       21 0.43187377E-02 0.24983616E+02</pdfrwt>
<pdfrwt beam="2">  1       21 0.47921924E-02 0.24983616E+02</pdfrwt>
<totfact> 0.70784652E+07</totfact>
</mgrwt>
</event>
<event>
 4    1  0.4578942E+006  0.3453689E+02  0.7546771E-02  0.1552752E+00
         21   -1    0    0  504  501  0.00000000000E+00  0.00000000000E+00  0.15171666842E+02  0.15171666842E+02  0.00000000000E+00 0.  1.
         21   -1    0    0  501  502 -0.00000000000E+00 -0.00000000000E+00 -0.10924482295E+03  0.10924482295E+03  0.00000000000E+00 0. -1.
         21    1    1    2  503  502  0.23928372022E+02  0.24904414265E+02 -0.79973584653E+02  0.87112404855E+02  0.00000000000E+00 0. -1.
         21    1    1    2  504  503 -0.23928372022E+02 -0.24904414265E+02 -0.14099571451E+02  0.37304084932E+02  0.00000000000E+00 0.  1.
<mgrwt>
<rscale>  2 0.34536891E+02</rscale>
<asrwt>0</asrwt>
<pdfrwt beam="1">  1       21 0.23341025E-02 0.34536891E+02</pdfrwt>
<pdfrwt beam="2">  1       21 0.16806896E-01 0.34536891E+02</pdfrwt>
<totfact> 0.24864334E+07</totfact>
</mgrwt>
</event>
<event>
 4    1  0.4578942E+006  0.2297407E+02  0.7546771E-02  0.1691931E+00
         21   -1    0    0  504  501  0.00000000000E+00  0.00000000000E+00  0.67706822852E+01  0.67706822852E+01  0.00000000000E+00 0. -1.
         21   -1    0    0  501  502 -0.00000000000E+00 -0.00000000000E+00 -0.24435053085E+03  0.24435053085E+03  0.00000000000E+00 0. -1.
         21    1    1    2  503  502  0.22960065485E+02 -0.80213939195E+00 -0.22240374474E+03  0.22358719487E+03  0.00000000000E+00 0. -1.
         21    1    1    2  504  503 -0.22960065485E+02  0.80213939195E+00 -0.15176103827E+02  0.27534018269E+02  0.00000000000E+00 0. -1.
<mgrwt>
<rscale>  2 0.22974073E+02</rscale>
<asrwt>0</asrwt>
<pdfrwt beam="1">  1       21 0.10416433E-02 0.22974073E+02</pdfrwt>
<pdfrwt beam="2">  1       21 0.37592394E-01 0.22974073E+02</pdfrwt>
<totfact> 0.18567269E+07</totfact>
</mgrwt>
</event>
<event>
 4    1  0.4578942E+006  0.2182819E+02  0.7546771E-02  0.1711240E+00
         21   -1    0    0  503  501  0.00000000000E+00  0.00000000000E+00  0.44814375187E+02  0.44814375187E+02  0.00000000000E+00 0. -1.
         21   -1    0    0  501  502 -0.00000000000E+00 -0.00000000000E+00 -0.11949007543E+02  0.11949007543E+02  0.00000000000E+00 0. -1.
         21    1    1    2  503  504  0.21185171528E+02 -0.52591349807E+01  0.25854907316E+02  0.33837054035E+02  0.00000000000E+00 0. -1.
         21    1    1    2  504  502 -0.21185171528E+02  0.52591349807E+01  0.70104603277E+01  0.22926328695E+02  0.00000000000E+00 0. -1.
<mgrwt>
<rscale>  2 0.21828193E+02</rscale>
<asrwt>0</asrwt>
<pdfrwt beam="1">  1       21 0.68945192E-02 0.21828193E+02</pdfrwt>
<pdfrwt beam="2">  1       21 0.18383089E-02 0.21828193E+02</pdfrwt>
<totfact> 0.14345291E+08</totfact>
</mgrwt>
</event>
<event>
 4    1  0.4578942E+006  0.2343164E+02  0.7546771E-02  0.1684607E+00
         21   -1    0    0  503  501  0.00000000000E+00  0.00000000000E+00  0.55715430121E+02  0.55715430121E+02  0.00000000000E+00 0. -1.
         21   -1    0    0  504  502 -0.00000000000E+00 -0.00000000000E+00 -0.10320976464E+03  0.10320976464E+03  0.00000000000E+00 0.  1.
         21    1    1    2  503  502 -0.20665460009E+02  0.11044488027E+02 -0.99321097816E+02  0.10204764782E+03  0.00000000000E+00 0.  1.
         21    1    1    2  504  501  0.20665460009E+02 -0.11044488027E+02  0.51826763295E+02  0.56877546948E+02  0.00000000000E+00 0. -1.
<mgrwt>
<rscale>  2 0.23431644E+02</rscale>
<asrwt>0</asrwt>
<pdfrwt beam="1">  1       21 0.85716046E-02 0.23431644E+02</pdfrwt>
<pdfrwt beam="2">  1       21 0.15878425E-01 0.23431644E+02</pdfrwt>
<totfact> 0.32196953E+06</totfact>
</mgrwt>
</event>
<event>
 4    1  0.4578942E+006  0.2203778E+02  0.7546771E-02  0.1707599E+00
         21   -1    0    0  502  501  0.00000000000E+00  0.00000000000E+00  0.62047968867E+03  0.62047968867E+03  0.00000000000E+00 0. -1.
         21   -1    0    0  503  502 -0.00000000000E+00 -0.00000000000E+00 -0.45117099165E+03  0.45117099165E+03  0.00000000000E+00 0.  1.
         21    1    1    2  503  504 -0.76285895358E+01  0.20675310642E+02 -0.45070599612E+03  0.45124445569E+03  0.00000000000E+00 0.  1.
         21    1    1    2  504  501  0.76285895358E+01 -0.20675310642E+02  0.62001469314E+03  0.62040622463E+03  0.00000000000E+00 0. -1.
<mgrwt>
<rscale>  2 0.22037782E+02</rscale>
<asrwt>0</asrwt>
<pdfrwt beam="1">  1       21 0.95458415E-01 0.22037782E+02</pdfrwt>
<pdfrwt beam="2">  1       21 0.69410921E-01 0.22037782E+02</pdfrwt>
<totfact> 0.24903435E+03</totfact>
</mgrwt>
</event>
<event>
 4    1  0.4578942E+006  0.2579247E+02  0.7546771E-02  0.1649874E+00
         21   -1    0    0  503  501  0.00000000000E+00  0.00000000000E+00  0.32718131019E+01  0.32718131019E+01  0.00000000000E+00 0.  1.
         21   -1    0    0  504  502 -0.00000000000E+00 -0.00000000000E+00 -0.55198456882E+03  0.55198456882E+03  0.00000000000E+00 0. -1.
         21    1    1    2  503  502 -0.62627810414E+01 -0.25020568504E+02 -0.49500387692E+03  0.49567538716E+03  0.00000000000E+00 0. -1.
         21    1    1    2  504  501  0.62627810414E+01  0.25020568504E+02 -0.53708878804E+02  0.59580994764E+02  0.00000000000E+00 0.  1.
<mgrwt>
<rscale>  2 0.25792465E+02</rscale>
<asrwt>0</asrwt>
<pdfrwt beam="1">  1       21 0.50335575E-03 0.25792465E+02</pdfrwt>
<pdfrwt beam="2">  1       21 0.84920721E-01 0.25792465E+02</pdfrwt>
<totfact> 0.11088808E+07</totfact>
</mgrwt>
</event>
<event>
 4    1  0.4578942E+006  0.2603866E+02  0.7546771E-02  0.1646516E+00
         21   -1    0    0  503  501  0.00000000000E+00  0.00000000000E+00  0.16656383076E+01  0.16656383076E+01  0.00000000000E+00 0.  1.
         21   -1    0    0  501  502 -0.00000000000E+00 -0.00000000000E+00 -0.55659898115E+03  0.55659898115E+03  0.00000000000E+00 0.  1.
         21    1    1    2  503  504 -0.25839750749E+02 -0.32123054893E+01 -0.13278323321E+03  0.13531222653E+03  0.00000000000E+00 0.  1.
         21    1    1    2  504  502  0.25839750749E+02  0.32123054893E+01 -0.42215010963E+03  0.42295239293E+03  0.00000000000E+00 0.  1.
<mgrwt>
<rscale>  2 0.26038656E+02</rscale>
<asrwt>0</asrwt>
<pdfrwt beam="1">  1       21 0.25625144E-03 0.26038656E+02</pdfrwt>
<pdfrwt beam="2">  1       21 0.85630816E-01 0.26038656E+02</pdfrwt>
<totfact> 0.29419265E+07</totfact>
</mgrwt>
</event>
<event>
 4    1  0.4578942E+006  0.2341054E+02  0.7546771E-02  0.1684941E+00
         21   -1    0    0  504  501  0.00000000000E+00  0.00000000000E+00  0.11024984057E+02  0.11024984057E+02  0.00000000000E+00 0. -1.
         21   -1    0    0  501  502 -0.00000000000E+00 -0.00000000000E+00 -0.66378355475E+02  0.66378355475E+02  0.00000000000E+00 0.  1.
         21    1    1    2  503  502  0.22833639958E+02 -0.51650842942E+01 -0.47070416200E+02  0.52570688513E+02  0.00000000000E+00 0.  1.
         21    1    1    2  504  503 -0.22833639958E+02  0.51650842942E+01 -0.82829552179E+01  0.24832651020E+02  0.00000000000E+00 0. -1.
<mgrwt>
<rscale>  2 0.23410536E+02</rscale>
<asrwt>0</asrwt>
<pdfrwt beam="1">  1       21 0.16961513E-02 0.23410536E+02</pdfrwt>
<pdfrwt beam="2">  1       21 0.10212055E-01 0.23410536E+02</pdfrwt>
<totfact> 0.87080563E+07</totfact>
</mgrwt>
</event>
<event>
 4    1  0.4578942E+006  0.2162369E+02  0.7546771E-02  0.1714842E+00
         21   -1    0    0  503  501  0.00000000000E+00  0.00000000000E+00  0.11372378771E+03  0.11372378771E+03  0.00000000000E+00 0.  1.
         21   -1    0    0  504  502 -0.00000000000E+00 -0.00000000000E+00 -0.41549542427E+01  0.41549542427E+01  0.00000000000E+00 0.  1.
         21    1    1    2  503  502 -0.16162614888E+02 -0.14365027862E+02  0.48762263836E+02  0.53341752126E+02  0.00000000000E+00 0.  1.
         21    1    1    2  504  501  0.16162614888E+02  0.14365027862E+02  0.60806569633E+02  0.64536989828E+02  0.00000000000E+00 0.  1.
<mgrwt>
<rscale>  2 0.21623694E+02</rscale>
<asrwt>0</asrwt>
<pdfrwt beam="1">  1       21 0.17495965E-01 0.21623694E+02</pdfrwt>
<pdfrwt beam="2">  1       21 0.63922382E-03 0.21623694E+02</pdfrwt>
<totfact> 0.14877352E+08</totfact>
</mgrwt>
</event>
<event>
 4    1  0.4578942E+006  0.6506768E+02  0.7546771E-02  0.1377717E+00
         21   -1    0    0  503  501  0.00000000000E+00  0.00000000000E+00  0.74351797916E+02  0.74351797916E+02  0.00000000000E+00 0. -1.
         21   -1    0    0  501  502 -0.00000000000E+00 -0.00000000000E+00 -0.17590954181E+03  0.17590954181E+03  0.00000000000E+00 0. -1.
         21    1    1    2  503  504 -0.62286334293E+02 -0.18820599193E+02  0.52125016291E+02  0.83371576194E+02  0.00000000000E+00 0. -1.
         21    1    1    2  504  502  0.62286334293E+02  0.18820599193E+02 -0.15368276019E+03  0.16688976354E+03  0.00000000000E+00 0. -1.
<mgrwt>
<rscale>  2 0.65067675E+02</rscale>
<asrwt>0</asrwt>
<pdfrwt beam="1">  1       21 0.11438738E-01 0.65067675E+02</pdfrwt>
<pdfrwt beam="2">  1       21 0.27063006E-01 0.65067675E+02</pdfrwt>
<totfact> 0.82629781E+05</totfact>
</mgrwt>
</event>
<event>
 4    1  0.4578942E+006  0.4167729E+02  0.7546771E-02  0.1496219E+00
         21   -1    0    0  503  501  0.00000000000E+00  0.00000000000E+00  0.81355967579E+02  0.81355967579E+02  0.00000000000E+00 0. -1.
         21   -1    0    0  504  502 -0.00000000000E+00 -0.00000000000E+00 -0.21685645499E+02  0.21685645499E+02  0.00000000000E+00 0. -1.
         21    1    1    2  503  502 -0.40828482708E+02  0.83684856316E+01  0.23430949750E+02  0.47812194660E+02  0.00000000000E+00 0. -1.
         21    1    1    2  504  501  0.40828482708E+02 -0.83684856316E+01  0.36239372330E+02  0.55229418418E+02  0.00000000000E+00 0. -1.
<mgrwt>
<rscale>  2 0.41677291E+02</rscale>
<asrwt>0</asrwt>
<pdfrwt beam="1">  1       21 0.12516303E-01 0.41677291E+02</pdfrwt>
<pdfrwt beam="2">  1       21 0.33362532E-02 0.41677291E+02</pdfrwt>
<totfact> 0.24320254E+07</totfact>
</mgrwt>
</event>
<event>
 4    1  0.4578942E+006  0.2435586E+02  0.7546771E-02  0.1670430E+00
         21   -1    0    0  504  501  0.00000000000E+00  0.00000000000E+00  0.10751725280E+02  0.10751725280E+02  0.00000000000E+00 0.  1.
         21   -1    0    0  501  502 -0.00000000000E+00 -0.00000000000E+00 -0.90426972313E+02  0.90426972313E+02  0.00000000000E+00 0.  1.
         21    1    1    2  503  502 -0.12662701822E+02 -0.20805385636E+02 -0.71424909978E+02  0.75463407386E+02  0.00000000000E+00 0.  1.
         21    1    1    2  504  503  0.12662701822E+02  0.20805385636E+02 -0.82503370553E+01  0.25715290207E+02  0.00000000000E+00 0.  1.
<mgrwt>
<rscale>  2 0.24355864E+02</rscale>
<asrwt>0</asrwt>
<pdfrwt beam="1">  1       21 0.16541115E-02 0.24355864E+02</pdfrwt>
<pdfrwt beam="2">  1       21 0.13911842E-01 0.24355864E+02</pdfrwt>
<totfact> 0.54456571E+07</totfact>
</mgrwt>
</event>
<event>
 4    1  0.4578942E+006  0.2133732E+02  0.7546771E-02  0.1719971E+00
         21   -1    0    0  503  501  0.00000000000E+00  0.00000000000E+00  0.78966905507E+02  0.78966905507E+02  0.00000000000E+00 0.  1.
         21   -1    0    0  504  502 -0.00000000000E+00 -0.00000000000E+00 -0.88686795738E+02  0.88686795738E+02  0.00000000000E+00 0.  1.
         21    1    1    2  503  502  0.20011326169E+02 -0.74045984338E+01 -0.85916247601E+02  0.88526170452E+02  0.00000000000E+00 0.  1.
         21    1    1    2  504  501 -0.20011326169E+02  0.74045984338E+01  0.76196357370E+02  0.79127530794E+02  0.00000000000E+00 0.  1.
<mgrwt>
<rscale>  2 0.21337321E+02</rscale>
<asrwt>0</asrwt>
<pdfrwt beam="1">  1       21 0.12148755E-01 0.21337321E+02</pdfrwt>
<pdfrwt beam="2">  1       21 0.13644122E-01 0.21337321E+02</pdfrwt>
<totfact> 0.23081984E+06</totfact>
</mgrwt>
</event>
<event>
 4    1  0.4578942E+006  0.2127821E+02  0.7546771E-02  0.1721042E+00
         21   -1    0    0  503  501  0.00000000000E+00  0.00000000000E+00  0.44735062271E+03  0.44735062271E+03  0.00000000000E+00 0. -1.
         21   -1    0    0  504  502 -0.00000000000E+00 -0.00000000000E+00 -0.80675984695E+02  0.80675984695E+02  0.00000000000E+00 0.  1.
         21    1    1    2  503  502 -0.20718599873E+00 -0.21277203397E+02 -0.79014706770E+02  0.81829616866E+02  0.00000000000E+00 0.  1.
         21    1    1    2  504  501  0.20718599873E+00  0.21277203397E+02  0.44568934478E+03  0.44619699053E+03  0.00000000000E+00 0. -1.
<mgrwt>
<rscale>  2 0.21278212E+02</rscale>
<asrwt>0</asrwt>
<pdfrwt beam="1">  1       21 0.68823172E-01 0.21278212E+02</pdfrwt>
<pdfrwt beam="2">  1       21 0.12411690E-01 0.21278212E+02</pdfrwt>
<totfact> 0.11490072E+05</totfact>
</mgrwt>
</event>
<event>
 4    1  0.4578942E+006  0.2024297E+02  0.7546771E-02  0.1740539E+00
         21   -1    0    0  503  501  0.00000000000E+00  0.00000000000E+00  0.75511535564E+02  0.75511535564E+02  0.00000000000E+00 0.  1.
         21   -1    0    0  501  502 -0.00000000000E+00 -0.00000000000E+00 -0.31604542795E+02  0.31604542795E+02  0.00000000000E+00 0.  1.
         21    1    1    2  503  504 -0.18659695265E+01 -0.20156790231E+02  0.70697016099E+02  0.73538058990E+02  0.00000000000E+00 0.  1.
         21    1    1    2  504  502  0.18659695265E+01  0.20156790231E+02 -0.26790023330E+02  0.33578019369E+02  0.00000000000E+00 0.  1.
<mgrwt>
<rscale>  2 0.20242975E+02</rscale>
<asrwt>0</asrwt>
<pdfrwt beam="1">  1       21 0.11617159E-01 0.20242975E+02</pdfrwt>
<pdfrwt beam="2">  1       21 0.48622374E-02 0.20242975E+02</pdfrwt>
<totfact> 0.13228551E+07</totfact>
</mgrwt>
</event>
<event>
 4    1  0.4578942E+006  0.2604163E+02  0.7546771E-02  0.1646476E+00
         21   -1    0    0  503  501  0.00000000000E+00  0.00000000000E+00  0.68572288386E+02  0.68572288386E+02  0.00000000000E+00 0.  1.
         21   -1    0    0  504  502 -0.00000000000E+00 -0.00000000000E+00 -0.15451008421E+03  0.15451008421E+03  0.00000000000E+00 0. -1.
         21    1    1    2  503  502  0.22057934264E+01  0.25948048002E+02 -0.15088131963E+03  0.15311217892E+03  0.00000000000E+00 0. -1.
         21    1    1    2  504  501 -0.22057934264E+01 -0.25948048002E+02  0.64943523803E+02  0.69970193681E+02  0.00000000000E+00 0.  1.
<mgrwt>
<rscale>  2 0.26041634E+02</rscale>
<asrwt>0</asrwt>
<pdfrwt beam="1">  1       21 0.10549583E-01 0.26041634E+02</pdfrwt>
<pdfrwt beam="2">  1       21 0.23770782E-01 0.26041634E+02</pdfrwt>
<totfact> 0.11429436E+06</totfact>
</mgrwt>
</event>
<event>
 4    1  0.4578942E+006  0.2062235E+02  0.7546771E-02  0.1733228E+00
         21   -1    0    0  502  501  0.00000000000E+00  0.00000000000E+00  0.30074270452E+02  0.30074270452E+02  0.00000000000E+00 0.  1.
         21   -1    0    0  504  502 -0.00000000000E+00 -0.00000000000E+00 -0.71649519534E+02  0.71649519534E+02  0.00000000000E+00 0.  1.
         21    1    1    2  503  501 -0.20421954687E+02  0.28679261549E+01  0.24779525516E+02  0.32238271022E+02  0.00000000000E+00 0.  1.
         21    1    1    2  504  503  0.20421954687E+02 -0.28679261549E+01 -0.66354774599E+02  0.69485518964E+02  0.00000000000E+00 0.  1.
<mgrwt>
<rscale>  2 0.20622348E+02</rscale>
<asrwt>0</asrwt>
<pdfrwt beam="1">  1       21 0.46268109E-02 0.20622348E+02</pdfrwt>
<pdfrwt beam="2">  1       21 0.11023003E-01 0.20622348E+02</pdfrwt>
<totfact> 0.15672368E+07</totfact>
</mgrwt>
</event>
<event>
 4    1  0.4578942E+006  0.3774376E+02  0.7546771E-02  0.1525503E+00
         21   -1    0    0  503  501  0.00000000000E+00  0.00000000000E+00  0.67964724301E+02  0.67964724301E+02  0.00000000000E+00 0.  1.
         21   -1    0    0  501  502 -0.00000000000E+00 -0.00000000000E+00 -0.23752780599E+02  0.23752780599E+02  0.00000000000E+00 0.  1.
         21    1    1    2  503  504  0.18563936885E+02 -0.32862921109E+02  0.37828608929E+02  0.53437767450E+02  0.00000000000E+00 0.  1.
         21    1    1    2  504  502 -0.18563936885E+02  0.32862921109E+02  0.63833347725E+01  0.38279737451E+02  0.00000000000E+00 0.  1.
<mgrwt>
<rscale>  2 0.37743759E+02</rscale>
<asrwt>0</asrwt>
<pdfrwt beam="1">  1       21 0.10456111E-01 0.37743759E+02</pdfrwt>
<pdfrwt beam="2">  1       21 0.36542740E-02 0.37743759E+02</pdfrwt>
<totfact> 0.28091675E+07</totfact>
</mgrwt>
</event>
<event>
 4    1  0.4578942E+006  0.2391773E+02  0.7546771E-02  0.1677052E+00
         21   -1    0    0  503  501  0.00000000000E+00  0.00000000000E+00  0.92716515647E+02  0.92716515647E+02  0.00000000000E+00 0. -1.
         21   -1    0    0  504  502 -0.00000000000E+00 -0.00000000000E+00 -0.77879722569E+01  0.77879722569E+01  0.00000000000E+00 0. -1.
         21    1    1    2  503  502  0.22676740219E+02 -0.76041518053E+01  0.19559104188E+02  0.30896864376E+02  0.00000000000E+00 0. -1.
         21    1    1    2  504  501 -0.22676740219E+02  0.76041518053E+01  0.65369439201E+02  0.69607623527E+02  0.00000000000E+00 0. -1.
<mgrwt>
<rscale>  2 0.23917727E+02</rscale>
<asrwt>0</asrwt>
<pdfrwt beam="1">  1       21 0.14264079E-01 0.23917727E+02</pdfrwt>
<pdfrwt beam="2">  1       21 0.11981496E-02 0.23917727E+02</pdfrwt>
<totfact> 0.84795335E+07</totfact>
</mgrwt>
</event>
<event>
 4    1  0.4578942E+006  0.2474812E+02  0.7546771E-02  0.1664646E+00
         21   -1    0    0  503  501  0.00000000000E+00  0.00000000000E+00  0.12401628258E+02  0.12401628258E+02  0.00000000000E+00 0.  1.
         21   -1    0    0  504  502 -0.00000000000E+00 -0.00000000000E+00 -0.29334184425E+03  0.29334184425E+03  0.00000000000E+00 0. -1.
         21    1    1    2  503  502 -0.25975158640E+01  0.24611428677E+02 -0.27988064780E+03  0.28097267932E+03  0.00000000000E+00 0. -1.
         21    1    1    2  504  501  0.25975158640E+01 -0.24611428677E+02 -0.10595681858E+01  0.24770793183E+02  0.00000000000E+00 0.  1.
<mgrwt>
<rscale>  2 0.24748121E+02</rscale>
<asrwt>0</asrwt>
<pdfrwt beam="1">  1       21 0.19079430E-02 0.24748121E+02</pdfrwt>
<pdfrwt beam="2">  1       21 0.45129509E-01 0.24748121E+02</pdfrwt>
<totfact> 0.53067408E+06</totfact>
</mgrwt>
</event>
<event>
 4    1  0.4578942E+006  0.2299566E+02  0.7546771E-02  0.1691581E+00
         21   -1    0    0  504  501  0.00000000000E+00  0.00000000000E+00  0.10462369432E+04  0.10462369432E+04  0.00000000000E+00 0. -1.
         21   -1    0    0  501  502 -0.00000000000E+00 -0.00000000000E+00 -0.36515854757E+02  0.36515854757E+02  0.00000000000E+00 0. -1.
         21    1    1    2  503  502 -0.14059977600E+02  0.18196627181E+02 -0.32756095018E+02  0.40022018587E+02  0.00000000000E+00 0. -1.
         21    1    1    2  504  503  0.14059977600E+02 -0.18196627181E+02  0.10424771835E+04  0.10427307794E+04  0.00000000000E+00 0. -1.
<mgrwt>
<rscale>  2 0.22995656E+02</rscale>
<asrwt>0</asrwt>
<pdfrwt beam="1">  1       21 0.16095951E+00 0.22995656E+02</pdfrwt>
<pdfrwt beam="2">  1       21 0.56178246E-02 0.22995656E+02</pdfrwt>
<totfact> 0.64172155E+04</totfact>
</mgrwt>
</event>
<event>
 4    1  0.4578942E+006  0.3449882E+02  0.7546771E-02  0.1553097E+00
         21   -1    0    0  503  501  0.00000000000E+00  0.00000000000E+00  0.93279957311E+02  0.93279957311E+02  0.00000000000E+00 0. -1.
         21   -1    0    0  504  502 -0.00000000000E+00 -0.00000000000E+00 -0.46182370982E+02  0.46182370982E+02  0.00000000000E+00 0. -1.
         21    1    1    2  503  502  0.14070462157E+02 -0.31499053038E+02  0.82870451307E+02  0.89764580695E+02  0.00000000000E+00 0. -1.
         21    1    1    2  504  501 -0.14070462157E+02  0.31499053038E+02 -0.35772864978E+02  0.49697747598E+02  0.00000000000E+00 0. -1.
<mgrwt>
<rscale>  2 0.34498815E+02</rscale>
<asrwt>0</asrwt>
<pdfrwt beam="1">  1       21 0.14350763E-01 0.34498815E+02</pdfrwt>
<pdfrwt beam="2">  1       21 0.71049802E-02 0.34498815E+02</pdfrwt>
<totfact> 0.54942316E+06</totfact>
</mgrwt>
</event>
<event>
 4    1  0.4578942E+006  0.2803534E+02  0.7546771E-02  0.1620879E+00
         21   -1    0    0  504  501  0.00000000000E+00  0.00000000000E+00  0.35076023816E+03  0.35076023816E+03  0.00000000000E+00 0. -1.
         21   -1    0    0  503  502 -0.00000000000E+00 -0.00000000000E+00 -0.34058894505E+01  0.34058894505E+01  0.00000000000E+00 0.  1.
         21    1    1    2  503  501 -0.67735342460E+01  0.27204770682E+02  0.27724935106E+03  0.27866320707E+03  0.00000000000E+00 0. -1.
         21    1    1    2  504  502  0.67735342460E+01 -0.27204770682E+02  0.70104997655E+02  0.75502920541E+02  0.00000000000E+00 0.  1.
<mgrwt>
<rscale>  2 0.28035340E+02</rscale>
<asrwt>0</asrwt>
<pdfrwt beam="1">  1       21 0.53963085E-01 0.28035340E+02</pdfrwt>
<pdfrwt beam="2">  1       21 0.52398327E-03 0.28035340E+02</pdfrwt>
<totfact> 0.26901362E+07</totfact>
</mgrwt>
</event>
<event>
 4    1  0.4578942E+006  0.2432738E+02  0.7546771E-02  0.1670855E+00
         21   -1    0    0  502  501  0.00000000000E+00  0.00000000000E+00  0.48276157035E+03  0.48276157035E+03  0.00000000000E+00 0. -1.
         21   -1    0    0  504  502 -0.00000000000E+00 -0.00000000000E+00 -0.54029857874E+01  0.54029857874E+01  0.00000000000E+00 0. -1.
         21    1    1    2  503  501 -0.14921795612E+02 -0.19213577685E+02  0.45329207547E+03  0.45394440986E+03  0.00000000000E+00 0. -1.
         21    1    1    2  504  503  0.14921795612E+02  0.19213577685E+02  0.24066509085E+02  0.34220146278E+02  0.00000000000E+00 0. -1.
<mgrwt>
<rscale>  2 0.24327383E+02</rscale>
<asrwt>0</asrwt>
<pdfrwt beam="1">  1       21 0.74270977E-01 0.24327383E+02</pdfrwt>
<pdfrwt beam="2">  1       21 0.83122896E-03 0.24327383E+02</pdfrwt>
<totfact> 0.69027217E+06</totfact>
</mgrwt>
</event>
<event>
 4    1  0.4578942E+006  0.2035956E+02  0.7546771E-02  0.1738271E+00
         21   -1    0    0  503  501  0.00000000000E+00  0.00000000000E+00  0.92853023885E+02  0.92853023885E+02  0.00000000000E+00 0. -1.
         21   -1    0    0  504  502 -0.00000000000E+00 -0.00000000000E+00 -0.81714270541E+01  0.81714270541E+01  0.00000000000E+00 0.  1.
         21    1    1    2  503  502  0.15651654250E+02 -0.13020654059E+02  0.76363898341E+02  0.79031365183E+02  0.00000000000E+00 0. -1.
         21    1    1    2  504  501 -0.15651654250E+02  0.13020654059E+02  0.83176984900E+01  0.21993085756E+02  0.00000000000E+00 0.  1.
<mgrwt>
<rscale>  2 0.20359561E+02</rscale>
<asrwt>0</asrwt>
<pdfrwt beam="1">  1       21 0.14285080E-01 0.20359561E+02</pdfrwt>
<pdfrwt beam="2">  1       21 0.12571427E-02 0.20359561E+02</pdfrwt>
<totfact> 0.75252838E+07</totfact>
</mgrwt>
</event>
<event>
 4    1  0.4578942E+006  0.3181055E+02  0.7546771E-02  0.1578896E+00
         21   -1    0    0  504  501  0.00000000000E+00  0.00000000000E+00  0.12507200222E+03  0.12507200222E+03  0.00000000000E+00 0. -1.
         21   -1    0    0  501  502 -0.00000000000E+00 -0.00000000000E+00 -0.12929225675E+03  0.12929225675E+03  0.00000000000E+00 0. -1.
         21    1    1    2  503  502  0.26022218995E+02  0.18296321887E+02 -0.12524868400E+03  0.12922516829E+03  0.00000000000E+00 0. -1.
         21    1    1    2  504  503 -0.26022218995E+02 -0.18296321887E+02  0.12102842947E+03  0.12513909068E+03  0.00000000000E+00 0. -1.
<mgrwt>
<rscale>  2 0.31810553E+02</rscale>
<asrwt>0</asrwt>
<pdfrwt beam="1">  1       21 0.19241847E-01 0.31810553E+02</pdfrwt>
<pdfrwt beam="2">  1       21 0.19891116E-01 0.31810553E+02</pdfrwt>
<totfact> 0.56809274E+05</totfact>
</mgrwt>
</event>
<event>
 4    1  0.4578942E+006  0.2433912E+02  0.7546771E-02  0.1670680E+00
         21   -1    0    0  502  501  0.00000000000E+00  0.00000000000E+00  0.11477059430E+02  0.11477059430E+02  0.00000000000E+00 0.  1.
         21   -1    0    0  504  502 -0.00000000000E+00 -0.00000000000E+00 -0.12443775657E+03  0.12443775657E+03  0.00000000000E+00 0. -1.
         21    1    1    2  503  501  0.72348094304E+01  0.23238986659E+02 -0.44935473880E+01  0.24750453259E+02  0.00000000000E+00 0.  1.
         21    1    1    2  504  503 -0.72348094304E+01 -0.23238986659E+02 -0.10846714975E+03  0.11116436274E+03  0.00000000000E+00 0. -1.
<mgrwt>
<rscale>  2 0.24339124E+02</rscale>
<asrwt>0</asrwt>
<pdfrwt beam="1">  1       21 0.17657014E-02 0.24339124E+02</pdfrwt>
<pdfrwt beam="2">  1       21 0.19144271E-01 0.24339124E+02</pdfrwt>
<totfact> 0.28465094E+07</totfact>
</mgrwt>
</event>
<event>
 4    1  0.4578942E+006  0.2159314E+02  0.7546771E-02  0.1715385E+00
         21   -1    0    0  502  501  0.00000000000E+00  0.00000000000E+00  0.33693449471E+01  0.33693449471E+01  0.00000000000E+00 0.  1.
         21   -1    0    0  503  502 -0.00000000000E+00 -0.00000000000E+00 -0.16251369624E+03  0.16251369624E+03  0.00000000000E+00 0.  1.
         21    1    1    2  503  504  0.17270966245E+02 -0.12960614218E+02 -0.11153182179E+03  0.11360286558E+03  0.00000000000E+00 0.  1.
         21    1    1    2  504  501 -0.17270966245E+02  0.12960614218E+02 -0.47612529502E+02  0.52280175607E+02  0.00000000000E+00 0.  1.
<mgrwt>
<rscale>  2 0.21593142E+02</rscale>
<asrwt>0</asrwt>
<pdfrwt beam="1">  1       21 0.51836075E-03 0.21593142E+02</pdfrwt>
<pdfrwt beam="2">  1       21 0.25002108E-01 0.21593142E+02</pdfrwt>
<totfact> 0.10859283E+08</totfact>
</mgrwt>
</event>
<event>
 4    1  0.4578942E+006  0.2213790E+02  0.7546771E-02  0.1705878E+00
         21   -1    0    0  503  501  0.00000000000E+00  0.00000000000E+00  0.92186629713E+00  0.92186629713E+00  0.00000000000E+00 0.  1.
         21   -1    0    0  501  502 -0.00000000000E+00 -0.00000000000E+00 -0.69492011220E+03  0.69492011220E+03  0.00000000000E+00 0.  1.
         21    1    1    2  503  504  0.17307377018E+02 -0.13803671142E+02 -0.17834360607E+03  0.17971234922E+03  0.00000000000E+00 0.  1.
         21    1    1    2  504  502 -0.17307377018E+02  0.13803671142E+02 -0.51565463983E+03  0.51612962928E+03  0.00000000000E+00 0.  1.
<mgrwt>
<rscale>  2 0.22137900E+02</rscale>
<asrwt>0</asrwt>
<pdfrwt beam="1">  1       21 0.14182576E-03 0.22137900E+02</pdfrwt>
<pdfrwt beam="2">  1       21 0.10691066E+00 0.22137900E+02</pdfrwt>
<totfact> 0.41307689E+07</totfact>
</mgrwt>
</event>
<event>
 4    1  0.4578942E+006  0.2289336E+02  0.7546771E-02  0.1693245E+00
         21   -1    0    0  503  501  0.00000000000E+00  0.00000000000E+00  0.94327429979E+01  0.94327429979E+01  0.00000000000E+00 0. -1.
         21   -1    0    0  504  502 -0.00000000000E+00 -0.00000000000E+00 -0.67186012684E+02  0.67186012684E+02  0.00000000000E+00 0. -1.
         21    1    1    2  503  502  0.20000300129E+02  0.11139753123E+02 -0.44811034463E+02  0.50320323077E+02  0.00000000000E+00 0. -1.
         21    1    1    2  504  501 -0.20000300129E+02 -0.11139753123E+02 -0.12942235222E+02  0.26298432605E+02  0.00000000000E+00 0. -1.
<mgrwt>
<rscale>  2 0.22893364E+02</rscale>
<asrwt>0</asrwt>
<pdfrwt beam="1">  1       21 0.14511912E-02 0.22893364E+02</pdfrwt>
<pdfrwt beam="2">  1       21 0.10336310E-01 0.22893364E+02</pdfrwt>
<totfact> 0.10754988E+08</totfact>
</mgrwt>
</event>
<event>
 4    1  0.4578942E+006  0.2850633E+02  0.7546771E-02  0.1615211E+00
         21   -1    0    0  503  501  0.00000000000E+00  0.00000000000E+00  0.15689222013E+03  0.15689222013E+03  0.00000000000E+00 0. -1.
         21   -1    0    0  501  502 -0.00000000000E+00 -0.00000000000E+00 -0.98667023836E+01  0.98667023836E+01  0.00000000000E+00 0.  1.
         21    1    1    2  503  504  0.28494894917E+02 -0.80731359252E+00  0.13098175400E+03  0.13404786709E+03  0.00000000000E+00 0. -1.
         21    1    1    2  504  502 -0.28494894917E+02  0.80731359252E+00  0.16043763748E+02  0.32711055421E+02  0.00000000000E+00 0.  1.
<mgrwt>
<rscale>  2 0.28506329E+02</rscale>
<asrwt>0</asrwt>
<pdfrwt beam="1">  1       21 0.24137263E-01 0.28506329E+02</pdfrwt>
<pdfrwt beam="2">  1       21 0.15179543E-02 0.28506329E+02</pdfrwt>
<totfact> 0.24618234E+07</totfact>
</mgrwt>
</event>
<event>
 4    1  0.4578942E+006  0.2220944E+02  0.7546771E-02  0.1704655E+00
         21   -1    0    0  504  501  0.00000000000E+00  0.00000000000E+00  0.54393352660E+01  0.54393352660E+01  0.00000000000E+00 0.  1.
         21   -1    0    0  501  502 -0.00000000000E+00 -0.00000000000E+00 -0.85722724947E+03  0.85722724947E+03  0.00000000000E+00 0.  1.
         21    1    1    2  503  502  0.76575379339E+01 -0.20847577335E+02 -0.83377488292E+03  0.83407062935E+03  0.00000000000E+00 0.  1.
         21    1    1    2  504  503 -0.76575379339E+01  0.20847577335E+02 -0.18013031282E+02  0.28595955377E+02  0.00000000000E+00 0.  1.
<mgrwt>
<rscale>  2 0.22209443E+02</rscale>
<asrwt>0</asrwt>
<pdfrwt beam="1">  1       21 0.83682093E-03 0.22209443E+02</pdfrwt>
<pdfrwt beam="2">  1       21 0.13188110E+00 0.22209443E+02</pdfrwt>
<totfact> 0.19258258E+06</totfact>
</mgrwt>
</event>
<event>
 4    1  0.4578942E+006  0.3394771E+02  0.7546771E-02  0.1558149E+00
         21   -1    0    0  503  501  0.00000000000E+00  0.00000000000E+00  0.52054952263E+02  0.52054952263E+02  0.00000000000E+00 0.  1.
         21   -1    0    0  504  502 -0.00000000000E+00 -0.00000000000E+00 -0.22152524363E+02  0.22152524363E+02  0.00000000000E+00 0.  1.
         21    1    1    2  503  502 -0.17153572272E+02 -0.29295082152E+02  0.15866499080E+02  0.37472558934E+02  0.00000000000E+00 0.  1.
         21    1    1    2  504  501  0.17153572272E+02  0.29295082152E+02  0.14035928820E+02  0.36734917692E+02  0.00000000000E+00 0.  1.
<mgrwt>
<rscale>  2 0.33947708E+02</rscale>
<asrwt>0</asrwt>
<pdfrwt beam="1">  1       21 0.80084542E-02 0.33947708E+02</pdfrwt>
<pdfrwt beam="2">  1       21 0.34080807E-02 0.33947708E+02</pdfrwt>
<totfact> 0.48064819E+07</totfact>
</mgrwt>
</event>
<event>
 4    1  0.4578942E+006  0.2259929E+02  0.7546771E-02  0.1698089E+00
         21   -1    0    0  504  501  0.00000000000E+00  0.00000000000E+00  0.78446999241E+01  0.78446999241E+01  0.00000000000E+00 0. -1.
         21   -1    0    0  503  502 -0.00000000000E+00 -0.00000000000E+00 -0.28379845341E+03  0.28379845341E+03  0.00000000000E+00 0.  1.
         21    1    1    2  503  501  0.20464664667E+02  0.95877647690E+01 -0.26598421084E+03  0.26694255590E+03  0.00000000000E+00 0.  1.
         21    1    1    2  504  502 -0.20464664667E+02 -0.95877647690E+01 -0.99695426485E+01  0.24700597439E+02  0.00000000000E+00 0. -1.
<mgrwt>
<rscale>  2 0.22599286E+02</rscale>
<asrwt>0</asrwt>
<pdfrwt beam="1">  1       21 0.12068770E-02 0.22599286E+02</pdfrwt>
<pdfrwt beam="2">  1       21 0.43661298E-01 0.22599286E+02</pdfrwt>
<totfact> 0.11178298E+07</totfact>
</mgrwt>
</event>
<event>
 4    1  0.4578942E+006  0.2467773E+02  0.7546771E-02  0.1665674E+00
         21   -1    0    0  504  501  0.00000000000E+00  0.00000000000E+00  0.29040990085E+02  0.29040990085E+02  0.00000000000E+00 0. -1.
         21   -1    0    0  503  502 -0.00000000000E+00 -0.00000000000E+00 -0.27718269597E+02  0.27718269597E+02  0.00000000000E+00 0. -1.
         21    1    1    2  503  501 -0.68271518540E+01 -0.23714561268E+02 -0.13341570234E+02  0.28053304883E+02  0.00000000000E+00 0. -1.
         21    1    1    2  504  502  0.68271518540E+01  0.23714561268E+02  0.14664290722E+02  0.28705954799E+02  0.00000000000E+00 0. -1.
<mgrwt>
<rscale>  2 0.24677731E+02</rscale>
<asrwt>0</asrwt>
<pdfrwt beam="1">  1       21 0.44678446E-02 0.24677731E+02</pdfrwt>
<pdfrwt beam="2">  1       21 0.42643492E-02 0.24677731E+02</pdfrwt>
<totfact> 0.80486610E+07</totfact>
</mgrwt>
</event>
<event>
 4    1  0.4578942E+006  0.2088233E+02  0.7546771E-02  0.1728331E+00
         21   -1    0    0  504  501  0.00000000000E+00  0.00000000000E+00  0.12976530328E+02  0.12976530328E+02  0.00000000000E+00 0.  1.
         21   -1    0    0  503  502 -0.00000000000E+00 -0.00000000000E+00 -0.36145665159E+02  0.36145665159E+02  0.00000000000E+00 0.  1.
         21    1    1    2  503  501  0.15654225411E+02  0.13820880482E+02 -0.50724093537E+01  0.21489552046E+02  0.00000000000E+00 0.  1.
         21    1    1    2  504  502 -0.15654225411E+02 -0.13820880482E+02 -0.18096725478E+02  0.27632643441E+02  0.00000000000E+00 0.  1.
<mgrwt>
<rscale>  2 0.20882325E+02</rscale>
<asrwt>0</asrwt>
<pdfrwt beam="1">  1       21 0.19963893E-02 0.20882325E+02</pdfrwt>
<pdfrwt beam="2">  1       21 0.55608716E-02 0.20882325E+02</pdfrwt>
<totfact> 0.17610463E+08</totfact>
</mgrwt>
</event>
<event>
 4    1  0.4578942E+006  0.2015841E+02  0.7546771E-02  0.1742196E+00
         21   -1    0    0  502  501  0.00000000000E+00  0.00000000000E+00  0.10044587875E+04  0.10044587875E+04  0.00000000000E+00 0.  1.
         21   -1    0    0  504  502 -0.00000000000E+00 -0.00000000000E+00 -0.40056533106E+01  0.40056533106E+01  0.00000000000E+00 0. -1.
         21    1    1    2  503  501 -0.10160148571E+02  0.17410708867E+02  0.97831831610E+03  0.97852597769E+03  0.00000000000E+00 0.  1.
         21    1    1    2  504  503  0.10160148571E+02 -0.17410708867E+02  0.22134818102E+02  0.29938463131E+02  0.00000000000E+00 0. -1.
<mgrwt>
<rscale>  2 0.20158408E+02</rscale>
<asrwt>0</asrwt>
<pdfrwt beam="1">  1       21 0.15453192E+00 0.20158408E+02</pdfrwt>
<pdfrwt beam="2">  1       21 0.61625515E-03 0.20158408E+02</pdfrwt>
<totfact> 0.20744381E+06</totfact>
</mgrwt>
</event>
<event>
 4    1  0.4578942E+006  0.2282260E+02  0.7546771E-02  0.1694402E+00
         21   -1    0    0  503  501  0.00000000000E+00  0.00000000000E+00  0.21290678023E+03  0.21290678023E+03  0.00000000000E+00 0. -1.
         21   -1    0    0  504  502 -0.00000000000E+00 -0.00000000000E+00 -0.50767206124E+01  0.50767206124E+01  0.00000000000E+00 0.  1.
         21    1    1    2  503  502 -0.15391167572E+02  0.16851800261E+02  0.18236632371E+03  0.18378886592E+03  0.00000000000E+00 0. -1.
         21    1    1    2  504  501  0.15391167572E+02 -0.16851800261E+02  0.25463735902E+02  0.34194634920E+02  0.00000000000E+00 0.  1.
<mgrwt>
<rscale>  2 0.22822603E+02</rscale>
<asrwt>0</asrwt>
<pdfrwt beam="1">  1       21 0.32754882E-01 0.22822603E+02</pdfrwt>
<pdfrwt beam="2">  1       21 0.78103410E-03 0.22822603E+02</pdfrwt>
<totfact> 0.36828968E+07</totfact>
</mgrwt>
</event>
<event>
 4    1  0.4578942E+006  0.4863341E+02  0.7546771E-02  0.1452855E+00
         21   -1    0    0  504  501  0.00000000000E+00  0.00000000000E+00  0.15036251751E+04  0.15036251751E+04  0.00000000000E+00 0.  1.
         21   -1    0    0  503  502 -0.00000000000E+00 -0.00000000000E+00 -0.15835749732E+01  0.15835749732E+01  0.00000000000E+00 0.  1.
         21    1    1    2  503  501 -0.47430864036E+02 -0.10748120072E+02  0.81250982744E+03  0.81396402171E+03  0.00000000000E+00 0.  1.
         21    1    1    2  504  502  0.47430864036E+02  0.10748120072E+02  0.68953177272E+03  0.69124472840E+03  0.00000000000E+00 0.  1.
<mgrwt>
<rscale>  2 0.48633414E+02</rscale>
<asrwt>0</asrwt>
<pdfrwt beam="1">  1       21 0.23132581E+00 0.48633414E+02</pdfrwt>
<pdfrwt beam="2">  1       21 0.24362812E-03 0.48633414E+02</pdfrwt>
<totfact> 0.30008817E+06</totfact>
</mgrwt>
</event>
<event>
 4    1  0.4578942E+006  0.2554450E+02  0.7546771E-02  0.1653302E+00
         21   -1    0    0  503  501  0.00000000000E+00  0.00000000000E+00  0.12788989996E+01  0.12788989996E+01  0.00000000000E+00 0.  1.
         21   -1    0    0  504  502 -0.00000000000E+00 -0.00000000000E+00 -0.51994904928E+03  0.51994904928E+03  0.00000000000E+00 0.  1.
         21    1    1    2  503  502 -0.39541203086E+01 -0.25236608468E+02 -0.29498216767E+03  0.29608613733E+03  0.00000000000E+00 0.  1.
         21    1    1    2  504  501  0.39541203086E+01  0.25236608468E+02 -0.22368798261E+03  0.22514181095E+03  0.00000000000E+00 0.  1.
<mgrwt>
<rscale>  2 0.25544500E+02</rscale>
<asrwt>0</asrwt>
<pdfrwt beam="1">  1       21 0.19675370E-03 0.25544500E+02</pdfrwt>
<pdfrwt beam="2">  1       21 0.79992158E-01 0.25544500E+02</pdfrwt>
<totfact> 0.49708811E+07</totfact>
</mgrwt>
</event>
<event>
 4    1  0.4578942E+006  0.2521272E+02  0.7546771E-02  0.1657965E+00
         21   -1    0    0  503  501  0.00000000000E+00  0.00000000000E+00  0.19463065585E+02  0.19463065585E+02  0.00000000000E+00 0.  1.
         21   -1    0    0  504  502 -0.00000000000E+00 -0.00000000000E+00 -0.33223896149E+02  0.33223896149E+02  0.00000000000E+00 0.  1.
         21    1    1    2  503  502  0.23827252156E+02 -0.82427596313E+01 -0.10309709086E+02  0.27239147070E+02  0.00000000000E+00 0.  1.
         21    1    1    2  504  501 -0.23827252156E+02  0.82427596313E+01 -0.34511214778E+01  0.25447814663E+02  0.00000000000E+00 0.  1.
<mgrwt>
<rscale>  2 0.25212716E+02</rscale>
<asrwt>0</asrwt>
<pdfrwt beam="1">  1       21 0.29943178E-02 0.25212716E+02</pdfrwt>
<pdfrwt beam="2">  1       21 0.51113687E-02 0.25212716E+02</pdfrwt>
<totfact> 0.11393085E+08</totfact>
</mgrwt>
</event>
<event>
 4    1  0.4578942E+006  0.2215167E+02  0.7546771E-02  0.1705642E+00
         21   -1    0    0  503  501  0.00000000000E+00  0.00000000000E+00  0.73754851647E+02  0.73754851647E+02  0.00000000000E+00 0.  1.
         21   -1    0    0  504  502 -0.00000000000E+00 -0.00000000000E+00 -0.16481317576E+02  0.16481317576E+02  0.00000000000E+00 0. -1.
         21    1    1    2  503  502  0.21461194948E+02 -0.54875880963E+01 -0.62043955592E+01  0.23004152581E+02  0.00000000000E+00 0. -1.
         21    1    1    2  504  501 -0.21461194948E+02  0.54875880963E+01  0.63477929630E+02  0.67232016642E+02  0.00000000000E+00 0.  1.
<mgrwt>
<rscale>  2 0.22151671E+02</rscale>
<asrwt>0</asrwt>
<pdfrwt beam="1">  1       21 0.11346900E-01 0.22151671E+02</pdfrwt>
<pdfrwt beam="2">  1       21 0.25355874E-02 0.22151671E+02</pdfrwt>
<totfact> 0.38846969E+07</totfact>
</mgrwt>
</event>
<event>
 4    1  0.4578942E+006  0.2275198E+02  0.7546771E-02  0.1695562E+00
         21   -1    0    0  504  501  0.00000000000E+00  0.00000000000E+00  0.58968973553E+01  0.58968973553E+01  0.00000000000E+00 0. -1.
         21   -1    0    0  503  502 -0.00000000000E+00 -0.00000000000E+00 -0.12808535751E+03  0.12808535751E+03  0.00000000000E+00 0.  1.
         21    1    1    2  503  501 -0.22614940367E+02 -0.24934161128E+01 -0.23516727161E+02  0.32721386097E+02  0.00000000000E+00 0. -1.
         21    1    1    2  504  502  0.22614940367E+02  0.24934161128E+01 -0.98671732993E+02  0.10126086877E+03  0.00000000000E+00 0.  1.
<mgrwt>
<rscale>  2 0.22751981E+02</rscale>
<asrwt>0</asrwt>
<pdfrwt beam="1">  1       21 0.90721511E-03 0.22751981E+02</pdfrwt>
<pdfrwt beam="2">  1       21 0.19705437E-01 0.22751981E+02</pdfrwt>
<totfact> 0.72939594E+07</totfact>
</mgrwt>
</event>
<event>
 4    1  0.4578942E+006  0.3753217E+02  0.7546771E-02  0.1527199E+00
         21   -1    0    0  502  501  0.00000000000E+00  0.00000000000E+00  0.38279906196E+03  0.38279906196E+03  0.00000000000E+00 0. -1.
         21   -1    0    0  503  502 -0.00000000000E+00 -0.00000000000E+00 -0.31587183590E+03  0.31587183590E+03  0.00000000000E+00 0.  1.
         21    1    1    2  503  504 -0.37432652516E+02  0.27313474734E+01 -0.31383099725E+03  0.31606733234E+03  0.00000000000E+00 0.  1.
         21    1    1    2  504  501  0.37432652516E+02 -0.27313474734E+01  0.38075822331E+03  0.38260356552E+03  0.00000000000E+00 0. -1.
<mgrwt>
<rscale>  2 0.37532169E+02</rscale>
<asrwt>0</asrwt>
<pdfrwt beam="1">  1       21 0.58892164E-01 0.37532169E+02</pdfrwt>
<pdfrwt beam="2">  1       21 0.48595667E-01 0.37532169E+02</pdfrwt>
<totfact> 0.13066261E+04</totfact>
</mgrwt>
</event>
<event>
 4    1  0.4578942E+006  0.2225851E+02  0.7546771E-02  0.1703819E+00
         21   -1    0    0  504  501  0.00000000000E+00  0.00000000000E+00  0.41600969882E+03  0.41600969882E+03  0.00000000000E+00 0. -1.
         21   -1    0    0  503  502 -0.00000000000E+00 -0.00000000000E+00 -0.14741867357E+01  0.14741867357E+01  0.00000000000E+00 0. -1.
         21    1    1    2  503  501 -0.21742311913E+02  0.47658216667E+01  0.29876721405E+03  0.29959520920E+03  0.00000000000E+00 0. -1.
         21    1    1    2  504  502  0.21742311913E+02 -0.47658216667E+01  0.11576829803E+03  0.11788867635E+03  0.00000000000E+00 0. -1.
<mgrwt>
<rscale>  2 0.22258508E+02</rscale>
<asrwt>0</asrwt>
<pdfrwt beam="1">  1       21 0.64001399E-01 0.22258508E+02</pdfrwt>
<pdfrwt beam="2">  1       21 0.22679829E-03 0.22258508E+02</pdfrwt>
<totfact> 0.62125370E+07</totfact>
</mgrwt>
</event>
<event>
 4    1  0.4578942E+006  0.2011008E+02  0.7546771E-02  0.1743148E+00
         21   -1    0    0  503  501  0.00000000000E+00  0.00000000000E+00  0.12347547380E+02  0.12347547380E+02  0.00000000000E+00 0. -1.
         21   -1    0    0  504  502 -0.00000000000E+00 -0.00000000000E+00 -0.10530619875E+03  0.10530619875E+03  0.00000000000E+00 0. -1.
         21    1    1    2  503  502  0.18594421312E+02 -0.76591595065E+01  0.23496985412E+01  0.20246883995E+02  0.00000000000E+00 0. -1.
         21    1    1    2  504  501 -0.18594421312E+02  0.76591595065E+01 -0.95308349915E+02  0.97406862139E+02  0.00000000000E+00 0. -1.
<mgrwt>
<rscale>  2 0.20110078E+02</rscale>
<asrwt>0</asrwt>
<pdfrwt beam="1">  1       21 0.18996228E-02 0.20110078E+02</pdfrwt>
<pdfrwt beam="2">  1       21 0.16200953E-01 0.20110078E+02</pdfrwt>
<totfact> 0.32429221E+07</totfact>
</mgrwt>
</event>
<event>
 4    1  0.4578942E+006  0.3332603E+02  0.7546771E-02  0.1563989E+00
         21   -1    0    0  503  501  0.00000000000E+00  0.00000000000E+00  0.92550742338E+01  0.92550742338E+01  0.00000000000E+00 0. -1.
         21   -1    0    0  501  502 -0.00000000000E+00 -0.00000000000E+00 -0.21060215227E+03  0.21060215227E+03  0.00000000000E+00 0. -1.
         21    1    1    2  503  504  0.25803421862E+02  0.21090465695E+02 -0.28571987178E+02  0.43897411932E+02  0.00000000000E+00 0. -1.
         21    1    1    2  504  502 -0.25803421862E+02 -0.21090465695E+02 -0.17277509086E+03  0.17595981457E+03  0.00000000000E+00 0. -1.
<mgrwt>
<rscale>  2 0.33326031E+02</rscale>
<asrwt>0</asrwt>
<pdfrwt beam="1">  1       21 0.14238577E-02 0.33326031E+02</pdfrwt>
<pdfrwt beam="2">  1       21 0.32400329E-01 0.33326031E+02</pdfrwt>
<totfact> 0.16306944E+07</totfact>
</mgrwt>
</event>
<event>
 4    1  0.4578942E+006  0.2112080E+02  0.7546771E-02  0.1723916E+00
         21   -1    0    0  504  501  0.00000000000E+00  0.00000000000E+00  0.14251496248E+04  0.14251496248E+04  0.00000000000E+00 0.  1.
         21   -1    0    0  503  502 -0.00000000000E+00 -0.00000000000E+00 -0.57386053634E+00  0.57386053634E+00  0.00000000000E+00 0. -1.
         21    1    1    2  503  501  0.86373805264E+01 -0.19273913333E+02  0.11929023394E+04  0.11930893007E+04  0.00000000000E+00 0.  1.
         21    1    1    2  504  502 -0.86373805264E+01  0.19273913333E+02  0.23167342487E+03  0.23263418465E+03  0.00000000000E+00 0. -1.
<mgrwt>
<rscale>  2 0.21120797E+02</rscale>
<asrwt>0</asrwt>
<pdfrwt beam="1">  1       21 0.21925096E+00 0.21120797E+02</pdfrwt>
<pdfrwt beam="2">  1       21 0.88287377E-04 0.21120797E+02</pdfrwt>
<totfact> 0.14436703E+07</totfact>
</mgrwt>
</event>
<event>
 4    1  0.4578942E+006  0.2185928E+02  0.7546771E-02  0.1710697E+00
         21   -1    0    0  502  501  0.00000000000E+00  0.00000000000E+00  0.87058719817E+01  0.87058719817E+01  0.00000000000E+00 0. -1.
         21   -1    0    0  503  502 -0.00000000000E+00 -0.00000000000E+00 -0.14807106064E+03  0.14807106064E+03  0.00000000000E+00 0.  1.
         21    1    1    2  503  504  0.46942002716E+01  0.21349301051E+02 -0.13186833915E+03  0.13366782351E+03  0.00000000000E+00 0.  1.
         21    1    1    2  504  501 -0.46942002716E+01 -0.21349301051E+02 -0.74968495133E+01  0.23109109117E+02  0.00000000000E+00 0. -1.
<mgrwt>
<rscale>  2 0.21859281E+02</rscale>
<asrwt>0</asrwt>
<pdfrwt beam="1">  1       21 0.13393649E-02 0.21859281E+02</pdfrwt>
<pdfrwt beam="2">  1       21 0.22780164E-01 0.21859281E+02</pdfrwt>
<totfact> 0.31169276E+07</totfact>
</mgrwt>
</event>
<event>
 4    1  0.4578942E+006  0.2174771E+02  0.7546771E-02  0.1712652E+00
         21   -1    0    0  503  501  0.00000000000E+00  0.00000000000E+00  0.15971398499E+03  0.15971398499E+03  0.00000000000E+00 0. -1.
         21   -1    0    0  501  502 -0.00000000000E+00 -0.00000000000E+00 -0.10216350706E+02  0.10216350706E+02  0.00000000000E+00 0. -1.
         21    1    1    2  503  504 -0.21427176698E+02  0.37200511226E+01  0.14634880334E+03  0.14795585463E+03  0.00000000000E+00 0. -1.
         21    1    1    2  504  502  0.21427176698E+02 -0.37200511226E+01  0.31488309439E+01  0.21974481061E+02  0.00000000000E+00 0. -1.
<mgrwt>
<rscale>  2 0.21747705E+02</rscale>
<asrwt>0</asrwt>
<pdfrwt beam="1">  1       21 0.24571380E-01 0.21747705E+02</pdfrwt>
<pdfrwt beam="2">  1       21 0.15717464E-02 0.21747705E+02</pdfrwt>
<totfact> 0.21368035E+07</totfact>
</mgrwt>
</event>
<event>
 4    1  0.4578942E+006  0.2430094E+02  0.7546771E-02  0.1671251E+00
         21   -1    0    0  503  501  0.00000000000E+00  0.00000000000E+00  0.46419886941E+01  0.46419886941E+01  0.00000000000E+00 0. -1.
         21   -1    0    0  504  502 -0.00000000000E+00 -0.00000000000E+00 -0.12767678265E+03  0.12767678265E+03  0.00000000000E+00 0. -1.
         21    1    1    2  503  502  0.24298931583E+02  0.31238703838E+00 -0.65491508960E+02  0.69854659169E+02  0.00000000000E+00 0. -1.
         21    1    1    2  504  501 -0.24298931583E+02 -0.31238703838E+00 -0.57543284997E+02  0.62464112176E+02  0.00000000000E+00 0. -1.
<mgrwt>
<rscale>  2 0.24300940E+02</rscale>
<asrwt>0</asrwt>
<pdfrwt beam="1">  1       21 0.71415228E-03 0.24300940E+02</pdfrwt>
<pdfrwt beam="2">  1       21 0.19642577E-01 0.24300940E+02</pdfrwt>
<totfact> 0.10675837E+08</totfact>
</mgrwt>
</event>
<event>
 4    1  0.4578942E+006  0.2019167E+02  0.7546771E-02  0.1741543E+00
         21   -1    0    0  504  501  0.00000000000E+00  0.00000000000E+00  0.15068293026E+03  0.15068293026E+03  0.00000000000E+00 0.  1.
         21   -1    0    0  503  502 -0.00000000000E+00 -0.00000000000E+00 -0.75959318363E+02  0.75959318363E+02  0.00000000000E+00 0.  1.
         21    1    1    2  503  501  0.17218653416E+02  0.10546163592E+02 -0.73922743172E+02  0.76630774171E+02  0.00000000000E+00 0.  1.
         21    1    1    2  504  502 -0.17218653416E+02 -0.10546163592E+02  0.14864635507E+03  0.15001147445E+03  0.00000000000E+00 0.  1.
<mgrwt>
<rscale>  2 0.20191671E+02</rscale>
<asrwt>0</asrwt>
<pdfrwt beam="1">  1       21 0.23181989E-01 0.20191671E+02</pdfrwt>
<pdfrwt beam="2">  1       21 0.11686049E-01 0.20191671E+02</pdfrwt>
<totfact> 0.98308761E+05</totfact>
</mgrwt>
</event>
<event>
 4    1  0.4578942E+006  0.3473642E+02  0.7546771E-02  0.1550954E+00
         21   -1    0    0  503  501  0.00000000000E+00  0.00000000000E+00  0.13731278831E+03  0.13731278831E+03  0.00000000000E+00 0.  1.
         21   -1    0    0  504  502 -0.00000000000E+00 -0.00000000000E+00 -0.91745118592E+01  0.91745118592E+01  0.00000000000E+00 0. -1.
         21    1    1    2  503  502 -0.32813846026E+02 -0.11396074599E+02  0.79114775125E+02  0.86404667989E+02  0.00000000000E+00 0.  1.
         21    1    1    2  504  501  0.32813846026E+02  0.11396074599E+02  0.49023501322E+02  0.60082632176E+02  0.00000000000E+00 0. -1.
<mgrwt>
<rscale>  2 0.34736422E+02</rscale>
<asrwt>0</asrwt>
<pdfrwt beam="1">  1       21 0.21125043E-01 0.34736422E+02</pdfrwt>
<pdfrwt beam="2">  1       21 0.14114635E-02 0.34736422E+02</pdfrwt>
<totfact> 0.36285907E+07</totfact>
</mgrwt>
</event>
<event>
 4    1  0.4578942E+006  0.2127984E+02  0.7546771E-02  0.1721013E+00
         21   -1    0    0  504  501  0.00000000000E+00  0.00000000000E+00  0.17139662740E+02  0.17139662740E+02  0.00000000000E+00 0.  1.
         21   -1    0    0  501  502 -0.00000000000E+00 -0.00000000000E+00 -0.11795804851E+03  0.11795804851E+03  0.00000000000E+00 0.  1.
         21    1    1    2  503  502 -0.19347405281E+02  0.88605608287E+01 -0.10991437523E+03  0.11195535499E+03  0.00000000000E+00 0.  1.
         21    1    1    2  504  503  0.19347405281E+02 -0.88605608287E+01  0.90959894535E+01  0.23142356264E+02  0.00000000000E+00 0.  1.
<mgrwt>
<rscale>  2 0.21279841E+02</rscale>
<asrwt>0</asrwt>
<pdfrwt beam="1">  1       21 0.26368712E-02 0.21279841E+02</pdfrwt>
<pdfrwt beam="2">  1       21 0.18147392E-01 0.21279841E+02</pdfrwt>
<totfact> 0.16357550E+07</totfact>
</mgrwt>
</event>
<event>
 4    1  0.4578942E+006  0.2299529E+02  0.7546771E-02  0.1691586E+00
         21   -1    0    0  504  501  0.00000000000E+00  0.00000000000E+00  0.10394612680E+02  0.10394612680E+02  0.00000000000E+00 0.  1.
         21   -1    0    0  503  502 -0.00000000000E+00 -0.00000000000E+00 -0.50913694236E+02  0.50913694236E+02  0.00000000000E+00 0. -1.
         21    1    1    2  503  501  0.22654208114E+02 -0.39459241464E+01 -0.19370981703E+02  0.30066898656E+02  0.00000000000E+00 0.  1.
         21    1    1    2  504  502 -0.22654208114E+02  0.39459241464E+01 -0.21148099853E+02  0.31241408259E+02  0.00000000000E+00 0. -1.
<mgrwt>
<rscale>  2 0.22995292E+02</rscale>
<asrwt>0</asrwt>
<pdfrwt beam="1">  1       21 0.15991712E-02 0.22995292E+02</pdfrwt>
<pdfrwt beam="2">  1       21 0.78328762E-02 0.22995292E+02</pdfrwt>
<totfact> 0.14654181E+08</totfact>
</mgrwt>
</event>
<event>
 4    1  0.4578942E+006  0.2059496E+02  0.7546771E-02  0.1733749E+00
         21   -1    0    0  502  501  0.00000000000E+00  0.00000000000E+00  0.12605684226E+02  0.12605684226E+02  0.00000000000E+00 0.  1.
         21   -1    0    0  504  502 -0.00000000000E+00 -0.00000000000E+00 -0.15474899005E+03  0.15474899005E+03  0.00000000000E+00 0.  1.
         21    1    1    2  503  501  0.17785532422E+02  0.10383992737E+02  0.29516224331E+01  0.20805396984E+02  0.00000000000E+00 0.  1.
         21    1    1    2  504  503 -0.17785532422E+02 -0.10383992737E+02 -0.14509492826E+03  0.14654927729E+03  0.00000000000E+00 0.  1.
<mgrwt>
<rscale>  2 0.20594962E+02</rscale>
<asrwt>0</asrwt>
<pdfrwt beam="1">  1       21 0.19393359E-02 0.20594962E+02</pdfrwt>
<pdfrwt beam="2">  1       21 0.23807539E-01 0.20594962E+02</pdfrwt>
<totfact> 0.16215167E+07</totfact>
</mgrwt>
</event>
<event>
 4    1  0.4578942E+006  0.2440072E+02  0.7546771E-02  0.1669762E+00
         21   -1    0    0  504  501  0.00000000000E+00  0.00000000000E+00  0.76730009384E+01  0.76730009384E+01  0.00000000000E+00 0.  1.
         21   -1    0    0  503  502 -0.00000000000E+00 -0.00000000000E+00 -0.12639843023E+03  0.12639843023E+03  0.00000000000E+00 0.  1.
         21    1    1    2  503  501  0.11339132107E+02 -0.21606002535E+02 -0.17708830297E+02  0.30149592584E+02  0.00000000000E+00 0.  1.
         21    1    1    2  504  502 -0.11339132107E+02  0.21606002535E+02 -0.10101659900E+03  0.10392183859E+03  0.00000000000E+00 0.  1.
<mgrwt>
<rscale>  2 0.24400723E+02</rscale>
<asrwt>0</asrwt>
<pdfrwt beam="1">  1       21 0.11804618E-02 0.24400723E+02</pdfrwt>
<pdfrwt beam="2">  1       21 0.19445911E-01 0.24400723E+02</pdfrwt>
<totfact> 0.51143805E+07</totfact>
</mgrwt>
</event>
<event>
 4    1  0.4578942E+006  0.2774418E+02  0.7546771E-02  0.1624452E+00
         21   -1    0    0  503  501  0.00000000000E+00  0.00000000000E+00  0.24337341630E+01  0.24337341630E+01  0.00000000000E+00 0. -1.
         21   -1    0    0  504  502 -0.00000000000E+00 -0.00000000000E+00 -0.37278865032E+03  0.37278865032E+03  0.00000000000E+00 0. -1.
         21    1    1    2  503  502 -0.27649393834E+02 -0.22914313494E+01 -0.25822199131E+03  0.25970817552E+03  0.00000000000E+00 0. -1.
         21    1    1    2  504  501  0.27649393834E+02  0.22914313494E+01 -0.11213292485E+03  0.11551420896E+03  0.00000000000E+00 0. -1.
<mgrwt>
<rscale>  2 0.27744182E+02</rscale>
<asrwt>0</asrwt>
<pdfrwt beam="1">  1       21 0.37442091E-03 0.27744182E+02</pdfrwt>
<pdfrwt beam="2">  1       21 0.57352059E-01 0.27744182E+02</pdfrwt>
<totfact> 0.39103506E+07</totfact>
</mgrwt>
</event>
<event>
 4    1  0.4578942E+006  0.3122660E+02  0.7546771E-02  0.1584913E+00
         21   -1    0    0  503  501  0.00000000000E+00  0.00000000000E+00  0.13708146959E+02  0.13708146959E+02  0.00000000000E+00 0.  1.
         21   -1    0    0  501  502 -0.00000000000E+00 -0.00000000000E+00 -0.26762317298E+03  0.26762317298E+03  0.00000000000E+00 0.  1.
         21    1    1    2  503  504 -0.49339111869E+00  0.31222705836E+02 -0.64270806975E+01  0.31881156830E+02  0.00000000000E+00 0.  1.
         21    1    1    2  504  502  0.49339111869E+00 -0.31222705836E+02 -0.24748794532E+03  0.24945016311E+03  0.00000000000E+00 0.  1.
<mgrwt>
<rscale>  2 0.31226604E+02</rscale>
<asrwt>0</asrwt>
<pdfrwt beam="1">  1       21 0.21089458E-02 0.31226604E+02</pdfrwt>
<pdfrwt beam="2">  1       21 0.41172795E-01 0.31226604E+02</pdfrwt>
<totfact> 0.55987736E+06</totfact>
</mgrwt>
</event>
<event>
 4    1  0.4578942E+006  0.3546728E+02  0.7546771E-02  0.1544490E+00
         21   -1    0    0  503  501  0.00000000000E+00  0.00000000000E+00  0.87124575790E+02  0.87124575790E+02  0.00000000000E+00 0.  1.
         21   -1    0    0  501  502 -0.00000000000E+00 -0.00000000000E+00 -0.26480956037E+02  0.26480956037E+02  0.00000000000E+00 0.  1.
         21    1    1    2  503  504  0.30416344923E+02  0.18242085632E+02  0.68627599812E+02  0.77250729334E+02  0.00000000000E+00 0.  1.
         21    1    1    2  504  502 -0.30416344923E+02 -0.18242085632E+02 -0.79839800581E+01  0.36354802493E+02  0.00000000000E+00 0.  1.
<mgrwt>
<rscale>  2 0.35467277E+02</rscale>
<asrwt>0</asrwt>
<pdfrwt beam="1">  1       21 0.13403781E-01 0.35467277E+02</pdfrwt>
<pdfrwt beam="2">  1       21 0.40739933E-02 0.35467277E+02</pdfrwt>
<totfact> 0.15304840E+07</totfact>
</mgrwt>
</event>
<event>
 4    1  0.4578942E+006  0.2232391E+02  0.7546771E-02  0.1702710E+00
         21   -1    0    0  504  501  0.00000000000E+00  0.00000000000E+00  0.23727180193E+02  0.23727180193E+02  0.00000000000E+00 0.  1.
         21   -1    0    0  503  502 -0.00000000000E+00 -0.00000000000E+00 -0.30076740298E+02  0.30076740298E+02  0.00000000000E+00 0.  1.
         21    1    1    2  503  501 -0.17582919121E+02  0.13754919875E+02 -0.17950433192E+02  0.28645678860E+02  0.00000000000E+00 0.  1.
         21    1    1    2  504  502  0.17582919121E+02 -0.13754919875E+02  0.11600873086E+02  0.25158241631E+02  0.00000000000E+00 0.  1.
<mgrwt>
<rscale>  2 0.22323908E+02</rscale>
<asrwt>0</asrwt>
<pdfrwt beam="1">  1       21 0.36503354E-02 0.22323908E+02</pdfrwt>
<pdfrwt beam="2">  1       21 0.46271908E-02 0.22323908E+02</pdfrwt>
<totfact> 0.94576621E+07</totfact>
</mgrwt>
</event>
<event>
 4    1  0.4578942E+006  0.2060943E+02  0.7546771E-02  0.1733473E+00
         21   -1    0    0  504  501  0.00000000000E+00  0.00000000000E+00  0.20876019280E+03  0.20876019280E+03  0.00000000000E+00 0. -1.
         21   -1    0    0  503  502 -0.00000000000E+00 -0.00000000000E+00 -0.20554975998E+01  0.20554975998E+01  0.00000000000E+00 0. -1.
         21    1    1    2  503  501 -0.15046278195E+02 -0.14083973304E+02  0.92730537774E+02  0.94993165161E+02  0.00000000000E+00 0. -1.
         21    1    1    2  504  502  0.15046278195E+02  0.14083973304E+02  0.11397415743E+03  0.11582252524E+03  0.00000000000E+00 0. -1.
<mgrwt>
<rscale>  2 0.20609435E+02</rscale>
<asrwt>0</asrwt>
<pdfrwt beam="1">  1       21 0.32116936E-01 0.20609435E+02</pdfrwt>
<pdfrwt beam="2">  1       21 0.31623057E-03 0.20609435E+02</pdfrwt>
<totfact> 0.14067337E+08</totfact>
</mgrwt>
</event>
<event>
 4    1  0.4578942E+006  0.2009602E+02  0.7546771E-02  0.1743425E+00
         21   -1    0    0  504  501  0.00000000000E+00  0.00000000000E+00  0.11360476025E+03  0.11360476025E+03  0.00000000000E+00 0.  1.
         21   -1    0    0  503  502 -0.00000000000E+00 -0.00000000000E+00 -0.18204314521E+02  0.18204314521E+02  0.00000000000E+00 0.  1.
         21    1    1    2  503  501 -0.11592160622E+02  0.16415602935E+02 -0.11420362087E+02  0.23114386814E+02  0.00000000000E+00 0.  1.
         21    1    1    2  504  502  0.11592160622E+02 -0.16415602935E+02  0.10682080782E+03  0.10869468796E+03  0.00000000000E+00 0.  1.
<mgrwt>
<rscale>  2 0.20096025E+02</rscale>
<asrwt>0</asrwt>
<pdfrwt beam="1">  1       21 0.17477655E-01 0.20096025E+02</pdfrwt>
<pdfrwt beam="2">  1       21 0.28006639E-02 0.20096025E+02</pdfrwt>
<totfact> 0.15701417E+07</totfact>
</mgrwt>
</event>
<event>
 4    1  0.4578942E+006  0.2159877E+02  0.7546771E-02  0.1715285E+00
         21   -1    0    0  504  501  0.00000000000E+00  0.00000000000E+00  0.44779128315E+01  0.44779128315E+01  0.00000000000E+00 0. -1.
         21   -1    0    0  503  502 -0.00000000000E+00 -0.00000000000E+00 -0.73054908157E+03  0.73054908157E+03  0.00000000000E+00 0. -1.
         21    1    1    2  503  501  0.21372904618E+02  0.31154343829E+01 -0.22734053349E+02  0.31358318910E+02  0.00000000000E+00 0. -1.
         21    1    1    2  504  502 -0.21372904618E+02 -0.31154343829E+01 -0.70333711539E+03  0.70366867549E+03  0.00000000000E+00 0. -1.
<mgrwt>
<rscale>  2 0.21598773E+02</rscale>
<asrwt>0</asrwt>
<pdfrwt beam="1">  1       21 0.68891021E-03 0.21598773E+02</pdfrwt>
<pdfrwt beam="2">  1       21 0.11239208E+00 0.21598773E+02</pdfrwt>
<totfact> 0.36831188E+06</totfact>
</mgrwt>
</event>
<event>
 4    1  0.4578942E+006  0.2266312E+02  0.7546771E-02  0.1697030E+00
         21   -1    0    0  503  501  0.00000000000E+00  0.00000000000E+00  0.62830955977E+03  0.62830955977E+03  0.00000000000E+00 0. -1.
         21   -1    0    0  501  502 -0.00000000000E+00 -0.00000000000E+00 -0.56757797963E+02  0.56757797963E+02  0.00000000000E+00 0. -1.
         21    1    1    2  503  504  0.18871348622E+02 -0.12549476828E+02  0.62583392905E+03  0.62624414082E+03  0.00000000000E+00 0. -1.
         21    1    1    2  504  502 -0.18871348622E+02  0.12549476828E+02 -0.54282167240E+02  0.58823216911E+02  0.00000000000E+00 0. -1.
<mgrwt>
<rscale>  2 0.22663124E+02</rscale>
<asrwt>0</asrwt>
<pdfrwt beam="1">  1       21 0.96663004E-01 0.22663124E+02</pdfrwt>
<pdfrwt beam="2">  1       21 0.87319694E-02 0.22663124E+02</pdfrwt>
<totfact> 0.10073394E+05</totfact>
</mgrwt>
</event>
<event>
 4    1  0.4578942E+006  0.2997813E+02  0.7546771E-02  0.1598330E+00
         21   -1    0    0  504  501  0.00000000000E+00  0.00000000000E+00  0.65392044538E+03  0.65392044538E+03  0.00000000000E+00 0. -1.
         21   -1    0    0  503  502 -0.00000000000E+00 -0.00000000000E+00 -0.27187019984E+01  0.27187019984E+01  0.00000000000E+00 0.  1.
         21    1    1    2  503  501  0.42109788796E+01  0.29680906705E+02  0.94724685770E+02  0.99355194429E+02  0.00000000000E+00 0.  1.
         21    1    1    2  504  502 -0.42109788796E+01 -0.29680906705E+02  0.55647705762E+03  0.55728395295E+03  0.00000000000E+00 0. -1.
<mgrwt>
<rscale>  2 0.29978135E+02</rscale>
<asrwt>0</asrwt>
<pdfrwt beam="1">  1       21 0.10060302E+00 0.29978135E+02</pdfrwt>
<pdfrwt beam="2">  1       21 0.41826237E-03 0.29978135E+02</pdfrwt>
<totfact> 0.10324698E+07</totfact>
</mgrwt>
</event>
<event>
 4    1  0.4578942E+006  0.3656124E+02  0.7546771E-02  0.1535158E+00
         21   -1    0    0  504  501  0.00000000000E+00  0.00000000000E+00  0.29022245175E+03  0.29022245175E+03  0.00000000000E+00 0.  1.
         21   -1    0    0  503  502 -0.00000000000E+00 -0.00000000000E+00 -0.46325508831E+01  0.46325508831E+01  0.00000000000E+00 0.  1.
         21    1    1    2  503  501 -0.27434824955E+02 -0.24167222516E+02  0.13160464480E+03  0.13658882384E+03  0.00000000000E+00 0.  1.
         21    1    1    2  504  502  0.27434824955E+02  0.24167222516E+02  0.15398525606E+03  0.15826617879E+03  0.00000000000E+00 0.  1.
<mgrwt>
<rscale>  2 0.36561240E+02</rscale>
<asrwt>0</asrwt>
<pdfrwt beam="1">  1       21 0.44649594E-01 0.36561240E+02</pdfrwt>
<pdfrwt beam="2">  1       21 0.71270036E-03 0.36561240E+02</pdfrwt>
<totfact> 0.25797565E+07</totfact>
</mgrwt>
</event>
<event>
 4    1  0.4578942E+006  0.2199150E+02  0.7546771E-02  0.1708399E+00
         21   -1    0    0  503  501  0.00000000000E+00  0.00000000000E+00  0.85641793499E+02  0.85641793499E+02  0.00000000000E+00 0.  1.
         21   -1    0    0  504  502 -0.00000000000E+00 -0.00000000000E+00 -0.49329948918E+02  0.49329948918E+02  0.00000000000E+00 0. -1.
         21    1    1    2  503  502  0.15737077937E+02  0.15361331541E+02 -0.45349834901E+02  0.50400730691E+02  0.00000000000E+00 0. -1.
         21    1    1    2  504  501 -0.15737077937E+02 -0.15361331541E+02  0.81661679481E+02  0.84571011726E+02  0.00000000000E+00 0.  1.
<mgrwt>
<rscale>  2 0.21991501E+02</rscale>
<asrwt>0</asrwt>
<pdfrwt beam="1">  1       21 0.13175661E-01 0.21991501E+02</pdfrwt>
<pdfrwt beam="2">  1       21 0.75892229E-02 0.21991501E+02</pdfrwt>
<totfact> 0.53357914E+06</totfact>
</mgrwt>
</event>
<event>
 4    1  0.4578942E+006  0.2279514E+02  0.7546771E-02  0.1694853E+00
         21   -1    0    0  503  501  0.00000000000E+00  0.00000000000E+00  0.15871873856E+02  0.15871873856E+02  0.00000000000E+00 0.  1.
         21   -1    0    0  504  502 -0.00000000000E+00 -0.00000000000E+00 -0.37273932560E+02  0.37273932560E+02  0.00000000000E+00 0.  1.
         21    1    1    2  503  502  0.22651519410E+02 -0.25547778451E+01 -0.19970505020E+02  0.30305763349E+02  0.00000000000E+00 0.  1.
         21    1    1    2  504  501 -0.22651519410E+02  0.25547778451E+01 -0.14315536844E+01  0.22840043068E+02  0.00000000000E+00 0.  1.
<mgrwt>
<rscale>  2 0.22795136E+02</rscale>
<asrwt>0</asrwt>
<pdfrwt beam="1">  1       21 0.24418268E-02 0.22795136E+02</pdfrwt>
<pdfrwt beam="2">  1       21 0.57344511E-02 0.22795136E+02</pdfrwt>
<totfact> 0.12638883E+08</totfact>
</mgrwt>
</event>
<event>
 4    1  0.4578942E+006  0.2189648E+02  0.7546771E-02  0.1710048E+00
         21   -1    0    0  504  501  0.00000000000E+00  0.00000000000E+00  0.66683006848E+01  0.66683006848E+01  0.00000000000E+00 0.  1.
         21   -1    0    0  503  502 -0.00000000000E+00 -0.00000000000E+00 -0.29368251438E+03  0.29368251438E+03  0.00000000000E+00 0. -1.
         21    1    1    2  503  501  0.25507988865E+01 -0.21747399911E+02 -0.13003453892E+02  0.25466562214E+02  0.00000000000E+00 0.  1.
         21    1    1    2  504  502 -0.25507988865E+01  0.21747399911E+02 -0.27401075980E+03  0.27488425285E+03  0.00000000000E+00 0. -1.
<mgrwt>
<rscale>  2 0.21896483E+02</rscale>
<asrwt>0</asrwt>
<pdfrwt beam="1">  1       21 0.10258924E-02 0.21896483E+02</pdfrwt>
<pdfrwt beam="2">  1       21 0.45181927E-01 0.21896483E+02</pdfrwt>
<totfact> 0.13290601E+07</totfact>
</mgrwt>
</event>
<event>
 4    1  0.4578942E+006  0.2576600E+02  0.7546771E-02  0.1650237E+00
         21   -1    0    0  504  501  0.00000000000E+00  0.00000000000E+00  0.77971706171E+02  0.77971706171E+02  0.00000000000E+00 0.  1.
         21   -1    0    0  503  502 -0.00000000000E+00 -0.00000000000E+00 -0.91243015926E+01  0.91243015926E+01  0.00000000000E+00 0.  1.
         21    1    1    2  503  501 -0.23576669964E+02 -0.10393614758E+02  0.45682154486E+02  0.52447553164E+02  0.00000000000E+00 0.  1.
         21    1    1    2  504  502  0.23576669964E+02  0.10393614758E+02  0.23165250093E+02  0.34648454600E+02  0.00000000000E+00 0.  1.
<mgrwt>
<rscale>  2 0.25765997E+02</rscale>
<asrwt>0</asrwt>
<pdfrwt beam="1">  1       21 0.11995647E-01 0.25765997E+02</pdfrwt>
<pdfrwt beam="2">  1       21 0.14037388E-02 0.25765997E+02</pdfrwt>
<totfact> 0.91120451E+07</totfact>
</mgrwt>
</event>
<event>
 4    1  0.4578942E+006  0.3506206E+02  0.7546771E-02  0.1548050E+00
         21   -1    0    0  503  501  0.00000000000E+00  0.00000000000E+00  0.93476733909E+02  0.93476733909E+02  0.00000000000E+00 0. -1.
         21   -1    0    0  501  502 -0.00000000000E+00 -0.00000000000E+00 -0.16962912722E+02  0.16962912722E+02  0.00000000000E+00 0. -1.
         21    1    1    2  503  504  0.17193756433E+02  0.30556873801E+02  0.64432398091E+02  0.73354493527E+02  0.00000000000E+00 0. -1.
         21    1    1    2  504  502 -0.17193756433E+02 -0.30556873801E+02  0.12081423096E+02  0.37085153105E+02  0.00000000000E+00 0. -1.
<mgrwt>
<rscale>  2 0.35062056E+02</rscale>
<asrwt>0</asrwt>
<pdfrwt beam="1">  1       21 0.14381036E-01 0.35062056E+02</pdfrwt>
<pdfrwt beam="2">  1       21 0.26096789E-02 0.35062056E+02</pdfrwt>
<totfact> 0.27433537E+07</totfact>
</mgrwt>
</event>
<event>
 4    1  0.4578942E+006  0.2434375E+02  0.7546771E-02  0.1670611E+00
         21   -1    0    0  503  501  0.00000000000E+00  0.00000000000E+00  0.27510090017E+03  0.27510090017E+03  0.00000000000E+00 0.  1.
         21   -1    0    0  504  502 -0.00000000000E+00 -0.00000000000E+00 -0.21668983036E+01  0.21668983036E+01  0.00000000000E+00 0.  1.
         21    1    1    2  503  502  0.20125798772E+02 -0.13695631132E+02  0.14708611641E+03  0.14908703407E+03  0.00000000000E+00 0.  1.
         21    1    1    2  504  501 -0.20125798772E+02  0.13695631132E+02  0.12584788546E+03  0.12818076440E+03  0.00000000000E+00 0.  1.
<mgrwt>
<rscale>  2 0.24343748E+02</rscale>
<asrwt>0</asrwt>
<pdfrwt beam="1">  1       21 0.42323188E-01 0.24343748E+02</pdfrwt>
<pdfrwt beam="2">  1       21 0.33336919E-03 0.24343748E+02</pdfrwt>
<totfact> 0.81486482E+07</totfact>
</mgrwt>
</event>
<event>
 4    1  0.4578942E+006  0.2641789E+02  0.7546771E-02  0.1641434E+00
         21   -1    0    0  502  501  0.00000000000E+00  0.00000000000E+00  0.41843696386E+02  0.41843696386E+02  0.00000000000E+00 0. -1.
         21   -1    0    0  504  502 -0.00000000000E+00 -0.00000000000E+00 -0.36829697293E+02  0.36829697293E+02  0.00000000000E+00 0.  1.
         21    1    1    2  503  501  0.24590782456E+02  0.96539223893E+01  0.31603814601E+02  0.41191090015E+02  0.00000000000E+00 0. -1.
         21    1    1    2  504  503 -0.24590782456E+02 -0.96539223893E+01 -0.26589815507E+02  0.37482303665E+02  0.00000000000E+00 0.  1.
<mgrwt>
<rscale>  2 0.26417888E+02</rscale>
<asrwt>0</asrwt>
<pdfrwt beam="1">  1       21 0.64374918E-02 0.26417888E+02</pdfrwt>
<pdfrwt beam="2">  1       21 0.56661073E-02 0.26417888E+02</pdfrwt>
<totfact> 0.28916757E+07</totfact>
</mgrwt>
</event>
<event>
 4    1  0.4578942E+006  0.2117499E+02  0.7546771E-02  0.1722924E+00
         21   -1    0    0  502  501  0.00000000000E+00  0.00000000000E+00  0.13418680914E+01  0.13418680914E+01  0.00000000000E+00 0. -1.
         21   -1    0    0  504  502 -0.00000000000E+00 -0.00000000000E+00 -0.33931201604E+03  0.33931201604E+03  0.00000000000E+00 0. -1.
         21    1    1    2  503  501  0.12598138041E+02 -0.17019604316E+02 -0.14796875467E+03  0.14947619333E+03  0.00000000000E+00 0. -1.
         21    1    1    2  504  503 -0.12598138041E+02  0.17019604316E+02 -0.19000139328E+03  0.19117769081E+03  0.00000000000E+00 0. -1.
<mgrwt>
<rscale>  2 0.21174986E+02</rscale>
<asrwt>0</asrwt>
<pdfrwt beam="1">  1       21 0.20644125E-03 0.21174986E+02</pdfrwt>
<pdfrwt beam="2">  1       21 0.52201848E-01 0.21174986E+02</pdfrwt>
<totfact> 0.10523367E+08</totfact>
</mgrwt>
</event>
<event>
 4    1  0.4578942E+006  0.2299658E+02  0.7546771E-02  0.1691566E+00
         21   -1    0    0  504  501  0.00000000000E+00  0.00000000000E+00  0.87684301790E+03  0.87684301790E+03  0.00000000000E+00 0.  1.
         21   -1    0    0  503  502 -0.00000000000E+00 -0.00000000000E+00 -0.15557158337E+01  0.15557158337E+01  0.00000000000E+00 0.  1.
         21    1    1    2  503  501 -0.12644226561E+02  0.19208489679E+02  0.93966504772E+02  0.96739581145E+02  0.00000000000E+00 0.  1.
         21    1    1    2  504  502  0.12644226561E+02 -0.19208489679E+02  0.78132079729E+03  0.78165915259E+03  0.00000000000E+00 0.  1.
<mgrwt>
<rscale>  2 0.22996577E+02</rscale>
<asrwt>0</asrwt>
<pdfrwt beam="1">  1       21 0.13489853E+00 0.22996577E+02</pdfrwt>
<pdfrwt beam="2">  1       21 0.23934160E-03 0.22996577E+02</pdfrwt>
<totfact> 0.11568072E+07</totfact>
</mgrwt>
</event>
<event>
 4    1  0.4578942E+006  0.2868008E+02  0.7546771E-02  0.1613154E+00
         21   -1    0    0  504  501  0.00000000000E+00  0.00000000000E+00  0.25408765538E+02  0.25408765538E+02  0.00000000000E+00 0. -1.
         21   -1    0    0  503  502 -0.00000000000E+00 -0.00000000000E+00 -0.32467683356E+02  0.32467683356E+02  0.00000000000E+00 0. -1.
         21    1    1    2  503  501 -0.10504638026E+02  0.26687063797E+02 -0.19631076437E+01  0.28747183962E+02  0.00000000000E+00 0. -1.
         21    1    1    2  504  502  0.10504638026E+02 -0.26687063797E+02 -0.50958101736E+01  0.29129264932E+02  0.00000000000E+00 0. -1.
<mgrwt>
<rscale>  2 0.28680077E+02</rscale>
<asrwt>0</asrwt>
<pdfrwt beam="1">  1       21 0.39090409E-02 0.28680077E+02</pdfrwt>
<pdfrwt beam="2">  1       21 0.49950282E-02 0.28680077E+02</pdfrwt>
<totfact> 0.80344135E+07</totfact>
</mgrwt>
</event>
<event>
 4    1  0.4578942E+006  0.2237312E+02  0.7546771E-02  0.1701878E+00
         21   -1    0    0  502  501  0.00000000000E+00  0.00000000000E+00  0.43719388624E+02  0.43719388624E+02  0.00000000000E+00 0.  1.
         21   -1    0    0  503  502 -0.00000000000E+00 -0.00000000000E+00 -0.64306813915E+03  0.64306813915E+03  0.00000000000E+00 0.  1.
         21    1    1    2  503  504  0.20781639291E+02 -0.82873248485E+01 -0.63999748890E+03  0.64038843063E+03  0.00000000000E+00 0.  1.
         21    1    1    2  504  501 -0.20781639291E+02  0.82873248485E+01  0.40648738373E+02  0.46399097147E+02  0.00000000000E+00 0.  1.
<mgrwt>
<rscale>  2 0.22373115E+02</rscale>
<asrwt>0</asrwt>
<pdfrwt beam="1">  1       21 0.67260603E-02 0.22373115E+02</pdfrwt>
<pdfrwt beam="2">  1       21 0.98933553E-01 0.22373115E+02</pdfrwt>
<totfact> 0.14641859E+05</totfact>
</mgrwt>
</event>
<event>
 4    1  0.4578942E+006  0.2401345E+02  0.7546771E-02  0.1675590E+00
         21   -1    0    0  502  501  0.00000000000E+00  0.00000000000E+00  0.24634994562E+02  0.24634994562E+02  0.00000000000E+00 0.  1.
         21   -1    0    0  503  502 -0.00000000000E+00 -0.00000000000E+00 -0.79809687776E+02  0.79809687776E+02  0.00000000000E+00 0. -1.
         21    1    1    2  503  504 -0.69975417931E+00 -0.24003254251E+02 -0.71488522956E+02  0.75413889868E+02  0.00000000000E+00 0. -1.
         21    1    1    2  504  501  0.69975417931E+00  0.24003254251E+02  0.16313829743E+02  0.29030792470E+02  0.00000000000E+00 0.  1.
<mgrwt>
<rscale>  2 0.24013452E+02</rscale>
<asrwt>0</asrwt>
<pdfrwt beam="1">  1       21 0.37899992E-02 0.24013452E+02</pdfrwt>
<pdfrwt beam="2">  1       21 0.12278413E-01 0.24013452E+02</pdfrwt>
<totfact> 0.18535847E+07</totfact>
</mgrwt>
</event>
<event>
 4    1  0.4578942E+006  0.2206789E+02  0.7546771E-02  0.1707081E+00
         21   -1    0    0  503  501  0.00000000000E+00  0.00000000000E+00  0.75908193945E+01  0.75908193945E+01  0.00000000000E+00 0. -1.
         21   -1    0    0  504  502 -0.00000000000E+00 -0.00000000000E+00 -0.12797450223E+03  0.12797450223E+03  0.00000000000E+00 0. -1.
         21    1    1    2  503  502 -0.78555212650E+01  0.20622374719E+02 -0.10805842799E+03  0.11028878190E+03  0.00000000000E+00 0. -1.
         21    1    1    2  504  501  0.78555212650E+01 -0.20622374719E+02 -0.12325254844E+02  0.25276539723E+02  0.00000000000E+00 0. -1.
<mgrwt>
<rscale>  2 0.22067885E+02</rscale>
<asrwt>0</asrwt>
<pdfrwt beam="1">  1       21 0.11678183E-02 0.22067885E+02</pdfrwt>
<pdfrwt beam="2">  1       21 0.19688386E-01 0.22067885E+02</pdfrwt>
<totfact> 0.49598638E+07</totfact>
</mgrwt>
</event>
<event>
 4    1  0.4578942E+006  0.2088490E+02  0.7546771E-02  0.1728283E+00
         21   -1    0    0  504  501  0.00000000000E+00  0.00000000000E+00  0.47585896051E+01  0.47585896051E+01  0.00000000000E+00 0. -1.
         21   -1    0    0  503  502 -0.00000000000E+00 -0.00000000000E+00 -0.16529761882E+03  0.16529761882E+03  0.00000000000E+00 0. -1.
         21    1    1    2  503  501 -0.16793767463E+02  0.12415651483E+02 -0.13702069658E+03  0.13860321179E+03  0.00000000000E+00 0. -1.
         21    1    1    2  504  502  0.16793767463E+02 -0.12415651483E+02 -0.23518332634E+02  0.31452996634E+02  0.00000000000E+00 0. -1.
<mgrwt>
<rscale>  2 0.20884900E+02</rscale>
<asrwt>0</asrwt>
<pdfrwt beam="1">  1       21 0.73209079E-03 0.20884900E+02</pdfrwt>
<pdfrwt beam="2">  1       21 0.25430400E-01 0.20884900E+02</pdfrwt>
<totfact> 0.62671333E+07</totfact>
</mgrwt>
</event>
<event>
 4    1  0.4578942E+006  0.2478204E+02  0.7546771E-02  0.1664152E+00
         21   -1    0    0  502  501  0.00000000000E+00  0.00000000000E+00  0.58938676100E+03  0.58938676100E+03  0.00000000000E+00 0. -1.
         21   -1    0    0  503  502 -0.00000000000E+00 -0.00000000000E+00 -0.73697327889E+01  0.73697327889E+01  0.00000000000E+00 0. -1.
         21    1    1    2  503  504  0.21121387042E+02 -0.12962880841E+02  0.14527781510E+02  0.28726393889E+02  0.00000000000E+00 0. -1.
         21    1    1    2  504  501 -0.21121387042E+02  0.12962880841E+02  0.56748924670E+03  0.56803009990E+03  0.00000000000E+00 0. -1.
<mgrwt>
<rscale>  2 0.24782035E+02</rscale>
<asrwt>0</asrwt>
<pdfrwt beam="1">  1       21 0.90674849E-01 0.24782035E+02</pdfrwt>
<pdfrwt beam="2">  1       21 0.11338055E-02 0.24782035E+02</pdfrwt>
<totfact> 0.28453488E+06</totfact>
</mgrwt>
</event>
<event>
 4    1  0.4578942E+006  0.2564523E+02  0.7546771E-02  0.1651904E+00
         21   -1    0    0  503  501  0.00000000000E+00  0.00000000000E+00  0.19208075438E+03  0.19208075438E+03  0.00000000000E+00 0. -1.
         21   -1    0    0  501  502 -0.00000000000E+00 -0.00000000000E+00 -0.52568950811E+02  0.52568950811E+02  0.00000000000E+00 0. -1.
         21    1    1    2  503  504  0.30782099728E+00  0.25643383011E+02  0.18803000177E+03  0.18977080758E+03  0.00000000000E+00 0. -1.
         21    1    1    2  504  502 -0.30782099728E+00 -0.25643383011E+02 -0.48518198199E+02  0.54878897607E+02  0.00000000000E+00 0. -1.
<mgrwt>
<rscale>  2 0.25645230E+02</rscale>
<asrwt>0</asrwt>
<pdfrwt beam="1">  1       21 0.29550885E-01 0.25645230E+02</pdfrwt>
<pdfrwt beam="2">  1       21 0.80875310E-02 0.25645230E+02</pdfrwt>
<totfact> 0.11963785E+06</totfact>
</mgrwt>
</event>
<event>
 4    1  0.4578942E+006  0.3024994E+02  0.7546771E-02  0.1595342E+00
         21   -1    0    0  504  501  0.00000000000E+00  0.00000000000E+00  0.12765084660E+03  0.12765084660E+03  0.00000000000E+00 0.  1.
         21   -1    0    0  503  502 -0.00000000000E+00 -0.00000000000E+00 -0.19060638575E+02  0.19060638575E+02  0.00000000000E+00 0.  1.
         21    1    1    2  503  501  0.26776958003E+02  0.14073142749E+02  0.11223747624E+03  0.11624246169E+03  0.00000000000E+00 0.  1.
         21    1    1    2  504  502 -0.26776958003E+02 -0.14073142749E+02 -0.36472682156E+01  0.30469023486E+02  0.00000000000E+00 0.  1.
<mgrwt>
<rscale>  2 0.30249939E+02</rscale>
<asrwt>0</asrwt>
<pdfrwt beam="1">  1       21 0.19638591E-01 0.30249939E+02</pdfrwt>
<pdfrwt beam="2">  1       21 0.29324060E-02 0.30249939E+02</pdfrwt>
<totfact> 0.12929365E+07</totfact>
</mgrwt>
</event>
<event>
 4    1  0.4578942E+006  0.2574053E+02  0.7546771E-02  0.1650588E+00
         21   -1    0    0  502  501  0.00000000000E+00  0.00000000000E+00  0.35023057606E+03  0.35023057606E+03  0.00000000000E+00 0. -1.
         21   -1    0    0  503  502 -0.00000000000E+00 -0.00000000000E+00 -0.22013358973E+01  0.22013358973E+01  0.00000000000E+00 0. -1.
         21    1    1    2  503  504 -0.23343846520E+02  0.10846185311E+02  0.10793916672E+03  0.11096593449E+03  0.00000000000E+00 0. -1.
         21    1    1    2  504  501  0.23343846520E+02 -0.10846185311E+02  0.24009007345E+03  0.24146597747E+03  0.00000000000E+00 0. -1.
<mgrwt>
<rscale>  2 0.25740530E+02</rscale>
<asrwt>0</asrwt>
<pdfrwt beam="1">  1       21 0.53881583E-01 0.25740530E+02</pdfrwt>
<pdfrwt beam="2">  1       21 0.33866734E-03 0.25740530E+02</pdfrwt>
<totfact> 0.50507696E+07</totfact>
</mgrwt>
</event>
<event>
 4    1  0.4578942E+006  0.2751235E+02  0.7546771E-02  0.1627335E+00
         21   -1    0    0  503  501  0.00000000000E+00  0.00000000000E+00  0.58404592540E+02  0.58404592540E+02  0.00000000000E+00 0.  1.
         21   -1    0    0  504  502 -0.00000000000E+00 -0.00000000000E+00 -0.16401004077E+02  0.16401004077E+02  0.00000000000E+00 0.  1.
         21    1    1    2  503  502 -0.27500446188E+02  0.80920839990E+00  0.38699088119E+01  0.27783188315E+02  0.00000000000E+00 0.  1.
         21    1    1    2  504  501  0.27500446188E+02 -0.80920839990E+00  0.38133679651E+02  0.47022408301E+02  0.00000000000E+00 0.  1.
<mgrwt>
<rscale>  2 0.27512349E+02</rscale>
<asrwt>0</asrwt>
<pdfrwt beam="1">  1       21 0.89853218E-02 0.27512349E+02</pdfrwt>
<pdfrwt beam="2">  1       21 0.25232314E-02 0.27512349E+02</pdfrwt>
<totfact> 0.60808760E+07</totfact>
</mgrwt>
</event>
<event>
 4    1  0.4578942E+006  0.2452701E+02  0.7546771E-02  0.1667890E+00
         21   -1    0    0  504  501  0.00000000000E+00  0.00000000000E+00  0.25502647268E+01  0.25502647268E+01  0.00000000000E+00 0.  1.
         21   -1    0    0  503  502 -0.00000000000E+00 -0.00000000000E+00 -0.43919602612E+03  0.43919602612E+03  0.00000000000E+00 0.  1.
         21    1    1    2  503  501 -0.16800873036E+02  0.17869105212E+02 -0.36859972327E+03  0.36941484845E+03  0.00000000000E+00 0.  1.
         21    1    1    2  504  502  0.16800873036E+02 -0.17869105212E+02 -0.68046038123E+02  0.72331442403E+02  0.00000000000E+00 0.  1.
<mgrwt>
<rscale>  2 0.24527011E+02</rscale>
<asrwt>0</asrwt>
<pdfrwt beam="1">  1       21 0.39234824E-03 0.24527011E+02</pdfrwt>
<pdfrwt beam="2">  1       21 0.67568650E-01 0.24527011E+02</pdfrwt>
<totfact> 0.25571759E+07</totfact>
</mgrwt>
</event>
<event>
 4    1  0.4578942E+006  0.3253916E+02  0.7546771E-02  0.1571606E+00
         21   -1    0    0  504  501  0.00000000000E+00  0.00000000000E+00  0.74521319434E+02  0.74521319434E+02  0.00000000000E+00 0.  1.
         21   -1    0    0  503  502 -0.00000000000E+00 -0.00000000000E+00 -0.20031964116E+03  0.20031964116E+03  0.00000000000E+00 0. -1.
         21    1    1    2  503  501  0.67759156045E+00  0.32532106124E+02 -0.19535664248E+03  0.19804801140E+03  0.00000000000E+00 0. -1.
         21    1    1    2  504  502 -0.67759156045E+00 -0.32532106124E+02  0.69558320755E+02  0.76792949191E+02  0.00000000000E+00 0.  1.
<mgrwt>
<rscale>  2 0.32539162E+02</rscale>
<asrwt>0</asrwt>
<pdfrwt beam="1">  1       21 0.11464818E-01 0.32539162E+02</pdfrwt>
<pdfrwt beam="2">  1       21 0.30818406E-01 0.32539162E+02</pdfrwt>
<totfact> 0.62990661E+05</totfact>
</mgrwt>
</event>
<event>
 4    1  0.4578942E+006  0.2790829E+02  0.7546771E-02  0.1622431E+00
         21   -1    0    0  503  501  0.00000000000E+00  0.00000000000E+00  0.69518558777E+03  0.69518558777E+03  0.00000000000E+00 0.  1.
         21   -1    0    0  504  502 -0.00000000000E+00 -0.00000000000E+00 -0.50512762549E+01  0.50512762549E+01  0.00000000000E+00 0.  1.
         21    1    1    2  503  502  0.27881304766E+02  0.12270688900E+01  0.36208241873E+02  0.45715529452E+02  0.00000000000E+00 0.  1.
         21    1    1    2  504  501 -0.27881304766E+02 -0.12270688900E+01  0.65392606964E+03  0.65452133457E+03  0.00000000000E+00 0.  1.
<mgrwt>
<rscale>  2 0.27908294E+02</rscale>
<asrwt>0</asrwt>
<pdfrwt beam="1">  1       21 0.10695155E+00 0.27908294E+02</pdfrwt>
<pdfrwt beam="2">  1       21 0.77711998E-03 0.27908294E+02</pdfrwt>
<totfact> 0.35448848E+06</totfact>
</mgrwt>
</event>
<event>
 4    1  0.4578942E+006  0.3019063E+02  0.7546771E-02  0.1595991E+00
         21   -1    0    0  504  501  0.00000000000E+00  0.00000000000E+00  0.12302562827E+03  0.12302562827E+03  0.00000000000E+00 0. -1.
         21   -1    0    0  503  502 -0.00000000000E+00 -0.00000000000E+00 -0.80182885417E+01  0.80182885417E+01  0.00000000000E+00 0. -1.
         21    1    1    2  503  501  0.28704950681E+02  0.93541513430E+01  0.39439299930E+02  0.49668226462E+02  0.00000000000E+00 0. -1.
         21    1    1    2  504  502 -0.28704950681E+02 -0.93541513430E+01  0.75568039803E+02  0.81375690354E+02  0.00000000000E+00 0. -1.
<mgrwt>
<rscale>  2 0.30190633E+02</rscale>
<asrwt>0</asrwt>
<pdfrwt beam="1">  1       21 0.18927018E-01 0.30190633E+02</pdfrwt>
<pdfrwt beam="2">  1       21 0.12335829E-02 0.30190633E+02</pdfrwt>
<totfact> 0.52657031E+07</totfact>
</mgrwt>
</event>
<event>
 4    1  0.4578942E+006  0.2154737E+02  0.7546771E-02  0.1716200E+00
         21   -1    0    0  502  501  0.00000000000E+00  0.00000000000E+00  0.93894804888E+01  0.93894804888E+01  0.00000000000E+00 0. -1.
         21   -1    0    0  504  502 -0.00000000000E+00 -0.00000000000E+00 -0.56595972193E+02  0.56595972193E+02  0.00000000000E+00 0.  1.
         21    1    1    2  503  501 -0.16014248138E+02 -0.14416416390E+02 -0.11877977846E+02  0.24604380965E+02  0.00000000000E+00 0. -1.
         21    1    1    2  504  503  0.16014248138E+02  0.14416416390E+02 -0.35328513859E+02  0.41381071717E+02  0.00000000000E+00 0.  1.
<mgrwt>
<rscale>  2 0.21547371E+02</rscale>
<asrwt>0</asrwt>
<pdfrwt beam="1">  1       21 0.14445355E-02 0.21547371E+02</pdfrwt>
<pdfrwt beam="2">  1       21 0.87070725E-02 0.21547371E+02</pdfrwt>
<totfact> 0.14109462E+08</totfact>
</mgrwt>
</event>
<event>
 4    1  0.4578942E+006  0.2101193E+02  0.7546771E-02  0.1725922E+00
         21   -1    0    0  503  501  0.00000000000E+00  0.00000000000E+00  0.53303828350E+02  0.53303828350E+02  0.00000000000E+00 0. -1.
         21   -1    0    0  504  502 -0.00000000000E+00 -0.00000000000E+00 -0.51043274508E+02  0.51043274508E+02  0.00000000000E+00 0. -1.
         21    1    1    2  503  502 -0.19723234112E+02 -0.72453672197E+01  0.48883505671E+02  0.53208067402E+02  0.00000000000E+00 0. -1.
         21    1    1    2  504  501  0.19723234112E+02  0.72453672197E+01 -0.46622951829E+02  0.51139035455E+02  0.00000000000E+00 0. -1.
<mgrwt>
<rscale>  2 0.21011933E+02</rscale>
<asrwt>0</asrwt>
<pdfrwt beam="1">  1       21 0.82005889E-02 0.21011933E+02</pdfrwt>
<pdfrwt beam="2">  1       21 0.78528115E-02 0.21011933E+02</pdfrwt>
<totfact> 0.10966078E+07</totfact>
</mgrwt>
</event>
<event>
 4    1  0.4578942E+006  0.2961746E+02  0.7546771E-02  0.1602356E+00
         21   -1    0    0  504  501  0.00000000000E+00  0.00000000000E+00  0.40336784726E+01  0.40336784726E+01  0.00000000000E+00 0.  1.
         21   -1    0    0  503  502 -0.00000000000E+00 -0.00000000000E+00 -0.23906756986E+03  0.23906756986E+03  0.00000000000E+00 0.  1.
         21    1    1    2  503  501  0.25600256232E+02  0.14893658431E+02 -0.15405319154E+03  0.15687440837E+03  0.00000000000E+00 0.  1.
         21    1    1    2  504  502 -0.25600256232E+02 -0.14893658431E+02 -0.80980699853E+02  0.86226839959E+02  0.00000000000E+00 0.  1.
<mgrwt>
<rscale>  2 0.29617464E+02</rscale>
<asrwt>0</asrwt>
<pdfrwt beam="1">  1       21 0.62056591E-03 0.29617464E+02</pdfrwt>
<pdfrwt beam="2">  1       21 0.36779627E-01 0.29617464E+02</pdfrwt>
<totfact> 0.44312275E+07</totfact>
</mgrwt>
</event>
<event>
 4    1  0.4578942E+006  0.2047300E+02  0.7546771E-02  0.1736082E+00
         21   -1    0    0  503  501  0.00000000000E+00  0.00000000000E+00  0.10658573797E+02  0.10658573797E+02  0.00000000000E+00 0.  1.
         21   -1    0    0  504  502 -0.00000000000E+00 -0.00000000000E+00 -0.46497190175E+02  0.46497190175E+02  0.00000000000E+00 0.  1.
         21    1    1    2  503  502 -0.20470424068E+02 -0.32455916735E+00 -0.66950859476E+01  0.21539911235E+02  0.00000000000E+00 0.  1.
         21    1    1    2  504  501  0.20470424068E+02  0.32455916735E+00 -0.29143530431E+02  0.35615852736E+02  0.00000000000E+00 0.  1.
<mgrwt>
<rscale>  2 0.20472997E+02</rscale>
<asrwt>0</asrwt>
<pdfrwt beam="1">  1       21 0.16397806E-02 0.20472997E+02</pdfrwt>
<pdfrwt beam="2">  1       21 0.71534140E-02 0.20472997E+02</pdfrwt>
<totfact> 0.15770796E+08</totfact>
</mgrwt>
</event>
<event>
 4    1  0.4578942E+006  0.2090505E+02  0.7546771E-02  0.1727907E+00
         21   -1    0    0  504  501  0.00000000000E+00  0.00000000000E+00  0.59881106918E+01  0.59881106918E+01  0.00000000000E+00 0. -1.
         21   -1    0    0  503  502 -0.00000000000E+00 -0.00000000000E+00 -0.11360366129E+03  0.11360366129E+03  0.00000000000E+00 0. -1.
         21    1    1    2  503  501 -0.43601327380E+00 -0.20900507061E+02 -0.89564411167E+02  0.91971762246E+02  0.00000000000E+00 0. -1.
         21    1    1    2  504  502  0.43601327380E+00  0.20900507061E+02 -0.18051139428E+02  0.27620009732E+02  0.00000000000E+00 0. -1.
<mgrwt>
<rscale>  2 0.20905054E+02</rscale>
<asrwt>0</asrwt>
<pdfrwt beam="1">  1       21 0.92124780E-03 0.20905054E+02</pdfrwt>
<pdfrwt beam="2">  1       21 0.17477486E-01 0.20905054E+02</pdfrwt>
<totfact> 0.85715718E+07</totfact>
</mgrwt>
</event>
<event>
 4    1  0.4578942E+006  0.6623442E+02  0.7546771E-02  0.1373387E+00
         21   -1    0    0  502  501  0.00000000000E+00  0.00000000000E+00  0.17033933575E+02  0.17033933575E+02  0.00000000000E+00 0.  1.
         21   -1    0    0  504  502 -0.00000000000E+00 -0.00000000000E+00 -0.50791904462E+03  0.50791904462E+03  0.00000000000E+00 0. -1.
         21    1    1    2  503  501  0.61763905989E+02 -0.23921079828E+02 -0.61158342663E+02  0.90151766597E+02  0.00000000000E+00 0.  1.
         21    1    1    2  504  503 -0.61763905989E+02  0.23921079828E+02 -0.42972676838E+03  0.43480121160E+03  0.00000000000E+00 0. -1.
<mgrwt>
<rscale>  2 0.66234418E+02</rscale>
<asrwt>0</asrwt>
<pdfrwt beam="1">  1       21 0.26206051E-02 0.66234418E+02</pdfrwt>
<pdfrwt beam="2">  1       21 0.78141393E-01 0.66234418E+02</pdfrwt>
<totfact> 0.11385142E+06</totfact>
</mgrwt>
</event>
<event>
 4    1  0.4578942E+006  0.2731191E+02  0.7546771E-02  0.1629856E+00
         21   -1    0    0  503  501  0.00000000000E+00  0.00000000000E+00  0.21759294168E+02  0.21759294168E+02  0.00000000000E+00 0.  1.
         21   -1    0    0  501  502 -0.00000000000E+00 -0.00000000000E+00 -0.15367739625E+03  0.15367739625E+03  0.00000000000E+00 0.  1.
         21    1    1    2  503  504  0.10068378988E+02  0.25388342502E+02  0.11358879487E+02  0.29579796038E+02  0.00000000000E+00 0.  1.
         21    1    1    2  504  502 -0.10068378988E+02 -0.25388342502E+02 -0.14327698157E+03  0.14585689438E+03  0.00000000000E+00 0.  1.
<mgrwt>
<rscale>  2 0.27311906E+02</rscale>
<asrwt>0</asrwt>
<pdfrwt beam="1">  1       21 0.33475838E-02 0.27311906E+02</pdfrwt>
<pdfrwt beam="2">  1       21 0.23642676E-01 0.27311906E+02</pdfrwt>
<totfact> 0.74280687E+06</totfact>
</mgrwt>
</event>
<event>
 4    1  0.4578942E+006  0.2113063E+02  0.7546771E-02  0.1723736E+00
         21   -1    0    0  503  501  0.00000000000E+00  0.00000000000E+00  0.80638440987E+01  0.80638440987E+01  0.00000000000E+00 0. -1.
         21   -1    0    0  504  502 -0.00000000000E+00 -0.00000000000E+00 -0.62424527920E+03  0.62424527920E+03  0.00000000000E+00 0.  1.
         21    1    1    2  503  502  0.93945664995E+01  0.18927376826E+02 -0.62832709516E+01  0.22045021367E+02  0.00000000000E+00 0. -1.
         21    1    1    2  504  501 -0.93945664995E+01 -0.18927376826E+02 -0.60989816415E+03  0.61026410193E+03  0.00000000000E+00 0.  1.
<mgrwt>
<rscale>  2 0.21130629E+02</rscale>
<asrwt>0</asrwt>
<pdfrwt beam="1">  1       21 0.12405915E-02 0.21130629E+02</pdfrwt>
<pdfrwt beam="2">  1       21 0.96037726E-01 0.21130629E+02</pdfrwt>
<totfact> 0.21534629E+06</totfact>
</mgrwt>
</event>
<event>
 4    1  0.4578942E+006  0.2904098E+02  0.7546771E-02  0.1608938E+00
         21   -1    0    0  504  501  0.00000000000E+00  0.00000000000E+00  0.19619155886E+03  0.19619155886E+03  0.00000000000E+00 0. -1.
         21   -1    0    0  501  502 -0.00000000000E+00 -0.00000000000E+00 -0.51632069491E+01  0.51632069491E+01  0.00000000000E+00 0. -1.
         21    1    1    2  503  502  0.23363458517E+02  0.17248972867E+02  0.54319214731E+02  0.61595091914E+02  0.00000000000E+00 0. -1.
         21    1    1    2  504  503 -0.23363458517E+02 -0.17248972867E+02  0.13670913717E+03  0.13975967389E+03  0.00000000000E+00 0. -1.
<mgrwt>
<rscale>  2 0.29040976E+02</rscale>
<asrwt>0</asrwt>
<pdfrwt beam="1">  1       21 0.30183311E-01 0.29040976E+02</pdfrwt>
<pdfrwt beam="2">  1       21 0.79433968E-03 0.29040976E+02</pdfrwt>
<totfact> 0.44017757E+07</totfact>
</mgrwt>
</event>
<event>
 4    1  0.4578942E+006  0.2274756E+02  0.7546771E-02  0.1695635E+00
         21   -1    0    0  503  501  0.00000000000E+00  0.00000000000E+00  0.14432684321E+01  0.14432684321E+01  0.00000000000E+00 0. -1.
         21   -1    0    0  504  502 -0.00000000000E+00 -0.00000000000E+00 -0.48512083348E+03  0.48512083348E+03  0.00000000000E+00 0.  1.
         21    1    1    2  503  502 -0.20081102985E+02  0.10686466828E+02 -0.36611576639E+03  0.36682176281E+03  0.00000000000E+00 0.  1.
         21    1    1    2  504  501  0.20081102985E+02 -0.10686466828E+02 -0.11756179865E+03  0.11974233909E+03  0.00000000000E+00 0. -1.
<mgrwt>
<rscale>  2 0.22747555E+02</rscale>
<asrwt>0</asrwt>
<pdfrwt beam="1">  1       21 0.22204161E-03 0.22747555E+02</pdfrwt>
<pdfrwt beam="2">  1       21 0.74633870E-01 0.22747555E+02</pdfrwt>
<totfact> 0.47028345E+07</totfact>
</mgrwt>
</event>
<event>
 4    1  0.4578942E+006  0.2756473E+02  0.7546771E-02  0.1626680E+00
         21   -1    0    0  503  501  0.00000000000E+00  0.00000000000E+00  0.59667008136E+01  0.59667008136E+01  0.00000000000E+00 0.  1.
         21   -1    0    0  504  502 -0.00000000000E+00 -0.00000000000E+00 -0.17456958294E+03  0.17456958294E+03  0.00000000000E+00 0.  1.
         21    1    1    2  503  502  0.26927418778E+02 -0.58931059175E+01 -0.37350338969E+02  0.46420495479E+02  0.00000000000E+00 0.  1.
         21    1    1    2  504  501 -0.26927418778E+02  0.58931059175E+01 -0.13125254316E+03  0.13411578828E+03  0.00000000000E+00 0.  1.
<mgrwt>
<rscale>  2 0.27564734E+02</rscale>
<asrwt>0</asrwt>
<pdfrwt beam="1">  1       21 0.91795403E-03 0.27564734E+02</pdfrwt>
<pdfrwt beam="2">  1       21 0.26856857E-01 0.27564734E+02</pdfrwt>
<totfact> 0.43314713E+07</totfact>
</mgrwt>
</event>
<event>
 4    1  0.4578942E+006  0.2188011E+02  0.7546771E-02  0.1710334E+00
         21   -1    0    0  502  501  0.00000000000E+00  0.00000000000E+00  0.12875310885E+02  0.12875310885E+02  0.00000000000E+00 0.  1.
         21   -1    0    0  503  502 -0.00000000000E+00 -0.00000000000E+00 -0.63187936628E+02  0.63187936628E+02  0.00000000000E+00 0.  1.
         21    1    1    2  503  504 -0.85154378338E+01 -0.20155061389E+02 -0.49554522200E+02  0.54170008783E+02  0.00000000000E+00 0.  1.
         21    1    1    2  504  501  0.85154378338E+01  0.20155061389E+02 -0.75810354301E+00  0.21893238729E+02  0.00000000000E+00 0.  1.
<mgrwt>
<rscale>  2 0.21880109E+02</rscale>
<asrwt>0</asrwt>
<pdfrwt beam="1">  1       21 0.19808171E-02 0.21880109E+02</pdfrwt>
<pdfrwt beam="2">  1       21 0.97212209E-02 0.21880109E+02</pdfrwt>
<totfact> 0.73132318E+07</totfact>
</mgrwt>
</event>
<event>
 4    1  0.4578942E+006  0.2109687E+02  0.7546771E-02  0.1724356E+00
         21   -1    0    0  502  501  0.00000000000E+00  0.00000000000E+00  0.56440410045E+01  0.56440410045E+01  0.00000000000E+00 0.  1.
         21   -1    0    0  504  502 -0.00000000000E+00 -0.00000000000E+00 -0.65069192335E+03  0.65069192335E+03  0.00000000000E+00 0. -1.
         21    1    1    2  503  501  0.15110102425E+02  0.14722864476E+02 -0.14883485078E+02  0.25818521680E+02  0.00000000000E+00 0.  1.
         21    1    1    2  504  503 -0.15110102425E+02 -0.14722864476E+02 -0.63016439726E+03  0.63051744267E+03  0.00000000000E+00 0. -1.
<mgrwt>
<rscale>  2 0.21096870E+02</rscale>
<asrwt>0</asrwt>
<pdfrwt beam="1">  1       21 0.86831475E-03 0.21096870E+02</pdfrwt>
<pdfrwt beam="2">  1       21 0.10010636E+00 0.21096870E+02</pdfrwt>
<totfact> 0.33592578E+06</totfact>
</mgrwt>
</event>
<event>
 4    1  0.4578942E+006  0.2145311E+02  0.7546771E-02  0.1717885E+00
         21   -1    0    0  504  501  0.00000000000E+00  0.00000000000E+00  0.23181375340E+01  0.23181375340E+01  0.00000000000E+00 0.  1.
         21   -1    0    0  501  502 -0.00000000000E+00 -0.00000000000E+00 -0.72812718924E+03  0.72812718924E+03  0.00000000000E+00 0.  1.
         21    1    1    2  503  502 -0.16114501147E+02  0.14161874545E+02 -0.67438017663E+03  0.67472131912E+03  0.00000000000E+00 0.  1.
         21    1    1    2  504  503  0.16114501147E+02 -0.14161874545E+02 -0.51428875069E+02  0.55724007651E+02  0.00000000000E+00 0.  1.
<mgrwt>
<rscale>  2 0.21453108E+02</rscale>
<asrwt>0</asrwt>
<pdfrwt beam="1">  1       21 0.35663632E-03 0.21453108E+02</pdfrwt>
<pdfrwt beam="2">  1       21 0.11201964E+00 0.21453108E+02</pdfrwt>
<totfact> 0.97653734E+06</totfact>
</mgrwt>
</event>
<event>
 4    1  0.4578942E+006  0.2026015E+02  0.7546771E-02  0.1740204E+00
         21   -1    0    0  503  501  0.00000000000E+00  0.00000000000E+00  0.41923931616E+01  0.41923931616E+01  0.00000000000E+00 0. -1.
         21   -1    0    0  504  502 -0.00000000000E+00 -0.00000000000E+00 -0.15832591602E+03  0.15832591602E+03  0.00000000000E+00 0. -1.
         21    1    1    2  503  502 -0.57593298620E+01  0.19424307880E+02 -0.12726344922E+03  0.12886605109E+03  0.00000000000E+00 0. -1.
         21    1    1    2  504  501  0.57593298620E+01 -0.19424307880E+02 -0.26870073637E+02  0.33652258086E+02  0.00000000000E+00 0. -1.
<mgrwt>
<rscale>  2 0.20260148E+02</rscale>
<asrwt>0</asrwt>
<pdfrwt beam="1">  1       21 0.64498353E-03 0.20260148E+02</pdfrwt>
<pdfrwt beam="2">  1       21 0.24357835E-01 0.20260148E+02</pdfrwt>
<totfact> 0.80943787E+07</totfact>
</mgrwt>
</event>
<event>
 4    1  0.4578942E+006  0.2567096E+02  0.7546771E-02  0.1651548E+00
         21   -1    0    0  502  501  0.00000000000E+00  0.00000000000E+00  0.63372418335E+02  0.63372418335E+02  0.00000000000E+00 0. -1.
         21   -1    0    0  503  502 -0.00000000000E+00 -0.00000000000E+00 -0.43612993452E+03  0.43612993452E+03  0.00000000000E+00 0.  1.
         21    1    1    2  503  504 -0.24374021452E+02 -0.80563716558E+01 -0.43313451457E+03  0.43389457908E+03  0.00000000000E+00 0.  1.
         21    1    1    2  504  501  0.24374021452E+02  0.80563716558E+01  0.60376998383E+02  0.65607773775E+02  0.00000000000E+00 0. -1.
<mgrwt>
<rscale>  2 0.25670957E+02</rscale>
<asrwt>0</asrwt>
<pdfrwt beam="1">  1       21 0.97496032E-02 0.25670957E+02</pdfrwt>
<pdfrwt beam="2">  1       21 0.67096910E-01 0.25670957E+02</pdfrwt>
<totfact> 0.18125803E+05</totfact>
</mgrwt>
</event>
<event>
 4    1  0.4578942E+006  0.2610466E+02  0.7546771E-02  0.1645624E+00
         21   -1    0    0  503  501  0.00000000000E+00  0.00000000000E+00  0.17192448934E+02  0.17192448934E+02  0.00000000000E+00 0.  1.
         21   -1    0    0  501  502 -0.00000000000E+00 -0.00000000000E+00 -0.79425140976E+02  0.79425140976E+02  0.00000000000E+00 0.  1.
         21    1    1    2  503  504  0.19594739727E+02  0.17248172575E+02  0.30757120630E+01  0.26285229442E+02  0.00000000000E+00 0.  1.
         21    1    1    2  504  502 -0.19594739727E+02 -0.17248172575E+02 -0.65308404105E+02  0.70332360467E+02  0.00000000000E+00 0.  1.
<mgrwt>
<rscale>  2 0.26104660E+02</rscale>
<asrwt>0</asrwt>
<pdfrwt beam="1">  1       21 0.26449921E-02 0.26104660E+02</pdfrwt>
<pdfrwt beam="2">  1       21 0.12219253E-01 0.26104660E+02</pdfrwt>
<totfact> 0.33411601E+07</totfact>
</mgrwt>
</event>
<event>
 4    1  0.4578942E+006  0.2080975E+02  0.7546771E-02  0.1729689E+00
         21   -1    0    0  504  501  0.00000000000E+00  0.00000000000E+00  0.68184105937E+01  0.68184105937E+01  0.00000000000E+00 0. -1.
         21   -1    0    0  501  502 -0.00000000000E+00 -0.00000000000E+00 -0.14763126068E+03  0.14763126068E+03  0.00000000000E+00 0.  1.
         21    1    1    2  503  502  0.28410612598E+01  0.20614900791E+02 -0.12869957103E+03  0.13037110626E+03  0.00000000000E+00 0.  1.
         21    1    1    2  504  503 -0.28410612598E+01 -0.20614900791E+02 -0.12113279056E+02  0.24078565016E+02  0.00000000000E+00 0. -1.
<mgrwt>
<rscale>  2 0.20809752E+02</rscale>
<asrwt>0</asrwt>
<pdfrwt beam="1">  1       21 0.10489863E-02 0.20809752E+02</pdfrwt>
<pdfrwt beam="2">  1       21 0.22712500E-01 0.20809752E+02</pdfrwt>
<totfact> 0.44722162E+07</totfact>
</mgrwt>
</event>
<event>
 4    1  0.4578942E+006  0.4400923E+02  0.7546771E-02  0.1480623E+00
         21   -1    0    0  504  501  0.00000000000E+00  0.00000000000E+00  0.43672553998E+02  0.43672553998E+02  0.00000000000E+00 0. -1.
         21   -1    0    0  501  502 -0.00000000000E+00 -0.00000000000E+00 -0.10967930838E+03  0.10967930838E+03  0.00000000000E+00 0. -1.
         21    1    1    2  503  502  0.21405969735E+02  0.38452528086E+02 -0.92180753789E+02  0.10214746118E+03  0.00000000000E+00 0. -1.
         21    1    1    2  504  503 -0.21405969735E+02 -0.38452528086E+02  0.26173999411E+02  0.51204401194E+02  0.00000000000E+00 0. -1.
<mgrwt>
<rscale>  2 0.44009231E+02</rscale>
<asrwt>0</asrwt>
<pdfrwt beam="1">  1       21 0.67188545E-02 0.44009231E+02</pdfrwt>
<pdfrwt beam="2">  1       21 0.16873740E-01 0.44009231E+02</pdfrwt>
<totfact> 0.46721477E+06</totfact>
</mgrwt>
</event>
<event>
 4    1  0.4578942E+006  0.2467964E+02  0.7546771E-02  0.1665646E+00
         21   -1    0    0  503  501  0.00000000000E+00  0.00000000000E+00  0.10314942292E+02  0.10314942292E+02  0.00000000000E+00 0.  1.
         21   -1    0    0  504  502 -0.00000000000E+00 -0.00000000000E+00 -0.24615053279E+03  0.24615053279E+03  0.00000000000E+00 0. -1.
         21    1    1    2  503  502 -0.16665564033E+02 -0.18202846156E+02 -0.22971667860E+03  0.23103860513E+03  0.00000000000E+00 0. -1.
         21    1    1    2  504  501  0.16665564033E+02  0.18202846156E+02 -0.61189118957E+01  0.25426869951E+02  0.00000000000E+00 0.  1.
<mgrwt>
<rscale>  2 0.24679640E+02</rscale>
<asrwt>0</asrwt>
<pdfrwt beam="1">  1       21 0.15869144E-02 0.24679640E+02</pdfrwt>
<pdfrwt beam="2">  1       21 0.37869307E-01 0.24679640E+02</pdfrwt>
<totfact> 0.98127678E+06</totfact>
</mgrwt>
</event>
<event>
 4    1  0.4578942E+006  0.2201101E+02  0.7546771E-02  0.1708062E+00
         21   -1    0    0  503  501  0.00000000000E+00  0.00000000000E+00  0.31547438904E+02  0.31547438904E+02  0.00000000000E+00 0.  1.
         21   -1    0    0  504  502 -0.00000000000E+00 -0.00000000000E+00 -0.16109030358E+02  0.16109030358E+02  0.00000000000E+00 0.  1.
         21    1    1    2  503  502 -0.50738843799E+01  0.21418221128E+02  0.12866497547E+02  0.25495710583E+02  0.00000000000E+00 0.  1.
         21    1    1    2  504  501  0.50738843799E+01 -0.21418221128E+02  0.25719109992E+01  0.22160758678E+02  0.00000000000E+00 0.  1.
<mgrwt>
<rscale>  2 0.22011009E+02</rscale>
<asrwt>0</asrwt>
<pdfrwt beam="1">  1       21 0.48534521E-02 0.22011009E+02</pdfrwt>
<pdfrwt beam="2">  1       21 0.24783124E-02 0.22011009E+02</pdfrwt>
<totfact> 0.15945767E+08</totfact>
</mgrwt>
</event>
<event>
 4    1  0.4578942E+006  0.2320460E+02  0.7546771E-02  0.1688215E+00
         21   -1    0    0  502  501  0.00000000000E+00  0.00000000000E+00  0.29821198873E+03  0.29821198873E+03  0.00000000000E+00 0. -1.
         21   -1    0    0  503  502 -0.00000000000E+00 -0.00000000000E+00 -0.69327114455E+01  0.69327114455E+01  0.00000000000E+00 0.  1.
         21    1    1    2  503  504  0.11164499752E+02  0.20342258293E+02  0.14431620998E+02  0.27326273288E+02  0.00000000000E+00 0.  1.
         21    1    1    2  504  501 -0.11164499752E+02 -0.20342258293E+02  0.27684765629E+03  0.27781842689E+03  0.00000000000E+00 0. -1.
<mgrwt>
<rscale>  2 0.23204601E+02</rscale>
<asrwt>0</asrwt>
<pdfrwt beam="1">  1       21 0.45878758E-01 0.23204601E+02</pdfrwt>
<pdfrwt beam="2">  1       21 0.10665712E-02 0.23204601E+02</pdfrwt>
<totfact> 0.12310490E+07</totfact>
</mgrwt>
</event>
<event>
 4    1  0.4578942E+006  0.3015400E+02  0.7546771E-02  0.1596393E+00
         21   -1    0    0  504  501  0.00000000000E+00  0.00000000000E+00  0.33083760566E+03  0.33083760566E+03  0.00000000000E+00 0.  1.
         21   -1    0    0  503  502 -0.00000000000E+00 -0.00000000000E+00 -0.10297310979E+03  0.10297310979E+03  0.00000000000E+00 0. -1.
         21    1    1    2  503  501  0.25116896948E+02 -0.16685477259E+02  0.32792340997E+03  0.32930688798E+03  0.00000000000E+00 0.  1.
         21    1    1    2  504  502 -0.25116896948E+02  0.16685477259E+02 -0.10005891410E+03  0.10450382747E+03  0.00000000000E+00 0. -1.
<mgrwt>
<rscale>  2 0.30153999E+02</rscale>
<asrwt>0</asrwt>
<pdfrwt beam="1">  1       21 0.50898093E-01 0.30153999E+02</pdfrwt>
<pdfrwt beam="2">  1       21 0.15842017E-01 0.30153999E+02</pdfrwt>
<totfact> 0.13890676E+05</totfact>
</mgrwt>
</event>
<event>
 4    1  0.4578942E+006  0.3080033E+02  0.7546771E-02  0.1589407E+00
         21   -1    0    0  503  501  0.00000000000E+00  0.00000000000E+00  0.33400720888E+02  0.33400720888E+02  0.00000000000E+00 0.  1.
         21   -1    0    0  504  502 -0.00000000000E+00 -0.00000000000E+00 -0.48917485754E+02  0.48917485754E+02  0.00000000000E+00 0.  1.
         21    1    1    2  503  502  0.11493737998E+01  0.30778878579E+02  0.18896119735E+02  0.36134799955E+02  0.00000000000E+00 0.  1.
         21    1    1    2  504  501 -0.11493737998E+01 -0.30778878579E+02 -0.34412884600E+02  0.46183406687E+02  0.00000000000E+00 0.  1.
<mgrwt>
<rscale>  2 0.30800332E+02</rscale>
<asrwt>0</asrwt>
<pdfrwt beam="1">  1       21 0.51385725E-02 0.30800332E+02</pdfrwt>
<pdfrwt beam="2">  1       21 0.75257670E-02 0.30800332E+02</pdfrwt>
<totfact> 0.27079590E+07</totfact>
</mgrwt>
</event>
<event>
 4    1  0.4578942E+006  0.2302326E+02  0.7546771E-02  0.1691133E+00
         21   -1    0    0  504  501  0.00000000000E+00  0.00000000000E+00  0.21655376958E+01  0.21655376958E+01  0.00000000000E+00 0. -1.
         21   -1    0    0  501  502 -0.00000000000E+00 -0.00000000000E+00 -0.57596000767E+03  0.57596000767E+03  0.00000000000E+00 0. -1.
         21    1    1    2  503  502  0.14535464689E+02  0.17854711200E+02 -0.50609243744E+03  0.50661585613E+03  0.00000000000E+00 0. -1.
         21    1    1    2  504  503 -0.14535464689E+02 -0.17854711200E+02 -0.67702032537E+02  0.71509689241E+02  0.00000000000E+00 0. -1.
<mgrwt>
<rscale>  2 0.23023259E+02</rscale>
<asrwt>0</asrwt>
<pdfrwt beam="1">  1       21 0.33315993E-03 0.23023259E+02</pdfrwt>
<pdfrwt beam="2">  1       21 0.88609157E-01 0.23023259E+02</pdfrwt>
<totfact> 0.18218434E+07</totfact>
</mgrwt>
</event>
<event>
 4    1  0.4578942E+006  0.3600961E+02  0.7546771E-02  0.1539813E+00
         21   -1    0    0  502  501  0.00000000000E+00  0.00000000000E+00  0.42488930616E+01  0.42488930616E+01  0.00000000000E+00 0. -1.
         21   -1    0    0  504  502 -0.00000000000E+00 -0.00000000000E+00 -0.52762243339E+03  0.52762243339E+03  0.00000000000E+00 0. -1.
         21    1    1    2  503  501 -0.30957904707E+02  0.18392935194E+02 -0.89015379401E+02  0.96023068577E+02  0.00000000000E+00 0. -1.
         21    1    1    2  504  503  0.30957904707E+02 -0.18392935194E+02 -0.43435816092E+03  0.43584825787E+03  0.00000000000E+00 0. -1.
<mgrwt>
<rscale>  2 0.36009609E+02</rscale>
<asrwt>0</asrwt>
<pdfrwt beam="1">  1       21 0.65367643E-03 0.36009609E+02</pdfrwt>
<pdfrwt beam="2">  1       21 0.81172611E-01 0.36009609E+02</pdfrwt>
<totfact> 0.86608289E+06</totfact>
</mgrwt>
</event>
<event>
 4    1  0.4578942E+006  0.2486540E+02  0.7546771E-02  0.1662943E+00
         21   -1    0    0  503  501  0.00000000000E+00  0.00000000000E+00  0.11642006332E+02  0.11642006332E+02  0.00000000000E+00 0.  1.
         21   -1    0    0  504  502 -0.00000000000E+00 -0.00000000000E+00 -0.24202246366E+03  0.24202246366E+03  0.00000000000E+00 0. -1.
         21    1    1    2  503  502 -0.32524096588E+01 -0.24651776099E+02 -0.31345265212E+01  0.25062192441E+02  0.00000000000E+00 0.  1.
         21    1    1    2  504  501  0.32524096588E+01  0.24651776099E+02 -0.22724593081E+03  0.22860227755E+03  0.00000000000E+00 0. -1.
<mgrwt>
<rscale>  2 0.24865402E+02</rscale>
<asrwt>0</asrwt>
<pdfrwt beam="1">  1       21 0.17910779E-02 0.24865402E+02</pdfrwt>
<pdfrwt beam="2">  1       21 0.37234225E-01 0.24865402E+02</pdfrwt>
<totfact> 0.84273336E+06</totfact>
</mgrwt>
</event>
<event>
 4    1  0.4578942E+006  0.2046159E+02  0.7546771E-02  0.1736302E+00
         21   -1    0    0  503  501  0.00000000000E+00  0.00000000000E+00  0.36381618829E+02  0.36381618829E+02  0.00000000000E+00 0. -1.
         21   -1    0    0  504  502 -0.00000000000E+00 -0.00000000000E+00 -0.26539075629E+03  0.26539075629E+03  0.00000000000E+00 0. -1.
         21    1    1    2  503  502  0.20156118878E+01  0.20362072714E+02  0.33073988934E+02  0.38891714291E+02  0.00000000000E+00 0. -1.
         21    1    1    2  504  501 -0.20156118878E+01 -0.20362072714E+02 -0.26208312640E+03  0.26288066083E+03  0.00000000000E+00 0. -1.
<mgrwt>
<rscale>  2 0.20461591E+02</rscale>
<asrwt>0</asrwt>
<pdfrwt beam="1">  1       21 0.55971722E-02 0.20461591E+02</pdfrwt>
<pdfrwt beam="2">  1       21 0.40829346E-01 0.20461591E+02</pdfrwt>
<totfact> 0.11653357E+06</totfact>
</mgrwt>
</event>
<event>
 4    1  0.4578942E+006  0.2299709E+02  0.7546771E-02  0.1691557E+00
         21   -1    0    0  503  501  0.00000000000E+00  0.00000000000E+00  0.25569348378E+02  0.25569348378E+02  0.00000000000E+00 0. -1.
         21   -1    0    0  504  502 -0.00000000000E+00 -0.00000000000E+00 -0.43564112783E+02  0.43564112783E+02  0.00000000000E+00 0. -1.
         21    1    1    2  503  502  0.16243160041E+02  0.16279617511E+02  0.16053714127E+02  0.28046174992E+02  0.00000000000E+00 0. -1.
         21    1    1    2  504  501 -0.16243160041E+02 -0.16279617511E+02 -0.34048478531E+02  0.41087286169E+02  0.00000000000E+00 0. -1.
<mgrwt>
<rscale>  2 0.22997091E+02</rscale>
<asrwt>0</asrwt>
<pdfrwt beam="1">  1       21 0.39337460E-02 0.22997091E+02</pdfrwt>
<pdfrwt beam="2">  1       21 0.67021711E-02 0.22997091E+02</pdfrwt>
<totfact> 0.46873579E+07</totfact>
</mgrwt>
</event>
<event>
 4    1  0.4578942E+006  0.2323399E+02  0.7546771E-02  0.1687745E+00
         21   -1    0    0  503  501  0.00000000000E+00  0.00000000000E+00  0.61680052492E+03  0.61680052492E+03  0.00000000000E+00 0. -1.
         21   -1    0    0  504  502 -0.00000000000E+00 -0.00000000000E+00 -0.31979605842E+01  0.31979605842E+01  0.00000000000E+00 0. -1.
         21    1    1    2  503  502  0.37358556107E+01 -0.22931673926E+02  0.57099783220E+03  0.57147033402E+03  0.00000000000E+00 0. -1.
         21    1    1    2  504  501 -0.37358556107E+01  0.22931673926E+02  0.42604732129E+02  0.48528151479E+02  0.00000000000E+00 0. -1.
<mgrwt>
<rscale>  2 0.23233990E+02</rscale>
<asrwt>0</asrwt>
<pdfrwt beam="1">  1       21 0.94892294E-01 0.23233990E+02</pdfrwt>
<pdfrwt beam="2">  1       21 0.49199443E-03 0.23233990E+02</pdfrwt>
<totfact> 0.88870277E+06</totfact>
</mgrwt>
</event>
<event>
 4    1  0.4578942E+006  0.2201899E+02  0.7546771E-02  0.1707924E+00
         21   -1    0    0  504  501  0.00000000000E+00  0.00000000000E+00  0.32368285885E+01  0.32368285885E+01  0.00000000000E+00 0.  1.
         21   -1    0    0  503  502 -0.00000000000E+00 -0.00000000000E+00 -0.11503236505E+04  0.11503236505E+04  0.00000000000E+00 0.  1.
         21    1    1    2  503  501 -0.20540113439E+02  0.79334619230E+01 -0.35624556670E+02  0.41880127938E+02  0.00000000000E+00 0.  1.
         21    1    1    2  504  502  0.20540113439E+02 -0.79334619230E+01 -0.11114622652E+04  0.11116803511E+04  0.00000000000E+00 0.  1.
<mgrwt>
<rscale>  2 0.22018994E+02</rscale>
<asrwt>0</asrwt>
<pdfrwt beam="1">  1       21 0.49797401E-03 0.22018994E+02</pdfrwt>
<pdfrwt beam="2">  1       21 0.17697273E+00 0.22018994E+02</pdfrwt>
<totfact> 0.20638050E+06</totfact>
</mgrwt>
</event>
<event>
 4    1  0.4578942E+006  0.2957236E+02  0.7546771E-02  0.1602864E+00
         21   -1    0    0  504  501  0.00000000000E+00  0.00000000000E+00  0.35677670435E+02  0.35677670435E+02  0.00000000000E+00 0.  1.
         21   -1    0    0  503  502 -0.00000000000E+00 -0.00000000000E+00 -0.25119452226E+02  0.25119452226E+02  0.00000000000E+00 0.  1.
         21    1    1    2  503  501 -0.28191955488E+02 -0.89296150823E+01  0.55118048514E+00  0.29577494480E+02  0.00000000000E+00 0.  1.
         21    1    1    2  504  502  0.28191955488E+02  0.89296150823E+01  0.10007037724E+02  0.31219628181E+02  0.00000000000E+00 0.  1.
<mgrwt>
<rscale>  2 0.29572358E+02</rscale>
<asrwt>0</asrwt>
<pdfrwt beam="1">  1       21 0.54888723E-02 0.29572358E+02</pdfrwt>
<pdfrwt beam="2">  1       21 0.38645311E-02 0.29572358E+02</pdfrwt>
<totfact> 0.70830023E+07</totfact>
</mgrwt>
</event>
<event>
 4    1  0.4578942E+006  0.4942331E+02  0.7546771E-02  0.1448477E+00
         21   -1    0    0  504  501  0.00000000000E+00  0.00000000000E+00  0.53435473278E+01  0.53435473278E+01  0.00000000000E+00 0.  1.
         21   -1    0    0  503  502 -0.00000000000E+00 -0.00000000000E+00 -0.96569076596E+03  0.96569076596E+03  0.00000000000E+00 0.  1.
         21    1    1    2  503  501 -0.32738482868E+00  0.49422229011E+02 -0.83251163475E+03  0.83397738932E+03  0.00000000000E+00 0.  1.
         21    1    1    2  504  502  0.32738482868E+00 -0.49422229011E+02 -0.12783558388E+03  0.13705692397E+03  0.00000000000E+00 0.  1.
<mgrwt>
<rscale>  2 0.49423313E+02</rscale>
<asrwt>0</asrwt>
<pdfrwt beam="1">  1       21 0.82208429E-03 0.49423313E+02</pdfrwt>
<pdfrwt beam="2">  1       21 0.14856780E+00 0.49423313E+02</pdfrwt>
<totfact> 0.15654211E+06</totfact>
</mgrwt>
</event>
<event>
 4    1  0.4578942E+006  0.2253970E+02  0.7546771E-02  0.1699082E+00
         21   -1    0    0  502  501  0.00000000000E+00  0.00000000000E+00  0.94646696591E+02  0.94646696591E+02  0.00000000000E+00 0.  1.
         21   -1    0    0  503  502 -0.00000000000E+00 -0.00000000000E+00 -0.56233448458E+01  0.56233448458E+01  0.00000000000E+00 0.  1.
         21    1    1    2  503  504  0.77351209661E+01  0.21170873316E+02  0.33822694185E+02  0.40644958055E+02  0.00000000000E+00 0.  1.
         21    1    1    2  504  501 -0.77351209661E+01 -0.21170873316E+02  0.55200657560E+02  0.59625083382E+02  0.00000000000E+00 0.  1.
<mgrwt>
<rscale>  2 0.22539698E+02</rscale>
<asrwt>0</asrwt>
<pdfrwt beam="1">  1       21 0.14561029E-01 0.22539698E+02</pdfrwt>
<pdfrwt beam="2">  1       21 0.86513005E-03 0.22539698E+02</pdfrwt>
<totfact> 0.13137217E+08</totfact>
</mgrwt>
</event>
<event>
 4    1  0.4578942E+006  0.2486695E+02  0.7546771E-02  0.1662920E+00
         21   -1    0    0  502  501  0.00000000000E+00  0.00000000000E+00  0.18421521477E+04  0.18421521477E+04  0.00000000000E+00 0. -1.
         21   -1    0    0  504  502 -0.00000000000E+00 -0.00000000000E+00 -0.22947679576E+03  0.22947679576E+03  0.00000000000E+00 0. -1.
         21    1    1    2  503  501  0.19393981047E+01  0.24791209764E+02  0.18413942829E+04  0.18415621820E+04  0.00000000000E+00 0. -1.
         21    1    1    2  504  503 -0.19393981047E+01 -0.24791209764E+02 -0.22871893093E+03  0.23006676142E+03  0.00000000000E+00 0. -1.
<mgrwt>
<rscale>  2 0.24866953E+02</rscale>
<asrwt>0</asrwt>
<pdfrwt beam="1">  1       21 0.28340801E+00 0.24866953E+02</pdfrwt>
<pdfrwt beam="2">  1       21 0.35304124E-01 0.24866953E+02</pdfrwt>
<totfact> 0.59668812E+02</totfact>
</mgrwt>
</event>
<event>
 4    1  0.4578942E+006  0.2197870E+02  0.7546771E-02  0.1708621E+00
         21   -1    0    0  504  501  0.00000000000E+00  0.00000000000E+00  0.46447137887E+01  0.46447137887E+01  0.00000000000E+00 0. -1.
         21   -1    0    0  503  502 -0.00000000000E+00 -0.00000000000E+00 -0.13728049375E+03  0.13728049375E+03  0.00000000000E+00 0.  1.
         21    1    1    2  503  501  0.18388886119E+02 -0.12037951076E+02 -0.31379610688E+02  0.38311138925E+02  0.00000000000E+00 0. -1.
         21    1    1    2  504  502 -0.18388886119E+02  0.12037951076E+02 -0.10125616927E+03  0.10361406861E+03  0.00000000000E+00 0.  1.
<mgrwt>
<rscale>  2 0.21978703E+02</rscale>
<asrwt>0</asrwt>
<pdfrwt beam="1">  1       21 0.71457151E-03 0.21978703E+02</pdfrwt>
<pdfrwt beam="2">  1       21 0.21120071E-01 0.21978703E+02</pdfrwt>
<totfact> 0.91400067E+07</totfact>
</mgrwt>
</event>
<event>
 4    1  0.4578942E+006  0.2185319E+02  0.7546771E-02  0.1710804E+00
         21   -1    0    0  504  501  0.00000000000E+00  0.00000000000E+00  0.15852992442E+04  0.15852992442E+04  0.00000000000E+00 0.  1.
         21   -1    0    0  503  502 -0.00000000000E+00 -0.00000000000E+00 -0.35897650170E+00  0.35897650170E+00  0.00000000000E+00 0.  1.
         21    1    1    2  503  501 -0.12317798369E+02 -0.18050860681E+02  0.47452137088E+03  0.47502430796E+03  0.00000000000E+00 0.  1.
         21    1    1    2  504  502  0.12317798369E+02  0.18050860681E+02  0.11104188968E+04  0.11106339127E+04  0.00000000000E+00 0.  1.
<mgrwt>
<rscale>  2 0.21853186E+02</rscale>
<asrwt>0</asrwt>
<pdfrwt beam="1">  1       21 0.24388659E+00 0.21853186E+02</pdfrwt>
<pdfrwt beam="2">  1       21 0.55228423E-04 0.21853186E+02</pdfrwt>
<totfact> 0.21055198E+07</totfact>
</mgrwt>
</event>
<event>
 4    1  0.4578942E+006  0.2275499E+02  0.7546771E-02  0.1695513E+00
         21   -1    0    0  502  501  0.00000000000E+00  0.00000000000E+00  0.43536070413E+02  0.43536070413E+02  0.00000000000E+00 0. -1.
         21   -1    0    0  504  502 -0.00000000000E+00 -0.00000000000E+00 -0.18915803390E+03  0.18915803390E+03  0.00000000000E+00 0. -1.
         21    1    1    2  503  501 -0.19885089776E+02  0.11062214328E+02  0.39819024564E+02  0.45862229541E+02  0.00000000000E+00 0. -1.
         21    1    1    2  504  503  0.19885089776E+02 -0.11062214328E+02 -0.18544098805E+03  0.18683187477E+03  0.00000000000E+00 0. -1.
<mgrwt>
<rscale>  2 0.22754986E+02</rscale>
<asrwt>0</asrwt>
<pdfrwt beam="1">  1       21 0.66978571E-02 0.22754986E+02</pdfrwt>
<pdfrwt beam="2">  1       21 0.29101236E-01 0.22754986E+02</pdfrwt>
<totfact> 0.16510610E+06</totfact>
</mgrwt>
</event>
<event>
 4    1  0.4578942E+006  0.2365668E+02  0.7546771E-02  0.1681081E+00
         21   -1    0    0  503  501  0.00000000000E+00  0.00000000000E+00  0.20826092726E+03  0.20826092726E+03  0.00000000000E+00 0.  1.
         21   -1    0    0  504  502 -0.00000000000E+00 -0.00000000000E+00 -0.35250823518E+03  0.35250823518E+03  0.00000000000E+00 0.  1.
         21    1    1    2  503  502  0.21343676548E+02  0.10202263247E+02  0.20719018523E+03  0.20853635548E+03  0.00000000000E+00 0.  1.
         21    1    1    2  504  501 -0.21343676548E+02 -0.10202263247E+02 -0.35143749314E+03  0.35223280695E+03  0.00000000000E+00 0.  1.
<mgrwt>
<rscale>  2 0.23656684E+02</rscale>
<asrwt>0</asrwt>
<pdfrwt beam="1">  1       21 0.32040143E-01 0.23656684E+02</pdfrwt>
<pdfrwt beam="2">  1       21 0.54232036E-01 0.23656684E+02</pdfrwt>
<totfact> 0.35268593E+04</totfact>
</mgrwt>
</event>
<event>
 4    1  0.4578942E+006  0.3611291E+02  0.7546771E-02  0.1538934E+00
         21   -1    0    0  503  501  0.00000000000E+00  0.00000000000E+00  0.11741763062E+03  0.11741763062E+03  0.00000000000E+00 0.  1.
         21   -1    0    0  504  502 -0.00000000000E+00 -0.00000000000E+00 -0.56224208183E+02  0.56224208183E+02  0.00000000000E+00 0. -1.
         21    1    1    2  503  502  0.29191099180E+02  0.21260810918E+02 -0.47177289822E+02  0.59412448419E+02  0.00000000000E+00 0. -1.
         21    1    1    2  504  501 -0.29191099180E+02 -0.21260810918E+02  0.10837071226E+03  0.11422939039E+03  0.00000000000E+00 0.  1.
<mgrwt>
<rscale>  2 0.36112911E+02</rscale>
<asrwt>0</asrwt>
<pdfrwt beam="1">  1       21 0.18064251E-01 0.36112911E+02</pdfrwt>
<pdfrwt beam="2">  1       21 0.86498782E-02 0.36112911E+02</pdfrwt>
<totfact> 0.26700928E+06</totfact>
</mgrwt>
</event>
<event>
 4    1  0.4578942E+006  0.2016782E+02  0.7546771E-02  0.1742011E+00
         21   -1    0    0  502  501  0.00000000000E+00  0.00000000000E+00  0.48162656204E+02  0.48162656204E+02  0.00000000000E+00 0.  1.
         21   -1    0    0  504  502 -0.00000000000E+00 -0.00000000000E+00 -0.12871166695E+03  0.12871166695E+03  0.00000000000E+00 0.  1.
         21    1    1    2  503  501 -0.12433296266E+02  0.15879363518E+02  0.45212124763E+02  0.49506335629E+02  0.00000000000E+00 0.  1.
         21    1    1    2  504  503  0.12433296266E+02 -0.15879363518E+02 -0.12576113551E+03  0.12736798752E+03  0.00000000000E+00 0.  1.
<mgrwt>
<rscale>  2 0.20167822E+02</rscale>
<asrwt>0</asrwt>
<pdfrwt beam="1">  1       21 0.74096394E-02 0.20167822E+02</pdfrwt>
<pdfrwt beam="2">  1       21 0.19801795E-01 0.20167822E+02</pdfrwt>
<totfact> 0.27298697E+06</totfact>
</mgrwt>
</event>
<event>
 4    1  0.4578942E+006  0.2313564E+02  0.7546771E-02  0.1689321E+00
         21   -1    0    0  503  501  0.00000000000E+00  0.00000000000E+00  0.42481429292E+02  0.42481429292E+02  0.00000000000E+00 0. -1.
         21   -1    0    0  501  502 -0.00000000000E+00 -0.00000000000E+00 -0.40120880493E+02  0.40120880493E+02  0.00000000000E+00 0. -1.
         21    1    1    2  503  504 -0.19431138261E+02  0.12557424129E+02  0.35386850949E+02  0.42278685586E+02  0.00000000000E+00 0. -1.
         21    1    1    2  504  502  0.19431138261E+02 -0.12557424129E+02 -0.33026302149E+02  0.40323624199E+02  0.00000000000E+00 0. -1.
<mgrwt>
<rscale>  2 0.23135644E+02</rscale>
<asrwt>0</asrwt>
<pdfrwt beam="1">  1       21 0.65356045E-02 0.23135644E+02</pdfrwt>
<pdfrwt beam="2">  1       21 0.61724432E-02 0.23135644E+02</pdfrwt>
<totfact> 0.23871740E+07</totfact>
</mgrwt>
</event>
<event>
 4    1  0.4578942E+006  0.2225951E+02  0.7546771E-02  0.1703802E+00
         21   -1    0    0  503  501  0.00000000000E+00  0.00000000000E+00  0.63989569318E+03  0.63989569318E+03  0.00000000000E+00 0. -1.
         21   -1    0    0  504  502 -0.00000000000E+00 -0.00000000000E+00 -0.30445293611E+02  0.30445293611E+02  0.00000000000E+00 0.  1.
         21    1    1    2  503  502  0.24023243922E+01 -0.22129493774E+02  0.63560600612E+03  0.63599566089E+03  0.00000000000E+00 0. -1.
         21    1    1    2  504  501 -0.24023243922E+01  0.22129493774E+02 -0.26155606551E+02  0.34345325900E+02  0.00000000000E+00 0.  1.
<mgrwt>
<rscale>  2 0.22259507E+02</rscale>
<asrwt>0</asrwt>
<pdfrwt beam="1">  1       21 0.98445481E-01 0.22259507E+02</pdfrwt>
<pdfrwt beam="2">  1       21 0.46838918E-02 0.22259507E+02</pdfrwt>
<totfact> 0.26395789E+05</totfact>
</mgrwt>
</event>
<event>
 4    1  0.4578942E+006  0.2530955E+02  0.7546771E-02  0.1656595E+00
         21   -1    0    0  502  501  0.00000000000E+00  0.00000000000E+00  0.16852994781E+04  0.16852994781E+04  0.00000000000E+00 0. -1.
         21   -1    0    0  503  502 -0.00000000000E+00 -0.00000000000E+00 -0.86115034336E+00  0.86115034336E+00  0.00000000000E+00 0. -1.
         21    1    1    2  503  504  0.12240929975E+02  0.22152494639E+02  0.21209356983E+03  0.21359835147E+03  0.00000000000E+00 0. -1.
         21    1    1    2  504  501 -0.12240929975E+02 -0.22152494639E+02  0.14723447580E+04  0.14725622770E+04  0.00000000000E+00 0. -1.
<mgrwt>
<rscale>  2 0.25309551E+02</rscale>
<asrwt>0</asrwt>
<pdfrwt beam="1">  1       21 0.25927420E+00 0.25309551E+02</pdfrwt>
<pdfrwt beam="2">  1       21 0.13248602E-03 0.25309551E+02</pdfrwt>
<totfact> 0.51474596E+06</totfact>
</mgrwt>
</event>
<event>
 4    1  0.4578942E+006  0.2851428E+02  0.7546771E-02  0.1615117E+00
         21   -1    0    0  504  501  0.00000000000E+00  0.00000000000E+00  0.18505453611E+02  0.18505453611E+02  0.00000000000E+00 0.  1.
         21   -1    0    0  503  502 -0.00000000000E+00 -0.00000000000E+00 -0.56524857870E+02  0.56524857870E+02  0.00000000000E+00 0. -1.
         21    1    1    2  503  501  0.11412330133E+02 -0.26130879324E+02 -0.36713736107E+02  0.46486154415E+02  0.00000000000E+00 0. -1.
         21    1    1    2  504  502 -0.11412330133E+02  0.26130879324E+02 -0.13056681511E+01  0.28544157066E+02  0.00000000000E+00 0.  1.
<mgrwt>
<rscale>  2 0.28514279E+02</rscale>
<asrwt>0</asrwt>
<pdfrwt beam="1">  1       21 0.28469929E-02 0.28514279E+02</pdfrwt>
<pdfrwt beam="2">  1       21 0.86961320E-02 0.28514279E+02</pdfrwt>
<totfact> 0.53616316E+07</totfact>
</mgrwt>
</event>
<event>
 4    1  0.4578942E+006  0.3345725E+02  0.7546771E-02  0.1562743E+00
         21   -1    0    0  504  501  0.00000000000E+00  0.00000000000E+00  0.34122263598E+02  0.34122263598E+02  0.00000000000E+00 0.  1.
         21   -1    0    0  503  502 -0.00000000000E+00 -0.00000000000E+00 -0.35863803230E+02  0.35863803230E+02  0.00000000000E+00 0.  1.
         21    1    1    2  503  501 -0.17918329580E+02  0.28254571868E+02 -0.11089940374E+02  0.35247328181E+02  0.00000000000E+00 0.  1.
         21    1    1    2  504  502  0.17918329580E+02 -0.28254571868E+02  0.93484007422E+01  0.34738738648E+02  0.00000000000E+00 0.  1.
<mgrwt>
<rscale>  2 0.33457247E+02</rscale>
<asrwt>0</asrwt>
<pdfrwt beam="1">  1       21 0.52495790E-02 0.33457247E+02</pdfrwt>
<pdfrwt beam="2">  1       21 0.55175082E-02 0.33457247E+02</pdfrwt>
<totfact> 0.44161344E+07</totfact>
</mgrwt>
</event>
<event>
 4    1  0.4578942E+006  0.2589982E+02  0.7546771E-02  0.1648404E+00
         21   -1    0    0  502  501  0.00000000000E+00  0.00000000000E+00  0.73433773139E+02  0.73433773139E+02  0.00000000000E+00 0. -1.
         21   -1    0    0  504  502 -0.00000000000E+00 -0.00000000000E+00 -0.10893629026E+02  0.10893629026E+02  0.00000000000E+00 0. -1.
         21    1    1    2  503  501 -0.11078755854E+02 -0.23410723040E+02  0.48212189480E+02  0.54728566572E+02  0.00000000000E+00 0. -1.
         21    1    1    2  504  503  0.11078755854E+02  0.23410723040E+02  0.14327954633E+02  0.29598835594E+02  0.00000000000E+00 0. -1.
<mgrwt>
<rscale>  2 0.25899822E+02</rscale>
<asrwt>0</asrwt>
<pdfrwt beam="1">  1       21 0.11297503E-01 0.25899822E+02</pdfrwt>
<pdfrwt beam="2">  1       21 0.16759430E-02 0.25899822E+02</pdfrwt>
<totfact> 0.76971339E+07</totfact>
</mgrwt>
</event>
<event>
 4    1  0.4578942E+006  0.3790430E+02  0.7546771E-02  0.1524225E+00
         21   -1    0    0  502  501  0.00000000000E+00  0.00000000000E+00  0.22263337591E+02  0.22263337591E+02  0.00000000000E+00 0. -1.
         21   -1    0    0  504  502 -0.00000000000E+00 -0.00000000000E+00 -0.69333238208E+02  0.69333238208E+02  0.00000000000E+00 0. -1.
         21    1    1    2  503  501  0.63209840905E+01 -0.37373532818E+02 -0.11485208892E+02  0.39606133596E+02  0.00000000000E+00 0. -1.
         21    1    1    2  504  503 -0.63209840905E+01  0.37373532818E+02 -0.35584691726E+02  0.51990442202E+02  0.00000000000E+00 0. -1.
<mgrwt>
<rscale>  2 0.37904298E+02</rscale>
<asrwt>0</asrwt>
<pdfrwt beam="1">  1       21 0.34251289E-02 0.37904298E+02</pdfrwt>
<pdfrwt beam="2">  1       21 0.10666652E-01 0.37904298E+02</pdfrwt>
<totfact> 0.30139267E+07</totfact>
</mgrwt>
</event>
<event>
 4    1  0.4578942E+006  0.4050742E+02  0.7546771E-02  0.1504510E+00
         21   -1    0    0  502  501  0.00000000000E+00  0.00000000000E+00  0.32926495417E+01  0.32926495417E+01  0.00000000000E+00 0. -1.
         21   -1    0    0  503  502 -0.00000000000E+00 -0.00000000000E+00 -0.15222142539E+04  0.15222142539E+04  0.00000000000E+00 0.  1.
         21    1    1    2  503  504 -0.15272410886E+02  0.37518055094E+02 -0.13850224496E+04  0.13856146784E+04  0.00000000000E+00 0.  1.
         21    1    1    2  504  501  0.15272410886E+02 -0.37518055094E+02 -0.13389915468E+03  0.13989222501E+03  0.00000000000E+00 0. -1.
<mgrwt>
<rscale>  2 0.40507419E+02</rscale>
<asrwt>0</asrwt>
<pdfrwt beam="1">  1       21 0.50656106E-03 0.40507419E+02</pdfrwt>
<pdfrwt beam="2">  1       21 0.23418700E+00 0.40507419E+02</pdfrwt>
<totfact> 0.97284576E+05</totfact>
</mgrwt>
</event>
<event>
 4    1  0.4578942E+006  0.2211262E+02  0.7546771E-02  0.1706312E+00
         21   -1    0    0  503  501  0.00000000000E+00  0.00000000000E+00  0.77594353401E+01  0.77594353401E+01  0.00000000000E+00 0. -1.
         21   -1    0    0  501  502 -0.00000000000E+00 -0.00000000000E+00 -0.89614811412E+02  0.89614811412E+02  0.00000000000E+00 0. -1.
         21    1    1    2  503  504  0.39924527391E+01  0.21749215591E+02 -0.14402658275E+02  0.26389479401E+02  0.00000000000E+00 0. -1.
         21    1    1    2  504  502 -0.39924527391E+01 -0.21749215591E+02 -0.67452717797E+02  0.70984767351E+02  0.00000000000E+00 0. -1.
<mgrwt>
<rscale>  2 0.22112622E+02</rscale>
<asrwt>0</asrwt>
<pdfrwt beam="1">  1       21 0.11937593E-02 0.22112622E+02</pdfrwt>
<pdfrwt beam="2">  1       21 0.13786894E-01 0.22112622E+02</pdfrwt>
<totfact> 0.88388325E+07</totfact>
</mgrwt>
</event>
<event>
 4    1  0.4578942E+006  0.2160620E+02  0.7546771E-02  0.1715153E+00
         21   -1    0    0  504  501  0.00000000000E+00  0.00000000000E+00  0.29295435363E+01  0.29295435363E+01  0.00000000000E+00 0. -1.
         21   -1    0    0  501  502 -0.00000000000E+00 -0.00000000000E+00 -0.23446327462E+03  0.23446327462E+03  0.00000000000E+00 0.  1.
         21    1    1    2  503  502 -0.19746339622E+02  0.87698395905E+01 -0.18294892794E+03  0.18422035243E+03  0.00000000000E+00 0.  1.
         21    1    1    2  504  503  0.19746339622E+02 -0.87698395905E+01 -0.48584803139E+02  0.53172465722E+02  0.00000000000E+00 0. -1.
<mgrwt>
<rscale>  2 0.21606203E+02</rscale>
<asrwt>0</asrwt>
<pdfrwt beam="1">  1       21 0.45069900E-03 0.21606203E+02</pdfrwt>
<pdfrwt beam="2">  1       21 0.36071274E-01 0.21606203E+02</pdfrwt>
<totfact> 0.68600161E+07</totfact>
</mgrwt>
</event>
<event>
 4    1  0.4578942E+006  0.2967670E+02  0.7546771E-02  0.1601690E+00
         21   -1    0    0  503  501  0.00000000000E+00  0.00000000000E+00  0.46619360003E+01  0.46619360003E+01  0.00000000000E+00 0. -1.
         21   -1    0    0  504  502 -0.00000000000E+00 -0.00000000000E+00 -0.27245655608E+03  0.27245655608E+03  0.00000000000E+00 0. -1.
         21    1    1    2  503  502  0.17942621653E+02  0.23638289088E+02 -0.21062285399E+03  0.21270329806E+03  0.00000000000E+00 0. -1.
         21    1    1    2  504  501 -0.17942621653E+02 -0.23638289088E+02 -0.57171766089E+02  0.64415194020E+02  0.00000000000E+00 0. -1.
<mgrwt>
<rscale>  2 0.29676698E+02</rscale>
<asrwt>0</asrwt>
<pdfrwt beam="1">  1       21 0.71722070E-03 0.29676698E+02</pdfrwt>
<pdfrwt beam="2">  1       21 0.41916406E-01 0.29676698E+02</pdfrwt>
<totfact> 0.27838238E+07</totfact>
</mgrwt>
</event>
<event>
 4    1  0.4578942E+006  0.2215108E+02  0.7546771E-02  0.1705652E+00
         21   -1    0    0  503  501  0.00000000000E+00  0.00000000000E+00  0.11378164060E+03  0.11378164060E+03  0.00000000000E+00 0. -1.
         21   -1    0    0  501  502 -0.00000000000E+00 -0.00000000000E+00 -0.76612687889E+01  0.76612687889E+01  0.00000000000E+00 0. -1.
         21    1    1    2  503  504  0.19913987514E+02 -0.97006978660E+01  0.93206136294E+02  0.95802162192E+02  0.00000000000E+00 0. -1.
         21    1    1    2  504  502 -0.19913987514E+02  0.97006978660E+01  0.12914235516E+02  0.25640747196E+02  0.00000000000E+00 0. -1.
<mgrwt>
<rscale>  2 0.22151082E+02</rscale>
<asrwt>0</asrwt>
<pdfrwt beam="1">  1       21 0.17504867E-01 0.22151082E+02</pdfrwt>
<pdfrwt beam="2">  1       21 0.11786568E-02 0.22151082E+02</pdfrwt>
<totfact> 0.60002890E+07</totfact>
</mgrwt>
</event>
<event>
 4    1  0.4578942E+006  0.2143967E+02  0.7546771E-02  0.1718127E+00
         21   -1    0    0  502  501  0.00000000000E+00  0.00000000000E+00  0.13463953140E+01  0.13463953140E+01  0.00000000000E+00 0. -1.
         21   -1    0    0  504  502 -0.00000000000E+00 -0.00000000000E+00 -0.44749117726E+03  0.44749117726E+03  0.00000000000E+00 0.  1.
         21    1    1    2  503  501 -0.30964285103E+01 -0.21214886956E+02 -0.11380094264E+03  0.11580290948E+03  0.00000000000E+00 0. -1.
         21    1    1    2  504  503  0.30964285103E+01  0.21214886956E+02 -0.33234383931E+03  0.33303466310E+03  0.00000000000E+00 0.  1.
<mgrwt>
<rscale>  2 0.21439666E+02</rscale>
<asrwt>0</asrwt>
<pdfrwt beam="1">  1       21 0.20713764E-03 0.21439666E+02</pdfrwt>
<pdfrwt beam="2">  1       21 0.68844831E-01 0.21439666E+02</pdfrwt>
<totfact> 0.60528460E+07</totfact>
</mgrwt>
</event>
<event>
 4    1  0.4578942E+006  0.2315574E+02  0.7546771E-02  0.1688998E+00
         21   -1    0    0  503  501  0.00000000000E+00  0.00000000000E+00  0.48493458915E+01  0.48493458915E+01  0.00000000000E+00 0.  1.
         21   -1    0    0  504  502 -0.00000000000E+00 -0.00000000000E+00 -0.23766743699E+03  0.23766743699E+03  0.00000000000E+00 0. -1.
         21    1    1    2  503  502 -0.22677228000E+02 -0.46831186731E+01 -0.20508313418E+03  0.20638624032E+03  0.00000000000E+00 0. -1.
         21    1    1    2  504  501  0.22677228000E+02  0.46831186731E+01 -0.27734956924E+02  0.36130542563E+02  0.00000000000E+00 0.  1.
<mgrwt>
<rscale>  2 0.23155739E+02</rscale>
<asrwt>0</asrwt>
<pdfrwt beam="1">  1       21 0.74605296E-03 0.23155739E+02</pdfrwt>
<pdfrwt beam="2">  1       21 0.36564233E-01 0.23155739E+02</pdfrwt>
<totfact> 0.32279872E+07</totfact>
</mgrwt>
</event>
<event>
 4    1  0.4578942E+006  0.2557433E+02  0.7546771E-02  0.1652887E+00
         21   -1    0    0  503  501  0.00000000000E+00  0.00000000000E+00  0.22488501347E+03  0.22488501347E+03  0.00000000000E+00 0.  1.
         21   -1    0    0  504  502 -0.00000000000E+00 -0.00000000000E+00 -0.45595056066E+01  0.45595056066E+01  0.00000000000E+00 0.  1.
         21    1    1    2  503  502  0.98306095831E+01 -0.23609433315E+02  0.41125786284E+02  0.48429087579E+02  0.00000000000E+00 0.  1.
         21    1    1    2  504  501 -0.98306095831E+01  0.23609433315E+02  0.17919972158E+03  0.18101543150E+03  0.00000000000E+00 0.  1.
<mgrwt>
<rscale>  2 0.25574327E+02</rscale>
<asrwt>0</asrwt>
<pdfrwt beam="1">  1       21 0.34597686E-01 0.25574327E+02</pdfrwt>
<pdfrwt beam="2">  1       21 0.70146258E-03 0.25574327E+02</pdfrwt>
<totfact> 0.40096846E+07</totfact>
</mgrwt>
</event>
<event>
 4    1  0.4578942E+006  0.2003536E+02  0.7546771E-02  0.1744626E+00
         21   -1    0    0  503  501  0.00000000000E+00  0.00000000000E+00  0.32343876315E+03  0.32343876315E+03  0.00000000000E+00 0.  1.
         21   -1    0    0  504  502 -0.00000000000E+00 -0.00000000000E+00 -0.12516336912E+01  0.12516336912E+01  0.00000000000E+00 0.  1.
         21    1    1    2  503  502  0.12355356004E+02 -0.15772158916E+02  0.14619145268E+03  0.14755797727E+03  0.00000000000E+00 0.  1.
         21    1    1    2  504  501 -0.12355356004E+02  0.15772158916E+02  0.17599567678E+03  0.17713241957E+03  0.00000000000E+00 0.  1.
<mgrwt>
<rscale>  2 0.20035364E+02</rscale>
<asrwt>0</asrwt>
<pdfrwt beam="1">  1       21 0.49759743E-01 0.20035364E+02</pdfrwt>
<pdfrwt beam="2">  1       21 0.19255929E-03 0.20035364E+02</pdfrwt>
<totfact> 0.12570557E+08</totfact>
</mgrwt>
</event>
<event>
 4    1  0.4578942E+006  0.2150215E+02  0.7546771E-02  0.1717007E+00
         21   -1    0    0  504  501  0.00000000000E+00  0.00000000000E+00  0.71050701016E+02  0.71050701016E+02  0.00000000000E+00 0. -1.
         21   -1    0    0  503  502 -0.00000000000E+00 -0.00000000000E+00 -0.38056864500E+03  0.38056864500E+03  0.00000000000E+00 0. -1.
         21    1    1    2  503  501  0.98561937357E-01 -0.21501920353E+02  0.69111855172E+02  0.72379491700E+02  0.00000000000E+00 0. -1.
         21    1    1    2  504  502 -0.98561937357E-01  0.21501920353E+02 -0.37862979916E+03  0.37923985432E+03  0.00000000000E+00 0. -1.
<mgrwt>
<rscale>  2 0.21502146E+02</rscale>
<asrwt>0</asrwt>
<pdfrwt beam="1">  1       21 0.10930877E-01 0.21502146E+02</pdfrwt>
<pdfrwt beam="2">  1       21 0.58549023E-01 0.21502146E+02</pdfrwt>
<totfact> 0.19656864E+05</totfact>
</mgrwt>
</event>
<event>
 4    1  0.4578942E+006  0.2159078E+02  0.7546771E-02  0.1715427E+00
         21   -1    0    0  502  501  0.00000000000E+00  0.00000000000E+00  0.29535140721E+03  0.29535140721E+03  0.00000000000E+00 0.  1.
         21   -1    0    0  503  502 -0.00000000000E+00 -0.00000000000E+00 -0.21001544764E+01  0.21001544764E+01  0.00000000000E+00 0.  1.
         21    1    1    2  503  504  0.19676729304E+02  0.88875196141E+01  0.72490626504E+02  0.75637640179E+02  0.00000000000E+00 0.  1.
         21    1    1    2  504  501 -0.19676729304E+02 -0.88875196141E+01  0.22076062623E+03  0.22181392151E+03  0.00000000000E+00 0.  1.
<mgrwt>
<rscale>  2 0.21590778E+02</rscale>
<asrwt>0</asrwt>
<pdfrwt beam="1">  1       21 0.45438645E-01 0.21590778E+02</pdfrwt>
<pdfrwt beam="2">  1       21 0.32310092E-03 0.21590778E+02</pdfrwt>
<totfact> 0.72255206E+07</totfact>
</mgrwt>
</event>
<event>
 4    1  0.4578942E+006  0.2392455E+02  0.7546771E-02  0.1676947E+00
         21   -1    0    0  504  501  0.00000000000E+00  0.00000000000E+00  0.16100401939E+02  0.16100401939E+02  0.00000000000E+00 0.  1.
         21   -1    0    0  501  502 -0.00000000000E+00 -0.00000000000E+00 -0.38046409650E+02  0.38046409650E+02  0.00000000000E+00 0. -1.
         21    1    1    2  503  502 -0.23209816440E+02  0.58041608253E+01 -0.17906706811E+02  0.29883674655E+02  0.00000000000E+00 0. -1.
         21    1    1    2  504  503  0.23209816440E+02 -0.58041608253E+01 -0.40393009002E+01  0.24263136933E+02  0.00000000000E+00 0.  1.
<mgrwt>
<rscale>  2 0.23924545E+02</rscale>
<asrwt>0</asrwt>
<pdfrwt beam="1">  1       21 0.24769850E-02 0.23924545E+02</pdfrwt>
<pdfrwt beam="2">  1       21 0.58532937E-02 0.23924545E+02</pdfrwt>
<totfact> 0.12134543E+08</totfact>
</mgrwt>
</event>
<event>
 4    1  0.4578942E+006  0.2815390E+02  0.7546771E-02  0.1619440E+00
         21   -1    0    0  503  501  0.00000000000E+00  0.00000000000E+00  0.16498044624E+03  0.16498044624E+03  0.00000000000E+00 0. -1.
         21   -1    0    0  501  502 -0.00000000000E+00 -0.00000000000E+00 -0.49155950539E+01  0.49155950539E+01  0.00000000000E+00 0. -1.
         21    1    1    2  503  504  0.28061268203E+02 -0.22819148316E+01  0.92805378048E+02  0.96981854504E+02  0.00000000000E+00 0. -1.
         21    1    1    2  504  502 -0.28061268203E+02  0.22819148316E+01  0.67259473142E+02  0.72914186794E+02  0.00000000000E+00 0. -1.
<mgrwt>
<rscale>  2 0.28153897E+02</rscale>
<asrwt>0</asrwt>
<pdfrwt beam="1">  1       21 0.25381603E-01 0.28153897E+02</pdfrwt>
<pdfrwt beam="2">  1       21 0.75624552E-03 0.28153897E+02</pdfrwt>
<totfact> 0.64503587E+07</totfact>
</mgrwt>
</event>
<event>
 4    1  0.4578942E+006  0.3121877E+02  0.7546771E-02  0.1584995E+00
         21   -1    0    0  503  501  0.00000000000E+00  0.00000000000E+00  0.63638804688E+03  0.63638804688E+03  0.00000000000E+00 0.  1.
         21   -1    0    0  504  502 -0.00000000000E+00 -0.00000000000E+00 -0.72095272408E+01  0.72095272408E+01  0.00000000000E+00 0.  1.
         21    1    1    2  503  502 -0.77340492573E+01  0.30245599714E+02  0.29007322710E+02  0.42614980826E+02  0.00000000000E+00 0.  1.
         21    1    1    2  504  501  0.77340492573E+01 -0.30245599714E+02  0.60017119693E+03  0.60098259329E+03  0.00000000000E+00 0.  1.
<mgrwt>
<rscale>  2 0.31218774E+02</rscale>
<asrwt>0</asrwt>
<pdfrwt beam="1">  1       21 0.97905809E-01 0.31218774E+02</pdfrwt>
<pdfrwt beam="2">  1       21 0.11091585E-02 0.31218774E+02</pdfrwt>
<totfact> 0.25485032E+06</totfact>
</mgrwt>
</event>
<event>
 4    1  0.4578942E+006  0.3200271E+02  0.7546771E-02  0.1576951E+00
         21   -1    0    0  503  501  0.00000000000E+00  0.00000000000E+00  0.52767476875E+03  0.52767476875E+03  0.00000000000E+00 0. -1.
         21   -1    0    0  501  502 -0.00000000000E+00 -0.00000000000E+00 -0.33823972277E+01  0.33823972277E+01  0.00000000000E+00 0.  1.
         21    1    1    2  503  504 -0.31529124874E+02  0.54852548585E+01  0.43548790012E+03  0.43666220913E+03  0.00000000000E+00 0. -1.
         21    1    1    2  504  502  0.31529124874E+02 -0.54852548585E+01  0.88804471401E+02  0.94394956841E+02  0.00000000000E+00 0.  1.
<mgrwt>
<rscale>  2 0.32002715E+02</rscale>
<asrwt>0</asrwt>
<pdfrwt beam="1">  1       21 0.81180668E-01 0.32002715E+02</pdfrwt>
<pdfrwt beam="2">  1       21 0.52036922E-03 0.32002715E+02</pdfrwt>
<totfact> 0.12000400E+07</totfact>
</mgrwt>
</event>
<event>
 4    1  0.4578942E+006  0.2752751E+02  0.7546771E-02  0.1627145E+00
         21   -1    0    0  503  501  0.00000000000E+00  0.00000000000E+00  0.48452432265E+03  0.48452432265E+03  0.00000000000E+00 0. -1.
         21   -1    0    0  501  502 -0.00000000000E+00 -0.00000000000E+00 -0.83500605750E+02  0.83500605750E+02  0.00000000000E+00 0. -1.
         21    1    1    2  503  504 -0.24078262163E+02  0.13341708792E+02  0.48185202959E+03  0.48263769261E+03  0.00000000000E+00 0. -1.
         21    1    1    2  504  502  0.24078262163E+02 -0.13341708792E+02 -0.80828312697E+02  0.85387235789E+02  0.00000000000E+00 0. -1.
<mgrwt>
<rscale>  2 0.27527512E+02</rscale>
<asrwt>0</asrwt>
<pdfrwt beam="1">  1       21 0.74542202E-01 0.27527512E+02</pdfrwt>
<pdfrwt beam="2">  1       21 0.12846247E-01 0.27527512E+02</pdfrwt>
<totfact> 0.91821908E+04</totfact>
</mgrwt>
</event>
<event>
 4    1  0.4578942E+006  0.2243599E+02  0.7546771E-02  0.1700819E+00
         21   -1    0    0  503  501  0.00000000000E+00  0.00000000000E+00  0.48425635904E+01  0.48425635904E+01  0.00000000000E+00 0.  1.
         21   -1    0    0  504  502 -0.00000000000E+00 -0.00000000000E+00 -0.16020576684E+03  0.16020576684E+03  0.00000000000E+00 0. -1.
         21    1    1    2  503  502  0.21028902838E+02  0.78204043567E+01 -0.12658447356E+03  0.12855738962E+03  0.00000000000E+00 0. -1.
         21    1    1    2  504  501 -0.21028902838E+02 -0.78204043567E+01 -0.28778729693E+02  0.36490940816E+02  0.00000000000E+00 0.  1.
<mgrwt>
<rscale>  2 0.22435986E+02</rscale>
<asrwt>0</asrwt>
<pdfrwt beam="1">  1       21 0.74500977E-03 0.22435986E+02</pdfrwt>
<pdfrwt beam="2">  1       21 0.24647041E-01 0.22435986E+02</pdfrwt>
<totfact> 0.65778142E+07</totfact>
</mgrwt>
</event>
<event>
 4    1  0.4578942E+006  0.2081599E+02  0.7546771E-02  0.1729572E+00
         21   -1    0    0  504  501  0.00000000000E+00  0.00000000000E+00  0.92865659093E+01  0.92865659093E+01  0.00000000000E+00 0. -1.
         21   -1    0    0  501  502 -0.00000000000E+00 -0.00000000000E+00 -0.85248454891E+02  0.85248454891E+02  0.00000000000E+00 0. -1.
         21    1    1    2  503  502 -0.13955215635E+02  0.15445303401E+02 -0.69782739510E+02  0.72821261827E+02  0.00000000000E+00 0. -1.
         21    1    1    2  504  503  0.13955215635E+02 -0.15445303401E+02 -0.61791494719E+01  0.21713758973E+02  0.00000000000E+00 0. -1.
<mgrwt>
<rscale>  2 0.20815990E+02</rscale>
<asrwt>0</asrwt>
<pdfrwt beam="1">  1       21 0.14287025E-02 0.20815990E+02</pdfrwt>
<pdfrwt beam="2">  1       21 0.13115147E-01 0.20815990E+02</pdfrwt>
<totfact> 0.72081791E+07</totfact>
</mgrwt>
</event>
<event>
 4    1  0.4578942E+006  0.2043625E+02  0.7546771E-02  0.1736789E+00
         21   -1    0    0  504  501  0.00000000000E+00  0.00000000000E+00  0.65399159558E+00  0.65399159558E+00  0.00000000000E+00 0. -1.
         21   -1    0    0  501  502 -0.00000000000E+00 -0.00000000000E+00 -0.11358745679E+04  0.11358745679E+04  0.00000000000E+00 0. -1.
         21    1    1    2  503  502  0.19496598463E+02  0.61256015803E+01 -0.94360558901E+03  0.94382686333E+03  0.00000000000E+00 0. -1.
         21    1    1    2  504  503 -0.19496598463E+02 -0.61256015803E+01 -0.19161498726E+03  0.19270169613E+03  0.00000000000E+00 0. -1.
<mgrwt>
<rscale>  2 0.20436251E+02</rscale>
<asrwt>0</asrwt>
<pdfrwt beam="1">  1       21 0.10061361E-03 0.20436251E+02</pdfrwt>
<pdfrwt beam="2">  1       21 0.17475077E+00 0.20436251E+02</pdfrwt>
<totfact> 0.21231858E+07</totfact>
</mgrwt>
</event>
<event>
 4    1  0.4578942E+006  0.3016136E+02  0.7546771E-02  0.1596312E+00
         21   -1    0    0  504  501  0.00000000000E+00  0.00000000000E+00  0.10513485315E+03  0.10513485315E+03  0.00000000000E+00 0.  1.
         21   -1    0    0  501  502 -0.00000000000E+00 -0.00000000000E+00 -0.18752619345E+02  0.18752619345E+02  0.00000000000E+00 0.  1.
         21    1    1    2  503  502  0.29981082769E+02 -0.32928090858E+01 -0.22682970271E+01  0.30246538431E+02  0.00000000000E+00 0.  1.
         21    1    1    2  504  503 -0.29981082769E+02  0.32928090858E+01  0.88650530835E+02  0.93640934068E+02  0.00000000000E+00 0.  1.
<mgrwt>
<rscale>  2 0.30161365E+02</rscale>
<asrwt>0</asrwt>
<pdfrwt beam="1">  1       21 0.16174592E-01 0.30161365E+02</pdfrwt>
<pdfrwt beam="2">  1       21 0.28850184E-02 0.30161365E+02</pdfrwt>
<totfact> 0.18606120E+07</totfact>
</mgrwt>
</event>
<event>
 4    1  0.4578942E+006  0.2011208E+02  0.7546771E-02  0.1743108E+00
         21   -1    0    0  504  501  0.00000000000E+00  0.00000000000E+00  0.35507894079E+03  0.35507894079E+03  0.00000000000E+00 0. -1.
         21   -1    0    0  503  502 -0.00000000000E+00 -0.00000000000E+00 -0.12611255342E+01  0.12611255342E+01  0.00000000000E+00 0. -1.
         21    1    1    2  503  501 -0.40202349057E+01  0.19706183087E+02  0.12150340104E+03  0.12315669858E+03  0.00000000000E+00 0. -1.
         21    1    1    2  504  502  0.40202349057E+01 -0.19706183087E+02  0.23231441422E+03  0.23318336775E+03  0.00000000000E+00 0. -1.
<mgrwt>
<rscale>  2 0.20112084E+02</rscale>
<asrwt>0</asrwt>
<pdfrwt beam="1">  1       21 0.54627450E-01 0.20112084E+02</pdfrwt>
<pdfrwt beam="2">  1       21 0.19401960E-03 0.20112084E+02</pdfrwt>
<totfact> 0.10382997E+08</totfact>
</mgrwt>
</event>
<event>
 4    1  0.4578942E+006  0.2287972E+02  0.7546771E-02  0.1693467E+00
         21   -1    0    0  504  501  0.00000000000E+00  0.00000000000E+00  0.27342758455E+03  0.27342758455E+03  0.00000000000E+00 0.  1.
         21   -1    0    0  501  502 -0.00000000000E+00 -0.00000000000E+00 -0.61657081713E+01  0.61657081713E+01  0.00000000000E+00 0.  1.
         21    1    1    2  503  502 -0.13456728438E+02 -0.18503999996E+02  0.17550075813E+02  0.28835511390E+02  0.00000000000E+00 0.  1.
         21    1    1    2  504  503  0.13456728438E+02  0.18503999996E+02  0.24971180057E+03  0.25075778134E+03  0.00000000000E+00 0.  1.
<mgrwt>
<rscale>  2 0.22879719E+02</rscale>
<asrwt>0</asrwt>
<pdfrwt beam="1">  1       21 0.42065773E-01 0.22879719E+02</pdfrwt>
<pdfrwt beam="2">  1       21 0.94857070E-03 0.22879719E+02</pdfrwt>
<totfact> 0.17278041E+07</totfact>
</mgrwt>
</event>
<event>
 4    1  0.4578942E+006  0.2542377E+02  0.7546771E-02  0.1654989E+00
         21   -1    0    0  504  501  0.00000000000E+00  0.00000000000E+00  0.12444174880E+01  0.12444174880E+01  0.00000000000E+00 0.  1.
         21   -1    0    0  501  502 -0.00000000000E+00 -0.00000000000E+00 -0.56595017155E+03  0.56595017155E+03  0.00000000000E+00 0.  1.
         21    1    1    2  503  502 -0.23402514013E+02 -0.99343154206E+01 -0.36367463098E+03  0.36456221074E+03  0.00000000000E+00 0.  1.
         21    1    1    2  504  503  0.23402514013E+02  0.99343154206E+01 -0.20103112309E+03  0.20263237830E+03  0.00000000000E+00 0.  1.
<mgrwt>
<rscale>  2 0.25423774E+02</rscale>
<asrwt>0</asrwt>
<pdfrwt beam="1">  1       21 0.19144906E-03 0.25423774E+02</pdfrwt>
<pdfrwt beam="2">  1       21 0.87069160E-01 0.25423774E+02</pdfrwt>
<totfact> 0.43155775E+07</totfact>
</mgrwt>
</event>
<event>
 4    1  0.4578942E+006  0.2044858E+02  0.7546771E-02  0.1736552E+00
         21   -1    0    0  502  501  0.00000000000E+00  0.00000000000E+00  0.75931649001E+01  0.75931649001E+01  0.00000000000E+00 0.  1.
         21   -1    0    0  503  502 -0.00000000000E+00 -0.00000000000E+00 -0.18033832067E+03  0.18033832067E+03  0.00000000000E+00 0.  1.
         21    1    1    2  503  504 -0.20444312152E+02 -0.41786366961E+00 -0.16468825336E+03  0.16595290086E+03  0.00000000000E+00 0.  1.
         21    1    1    2  504  501  0.20444312152E+02  0.41786366961E+00 -0.80569024110E+01  0.21978584710E+02  0.00000000000E+00 0.  1.
<mgrwt>
<rscale>  2 0.20448582E+02</rscale>
<asrwt>0</asrwt>
<pdfrwt beam="1">  1       21 0.11681793E-02 0.20448582E+02</pdfrwt>
<pdfrwt beam="2">  1       21 0.27744356E-01 0.20448582E+02</pdfrwt>
<totfact> 0.26562012E+07</totfact>
</mgrwt>
</event>
<event>
 4    1  0.4578942E+006  0.2132627E+02  0.7546771E-02  0.1720171E+00
         21   -1    0    0  503  501  0.00000000000E+00  0.00000000000E+00  0.35250558403E+03  0.35250558403E+03  0.00000000000E+00 0.  1.
         21   -1    0    0  504  502 -0.00000000000E+00 -0.00000000000E+00 -0.13570818727E+01  0.13570818727E+01  0.00000000000E+00 0.  1.
         21    1    1    2  503  502  0.54812533913E+01  0.20609839672E+02  0.13630142622E+03  0.13795973478E+03  0.00000000000E+00 0.  1.
         21    1    1    2  504  501 -0.54812533913E+01 -0.20609839672E+02  0.21484707593E+03  0.21590293112E+03  0.00000000000E+00 0.  1.
<mgrwt>
<rscale>  2 0.21326266E+02</rscale>
<asrwt>0</asrwt>
<pdfrwt beam="1">  1       21 0.54231556E-01 0.21326266E+02</pdfrwt>
<pdfrwt beam="2">  1       21 0.20878211E-03 0.21326266E+02</pdfrwt>
<totfact> 0.96280444E+07</totfact>
</mgrwt>
</event>
<event>
 4    1  0.4578942E+006  0.2237740E+02  0.7546771E-02  0.1701806E+00
         21   -1    0    0  503  501  0.00000000000E+00  0.00000000000E+00  0.34340055091E+03  0.34340055091E+03  0.00000000000E+00 0. -1.
         21   -1    0    0  504  502 -0.00000000000E+00 -0.00000000000E+00 -0.16210077657E+01  0.16210077657E+01  0.00000000000E+00 0.  1.
         21    1    1    2  503  502  0.21153249045E+01  0.22277195481E+02  0.11621890144E+03  0.11835362728E+03  0.00000000000E+00 0.  1.
         21    1    1    2  504  501 -0.21153249045E+01 -0.22277195481E+02  0.22556064171E+03  0.22666793140E+03  0.00000000000E+00 0. -1.
<mgrwt>
<rscale>  2 0.22377400E+02</rscale>
<asrwt>0</asrwt>
<pdfrwt beam="1">  1       21 0.52830796E-01 0.22377400E+02</pdfrwt>
<pdfrwt beam="2">  1       21 0.24938608E-03 0.22377400E+02</pdfrwt>
<totfact> 0.79364279E+07</totfact>
</mgrwt>
</event>
<event>
 4    1  0.4578942E+006  0.2028988E+02  0.7546771E-02  0.1739624E+00
         21   -1    0    0  503  501  0.00000000000E+00  0.00000000000E+00  0.56036488986E+02  0.56036488986E+02  0.00000000000E+00 0. -1.
         21   -1    0    0  501  502 -0.00000000000E+00 -0.00000000000E+00 -0.22253942933E+02  0.22253942933E+02  0.00000000000E+00 0. -1.
         21    1    1    2  503  504 -0.17375900359E+01  0.20215339864E+02  0.48929976699E+02  0.52970008540E+02  0.00000000000E+00 0. -1.
         21    1    1    2  504  502  0.17375900359E+01 -0.20215339864E+02 -0.15147430646E+02  0.25320423380E+02  0.00000000000E+00 0. -1.
<mgrwt>
<rscale>  2 0.20289879E+02</rscale>
<asrwt>0</asrwt>
<pdfrwt beam="1">  1       21 0.86209982E-02 0.20289879E+02</pdfrwt>
<pdfrwt beam="2">  1       21 0.34236836E-02 0.20289879E+02</pdfrwt>
<totfact> 0.37497007E+07</totfact>
</mgrwt>
</event>
<event>
 4    1  0.4578942E+006  0.2064608E+02  0.7546771E-02  0.1732777E+00
         21   -1    0    0  503  501  0.00000000000E+00  0.00000000000E+00  0.37091811860E+02  0.37091811860E+02  0.00000000000E+00 0. -1.
         21   -1    0    0  501  502 -0.00000000000E+00 -0.00000000000E+00 -0.11818957072E+02  0.11818957072E+02  0.00000000000E+00 0. -1.
         21    1    1    2  503  504 -0.80455122358E+01  0.19013951934E+02  0.16703695744E+02  0.26556996946E+02  0.00000000000E+00 0. -1.
         21    1    1    2  504  502  0.80455122358E+01 -0.19013951934E+02  0.85691590436E+01  0.22353771986E+02  0.00000000000E+00 0. -1.
<mgrwt>
<rscale>  2 0.20646080E+02</rscale>
<asrwt>0</asrwt>
<pdfrwt beam="1">  1       21 0.57064325E-02 0.20646080E+02</pdfrwt>
<pdfrwt beam="2">  1       21 0.18183011E-02 0.20646080E+02</pdfrwt>
<totfact> 0.19418908E+08</totfact>
</mgrwt>
</event>
<event>
 4    1  0.4578942E+006  0.2176417E+02  0.7546771E-02  0.1712363E+00
         21   -1    0    0  503  501  0.00000000000E+00  0.00000000000E+00  0.23970976912E+02  0.23970976912E+02  0.00000000000E+00 0. -1.
         21   -1    0    0  504  502 -0.00000000000E+00 -0.00000000000E+00 -0.19798925706E+02  0.19798925706E+02  0.00000000000E+00 0.  1.
         21    1    1    2  503  502  0.48449744285E+01 -0.21218038467E+02  0.30499232610E+01  0.21976827922E+02  0.00000000000E+00 0. -1.
         21    1    1    2  504  501 -0.48449744285E+01  0.21218038467E+02  0.11221279452E+01  0.21793074697E+02  0.00000000000E+00 0.  1.
<mgrwt>
<rscale>  2 0.21764166E+02</rscale>
<asrwt>0</asrwt>
<pdfrwt beam="1">  1       21 0.36878426E-02 0.21764166E+02</pdfrwt>
<pdfrwt beam="2">  1       21 0.30459886E-02 0.21764166E+02</pdfrwt>
<totfact> 0.17800719E+08</totfact>
</mgrwt>
</event>
<event>
 4    1  0.4578942E+006  0.2023546E+02  0.7546771E-02  0.1740686E+00
         21   -1    0    0  504  501  0.00000000000E+00  0.00000000000E+00  0.47822279481E+02  0.47822279481E+02  0.00000000000E+00 0.  1.
         21   -1    0    0  503  502 -0.00000000000E+00 -0.00000000000E+00 -0.10658810564E+02  0.10658810564E+02  0.00000000000E+00 0.  1.
         21    1    1    2  503  501 -0.18326501518E+02 -0.85798130302E+01  0.31549599242E+02  0.37481342850E+02  0.00000000000E+00 0.  1.
         21    1    1    2  504  502  0.18326501518E+02  0.85798130302E+01  0.56138696754E+01  0.20999747195E+02  0.00000000000E+00 0.  1.
<mgrwt>
<rscale>  2 0.20235460E+02</rscale>
<asrwt>0</asrwt>
<pdfrwt beam="1">  1       21 0.73572736E-02 0.20235460E+02</pdfrwt>
<pdfrwt beam="2">  1       21 0.16398170E-02 0.20235460E+02</pdfrwt>
<totfact> 0.15016218E+08</totfact>
</mgrwt>
</event>
<event>
 4    1  0.4578942E+006  0.2116004E+02  0.7546771E-02  0.1723197E+00
         21   -1    0    0  503  501  0.00000000000E+00  0.00000000000E+00  0.34052007142E+03  0.34052007142E+03  0.00000000000E+00 0. -1.
         21   -1    0    0  504  502 -0.00000000000E+00 -0.00000000000E+00 -0.51412913898E+01  0.51412913898E+01  0.00000000000E+00 0. -1.
         21    1    1    2  503  502  0.46652941361E+01 -0.20639341095E+02  0.31679014414E+03  0.31749605162E+03  0.00000000000E+00 0. -1.
         21    1    1    2  504  501 -0.46652941361E+01  0.20639341095E+02  0.18588635895E+02  0.28165311194E+02  0.00000000000E+00 0. -1.
<mgrwt>
<rscale>  2 0.21160042E+02</rscale>
<asrwt>0</asrwt>
<pdfrwt beam="1">  1       21 0.52387686E-01 0.21160042E+02</pdfrwt>
<pdfrwt beam="2">  1       21 0.79096817E-03 0.21160042E+02</pdfrwt>
<totfact> 0.14631829E+07</totfact>
</mgrwt>
</event>
<event>
 4    1  0.4578942E+006  0.2332853E+02  0.7546771E-02  0.1686239E+00
         21   -1    0    0  502  501  0.00000000000E+00  0.00000000000E+00  0.20546031333E+03  0.20546031333E+03  0.00000000000E+00 0.  1.
         21   -1    0    0  503  502 -0.00000000000E+00 -0.00000000000E+00 -0.39313595387E+01  0.39313595387E+01  0.00000000000E+00 0. -1.
         21    1    1    2  503  504 -0.71971718066E+01 -0.22190563159E+02  0.40964751668E+02  0.47141608527E+02  0.00000000000E+00 0. -1.
         21    1    1    2  504  501  0.71971718066E+01  0.22190563159E+02  0.16056420212E+03  0.16225006434E+03  0.00000000000E+00 0.  1.
<mgrwt>
<rscale>  2 0.23328531E+02</rscale>
<asrwt>0</asrwt>
<pdfrwt beam="1">  1       21 0.31609271E-01 0.23328531E+02</pdfrwt>
<pdfrwt beam="2">  1       21 0.60482470E-03 0.23328531E+02</pdfrwt>
<totfact> 0.57804608E+07</totfact>
</mgrwt>
</event>
<event>
 4    1  0.4578942E+006  0.2499005E+02  0.7546771E-02  0.1661145E+00
         21   -1    0    0  503  501  0.00000000000E+00  0.00000000000E+00  0.13563020074E+03  0.13563020074E+03  0.00000000000E+00 0.  1.
         21   -1    0    0  504  502 -0.00000000000E+00 -0.00000000000E+00 -0.48095681243E+01  0.48095681243E+01  0.00000000000E+00 0.  1.
         21    1    1    2  503  502  0.15907195524E+02 -0.19273397133E+02  0.50909004077E+02  0.56711810080E+02  0.00000000000E+00 0.  1.
         21    1    1    2  504  501 -0.15907195524E+02  0.19273397133E+02  0.79911628540E+02  0.83727958785E+02  0.00000000000E+00 0.  1.
<mgrwt>
<rscale>  2 0.24990052E+02</rscale>
<asrwt>0</asrwt>
<pdfrwt beam="1">  1       21 0.20866182E-01 0.24990052E+02</pdfrwt>
<pdfrwt beam="2">  1       21 0.73993366E-03 0.24990052E+02</pdfrwt>
<totfact> 0.91744436E+07</totfact>
</mgrwt>
</event>
<event>
 4    1  0.4578942E+006  0.2144649E+02  0.7546771E-02  0.1718004E+00
         21   -1    0    0  503  501  0.00000000000E+00  0.00000000000E+00  0.18798455174E+02  0.18798455174E+02  0.00000000000E+00 0. -1.
         21   -1    0    0  501  502 -0.00000000000E+00 -0.00000000000E+00 -0.73374911432E+03  0.73374911432E+03  0.00000000000E+00 0.  1.
         21    1    1    2  503  504  0.21052183779E+02  0.40936098761E+01  0.12471665098E+02  0.24809161896E+02  0.00000000000E+00 0. -1.
         21    1    1    2  504  502 -0.21052183779E+02 -0.40936098761E+01 -0.72742232424E+03  0.72773840760E+03  0.00000000000E+00 0.  1.
<mgrwt>
<rscale>  2 0.21446494E+02</rscale>
<asrwt>0</asrwt>
<pdfrwt beam="1">  1       21 0.28920704E-02 0.21446494E+02</pdfrwt>
<pdfrwt beam="2">  1       21 0.11288447E+00 0.21446494E+02</pdfrwt>
<totfact> 0.41491958E+05</totfact>
</mgrwt>
</event>
<event>
 4    1  0.4578942E+006  0.2042171E+02  0.7546771E-02  0.1737070E+00
         21   -1    0    0  502  501  0.00000000000E+00  0.00000000000E+00  0.22617227223E+03  0.22617227223E+03  0.00000000000E+00 0. -1.
         21   -1    0    0  504  502 -0.00000000000E+00 -0.00000000000E+00 -0.22602708330E+01  0.22602708330E+01  0.00000000000E+00 0. -1.
         21    1    1    2  503  501  0.91619321626E+01 -0.18251172880E+02  0.16097575699E+03  0.16226595654E+03  0.00000000000E+00 0. -1.
         21    1    1    2  504  503 -0.91619321626E+01  0.18251172880E+02  0.62936244408E+02  0.66166586527E+02  0.00000000000E+00 0. -1.
<mgrwt>
<rscale>  2 0.20421712E+02</rscale>
<asrwt>0</asrwt>
<pdfrwt beam="1">  1       21 0.34795716E-01 0.20421712E+02</pdfrwt>
<pdfrwt beam="2">  1       21 0.34773415E-03 0.20421712E+02</pdfrwt>
<totfact> 0.10551582E+08</totfact>
</mgrwt>
</event>
<event>
 4    1  0.4578942E+006  0.2378500E+02  0.7546771E-02  0.1679093E+00
         21   -1    0    0  502  501  0.00000000000E+00  0.00000000000E+00  0.31439674789E+03  0.31439674789E+03  0.00000000000E+00 0.  1.
         21   -1    0    0  503  502 -0.00000000000E+00 -0.00000000000E+00 -0.19149540905E+02  0.19149540905E+02  0.00000000000E+00 0. -1.
         21    1    1    2  503  504 -0.13045559531E+02 -0.19888177262E+02 -0.11120794680E+02  0.26256395270E+02  0.00000000000E+00 0. -1.
         21    1    1    2  504  501  0.13045559531E+02  0.19888177262E+02  0.30636800166E+03  0.30728989352E+03  0.00000000000E+00 0.  1.
<mgrwt>
<rscale>  2 0.23785000E+02</rscale>
<asrwt>0</asrwt>
<pdfrwt beam="1">  1       21 0.48368727E-01 0.23785000E+02</pdfrwt>
<pdfrwt beam="2">  1       21 0.29460834E-02 0.23785000E+02</pdfrwt>
<totfact> 0.23579223E+06</totfact>
</mgrwt>
</event>
<event>
 4    1  0.4578942E+006  0.2039783E+02  0.7546771E-02  0.1737531E+00
         21   -1    0    0  503  501  0.00000000000E+00  0.00000000000E+00  0.37070426914E+02  0.37070426914E+02  0.00000000000E+00 0. -1.
         21   -1    0    0  504  502 -0.00000000000E+00 -0.00000000000E+00 -0.26822616245E+02  0.26822616245E+02  0.00000000000E+00 0. -1.
         21    1    1    2  503  502 -0.39965953957E-02 -0.20397826305E+02  0.29486230035E+02  0.35853996927E+02  0.00000000000E+00 0. -1.
         21    1    1    2  504  501  0.39965953957E-02  0.20397826305E+02 -0.19238419366E+02  0.28039046233E+02  0.00000000000E+00 0. -1.
<mgrwt>
<rscale>  2 0.20397827E+02</rscale>
<asrwt>0</asrwt>
<pdfrwt beam="1">  1       21 0.57031426E-02 0.20397827E+02</pdfrwt>
<pdfrwt beam="2">  1       21 0.41265564E-02 0.20397827E+02</pdfrwt>
<totfact> 0.54573390E+07</totfact>
</mgrwt>
</event>
<event>
 4    1  0.4578942E+006  0.2192012E+02  0.7546771E-02  0.1709637E+00
         21   -1    0    0  502  501  0.00000000000E+00  0.00000000000E+00  0.55627262247E+03  0.55627262247E+03  0.00000000000E+00 0.  1.
         21   -1    0    0  504  502 -0.00000000000E+00 -0.00000000000E+00 -0.19114859022E+01  0.19114859022E+01  0.00000000000E+00 0.  1.
         21    1    1    2  503  501  0.13926151490E+02  0.16927909285E+02  0.48380592389E+03  0.48430224427E+03  0.00000000000E+00 0.  1.
         21    1    1    2  504  503 -0.13926151490E+02 -0.16927909285E+02  0.70555212676E+02  0.73881864107E+02  0.00000000000E+00 0.  1.
<mgrwt>
<rscale>  2 0.21920123E+02</rscale>
<asrwt>0</asrwt>
<pdfrwt beam="1">  1       21 0.85580274E-01 0.21920123E+02</pdfrwt>
<pdfrwt beam="2">  1       21 0.29407520E-03 0.21920123E+02</pdfrwt>
<totfact> 0.23304524E+07</totfact>
</mgrwt>
</event>
<event>
 4    1  0.4578942E+006  0.2676143E+02  0.7546771E-02  0.1636919E+00
         21   -1    0    0  503  501  0.00000000000E+00  0.00000000000E+00  0.35696692664E+02  0.35696692664E+02  0.00000000000E+00 0.  1.
         21   -1    0    0  504  502 -0.00000000000E+00 -0.00000000000E+00 -0.21013264435E+02  0.21013264435E+02  0.00000000000E+00 0.  1.
         21    1    1    2  503  502  0.24900737797E+02  0.98044640097E+01  0.13111335439E+01  0.26793531468E+02  0.00000000000E+00 0.  1.
         21    1    1    2  504  501 -0.24900737797E+02 -0.98044640097E+01  0.13372294685E+02  0.29916425630E+02  0.00000000000E+00 0.  1.
<mgrwt>
<rscale>  2 0.26761432E+02</rscale>
<asrwt>0</asrwt>
<pdfrwt beam="1">  1       21 0.54917989E-02 0.26761432E+02</pdfrwt>
<pdfrwt beam="2">  1       21 0.32328099E-02 0.26761432E+02</pdfrwt>
<totfact> 0.91484468E+07</totfact>
</mgrwt>
</event>
<event>
 4    1  0.4578942E+006  0.2761770E+02  0.7546771E-02  0.1626020E+00
         21   -1    0    0  503  501  0.00000000000E+00  0.00000000000E+00  0.82752866320E+03  0.82752866320E+03  0.00000000000E+00 0. -1.
         21   -1    0    0  504  502 -0.00000000000E+00 -0.00000000000E+00 -0.21372609177E+01  0.21372609177E+01  0.00000000000E+00 0. -1.
         21    1    1    2  503  502 -0.27611490505E+02  0.58561830302E+00  0.99848736570E+02  0.10359781634E+03  0.00000000000E+00 0. -1.
         21    1    1    2  504  501  0.27611490505E+02 -0.58561830302E+00  0.72554266571E+03  0.72606810777E+03  0.00000000000E+00 0. -1.
<mgrwt>
<rscale>  2 0.27617700E+02</rscale>
<asrwt>0</asrwt>
<pdfrwt beam="1">  1       21 0.12731185E+00 0.27617700E+02</pdfrwt>
<pdfrwt beam="2">  1       21 0.32881003E-03 0.27617700E+02</pdfrwt>
<totfact> 0.85426950E+06</totfact>
</mgrwt>
</event>
<event>
 4    1  0.4578942E+006  0.2410676E+02  0.7546771E-02  0.1674173E+00
         21   -1    0    0  503  501  0.00000000000E+00  0.00000000000E+00  0.87486575000E+03  0.87486575000E+03  0.00000000000E+00 0. -1.
         21   -1    0    0  504  502 -0.00000000000E+00 -0.00000000000E+00 -0.98171393981E+00  0.98171393981E+00  0.00000000000E+00 0. -1.
         21    1    1    2  503  502  0.67666692420E+01  0.23137589055E+02  0.18791394709E+03  0.18945391881E+03  0.00000000000E+00 0. -1.
         21    1    1    2  504  501 -0.67666692420E+01 -0.23137589055E+02  0.68597008897E+03  0.68639354513E+03  0.00000000000E+00 0. -1.
<mgrwt>
<rscale>  2 0.24106759E+02</rscale>
<asrwt>0</asrwt>
<pdfrwt beam="1">  1       21 0.13459411E+00 0.24106759E+02</pdfrwt>
<pdfrwt beam="2">  1       21 0.15103361E-03 0.24106759E+02</pdfrwt>
<totfact> 0.22779204E+07</totfact>
</mgrwt>
</event>
<event>
 4    1  0.4578942E+006  0.2816216E+02  0.7546771E-02  0.1619340E+00
         21   -1    0    0  504  501  0.00000000000E+00  0.00000000000E+00  0.21191607515E+03  0.21191607515E+03  0.00000000000E+00 0. -1.
         21   -1    0    0  503  502 -0.00000000000E+00 -0.00000000000E+00 -0.18874478014E+02  0.18874478014E+02  0.00000000000E+00 0.  1.
         21    1    1    2  503  501  0.24804958306E+02  0.13334967403E+02 -0.68023510336E+01  0.28972043279E+02  0.00000000000E+00 0.  1.
         21    1    1    2  504  502 -0.24804958306E+02 -0.13334967403E+02  0.19984394817E+03  0.20181850988E+03  0.00000000000E+00 0. -1.
<mgrwt>
<rscale>  2 0.28162161E+02</rscale>
<asrwt>0</asrwt>
<pdfrwt beam="1">  1       21 0.32602471E-01 0.28162161E+02</pdfrwt>
<pdfrwt beam="2">  1       21 0.29037660E-02 0.28162161E+02</pdfrwt>
<totfact> 0.52024421E+06</totfact>
</mgrwt>
</event>
<event>
 4    1  0.4578942E+006  0.2480644E+02  0.7546771E-02  0.1663798E+00
         21   -1    0    0  503  501  0.00000000000E+00  0.00000000000E+00  0.94588315889E+02  0.94588315889E+02  0.00000000000E+00 0.  1.
         21   -1    0    0  504  502 -0.00000000000E+00 -0.00000000000E+00 -0.65637830355E+01  0.65637830355E+01  0.00000000000E+00 0.  1.
         21    1    1    2  503  502  0.44430562624E+01 -0.24405305212E+02  0.48771446437E+02  0.54717580895E+02  0.00000000000E+00 0.  1.
         21    1    1    2  504  501 -0.44430562624E+01  0.24405305212E+02  0.39253086416E+02  0.46434518029E+02  0.00000000000E+00 0.  1.
<mgrwt>
<rscale>  2 0.24806444E+02</rscale>
<asrwt>0</asrwt>
<pdfrwt beam="1">  1       21 0.14552048E-01 0.24806444E+02</pdfrwt>
<pdfrwt beam="2">  1       21 0.10098128E-02 0.24806444E+02</pdfrwt>
<totfact> 0.10713775E+08</totfact>
</mgrwt>
</event>
<event>
 4    1  0.4578942E+006  0.3313329E+02  0.7546771E-02  0.1565831E+00
         21   -1    0    0  502  501  0.00000000000E+00  0.00000000000E+00  0.12515897318E+02  0.12515897318E+02  0.00000000000E+00 0.  1.
         21   -1    0    0  504  502 -0.00000000000E+00 -0.00000000000E+00 -0.13630294207E+03  0.13630294207E+03  0.00000000000E+00 0.  1.
         21    1    1    2  503  501  0.32896688191E+02  0.39525459184E+01 -0.17466653724E+02  0.37455289419E+02  0.00000000000E+00 0.  1.
         21    1    1    2  504  503 -0.32896688191E+02 -0.39525459184E+01 -0.10632039103E+03  0.11136354997E+03  0.00000000000E+00 0.  1.
<mgrwt>
<rscale>  2 0.33133287E+02</rscale>
<asrwt>0</asrwt>
<pdfrwt beam="1">  1       21 0.19255227E-02 0.33133287E+02</pdfrwt>
<pdfrwt beam="2">  1       21 0.20969683E-01 0.33133287E+02</pdfrwt>
<totfact> 0.22552935E+07</totfact>
</mgrwt>
</event>
<event>
 4    1  0.4578942E+006  0.2090663E+02  0.7546771E-02  0.1727877E+00
         21   -1    0    0  503  501  0.00000000000E+00  0.00000000000E+00  0.27267285566E+01  0.27267285566E+01  0.00000000000E+00 0.  1.
         21   -1    0    0  504  502 -0.00000000000E+00 -0.00000000000E+00 -0.46439174524E+03  0.46439174524E+03  0.00000000000E+00 0. -1.
         21    1    1    2  503  502 -0.10385546611E+02  0.18144630922E+02 -0.41833707080E+02  0.46766935519E+02  0.00000000000E+00 0.  1.
         21    1    1    2  504  501  0.10385546611E+02 -0.18144630922E+02 -0.41983130961E+03  0.42035153828E+03  0.00000000000E+00 0. -1.
<mgrwt>
<rscale>  2 0.20906631E+02</rscale>
<asrwt>0</asrwt>
<pdfrwt beam="1">  1       21 0.41949691E-03 0.20906631E+02</pdfrwt>
<pdfrwt beam="2">  1       21 0.71444849E-01 0.20906631E+02</pdfrwt>
<totfact> 0.20019792E+07</totfact>
</mgrwt>
</event>
<event>
 4    1  0.4578942E+006  0.2750245E+02  0.7546771E-02  0.1627459E+00
         21   -1    0    0  504  501  0.00000000000E+00  0.00000000000E+00  0.82589944185E+01  0.82589944185E+01  0.00000000000E+00 0.  1.
         21   -1    0    0  503  502 -0.00000000000E+00 -0.00000000000E+00 -0.10062796019E+03  0.10062796019E+03  0.00000000000E+00 0.  1.
         21    1    1    2  503  501  0.25476079715E+02  0.10361175157E+02 -0.62506981719E+02  0.68289877375E+02  0.00000000000E+00 0.  1.
         21    1    1    2  504  502 -0.25476079715E+02 -0.10361175157E+02 -0.29861984049E+02  0.40597077230E+02  0.00000000000E+00 0.  1.
<mgrwt>
<rscale>  2 0.27502447E+02</rscale>
<asrwt>0</asrwt>
<pdfrwt beam="1">  1       21 0.12706145E-02 0.27502447E+02</pdfrwt>
<pdfrwt beam="2">  1       21 0.15481225E-01 0.27502447E+02</pdfrwt>
<totfact> 0.69850652E+07</totfact>
</mgrwt>
</event>
<event>
 4    1  0.4578942E+006  0.2071105E+02  0.7546771E-02  0.1731547E+00
         21   -1    0    0  504  501  0.00000000000E+00  0.00000000000E+00  0.17999284145E+02  0.17999284145E+02  0.00000000000E+00 0. -1.
         21   -1    0    0  501  502 -0.00000000000E+00 -0.00000000000E+00 -0.31652906206E+02  0.31652906206E+02  0.00000000000E+00 0. -1.
         21    1    1    2  503  502 -0.18467887983E+02  0.93746921607E+01 -0.19167728145E+02  0.28219665872E+02  0.00000000000E+00 0. -1.
         21    1    1    2  504  503  0.18467887983E+02 -0.93746921607E+01  0.55141060841E+01  0.21432524480E+02  0.00000000000E+00 0. -1.
<mgrwt>
<rscale>  2 0.20711054E+02</rscale>
<asrwt>0</asrwt>
<pdfrwt beam="1">  1       21 0.27691206E-02 0.20711054E+02</pdfrwt>
<pdfrwt beam="2">  1       21 0.48696779E-02 0.20711054E+02</pdfrwt>
<totfact> 0.13115678E+08</totfact>
</mgrwt>
</event>
<event>
 4    1  0.4578942E+006  0.3544259E+02  0.7546771E-02  0.1544705E+00
         21   -1    0    0  504  501  0.00000000000E+00  0.00000000000E+00  0.14754870194E+03  0.14754870194E+03  0.00000000000E+00 0.  1.
         21   -1    0    0  503  502 -0.00000000000E+00 -0.00000000000E+00 -0.96220374990E+01  0.96220374990E+01  0.00000000000E+00 0. -1.
         21    1    1    2  503  501  0.31449551790E+02 -0.16343282426E+02  0.95635300982E+02  0.10199160741E+03  0.00000000000E+00 0.  1.
         21    1    1    2  504  502 -0.31449551790E+02  0.16343282426E+02  0.42291363461E+02  0.55179132031E+02  0.00000000000E+00 0. -1.
<mgrwt>
<rscale>  2 0.35442590E+02</rscale>
<asrwt>0</asrwt>
<pdfrwt beam="1">  1       21 0.22699799E-01 0.35442590E+02</pdfrwt>
<pdfrwt beam="2">  1       21 0.14803136E-02 0.35442590E+02</pdfrwt>
<totfact> 0.29760330E+07</totfact>
</mgrwt>
</event>
<event>
 4    1  0.4578942E+006  0.2142928E+02  0.7546771E-02  0.1718313E+00
         21   -1    0    0  503  501  0.00000000000E+00  0.00000000000E+00  0.16903905792E+01  0.16903905792E+01  0.00000000000E+00 0.  1.
         21   -1    0    0  504  502 -0.00000000000E+00 -0.00000000000E+00 -0.34645087204E+03  0.34645087204E+03  0.00000000000E+00 0.  1.
         21    1    1    2  503  502 -0.20970896423E+02  0.44085734103E+01 -0.25325717111E+03  0.25416217015E+03  0.00000000000E+00 0.  1.
         21    1    1    2  504  501  0.20970896423E+02 -0.44085734103E+01 -0.91503310344E+02  0.93979092463E+02  0.00000000000E+00 0.  1.
<mgrwt>
<rscale>  2 0.21429279E+02</rscale>
<asrwt>0</asrwt>
<pdfrwt beam="1">  1       21 0.26005960E-03 0.21429279E+02</pdfrwt>
<pdfrwt beam="2">  1       21 0.53300235E-01 0.21429279E+02</pdfrwt>
<totfact> 0.72604838E+07</totfact>
</mgrwt>
</event>
<event>
 4    1  0.4578942E+006  0.2197785E+02  0.7546771E-02  0.1708635E+00
         21   -1    0    0  502  501  0.00000000000E+00  0.00000000000E+00  0.13635116566E+03  0.13635116566E+03  0.00000000000E+00 0.  1.
         21   -1    0    0  503  502 -0.00000000000E+00 -0.00000000000E+00 -0.50316417344E+01  0.50316417344E+01  0.00000000000E+00 0.  1.
         21    1    1    2  503  504 -0.21397079698E+02 -0.50190648891E+01  0.27202567417E+02  0.34971498481E+02  0.00000000000E+00 0.  1.
         21    1    1    2  504  501  0.21397079698E+02  0.50190648891E+01  0.10411695651E+03  0.10641130891E+03  0.00000000000E+00 0.  1.
<mgrwt>
<rscale>  2 0.21977853E+02</rscale>
<asrwt>0</asrwt>
<pdfrwt beam="1">  1       21 0.20977100E-01 0.21977853E+02</pdfrwt>
<pdfrwt beam="2">  1       21 0.77409883E-03 0.21977853E+02</pdfrwt>
<totfact> 0.82112704E+07</totfact>
</mgrwt>
</event>
<event>
 4    1  0.4578942E+006  0.2642265E+02  0.7546771E-02  0.1641370E+00
         21   -1    0    0  503  501  0.00000000000E+00  0.00000000000E+00  0.30843645762E+01  0.30843645762E+01  0.00000000000E+00 0.  1.
         21   -1    0    0  504  502 -0.00000000000E+00 -0.00000000000E+00 -0.35260593715E+03  0.35260593715E+03  0.00000000000E+00 0.  1.
         21    1    1    2  503  502 -0.77986980256E+01 -0.25245528269E+02 -0.28117932382E+03  0.28241807402E+03  0.00000000000E+00 0.  1.
         21    1    1    2  504  501  0.77986980256E+01  0.25245528269E+02 -0.68342248751E+02  0.73272227705E+02  0.00000000000E+00 0.  1.
<mgrwt>
<rscale>  2 0.26422649E+02</rscale>
<asrwt>0</asrwt>
<pdfrwt beam="1">  1       21 0.47451745E-03 0.26422649E+02</pdfrwt>
<pdfrwt beam="2">  1       21 0.54247087E-01 0.26422649E+02</pdfrwt>
<totfact> 0.30487927E+07</totfact>
</mgrwt>
</event>
<event>
 4    1  0.4578942E+006  0.2301607E+02  0.7546771E-02  0.1691250E+00
         21   -1    0    0  502  501  0.00000000000E+00  0.00000000000E+00  0.94841561255E+02  0.94841561255E+02  0.00000000000E+00 0. -1.
         21   -1    0    0  503  502 -0.00000000000E+00 -0.00000000000E+00 -0.55895241361E+01  0.55895241361E+01  0.00000000000E+00 0. -1.
         21    1    1    2  503  504  0.99648764816E+01 -0.20747068922E+02  0.45969691790E+02  0.51409650800E+02  0.00000000000E+00 0. -1.
         21    1    1    2  504  501 -0.99648764816E+01  0.20747068922E+02  0.43282345329E+02  0.49021434591E+02  0.00000000000E+00 0. -1.
<mgrwt>
<rscale>  2 0.23016073E+02</rscale>
<asrwt>0</asrwt>
<pdfrwt beam="1">  1       21 0.14591008E-01 0.23016073E+02</pdfrwt>
<pdfrwt beam="2">  1       21 0.85992686E-03 0.23016073E+02</pdfrwt>
<totfact> 0.13290768E+08</totfact>
</mgrwt>
</event>
<event>
 4    1  0.4578942E+006  0.2070655E+02  0.7546771E-02  0.1731632E+00
         21   -1    0    0  504  501  0.00000000000E+00  0.00000000000E+00  0.96292426481E+02  0.96292426481E+02  0.00000000000E+00 0.  1.
         21   -1    0    0  503  502 -0.00000000000E+00 -0.00000000000E+00 -0.11148528765E+03  0.11148528765E+03  0.00000000000E+00 0. -1.
         21    1    1    2  503  501  0.20660168202E+02 -0.13851795949E+01 -0.10938949810E+03  0.11133204196E+03  0.00000000000E+00 0. -1.
         21    1    1    2  504  502 -0.20660168202E+02  0.13851795949E+01  0.94196636928E+02  0.96445672174E+02  0.00000000000E+00 0.  1.
<mgrwt>
<rscale>  2 0.20706551E+02</rscale>
<asrwt>0</asrwt>
<pdfrwt beam="1">  1       21 0.14814219E-01 0.20706551E+02</pdfrwt>
<pdfrwt beam="2">  1       21 0.17151583E-01 0.20706551E+02</pdfrwt>
<totfact> 0.11169828E+06</totfact>
</mgrwt>
</event>
<event>
 4    1  0.4578942E+006  0.2565270E+02  0.7546771E-02  0.1651800E+00
         21   -1    0    0  504  501  0.00000000000E+00  0.00000000000E+00  0.57751137598E+01  0.57751137598E+01  0.00000000000E+00 0. -1.
         21   -1    0    0  503  502 -0.00000000000E+00 -0.00000000000E+00 -0.11883310667E+03  0.11883310667E+03  0.00000000000E+00 0. -1.
         21    1    1    2  503  501  0.13880890423E+02 -0.21572712755E+02 -0.69161731173E+02  0.73765887193E+02  0.00000000000E+00 0. -1.
         21    1    1    2  504  502 -0.13880890423E+02  0.21572712755E+02 -0.43896261741E+02  0.50842333241E+02  0.00000000000E+00 0. -1.
<mgrwt>
<rscale>  2 0.25652701E+02</rscale>
<asrwt>0</asrwt>
<pdfrwt beam="1">  1       21 0.88847908E-03 0.25652701E+02</pdfrwt>
<pdfrwt beam="2">  1       21 0.18282016E-01 0.25652701E+02</pdfrwt>
<totfact> 0.88468884E+07</totfact>
</mgrwt>
</event>
<event>
 4    1  0.4578942E+006  0.2131949E+02  0.7546771E-02  0.1720294E+00
         21   -1    0    0  504  501  0.00000000000E+00  0.00000000000E+00  0.11037135550E+04  0.11037135550E+04  0.00000000000E+00 0.  1.
         21   -1    0    0  503  502 -0.00000000000E+00 -0.00000000000E+00 -0.15017856072E+01  0.15017856072E+01  0.00000000000E+00 0. -1.
         21    1    1    2  503  501 -0.16799807963E+02 -0.13125811332E+02  0.10218894512E+04  0.10221118192E+04  0.00000000000E+00 0.  1.
         21    1    1    2  504  502  0.16799807963E+02  0.13125811332E+02  0.80322318197E+02  0.83103521413E+02  0.00000000000E+00 0. -1.
<mgrwt>
<rscale>  2 0.21319486E+02</rscale>
<asrwt>0</asrwt>
<pdfrwt beam="1">  1       21 0.16980144E+00 0.21319486E+02</pdfrwt>
<pdfrwt beam="2">  1       21 0.23104482E-03 0.21319486E+02</pdfrwt>
<totfact> 0.69754293E+06</totfact>
</mgrwt>
</event>
<event>
 4    1  0.4578942E+006  0.2640315E+02  0.7546771E-02  0.1641629E+00
         21   -1    0    0  502  501  0.00000000000E+00  0.00000000000E+00  0.90892163358E+01  0.90892163358E+01  0.00000000000E+00 0.  1.
         21   -1    0    0  503  502 -0.00000000000E+00 -0.00000000000E+00 -0.80279210916E+02  0.80279210916E+02  0.00000000000E+00 0.  1.
         21    1    1    2  503  504 -0.15555489572E+02  0.21334321608E+02 -0.45032462884E+02  0.52202004250E+02  0.00000000000E+00 0.  1.
         21    1    1    2  504  501  0.15555489572E+02 -0.21334321608E+02 -0.26157531697E+02  0.37166423002E+02  0.00000000000E+00 0.  1.
<mgrwt>
<rscale>  2 0.26403154E+02</rscale>
<asrwt>0</asrwt>
<pdfrwt beam="1">  1       21 0.13983410E-02 0.26403154E+02</pdfrwt>
<pdfrwt beam="2">  1       21 0.12350648E-01 0.26403154E+02</pdfrwt>
<totfact> 0.87808485E+07</totfact>
</mgrwt>
</event>
<event>
 4    1  0.4578942E+006  0.2134509E+02  0.7546771E-02  0.1719831E+00
         21   -1    0    0  504  501  0.00000000000E+00  0.00000000000E+00  0.15813056439E+04  0.15813056439E+04  0.00000000000E+00 0.  1.
         21   -1    0    0  501  502 -0.00000000000E+00 -0.00000000000E+00 -0.77407641600E+02  0.77407641600E+02  0.00000000000E+00 0.  1.
         21    1    1    2  503  502 -0.12650879771E+02 -0.17192099716E+02 -0.75862698367E+02  0.78808388228E+02  0.00000000000E+00 0.  1.
         21    1    1    2  504  503  0.12650879771E+02  0.17192099716E+02  0.15797607007E+04  0.15799048973E+04  0.00000000000E+00 0.  1.
<mgrwt>
<rscale>  2 0.21345094E+02</rscale>
<asrwt>0</asrwt>
<pdfrwt beam="1">  1       21 0.24327777E+00 0.21345094E+02</pdfrwt>
<pdfrwt beam="2">  1       21 0.11908869E-01 0.21345094E+02</pdfrwt>
<totfact> 0.65609318E+03</totfact>
</mgrwt>
</event>
<event>
 4    1  0.4578942E+006  0.2307794E+02  0.7546771E-02  0.1690250E+00
         21   -1    0    0  503  501  0.00000000000E+00  0.00000000000E+00  0.13712865729E+03  0.13712865729E+03  0.00000000000E+00 0.  1.
         21   -1    0    0  504  502 -0.00000000000E+00 -0.00000000000E+00 -0.62818387775E+02  0.62818387775E+02  0.00000000000E+00 0. -1.
         21    1    1    2  503  502 -0.80682442646E+01 -0.21621631359E+02 -0.59678542593E+02  0.63985310456E+02  0.00000000000E+00 0. -1.
         21    1    1    2  504  501  0.80682442646E+01  0.21621631359E+02  0.13398881211E+03  0.13596173461E+03  0.00000000000E+00 0.  1.
<mgrwt>
<rscale>  2 0.23077944E+02</rscale>
<asrwt>0</asrwt>
<pdfrwt beam="1">  1       21 0.21096716E-01 0.23077944E+02</pdfrwt>
<pdfrwt beam="2">  1       21 0.96643674E-02 0.23077944E+02</pdfrwt>
<totfact> 0.16123398E+06</totfact>
</mgrwt>
</event>
<event>
 4    1  0.4578942E+006  0.3711702E+02  0.7546771E-02  0.1530566E+00
         21   -1    0    0  504  501  0.00000000000E+00  0.00000000000E+00  0.40574168648E+03  0.40574168648E+03  0.00000000000E+00 0. -1.
         21   -1    0    0  501  502 -0.00000000000E+00 -0.00000000000E+00 -0.82068325486E+01  0.82068325486E+01  0.00000000000E+00 0.  1.
         21    1    1    2  503  502 -0.16245527643E+02 -0.33372982623E+02  0.40291328528E+02  0.54781970503E+02  0.00000000000E+00 0.  1.
         21    1    1    2  504  503  0.16245527643E+02  0.33372982623E+02  0.35724352540E+03  0.35916654852E+03  0.00000000000E+00 0. -1.
<mgrwt>
<rscale>  2 0.37117020E+02</rscale>
<asrwt>0</asrwt>
<pdfrwt beam="1">  1       21 0.62421782E-01 0.37117020E+02</pdfrwt>
<pdfrwt beam="2">  1       21 0.12625899E-02 0.37117020E+02</pdfrwt>
<totfact> 0.55381347E+06</totfact>
</mgrwt>
</event>
<event>
 4    1  0.4578942E+006  0.2419326E+02  0.7546771E-02  0.1672867E+00
         21   -1    0    0  504  501  0.00000000000E+00  0.00000000000E+00  0.96434536066E+01  0.96434536066E+01  0.00000000000E+00 0.  1.
         21   -1    0    0  503  502 -0.00000000000E+00 -0.00000000000E+00 -0.64287010596E+02  0.64287010596E+02  0.00000000000E+00 0.  1.
         21    1    1    2  503  501  0.23959644964E+02  0.33540030951E+01 -0.36058980396E+02  0.43423081313E+02  0.00000000000E+00 0.  1.
         21    1    1    2  504  502 -0.23959644964E+02 -0.33540030951E+01 -0.18584576593E+02  0.30507382889E+02  0.00000000000E+00 0.  1.
<mgrwt>
<rscale>  2 0.24193262E+02</rscale>
<asrwt>0</asrwt>
<pdfrwt beam="1">  1       21 0.14836083E-02 0.24193262E+02</pdfrwt>
<pdfrwt beam="2">  1       21 0.98903091E-02 0.24193262E+02</pdfrwt>
<totfact> 0.11367123E+08</totfact>
</mgrwt>
</event>
<event>
 4    1  0.4578942E+006  0.2352989E+02  0.7546771E-02  0.1683062E+00
         21   -1    0    0  503  501  0.00000000000E+00  0.00000000000E+00  0.11910637303E+02  0.11910637303E+02  0.00000000000E+00 0.  1.
         21   -1    0    0  504  502 -0.00000000000E+00 -0.00000000000E+00 -0.47752746283E+02  0.47752746283E+02  0.00000000000E+00 0. -1.
         21    1    1    2  503  502 -0.15229898249E+02 -0.17936167964E+02 -0.22783328228E+02  0.32752648245E+02  0.00000000000E+00 0.  1.
         21    1    1    2  504  501  0.15229898249E+02  0.17936167964E+02 -0.13058780753E+02  0.26910735342E+02  0.00000000000E+00 0. -1.
<mgrwt>
<rscale>  2 0.23529894E+02</rscale>
<asrwt>0</asrwt>
<pdfrwt beam="1">  1       21 0.18324057E-02 0.23529894E+02</pdfrwt>
<pdfrwt beam="2">  1       21 0.73465763E-02 0.23529894E+02</pdfrwt>
<totfact> 0.13303160E+08</totfact>
</mgrwt>
</event>
<event>
 4    1  0.4578942E+006  0.2682772E+02  0.7546771E-02  0.1636057E+00
         21   -1    0    0  503  501  0.00000000000E+00  0.00000000000E+00  0.11340871237E+03  0.11340871237E+03  0.00000000000E+00 0.  1.
         21   -1    0    0  504  502 -0.00000000000E+00 -0.00000000000E+00 -0.76883336189E+03  0.76883336189E+03  0.00000000000E+00 0.  1.
         21    1    1    2  503  502 -0.15693890574E+02  0.21758413966E+02  0.11158433028E+03  0.11476406033E+03  0.00000000000E+00 0.  1.
         21    1    1    2  504  501  0.15693890574E+02 -0.21758413966E+02 -0.76700897980E+03  0.76747801393E+03  0.00000000000E+00 0.  1.
<mgrwt>
<rscale>  2 0.26827724E+02</rscale>
<asrwt>0</asrwt>
<pdfrwt beam="1">  1       21 0.17447493E-01 0.26827724E+02</pdfrwt>
<pdfrwt beam="2">  1       21 0.11828206E+00 0.26827724E+02</pdfrwt>
<totfact> 0.19898392E+04</totfact>
</mgrwt>
</event>
<event>
 4    1  0.4578942E+006  0.2478869E+02  0.7546771E-02  0.1664056E+00
         21   -1    0    0  503  501  0.00000000000E+00  0.00000000000E+00  0.19859162603E+01  0.19859162603E+01  0.00000000000E+00 0. -1.
         21   -1    0    0  504  502 -0.00000000000E+00 -0.00000000000E+00 -0.37364440157E+03  0.37364440157E+03  0.00000000000E+00 0. -1.
         21    1    1    2  503  502 -0.21951100793E+02 -0.11516444005E+02 -0.10796171711E+03  0.11077098750E+03  0.00000000000E+00 0. -1.
         21    1    1    2  504  501  0.21951100793E+02  0.11516444005E+02 -0.26369676820E+03  0.26485933034E+03  0.00000000000E+00 0. -1.
<mgrwt>
<rscale>  2 0.24788693E+02</rscale>
<asrwt>0</asrwt>
<pdfrwt beam="1">  1       21 0.30552555E-03 0.24788693E+02</pdfrwt>
<pdfrwt beam="2">  1       21 0.57483760E-01 0.24788693E+02</pdfrwt>
<totfact> 0.51230961E+07</totfact>
</mgrwt>
</event>
<event>
 4    1  0.4578942E+006  0.2366101E+02  0.7546771E-02  0.1681014E+00
         21   -1    0    0  504  501  0.00000000000E+00  0.00000000000E+00  0.15246669365E+03  0.15246669365E+03  0.00000000000E+00 0.  1.
         21   -1    0    0  503  502 -0.00000000000E+00 -0.00000000000E+00 -0.10460243911E+02  0.10460243911E+02  0.00000000000E+00 0.  1.
         21    1    1    2  503  501 -0.11026265845E+02 -0.20934775180E+02  0.13662889072E+03  0.13866252965E+03  0.00000000000E+00 0.  1.
         21    1    1    2  504  502  0.11026265845E+02  0.20934775180E+02  0.53775590244E+01  0.24264407913E+02  0.00000000000E+00 0.  1.
<mgrwt>
<rscale>  2 0.23661009E+02</rscale>
<asrwt>0</asrwt>
<pdfrwt beam="1">  1       21 0.23456413E-01 0.23661009E+02</pdfrwt>
<pdfrwt beam="2">  1       21 0.16092684E-02 0.23661009E+02</pdfrwt>
<totfact> 0.22805837E+07</totfact>
</mgrwt>
</event>
<event>
 4    1  0.4578942E+006  0.5899571E+02  0.7546771E-02  0.1402095E+00
         21   -1    0    0  504  501  0.00000000000E+00  0.00000000000E+00  0.25592575311E+03  0.25592575311E+03  0.00000000000E+00 0. -1.
         21   -1    0    0  503  502 -0.00000000000E+00 -0.00000000000E+00 -0.15173336769E+02  0.15173336769E+02  0.00000000000E+00 0. -1.
         21    1    1    2  503  501  0.51382975885E+02  0.28987646350E+02  0.16402983558E+03  0.17431661083E+03  0.00000000000E+00 0. -1.
         21    1    1    2  504  502 -0.51382975885E+02 -0.28987646350E+02  0.76722580762E+02  0.96782479047E+02  0.00000000000E+00 0. -1.
<mgrwt>
<rscale>  2 0.58995710E+02</rscale>
<asrwt>0</asrwt>
<pdfrwt beam="1">  1       21 0.39373190E-01 0.58995710E+02</pdfrwt>
<pdfrwt beam="2">  1       21 0.23343597E-02 0.58995710E+02</pdfrwt>
<totfact> 0.55649685E+06</totfact>
</mgrwt>
</event>
<event>
 4    1  0.4578942E+006  0.2074004E+02  0.7546771E-02  0.1731000E+00
         21   -1    0    0  503  501  0.00000000000E+00  0.00000000000E+00  0.19055122680E+02  0.19055122680E+02  0.00000000000E+00 0.  1.
         21   -1    0    0  504  502 -0.00000000000E+00 -0.00000000000E+00 -0.34788251785E+02  0.34788251785E+02  0.00000000000E+00 0.  1.
         21    1    1    2  503  502 -0.83985405226E+01 -0.18963481874E+02 -0.23818762745E+02  0.31582947715E+02  0.00000000000E+00 0.  1.
         21    1    1    2  504  501  0.83985405226E+01  0.18963481874E+02  0.80856336397E+01  0.22260426749E+02  0.00000000000E+00 0.  1.
<mgrwt>
<rscale>  2 0.20740037E+02</rscale>
<asrwt>0</asrwt>
<pdfrwt beam="1">  1       21 0.29315574E-02 0.20740037E+02</pdfrwt>
<pdfrwt beam="2">  1       21 0.53520387E-02 0.20740037E+02</pdfrwt>
<totfact> 0.10341135E+08</totfact>
</mgrwt>
</event>
<event>
 4    1  0.4578942E+006  0.3786757E+02  0.7546771E-02  0.1524517E+00
         21   -1    0    0  503  501  0.00000000000E+00  0.00000000000E+00  0.10475597006E+03  0.10475597006E+03  0.00000000000E+00 0.  1.
         21   -1    0    0  501  502 -0.00000000000E+00 -0.00000000000E+00 -0.19052661431E+02  0.19052661431E+02  0.00000000000E+00 0. -1.
         21    1    1    2  503  504  0.27033080938E+02 -0.26517260297E+02  0.75698513104E+02  0.84641700390E+02  0.00000000000E+00 0.  1.
         21    1    1    2  504  502 -0.27033080938E+02  0.26517260297E+02  0.10004795529E+02  0.39166931106E+02  0.00000000000E+00 0. -1.
<mgrwt>
<rscale>  2 0.37867566E+02</rscale>
<asrwt>0</asrwt>
<pdfrwt beam="1">  1       21 0.16116303E-01 0.37867566E+02</pdfrwt>
<pdfrwt beam="2">  1       21 0.29311787E-02 0.37867566E+02</pdfrwt>
<totfact> 0.18986136E+07</totfact>
</mgrwt>
</event>
<event>
 4    1  0.4578942E+006  0.2303810E+02  0.7546771E-02  0.1690893E+00
         21   -1    0    0  504  501  0.00000000000E+00  0.00000000000E+00  0.21898695627E+02  0.21898695627E+02  0.00000000000E+00 0.  1.
         21   -1    0    0  503  502 -0.00000000000E+00 -0.00000000000E+00 -0.15256499578E+03  0.15256499578E+03  0.00000000000E+00 0.  1.
         21    1    1    2  503  501  0.22892031701E+02 -0.25901246284E+01 -0.14533659529E+03  0.14715121404E+03  0.00000000000E+00 0.  1.
         21    1    1    2  504  502 -0.22892031701E+02  0.25901246284E+01  0.14670295136E+02  0.27312477375E+02  0.00000000000E+00 0.  1.
<mgrwt>
<rscale>  2 0.23038096E+02</rscale>
<asrwt>0</asrwt>
<pdfrwt beam="1">  1       21 0.33690302E-02 0.23038096E+02</pdfrwt>
<pdfrwt beam="2">  1       21 0.23471537E-01 0.23038096E+02</pdfrwt>
<totfact> 0.72417936E+06</totfact>
</mgrwt>
</event>
<event>
 4    1  0.4578942E+006  0.2158475E+02  0.7546771E-02  0.1715534E+00
         21   -1    0    0  503  501  0.00000000000E+00  0.00000000000E+00  0.95320120900E+03  0.95320120900E+03  0.00000000000E+00 0. -1.
         21   -1    0    0  504  502 -0.00000000000E+00 -0.00000000000E+00 -0.24645465252E+01  0.24645465252E+01  0.00000000000E+00 0. -1.
         21    1    1    2  503  502  0.10497235229E+02 -0.18860264572E+02  0.47533824806E+02  0.52205038338E+02  0.00000000000E+00 0. -1.
         21    1    1    2  504  501 -0.10497235229E+02  0.18860264572E+02  0.90320283767E+03  0.90346071719E+03  0.00000000000E+00 0. -1.
<mgrwt>
<rscale>  2 0.21584752E+02</rscale>
<asrwt>0</asrwt>
<pdfrwt beam="1">  1       21 0.14664605E+00 0.21584752E+02</pdfrwt>
<pdfrwt beam="2">  1       21 0.37916176E-03 0.21584752E+02</pdfrwt>
<totfact> 0.48280153E+06</totfact>
</mgrwt>
</event>
<event>
 4    1  0.4578942E+006  0.3391719E+02  0.7546771E-02  0.1558432E+00
         21   -1    0    0  502  501  0.00000000000E+00  0.00000000000E+00  0.20529625397E+02  0.20529625397E+02  0.00000000000E+00 0. -1.
         21   -1    0    0  504  502 -0.00000000000E+00 -0.00000000000E+00 -0.45927142052E+03  0.45927142052E+03  0.00000000000E+00 0.  1.
         21    1    1    2  503  501  0.15342643216E+02  0.30248622283E+02  0.54188007370E+01  0.34347332535E+02  0.00000000000E+00 0. -1.
         21    1    1    2  504  503 -0.15342643216E+02 -0.30248622283E+02 -0.44416059586E+03  0.44545371338E+03  0.00000000000E+00 0.  1.
<mgrwt>
<rscale>  2 0.33917191E+02</rscale>
<asrwt>0</asrwt>
<pdfrwt beam="1">  1       21 0.31584039E-02 0.33917191E+02</pdfrwt>
<pdfrwt beam="2">  1       21 0.70657142E-01 0.33917191E+02</pdfrwt>
<totfact> 0.10189409E+06</totfact>
</mgrwt>
</event>
<event>
 4    1  0.4578942E+006  0.2547842E+02  0.7546771E-02  0.1654224E+00
         21   -1    0    0  503  501  0.00000000000E+00  0.00000000000E+00  0.14563428927E+03  0.14563428927E+03  0.00000000000E+00 0.  1.
         21   -1    0    0  504  502 -0.00000000000E+00 -0.00000000000E+00 -0.76654494705E+01  0.76654494705E+01  0.00000000000E+00 0.  1.
         21    1    1    2  503  502 -0.22513650289E+02  0.11928346520E+02  0.11857090354E+03  0.12127740542E+03  0.00000000000E+00 0.  1.
         21    1    1    2  504  501  0.22513650289E+02 -0.11928346520E+02  0.19397936264E+02  0.32022333321E+02  0.00000000000E+00 0.  1.
<mgrwt>
<rscale>  2 0.25478420E+02</rscale>
<asrwt>0</asrwt>
<pdfrwt beam="1">  1       21 0.22405273E-01 0.25478420E+02</pdfrwt>
<pdfrwt beam="2">  1       21 0.11793000E-02 0.25478420E+02</pdfrwt>
<totfact> 0.40325785E+07</totfact>
</mgrwt>
</event>
<event>
 4    1  0.4578942E+006  0.3387405E+02  0.7546771E-02  0.1558833E+00
         21   -1    0    0  503  501  0.00000000000E+00  0.00000000000E+00  0.27051948027E+02  0.27051948027E+02  0.00000000000E+00 0. -1.
         21   -1    0    0  501  502 -0.00000000000E+00 -0.00000000000E+00 -0.10516058756E+03  0.10516058756E+03  0.00000000000E+00 0. -1.
         21    1    1    2  503  504  0.27194442345E+02  0.20196869833E+02  0.12008200638E+02  0.35939506508E+02  0.00000000000E+00 0. -1.
         21    1    1    2  504  502 -0.27194442345E+02 -0.20196869833E+02 -0.90116840173E+02  0.96273029080E+02  0.00000000000E+00 0. -1.
<mgrwt>
<rscale>  2 0.33874050E+02</rscale>
<asrwt>0</asrwt>
<pdfrwt beam="1">  1       21 0.41618381E-02 0.33874050E+02</pdfrwt>
<pdfrwt beam="2">  1       21 0.16178552E-01 0.33874050E+02</pdfrwt>
<totfact> 0.10605792E+07</totfact>
</mgrwt>
</event>
<event>
 4    1  0.4578942E+006  0.2467242E+02  0.7546771E-02  0.1665752E+00
         21   -1    0    0  504  501  0.00000000000E+00  0.00000000000E+00  0.28446502311E+01  0.28446502311E+01  0.00000000000E+00 0.  1.
         21   -1    0    0  503  502 -0.00000000000E+00 -0.00000000000E+00 -0.24006829765E+03  0.24006829765E+03  0.00000000000E+00 0.  1.
         21    1    1    2  503  501 -0.21047080734E+02  0.12874343955E+02 -0.15864205415E+03  0.16054915037E+03  0.00000000000E+00 0.  1.
         21    1    1    2  504  502  0.21047080734E+02 -0.12874343955E+02 -0.78581593264E+02  0.82363797506E+02  0.00000000000E+00 0.  1.
<mgrwt>
<rscale>  2 0.24672421E+02</rscale>
<asrwt>0</asrwt>
<pdfrwt beam="1">  1       21 0.43763847E-03 0.24672421E+02</pdfrwt>
<pdfrwt beam="2">  1       21 0.36933587E-01 0.24672421E+02</pdfrwt>
<totfact> 0.70884401E+07</totfact>
</mgrwt>
</event>
<event>
 4    1  0.4578942E+006  0.3187752E+02  0.7546771E-02  0.1578217E+00
         21   -1    0    0  504  501  0.00000000000E+00  0.00000000000E+00  0.32897394398E+02  0.32897394398E+02  0.00000000000E+00 0.  1.
         21   -1    0    0  503  502 -0.00000000000E+00 -0.00000000000E+00 -0.43751970973E+02  0.43751970973E+02  0.00000000000E+00 0. -1.
         21    1    1    2  503  501 -0.31800124895E+02 -0.22199476662E+01  0.15352735572E+02  0.35381953034E+02  0.00000000000E+00 0.  1.
         21    1    1    2  504  502  0.31800124895E+02  0.22199476662E+01 -0.26207312147E+02  0.41267412336E+02  0.00000000000E+00 0. -1.
<mgrwt>
<rscale>  2 0.31877517E+02</rscale>
<asrwt>0</asrwt>
<pdfrwt beam="1">  1       21 0.50611376E-02 0.31877517E+02</pdfrwt>
<pdfrwt beam="2">  1       21 0.67310725E-02 0.31877517E+02</pdfrwt>
<totfact> 0.33552305E+07</totfact>
</mgrwt>
</event>
<event>
 4    1  0.4578942E+006  0.2324124E+02  0.7546771E-02  0.1687629E+00
         21   -1    0    0  504  501  0.00000000000E+00  0.00000000000E+00  0.23038478446E+02  0.23038478446E+02  0.00000000000E+00 0. -1.
         21   -1    0    0  503  502 -0.00000000000E+00 -0.00000000000E+00 -0.29776010700E+02  0.29776010700E+02  0.00000000000E+00 0. -1.
         21    1    1    2  503  501 -0.16593110821E+02 -0.16273411471E+02  0.88070863267E+01  0.24853973871E+02  0.00000000000E+00 0. -1.
         21    1    1    2  504  502  0.16593110821E+02  0.16273411471E+02 -0.15544618581E+02  0.27960515275E+02  0.00000000000E+00 0. -1.
<mgrwt>
<rscale>  2 0.23241240E+02</rscale>
<asrwt>0</asrwt>
<pdfrwt beam="1">  1       21 0.35443813E-02 0.23241240E+02</pdfrwt>
<pdfrwt beam="2">  1       21 0.45809247E-02 0.23241240E+02</pdfrwt>
<totfact> 0.10181450E+08</totfact>
</mgrwt>
</event>
<event>
 4    1  0.4578942E+006  0.2268621E+02  0.7546771E-02  0.1696648E+00
         21   -1    0    0  503  501  0.00000000000E+00  0.00000000000E+00  0.39278691103E+03  0.39278691103E+03  0.00000000000E+00 0.  1.
         21   -1    0    0  504  502 -0.00000000000E+00 -0.00000000000E+00 -0.31362756354E+01  0.31362756354E+01  0.00000000000E+00 0.  1.
         21    1    1    2  503  502  0.18359585770E+02  0.13326285299E+02  0.43774647715E+02  0.49303996310E+02  0.00000000000E+00 0.  1.
         21    1    1    2  504  501 -0.18359585770E+02 -0.13326285299E+02  0.34587598768E+03  0.34661919036E+03  0.00000000000E+00 0.  1.
<mgrwt>
<rscale>  2 0.22686213E+02</rscale>
<asrwt>0</asrwt>
<pdfrwt beam="1">  1       21 0.60428717E-01 0.22686213E+02</pdfrwt>
<pdfrwt beam="2">  1       21 0.48250426E-03 0.22686213E+02</pdfrwt>
<totfact> 0.23267936E+07</totfact>
</mgrwt>
</event>
<event>
 4    1  0.4578942E+006  0.2951737E+02  0.7546771E-02  0.1603486E+00
         21   -1    0    0  504  501  0.00000000000E+00  0.00000000000E+00  0.21853710742E+01  0.21853710742E+01  0.00000000000E+00 0. -1.
         21   -1    0    0  503  502 -0.00000000000E+00 -0.00000000000E+00 -0.41896123439E+03  0.41896123439E+03  0.00000000000E+00 0. -1.
         21    1    1    2  503  501 -0.17688440022E+02  0.23630362335E+02 -0.16206364634E+03  0.16472977994E+03  0.00000000000E+00 0. -1.
         21    1    1    2  504  502  0.17688440022E+02 -0.23630362335E+02 -0.25471221698E+03  0.25641682553E+03  0.00000000000E+00 0. -1.
<mgrwt>
<rscale>  2 0.29517367E+02</rscale>
<asrwt>0</asrwt>
<pdfrwt beam="1">  1       21 0.33621097E-03 0.29517367E+02</pdfrwt>
<pdfrwt beam="2">  1       21 0.64455567E-01 0.29517367E+02</pdfrwt>
<totfact> 0.36629220E+07</totfact>
</mgrwt>
</event>
<event>
 4    1  0.4578942E+006  0.2730693E+02  0.7546771E-02  0.1629919E+00
         21   -1    0    0  502  501  0.00000000000E+00  0.00000000000E+00  0.13867996681E+04  0.13867996681E+04  0.00000000000E+00 0. -1.
         21   -1    0    0  504  502 -0.00000000000E+00 -0.00000000000E+00 -0.11878576844E+01  0.11878576844E+01  0.00000000000E+00 0. -1.
         21    1    1    2  503  501 -0.25898864686E+02  0.86554751786E+01  0.12062415554E+04  0.12065506033E+04  0.00000000000E+00 0. -1.
         21    1    1    2  504  503  0.25898864686E+02 -0.86554751786E+01  0.17937025510E+03  0.18143692253E+03  0.00000000000E+00 0. -1.
<mgrwt>
<rscale>  2 0.27306930E+02</rscale>
<asrwt>0</asrwt>
<pdfrwt beam="1">  1       21 0.21335250E+00 0.27306930E+02</pdfrwt>
<pdfrwt beam="2">  1       21 0.18274845E-03 0.27306930E+02</pdfrwt>
<totfact> 0.56168580E+06</totfact>
</mgrwt>
</event>
<event>
 4    1  0.4578942E+006  0.2118728E+02  0.7546771E-02  0.1722699E+00
         21   -1    0    0  502  501  0.00000000000E+00  0.00000000000E+00  0.16269530397E+01  0.16269530397E+01  0.00000000000E+00 0.  1.
         21   -1    0    0  504  502 -0.00000000000E+00 -0.00000000000E+00 -0.29755493013E+03  0.29755493013E+03  0.00000000000E+00 0.  1.
         21    1    1    2  503  501  0.89432483695E+01  0.19207267287E+02 -0.10762274539E+03  0.10968845032E+03  0.00000000000E+00 0.  1.
         21    1    1    2  504  503 -0.89432483695E+01 -0.19207267287E+02 -0.18830523171E+03  0.18949343286E+03  0.00000000000E+00 0.  1.
<mgrwt>
<rscale>  2 0.21187279E+02</rscale>
<asrwt>0</asrwt>
<pdfrwt beam="1">  1       21 0.25030013E-03 0.21187279E+02</pdfrwt>
<pdfrwt beam="2">  1       21 0.45777744E-01 0.21187279E+02</pdfrwt>
<totfact> 0.10268482E+08</totfact>
</mgrwt>
</event>
<event>
 4    1  0.4578942E+006  0.2432960E+02  0.7546771E-02  0.1670822E+00
         21   -1    0    0  502  501  0.00000000000E+00  0.00000000000E+00  0.25549000641E+02  0.25549000641E+02  0.00000000000E+00 0. -1.
         21   -1    0    0  504  502 -0.00000000000E+00 -0.00000000000E+00 -0.72216343858E+02  0.72216343858E+02  0.00000000000E+00 0.  1.
         21    1    1    2  503  501  0.95245848231E+01 -0.22387761405E+02  0.16951718589E+02  0.29652830218E+02  0.00000000000E+00 0. -1.
         21    1    1    2  504  503 -0.95245848231E+01  0.22387761405E+02 -0.63619061806E+02  0.68112514282E+02  0.00000000000E+00 0.  1.
<mgrwt>
<rscale>  2 0.24329603E+02</rscale>
<asrwt>0</asrwt>
<pdfrwt beam="1">  1       21 0.39306155E-02 0.24329603E+02</pdfrwt>
<pdfrwt beam="2">  1       21 0.11110207E-01 0.24329603E+02</pdfrwt>
<totfact> 0.20751163E+07</totfact>
</mgrwt>
</event>
<event>
 4    1  0.4578942E+006  0.2075082E+02  0.7546771E-02  0.1730797E+00
         21   -1    0    0  504  501  0.00000000000E+00  0.00000000000E+00  0.34995250781E+02  0.34995250781E+02  0.00000000000E+00 0.  1.
         21   -1    0    0  503  502 -0.00000000000E+00 -0.00000000000E+00 -0.16752947947E+02  0.16752947947E+02  0.00000000000E+00 0.  1.
         21    1    1    2  503  501  0.16606481662E+02  0.12442712651E+02  0.22454145590E+02  0.30574253637E+02  0.00000000000E+00 0.  1.
         21    1    1    2  504  502 -0.16606481662E+02 -0.12442712651E+02 -0.42118427565E+01  0.21173945091E+02  0.00000000000E+00 0.  1.
<mgrwt>
<rscale>  2 0.20750815E+02</rscale>
<asrwt>0</asrwt>
<pdfrwt beam="1">  1       21 0.53838847E-02 0.20750815E+02</pdfrwt>
<pdfrwt beam="2">  1       21 0.25773766E-02 0.20750815E+02</pdfrwt>
<totfact> 0.12501841E+08</totfact>
</mgrwt>
</event>
<event>
 4    1  0.4578942E+006  0.2756763E+02  0.7546771E-02  0.1626644E+00
         21   -1    0    0  503  501  0.00000000000E+00  0.00000000000E+00  0.37076591537E+02  0.37076591537E+02  0.00000000000E+00 0.  1.
         21   -1    0    0  504  502 -0.00000000000E+00 -0.00000000000E+00 -0.23898999609E+02  0.23898999609E+02  0.00000000000E+00 0.  1.
         21    1    1    2  503  502 -0.23998955985E+02 -0.13565566078E+02  0.18090878459E+02  0.32973540223E+02  0.00000000000E+00 0.  1.
         21    1    1    2  504  501  0.23998955985E+02  0.13565566078E+02 -0.49132865309E+01  0.28002050923E+02  0.00000000000E+00 0.  1.
<mgrwt>
<rscale>  2 0.27567634E+02</rscale>
<asrwt>0</asrwt>
<pdfrwt beam="1">  1       21 0.57040910E-02 0.27567634E+02</pdfrwt>
<pdfrwt beam="2">  1       21 0.36767692E-02 0.27567634E+02</pdfrwt>
<totfact> 0.70797411E+07</totfact>
</mgrwt>
</event>
<event>
 4    1  0.4578942E+006  0.5579007E+02  0.7546771E-02  0.1416399E+00
         21   -1    0    0  503  501  0.00000000000E+00  0.00000000000E+00  0.44708032586E+03  0.44708032586E+03  0.00000000000E+00 0.  1.
         21   -1    0    0  504  502 -0.00000000000E+00 -0.00000000000E+00 -0.32977495873E+02  0.32977495873E+02  0.00000000000E+00 0.  1.
         21    1    1    2  503  502  0.40776998422E+02  0.38075826451E+02  0.42024372633E+03  0.42393079822E+03  0.00000000000E+00 0.  1.
         21    1    1    2  504  501 -0.40776998422E+02 -0.38075826451E+02 -0.61408963444E+01  0.56127023511E+02  0.00000000000E+00 0.  1.
<mgrwt>
<rscale>  2 0.55790072E+02</rscale>
<asrwt>0</asrwt>
<pdfrwt beam="1">  1       21 0.68781584E-01 0.55790072E+02</pdfrwt>
<pdfrwt beam="2">  1       21 0.50734612E-02 0.55790072E+02</pdfrwt>
<totfact> 0.51098206E+05</totfact>
</mgrwt>
</event>
<event>
 4    1  0.4578942E+006  0.2493087E+02  0.7546771E-02  0.1661997E+00
         21   -1    0    0  504  501  0.00000000000E+00  0.00000000000E+00  0.22091020435E+02  0.22091020435E+02  0.00000000000E+00 0.  1.
         21   -1    0    0  503  502 -0.00000000000E+00 -0.00000000000E+00 -0.35804177300E+02  0.35804177300E+02  0.00000000000E+00 0.  1.
         21    1    1    2  503  501  0.62441364252E+01  0.24136263107E+02  0.65401130575E+01  0.25774435305E+02  0.00000000000E+00 0.  1.
         21    1    1    2  504  502 -0.62441364252E+01 -0.24136263107E+02 -0.20253269922E+02  0.32120762429E+02  0.00000000000E+00 0.  1.
<mgrwt>
<rscale>  2 0.24930873E+02</rscale>
<asrwt>0</asrwt>
<pdfrwt beam="1">  1       21 0.33986185E-02 0.24930873E+02</pdfrwt>
<pdfrwt beam="2">  1       21 0.55083350E-02 0.24930873E+02</pdfrwt>
<totfact> 0.82634867E+07</totfact>
</mgrwt>
</event>
<event>
 4    1  0.4578942E+006  0.2385760E+02  0.7546771E-02  0.1677974E+00
         21   -1    0    0  504  501  0.00000000000E+00  0.00000000000E+00  0.11748938129E+04  0.11748938129E+04  0.00000000000E+00 0.  1.
         21   -1    0    0  503  502 -0.00000000000E+00 -0.00000000000E+00 -0.21553282426E+02  0.21553282426E+02  0.00000000000E+00 0.  1.
         21    1    1    2  503  501 -0.10083566513E+02  0.21621905365E+02 -0.14791888232E+02  0.28071071634E+02  0.00000000000E+00 0.  1.
         21    1    1    2  504  502  0.10083566513E+02 -0.21621905365E+02  0.11681324187E+04  0.11683760237E+04  0.00000000000E+00 0.  1.
<mgrwt>
<rscale>  2 0.23857601E+02</rscale>
<asrwt>0</asrwt>
<pdfrwt beam="1">  1       21 0.18075284E+00 0.23857601E+02</pdfrwt>
<pdfrwt beam="2">  1       21 0.33158905E-02 0.23857601E+02</pdfrwt>
<totfact> 0.11105554E+05</totfact>
</mgrwt>
</event>
<event>
 4    1  0.4578942E+006  0.3780340E+02  0.7546771E-02  0.1525028E+00
         21   -1    0    0  503  501  0.00000000000E+00  0.00000000000E+00  0.73210321462E+03  0.73210321462E+03  0.00000000000E+00 0.  1.
         21   -1    0    0  501  502 -0.00000000000E+00 -0.00000000000E+00 -0.82340164723E+01  0.82340164723E+01  0.00000000000E+00 0.  1.
         21    1    1    2  503  504 -0.24968770947E+02  0.28384105146E+02  0.68526145442E+03  0.68630340073E+03  0.00000000000E+00 0.  1.
         21    1    1    2  504  502  0.24968770947E+02 -0.28384105146E+02  0.38607743736E+02  0.54033830365E+02  0.00000000000E+00 0.  1.
<mgrwt>
<rscale>  2 0.37803399E+02</rscale>
<asrwt>0</asrwt>
<pdfrwt beam="1">  1       21 0.11263121E+00 0.37803399E+02</pdfrwt>
<pdfrwt beam="2">  1       21 0.12667723E-02 0.37803399E+02</pdfrwt>
<totfact> 0.15387614E+06</totfact>
</mgrwt>
</event>
<event>
 4    1  0.4578942E+006  0.2694660E+02  0.7546771E-02  0.1634520E+00
         21   -1    0    0  504  501  0.00000000000E+00  0.00000000000E+00  0.36661248778E+02  0.36661248778E+02  0.00000000000E+00 0. -1.
         21   -1    0    0  503  502 -0.00000000000E+00 -0.00000000000E+00 -0.62065729015E+02  0.62065729015E+02  0.00000000000E+00 0. -1.
         21    1    1    2  503  501  0.22612416247E+02  0.14655986748E+02 -0.53434859803E+02  0.59844829001E+02  0.00000000000E+00 0. -1.
         21    1    1    2  504  502 -0.22612416247E+02 -0.14655986748E+02  0.28030379565E+02  0.38882148791E+02  0.00000000000E+00 0. -1.
<mgrwt>
<rscale>  2 0.26946601E+02</rscale>
<asrwt>0</asrwt>
<pdfrwt beam="1">  1       21 0.56401922E-02 0.26946601E+02</pdfrwt>
<pdfrwt beam="2">  1       21 0.95485736E-02 0.26946601E+02</pdfrwt>
<totfact> 0.15322678E+07</totfact>
</mgrwt>
</event>
<event>
 4    1  0.4578942E+006  0.2284913E+02  0.7546771E-02  0.1693967E+00
         21   -1    0    0  503  501  0.00000000000E+00  0.00000000000E+00  0.21904269101E+01  0.21904269101E+01  0.00000000000E+00 0.  1.
         21   -1    0    0  504  502 -0.00000000000E+00 -0.00000000000E+00 -0.29574940116E+03  0.29574940116E+03  0.00000000000E+00 0.  1.
         21    1    1    2  503  502  0.12982386143E+02  0.18802670743E+02 -0.81149885200E+02  0.84305318011E+02  0.00000000000E+00 0.  1.
         21    1    1    2  504  501 -0.12982386143E+02 -0.18802670743E+02 -0.21240908905E+03  0.21363451006E+03  0.00000000000E+00 0.  1.
<mgrwt>
<rscale>  2 0.22849131E+02</rscale>
<asrwt>0</asrwt>
<pdfrwt beam="1">  1       21 0.33698890E-03 0.22849131E+02</pdfrwt>
<pdfrwt beam="2">  1       21 0.45499888E-01 0.22849131E+02</pdfrwt>
<totfact> 0.68754859E+07</totfact>
</mgrwt>
</event>
<event>
 4    1  0.4578942E+006  0.3600950E+02  0.7546771E-02  0.1539814E+00
         21   -1    0    0  504  501  0.00000000000E+00  0.00000000000E+00  0.50115872732E+02  0.50115872732E+02  0.00000000000E+00 0. -1.
         21   -1    0    0  503  502 -0.00000000000E+00 -0.00000000000E+00 -0.26786006511E+02  0.26786006511E+02  0.00000000000E+00 0. -1.
         21    1    1    2  503  501  0.61686029333E+01  0.35477213835E+02  0.45688752141E+01  0.36298195332E+02  0.00000000000E+00 0. -1.
         21    1    1    2  504  502 -0.61686029333E+01 -0.35477213835E+02  0.18760991007E+02  0.40603683912E+02  0.00000000000E+00 0. -1.
<mgrwt>
<rscale>  2 0.36009504E+02</rscale>
<asrwt>0</asrwt>
<pdfrwt beam="1">  1       21 0.77101343E-02 0.36009504E+02</pdfrwt>
<pdfrwt beam="2">  1       21 0.41209241E-02 0.36009504E+02</pdfrwt>
<totfact> 0.38257132E+07</totfact>
</mgrwt>
</event>
<event>
 4    1  0.4578942E+006  0.2025794E+02  0.7546771E-02  0.1740247E+00
         21   -1    0    0  503  501  0.00000000000E+00  0.00000000000E+00  0.14176004582E+03  0.14176004582E+03  0.00000000000E+00 0.  1.
         21   -1    0    0  504  502 -0.00000000000E+00 -0.00000000000E+00 -0.30246146110E+03  0.30246146110E+03  0.00000000000E+00 0. -1.
         21    1    1    2  503  502  0.18712039683E+02 -0.77616813724E+01  0.14069455630E+03  0.14214549693E+03  0.00000000000E+00 0.  1.
         21    1    1    2  504  501 -0.18712039683E+02  0.77616813724E+01 -0.30139597158E+03  0.30207600999E+03  0.00000000000E+00 0. -1.
<mgrwt>
<rscale>  2 0.20257940E+02</rscale>
<asrwt>0</asrwt>
<pdfrwt beam="1">  1       21 0.21809238E-01 0.20257940E+02</pdfrwt>
<pdfrwt beam="2">  1       21 0.46532532E-01 0.20257940E+02</pdfrwt>
<totfact> 0.94907793E+04</totfact>
</mgrwt>
</event>
<event>
 4    1  0.4578942E+006  0.2223106E+02  0.7546771E-02  0.1704286E+00
         21   -1    0    0  504  501  0.00000000000E+00  0.00000000000E+00  0.11068004266E+02  0.11068004266E+02  0.00000000000E+00 0. -1.
         21   -1    0    0  503  502 -0.00000000000E+00 -0.00000000000E+00 -0.59362090930E+02  0.59362090930E+02  0.00000000000E+00 0. -1.
         21    1    1    2  503  501 -0.11596969159E+02  0.18966563097E+02 -0.66176946010E+01  0.23195130765E+02  0.00000000000E+00 0. -1.
         21    1    1    2  504  502  0.11596969159E+02 -0.18966563097E+02 -0.41676392063E+02  0.47234964431E+02  0.00000000000E+00 0. -1.
<mgrwt>
<rscale>  2 0.22231064E+02</rscale>
<asrwt>0</asrwt>
<pdfrwt beam="1">  1       21 0.17027699E-02 0.22231064E+02</pdfrwt>
<pdfrwt beam="2">  1       21 0.91326293E-02 0.22231064E+02</pdfrwt>
<totfact> 0.10257161E+08</totfact>
</mgrwt>
</event>
<event>
 4    1  0.4578942E+006  0.2277687E+02  0.7546771E-02  0.1695153E+00
         21   -1    0    0  503  501  0.00000000000E+00  0.00000000000E+00  0.83613799063E+03  0.83613799063E+03  0.00000000000E+00 0.  1.
         21   -1    0    0  504  502 -0.00000000000E+00 -0.00000000000E+00 -0.18107887837E+01  0.18107887837E+01  0.00000000000E+00 0. -1.
         21    1    1    2  503  502  0.20911302191E+02  0.90279127623E+01  0.77469496930E+02  0.80748428609E+02  0.00000000000E+00 0. -1.
         21    1    1    2  504  501 -0.20911302191E+02 -0.90279127623E+01  0.75685770491E+03  0.75720035080E+03  0.00000000000E+00 0.  1.
<mgrwt>
<rscale>  2 0.22776869E+02</rscale>
<asrwt>0</asrwt>
<pdfrwt beam="1">  1       21 0.12863631E+00 0.22776869E+02</pdfrwt>
<pdfrwt beam="2">  1       21 0.27858356E-03 0.22776869E+02</pdfrwt>
<totfact> 0.10337686E+07</totfact>
</mgrwt>
</event>
<event>
 4    1  0.4578942E+006  0.2923232E+02  0.7546771E-02  0.1606733E+00
         21   -1    0    0  503  501  0.00000000000E+00  0.00000000000E+00  0.15672711488E+03  0.15672711488E+03  0.00000000000E+00 0.  1.
         21   -1    0    0  504  502 -0.00000000000E+00 -0.00000000000E+00 -0.55404976089E+01  0.55404976089E+01  0.00000000000E+00 0.  1.
         21    1    1    2  503  502  0.12659665161E+02  0.26348839083E+02  0.65358629001E+02  0.71598036481E+02  0.00000000000E+00 0.  1.
         21    1    1    2  504  501 -0.12659665161E+02 -0.26348839083E+02  0.85827988273E+02  0.90669576011E+02  0.00000000000E+00 0.  1.
<mgrwt>
<rscale>  2 0.29232318E+02</rscale>
<asrwt>0</asrwt>
<pdfrwt beam="1">  1       21 0.24111860E-01 0.29232318E+02</pdfrwt>
<pdfrwt beam="2">  1       21 0.85238437E-03 0.29232318E+02</pdfrwt>
<totfact> 0.59596976E+07</totfact>
</mgrwt>
</event>
<event>
 4    1  0.4578942E+006  0.2354016E+02  0.7546771E-02  0.1682901E+00
         21   -1    0    0  502  501  0.00000000000E+00  0.00000000000E+00  0.37630107010E+02  0.37630107010E+02  0.00000000000E+00 0.  1.
         21   -1    0    0  503  502 -0.00000000000E+00 -0.00000000000E+00 -0.50165836473E+02  0.50165836473E+02  0.00000000000E+00 0.  1.
         21    1    1    2  503  504 -0.21248837823E+02 -0.10130445277E+02 -0.43164485604E+02  0.49166165681E+02  0.00000000000E+00 0.  1.
         21    1    1    2  504  501  0.21248837823E+02  0.10130445277E+02  0.30628756140E+02  0.38629777802E+02  0.00000000000E+00 0.  1.
<mgrwt>
<rscale>  2 0.23540158E+02</rscale>
<asrwt>0</asrwt>
<pdfrwt beam="1">  1       21 0.57892472E-02 0.23540158E+02</pdfrwt>
<pdfrwt beam="2">  1       21 0.77178210E-02 0.23540158E+02</pdfrwt>
<totfact> 0.20286830E+07</totfact>
</mgrwt>
</event>
<event>
 4    1  0.4578942E+006  0.2406376E+02  0.7546771E-02  0.1674825E+00
         21   -1    0    0  504  501  0.00000000000E+00  0.00000000000E+00  0.10518744196E+03  0.10518744196E+03  0.00000000000E+00 0. -1.
         21   -1    0    0  503  502 -0.00000000000E+00 -0.00000000000E+00 -0.58086554015E+01  0.58086554015E+01  0.00000000000E+00 0. -1.
         21    1    1    2  503  501  0.66665676324E+00 -0.24054520024E+02  0.62376992165E+02  0.66857710971E+02  0.00000000000E+00 0. -1.
         21    1    1    2  504  502 -0.66665676324E+00  0.24054520024E+02  0.37001794397E+02  0.44138386393E+02  0.00000000000E+00 0. -1.
<mgrwt>
<rscale>  2 0.24063756E+02</rscale>
<asrwt>0</asrwt>
<pdfrwt beam="1">  1       21 0.16182682E-01 0.24063756E+02</pdfrwt>
<pdfrwt beam="2">  1       21 0.89363937E-03 0.24063756E+02</pdfrwt>
<totfact> 0.10647894E+08</totfact>
</mgrwt>
</event>
<event>
 4    1  0.4578942E+006  0.2105354E+02  0.7546771E-02  0.1725154E+00
         21   -1    0    0  504  501  0.00000000000E+00  0.00000000000E+00  0.13280866027E+03  0.13280866027E+03  0.00000000000E+00 0.  1.
         21   -1    0    0  503  502 -0.00000000000E+00 -0.00000000000E+00 -0.12968491649E+03  0.12968491649E+03  0.00000000000E+00 0.  1.
         21    1    1    2  503  501 -0.21035915277E+02  0.86119668568E+00 -0.12798505123E+03  0.12970514535E+03  0.00000000000E+00 0.  1.
         21    1    1    2  504  502  0.21035915277E+02 -0.86119668568E+00  0.13110879501E+03  0.13278843142E+03  0.00000000000E+00 0.  1.
<mgrwt>
<rscale>  2 0.21053536E+02</rscale>
<asrwt>0</asrwt>
<pdfrwt beam="1">  1       21 0.20432102E-01 0.21053536E+02</pdfrwt>
<pdfrwt beam="2">  1       21 0.19951525E-01 0.21053536E+02</pdfrwt>
<totfact> 0.49623303E+05</totfact>
</mgrwt>
</event>
<event>
 4    1  0.4578942E+006  0.2587809E+02  0.7546771E-02  0.1648701E+00
         21   -1    0    0  504  501  0.00000000000E+00  0.00000000000E+00  0.51040976533E+00  0.51040976533E+00  0.00000000000E+00 0. -1.
         21   -1    0    0  503  502 -0.00000000000E+00 -0.00000000000E+00 -0.13376639085E+04  0.13376639085E+04  0.00000000000E+00 0. -1.
         21    1    1    2  503  501 -0.25754328042E+02  0.25279171382E+01 -0.57596432761E+03  0.57654538630E+03  0.00000000000E+00 0. -1.
         21    1    1    2  504  502  0.25754328042E+02 -0.25279171382E+01 -0.76118917114E+03  0.76162893198E+03  0.00000000000E+00 0. -1.
<mgrwt>
<rscale>  2 0.25878095E+02</rscale>
<asrwt>0</asrwt>
<pdfrwt beam="1">  1       21 0.78524694E-04 0.25878095E+02</pdfrwt>
<pdfrwt beam="2">  1       21 0.20579415E+00 0.25878095E+02</pdfrwt>
<totfact> 0.20669274E+07</totfact>
</mgrwt>
</event>
<event>
 4    1  0.4578942E+006  0.2164563E+02  0.7546771E-02  0.1714454E+00
         21   -1    0    0  503  501  0.00000000000E+00  0.00000000000E+00  0.20544121399E+03  0.20544121399E+03  0.00000000000E+00 0. -1.
         21   -1    0    0  504  502 -0.00000000000E+00 -0.00000000000E+00 -0.13551797752E+02  0.13551797752E+02  0.00000000000E+00 0. -1.
         21    1    1    2  503  502 -0.19487570780E+02  0.94216714860E+01  0.19580353446E+03  0.19699633859E+03  0.00000000000E+00 0. -1.
         21    1    1    2  504  501  0.19487570780E+02 -0.94216714860E+01 -0.39141182234E+01  0.21996673157E+02  0.00000000000E+00 0. -1.
<mgrwt>
<rscale>  2 0.21645630E+02</rscale>
<asrwt>0</asrwt>
<pdfrwt beam="1">  1       21 0.31606338E-01 0.21645630E+02</pdfrwt>
<pdfrwt beam="2">  1       21 0.20848921E-02 0.21645630E+02</pdfrwt>
<totfact> 0.88173608E+06</totfact>
</mgrwt>
</event>
<event>
 4    1  0.4578942E+006  0.2051020E+02  0.7546771E-02  0.1735368E+00
         21   -1    0    0  502  501  0.00000000000E+00  0.00000000000E+00  0.77275585542E+01  0.77275585542E+01  0.00000000000E+00 0.  1.
         21   -1    0    0  503  502 -0.00000000000E+00 -0.00000000000E+00 -0.28007112099E+03  0.28007112099E+03  0.00000000000E+00 0.  1.
         21    1    1    2  503  504 -0.46114086048E+01  0.19985075688E+02 -0.26533136041E+03  0.26612290235E+03  0.00000000000E+00 0.  1.
         21    1    1    2  504  501  0.46114086048E+01 -0.19985075688E+02 -0.70122020243E+01  0.21675777190E+02  0.00000000000E+00 0.  1.
<mgrwt>
<rscale>  2 0.20510201E+02</rscale>
<asrwt>0</asrwt>
<pdfrwt beam="1">  1       21 0.11888553E-02 0.20510201E+02</pdfrwt>
<pdfrwt beam="2">  1       21 0.43087858E-01 0.20510201E+02</pdfrwt>
<totfact> 0.11509727E+07</totfact>
</mgrwt>
</event>
<event>
 4    1  0.4578942E+006  0.2206525E+02  0.7546771E-02  0.1707126E+00
         21   -1    0    0  504  501  0.00000000000E+00  0.00000000000E+00  0.46611898703E+01  0.46611898703E+01  0.00000000000E+00 0. -1.
         21   -1    0    0  503  502 -0.00000000000E+00 -0.00000000000E+00 -0.10761497359E+03  0.10761497359E+03  0.00000000000E+00 0.  1.
         21    1    1    2  503  501  0.22054643928E+02  0.68396327636E+00 -0.41854070737E+02  0.47314251149E+02  0.00000000000E+00 0.  1.
         21    1    1    2  504  502 -0.22054643928E+02 -0.68396327636E+00 -0.61099712983E+02  0.64961912312E+02  0.00000000000E+00 0. -1.
<mgrwt>
<rscale>  2 0.22065247E+02</rscale>
<asrwt>0</asrwt>
<pdfrwt beam="1">  1       21 0.71710616E-03 0.22065247E+02</pdfrwt>
<pdfrwt beam="2">  1       21 0.16556149E-01 0.22065247E+02</pdfrwt>
<totfact> 0.13873684E+08</totfact>
</mgrwt>
</event>
<event>
 4    1  0.4578942E+006  0.2190319E+02  0.7546771E-02  0.1709932E+00
         21   -1    0    0  504  501  0.00000000000E+00  0.00000000000E+00  0.24104121186E+02  0.24104121186E+02  0.00000000000E+00 0.  1.
         21   -1    0    0  503  502 -0.00000000000E+00 -0.00000000000E+00 -0.22069497598E+03  0.22069497598E+03  0.00000000000E+00 0. -1.
         21    1    1    2  503  501  0.97958816166E+01  0.19590575446E+02  0.18454472651E+02  0.28641185447E+02  0.00000000000E+00 0.  1.
         21    1    1    2  504  502 -0.97958816166E+01 -0.19590575446E+02 -0.21504532744E+03  0.21615791172E+03  0.00000000000E+00 0. -1.
<mgrwt>
<rscale>  2 0.21903195E+02</rscale>
<asrwt>0</asrwt>
<pdfrwt beam="1">  1       21 0.37083265E-02 0.21903195E+02</pdfrwt>
<pdfrwt beam="2">  1       21 0.33953072E-01 0.21903195E+02</pdfrwt>
<totfact> 0.31738588E+06</totfact>
</mgrwt>
</event>
<event>
 4    1  0.4578942E+006  0.2387699E+02  0.7546771E-02  0.1677676E+00
         21   -1    0    0  502  501  0.00000000000E+00  0.00000000000E+00  0.16703048239E+02  0.16703048239E+02  0.00000000000E+00 0.  1.
         21   -1    0    0  503  502 -0.00000000000E+00 -0.00000000000E+00 -0.43974578303E+02  0.43974578303E+02  0.00000000000E+00 0.  1.
         21    1    1    2  503  504 -0.21395778247E+02  0.10598640009E+02 -0.27988989376E+02  0.36789863049E+02  0.00000000000E+00 0.  1.
         21    1    1    2  504  501  0.21395778247E+02 -0.10598640009E+02  0.71745931109E+00  0.23887763493E+02  0.00000000000E+00 0.  1.
<mgrwt>
<rscale>  2 0.23876987E+02</rscale>
<asrwt>0</asrwt>
<pdfrwt beam="1">  1       21 0.25696998E-02 0.23876987E+02</pdfrwt>
<pdfrwt beam="2">  1       21 0.67653195E-02 0.23876987E+02</pdfrwt>
<totfact> 0.90702919E+07</totfact>
</mgrwt>
</event>
<event>
 4    1  0.4578942E+006  0.3828723E+02  0.7546771E-02  0.1521208E+00
         21   -1    0    0  502  501  0.00000000000E+00  0.00000000000E+00  0.18789621339E+03  0.18789621339E+03  0.00000000000E+00 0.  1.
         21   -1    0    0  503  502 -0.00000000000E+00 -0.00000000000E+00 -0.14331214778E+02  0.14331214778E+02  0.00000000000E+00 0. -1.
         21    1    1    2  503  504  0.36990710820E+02 -0.98792384406E+01  0.18531559715E+02  0.42536228613E+02  0.00000000000E+00 0. -1.
         21    1    1    2  504  501 -0.36990710820E+02  0.98792384406E+01  0.15503343890E+03  0.15969119956E+03  0.00000000000E+00 0.  1.
<mgrwt>
<rscale>  2 0.38287231E+02</rscale>
<asrwt>0</asrwt>
<pdfrwt beam="1">  1       21 0.28907108E-01 0.38287231E+02</pdfrwt>
<pdfrwt beam="2">  1       21 0.22048024E-02 0.38287231E+02</pdfrwt>
<totfact> 0.10438769E+07</totfact>
</mgrwt>
</event>
<event>
 4    1  0.4578942E+006  0.2489449E+02  0.7546771E-02  0.1662522E+00
         21   -1    0    0  503  501  0.00000000000E+00  0.00000000000E+00  0.62531858404E+02  0.62531858404E+02  0.00000000000E+00 0. -1.
         21   -1    0    0  504  502 -0.00000000000E+00 -0.00000000000E+00 -0.11646663714E+02  0.11646663714E+02  0.00000000000E+00 0. -1.
         21    1    1    2  503  502  0.16587897981E+02 -0.18562798419E+02  0.11123520393E+02  0.27266619711E+02  0.00000000000E+00 0. -1.
         21    1    1    2  504  501 -0.16587897981E+02  0.18562798419E+02  0.39761674297E+02  0.46911902407E+02  0.00000000000E+00 0. -1.
<mgrwt>
<rscale>  2 0.24894494E+02</rscale>
<asrwt>0</asrwt>
<pdfrwt beam="1">  1       21 0.96202857E-02 0.24894494E+02</pdfrwt>
<pdfrwt beam="2">  1       21 0.17917945E-02 0.24894494E+02</pdfrwt>
<totfact> 0.89885701E+07</totfact>
</mgrwt>
</event>
<event>
 4    1  0.4578942E+006  0.3443379E+02  0.7546771E-02  0.1553687E+00
         21   -1    0    0  504  501  0.00000000000E+00  0.00000000000E+00  0.22962064445E+03  0.22962064445E+03  0.00000000000E+00 0.  1.
         21   -1    0    0  503  502 -0.00000000000E+00 -0.00000000000E+00 -0.65735285846E+02  0.65735285846E+02  0.00000000000E+00 0.  1.
         21    1    1    2  503  501  0.28936158616E+02 -0.18665058729E+02 -0.59816436001E+02  0.69019502379E+02  0.00000000000E+00 0.  1.
         21    1    1    2  504  502 -0.28936158616E+02  0.18665058729E+02  0.22370179460E+03  0.22633642792E+03  0.00000000000E+00 0.  1.
<mgrwt>
<rscale>  2 0.34433787E+02</rscale>
<asrwt>0</asrwt>
<pdfrwt beam="1">  1       21 0.35326253E-01 0.34433787E+02</pdfrwt>
<pdfrwt beam="2">  1       21 0.10113121E-01 0.34433787E+02</pdfrwt>
<totfact> 0.60488562E+05</totfact>
</mgrwt>
</event>
<event>
 4    1  0.4578942E+006  0.2090489E+02  0.7546771E-02  0.1727910E+00
         21   -1    0    0  503  501  0.00000000000E+00  0.00000000000E+00  0.10408398638E+04  0.10408398638E+04  0.00000000000E+00 0.  1.
         21   -1    0    0  501  502 -0.00000000000E+00 -0.00000000000E+00 -0.70350502545E+00  0.70350502545E+00  0.00000000000E+00 0. -1.
         21    1    1    2  503  504  0.56148203103E+00 -0.20897347951E+02  0.85073902949E+03  0.85099583472E+03  0.00000000000E+00 0.  1.
         21    1    1    2  504  502 -0.56148203103E+00  0.20897347951E+02  0.18939732926E+03  0.19054753408E+03  0.00000000000E+00 0. -1.
<mgrwt>
<rscale>  2 0.20904890E+02</rscale>
<asrwt>0</asrwt>
<pdfrwt beam="1">  1       21 0.16012798E+00 0.20904890E+02</pdfrwt>
<pdfrwt beam="2">  1       21 0.10823238E-03 0.20904890E+02</pdfrwt>
<totfact> 0.23742336E+07</totfact>
</mgrwt>
</event>
<event>
 4    1  0.4578942E+006  0.2273742E+02  0.7546771E-02  0.1695802E+00
         21   -1    0    0  504  501  0.00000000000E+00  0.00000000000E+00  0.41530540316E+03  0.41530540316E+03  0.00000000000E+00 0. -1.
         21   -1    0    0  503  502 -0.00000000000E+00 -0.00000000000E+00 -0.13999255095E+01  0.13999255095E+01  0.00000000000E+00 0. -1.
         21    1    1    2  503  501 -0.13539015797E+02 -0.18267051647E+02  0.13760574081E+03  0.13947161012E+03  0.00000000000E+00 0. -1.
         21    1    1    2  504  502  0.13539015797E+02  0.18267051647E+02  0.27629973684E+03  0.27723371856E+03  0.00000000000E+00 0. -1.
<mgrwt>
<rscale>  2 0.22737417E+02</rscale>
<asrwt>0</asrwt>
<pdfrwt beam="1">  1       21 0.63893041E-01 0.22737417E+02</pdfrwt>
<pdfrwt beam="2">  1       21 0.21537349E-03 0.22737417E+02</pdfrwt>
<totfact> 0.67522150E+07</totfact>
</mgrwt>
</event>
<event>
 4    1  0.4578942E+006  0.2670441E+02  0.7546771E-02  0.1637662E+00
         21   -1    0    0  504  501  0.00000000000E+00  0.00000000000E+00  0.74237535971E+03  0.74237535971E+03  0.00000000000E+00 0. -1.
         21   -1    0    0  501  502 -0.00000000000E+00 -0.00000000000E+00 -0.11862872314E+02  0.11862872314E+02  0.00000000000E+00 0.  1.
         21    1    1    2  503  502 -0.26496081263E+02  0.33291131573E+01  0.37280726072E+01  0.26963379649E+02  0.00000000000E+00 0.  1.
         21    1    1    2  504  503  0.26496081263E+02 -0.33291131573E+01  0.72678441479E+03  0.72727485237E+03  0.00000000000E+00 0. -1.
<mgrwt>
<rscale>  2 0.26704406E+02</rscale>
<asrwt>0</asrwt>
<pdfrwt beam="1">  1       21 0.11421156E+00 0.26704406E+02</pdfrwt>
<pdfrwt beam="2">  1       21 0.18250579E-02 0.26704406E+02</pdfrwt>
<totfact> 0.83312814E+05</totfact>
</mgrwt>
</event>
<event>
 4    1  0.4578942E+006  0.2694469E+02  0.7546771E-02  0.1634545E+00
         21   -1    0    0  503  501  0.00000000000E+00  0.00000000000E+00  0.14679633672E+01  0.14679633672E+01  0.00000000000E+00 0.  1.
         21   -1    0    0  504  502 -0.00000000000E+00 -0.00000000000E+00 -0.53722296797E+03  0.53722296797E+03  0.00000000000E+00 0.  1.
         21    1    1    2  503  502  0.19966216109E+02 -0.18093269379E+02 -0.19198693540E+03  0.19386851097E+03  0.00000000000E+00 0.  1.
         21    1    1    2  504  501 -0.19966216109E+02  0.18093269379E+02 -0.34376806920E+03  0.34482242036E+03  0.00000000000E+00 0.  1.
<mgrwt>
<rscale>  2 0.26944687E+02</rscale>
<asrwt>0</asrwt>
<pdfrwt beam="1">  1       21 0.22584061E-03 0.26944687E+02</pdfrwt>
<pdfrwt beam="2">  1       21 0.82649654E-01 0.26944687E+02</pdfrwt>
<totfact> 0.38384893E+07</totfact>
</mgrwt>
</event>
<event>
 4    1  0.4578942E+006  0.2225285E+02  0.7546771E-02  0.1703915E+00
         21   -1    0    0  502  501  0.00000000000E+00  0.00000000000E+00  0.23320880828E+03  0.23320880828E+03  0.00000000000E+00 0. -1.
         21   -1    0    0  503  502 -0.00000000000E+00 -0.00000000000E+00 -0.11779259091E+02  0.11779259091E+02  0.00000000000E+00 0. -1.
         21    1    1    2  503  504 -0.15810821106E+02  0.15659096500E+02 -0.19045059667E+00  0.22253665736E+02  0.00000000000E+00 0. -1.
         21    1    1    2  504  501  0.15810821106E+02 -0.15659096500E+02  0.22161999978E+03  0.22273440164E+03  0.00000000000E+00 0. -1.
<mgrwt>
<rscale>  2 0.22252851E+02</rscale>
<asrwt>0</asrwt>
<pdfrwt beam="1">  1       21 0.35878275E-01 0.22252851E+02</pdfrwt>
<pdfrwt beam="2">  1       21 0.18121939E-02 0.22252851E+02</pdfrwt>
<totfact> 0.86976968E+06</totfact>
</mgrwt>
</event>
<event>
 4    1  0.4578942E+006  0.2183061E+02  0.7546771E-02  0.1711198E+00
         21   -1    0    0  503  501  0.00000000000E+00  0.00000000000E+00  0.91123941625E+02  0.91123941625E+02  0.00000000000E+00 0. -1.
         21   -1    0    0  504  502 -0.00000000000E+00 -0.00000000000E+00 -0.14041599948E+02  0.14041599948E+02  0.00000000000E+00 0.  1.
         21    1    1    2  503  502  0.15314111485E+02 -0.15558069705E+02 -0.31134588031E+01  0.22051511722E+02  0.00000000000E+00 0.  1.
         21    1    1    2  504  501 -0.15314111485E+02  0.15558069705E+02  0.80195800480E+02  0.83114029851E+02  0.00000000000E+00 0. -1.
<mgrwt>
<rscale>  2 0.21830610E+02</rscale>
<asrwt>0</asrwt>
<pdfrwt beam="1">  1       21 0.14019068E-01 0.21830610E+02</pdfrwt>
<pdfrwt beam="2">  1       21 0.21602462E-02 0.21830610E+02</pdfrwt>
<totfact> 0.34745382E+07</totfact>
</mgrwt>
</event>
<event>
 4    1  0.4578942E+006  0.2635903E+02  0.7546771E-02  0.1642215E+00
         21   -1    0    0  504  501  0.00000000000E+00  0.00000000000E+00  0.39119365137E+03  0.39119365137E+03  0.00000000000E+00 0. -1.
         21   -1    0    0  501  502 -0.00000000000E+00 -0.00000000000E+00 -0.21454047682E+01  0.21454047682E+01  0.00000000000E+00 0.  1.
         21    1    1    2  503  502 -0.19180555799E+02  0.18080513286E+02  0.11292688546E+03  0.11596240831E+03  0.00000000000E+00 0.  1.
         21    1    1    2  504  503  0.19180555799E+02 -0.18080513286E+02  0.27612136114E+03  0.27737664783E+03  0.00000000000E+00 0. -1.
<mgrwt>
<rscale>  2 0.26359034E+02</rscale>
<asrwt>0</asrwt>
<pdfrwt beam="1">  1       21 0.60183582E-01 0.26359034E+02</pdfrwt>
<pdfrwt beam="2">  1       21 0.33006258E-03 0.26359034E+02</pdfrwt>
<totfact> 0.42285675E+07</totfact>
</mgrwt>
</event>
<event>
 4    1  0.4578942E+006  0.4040085E+02  0.7546771E-02  0.1505282E+00
         21   -1    0    0  503  501  0.00000000000E+00  0.00000000000E+00  0.10034702754E+02  0.10034702754E+02  0.00000000000E+00 0. -1.
         21   -1    0    0  501  502 -0.00000000000E+00 -0.00000000000E+00 -0.21382265448E+03  0.21382265448E+03  0.00000000000E+00 0. -1.
         21    1    1    2  503  504  0.36209690828E+02  0.17918897512E+02 -0.47142241060E+02  0.62085581982E+02  0.00000000000E+00 0. -1.
         21    1    1    2  504  502 -0.36209690828E+02 -0.17918897512E+02 -0.15664571067E+03  0.16177177525E+03  0.00000000000E+00 0. -1.
<mgrwt>
<rscale>  2 0.40400849E+02</rscale>
<asrwt>0</asrwt>
<pdfrwt beam="1">  1       21 0.15438005E-02 0.40400849E+02</pdfrwt>
<pdfrwt beam="2">  1       21 0.32895792E-01 0.40400849E+02</pdfrwt>
<totfact> 0.14403215E+07</totfact>
</mgrwt>
</event>
<event>
 4    1  0.4578942E+006  0.3778014E+02  0.7546771E-02  0.1525213E+00
         21   -1    0    0  503  501  0.00000000000E+00  0.00000000000E+00  0.98219878823E+02  0.98219878823E+02  0.00000000000E+00 0. -1.
         21   -1    0    0  501  502 -0.00000000000E+00 -0.00000000000E+00 -0.12000765940E+03  0.12000765940E+03  0.00000000000E+00 0.  1.
         21    1    1    2  503  504 -0.32907045485E+02  0.18559774543E+02  0.91400316835E+02  0.98900742116E+02  0.00000000000E+00 0. -1.
         21    1    1    2  504  502  0.32907045485E+02 -0.18559774543E+02 -0.11318809741E+03  0.11932679610E+03  0.00000000000E+00 0.  1.
<mgrwt>
<rscale>  2 0.37780139E+02</rscale>
<asrwt>0</asrwt>
<pdfrwt beam="1">  1       21 0.15110751E-01 0.37780139E+02</pdfrwt>
<pdfrwt beam="2">  1       21 0.18462717E-01 0.37780139E+02</pdfrwt>
<totfact> 0.99823542E+05</totfact>
</mgrwt>
</event>
<event>
 4    1  0.4578942E+006  0.2318400E+02  0.7546771E-02  0.1688545E+00
         21   -1    0    0  503  501  0.00000000000E+00  0.00000000000E+00  0.21855385772E+01  0.21855385772E+01  0.00000000000E+00 0. -1.
         21   -1    0    0  504  502 -0.00000000000E+00 -0.00000000000E+00 -0.24594744526E+03  0.24594744526E+03  0.00000000000E+00 0. -1.
         21    1    1    2  503  502 -0.18682118811E+02  0.13728664382E+02 -0.12095655798E+03  0.12315838058E+03  0.00000000000E+00 0. -1.
         21    1    1    2  504  501  0.18682118811E+02 -0.13728664382E+02 -0.12280534870E+03  0.12497460326E+03  0.00000000000E+00 0. -1.
<mgrwt>
<rscale>  2 0.23183999E+02</rscale>
<asrwt>0</asrwt>
<pdfrwt beam="1">  1       21 0.33623657E-03 0.23183999E+02</pdfrwt>
<pdfrwt beam="2">  1       21 0.37838084E-01 0.23183999E+02</pdfrwt>
<totfact> 0.98174886E+07</totfact>
</mgrwt>
</event>
<event>
 4    1  0.4578942E+006  0.3012128E+02  0.7546771E-02  0.1596752E+00
         21   -1    0    0  504  501  0.00000000000E+00  0.00000000000E+00  0.24438164716E+02  0.24438164716E+02  0.00000000000E+00 0.  1.
         21   -1    0    0  503  502 -0.00000000000E+00 -0.00000000000E+00 -0.78859060108E+02  0.78859060108E+02  0.00000000000E+00 0.  1.
         21    1    1    2  503  501  0.91985020883E+01 -0.28682385076E+02  0.10362295196E+02  0.31853866580E+02  0.00000000000E+00 0.  1.
         21    1    1    2  504  502 -0.91985020883E+01  0.28682385076E+02 -0.64783190589E+02  0.71443358244E+02  0.00000000000E+00 0.  1.
<mgrwt>
<rscale>  2 0.30121282E+02</rscale>
<asrwt>0</asrwt>
<pdfrwt beam="1">  1       21 0.37597176E-02 0.30121282E+02</pdfrwt>
<pdfrwt beam="2">  1       21 0.12132163E-01 0.30121282E+02</pdfrwt>
<totfact> 0.20038387E+07</totfact>
</mgrwt>
</event>
<event>
 4    1  0.4578942E+006  0.5001634E+02  0.7546771E-02  0.1445253E+00
         21   -1    0    0  504  501  0.00000000000E+00  0.00000000000E+00  0.13305377211E+03  0.13305377211E+03  0.00000000000E+00 0.  1.
         21   -1    0    0  501  502 -0.00000000000E+00 -0.00000000000E+00 -0.22426438568E+02  0.22426438568E+02  0.00000000000E+00 0. -1.
         21    1    1    2  503  502  0.29433908205E+02  0.40438584602E+02  0.24059733679E+02  0.55502296002E+02  0.00000000000E+00 0. -1.
         21    1    1    2  504  503 -0.29433908205E+02 -0.40438584602E+02  0.86567599865E+02  0.99977914677E+02  0.00000000000E+00 0.  1.
<mgrwt>
<rscale>  2 0.50016338E+02</rscale>
<asrwt>0</asrwt>
<pdfrwt beam="1">  1       21 0.20469811E-01 0.50016338E+02</pdfrwt>
<pdfrwt beam="2">  1       21 0.34502214E-02 0.50016338E+02</pdfrwt>
<totfact> 0.99557230E+06</totfact>
</mgrwt>
</event>
<event>
 4    1  0.4578942E+006  0.2994918E+02  0.7546771E-02  0.1598651E+00
         21   -1    0    0  504  501  0.00000000000E+00  0.00000000000E+00  0.59328614865E+01  0.59328614865E+01  0.00000000000E+00 0. -1.
         21   -1    0    0  503  502 -0.00000000000E+00 -0.00000000000E+00 -0.25484719659E+03  0.25484719659E+03  0.00000000000E+00 0.  1.
         21    1    1    2  503  501 -0.21164035228E+02  0.21190487924E+02 -0.41296694759E+02  0.51013431208E+02  0.00000000000E+00 0. -1.
         21    1    1    2  504  502  0.21164035228E+02 -0.21190487924E+02 -0.20761764034E+03  0.20976662687E+03  0.00000000000E+00 0.  1.
<mgrwt>
<rscale>  2 0.29949176E+02</rscale>
<asrwt>0</asrwt>
<pdfrwt beam="1">  1       21 0.91274793E-03 0.29949176E+02</pdfrwt>
<pdfrwt beam="2">  1       21 0.39207261E-01 0.29949176E+02</pdfrwt>
<totfact> 0.22030877E+07</totfact>
</mgrwt>
</event>
<event>
 4    1  0.4578942E+006  0.3328172E+02  0.7546771E-02  0.1564411E+00
         21   -1    0    0  504  501  0.00000000000E+00  0.00000000000E+00  0.13396457789E+02  0.13396457789E+02  0.00000000000E+00 0.  1.
         21   -1    0    0  503  502 -0.00000000000E+00 -0.00000000000E+00 -0.21601163606E+03  0.21601163606E+03  0.00000000000E+00 0.  1.
         21    1    1    2  503  501 -0.33039545982E+02  0.40076355052E+01 -0.19142324628E+03  0.19429496122E+03  0.00000000000E+00 0.  1.
         21    1    1    2  504  502  0.33039545982E+02 -0.40076355052E+01 -0.11191931992E+02  0.35113132625E+02  0.00000000000E+00 0.  1.
<mgrwt>
<rscale>  2 0.33281718E+02</rscale>
<asrwt>0</asrwt>
<pdfrwt beam="1">  1       21 0.20609935E-02 0.33281718E+02</pdfrwt>
<pdfrwt beam="2">  1       21 0.33232560E-01 0.33281718E+02</pdfrwt>
<totfact> 0.87776169E+06</totfact>
</mgrwt>
</event>
<event>
 4    1  0.4578942E+006  0.4722599E+02  0.7546771E-02  0.1460905E+00
         21   -1    0    0  504  501  0.00000000000E+00  0.00000000000E+00  0.11427426987E+02  0.11427426987E+02  0.00000000000E+00 0. -1.
         21   -1    0    0  503  502 -0.00000000000E+00 -0.00000000000E+00 -0.77574600505E+03  0.77574600505E+03  0.00000000000E+00 0. -1.
         21    1    1    2  503  501  0.37400327001E+02 -0.28835902212E+02 -0.41664783497E+02  0.62978154149E+02  0.00000000000E+00 0. -1.
         21    1    1    2  504  502 -0.37400327001E+02  0.28835902212E+02 -0.72265379456E+03  0.72419527789E+03  0.00000000000E+00 0. -1.
<mgrwt>
<rscale>  2 0.47225986E+02</rscale>
<asrwt>0</asrwt>
<pdfrwt beam="1">  1       21 0.17580655E-02 0.47225986E+02</pdfrwt>
<pdfrwt beam="2">  1       21 0.11934555E+00 0.47225986E+02</pdfrwt>
<totfact> 0.81694824E+05</totfact>
</mgrwt>
</event>
<event>
 4    1  0.4578942E+006  0.2256042E+02  0.7546771E-02  0.1698736E+00
         21   -1    0    0  504  501  0.00000000000E+00  0.00000000000E+00  0.85809985515E+01  0.85809985515E+01  0.00000000000E+00 0.  1.
         21   -1    0    0  503  502 -0.00000000000E+00 -0.00000000000E+00 -0.60651575929E+02  0.60651575929E+02  0.00000000000E+00 0.  1.
         21    1    1    2  503  501  0.51362185612E+00 -0.22554573401E+02 -0.31176116169E+02  0.38482759881E+02  0.00000000000E+00 0.  1.
         21    1    1    2  504  502 -0.51362185612E+00  0.22554573401E+02 -0.20894461209E+02  0.30749814599E+02  0.00000000000E+00 0.  1.
<mgrwt>
<rscale>  2 0.22560421E+02</rscale>
<asrwt>0</asrwt>
<pdfrwt beam="1">  1       21 0.13201535E-02 0.22560421E+02</pdfrwt>
<pdfrwt beam="2">  1       21 0.93310123E-02 0.22560421E+02</pdfrwt>
<totfact> 0.14635874E+08</totfact>
</mgrwt>
</event>
<event>
 4    1  0.4578942E+006  0.2149014E+02  0.7546771E-02  0.1717222E+00
         21   -1    0    0  503  501  0.00000000000E+00  0.00000000000E+00  0.80617768640E+02  0.80617768640E+02  0.00000000000E+00 0. -1.
         21   -1    0    0  504  502 -0.00000000000E+00 -0.00000000000E+00 -0.49386569017E+02  0.49386569017E+02  0.00000000000E+00 0. -1.
         21    1    1    2  503  502 -0.16949677202E+02  0.13211145835E+02  0.76731645422E+02  0.79684197559E+02  0.00000000000E+00 0. -1.
         21    1    1    2  504  501  0.16949677202E+02 -0.13211145835E+02 -0.45500445799E+02  0.50320140098E+02  0.00000000000E+00 0. -1.
<mgrwt>
<rscale>  2 0.21490136E+02</rscale>
<asrwt>0</asrwt>
<pdfrwt beam="1">  1       21 0.12402734E-01 0.21490136E+02</pdfrwt>
<pdfrwt beam="2">  1       21 0.75979337E-02 0.21490136E+02</pdfrwt>
<totfact> 0.58710439E+06</totfact>
</mgrwt>
</event>
<event>
 4    1  0.4578942E+006  0.2397327E+02  0.7546771E-02  0.1676203E+00
         21   -1    0    0  503  501  0.00000000000E+00  0.00000000000E+00  0.33144565823E+03  0.33144565823E+03  0.00000000000E+00 0. -1.
         21   -1    0    0  504  502 -0.00000000000E+00 -0.00000000000E+00 -0.18197034478E+01  0.18197034478E+01  0.00000000000E+00 0. -1.
         21    1    1    2  503  502 -0.23928910739E+02  0.14577315185E+01  0.20098126677E+03  0.20240599631E+03  0.00000000000E+00 0. -1.
         21    1    1    2  504  501  0.23928910739E+02 -0.14577315185E+01  0.12864468802E+03  0.13085936537E+03  0.00000000000E+00 0. -1.
<mgrwt>
<rscale>  2 0.23973272E+02</rscale>
<asrwt>0</asrwt>
<pdfrwt beam="1">  1       21 0.50991592E-01 0.23973272E+02</pdfrwt>
<pdfrwt beam="2">  1       21 0.27995464E-03 0.23973272E+02</pdfrwt>
<totfact> 0.73142902E+07</totfact>
</mgrwt>
</event>
<event>
 4    1  0.4578942E+006  0.3159316E+02  0.7546771E-02  0.1581118E+00
         21   -1    0    0  504  501  0.00000000000E+00  0.00000000000E+00  0.47404444535E+03  0.47404444535E+03  0.00000000000E+00 0.  1.
         21   -1    0    0  503  502 -0.00000000000E+00 -0.00000000000E+00 -0.21473073184E+01  0.21473073184E+01  0.00000000000E+00 0.  1.
         21    1    1    2  503  501 -0.29099165437E+02  0.12303105737E+02  0.26914810685E+03  0.27099599860E+03  0.00000000000E+00 0.  1.
         21    1    1    2  504  502  0.29099165437E+02 -0.12303105737E+02  0.20274903119E+03  0.20519575407E+03  0.00000000000E+00 0.  1.
<mgrwt>
<rscale>  2 0.31593161E+02</rscale>
<asrwt>0</asrwt>
<pdfrwt beam="1">  1       21 0.72929831E-01 0.31593161E+02</pdfrwt>
<pdfrwt beam="2">  1       21 0.33035535E-03 0.31593161E+02</pdfrwt>
<totfact> 0.29472288E+07</totfact>
</mgrwt>
</event>
<event>
 4    1  0.4578942E+006  0.2177236E+02  0.7546771E-02  0.1712219E+00
         21   -1    0    0  504  501  0.00000000000E+00  0.00000000000E+00  0.75556541981E+03  0.75556541981E+03  0.00000000000E+00 0.  1.
         21   -1    0    0  501  502 -0.00000000000E+00 -0.00000000000E+00 -0.29538482763E+01  0.29538482763E+01  0.00000000000E+00 0.  1.
         21    1    1    2  503  502  0.21761945867E+02  0.67322808177E+00  0.39724473984E+02  0.45299772155E+02  0.00000000000E+00 0.  1.
         21    1    1    2  504  503 -0.21761945867E+02 -0.67322808177E+00  0.71288709755E+03  0.71321949593E+03  0.00000000000E+00 0.  1.
<mgrwt>
<rscale>  2 0.21772357E+02</rscale>
<asrwt>0</asrwt>
<pdfrwt beam="1">  1       21 0.11624068E+00 0.21772357E+02</pdfrwt>
<pdfrwt beam="2">  1       21 0.45443880E-03 0.21772357E+02</pdfrwt>
<totfact> 0.63208898E+06</totfact>
</mgrwt>
</event>
<event>
 4    1  0.4578942E+006  0.2392008E+02  0.7546771E-02  0.1677016E+00
         21   -1    0    0  504  501  0.00000000000E+00  0.00000000000E+00  0.26926782908E+01  0.26926782908E+01  0.00000000000E+00 0. -1.
         21   -1    0    0  503  502 -0.00000000000E+00 -0.00000000000E+00 -0.24009627659E+03  0.24009627659E+03  0.00000000000E+00 0. -1.
         21    1    1    2  503  501 -0.11317761058E+02  0.21073171054E+02 -0.15986425175E+03  0.16164389640E+03  0.00000000000E+00 0. -1.
         21    1    1    2  504  502  0.11317761058E+02 -0.21073171054E+02 -0.77539346546E+02  0.81145058485E+02  0.00000000000E+00 0. -1.
<mgrwt>
<rscale>  2 0.23920081E+02</rscale>
<asrwt>0</asrwt>
<pdfrwt beam="1">  1       21 0.41425820E-03 0.23920081E+02</pdfrwt>
<pdfrwt beam="2">  1       21 0.36937889E-01 0.23920081E+02</pdfrwt>
<totfact> 0.76247535E+07</totfact>
</mgrwt>
</event>
<event>
 4    1  0.4578942E+006  0.2216024E+02  0.7546771E-02  0.1705495E+00
         21   -1    0    0  502  501  0.00000000000E+00  0.00000000000E+00  0.19915994033E+02  0.19915994033E+02  0.00000000000E+00 0.  1.
         21   -1    0    0  504  502 -0.00000000000E+00 -0.00000000000E+00 -0.66194615549E+02  0.66194615549E+02  0.00000000000E+00 0.  1.
         21    1    1    2  503  501  0.73115671995E+01 -0.20919304130E+02  0.10966950375E+02  0.24725498999E+02  0.00000000000E+00 0.  1.
         21    1    1    2  504  503 -0.73115671995E+01  0.20919304130E+02 -0.57245571891E+02  0.61385110584E+02  0.00000000000E+00 0.  1.
<mgrwt>
<rscale>  2 0.22160241E+02</rscale>
<asrwt>0</asrwt>
<pdfrwt beam="1">  1       21 0.30639991E-02 0.22160241E+02</pdfrwt>
<pdfrwt beam="2">  1       21 0.10183787E-01 0.22160241E+02</pdfrwt>
<totfact> 0.34662690E+07</totfact>
</mgrwt>
</event>
<event>
 4    1  0.4578942E+006  0.2144860E+02  0.7546771E-02  0.1717966E+00
         21   -1    0    0  502  501  0.00000000000E+00  0.00000000000E+00  0.26863157813E+03  0.26863157813E+03  0.00000000000E+00 0. -1.
         21   -1    0    0  504  502 -0.00000000000E+00 -0.00000000000E+00 -0.19574354692E+01  0.19574354692E+01  0.00000000000E+00 0. -1.
         21    1    1    2  503  501  0.10934745734E+02 -0.18451933612E+02  0.18119194422E+03  0.18245701732E+03  0.00000000000E+00 0. -1.
         21    1    1    2  504  503 -0.10934745734E+02  0.18451933612E+02  0.85482198439E+02  0.88131996280E+02  0.00000000000E+00 0. -1.
<mgrwt>
<rscale>  2 0.21448602E+02</rscale>
<asrwt>0</asrwt>
<pdfrwt beam="1">  1       21 0.41327906E-01 0.21448602E+02</pdfrwt>
<pdfrwt beam="2">  1       21 0.30114413E-03 0.21448602E+02</pdfrwt>
<totfact> 0.95677589E+07</totfact>
</mgrwt>
</event>
<event>
 4    1  0.4578942E+006  0.2100176E+02  0.7546771E-02  0.1726111E+00
         21   -1    0    0  504  501  0.00000000000E+00  0.00000000000E+00  0.27988091404E+01  0.27988091404E+01  0.00000000000E+00 0.  1.
         21   -1    0    0  503  502 -0.00000000000E+00 -0.00000000000E+00 -0.18446172864E+03  0.18446172864E+03  0.00000000000E+00 0.  1.
         21    1    1    2  503  501  0.16999186378E+01  0.20932853231E+02 -0.12656555790E+03  0.12829619836E+03  0.00000000000E+00 0.  1.
         21    1    1    2  504  502 -0.16999186378E+01 -0.20932853231E+02 -0.55097361602E+02  0.58964339420E+02  0.00000000000E+00 0.  1.
<mgrwt>
<rscale>  2 0.21001763E+02</rscale>
<asrwt>0</asrwt>
<pdfrwt beam="1">  1       21 0.43058625E-03 0.21001763E+02</pdfrwt>
<pdfrwt beam="2">  1       21 0.28378712E-01 0.21001763E+02</pdfrwt>
<totfact> 0.11280963E+08</totfact>
</mgrwt>
</event>
<event>
 4    1  0.4578942E+006  0.3280624E+02  0.7546771E-02  0.1568992E+00
         21   -1    0    0  503  501  0.00000000000E+00  0.00000000000E+00  0.27690957369E+03  0.27690957369E+03  0.00000000000E+00 0.  1.
         21   -1    0    0  504  502 -0.00000000000E+00 -0.00000000000E+00 -0.67889207633E+01  0.67889207633E+01  0.00000000000E+00 0.  1.
         21    1    1    2  503  502  0.17280885001E+02 -0.27885845758E+02  0.42314162267E+02  0.53541924773E+02  0.00000000000E+00 0.  1.
         21    1    1    2  504  501 -0.17280885001E+02  0.27885845758E+02  0.22780649066E+03  0.23015656968E+03  0.00000000000E+00 0.  1.
<mgrwt>
<rscale>  2 0.32806240E+02</rscale>
<asrwt>0</asrwt>
<pdfrwt beam="1">  1       21 0.42601464E-01 0.32806240E+02</pdfrwt>
<pdfrwt beam="2">  1       21 0.10444496E-02 0.32806240E+02</pdfrwt>
<totfact> 0.15554176E+07</totfact>
</mgrwt>
</event>
<event>
 4    1  0.4578942E+006  0.3648363E+02  0.7546771E-02  0.1535807E+00
         21   -1    0    0  502  501  0.00000000000E+00  0.00000000000E+00  0.33274609182E+03  0.33274609182E+03  0.00000000000E+00 0. -1.
         21   -1    0    0  503  502 -0.00000000000E+00 -0.00000000000E+00 -0.60804917896E+01  0.60804917896E+01  0.00000000000E+00 0.  1.
         21    1    1    2  503  504  0.18181629132E+02  0.31630425471E+02  0.64240745656E+02  0.73877796772E+02  0.00000000000E+00 0.  1.
         21    1    1    2  504  501 -0.18181629132E+02 -0.31630425471E+02  0.26242485437E+03  0.26494878684E+03  0.00000000000E+00 0. -1.
<mgrwt>
<rscale>  2 0.36483633E+02</rscale>
<asrwt>0</asrwt>
<pdfrwt beam="1">  1       21 0.51191692E-01 0.36483633E+02</pdfrwt>
<pdfrwt beam="2">  1       21 0.93546053E-03 0.36483633E+02</pdfrwt>
<totfact> 0.13046367E+07</totfact>
</mgrwt>
</event>
<event>
 4    1  0.4578942E+006  0.2894952E+02  0.7546771E-02  0.1609999E+00
         21   -1    0    0  504  501  0.00000000000E+00  0.00000000000E+00  0.22325168199E+03  0.22325168199E+03  0.00000000000E+00 0. -1.
         21   -1    0    0  503  502 -0.00000000000E+00 -0.00000000000E+00 -0.66258021573E+02  0.66258021573E+02  0.00000000000E+00 0. -1.
         21    1    1    2  503  501  0.28312905284E+02  0.60377198352E+01  0.21909124444E+03  0.22099558380E+03  0.00000000000E+00 0. -1.
         21    1    1    2  504  502 -0.28312905284E+02 -0.60377198352E+01 -0.62097584022E+02  0.68514119770E+02  0.00000000000E+00 0. -1.
<mgrwt>
<rscale>  2 0.28949519E+02</rscale>
<asrwt>0</asrwt>
<pdfrwt beam="1">  1       21 0.34346412E-01 0.28949519E+02</pdfrwt>
<pdfrwt beam="2">  1       21 0.10193542E-01 0.28949519E+02</pdfrwt>
<totfact> 0.62370466E+05</totfact>
</mgrwt>
</event>
<event>
 4    1  0.4578942E+006  0.2110307E+02  0.7546771E-02  0.1724242E+00
         21   -1    0    0  503  501  0.00000000000E+00  0.00000000000E+00  0.20456120432E+02  0.20456120432E+02  0.00000000000E+00 0. -1.
         21   -1    0    0  504  502 -0.00000000000E+00 -0.00000000000E+00 -0.51484443026E+02  0.51484443026E+02  0.00000000000E+00 0. -1.
         21    1    1    2  503  502  0.16135464583E+02  0.13600968220E+02 -0.42840794141E+02  0.47756394299E+02  0.00000000000E+00 0. -1.
         21    1    1    2  504  501 -0.16135464583E+02 -0.13600968220E+02  0.11812471547E+02  0.24184169159E+02  0.00000000000E+00 0. -1.
<mgrwt>
<rscale>  2 0.21103070E+02</rscale>
<asrwt>0</asrwt>
<pdfrwt beam="1">  1       21 0.31470955E-02 0.21103070E+02</pdfrwt>
<pdfrwt beam="2">  1       21 0.79206835E-02 0.21103070E+02</pdfrwt>
<totfact> 0.49572632E+07</totfact>
</mgrwt>
</event>
<event>
 4    1  0.4578942E+006  0.2195663E+02  0.7546771E-02  0.1709003E+00
         21   -1    0    0  504  501  0.00000000000E+00  0.00000000000E+00  0.16396441458E+01  0.16396441458E+01  0.00000000000E+00 0. -1.
         21   -1    0    0  503  502 -0.00000000000E+00 -0.00000000000E+00 -0.36752756436E+03  0.36752756436E+03  0.00000000000E+00 0. -1.
         21    1    1    2  503  501 -0.13246316117E+02 -0.17510816656E+02 -0.10039636659E+03  0.10276927564E+03  0.00000000000E+00 0. -1.
         21    1    1    2  504  502  0.13246316117E+02  0.17510816656E+02 -0.26549155363E+03  0.26639793287E+03  0.00000000000E+00 0. -1.
<mgrwt>
<rscale>  2 0.21956630E+02</rscale>
<asrwt>0</asrwt>
<pdfrwt beam="1">  1       21 0.25225274E-03 0.21956630E+02</pdfrwt>
<pdfrwt beam="2">  1       21 0.56542748E-01 0.21956630E+02</pdfrwt>
<totfact> 0.67979635E+07</totfact>
</mgrwt>
</event>
<event>
 4    1  0.4578942E+006  0.2997414E+02  0.7546771E-02  0.1598375E+00
         21   -1    0    0  504  501  0.00000000000E+00  0.00000000000E+00  0.72823987582E+01  0.72823987582E+01  0.00000000000E+00 0.  1.
         21   -1    0    0  501  502 -0.00000000000E+00 -0.00000000000E+00 -0.13079026539E+03  0.13079026539E+03  0.00000000000E+00 0.  1.
         21    1    1    2  503  502 -0.85909350371E+01  0.28716631416E+02 -0.78194665054E+02  0.83742789108E+02  0.00000000000E+00 0.  1.
         21    1    1    2  504  503  0.85909350371E+01 -0.28716631416E+02 -0.45313201579E+02  0.54329875042E+02  0.00000000000E+00 0.  1.
<mgrwt>
<rscale>  2 0.29974140E+02</rscale>
<asrwt>0</asrwt>
<pdfrwt beam="1">  1       21 0.11203692E-02 0.29974140E+02</pdfrwt>
<pdfrwt beam="2">  1       21 0.20121577E-01 0.29974140E+02</pdfrwt>
<totfact> 0.54659414E+07</totfact>
</mgrwt>
</event>
<event>
 4    1  0.4578942E+006  0.2000378E+02  0.7546771E-02  0.1745253E+00
         21   -1    0    0  503  501  0.00000000000E+00  0.00000000000E+00  0.22976662100E+03  0.22976662100E+03  0.00000000000E+00 0.  1.
         21   -1    0    0  504  502 -0.00000000000E+00 -0.00000000000E+00 -0.13687413573E+02  0.13687413573E+02  0.00000000000E+00 0. -1.
         21    1    1    2  503  502 -0.11814683512E+02  0.16142010362E+02 -0.56799029585E+01  0.20794531556E+02  0.00000000000E+00 0. -1.
         21    1    1    2  504  501  0.11814683512E+02 -0.16142010362E+02  0.22175911038E+03  0.22265950302E+03  0.00000000000E+00 0.  1.
<mgrwt>
<rscale>  2 0.20003781E+02</rscale>
<asrwt>0</asrwt>
<pdfrwt beam="1">  1       21 0.35348708E-01 0.20003781E+02</pdfrwt>
<pdfrwt beam="2">  1       21 0.21057561E-02 0.20003781E+02</pdfrwt>
<totfact> 0.69707776E+06</totfact>
</mgrwt>
</event>
<event>
 4    1  0.4578942E+006  0.2329556E+02  0.7546771E-02  0.1686764E+00
         21   -1    0    0  503  501  0.00000000000E+00  0.00000000000E+00  0.34180003610E+02  0.34180003610E+02  0.00000000000E+00 0. -1.
         21   -1    0    0  504  502 -0.00000000000E+00 -0.00000000000E+00 -0.39163012187E+02  0.39163012187E+02  0.00000000000E+00 0.  1.
         21    1    1    2  503  502  0.57531286513E+01 -0.22573976854E+02  0.25785693777E+02  0.34750322643E+02  0.00000000000E+00 0. -1.
         21    1    1    2  504  501 -0.57531286513E+01  0.22573976854E+02 -0.30768702354E+02  0.38592693153E+02  0.00000000000E+00 0.  1.
<mgrwt>
<rscale>  2 0.23295556E+02</rscale>
<asrwt>0</asrwt>
<pdfrwt beam="1">  1       21 0.52584621E-02 0.23295556E+02</pdfrwt>
<pdfrwt beam="2">  1       21 0.60250788E-02 0.23295556E+02</pdfrwt>
<totfact> 0.35240091E+07</totfact>
</mgrwt>
</event>
<event>
 4    1  0.4578942E+006  0.3247434E+02  0.7546771E-02  0.1572245E+00
         21   -1    0    0  502  501  0.00000000000E+00  0.00000000000E+00  0.60324889531E+03  0.60324889531E+03  0.00000000000E+00 0. -1.
         21   -1    0    0  504  502 -0.00000000000E+00 -0.00000000000E+00 -0.60506521719E+01  0.60506521719E+01  0.00000000000E+00 0. -1.
         21    1    1    2  503  501 -0.27563514757E+02 -0.17170779649E+02  0.55549621390E+03  0.55644463037E+03  0.00000000000E+00 0. -1.
         21    1    1    2  504  503  0.27563514757E+02  0.17170779649E+02  0.41702029242E+02  0.52854917108E+02  0.00000000000E+00 0. -1.
<mgrwt>
<rscale>  2 0.32474344E+02</rscale>
<asrwt>0</asrwt>
<pdfrwt beam="1">  1       21 0.92807475E-01 0.32474344E+02</pdfrwt>
<pdfrwt beam="2">  1       21 0.93087004E-03 0.32474344E+02</pdfrwt>
<totfact> 0.37545411E+06</totfact>
</mgrwt>
</event>
<event>
 4    1  0.4578942E+006  0.2170099E+02  0.7546771E-02  0.1713475E+00
         21   -1    0    0  502  501  0.00000000000E+00  0.00000000000E+00  0.83748950538E+01  0.83748950538E+01  0.00000000000E+00 0.  1.
         21   -1    0    0  503  502 -0.00000000000E+00 -0.00000000000E+00 -0.47521702695E+03  0.47521702695E+03  0.00000000000E+00 0.  1.
         21    1    1    2  503  504 -0.19070543560E+02  0.10356037346E+02 -0.46046115164E+03  0.46097223920E+03  0.00000000000E+00 0.  1.
         21    1    1    2  504  501  0.19070543560E+02 -0.10356037346E+02 -0.63809802548E+01  0.22619682805E+02  0.00000000000E+00 0.  1.
<mgrwt>
<rscale>  2 0.21700994E+02</rscale>
<asrwt>0</asrwt>
<pdfrwt beam="1">  1       21 0.12884449E-02 0.21700994E+02</pdfrwt>
<pdfrwt beam="2">  1       21 0.73110338E-01 0.21700994E+02</pdfrwt>
<totfact> 0.36274514E+06</totfact>
</mgrwt>
</event>
<event>
 4    1  0.4578942E+006  0.2128579E+02  0.7546771E-02  0.1720905E+00
         21   -1    0    0  503  501  0.00000000000E+00  0.00000000000E+00  0.23172961714E+03  0.23172961714E+03  0.00000000000E+00 0.  1.
         21   -1    0    0  504  502 -0.00000000000E+00 -0.00000000000E+00 -0.25364893517E+02  0.25364893517E+02  0.00000000000E+00 0. -1.
         21    1    1    2  503  502 -0.19936856137E+02 -0.74569728931E+01 -0.20311073833E+02  0.29421495502E+02  0.00000000000E+00 0. -1.
         21    1    1    2  504  501  0.19936856137E+02  0.74569728931E+01  0.22667579746E+03  0.22767301516E+03  0.00000000000E+00 0.  1.
<mgrwt>
<rscale>  2 0.21285786E+02</rscale>
<asrwt>0</asrwt>
<pdfrwt beam="1">  1       21 0.35650709E-01 0.21285786E+02</pdfrwt>
<pdfrwt beam="2">  1       21 0.39022915E-02 0.21285786E+02</pdfrwt>
<totfact> 0.26668428E+06</totfact>
</mgrwt>
</event>
<event>
 4    1  0.4578942E+006  0.2163201E+02  0.7546771E-02  0.1714695E+00
         21   -1    0    0  503  501  0.00000000000E+00  0.00000000000E+00  0.16645950509E+03  0.16645950509E+03  0.00000000000E+00 0.  1.
         21   -1    0    0  501  502 -0.00000000000E+00 -0.00000000000E+00 -0.14888696741E+02  0.14888696741E+02  0.00000000000E+00 0.  1.
         21    1    1    2  503  504  0.20506249228E+02  0.68874947292E+01  0.15745194293E+03  0.15893098557E+03  0.00000000000E+00 0.  1.
         21    1    1    2  504  502 -0.20506249228E+02 -0.68874947292E+01 -0.58811345816E+01  0.22417216263E+02  0.00000000000E+00 0.  1.
<mgrwt>
<rscale>  2 0.21632010E+02</rscale>
<asrwt>0</asrwt>
<pdfrwt beam="1">  1       21 0.25609153E-01 0.21632010E+02</pdfrwt>
<pdfrwt beam="2">  1       21 0.22905688E-02 0.21632010E+02</pdfrwt>
<totfact> 0.11151630E+07</totfact>
</mgrwt>
</event>
<event>
 4    1  0.4578942E+006  0.2165469E+02  0.7546771E-02  0.1714293E+00
         21   -1    0    0  503  501  0.00000000000E+00  0.00000000000E+00  0.14166638866E+02  0.14166638866E+02  0.00000000000E+00 0. -1.
         21   -1    0    0  504  502 -0.00000000000E+00 -0.00000000000E+00 -0.24786341770E+03  0.24786341770E+03  0.00000000000E+00 0. -1.
         21    1    1    2  503  502  0.19470236462E+02 -0.94781524961E+01 -0.23880191402E+03  0.23978173330E+03  0.00000000000E+00 0. -1.
         21    1    1    2  504  501 -0.19470236462E+02  0.94781524961E+01  0.51051351950E+01  0.22248323262E+02  0.00000000000E+00 0. -1.
<mgrwt>
<rscale>  2 0.21654687E+02</rscale>
<asrwt>0</asrwt>
<pdfrwt beam="1">  1       21 0.21794829E-02 0.21654687E+02</pdfrwt>
<pdfrwt beam="2">  1       21 0.38132833E-01 0.21654687E+02</pdfrwt>
<totfact> 0.58255804E+06</totfact>
</mgrwt>
</event>
<event>
 4    1  0.4578942E+006  0.2982537E+02  0.7546771E-02  0.1600027E+00
         21   -1    0    0  503  501  0.00000000000E+00  0.00000000000E+00  0.13852839218E+02  0.13852839218E+02  0.00000000000E+00 0.  1.
         21   -1    0    0  504  502 -0.00000000000E+00 -0.00000000000E+00 -0.18271838995E+03  0.18271838995E+03  0.00000000000E+00 0.  1.
         21    1    1    2  503  502 -0.23629303290E+02  0.18199135161E+02 -0.52801695635E+01  0.30289151279E+02  0.00000000000E+00 0.  1.
         21    1    1    2  504  501  0.23629303290E+02 -0.18199135161E+02 -0.16358538117E+03  0.16628207789E+03  0.00000000000E+00 0.  1.
<mgrwt>
<rscale>  2 0.29825367E+02</rscale>
<asrwt>0</asrwt>
<pdfrwt beam="1">  1       21 0.21312062E-02 0.29825367E+02</pdfrwt>
<pdfrwt beam="2">  1       21 0.28110520E-01 0.29825367E+02</pdfrwt>
<totfact> 0.11165762E+07</totfact>
</mgrwt>
</event>
<event>
 4    1  0.4578942E+006  0.4207195E+02  0.7546771E-02  0.1493495E+00
         21   -1    0    0  503  501  0.00000000000E+00  0.00000000000E+00  0.18641931834E+02  0.18641931834E+02  0.00000000000E+00 0.  1.
         21   -1    0    0  501  502 -0.00000000000E+00 -0.00000000000E+00 -0.41183294162E+03  0.41183294162E+03  0.00000000000E+00 0. -1.
         21    1    1    2  503  504 -0.76101671805E+01  0.41377943780E+02 -0.77934161367E+01  0.42787687611E+02  0.00000000000E+00 0.  1.
         21    1    1    2  504  502  0.76101671805E+01 -0.41377943780E+02 -0.38539759365E+03  0.38768718584E+03  0.00000000000E+00 0. -1.
<mgrwt>
<rscale>  2 0.42071949E+02</rscale>
<asrwt>0</asrwt>
<pdfrwt beam="1">  1       21 0.28679900E-02 0.42071949E+02</pdfrwt>
<pdfrwt beam="2">  1       21 0.63358902E-01 0.42071949E+02</pdfrwt>
<totfact> 0.15085098E+06</totfact>
</mgrwt>
</event>
<event>
 4    1  0.4578942E+006  0.2228560E+02  0.7546771E-02  0.1703359E+00
         21   -1    0    0  503  501  0.00000000000E+00  0.00000000000E+00  0.79297444718E+01  0.79297444718E+01  0.00000000000E+00 0. -1.
         21   -1    0    0  501  502 -0.00000000000E+00 -0.00000000000E+00 -0.28177829297E+03  0.28177829297E+03  0.00000000000E+00 0.  1.
         21    1    1    2  503  504 -0.21497501032E+02  0.58741324078E+01 -0.91790075880E+01  0.24101912008E+02  0.00000000000E+00 0. -1.
         21    1    1    2  504  502  0.21497501032E+02 -0.58741324078E+01 -0.26466954091E+03  0.26560612543E+03  0.00000000000E+00 0.  1.
<mgrwt>
<rscale>  2 0.22285600E+02</rscale>
<asrwt>0</asrwt>
<pdfrwt beam="1">  1       21 0.12199609E-02 0.22285600E+02</pdfrwt>
<pdfrwt beam="2">  1       21 0.43350499E-01 0.22285600E+02</pdfrwt>
<totfact> 0.11119182E+07</totfact>
</mgrwt>
</event>
<event>
 4    1  0.4578942E+006  0.2389012E+02  0.7546771E-02  0.1677475E+00
         21   -1    0    0  504  501  0.00000000000E+00  0.00000000000E+00  0.23510743686E+03  0.23510743686E+03  0.00000000000E+00 0.  1.
         21   -1    0    0  503  502 -0.00000000000E+00 -0.00000000000E+00 -0.25636905800E+01  0.25636905800E+01  0.00000000000E+00 0. -1.
         21    1    1    2  503  501 -0.23576309531E+02 -0.38594794715E+01  0.88888446871E+02  0.92042891850E+02  0.00000000000E+00 0. -1.
         21    1    1    2  504  502  0.23576309531E+02  0.38594794715E+01  0.14365529941E+03  0.14562823559E+03  0.00000000000E+00 0.  1.
<mgrwt>
<rscale>  2 0.23890122E+02</rscale>
<asrwt>0</asrwt>
<pdfrwt beam="1">  1       21 0.36170358E-01 0.23890122E+02</pdfrwt>
<pdfrwt beam="2">  1       21 0.39441412E-03 0.23890122E+02</pdfrwt>
<totfact> 0.85195594E+07</totfact>
</mgrwt>
</event>
<event>
 4    1  0.4578942E+006  0.2216637E+02  0.7546771E-02  0.1705390E+00
         21   -1    0    0  504  501  0.00000000000E+00  0.00000000000E+00  0.47567987389E+02  0.47567987389E+02  0.00000000000E+00 0.  1.
         21   -1    0    0  503  502 -0.00000000000E+00 -0.00000000000E+00 -0.84264587235E+02  0.84264587235E+02  0.00000000000E+00 0.  1.
         21    1    1    2  503  501 -0.11581822331E+02 -0.18899986847E+02  0.43395850360E+02  0.48729333464E+02  0.00000000000E+00 0.  1.
         21    1    1    2  504  502  0.11581822331E+02  0.18899986847E+02 -0.80092450206E+02  0.83103241160E+02  0.00000000000E+00 0.  1.
<mgrwt>
<rscale>  2 0.22166373E+02</rscale>
<asrwt>0</asrwt>
<pdfrwt beam="1">  1       21 0.73181520E-02 0.22166373E+02</pdfrwt>
<pdfrwt beam="2">  1       21 0.12963783E-01 0.22166373E+02</pdfrwt>
<totfact> 0.58245302E+06</totfact>
</mgrwt>
</event>
<event>
 4    1  0.4578942E+006  0.2183217E+02  0.7546771E-02  0.1711171E+00
         21   -1    0    0  502  501  0.00000000000E+00  0.00000000000E+00  0.15609871107E+01  0.15609871107E+01  0.00000000000E+00 0. -1.
         21   -1    0    0  504  502 -0.00000000000E+00 -0.00000000000E+00 -0.80868108239E+03  0.80868108239E+03  0.00000000000E+00 0. -1.
         21    1    1    2  503  501 -0.56205767849E+01  0.21096276416E+02 -0.83947341712E+02  0.86739840573E+02  0.00000000000E+00 0. -1.
         21    1    1    2  504  503  0.56205767849E+01 -0.21096276416E+02 -0.72317275357E+03  0.72350222893E+03  0.00000000000E+00 0. -1.
<mgrwt>
<rscale>  2 0.21832173E+02</rscale>
<asrwt>0</asrwt>
<pdfrwt beam="1">  1       21 0.24015177E-03 0.21832173E+02</pdfrwt>
<pdfrwt beam="2">  1       21 0.12441252E+00 0.21832173E+02</pdfrwt>
<totfact> 0.13742177E+07</totfact>
</mgrwt>
</event>
<event>
 4    1  0.4578942E+006  0.2679451E+02  0.7546771E-02  0.1636489E+00
         21   -1    0    0  504  501  0.00000000000E+00  0.00000000000E+00  0.48712088116E+01  0.48712088116E+01  0.00000000000E+00 0. -1.
         21   -1    0    0  503  502 -0.00000000000E+00 -0.00000000000E+00 -0.68917799213E+03  0.68917799213E+03  0.00000000000E+00 0.  1.
         21    1    1    2  503  501  0.14639623130E+01 -0.26754487280E+02 -0.64984172906E+03  0.65039389496E+03  0.00000000000E+00 0.  1.
         21    1    1    2  504  502 -0.14639623130E+01  0.26754487280E+02 -0.34465054262E+02  0.43655305983E+02  0.00000000000E+00 0. -1.
<mgrwt>
<rscale>  2 0.26794510E+02</rscale>
<asrwt>0</asrwt>
<pdfrwt beam="1">  1       21 0.74941703E-03 0.26794510E+02</pdfrwt>
<pdfrwt beam="2">  1       21 0.10602734E+00 0.26794510E+02</pdfrwt>
<totfact> 0.37991733E+06</totfact>
</mgrwt>
</event>
<event>
 4    1  0.4578942E+006  0.2636825E+02  0.7546771E-02  0.1642093E+00
         21   -1    0    0  503  501  0.00000000000E+00  0.00000000000E+00  0.86254834976E+02  0.86254834976E+02  0.00000000000E+00 0.  1.
         21   -1    0    0  504  502 -0.00000000000E+00 -0.00000000000E+00 -0.19002751023E+04  0.19002751023E+04  0.00000000000E+00 0.  1.
         21    1    1    2  503  502 -0.25825965140E+02  0.53201481498E+01 -0.18981661876E+04  0.18983493251E+04  0.00000000000E+00 0.  1.
         21    1    1    2  504  501  0.25825965140E+02 -0.53201481498E+01  0.84145920301E+02  0.88180612126E+02  0.00000000000E+00 0.  1.
<mgrwt>
<rscale>  2 0.26368247E+02</rscale>
<asrwt>0</asrwt>
<pdfrwt beam="1">  1       21 0.13269975E-01 0.26368247E+02</pdfrwt>
<pdfrwt beam="2">  1       21 0.29235001E+00 0.26368247E+02</pdfrwt>
<totfact> 0.29999146E+03</totfact>
</mgrwt>
</event>
<event>
 4    1  0.4578942E+006  0.2602009E+02  0.7546771E-02  0.1646768E+00
         21   -1    0    0  504  501  0.00000000000E+00  0.00000000000E+00  0.88787077886E+02  0.88787077886E+02  0.00000000000E+00 0. -1.
         21   -1    0    0  501  502 -0.00000000000E+00 -0.00000000000E+00 -0.84130640660E+01  0.84130640660E+01  0.00000000000E+00 0.  1.
         21    1    1    2  503  502  0.24864821082E+02  0.76671711734E+01  0.25317179669E+02  0.36304330701E+02  0.00000000000E+00 0.  1.
         21    1    1    2  504  503 -0.24864821082E+02 -0.76671711734E+01  0.55056834151E+02  0.60895811251E+02  0.00000000000E+00 0. -1.
<mgrwt>
<rscale>  2 0.26020085E+02</rscale>
<asrwt>0</asrwt>
<pdfrwt beam="1">  1       21 0.13659550E-01 0.26020085E+02</pdfrwt>
<pdfrwt beam="2">  1       21 0.12943176E-02 0.26020085E+02</pdfrwt>
<totfact> 0.82976089E+07</totfact>
</mgrwt>
</event>
<event>
 4    1  0.4578942E+006  0.3103880E+02  0.7546771E-02  0.1586882E+00
         21   -1    0    0  504  501  0.00000000000E+00  0.00000000000E+00  0.18215545883E+02  0.18215545883E+02  0.00000000000E+00 0.  1.
         21   -1    0    0  501  502 -0.00000000000E+00 -0.00000000000E+00 -0.11163184598E+03  0.11163184598E+03  0.00000000000E+00 0. -1.
         21    1    1    2  503  502  0.65554816743E+01 -0.30338636270E+02 -0.93804323412E+02  0.98806165199E+02  0.00000000000E+00 0. -1.
         21    1    1    2  504  503 -0.65554816743E+01  0.30338636270E+02  0.38802331404E+00  0.31041226664E+02  0.00000000000E+00 0.  1.
<mgrwt>
<rscale>  2 0.31038801E+02</rscale>
<asrwt>0</asrwt>
<pdfrwt beam="1">  1       21 0.28023916E-02 0.31038801E+02</pdfrwt>
<pdfrwt beam="2">  1       21 0.17174130E-01 0.31038801E+02</pdfrwt>
<totfact> 0.17637060E+07</totfact>
</mgrwt>
</event>
<event>
 4    1  0.4578942E+006  0.3012229E+02  0.7546771E-02  0.1596741E+00
         21   -1    0    0  503  501  0.00000000000E+00  0.00000000000E+00  0.10675572246E+01  0.10675572246E+01  0.00000000000E+00 0.  1.
         21   -1    0    0  504  502 -0.00000000000E+00 -0.00000000000E+00 -0.85994192228E+03  0.85994192228E+03  0.00000000000E+00 0.  1.
         21    1    1    2  503  502 -0.29699052625E+02  0.50317665947E+01 -0.38299301352E+03  0.38417574209E+03  0.00000000000E+00 0.  1.
         21    1    1    2  504  501  0.29699052625E+02 -0.50317665947E+01 -0.47588135153E+03  0.47683373741E+03  0.00000000000E+00 0.  1.
<mgrwt>
<rscale>  2 0.30122291E+02</rscale>
<asrwt>0</asrwt>
<pdfrwt beam="1">  1       21 0.16423948E-03 0.30122291E+02</pdfrwt>
<pdfrwt beam="2">  1       21 0.13229884E+00 0.30122291E+02</pdfrwt>
<totfact> 0.21776276E+07</totfact>
</mgrwt>
</event>
<event>
 4    1  0.4578942E+006  0.2112798E+02  0.7546771E-02  0.1723785E+00
         21   -1    0    0  503  501  0.00000000000E+00  0.00000000000E+00  0.12146469866E+02  0.12146469866E+02  0.00000000000E+00 0. -1.
         21   -1    0    0  504  502 -0.00000000000E+00 -0.00000000000E+00 -0.62839313448E+02  0.62839313448E+02  0.00000000000E+00 0. -1.
         21    1    1    2  503  502 -0.16167258961E+02  0.13601881072E+02 -0.11885534625E+01  0.21161382052E+02  0.00000000000E+00 0. -1.
         21    1    1    2  504  501  0.16167258961E+02 -0.13601881072E+02 -0.49504290120E+02  0.53824401263E+02  0.00000000000E+00 0. -1.
<mgrwt>
<rscale>  2 0.21127977E+02</rscale>
<asrwt>0</asrwt>
<pdfrwt beam="1">  1       21 0.18686877E-02 0.21127977E+02</pdfrwt>
<pdfrwt beam="2">  1       21 0.96675865E-02 0.21127977E+02</pdfrwt>
<totfact> 0.79892615E+07</totfact>
</mgrwt>
</event>
<event>
 4    1  0.4578942E+006  0.4989774E+02  0.7546771E-02  0.1445894E+00
         21   -1    0    0  503  501  0.00000000000E+00  0.00000000000E+00  0.86912462506E+01  0.86912462506E+01  0.00000000000E+00 0. -1.
         21   -1    0    0  501  502 -0.00000000000E+00 -0.00000000000E+00 -0.63170455122E+03  0.63170455122E+03  0.00000000000E+00 0.  1.
         21    1    1    2  503  504 -0.14974595684E+02  0.47597749395E+02 -0.74795680920E+02  0.89912057855E+02  0.00000000000E+00 0. -1.
         21    1    1    2  504  502  0.14974595684E+02 -0.47597749395E+02 -0.54821762405E+03  0.55048373962E+03  0.00000000000E+00 0.  1.
<mgrwt>
<rscale>  2 0.49897738E+02</rscale>
<asrwt>0</asrwt>
<pdfrwt beam="1">  1       21 0.13371153E-02 0.49897738E+02</pdfrwt>
<pdfrwt beam="2">  1       21 0.97185282E-01 0.49897738E+02</pdfrwt>
<totfact> 0.20089770E+06</totfact>
</mgrwt>
</event>
<event>
 4    1  0.4578942E+006  0.2380288E+02  0.7546771E-02  0.1678817E+00
         21   -1    0    0  503  501  0.00000000000E+00  0.00000000000E+00  0.13798917586E+02  0.13798917586E+02  0.00000000000E+00 0.  1.
         21   -1    0    0  504  502 -0.00000000000E+00 -0.00000000000E+00 -0.47782496399E+02  0.47782496399E+02  0.00000000000E+00 0.  1.
         21    1    1    2  503  502  0.23708325680E+02 -0.21195208696E+01 -0.54422224081E+01  0.24417101793E+02  0.00000000000E+00 0.  1.
         21    1    1    2  504  501 -0.23708325680E+02  0.21195208696E+01 -0.28541356405E+02  0.37164312192E+02  0.00000000000E+00 0.  1.
<mgrwt>
<rscale>  2 0.23802880E+02</rscale>
<asrwt>0</asrwt>
<pdfrwt beam="1">  1       21 0.21229104E-02 0.23802880E+02</pdfrwt>
<pdfrwt beam="2">  1       21 0.73511533E-02 0.23802880E+02</pdfrwt>
<totfact> 0.10638004E+08</totfact>
</mgrwt>
</event>
<event>
 4    1  0.4578942E+006  0.2858645E+02  0.7546771E-02  0.1614260E+00
         21   -1    0    0  503  501  0.00000000000E+00  0.00000000000E+00  0.12121686766E+02  0.12121686766E+02  0.00000000000E+00 0. -1.
         21   -1    0    0  504  502 -0.00000000000E+00 -0.00000000000E+00 -0.67592472316E+02  0.67592472316E+02  0.00000000000E+00 0. -1.
         21    1    1    2  503  502  0.20705405474E+01 -0.28511367035E+02 -0.29776907305E+02  0.41277710656E+02  0.00000000000E+00 0. -1.
         21    1    1    2  504  501 -0.20705405474E+01  0.28511367035E+02 -0.25693878245E+02  0.38436448426E+02  0.00000000000E+00 0. -1.
<mgrwt>
<rscale>  2 0.28586451E+02</rscale>
<asrwt>0</asrwt>
<pdfrwt beam="1">  1       21 0.18648749E-02 0.28586451E+02</pdfrwt>
<pdfrwt beam="2">  1       21 0.10398842E-01 0.28586451E+02</pdfrwt>
<totfact> 0.76906533E+07</totfact>
</mgrwt>
</event>
<event>
 4    1  0.4578942E+006  0.2414070E+02  0.7546771E-02  0.1673660E+00
         21   -1    0    0  503  501  0.00000000000E+00  0.00000000000E+00  0.14163782194E+02  0.14163782194E+02  0.00000000000E+00 0. -1.
         21   -1    0    0  504  502 -0.00000000000E+00 -0.00000000000E+00 -0.64969842463E+03  0.64969842463E+03  0.00000000000E+00 0. -1.
         21    1    1    2  503  502  0.23762755699E+02  0.42549880613E+01  0.34813061356E+01  0.24390427922E+02  0.00000000000E+00 0. -1.
         21    1    1    2  504  501 -0.23762755699E+02 -0.42549880613E+01 -0.63901594857E+03  0.63947177890E+03  0.00000000000E+00 0. -1.
<mgrwt>
<rscale>  2 0.24140702E+02</rscale>
<asrwt>0</asrwt>
<pdfrwt beam="1">  1       21 0.21790435E-02 0.24140702E+02</pdfrwt>
<pdfrwt beam="2">  1       21 0.99953598E-01 0.24140702E+02</pdfrwt>
<totfact> 0.84773890E+05</totfact>
</mgrwt>
</event>
<event>
 4    1  0.4578942E+006  0.2293906E+02  0.7546771E-02  0.1692500E+00
         21   -1    0    0  502  501  0.00000000000E+00  0.00000000000E+00  0.52941349468E+01  0.52941349468E+01  0.00000000000E+00 0. -1.
         21   -1    0    0  503  502 -0.00000000000E+00 -0.00000000000E+00 -0.24549138361E+03  0.24549138361E+03  0.00000000000E+00 0. -1.
         21    1    1    2  503  504 -0.10128790524E+02  0.20581741703E+02 -0.21683212126E+03  0.21804212735E+03  0.00000000000E+00 0. -1.
         21    1    1    2  504  501  0.10128790524E+02 -0.20581741703E+02 -0.23365127394E+02  0.32743391199E+02  0.00000000000E+00 0. -1.
<mgrwt>
<rscale>  2 0.22939060E+02</rscale>
<asrwt>0</asrwt>
<pdfrwt beam="1">  1       21 0.81448261E-03 0.22939060E+02</pdfrwt>
<pdfrwt beam="2">  1       21 0.37767891E-01 0.22939060E+02</pdfrwt>
<totfact> 0.26601849E+07</totfact>
</mgrwt>
</event>
<event>
 4    1  0.4578942E+006  0.2398841E+02  0.7546771E-02  0.1675972E+00
         21   -1    0    0  504  501  0.00000000000E+00  0.00000000000E+00  0.31348746767E+03  0.31348746767E+03  0.00000000000E+00 0.  1.
         21   -1    0    0  501  502 -0.00000000000E+00 -0.00000000000E+00 -0.15109483226E+02  0.15109483226E+02  0.00000000000E+00 0.  1.
         21    1    1    2  503  502 -0.19338254833E+02 -0.14194213308E+02 -0.48062847218E+01  0.24465162257E+02  0.00000000000E+00 0.  1.
         21    1    1    2  504  503  0.19338254833E+02  0.14194213308E+02  0.30318426916E+03  0.30413178864E+03  0.00000000000E+00 0.  1.
<mgrwt>
<rscale>  2 0.23988410E+02</rscale>
<asrwt>0</asrwt>
<pdfrwt beam="1">  1       21 0.48228836E-01 0.23988410E+02</pdfrwt>
<pdfrwt beam="2">  1       21 0.23245361E-02 0.23988410E+02</pdfrwt>
<totfact> 0.34285293E+06</totfact>
</mgrwt>
</event>
<event>
 4    1  0.4578942E+006  0.3649698E+02  0.7546771E-02  0.1535695E+00
         21   -1    0    0  504  501  0.00000000000E+00  0.00000000000E+00  0.16642894930E+04  0.16642894930E+04  0.00000000000E+00 0. -1.
         21   -1    0    0  503  502 -0.00000000000E+00 -0.00000000000E+00 -0.16634699746E+01  0.16634699746E+01  0.00000000000E+00 0. -1.
         21    1    1    2  503  501  0.36243839719E+02  0.42910825763E+01  0.14313230834E+04  0.14317883218E+04  0.00000000000E+00 0. -1.
         21    1    1    2  504  502 -0.36243839719E+02 -0.42910825763E+01  0.23130293965E+03  0.23416464122E+03  0.00000000000E+00 0. -1.
<mgrwt>
<rscale>  2 0.36496977E+02</rscale>
<asrwt>0</asrwt>
<pdfrwt beam="1">  1       21 0.25604321E+00 0.36496977E+02</pdfrwt>
<pdfrwt beam="2">  1       21 0.25591979E-03 0.36496977E+02</pdfrwt>
<totfact> 0.20626236E+06</totfact>
</mgrwt>
</event>
<event>
 4    1  0.4578942E+006  0.4488580E+02  0.7546771E-02  0.1475056E+00
         21   -1    0    0  504  501  0.00000000000E+00  0.00000000000E+00  0.14615034801E+02  0.14615034801E+02  0.00000000000E+00 0.  1.
         21   -1    0    0  503  502 -0.00000000000E+00 -0.00000000000E+00 -0.14601265249E+03  0.14601265249E+03  0.00000000000E+00 0. -1.
         21    1    1    2  503  501  0.13728718385E+02 -0.42734736856E+02 -0.84683980005E+02  0.95844206461E+02  0.00000000000E+00 0. -1.
         21    1    1    2  504  502 -0.13728718385E+02  0.42734736856E+02 -0.46713637681E+02  0.64783480827E+02  0.00000000000E+00 0.  1.
<mgrwt>
<rscale>  2 0.44885804E+02</rscale>
<asrwt>0</asrwt>
<pdfrwt beam="1">  1       21 0.22484669E-02 0.44885804E+02</pdfrwt>
<pdfrwt beam="2">  1       21 0.22463484E-01 0.44885804E+02</pdfrwt>
<totfact> 0.16411188E+07</totfact>
</mgrwt>
</event>
<event>
 4    1  0.4578942E+006  0.2047805E+02  0.7546771E-02  0.1735985E+00
         21   -1    0    0  503  501  0.00000000000E+00  0.00000000000E+00  0.66388941654E+02  0.66388941654E+02  0.00000000000E+00 0.  1.
         21   -1    0    0  504  502 -0.00000000000E+00 -0.00000000000E+00 -0.47896465296E+02  0.47896465296E+02  0.00000000000E+00 0. -1.
         21    1    1    2  503  502 -0.17288061446E+01 -0.20404945565E+02 -0.43995317052E+02  0.48527708545E+02  0.00000000000E+00 0. -1.
         21    1    1    2  504  501  0.17288061446E+01  0.20404945565E+02  0.62487793410E+02  0.65757698404E+02  0.00000000000E+00 0.  1.
<mgrwt>
<rscale>  2 0.20478051E+02</rscale>
<asrwt>0</asrwt>
<pdfrwt beam="1">  1       21 0.10213683E-01 0.20478051E+02</pdfrwt>
<pdfrwt beam="2">  1       21 0.73686869E-02 0.20478051E+02</pdfrwt>
<totfact> 0.84423913E+06</totfact>
</mgrwt>
</event>
<event>
 4    1  0.4578942E+006  0.2829563E+02  0.7546771E-02  0.1617730E+00
         21   -1    0    0  504  501  0.00000000000E+00  0.00000000000E+00  0.30197847545E+01  0.30197847545E+01  0.00000000000E+00 0.  1.
         21   -1    0    0  503  502 -0.00000000000E+00 -0.00000000000E+00 -0.37425137020E+03  0.37425137020E+03  0.00000000000E+00 0.  1.
         21    1    1    2  503  501  0.24801824038E+02  0.13620294182E+02 -0.28747304666E+03  0.28886224302E+03  0.00000000000E+00 0.  1.
         21    1    1    2  504  502 -0.24801824038E+02 -0.13620294182E+02 -0.83758538795E+02  0.88408911939E+02  0.00000000000E+00 0.  1.
<mgrwt>
<rscale>  2 0.28295634E+02</rscale>
<asrwt>0</asrwt>
<pdfrwt beam="1">  1       21 0.46458242E-03 0.28295634E+02</pdfrwt>
<pdfrwt beam="2">  1       21 0.57577115E-01 0.28295634E+02</pdfrwt>
<totfact> 0.28314037E+07</totfact>
</mgrwt>
</event>
<event>
 4    1  0.4578942E+006  0.2683386E+02  0.7546771E-02  0.1635978E+00
         21   -1    0    0  504  501  0.00000000000E+00  0.00000000000E+00  0.26194090419E+01  0.26194090419E+01  0.00000000000E+00 0. -1.
         21   -1    0    0  503  502 -0.00000000000E+00 -0.00000000000E+00 -0.29963959405E+03  0.29963959405E+03  0.00000000000E+00 0. -1.
         21    1    1    2  503  501 -0.26779119824E+02 -0.17131453582E+01 -0.10507797546E+03  0.10845015930E+03  0.00000000000E+00 0. -1.
         21    1    1    2  504  502  0.26779119824E+02  0.17131453582E+01 -0.19194220955E+03  0.19380884380E+03  0.00000000000E+00 0. -1.
<mgrwt>
<rscale>  2 0.26833862E+02</rscale>
<asrwt>0</asrwt>
<pdfrwt beam="1">  1       21 0.40298609E-03 0.26833862E+02</pdfrwt>
<pdfrwt beam="2">  1       21 0.46098390E-01 0.26833862E+02</pdfrwt>
<totfact> 0.53533113E+07</totfact>
</mgrwt>
</event>
<event>
 4    1  0.4578942E+006  0.2365516E+02  0.7546771E-02  0.1681105E+00
         21   -1    0    0  503  501  0.00000000000E+00  0.00000000000E+00  0.30513763299E+01  0.30513763299E+01  0.00000000000E+00 0.  1.
         21   -1    0    0  504  502 -0.00000000000E+00 -0.00000000000E+00 -0.20218040264E+03  0.20218040264E+03  0.00000000000E+00 0.  1.
         21    1    1    2  503  502 -0.71562887710E+01 -0.22546705772E+02 -0.68274217788E+02  0.72256039365E+02  0.00000000000E+00 0.  1.
         21    1    1    2  504  501  0.71562887710E+01  0.22546705772E+02 -0.13085480852E+03  0.13297573961E+03  0.00000000000E+00 0.  1.
<mgrwt>
<rscale>  2 0.23655156E+02</rscale>
<asrwt>0</asrwt>
<pdfrwt beam="1">  1       21 0.46944254E-03 0.23655156E+02</pdfrwt>
<pdfrwt beam="2">  1       21 0.31104676E-01 0.23655156E+02</pdfrwt>
<totfact> 0.86890954E+07</totfact>
</mgrwt>
</event>
<event>
 4    1  0.4578942E+006  0.2088433E+02  0.7546771E-02  0.1728293E+00
         21   -1    0    0  504  501  0.00000000000E+00  0.00000000000E+00  0.22082448040E+02  0.22082448040E+02  0.00000000000E+00 0.  1.
         21   -1    0    0  503  502 -0.00000000000E+00 -0.00000000000E+00 -0.27590545804E+02  0.27590545804E+02  0.00000000000E+00 0.  1.
         21    1    1    2  503  501 -0.17054198290E+02  0.12054438329E+02  0.10484784321E+02  0.23368480161E+02  0.00000000000E+00 0.  1.
         21    1    1    2  504  502  0.17054198290E+02 -0.12054438329E+02 -0.15992882085E+02  0.26304513684E+02  0.00000000000E+00 0.  1.
<mgrwt>
<rscale>  2 0.20884328E+02</rscale>
<asrwt>0</asrwt>
<pdfrwt beam="1">  1       21 0.33972997E-02 0.20884328E+02</pdfrwt>
<pdfrwt beam="2">  1       21 0.42446994E-02 0.20884328E+02</pdfrwt>
<totfact> 0.11890607E+08</totfact>
</mgrwt>
</event>
<event>
 4    1  0.4578942E+006  0.2554127E+02  0.7546771E-02  0.1653347E+00
         21   -1    0    0  504  501  0.00000000000E+00  0.00000000000E+00  0.14871343366E+02  0.14871343366E+02  0.00000000000E+00 0.  1.
         21   -1    0    0  503  502 -0.00000000000E+00 -0.00000000000E+00 -0.45198488618E+02  0.45198488618E+02  0.00000000000E+00 0.  1.
         21    1    1    2  503  501  0.20192604414E+02 -0.15640179427E+02 -0.10007902737E+02  0.27431999612E+02  0.00000000000E+00 0.  1.
         21    1    1    2  504  502 -0.20192604414E+02  0.15640179427E+02 -0.20319242515E+02  0.32637832371E+02  0.00000000000E+00 0.  1.
<mgrwt>
<rscale>  2 0.25541270E+02</rscale>
<asrwt>0</asrwt>
<pdfrwt beam="1">  1       21 0.22878990E-02 0.25541270E+02</pdfrwt>
<pdfrwt beam="2">  1       21 0.69536136E-02 0.25541270E+02</pdfrwt>
<totfact> 0.10576558E+08</totfact>
</mgrwt>
</event>
<event>
 4    1  0.4578942E+006  0.3396763E+02  0.7546771E-02  0.1557964E+00
         21   -1    0    0  503  501  0.00000000000E+00  0.00000000000E+00  0.91364064476E+02  0.91364064476E+02  0.00000000000E+00 0.  1.
         21   -1    0    0  504  502 -0.00000000000E+00 -0.00000000000E+00 -0.72831628661E+03  0.72831628661E+03  0.00000000000E+00 0. -1.
         21    1    1    2  503  502  0.33362179439E+02 -0.63847469721E+01 -0.72474754910E+03  0.72554311377E+03  0.00000000000E+00 0. -1.
         21    1    1    2  504  501 -0.33362179439E+02  0.63847469721E+01  0.87795326972E+02  0.94137237313E+02  0.00000000000E+00 0.  1.
<mgrwt>
<rscale>  2 0.33967632E+02</rscale>
<asrwt>0</asrwt>
<pdfrwt beam="1">  1       21 0.14056010E-01 0.33967632E+02</pdfrwt>
<pdfrwt beam="2">  1       21 0.11204866E+00 0.33967632E+02</pdfrwt>
<totfact> 0.32102378E+04</totfact>
</mgrwt>
</event>
<event>
 4    1  0.4578942E+006  0.2222722E+02  0.7546771E-02  0.1704352E+00
         21   -1    0    0  504  501  0.00000000000E+00  0.00000000000E+00  0.70414346664E+02  0.70414346664E+02  0.00000000000E+00 0.  1.
         21   -1    0    0  501  502 -0.00000000000E+00 -0.00000000000E+00 -0.11474055360E+03  0.11474055360E+03  0.00000000000E+00 0.  1.
         21    1    1    2  503  502  0.16285566280E+02 -0.15127111784E+02 -0.11186537948E+03  0.11405223499E+03  0.00000000000E+00 0.  1.
         21    1    1    2  504  503 -0.16285566280E+02  0.15127111784E+02  0.67539172548E+02  0.71102665270E+02  0.00000000000E+00 0.  1.
<mgrwt>
<rscale>  2 0.22227217E+02</rscale>
<asrwt>0</asrwt>
<pdfrwt beam="1">  1       21 0.10832977E-01 0.22227217E+02</pdfrwt>
<pdfrwt beam="2">  1       21 0.17652393E-01 0.22227217E+02</pdfrwt>
<totfact> 0.18111323E+06</totfact>
</mgrwt>
</event>
<event>
 4    1  0.4578942E+006  0.2246957E+02  0.7546771E-02  0.1700255E+00
         21   -1    0    0  503  501  0.00000000000E+00  0.00000000000E+00  0.16689288527E+03  0.16689288527E+03  0.00000000000E+00 0. -1.
         21   -1    0    0  504  502 -0.00000000000E+00 -0.00000000000E+00 -0.35491072096E+01  0.35491072096E+01  0.00000000000E+00 0. -1.
         21    1    1    2  503  502  0.20155236386E+02  0.99321789107E+01  0.48928716716E+02  0.53841443621E+02  0.00000000000E+00 0. -1.
         21    1    1    2  504  501 -0.20155236386E+02 -0.99321789107E+01  0.11441506134E+03  0.11660054885E+03  0.00000000000E+00 0. -1.
<mgrwt>
<rscale>  2 0.22469573E+02</rscale>
<asrwt>0</asrwt>
<pdfrwt beam="1">  1       21 0.25675822E-01 0.22469573E+02</pdfrwt>
<pdfrwt beam="2">  1       21 0.54601662E-03 0.22469573E+02</pdfrwt>
<totfact> 0.96985948E+07</totfact>
</mgrwt>
</event>
<event>
 4    1  0.4578942E+006  0.2353929E+02  0.7546771E-02  0.1682915E+00
         21   -1    0    0  503  501  0.00000000000E+00  0.00000000000E+00  0.21022831545E+03  0.21022831545E+03  0.00000000000E+00 0. -1.
         21   -1    0    0  504  502 -0.00000000000E+00 -0.00000000000E+00 -0.30142342182E+01  0.30142342182E+01  0.00000000000E+00 0. -1.
         21    1    1    2  503  502  0.33446126781E+00 -0.23536915777E+02  0.14139116098E+03  0.14333722013E+03  0.00000000000E+00 0. -1.
         21    1    1    2  504  501 -0.33446126781E+00  0.23536915777E+02  0.65822920249E+02  0.69905329545E+02  0.00000000000E+00 0. -1.
<mgrwt>
<rscale>  2 0.23539292E+02</rscale>
<asrwt>0</asrwt>
<pdfrwt beam="1">  1       21 0.32342806E-01 0.23539292E+02</pdfrwt>
<pdfrwt beam="2">  1       21 0.46372851E-03 0.23539292E+02</pdfrwt>
<totfact> 0.82260010E+07</totfact>
</mgrwt>
</event>
<event>
 4    1  0.4578942E+006  0.3184052E+02  0.7546771E-02  0.1578592E+00
         21   -1    0    0  502  501  0.00000000000E+00  0.00000000000E+00  0.49364678108E+01  0.49364678108E+01  0.00000000000E+00 0.  1.
         21   -1    0    0  503  502 -0.00000000000E+00 -0.00000000000E+00 -0.33605931784E+03  0.33605931784E+03  0.00000000000E+00 0.  1.
         21    1    1    2  503  504  0.28915401091E+02  0.13331111886E+02 -0.27188400669E+03  0.27374209040E+03  0.00000000000E+00 0.  1.
         21    1    1    2  504  501 -0.28915401091E+02 -0.13331111886E+02 -0.59238843342E+02  0.67253695251E+02  0.00000000000E+00 0.  1.
<mgrwt>
<rscale>  2 0.31840524E+02</rscale>
<asrwt>0</asrwt>
<pdfrwt beam="1">  1       21 0.75945639E-03 0.31840524E+02</pdfrwt>
<pdfrwt beam="2">  1       21 0.51701447E-01 0.31840524E+02</pdfrwt>
<totfact> 0.17181374E+07</totfact>
</mgrwt>
</event>
<event>
 4    1  0.4578942E+006  0.2760163E+02  0.7546771E-02  0.1626220E+00
         21   -1    0    0  504  501  0.00000000000E+00  0.00000000000E+00  0.20325027154E+02  0.20325027154E+02  0.00000000000E+00 0. -1.
         21   -1    0    0  503  502 -0.00000000000E+00 -0.00000000000E+00 -0.37597447064E+02  0.37597447064E+02  0.00000000000E+00 0. -1.
         21    1    1    2  503  501  0.27473507658E+02  0.26563739106E+01 -0.10231685881E+02  0.29437006325E+02  0.00000000000E+00 0. -1.
         21    1    1    2  504  502 -0.27473507658E+02 -0.26563739106E+01 -0.70407340286E+01  0.28485467893E+02  0.00000000000E+00 0. -1.
<mgrwt>
<rscale>  2 0.27601629E+02</rscale>
<asrwt>0</asrwt>
<pdfrwt beam="1">  1       21 0.31269273E-02 0.27601629E+02</pdfrwt>
<pdfrwt beam="2">  1       21 0.57842226E-02 0.27601629E+02</pdfrwt>
<totfact> 0.89376134E+07</totfact>
</mgrwt>
</event>
<event>
 4    1  0.4578942E+006  0.3369233E+02  0.7546771E-02  0.1560529E+00
         21   -1    0    0  503  501  0.00000000000E+00  0.00000000000E+00  0.36010148884E+03  0.36010148884E+03  0.00000000000E+00 0. -1.
         21   -1    0    0  504  502 -0.00000000000E+00 -0.00000000000E+00 -0.38618228366E+01  0.38618228366E+01  0.00000000000E+00 0.  1.
         21    1    1    2  503  502  0.18433360361E+02  0.28202558317E+02  0.25611959102E+03  0.25832618523E+03  0.00000000000E+00 0. -1.
         21    1    1    2  504  501 -0.18433360361E+02 -0.28202558317E+02  0.10012007499E+03  0.10563712645E+03  0.00000000000E+00 0.  1.
<mgrwt>
<rscale>  2 0.33692330E+02</rscale>
<asrwt>0</asrwt>
<pdfrwt beam="1">  1       21 0.55400203E-01 0.33692330E+02</pdfrwt>
<pdfrwt beam="2">  1       21 0.59412687E-03 0.33692330E+02</pdfrwt>
<totfact> 0.21854505E+07</totfact>
</mgrwt>
</event>
<event>
 4    1  0.4578942E+006  0.2364690E+02  0.7546771E-02  0.1681234E+00
         21   -1    0    0  503  501  0.00000000000E+00  0.00000000000E+00  0.32691689736E+01  0.32691689736E+01  0.00000000000E+00 0.  1.
         21   -1    0    0  504  502 -0.00000000000E+00 -0.00000000000E+00 -0.15379524403E+04  0.15379524403E+04  0.00000000000E+00 0. -1.
         21    1    1    2  503  502 -0.21889742384E+02  0.89451153211E+01 -0.14938375078E+04  0.14940246569E+04  0.00000000000E+00 0. -1.
         21    1    1    2  504  501  0.21889742384E+02 -0.89451153211E+01 -0.40845763575E+02  0.47196952357E+02  0.00000000000E+00 0.  1.
<mgrwt>
<rscale>  2 0.23646901E+02</rscale>
<asrwt>0</asrwt>
<pdfrwt beam="1">  1       21 0.50294908E-03 0.23646901E+02</pdfrwt>
<pdfrwt beam="2">  1       21 0.23660806E+00 0.23646901E+02</pdfrwt>
<totfact> 0.95819596E+05</totfact>
</mgrwt>
</event>
<event>
 4    1  0.4578942E+006  0.2281215E+02  0.7546771E-02  0.1694573E+00
         21   -1    0    0  502  501  0.00000000000E+00  0.00000000000E+00  0.36397332072E+03  0.36397332072E+03  0.00000000000E+00 0.  1.
         21   -1    0    0  504  502 -0.00000000000E+00 -0.00000000000E+00 -0.14653360607E+01  0.14653360607E+01  0.00000000000E+00 0.  1.
         21    1    1    2  503  501 -0.21403661726E+02  0.78915949486E+01  0.15278297412E+03  0.15447663638E+03  0.00000000000E+00 0.  1.
         21    1    1    2  504  503  0.21403661726E+02 -0.78915949486E+01  0.20972501054E+03  0.21096202040E+03  0.00000000000E+00 0.  1.
<mgrwt>
<rscale>  2 0.22812146E+02</rscale>
<asrwt>0</asrwt>
<pdfrwt beam="1">  1       21 0.55995824E-01 0.22812146E+02</pdfrwt>
<pdfrwt beam="2">  1       21 0.22543661E-03 0.22812146E+02</pdfrwt>
<totfact> 0.82329076E+07</totfact>
</mgrwt>
</event>
<event>
 4    1  0.4578942E+006  0.2099402E+02  0.7546771E-02  0.1726254E+00
         21   -1    0    0  502  501  0.00000000000E+00  0.00000000000E+00  0.35605897319E+02  0.35605897319E+02  0.00000000000E+00 0.  1.
         21   -1    0    0  503  502 -0.00000000000E+00 -0.00000000000E+00 -0.31472298355E+02  0.31472298355E+02  0.00000000000E+00 0. -1.
         21    1    1    2  503  504 -0.20913472883E+02 -0.18372643332E+01 -0.24056793039E+02  0.31929268385E+02  0.00000000000E+00 0. -1.
         21    1    1    2  504  501  0.20913472883E+02  0.18372643332E+01  0.28190392004E+02  0.35148927289E+02  0.00000000000E+00 0.  1.
<mgrwt>
<rscale>  2 0.20994020E+02</rscale>
<asrwt>0</asrwt>
<pdfrwt beam="1">  1       21 0.54778304E-02 0.20994020E+02</pdfrwt>
<pdfrwt beam="2">  1       21 0.48418920E-02 0.20994020E+02</pdfrwt>
<totfact> 0.45574125E+07</totfact>
</mgrwt>
</event>
<event>
 4    1  0.4578942E+006  0.2066950E+02  0.7546771E-02  0.1732333E+00
         21   -1    0    0  502  501  0.00000000000E+00  0.00000000000E+00  0.60100137616E+02  0.60100137616E+02  0.00000000000E+00 0.  1.
         21   -1    0    0  503  502 -0.00000000000E+00 -0.00000000000E+00 -0.26837210305E+02  0.26837210305E+02  0.00000000000E+00 0. -1.
         21    1    1    2  503  504 -0.13703715604E+02 -0.15473732805E+02 -0.20638235147E+02  0.29208987971E+02  0.00000000000E+00 0. -1.
         21    1    1    2  504  501  0.13703715604E+02  0.15473732805E+02  0.53901162458E+02  0.57728359951E+02  0.00000000000E+00 0.  1.
<mgrwt>
<rscale>  2 0.20669500E+02</rscale>
<asrwt>0</asrwt>
<pdfrwt beam="1">  1       21 0.92461750E-02 0.20669500E+02</pdfrwt>
<pdfrwt beam="2">  1       21 0.41288016E-02 0.20669500E+02</pdfrwt>
<totfact> 0.25064056E+07</totfact>
</mgrwt>
</event>
<event>
 4    1  0.4578942E+006  0.2021407E+02  0.7546771E-02  0.1741104E+00
         21   -1    0    0  503  501  0.00000000000E+00  0.00000000000E+00  0.66789983752E+02  0.66789983752E+02  0.00000000000E+00 0.  1.
         21   -1    0    0  504  502 -0.00000000000E+00 -0.00000000000E+00 -0.13431543575E+02  0.13431543575E+02  0.00000000000E+00 0.  1.
         21    1    1    2  503  502 -0.12293724614E+02  0.16045966500E+02  0.56277564089E+02  0.59797766895E+02  0.00000000000E+00 0.  1.
         21    1    1    2  504  501  0.12293724614E+02 -0.16045966500E+02 -0.29191239125E+01  0.20423760433E+02  0.00000000000E+00 0.  1.
<mgrwt>
<rscale>  2 0.20214072E+02</rscale>
<asrwt>0</asrwt>
<pdfrwt beam="1">  1       21 0.10275382E-01 0.20214072E+02</pdfrwt>
<pdfrwt beam="2">  1       21 0.20663914E-02 0.20214072E+02</pdfrwt>
<totfact> 0.61216862E+07</totfact>
</mgrwt>
</event>
<event>
 4    1  0.4578942E+006  0.2022208E+02  0.7546771E-02  0.1740947E+00
         21   -1    0    0  502  501  0.00000000000E+00  0.00000000000E+00  0.46255573580E+02  0.46255573580E+02  0.00000000000E+00 0.  1.
         21   -1    0    0  504  502 -0.00000000000E+00 -0.00000000000E+00 -0.15975730733E+03  0.15975730733E+03  0.00000000000E+00 0. -1.
         21    1    1    2  503  501  0.85853432901E+01 -0.18309133988E+02  0.43364905868E+02  0.47848172041E+02  0.00000000000E+00 0.  1.
         21    1    1    2  504  503 -0.85853432901E+01  0.18309133988E+02 -0.15686663961E+03  0.15816470887E+03  0.00000000000E+00 0. -1.
<mgrwt>
<rscale>  2 0.20222080E+02</rscale>
<asrwt>0</asrwt>
<pdfrwt beam="1">  1       21 0.71162423E-02 0.20222080E+02</pdfrwt>
<pdfrwt beam="2">  1       21 0.24578047E-01 0.20222080E+02</pdfrwt>
<totfact> 0.19966782E+06</totfact>
</mgrwt>
</event>
<event>
 4    1  0.4578942E+006  0.2063984E+02  0.7546771E-02  0.1732895E+00
         21   -1    0    0  504  501  0.00000000000E+00  0.00000000000E+00  0.20255630159E+03  0.20255630159E+03  0.00000000000E+00 0. -1.
         21   -1    0    0  501  502 -0.00000000000E+00 -0.00000000000E+00 -0.21049604251E+01  0.21049604251E+01  0.00000000000E+00 0.  1.
         21    1    1    2  503  502  0.20604095949E+02 -0.12141400920E+01  0.97210818294E+02  0.99377794801E+02  0.00000000000E+00 0. -1.
         21    1    1    2  504  503 -0.20604095949E+02  0.12141400920E+01  0.10324052287E+03  0.10528346721E+03  0.00000000000E+00 0.  1.
<mgrwt>
<rscale>  2 0.20639838E+02</rscale>
<asrwt>0</asrwt>
<pdfrwt beam="1">  1       21 0.31162492E-01 0.20639838E+02</pdfrwt>
<pdfrwt beam="2">  1       21 0.32384023E-03 0.20639838E+02</pdfrwt>
<totfact> 0.14363040E+08</totfact>
</mgrwt>
</event>
<event>
 4    1  0.4578942E+006  0.3749612E+02  0.7546771E-02  0.1527490E+00
         21   -1    0    0  502  501  0.00000000000E+00  0.00000000000E+00  0.49615700932E+02  0.49615700932E+02  0.00000000000E+00 0.  1.
         21   -1    0    0  503  502 -0.00000000000E+00 -0.00000000000E+00 -0.39128775919E+02  0.39128775919E+02  0.00000000000E+00 0.  1.
         21    1    1    2  503  504  0.34911851593E+01 -0.37333238196E+02 -0.18059444397E+02  0.41618536494E+02  0.00000000000E+00 0.  1.
         21    1    1    2  504  501 -0.34911851593E+01  0.37333238196E+02  0.28546369410E+02  0.47125940357E+02  0.00000000000E+00 0.  1.
<mgrwt>
<rscale>  2 0.37496120E+02</rscale>
<asrwt>0</asrwt>
<pdfrwt beam="1">  1       21 0.76331847E-02 0.37496120E+02</pdfrwt>
<pdfrwt beam="2">  1       21 0.60198117E-02 0.37496120E+02</pdfrwt>
<totfact> 0.21205779E+07</totfact>
</mgrwt>
</event>
<event>
 4    1  0.4578942E+006  0.3265271E+02  0.7546771E-02  0.1570491E+00
         21   -1    0    0  504  501  0.00000000000E+00  0.00000000000E+00  0.10044243576E+02  0.10044243576E+02  0.00000000000E+00 0.  1.
         21   -1    0    0  501  502 -0.00000000000E+00 -0.00000000000E+00 -0.37433593670E+03  0.37433593670E+03  0.00000000000E+00 0. -1.
         21    1    1    2  503  502  0.96483796256E+01  0.31194687016E+02 -0.34481977923E+03  0.34636235343E+03  0.00000000000E+00 0. -1.
         21    1    1    2  504  503 -0.96483796256E+01 -0.31194687016E+02 -0.19471913900E+02  0.38017826849E+02  0.00000000000E+00 0.  1.
<mgrwt>
<rscale>  2 0.32652714E+02</rscale>
<asrwt>0</asrwt>
<pdfrwt beam="1">  1       21 0.15452683E-02 0.32652714E+02</pdfrwt>
<pdfrwt beam="2">  1       21 0.57590142E-01 0.32652714E+02</pdfrwt>
<totfact> 0.47121990E+06</totfact>
</mgrwt>
</event>
<event>
 4    1  0.4578942E+006  0.2144182E+02  0.7546771E-02  0.1718088E+00
         21   -1    0    0  504  501  0.00000000000E+00  0.00000000000E+00  0.42075199215E+02  0.42075199215E+02  0.00000000000E+00 0.  1.
         21   -1    0    0  503  502 -0.00000000000E+00 -0.00000000000E+00 -0.13727328023E+04  0.13727328023E+04  0.00000000000E+00 0.  1.
         21    1    1    2  503  501  0.21429482812E+02 -0.72715462825E+00  0.39254119881E+02  0.44728485499E+02  0.00000000000E+00 0.  1.
         21    1    1    2  504  502 -0.21429482812E+02  0.72715462825E+00 -0.13699117229E+04  0.13700795160E+04  0.00000000000E+00 0.  1.
<mgrwt>
<rscale>  2 0.21441816E+02</rscale>
<asrwt>0</asrwt>
<pdfrwt beam="1">  1       21 0.64731083E-02 0.21441816E+02</pdfrwt>
<pdfrwt beam="2">  1       21 0.21118964E+00 0.21441816E+02</pdfrwt>
<totfact> 0.26019988E+04</totfact>
</mgrwt>
</event>
<event>
 4    1  0.4578942E+006  0.2405150E+02  0.7546771E-02  0.1675012E+00
         21   -1    0    0  504  501  0.00000000000E+00  0.00000000000E+00  0.50953985514E+02  0.50953985514E+02  0.00000000000E+00 0. -1.
         21   -1    0    0  503  502 -0.00000000000E+00 -0.00000000000E+00 -0.86615153906E+02  0.86615153906E+02  0.00000000000E+00 0.  1.
         21    1    1    2  503  501 -0.24046327331E+02 -0.49875912233E+00  0.46287825803E+02  0.52163564261E+02  0.00000000000E+00 0. -1.
         21    1    1    2  504  502  0.24046327331E+02  0.49875912233E+00 -0.81948994195E+02  0.85405575160E+02  0.00000000000E+00 0.  1.
<mgrwt>
<rscale>  2 0.24051499E+02</rscale>
<asrwt>0</asrwt>
<pdfrwt beam="1">  1       21 0.78390747E-02 0.24051499E+02</pdfrwt>
<pdfrwt beam="2">  1       21 0.13325408E-01 0.24051499E+02</pdfrwt>
<totfact> 0.50414898E+06</totfact>
</mgrwt>
</event>
<event>
 4    1  0.4578942E+006  0.2074039E+02  0.7546771E-02  0.1730993E+00
         21   -1    0    0  504  501  0.00000000000E+00  0.00000000000E+00  0.20116130867E+02  0.20116130867E+02  0.00000000000E+00 0.  1.
         21   -1    0    0  503  502 -0.00000000000E+00 -0.00000000000E+00 -0.23215096456E+02  0.23215096456E+02  0.00000000000E+00 0.  1.
         21    1    1    2  503  501 -0.61991632800E+00  0.20731125602E+02 -0.76341703022E+01  0.22100778746E+02  0.00000000000E+00 0.  1.
         21    1    1    2  504  502  0.61991632800E+00 -0.20731125602E+02  0.45352047129E+01  0.21230448577E+02  0.00000000000E+00 0.  1.
<mgrwt>
<rscale>  2 0.20740392E+02</rscale>
<asrwt>0</asrwt>
<pdfrwt beam="1">  1       21 0.30947894E-02 0.20740392E+02</pdfrwt>
<pdfrwt beam="2">  1       21 0.35715533E-02 0.20740392E+02</pdfrwt>
<totfact> 0.17982762E+08</totfact>
</mgrwt>
</event>
<event>
 4    1  0.4578942E+006  0.2193756E+02  0.7546771E-02  0.1709334E+00
         21   -1    0    0  503  501  0.00000000000E+00  0.00000000000E+00  0.52757713058E+03  0.52757713058E+03  0.00000000000E+00 0. -1.
         21   -1    0    0  504  502 -0.00000000000E+00 -0.00000000000E+00 -0.10049336367E+01  0.10049336367E+01  0.00000000000E+00 0. -1.
         21    1    1    2  503  502 -0.19667196603E+02 -0.97189538135E+01  0.18300215232E+03  0.18431235563E+03  0.00000000000E+00 0. -1.
         21    1    1    2  504  501  0.19667196603E+02  0.97189538135E+01  0.34357004463E+03  0.34426970859E+03  0.00000000000E+00 0. -1.
<mgrwt>
<rscale>  2 0.21937563E+02</rscale>
<asrwt>0</asrwt>
<pdfrwt beam="1">  1       21 0.81165491E-01 0.21937563E+02</pdfrwt>
<pdfrwt beam="2">  1       21 0.15460560E-03 0.21937563E+02</pdfrwt>
<totfact> 0.65937398E+07</totfact>
</mgrwt>
</event>
<event>
 4    1  0.4578942E+006  0.4507774E+02  0.7546771E-02  0.1473857E+00
         21   -1    0    0  502  501  0.00000000000E+00  0.00000000000E+00  0.25786509258E+03  0.25786509258E+03  0.00000000000E+00 0. -1.
         21   -1    0    0  503  502 -0.00000000000E+00 -0.00000000000E+00 -0.19538268652E+02  0.19538268652E+02  0.00000000000E+00 0.  1.
         21    1    1    2  503  504 -0.28986921263E+02  0.34521896286E+02  0.12022870592E+02  0.46653535180E+02  0.00000000000E+00 0.  1.
         21    1    1    2  504  501  0.28986921263E+02 -0.34521896286E+02  0.22630395334E+03  0.23074982606E+03  0.00000000000E+00 0. -1.
<mgrwt>
<rscale>  2 0.45077743E+02</rscale>
<asrwt>0</asrwt>
<pdfrwt beam="1">  1       21 0.39671550E-01 0.45077743E+02</pdfrwt>
<pdfrwt beam="2">  1       21 0.30058877E-02 0.45077743E+02</pdfrwt>
<totfact> 0.35825178E+06</totfact>
</mgrwt>
</event>
<event>
 4    1  0.4578942E+006  0.2497456E+02  0.7546771E-02  0.1661368E+00
         21   -1    0    0  504  501  0.00000000000E+00  0.00000000000E+00  0.47214074032E+01  0.47214074032E+01  0.00000000000E+00 0. -1.
         21   -1    0    0  501  502 -0.00000000000E+00 -0.00000000000E+00 -0.31604068871E+03  0.31604068871E+03  0.00000000000E+00 0. -1.
         21    1    1    2  503  502  0.12942086613E+02 -0.21359571212E+02 -0.27801210122E+03  0.27913161289E+03  0.00000000000E+00 0. -1.
         21    1    1    2  504  503 -0.12942086613E+02  0.21359571212E+02 -0.33307180085E+02  0.41630483224E+02  0.00000000000E+00 0. -1.
<mgrwt>
<rscale>  2 0.24974565E+02</rscale>
<asrwt>0</asrwt>
<pdfrwt beam="1">  1       21 0.72637051E-03 0.24974565E+02</pdfrwt>
<pdfrwt beam="2">  1       21 0.48621635E-01 0.24974565E+02</pdfrwt>
<totfact> 0.19850048E+07</totfact>
</mgrwt>
</event>
<event>
 4    1  0.4578942E+006  0.3825188E+02  0.7546771E-02  0.1521484E+00
         21   -1    0    0  503  501  0.00000000000E+00  0.00000000000E+00  0.39888037911E+02  0.39888037911E+02  0.00000000000E+00 0. -1.
         21   -1    0    0  504  502 -0.00000000000E+00 -0.00000000000E+00 -0.44446355867E+02  0.44446355867E+02  0.00000000000E+00 0. -1.
         21    1    1    2  503  502  0.37960737574E+02  0.47105232318E+01  0.15344082615E+02  0.41214651492E+02  0.00000000000E+00 0. -1.
         21    1    1    2  504  501 -0.37960737574E+02 -0.47105232318E+01 -0.19902400571E+02  0.43119742286E+02  0.00000000000E+00 0. -1.
<mgrwt>
<rscale>  2 0.38251884E+02</rscale>
<asrwt>0</asrwt>
<pdfrwt beam="1">  1       21 0.61366213E-02 0.38251884E+02</pdfrwt>
<pdfrwt beam="2">  1       21 0.68379009E-02 0.38251884E+02</pdfrwt>
<totfact> 0.24730612E+07</totfact>
</mgrwt>
</event>
<event>
 4    1  0.4578942E+006  0.2113314E+02  0.7546771E-02  0.1723690E+00
         21   -1    0    0  503  501  0.00000000000E+00  0.00000000000E+00  0.11885094477E+04  0.11885094477E+04  0.00000000000E+00 0. -1.
         21   -1    0    0  504  502 -0.00000000000E+00 -0.00000000000E+00 -0.17209553949E+02  0.17209553949E+02  0.00000000000E+00 0. -1.
         21    1    1    2  503  502  0.19171960050E+02 -0.88907583255E+01 -0.10591469257E+02  0.23638715210E+02  0.00000000000E+00 0. -1.
         21    1    1    2  504  501 -0.19171960050E+02  0.88907583255E+01  0.11818913630E+04  0.11820802864E+04  0.00000000000E+00 0. -1.
<mgrwt>
<rscale>  2 0.21133141E+02</rscale>
<asrwt>0</asrwt>
<pdfrwt beam="1">  1       21 0.18284754E+00 0.21133141E+02</pdfrwt>
<pdfrwt beam="2">  1       21 0.26476246E-02 0.21133141E+02</pdfrwt>
<totfact> 0.15352587E+05</totfact>
</mgrwt>
</event>
<event>
 4    1  0.4578942E+006  0.3110867E+02  0.7546771E-02  0.1586147E+00
         21   -1    0    0  503  501  0.00000000000E+00  0.00000000000E+00  0.33628863805E+04  0.33628863805E+04  0.00000000000E+00 0.  1.
         21   -1    0    0  501  502 -0.00000000000E+00 -0.00000000000E+00 -0.29588739492E+00  0.29588739492E+00  0.00000000000E+00 0.  1.
         21    1    1    2  503  504  0.18669227184E+02  0.24883918038E+02  0.19597618806E+04  0.19600087699E+04  0.00000000000E+00 0.  1.
         21    1    1    2  504  502 -0.18669227184E+02 -0.24883918038E+02  0.14028286125E+04  0.14031734980E+04  0.00000000000E+00 0.  1.
<mgrwt>
<rscale>  2 0.31108671E+02</rscale>
<asrwt>0</asrwt>
<pdfrwt beam="1">  1       21 0.51733653E+00 0.31108671E+02</pdfrwt>
<pdfrwt beam="2">  1       21 0.45523831E-04 0.31108671E+02</pdfrwt>
<totfact> 0.83952398E+05</totfact>
</mgrwt>
</event>
<event>
 4    1  0.4578942E+006  0.3587439E+02  0.7546771E-02  0.1540970E+00
         21   -1    0    0  503  501  0.00000000000E+00  0.00000000000E+00  0.10473926061E+01  0.10473926061E+01  0.00000000000E+00 0.  1.
         21   -1    0    0  504  502 -0.00000000000E+00 -0.00000000000E+00 -0.12976622956E+04  0.12976622956E+04  0.00000000000E+00 0.  1.
         21    1    1    2  503  502  0.18463827933E+02 -0.30758065841E+02 -0.49865424535E+03  0.49994302471E+03  0.00000000000E+00 0.  1.
         21    1    1    2  504  501 -0.18463827933E+02  0.30758065841E+02 -0.79796065763E+03  0.79876666347E+03  0.00000000000E+00 0.  1.
<mgrwt>
<rscale>  2 0.35874386E+02</rscale>
<asrwt>0</asrwt>
<pdfrwt beam="1">  1       21 0.16113734E-03 0.35874386E+02</pdfrwt>
<pdfrwt beam="2">  1       21 0.19964033E+00 0.35874386E+02</pdfrwt>
<totfact> 0.82126013E+06</totfact>
</mgrwt>
</event>
<event>
 4    1  0.4578942E+006  0.2414119E+02  0.7546771E-02  0.1673653E+00
         21   -1    0    0  504  501  0.00000000000E+00  0.00000000000E+00  0.72366851964E+03  0.72366851964E+03  0.00000000000E+00 0.  1.
         21   -1    0    0  501  502 -0.00000000000E+00 -0.00000000000E+00 -0.10721749668E+01  0.10721749668E+01  0.00000000000E+00 0. -1.
         21    1    1    2  503  502 -0.22577734273E+02  0.85465108829E+01  0.18052093459E+03  0.18212799005E+03  0.00000000000E+00 0. -1.
         21    1    1    2  504  503  0.22577734273E+02 -0.85465108829E+01  0.54207541008E+03  0.54261270455E+03  0.00000000000E+00 0.  1.
<mgrwt>
<rscale>  2 0.24141187E+02</rscale>
<asrwt>0</asrwt>
<pdfrwt beam="1">  1       21 0.11133323E+00 0.24141187E+02</pdfrwt>
<pdfrwt beam="2">  1       21 0.16495057E-03 0.24141187E+02</pdfrwt>
<totfact> 0.30927464E+07</totfact>
</mgrwt>
</event>
<event>
 4    1  0.4578942E+006  0.3100142E+02  0.7546771E-02  0.1587276E+00
         21   -1    0    0  503  501  0.00000000000E+00  0.00000000000E+00  0.11311217854E+02  0.11311217854E+02  0.00000000000E+00 0. -1.
         21   -1    0    0  504  502 -0.00000000000E+00 -0.00000000000E+00 -0.11973190912E+03  0.11973190912E+03  0.00000000000E+00 0. -1.
         21    1    1    2  503  502 -0.28567685993E+02  0.12040576845E+02 -0.18904593280E+02  0.36310767285E+02  0.00000000000E+00 0. -1.
         21    1    1    2  504  501  0.28567685993E+02 -0.12040576845E+02 -0.89516097985E+02  0.94732359688E+02  0.00000000000E+00 0. -1.
<mgrwt>
<rscale>  2 0.31001422E+02</rscale>
<asrwt>0</asrwt>
<pdfrwt beam="1">  1       21 0.17401874E-02 0.31001422E+02</pdfrwt>
<pdfrwt beam="2">  1       21 0.18420293E-01 0.31001422E+02</pdfrwt>
<totfact> 0.32751356E+07</totfact>
</mgrwt>
</event>
<event>
 4    1  0.4578942E+006  0.2188394E+02  0.7546771E-02  0.1710267E+00
         21   -1    0    0  503  501  0.00000000000E+00  0.00000000000E+00  0.36083960916E+03  0.36083960916E+03  0.00000000000E+00 0.  1.
         21   -1    0    0  504  502 -0.00000000000E+00 -0.00000000000E+00 -0.15816758072E+01  0.15816758072E+01  0.00000000000E+00 0.  1.
         21    1    1    2  503  502 -0.19322861396E+02  0.10272969435E+02  0.25231432361E+03  0.25326157382E+03  0.00000000000E+00 0.  1.
         21    1    1    2  504  501  0.19322861396E+02 -0.10272969435E+02  0.10694360974E+03  0.10915971114E+03  0.00000000000E+00 0.  1.
<mgrwt>
<rscale>  2 0.21883941E+02</rscale>
<asrwt>0</asrwt>
<pdfrwt beam="1">  1       21 0.55513721E-01 0.21883941E+02</pdfrwt>
<pdfrwt beam="2">  1       21 0.24333503E-03 0.21883941E+02</pdfrwt>
<totfact> 0.74198701E+07</totfact>
</mgrwt>
</event>
<event>
 4    1  0.4578942E+006  0.2211771E+02  0.7546771E-02  0.1706224E+00
         21   -1    0    0  504  501  0.00000000000E+00  0.00000000000E+00  0.94099574390E+02  0.94099574390E+02  0.00000000000E+00 0. -1.
         21   -1    0    0  503  502 -0.00000000000E+00 -0.00000000000E+00 -0.11781847878E+02  0.11781847878E+02  0.00000000000E+00 0. -1.
         21    1    1    2  503  501 -0.17624918435E+02  0.13362463377E+02  0.15857088265E+01  0.22174481952E+02  0.00000000000E+00 0. -1.
         21    1    1    2  504  502  0.17624918435E+02 -0.13362463377E+02  0.80732017685E+02  0.83706940315E+02  0.00000000000E+00 0. -1.
<mgrwt>
<rscale>  2 0.22117712E+02</rscale>
<asrwt>0</asrwt>
<pdfrwt beam="1">  1       21 0.14476857E-01 0.22117712E+02</pdfrwt>
<pdfrwt beam="2">  1       21 0.18125920E-02 0.22117712E+02</pdfrwt>
<totfact> 0.43188834E+07</totfact>
</mgrwt>
</event>
<event>
 4    1  0.4578942E+006  0.3073382E+02  0.7546771E-02  0.1590116E+00
         21   -1    0    0  504  501  0.00000000000E+00  0.00000000000E+00  0.47667056562E+02  0.47667056562E+02  0.00000000000E+00 0.  1.
         21   -1    0    0  501  502 -0.00000000000E+00 -0.00000000000E+00 -0.13898368640E+03  0.13898368640E+03  0.00000000000E+00 0. -1.
         21    1    1    2  503  502 -0.21152518891E+02 -0.22296599997E+02 -0.13207491610E+03  0.13560365367E+03  0.00000000000E+00 0. -1.
         21    1    1    2  504  503  0.21152518891E+02  0.22296599997E+02  0.40758286256E+02  0.51047089294E+02  0.00000000000E+00 0.  1.
<mgrwt>
<rscale>  2 0.30733816E+02</rscale>
<asrwt>0</asrwt>
<pdfrwt beam="1">  1       21 0.73333933E-02 0.30733816E+02</pdfrwt>
<pdfrwt beam="2">  1       21 0.21382106E-01 0.30733816E+02</pdfrwt>
<totfact> 0.25610551E+06</totfact>
</mgrwt>
</event>
<event>
 4    1  0.4578942E+006  0.2055221E+02  0.7546771E-02  0.1734565E+00
         21   -1    0    0  503  501  0.00000000000E+00  0.00000000000E+00  0.66497911495E+01  0.66497911495E+01  0.00000000000E+00 0.  1.
         21   -1    0    0  504  502 -0.00000000000E+00 -0.00000000000E+00 -0.70436486022E+02  0.70436486022E+02  0.00000000000E+00 0.  1.
         21    1    1    2  503  502 -0.10961585435E+02  0.17384962559E+02 -0.19815268631E+02  0.28548872996E+02  0.00000000000E+00 0.  1.
         21    1    1    2  504  501  0.10961585435E+02 -0.17384962559E+02 -0.43971426242E+02  0.48537404176E+02  0.00000000000E+00 0.  1.
<mgrwt>
<rscale>  2 0.20552209E+02</rscale>
<asrwt>0</asrwt>
<pdfrwt beam="1">  1       21 0.10230448E-02 0.20552209E+02</pdfrwt>
<pdfrwt beam="2">  1       21 0.10836382E-01 0.20552209E+02</pdfrwt>
<totfact> 0.16312064E+08</totfact>
</mgrwt>
</event>
<event>
 4    1  0.4578942E+006  0.2584169E+02  0.7546771E-02  0.1649199E+00
         21   -1    0    0  504  501  0.00000000000E+00  0.00000000000E+00  0.10131787274E+02  0.10131787274E+02  0.00000000000E+00 0. -1.
         21   -1    0    0  503  502 -0.00000000000E+00 -0.00000000000E+00 -0.70224224732E+02  0.70224224732E+02  0.00000000000E+00 0. -1.
         21    1    1    2  503  501  0.14669301464E+02  0.21274504206E+02 -0.20088443363E+02  0.32731307511E+02  0.00000000000E+00 0. -1.
         21    1    1    2  504  502 -0.14669301464E+02 -0.21274504206E+02 -0.40003994096E+02  0.47624704495E+02  0.00000000000E+00 0. -1.
<mgrwt>
<rscale>  2 0.25841690E+02</rscale>
<asrwt>0</asrwt>
<pdfrwt beam="1">  1       21 0.15587365E-02 0.25841690E+02</pdfrwt>
<pdfrwt beam="2">  1       21 0.10803727E-01 0.25841690E+02</pdfrwt>
<totfact> 0.92625493E+07</totfact>
</mgrwt>
</event>
<event>
 4    1  0.4578942E+006  0.2166130E+02  0.7546771E-02  0.1714176E+00
         21   -1    0    0  502  501  0.00000000000E+00  0.00000000000E+00  0.41913919014E+03  0.41913919014E+03  0.00000000000E+00 0.  1.
         21   -1    0    0  504  502 -0.00000000000E+00 -0.00000000000E+00 -0.21785535484E+02  0.21785535484E+02  0.00000000000E+00 0. -1.
         21    1    1    2  503  501 -0.19449107073E+02  0.95364617155E+01  0.41340018307E+03  0.41396729729E+03  0.00000000000E+00 0.  1.
         21    1    1    2  504  503  0.19449107073E+02 -0.95364617155E+01 -0.16046528413E+02  0.26957428329E+02  0.00000000000E+00 0. -1.
<mgrwt>
<rscale>  2 0.21661299E+02</rscale>
<asrwt>0</asrwt>
<pdfrwt beam="1">  1       21 0.64482947E-01 0.21661299E+02</pdfrwt>
<pdfrwt beam="2">  1       21 0.33516211E-02 0.21661299E+02</pdfrwt>
<totfact> 0.10811724E+06</totfact>
</mgrwt>
</event>
<event>
 4    1  0.4578942E+006  0.2395619E+02  0.7546771E-02  0.1676463E+00
         21   -1    0    0  502  501  0.00000000000E+00  0.00000000000E+00  0.27020896622E+01  0.27020896622E+01  0.00000000000E+00 0. -1.
         21   -1    0    0  504  502 -0.00000000000E+00 -0.00000000000E+00 -0.71361933099E+03  0.71361933099E+03  0.00000000000E+00 0. -1.
         21    1    1    2  503  501 -0.20423859011E+02  0.12520584121E+02 -0.55291912620E+02  0.60258564908E+02  0.00000000000E+00 0. -1.
         21    1    1    2  504  503  0.20423859011E+02 -0.12520584121E+02 -0.65562532871E+03  0.65606285574E+03  0.00000000000E+00 0. -1.
<mgrwt>
<rscale>  2 0.23956190E+02</rscale>
<asrwt>0</asrwt>
<pdfrwt beam="1">  1       21 0.41570557E-03 0.23956190E+02</pdfrwt>
<pdfrwt beam="2">  1       21 0.10978773E+00 0.23956190E+02</pdfrwt>
<totfact> 0.83042229E+06</totfact>
</mgrwt>
</event>
<event>
 4    1  0.4578942E+006  0.2992219E+02  0.7546771E-02  0.1598950E+00
         21   -1    0    0  503  501  0.00000000000E+00  0.00000000000E+00  0.47742968922E+01  0.47742968922E+01  0.00000000000E+00 0. -1.
         21   -1    0    0  504  502 -0.00000000000E+00 -0.00000000000E+00 -0.21110704478E+03  0.21110704478E+03  0.00000000000E+00 0.  1.
         21    1    1    2  503  502 -0.42736957383E+01 -0.29615412979E+02 -0.67095817435E+02  0.73465542116E+02  0.00000000000E+00 0. -1.
         21    1    1    2  504  501  0.42736957383E+01  0.29615412979E+02 -0.13923693045E+03  0.14241579955E+03  0.00000000000E+00 0.  1.
<mgrwt>
<rscale>  2 0.29922185E+02</rscale>
<asrwt>0</asrwt>
<pdfrwt beam="1">  1       21 0.73450757E-03 0.29922185E+02</pdfrwt>
<pdfrwt beam="2">  1       21 0.32477991E-01 0.29922185E+02</pdfrwt>
<totfact> 0.43518089E+07</totfact>
</mgrwt>
</event>
<event>
 4    1  0.4578942E+006  0.2024504E+02  0.7546771E-02  0.1740499E+00
         21   -1    0    0  502  501  0.00000000000E+00  0.00000000000E+00  0.14694132733E+03  0.14694132733E+03  0.00000000000E+00 0.  1.
         21   -1    0    0  504  502 -0.00000000000E+00 -0.00000000000E+00 -0.28024449314E+01  0.28024449314E+01  0.00000000000E+00 0.  1.
         21    1    1    2  503  501 -0.14168218661E+02 -0.14461097405E+02  0.66939423444E+02  0.69933884271E+02  0.00000000000E+00 0.  1.
         21    1    1    2  504  503  0.14168218661E+02  0.14461097405E+02  0.77199458955E+02  0.79809887991E+02  0.00000000000E+00 0.  1.
<mgrwt>
<rscale>  2 0.20245043E+02</rscale>
<asrwt>0</asrwt>
<pdfrwt beam="1">  1       21 0.22606352E-01 0.20245043E+02</pdfrwt>
<pdfrwt beam="2">  1       21 0.43114549E-03 0.20245043E+02</pdfrwt>
<totfact> 0.16686809E+08</totfact>
</mgrwt>
</event>
<event>
 4    1  0.4578942E+006  0.3095657E+02  0.7546771E-02  0.1587750E+00
         21   -1    0    0  504  501  0.00000000000E+00  0.00000000000E+00  0.11722731346E+03  0.11722731346E+03  0.00000000000E+00 0.  1.
         21   -1    0    0  503  502 -0.00000000000E+00 -0.00000000000E+00 -0.87812186894E+01  0.87812186894E+01  0.00000000000E+00 0.  1.
         21    1    1    2  503  501  0.11604024601E+02  0.28699402827E+02  0.70780025948E+02  0.77253615985E+02  0.00000000000E+00 0.  1.
         21    1    1    2  504  502 -0.11604024601E+02 -0.28699402827E+02  0.37666068819E+02  0.48754916161E+02  0.00000000000E+00 0.  1.
<mgrwt>
<rscale>  2 0.30956568E+02</rscale>
<asrwt>0</asrwt>
<pdfrwt beam="1">  1       21 0.18034970E-01 0.30956568E+02</pdfrwt>
<pdfrwt beam="2">  1       21 0.13509568E-02 0.30956568E+02</pdfrwt>
<totfact> 0.50139686E+07</totfact>
</mgrwt>
</event>
<event>
 4    1  0.4578942E+006  0.4075466E+02  0.7546771E-02  0.1502730E+00
         21   -1    0    0  502  501  0.00000000000E+00  0.00000000000E+00  0.10711157911E+02  0.10711157911E+02  0.00000000000E+00 0. -1.
         21   -1    0    0  504  502 -0.00000000000E+00 -0.00000000000E+00 -0.15510521295E+03  0.15510521295E+03  0.00000000000E+00 0. -1.
         21    1    1    2  503  501  0.40505795880E+02  0.44969415975E+01 -0.70887545649E+02  0.81767879463E+02  0.00000000000E+00 0. -1.
         21    1    1    2  504  503 -0.40505795880E+02 -0.44969415975E+01 -0.73506509389E+02  0.84048491398E+02  0.00000000000E+00 0. -1.
<mgrwt>
<rscale>  2 0.40754656E+02</rscale>
<asrwt>0</asrwt>
<pdfrwt beam="1">  1       21 0.16478705E-02 0.40754656E+02</pdfrwt>
<pdfrwt beam="2">  1       21 0.23862340E-01 0.40754656E+02</pdfrwt>
<totfact> 0.23578448E+07</totfact>
</mgrwt>
</event>
<event>
 4    1  0.4578942E+006  0.2258408E+02  0.7546771E-02  0.1698342E+00
         21   -1    0    0  503  501  0.00000000000E+00  0.00000000000E+00  0.13557734280E+04  0.13557734280E+04  0.00000000000E+00 0. -1.
         21   -1    0    0  504  502 -0.00000000000E+00 -0.00000000000E+00 -0.37618686252E+01  0.37618686252E+01  0.00000000000E+00 0. -1.
         21    1    1    2  503  502  0.13786096516E+02  0.17888106241E+02  0.13208888246E+04  0.13210818778E+04  0.00000000000E+00 0. -1.
         21    1    1    2  504  501 -0.13786096516E+02 -0.17888106241E+02  0.31122734758E+02  0.38453418845E+02  0.00000000000E+00 0. -1.
<mgrwt>
<rscale>  2 0.22584083E+02</rscale>
<asrwt>0</asrwt>
<pdfrwt beam="1">  1       21 0.20858014E+00 0.22584083E+02</pdfrwt>
<pdfrwt beam="2">  1       21 0.57875010E-03 0.22584083E+02</pdfrwt>
<totfact> 0.10913733E+06</totfact>
</mgrwt>
</event>
<event>
 4    1  0.4578942E+006  0.2480123E+02  0.7546771E-02  0.1663873E+00
         21   -1    0    0  504  501  0.00000000000E+00  0.00000000000E+00  0.22875353257E+03  0.22875353257E+03  0.00000000000E+00 0. -1.
         21   -1    0    0  503  502 -0.00000000000E+00 -0.00000000000E+00 -0.31361744870E+01  0.31361744870E+01  0.00000000000E+00 0. -1.
         21    1    1    2  503  501 -0.11595046303E+02 -0.21923870596E+02  0.69023607509E+02  0.73344117653E+02  0.00000000000E+00 0. -1.
         21    1    1    2  504  502  0.11595046303E+02  0.21923870596E+02  0.15659375057E+03  0.15854558940E+03  0.00000000000E+00 0. -1.
<mgrwt>
<rscale>  2 0.24801234E+02</rscale>
<asrwt>0</asrwt>
<pdfrwt beam="1">  1       21 0.35192838E-01 0.24801234E+02</pdfrwt>
<pdfrwt beam="2">  1       21 0.48248856E-03 0.24801234E+02</pdfrwt>
<totfact> 0.67246629E+07</totfact>
</mgrwt>
</event>
<event>
 4    1  0.4578942E+006  0.2097415E+02  0.7546771E-02  0.1726622E+00
         21   -1    0    0  503  501  0.00000000000E+00  0.00000000000E+00  0.10414123417E+03  0.10414123417E+03  0.00000000000E+00 0.  1.
         21   -1    0    0  501  502 -0.00000000000E+00 -0.00000000000E+00 -0.37142752221E+02  0.37142752221E+02  0.00000000000E+00 0. -1.
         21    1    1    2  503  504 -0.17858268273E+02  0.10999881255E+02  0.10000299443E+03  0.10217883356E+03  0.00000000000E+00 0.  1.
         21    1    1    2  504  502  0.17858268273E+02 -0.10999881255E+02 -0.33004512483E+02  0.39105152826E+02  0.00000000000E+00 0. -1.
<mgrwt>
<rscale>  2 0.20974154E+02</rscale>
<asrwt>0</asrwt>
<pdfrwt beam="1">  1       21 0.16021728E-01 0.20974154E+02</pdfrwt>
<pdfrwt beam="2">  1       21 0.57142696E-02 0.20974154E+02</pdfrwt>
<totfact> 0.60003340E+06</totfact>
</mgrwt>
</event>
<event>
 4    1  0.4578942E+006  0.2229421E+02  0.7546771E-02  0.1703213E+00
         21   -1    0    0  503  501  0.00000000000E+00  0.00000000000E+00  0.10455856782E+02  0.10455856782E+02  0.00000000000E+00 0. -1.
         21   -1    0    0  504  502 -0.00000000000E+00 -0.00000000000E+00 -0.92018265990E+02  0.92018265990E+02  0.00000000000E+00 0.  1.
         21    1    1    2  503  502  0.20509663561E+02  0.87398875182E+01 -0.51574609680E+01  0.22882992306E+02  0.00000000000E+00 0. -1.
         21    1    1    2  504  501 -0.20509663561E+02 -0.87398875182E+01 -0.76404948240E+02  0.79591130466E+02  0.00000000000E+00 0.  1.
<mgrwt>
<rscale>  2 0.22294213E+02</rscale>
<asrwt>0</asrwt>
<pdfrwt beam="1">  1       21 0.16085933E-02 0.22294213E+02</pdfrwt>
<pdfrwt beam="2">  1       21 0.14156656E-01 0.22294213E+02</pdfrwt>
<totfact> 0.53920572E+07</totfact>
</mgrwt>
</event>
<event>
 4    1  0.4578942E+006  0.4627749E+02  0.7546771E-02  0.1466521E+00
         21   -1    0    0  503  501  0.00000000000E+00  0.00000000000E+00  0.74267311538E+01  0.74267311538E+01  0.00000000000E+00 0. -1.
         21   -1    0    0  504  502 -0.00000000000E+00 -0.00000000000E+00 -0.36981849028E+03  0.36981849028E+03  0.00000000000E+00 0.  1.
         21    1    1    2  503  502  0.42727303885E+02 -0.17775936150E+02 -0.92673039170E+02  0.10358522381E+03  0.00000000000E+00 0. -1.
         21    1    1    2  504  501 -0.42727303885E+02  0.17775936150E+02 -0.26971871996E+03  0.27365999762E+03  0.00000000000E+00 0.  1.
<mgrwt>
<rscale>  2 0.46277493E+02</rscale>
<asrwt>0</asrwt>
<pdfrwt beam="1">  1       21 0.11425740E-02 0.46277493E+02</pdfrwt>
<pdfrwt beam="2">  1       21 0.56895153E-01 0.46277493E+02</pdfrwt>
<totfact> 0.79945803E+06</totfact>
</mgrwt>
</event>
<event>
 4    1  0.4578942E+006  0.2324692E+02  0.7546771E-02  0.1687539E+00
         21   -1    0    0  503  501  0.00000000000E+00  0.00000000000E+00  0.98212873422E+02  0.98212873422E+02  0.00000000000E+00 0. -1.
         21   -1    0    0  504  502 -0.00000000000E+00 -0.00000000000E+00 -0.10110632102E+02  0.10110632102E+02  0.00000000000E+00 0.  1.
         21    1    1    2  503  502  0.77051228663E+01  0.21932855291E+02  0.80616047593E+02  0.83900930801E+02  0.00000000000E+00 0. -1.
         21    1    1    2  504  501 -0.77051228663E+01 -0.21932855291E+02  0.74861937259E+01  0.24422574723E+02  0.00000000000E+00 0.  1.
<mgrwt>
<rscale>  2 0.23246915E+02</rscale>
<asrwt>0</asrwt>
<pdfrwt beam="1">  1       21 0.15109672E-01 0.23246915E+02</pdfrwt>
<pdfrwt beam="2">  1       21 0.15554819E-02 0.23246915E+02</pdfrwt>
<totfact> 0.51355005E+07</totfact>
</mgrwt>
</event>
<event>
 4    1  0.4578942E+006  0.2443041E+02  0.7546771E-02  0.1669321E+00
         21   -1    0    0  504  501  0.00000000000E+00  0.00000000000E+00  0.15730537484E+03  0.15730537484E+03  0.00000000000E+00 0.  1.
         21   -1    0    0  501  502 -0.00000000000E+00 -0.00000000000E+00 -0.26106158788E+02  0.26106158788E+02  0.00000000000E+00 0. -1.
         21    1    1    2  503  502 -0.10053685769E+02  0.22265850902E+02 -0.19180548718E+02  0.31060234434E+02  0.00000000000E+00 0. -1.
         21    1    1    2  504  503  0.10053685769E+02 -0.22265850902E+02  0.15037976477E+03  0.15235129920E+03  0.00000000000E+00 0.  1.
<mgrwt>
<rscale>  2 0.24430406E+02</rscale>
<asrwt>0</asrwt>
<pdfrwt beam="1">  1       21 0.24200826E-01 0.24430406E+02</pdfrwt>
<pdfrwt beam="2">  1       21 0.40163322E-02 0.24430406E+02</pdfrwt>
<totfact> 0.52554349E+06</totfact>
</mgrwt>
</event>
<event>
 4    1  0.4578942E+006  0.3035097E+02  0.7546771E-02  0.1594241E+00
         21   -1    0    0  503  501  0.00000000000E+00  0.00000000000E+00  0.13376401704E+03  0.13376401704E+03  0.00000000000E+00 0. -1.
         21   -1    0    0  504  502 -0.00000000000E+00 -0.00000000000E+00 -0.11965379183E+02  0.11965379183E+02  0.00000000000E+00 0.  1.
         21    1    1    2  503  502  0.14180298512E+02  0.26834684195E+02  0.10837082466E+03  0.11254073387E+03  0.00000000000E+00 0. -1.
         21    1    1    2  504  501 -0.14180298512E+02 -0.26834684195E+02  0.13427813194E+02  0.33188662355E+02  0.00000000000E+00 0.  1.
<mgrwt>
<rscale>  2 0.30350966E+02</rscale>
<asrwt>0</asrwt>
<pdfrwt beam="1">  1       21 0.20579079E-01 0.30350966E+02</pdfrwt>
<pdfrwt beam="2">  1       21 0.18408277E-02 0.30350966E+02</pdfrwt>
<totfact> 0.24603534E+07</totfact>
</mgrwt>
</event>
<event>
 4    1  0.4578942E+006  0.2170336E+02  0.7546771E-02  0.1713433E+00
         21   -1    0    0  502  501  0.00000000000E+00  0.00000000000E+00  0.88104649143E+00  0.88104649143E+00  0.00000000000E+00 0. -1.
         21   -1    0    0  503  502 -0.00000000000E+00 -0.00000000000E+00 -0.90269405690E+03  0.90269405690E+03  0.00000000000E+00 0. -1.
         21    1    1    2  503  504  0.41924640044E+01 -0.21294574198E+02 -0.73939234134E+03  0.73971080164E+03  0.00000000000E+00 0. -1.
         21    1    1    2  504  501 -0.41924640044E+01  0.21294574198E+02 -0.16242066907E+03  0.16386430175E+03  0.00000000000E+00 0. -1.
<mgrwt>
<rscale>  2 0.21703356E+02</rscale>
<asrwt>0</asrwt>
<pdfrwt beam="1">  1       21 0.13554539E-03 0.21703356E+02</pdfrwt>
<pdfrwt beam="2">  1       21 0.13887623E+00 0.21703356E+02</pdfrwt>
<totfact> 0.24268482E+07</totfact>
</mgrwt>
</event>
<event>
 4    1  0.4578942E+006  0.3412283E+02  0.7546771E-02  0.1556531E+00
         21   -1    0    0  504  501  0.00000000000E+00  0.00000000000E+00  0.72311194673E+02  0.72311194673E+02  0.00000000000E+00 0. -1.
         21   -1    0    0  503  502 -0.00000000000E+00 -0.00000000000E+00 -0.16703950942E+02  0.16703950942E+02  0.00000000000E+00 0. -1.
         21    1    1    2  503  501 -0.31280129311E+02  0.13635289298E+02  0.36251375797E+02  0.49784835554E+02  0.00000000000E+00 0. -1.
         21    1    1    2  504  502  0.31280129311E+02 -0.13635289298E+02  0.19355867935E+02  0.39230310061E+02  0.00000000000E+00 0. -1.
<mgrwt>
<rscale>  2 0.34122831E+02</rscale>
<asrwt>0</asrwt>
<pdfrwt beam="1">  1       21 0.11124799E-01 0.34122831E+02</pdfrwt>
<pdfrwt beam="2">  1       21 0.25698386E-02 0.34122831E+02</pdfrwt>
<totfact> 0.43344514E+07</totfact>
</mgrwt>
</event>
<event>
 4    1  0.4578942E+006  0.3459287E+02  0.7546771E-02  0.1552246E+00
         21   -1    0    0  504  501  0.00000000000E+00  0.00000000000E+00  0.22883281015E+01  0.22883281015E+01  0.00000000000E+00 0. -1.
         21   -1    0    0  501  502 -0.00000000000E+00 -0.00000000000E+00 -0.78449592453E+03  0.78449592453E+03  0.00000000000E+00 0. -1.
         21    1    1    2  503  502 -0.31516290512E+02 -0.14261499546E+02 -0.61825208407E+03  0.61921911016E+03  0.00000000000E+00 0. -1.
         21    1    1    2  504  503  0.31516290512E+02  0.14261499546E+02 -0.16395551236E+03  0.16756514246E+03  0.00000000000E+00 0. -1.
<mgrwt>
<rscale>  2 0.34592874E+02</rscale>
<asrwt>0</asrwt>
<pdfrwt beam="1">  1       21 0.35204984E-03 0.34592874E+02</pdfrwt>
<pdfrwt beam="2">  1       21 0.12069190E+00 0.34592874E+02</pdfrwt>
<totfact> 0.89853642E+06</totfact>
</mgrwt>
</event>
<event>
 4    1  0.4578942E+006  0.2514543E+02  0.7546771E-02  0.1658922E+00
         21   -1    0    0  504  501  0.00000000000E+00  0.00000000000E+00  0.50866531032E+01  0.50866531032E+01  0.00000000000E+00 0.  1.
         21   -1    0    0  503  502 -0.00000000000E+00 -0.00000000000E+00 -0.23616176763E+03  0.23616176763E+03  0.00000000000E+00 0.  1.
         21    1    1    2  503  501 -0.13578177734E+02  0.21164253155E+02 -0.32521461280E+02  0.41108855080E+02  0.00000000000E+00 0.  1.
         21    1    1    2  504  502  0.13578177734E+02 -0.21164253155E+02 -0.19855365324E+03  0.20013956565E+03  0.00000000000E+00 0.  1.
<mgrwt>
<rscale>  2 0.25145427E+02</rscale>
<asrwt>0</asrwt>
<pdfrwt beam="1">  1       21 0.78256202E-03 0.25145427E+02</pdfrwt>
<pdfrwt beam="2">  1       21 0.36332579E-01 0.25145427E+02</pdfrwt>
<totfact> 0.30970140E+07</totfact>
</mgrwt>
</event>
<event>
 4    1  0.4578942E+006  0.2176941E+02  0.7546771E-02  0.1712271E+00
         21   -1    0    0  503  501  0.00000000000E+00  0.00000000000E+00  0.40584675136E+02  0.40584675136E+02  0.00000000000E+00 0. -1.
         21   -1    0    0  504  502 -0.00000000000E+00 -0.00000000000E+00 -0.12653151239E+02  0.12653151239E+02  0.00000000000E+00 0. -1.
         21    1    1    2  503  502  0.15572887556E+02  0.15211581307E+02  0.21359272975E+02  0.30497960173E+02  0.00000000000E+00 0. -1.
         21    1    1    2  504  501 -0.15572887556E+02 -0.15211581307E+02  0.65722509215E+01  0.22739866201E+02  0.00000000000E+00 0. -1.
<mgrwt>
<rscale>  2 0.21769406E+02</rscale>
<asrwt>0</asrwt>
<pdfrwt beam="1">  1       21 0.62437961E-02 0.21769406E+02</pdfrwt>
<pdfrwt beam="2">  1       21 0.19466387E-02 0.21769406E+02</pdfrwt>
<totfact> 0.15405767E+08</totfact>
</mgrwt>
</event>
<event>
 4    1  0.4578942E+006  0.2109108E+02  0.7546771E-02  0.1724463E+00
         21   -1    0    0  503  501  0.00000000000E+00  0.00000000000E+00  0.25045611178E+01  0.25045611178E+01  0.00000000000E+00 0. -1.
         21   -1    0    0  504  502 -0.00000000000E+00 -0.00000000000E+00 -0.19666957774E+03  0.19666957774E+03  0.00000000000E+00 0. -1.
         21    1    1    2  503  502 -0.15690212220E+02 -0.14094353162E+02 -0.12808510324E+03  0.12980996580E+03  0.00000000000E+00 0. -1.
         21    1    1    2  504  501  0.15690212220E+02  0.14094353162E+02 -0.66079913387E+02  0.69364173056E+02  0.00000000000E+00 0. -1.
<mgrwt>
<rscale>  2 0.21091078E+02</rscale>
<asrwt>0</asrwt>
<pdfrwt beam="1">  1       21 0.38531704E-03 0.21091078E+02</pdfrwt>
<pdfrwt beam="2">  1       21 0.30256862E-01 0.21091078E+02</pdfrwt>
<totfact> 0.11834579E+08</totfact>
</mgrwt>
</event>
<event>
 4    1  0.4578942E+006  0.2155161E+02  0.7546771E-02  0.1716124E+00
         21   -1    0    0  502  501  0.00000000000E+00  0.00000000000E+00  0.17460079659E+01  0.17460079659E+01  0.00000000000E+00 0.  1.
         21   -1    0    0  503  502 -0.00000000000E+00 -0.00000000000E+00 -0.46280924224E+03  0.46280924224E+03  0.00000000000E+00 0. -1.
         21    1    1    2  503  504 -0.11677155676E+02  0.18113967106E+02 -0.38199506711E+03  0.38260253929E+03  0.00000000000E+00 0. -1.
         21    1    1    2  504  501  0.11677155676E+02 -0.18113967106E+02 -0.79068167166E+02  0.81952710925E+02  0.00000000000E+00 0.  1.
<mgrwt>
<rscale>  2 0.21551607E+02</rscale>
<asrwt>0</asrwt>
<pdfrwt beam="1">  1       21 0.26861623E-03 0.21551607E+02</pdfrwt>
<pdfrwt beam="2">  1       21 0.71201522E-01 0.21551607E+02</pdfrwt>
<totfact> 0.38851279E+07</totfact>
</mgrwt>
</event>
<event>
 4    1  0.4578942E+006  0.2598644E+02  0.7546771E-02  0.1647225E+00
         21   -1    0    0  503  501  0.00000000000E+00  0.00000000000E+00  0.17422056579E+04  0.17422056579E+04  0.00000000000E+00 0.  1.
         21   -1    0    0  504  502 -0.00000000000E+00 -0.00000000000E+00 -0.11329571092E+01  0.11329571092E+01  0.00000000000E+00 0. -1.
         21    1    1    2  503  502 -0.17183727189E+02 -0.19493965971E+02  0.15775446256E+04  0.15777586448E+04  0.00000000000E+00 0.  1.
         21    1    1    2  504  501  0.17183727189E+02  0.19493965971E+02  0.16352807515E+03  0.16557997027E+03  0.00000000000E+00 0. -1.
<mgrwt>
<rscale>  2 0.25986442E+02</rscale>
<asrwt>0</asrwt>
<pdfrwt beam="1">  1       21 0.26802949E+00 0.25986442E+02</pdfrwt>
<pdfrwt beam="2">  1       21 0.17430249E-03 0.25986442E+02</pdfrwt>
<totfact> 0.31404107E+06</totfact>
</mgrwt>
</event>
<event>
 4    1  0.4578942E+006  0.2785002E+02  0.7546771E-02  0.1623147E+00
         21   -1    0    0  503  501  0.00000000000E+00  0.00000000000E+00  0.29696098661E+02  0.29696098661E+02  0.00000000000E+00 0. -1.
         21   -1    0    0  501  502 -0.00000000000E+00 -0.00000000000E+00 -0.43733027472E+02  0.43733027472E+02  0.00000000000E+00 0. -1.
         21    1    1    2  503  504 -0.20351330294E+02 -0.19011754997E+02  0.16282110341E+02  0.32260356320E+02  0.00000000000E+00 0. -1.
         21    1    1    2  504  502  0.20351330294E+02  0.19011754997E+02 -0.30319039152E+02  0.41168769812E+02  0.00000000000E+00 0. -1.
<mgrwt>
<rscale>  2 0.27850017E+02</rscale>
<asrwt>0</asrwt>
<pdfrwt beam="1">  1       21 0.45686306E-02 0.27850017E+02</pdfrwt>
<pdfrwt beam="2">  1       21 0.67281580E-02 0.27850017E+02</pdfrwt>
<totfact> 0.38457821E+07</totfact>
</mgrwt>
</event>
<event>
 4    1  0.4578942E+006  0.2301105E+02  0.7546771E-02  0.1691331E+00
         21   -1    0    0  502  501  0.00000000000E+00  0.00000000000E+00  0.68793176000E+01  0.68793176000E+01  0.00000000000E+00 0.  1.
         21   -1    0    0  504  502 -0.00000000000E+00 -0.00000000000E+00 -0.15512099234E+03  0.15512099234E+03  0.00000000000E+00 0.  1.
         21    1    1    2  503  501  0.40162621910E+01 -0.22657846702E+02 -0.16627851889E+02  0.28390030603E+02  0.00000000000E+00 0.  1.
         21    1    1    2  504  503 -0.40162621910E+01  0.22657846702E+02 -0.13161382285E+03  0.13361027933E+03  0.00000000000E+00 0.  1.
<mgrwt>
<rscale>  2 0.23011049E+02</rscale>
<asrwt>0</asrwt>
<pdfrwt beam="1">  1       21 0.10583566E-02 0.23011049E+02</pdfrwt>
<pdfrwt beam="2">  1       21 0.23864767E-01 0.23011049E+02</pdfrwt>
<totfact> 0.41454753E+07</totfact>
</mgrwt>
</event>
<event>
 4    1  0.4578942E+006  0.3083777E+02  0.7546771E-02  0.1589009E+00
         21   -1    0    0  504  501  0.00000000000E+00  0.00000000000E+00  0.80017538028E+01  0.80017538028E+01  0.00000000000E+00 0.  1.
         21   -1    0    0  503  502 -0.00000000000E+00 -0.00000000000E+00 -0.35847949412E+03  0.35847949412E+03  0.00000000000E+00 0.  1.
         21    1    1    2  503  501 -0.17300657166E+02 -0.25527545267E+02 -0.32505696959E+03  0.32651646480E+03  0.00000000000E+00 0.  1.
         21    1    1    2  504  502  0.17300657166E+02  0.25527545267E+02 -0.25420770726E+02  0.39964783123E+02  0.00000000000E+00 0.  1.
<mgrwt>
<rscale>  2 0.30837774E+02</rscale>
<asrwt>0</asrwt>
<pdfrwt beam="1">  1       21 0.12310391E-02 0.30837774E+02</pdfrwt>
<pdfrwt beam="2">  1       21 0.55150689E-01 0.30837774E+02</pdfrwt>
<totfact> 0.72306171E+06</totfact>
</mgrwt>
</event>
<event>
 4    1  0.4578942E+006  0.2560768E+02  0.7546771E-02  0.1652424E+00
         21   -1    0    0  504  501  0.00000000000E+00  0.00000000000E+00  0.61835996858E+02  0.61835996858E+02  0.00000000000E+00 0.  1.
         21   -1    0    0  503  502 -0.00000000000E+00 -0.00000000000E+00 -0.45797524600E+02  0.45797524600E+02  0.00000000000E+00 0. -1.
         21    1    1    2  503  501 -0.19680844989E+02  0.16383457538E+02  0.55195495197E+02  0.60846495629E+02  0.00000000000E+00 0.  1.
         21    1    1    2  504  502  0.19680844989E+02 -0.16383457538E+02 -0.39157022939E+02  0.46787025828E+02  0.00000000000E+00 0. -1.
<mgrwt>
<rscale>  2 0.25607681E+02</rscale>
<asrwt>0</asrwt>
<pdfrwt beam="1">  1       21 0.95132303E-02 0.25607681E+02</pdfrwt>
<pdfrwt beam="2">  1       21 0.70457730E-02 0.25607681E+02</pdfrwt>
<totfact> 0.10652754E+07</totfact>
</mgrwt>
</event>
<event>
 4    1  0.4578942E+006  0.2288964E+02  0.7546771E-02  0.1693305E+00
         21   -1    0    0  504  501  0.00000000000E+00  0.00000000000E+00  0.12511738102E+02  0.12511738102E+02  0.00000000000E+00 0.  1.
         21   -1    0    0  503  502 -0.00000000000E+00 -0.00000000000E+00 -0.47709058431E+02  0.47709058431E+02  0.00000000000E+00 0. -1.
         21    1    1    2  503  501  0.19205281420E+02 -0.12453630016E+02 -0.28127524409E+02  0.36264216031E+02  0.00000000000E+00 0. -1.
         21    1    1    2  504  502 -0.19205281420E+02  0.12453630016E+02 -0.70697959201E+01  0.23956580502E+02  0.00000000000E+00 0.  1.
<mgrwt>
<rscale>  2 0.22889643E+02</rscale>
<asrwt>0</asrwt>
<pdfrwt beam="1">  1       21 0.19248828E-02 0.22889643E+02</pdfrwt>
<pdfrwt beam="2">  1       21 0.73398552E-02 0.22889643E+02</pdfrwt>
<totfact> 0.12254854E+08</totfact>
</mgrwt>
</event>
<event>
 4    1  0.4578942E+006  0.2202376E+02  0.7546771E-02  0.1707841E+00
         21   -1    0    0  504  501  0.00000000000E+00  0.00000000000E+00  0.32984687955E+03  0.32984687955E+03  0.00000000000E+00 0. -1.
         21   -1    0    0  501  502 -0.00000000000E+00 -0.00000000000E+00 -0.83154743765E+01  0.83154743765E+01  0.00000000000E+00 0. -1.
         21    1    1    2  503  502  0.21070125885E+02 -0.64105941446E+01  0.73615642849E+01  0.23221510519E+02  0.00000000000E+00 0. -1.
         21    1    1    2  504  503 -0.21070125885E+02  0.64105941446E+01  0.31416984089E+03  0.31494084341E+03  0.00000000000E+00 0. -1.
<mgrwt>
<rscale>  2 0.22023758E+02</rscale>
<asrwt>0</asrwt>
<pdfrwt beam="1">  1       21 0.50745664E-01 0.22023758E+02</pdfrwt>
<pdfrwt beam="2">  1       21 0.12793040E-02 0.22023758E+02</pdfrwt>
<totfact> 0.76290660E+06</totfact>
</mgrwt>
</event>
<event>
 4    1  0.4578942E+006  0.2137172E+02  0.7546771E-02  0.1719350E+00
         21   -1    0    0  504  501  0.00000000000E+00  0.00000000000E+00  0.42472346576E+03  0.42472346576E+03  0.00000000000E+00 0.  1.
         21   -1    0    0  501  502 -0.00000000000E+00 -0.00000000000E+00 -0.92048057771E+01  0.92048057771E+01  0.00000000000E+00 0.  1.
         21    1    1    2  503  502 -0.16595100296E+02 -0.13466743924E+02  0.38627915839E+01  0.21718004158E+02  0.00000000000E+00 0.  1.
         21    1    1    2  504  503  0.16595100296E+02  0.13466743924E+02  0.41165586840E+03  0.41221026738E+03  0.00000000000E+00 0.  1.
<mgrwt>
<rscale>  2 0.21371723E+02</rscale>
<asrwt>0</asrwt>
<pdfrwt beam="1">  1       21 0.65342056E-01 0.21371723E+02</pdfrwt>
<pdfrwt beam="2">  1       21 0.14161243E-02 0.21371723E+02</pdfrwt>
<totfact> 0.39458553E+06</totfact>
</mgrwt>
</event>
<event>
 4    1  0.4578942E+006  0.2166632E+02  0.7546771E-02  0.1714087E+00
         21   -1    0    0  504  501  0.00000000000E+00  0.00000000000E+00  0.42708772550E+03  0.42708772550E+03  0.00000000000E+00 0.  1.
         21   -1    0    0  503  502 -0.00000000000E+00 -0.00000000000E+00 -0.18462081664E+01  0.18462081664E+01  0.00000000000E+00 0. -1.
         21    1    1    2  503  501  0.18647910461E+02 -0.11031092445E+02  0.34904763786E+03  0.34971943477E+03  0.00000000000E+00 0.  1.
         21    1    1    2  504  502 -0.18647910461E+02  0.11031092445E+02  0.76193879476E+02  0.79214498892E+02  0.00000000000E+00 0. -1.
<mgrwt>
<rscale>  2 0.21666323E+02</rscale>
<asrwt>0</asrwt>
<pdfrwt beam="1">  1       21 0.65705725E-01 0.21666323E+02</pdfrwt>
<pdfrwt beam="2">  1       21 0.28403237E-03 0.21666323E+02</pdfrwt>
<totfact> 0.42248311E+07</totfact>
</mgrwt>
</event>
<event>
 4    1  0.4578942E+006  0.4324587E+02  0.7546771E-02  0.1485599E+00
         21   -1    0    0  504  501  0.00000000000E+00  0.00000000000E+00  0.77605369387E+02  0.77605369387E+02  0.00000000000E+00 0. -1.
         21   -1    0    0  503  502 -0.00000000000E+00 -0.00000000000E+00 -0.78617502361E+02  0.78617502361E+02  0.00000000000E+00 0. -1.
         21    1    1    2  503  501 -0.63407860021E+00  0.43241220136E+02  0.64540937561E+02  0.77690010913E+02  0.00000000000E+00 0. -1.
         21    1    1    2  504  502  0.63407860021E+00 -0.43241220136E+02 -0.65553070534E+02  0.78532860835E+02  0.00000000000E+00 0. -1.
<mgrwt>
<rscale>  2 0.43245869E+02</rscale>
<asrwt>0</asrwt>
<pdfrwt beam="1">  1       21 0.11939288E-01 0.43245869E+02</pdfrwt>
<pdfrwt beam="2">  1       21 0.12095000E-01 0.43245869E+02</pdfrwt>
<totfact> 0.31619881E+06</totfact>
</mgrwt>
</event>
<event>
 4    1  0.4578942E+006  0.2893441E+02  0.7546771E-02  0.1610175E+00
         21   -1    0    0  503  501  0.00000000000E+00  0.00000000000E+00  0.32999756198E+01  0.32999756198E+01  0.00000000000E+00 0. -1.
         21   -1    0    0  504  502 -0.00000000000E+00 -0.00000000000E+00 -0.31679846118E+03  0.31679846118E+03  0.00000000000E+00 0. -1.
         21    1    1    2  503  502 -0.21608420671E+02 -0.19242569781E+02 -0.22817831975E+03  0.23000553458E+03  0.00000000000E+00 0. -1.
         21    1    1    2  504  501  0.21608420671E+02  0.19242569781E+02 -0.85320165812E+02  0.90092902217E+02  0.00000000000E+00 0. -1.
<mgrwt>
<rscale>  2 0.28934414E+02</rscale>
<asrwt>0</asrwt>
<pdfrwt beam="1">  1       21 0.50768867E-03 0.28934414E+02</pdfrwt>
<pdfrwt beam="2">  1       21 0.48738214E-01 0.28934414E+02</pdfrwt>
<totfact> 0.34665780E+07</totfact>
</mgrwt>
</event>
<event>
 4    1  0.4578942E+006  0.4359283E+02  0.7546771E-02  0.1483322E+00
         21   -1    0    0  503  501  0.00000000000E+00  0.00000000000E+00  0.28050520944E+03  0.28050520944E+03  0.00000000000E+00 0. -1.
         21   -1    0    0  501  502 -0.00000000000E+00 -0.00000000000E+00 -0.25681604315E+02  0.25681604315E+02  0.00000000000E+00 0.  1.
         21    1    1    2  503  504 -0.16804598497E+02 -0.40223624686E+02  0.25876958096E+03  0.26241575895E+03  0.00000000000E+00 0. -1.
         21    1    1    2  504  502  0.16804598497E+02  0.40223624686E+02 -0.39459758366E+01  0.43771054806E+02  0.00000000000E+00 0.  1.
<mgrwt>
<rscale>  2 0.43592826E+02</rscale>
<asrwt>0</asrwt>
<pdfrwt beam="1">  1       21 0.43154645E-01 0.43592826E+02</pdfrwt>
<pdfrwt beam="2">  1       21 0.39510162E-02 0.43592826E+02</pdfrwt>
<totfact> 0.19580084E+06</totfact>
</mgrwt>
</event>
<event>
 4    1  0.4578942E+006  0.2695924E+02  0.7546771E-02  0.1634357E+00
         21   -1    0    0  504  501  0.00000000000E+00  0.00000000000E+00  0.23922753473E+03  0.23922753473E+03  0.00000000000E+00 0.  1.
         21   -1    0    0  503  502 -0.00000000000E+00 -0.00000000000E+00 -0.27119708195E+02  0.27119708195E+02  0.00000000000E+00 0. -1.
         21    1    1    2  503  501 -0.26714363199E+02  0.36253776308E+01  0.23154657158E+03  0.23311073629E+03  0.00000000000E+00 0.  1.
         21    1    1    2  504  502  0.26714363199E+02 -0.36253776308E+01 -0.19438745047E+02  0.33236506632E+02  0.00000000000E+00 0. -1.
<mgrwt>
<rscale>  2 0.26959239E+02</rscale>
<asrwt>0</asrwt>
<pdfrwt beam="1">  1       21 0.36804235E-01 0.26959239E+02</pdfrwt>
<pdfrwt beam="2">  1       21 0.41722630E-02 0.26959239E+02</pdfrwt>
<totfact> 0.23299192E+06</totfact>
</mgrwt>
</event>
<event>
 4    1  0.4578942E+006  0.2012262E+02  0.7546771E-02  0.1742901E+00
         21   -1    0    0  502  501  0.00000000000E+00  0.00000000000E+00  0.89119307294E+00  0.89119307294E+00  0.00000000000E+00 0. -1.
         21   -1    0    0  504  502 -0.00000000000E+00 -0.00000000000E+00 -0.47530244613E+03  0.47530244613E+03  0.00000000000E+00 0. -1.
         21    1    1    2  503  501  0.80902014745E+01  0.18424665286E+02 -0.28718781197E+03  0.28789192242E+03  0.00000000000E+00 0. -1.
         21    1    1    2  504  503 -0.80902014745E+01 -0.18424665286E+02 -0.18722344109E+03  0.18830171679E+03  0.00000000000E+00 0. -1.
<mgrwt>
<rscale>  2 0.20122615E+02</rscale>
<asrwt>0</asrwt>
<pdfrwt beam="1">  1       21 0.13710680E-03 0.20122615E+02</pdfrwt>
<pdfrwt beam="2">  1       21 0.73123359E-01 0.20122615E+02</pdfrwt>
<totfact> 0.95128732E+07</totfact>
</mgrwt>
</event>
<event>
 4    1  0.4578942E+006  0.3103548E+02  0.7546771E-02  0.1586917E+00
         21   -1    0    0  502  501  0.00000000000E+00  0.00000000000E+00  0.95278513232E+01  0.95278513232E+01  0.00000000000E+00 0. -1.
         21   -1    0    0  503  502 -0.00000000000E+00 -0.00000000000E+00 -0.13951283269E+03  0.13951283269E+03  0.00000000000E+00 0.  1.
         21    1    1    2  503  504  0.30673069593E+02  0.47290357252E+01 -0.10409857809E+03  0.10862649280E+03  0.00000000000E+00 0.  1.
         21    1    1    2  504  501 -0.30673069593E+02 -0.47290357252E+01 -0.25886403280E+02  0.40414191219E+02  0.00000000000E+00 0. -1.
<mgrwt>
<rscale>  2 0.31035479E+02</rscale>
<asrwt>0</asrwt>
<pdfrwt beam="1">  1       21 0.14658234E-02 0.31035479E+02</pdfrwt>
<pdfrwt beam="2">  1       21 0.21463511E-01 0.31035479E+02</pdfrwt>
<totfact> 0.32566035E+07</totfact>
</mgrwt>
</event>
<event>
 4    1  0.4578942E+006  0.2408898E+02  0.7546771E-02  0.1674443E+00
         21   -1    0    0  502  501  0.00000000000E+00  0.00000000000E+00  0.30548463892E+02  0.30548463892E+02  0.00000000000E+00 0.  1.
         21   -1    0    0  503  502 -0.00000000000E+00 -0.00000000000E+00 -0.34144525091E+03  0.34144525091E+03  0.00000000000E+00 0.  1.
         21    1    1    2  503  504  0.36339016006E+01 -0.23813304782E+02 -0.33619751407E+03  0.33705941196E+03  0.00000000000E+00 0.  1.
         21    1    1    2  504  501 -0.36339016006E+01  0.23813304782E+02  0.25300727053E+02  0.34934302839E+02  0.00000000000E+00 0.  1.
<mgrwt>
<rscale>  2 0.24088975E+02</rscale>
<asrwt>0</asrwt>
<pdfrwt beam="1">  1       21 0.46997637E-02 0.24088975E+02</pdfrwt>
<pdfrwt beam="2">  1       21 0.52530038E-01 0.24088975E+02</pdfrwt>
<totfact> 0.96398379E+05</totfact>
</mgrwt>
</event>
<event>
 4    1  0.4578942E+006  0.2802883E+02  0.7546771E-02  0.1620958E+00
         21   -1    0    0  504  501  0.00000000000E+00  0.00000000000E+00  0.47314218306E+01  0.47314218306E+01  0.00000000000E+00 0. -1.
         21   -1    0    0  503  502 -0.00000000000E+00 -0.00000000000E+00 -0.27168965134E+03  0.27168965134E+03  0.00000000000E+00 0. -1.
         21    1    1    2  503  501  0.27987129692E+02 -0.15283221650E+01 -0.47293589812E+02  0.54975438465E+02  0.00000000000E+00 0. -1.
         21    1    1    2  504  502 -0.27987129692E+02  0.15283221650E+01 -0.21966463970E+03  0.22144563471E+03  0.00000000000E+00 0. -1.
<mgrwt>
<rscale>  2 0.28028828E+02</rscale>
<asrwt>0</asrwt>
<pdfrwt beam="1">  1       21 0.72791093E-03 0.28028828E+02</pdfrwt>
<pdfrwt beam="2">  1       21 0.41798415E-01 0.28028828E+02</pdfrwt>
<totfact> 0.27074429E+07</totfact>
</mgrwt>
</event>
<event>
 4    1  0.4578942E+006  0.2021524E+02  0.7546771E-02  0.1741081E+00
         21   -1    0    0  504  501  0.00000000000E+00  0.00000000000E+00  0.49864375179E+02  0.49864375179E+02  0.00000000000E+00 0. -1.
         21   -1    0    0  503  502 -0.00000000000E+00 -0.00000000000E+00 -0.88342051399E+01  0.88342051399E+01  0.00000000000E+00 0. -1.
         21    1    1    2  503  501  0.54731480949E+01 -0.19460230402E+02  0.28407604645E+02  0.34866142875E+02  0.00000000000E+00 0. -1.
         21    1    1    2  504  502 -0.54731480949E+01  0.19460230402E+02  0.12622565394E+02  0.23832437443E+02  0.00000000000E+00 0. -1.
<mgrwt>
<rscale>  2 0.20215240E+02</rscale>
<asrwt>0</asrwt>
<pdfrwt beam="1">  1       21 0.76714422E-02 0.20215240E+02</pdfrwt>
<pdfrwt beam="2">  1       21 0.13591085E-02 0.20215240E+02</pdfrwt>
<totfact> 0.18637477E+08</totfact>
</mgrwt>
</event>
<event>
 4    1  0.4578942E+006  0.2564563E+02  0.7546771E-02  0.1651898E+00
         21   -1    0    0  504  501  0.00000000000E+00  0.00000000000E+00  0.16270571877E+03  0.16270571877E+03  0.00000000000E+00 0.  1.
         21   -1    0    0  503  502 -0.00000000000E+00 -0.00000000000E+00 -0.17581895729E+02  0.17581895729E+02  0.00000000000E+00 0.  1.
         21    1    1    2  503  501  0.23546560893E+02  0.10161586269E+02 -0.65435705398E+01  0.26467275659E+02  0.00000000000E+00 0.  1.
         21    1    1    2  504  502 -0.23546560893E+02 -0.10161586269E+02  0.15166739358E+03  0.15382033884E+03  0.00000000000E+00 0.  1.
<mgrwt>
<rscale>  2 0.25645631E+02</rscale>
<asrwt>0</asrwt>
<pdfrwt beam="1">  1       21 0.25031648E-01 0.25645631E+02</pdfrwt>
<pdfrwt beam="2">  1       21 0.27049071E-02 0.25645631E+02</pdfrwt>
<totfact> 0.92684600E+06</totfact>
</mgrwt>
</event>
<event>
 4    1  0.4578942E+006  0.2017389E+02  0.7546771E-02  0.1741892E+00
         21   -1    0    0  503  501  0.00000000000E+00  0.00000000000E+00  0.33532929719E+01  0.33532929719E+01  0.00000000000E+00 0.  1.
         21   -1    0    0  504  502 -0.00000000000E+00 -0.00000000000E+00 -0.15352256159E+03  0.15352256159E+03  0.00000000000E+00 0.  1.
         21    1    1    2  503  502  0.75095006842E+01  0.18724132150E+02 -0.39187917582E+02  0.44075827952E+02  0.00000000000E+00 0.  1.
         21    1    1    2  504  501 -0.75095006842E+01 -0.18724132150E+02 -0.11098135104E+03  0.11280002661E+03  0.00000000000E+00 0.  1.
<mgrwt>
<rscale>  2 0.20173887E+02</rscale>
<asrwt>0</asrwt>
<pdfrwt beam="1">  1       21 0.51589111E-03 0.20173887E+02</pdfrwt>
<pdfrwt beam="2">  1       21 0.23618861E-01 0.20173887E+02</pdfrwt>
<totfact> 0.11862301E+08</totfact>
</mgrwt>
</event>
<event>
 4    1  0.4578942E+006  0.3613180E+02  0.7546771E-02  0.1538774E+00
         21   -1    0    0  503  501  0.00000000000E+00  0.00000000000E+00  0.11245962816E+03  0.11245962816E+03  0.00000000000E+00 0. -1.
         21   -1    0    0  504  502 -0.00000000000E+00 -0.00000000000E+00 -0.19163171633E+02  0.19163171633E+02  0.00000000000E+00 0. -1.
         21    1    1    2  503  502  0.19787603741E+02 -0.30231737155E+02  0.53272855757E+01  0.36522420030E+02  0.00000000000E+00 0. -1.
         21    1    1    2  504  501 -0.19787603741E+02  0.30231737155E+02  0.87969170950E+02  0.95100379762E+02  0.00000000000E+00 0. -1.
<mgrwt>
<rscale>  2 0.36131803E+02</rscale>
<asrwt>0</asrwt>
<pdfrwt beam="1">  1       21 0.17301481E-01 0.36131803E+02</pdfrwt>
<pdfrwt beam="2">  1       21 0.29481803E-02 0.36131803E+02</pdfrwt>
<totfact> 0.16494194E+07</totfact>
</mgrwt>
</event>
<event>
 4    1  0.4578942E+006  0.2067484E+02  0.7546771E-02  0.1732232E+00
         21   -1    0    0  504  501  0.00000000000E+00  0.00000000000E+00  0.17227993460E+02  0.17227993460E+02  0.00000000000E+00 0. -1.
         21   -1    0    0  503  502 -0.00000000000E+00 -0.00000000000E+00 -0.25282349346E+02  0.25282349346E+02  0.00000000000E+00 0. -1.
         21    1    1    2  503  501  0.77149834697E+01  0.19181452448E+02 -0.11259326523E+01  0.20705477833E+02  0.00000000000E+00 0. -1.
         21    1    1    2  504  502 -0.77149834697E+01 -0.19181452448E+02 -0.69284232340E+01  0.21804864973E+02  0.00000000000E+00 0. -1.
<mgrwt>
<rscale>  2 0.20674842E+02</rscale>
<asrwt>0</asrwt>
<pdfrwt beam="1">  1       21 0.26504605E-02 0.20674842E+02</pdfrwt>
<pdfrwt beam="2">  1       21 0.38895922E-02 0.20674842E+02</pdfrwt>
<totfact> 0.19982862E+08</totfact>
</mgrwt>
</event>
<event>
 4    1  0.4578942E+006  0.2091286E+02  0.7546771E-02  0.1727761E+00
         21   -1    0    0  503  501  0.00000000000E+00  0.00000000000E+00  0.83215587512E+00  0.83215587512E+00  0.00000000000E+00 0. -1.
         21   -1    0    0  501  502 -0.00000000000E+00 -0.00000000000E+00 -0.58796495604E+03  0.58796495604E+03  0.00000000000E+00 0. -1.
         21    1    1    2  503  504  0.58127424098E+01  0.20088793952E+02 -0.19765495469E+03  0.19875821676E+03  0.00000000000E+00 0. -1.
         21    1    1    2  504  502 -0.58127424098E+01 -0.20088793952E+02 -0.38947784548E+03  0.39003889516E+03  0.00000000000E+00 0. -1.
<mgrwt>
<rscale>  2 0.20912858E+02</rscale>
<asrwt>0</asrwt>
<pdfrwt beam="1">  1       21 0.12802291E-03 0.20912858E+02</pdfrwt>
<pdfrwt beam="2">  1       21 0.90456903E-01 0.20912858E+02</pdfrwt>
<totfact> 0.67868733E+07</totfact>
</mgrwt>
</event>
<event>
 4    1  0.4578942E+006  0.2026362E+02  0.7546771E-02  0.1740136E+00
         21   -1    0    0  503  501  0.00000000000E+00  0.00000000000E+00  0.13981512226E+02  0.13981512226E+02  0.00000000000E+00 0. -1.
         21   -1    0    0  501  502 -0.00000000000E+00 -0.00000000000E+00 -0.92074095392E+02  0.92074095392E+02  0.00000000000E+00 0.  1.
         21    1    1    2  503  504 -0.19659099775E+02 -0.49126358735E+01  0.47148372021E+01  0.20804900505E+02  0.00000000000E+00 0. -1.
         21    1    1    2  504  502  0.19659099775E+02  0.49126358735E+01 -0.82807420368E+02  0.85250707113E+02  0.00000000000E+00 0.  1.
<mgrwt>
<rscale>  2 0.20263618E+02</rscale>
<asrwt>0</asrwt>
<pdfrwt beam="1">  1       21 0.21510020E-02 0.20263618E+02</pdfrwt>
<pdfrwt beam="2">  1       21 0.14165245E-01 0.20263618E+02</pdfrwt>
<totfact> 0.33742472E+07</totfact>
</mgrwt>
</event>
<event>
 4    1  0.4578942E+006  0.2514688E+02  0.7546771E-02  0.1658901E+00
         21   -1    0    0  502  501  0.00000000000E+00  0.00000000000E+00  0.59302783993E+02  0.59302783993E+02  0.00000000000E+00 0. -1.
         21   -1    0    0  504  502 -0.00000000000E+00 -0.00000000000E+00 -0.42367355891E+03  0.42367355891E+03  0.00000000000E+00 0.  1.
         21    1    1    2  503  501  0.11941650025E+02 -0.22130578985E+02  0.56244439270E+02  0.61610084242E+02  0.00000000000E+00 0. -1.
         21    1    1    2  504  503 -0.11941650025E+02  0.22130578985E+02 -0.42061521419E+03  0.42136625866E+03  0.00000000000E+00 0.  1.
<mgrwt>
<rscale>  2 0.25146879E+02</rscale>
<asrwt>0</asrwt>
<pdfrwt beam="1">  1       21 0.91235051E-02 0.25146879E+02</pdfrwt>
<pdfrwt beam="2">  1       21 0.65180549E-01 0.25146879E+02</pdfrwt>
<totfact> 0.21455171E+05</totfact>
</mgrwt>
</event>
<event>
 4    1  0.4578942E+006  0.2251526E+02  0.7546771E-02  0.1699490E+00
         21   -1    0    0  504  501  0.00000000000E+00  0.00000000000E+00  0.11216418535E+03  0.11216418535E+03  0.00000000000E+00 0. -1.
         21   -1    0    0  503  502 -0.00000000000E+00 -0.00000000000E+00 -0.22281955945E+02  0.22281955945E+02  0.00000000000E+00 0. -1.
         21    1    1    2  503  501 -0.21999990544E+02 -0.47892752526E+01 -0.15078338002E+02  0.27097841580E+02  0.00000000000E+00 0. -1.
         21    1    1    2  504  502  0.21999990544E+02  0.47892752526E+01  0.10496056740E+03  0.10734829971E+03  0.00000000000E+00 0. -1.
<mgrwt>
<rscale>  2 0.22515256E+02</rscale>
<asrwt>0</asrwt>
<pdfrwt beam="1">  1       21 0.17256028E-01 0.22515256E+02</pdfrwt>
<pdfrwt beam="2">  1       21 0.34279933E-02 0.22515256E+02</pdfrwt>
<totfact> 0.12004744E+07</totfact>
</mgrwt>
</event>
<event>
 4    1  0.4578942E+006  0.2197951E+02  0.7546771E-02  0.1708607E+00
         21   -1    0    0  504  501  0.00000000000E+00  0.00000000000E+00  0.28963329320E+03  0.28963329320E+03  0.00000000000E+00 0. -1.
         21   -1    0    0  503  502 -0.00000000000E+00 -0.00000000000E+00 -0.18918445743E+01  0.18918445743E+01  0.00000000000E+00 0. -1.
         21    1    1    2  503  501 -0.21682579980E+02  0.36006623558E+01  0.19401342053E+03  0.19525446574E+03  0.00000000000E+00 0. -1.
         21    1    1    2  504  502  0.21682579980E+02 -0.36006623558E+01  0.93728028086E+02  0.96270672029E+02  0.00000000000E+00 0. -1.
<mgrwt>
<rscale>  2 0.21979514E+02</rscale>
<asrwt>0</asrwt>
<pdfrwt beam="1">  1       21 0.44558933E-01 0.21979514E+02</pdfrwt>
<pdfrwt beam="2">  1       21 0.29105324E-03 0.21979514E+02</pdfrwt>
<totfact> 0.87721656E+07</totfact>
</mgrwt>
</event>
<event>
 4    1  0.4578942E+006  0.2596087E+02  0.7546771E-02  0.1647572E+00
         21   -1    0    0  504  501  0.00000000000E+00  0.00000000000E+00  0.51990162246E+03  0.51990162246E+03  0.00000000000E+00 0.  1.
         21   -1    0    0  503  502 -0.00000000000E+00 -0.00000000000E+00 -0.79285011381E+02  0.79285011381E+02  0.00000000000E+00 0.  1.
         21    1    1    2  503  501  0.25025536534E+02  0.69057303575E+01  0.51744230595E+03  0.51809314469E+03  0.00000000000E+00 0.  1.
         21    1    1    2  504  502 -0.25025536534E+02 -0.69057303575E+01 -0.76825694869E+02  0.81093489151E+02  0.00000000000E+00 0.  1.
<mgrwt>
<rscale>  2 0.25960867E+02</rscale>
<asrwt>0</asrwt>
<pdfrwt beam="1">  1       21 0.79984863E-01 0.25960867E+02</pdfrwt>
<pdfrwt beam="2">  1       21 0.12197694E-01 0.25960867E+02</pdfrwt>
<totfact> 0.86533888E+04</totfact>
</mgrwt>
</event>
<event>
 4    1  0.4578942E+006  0.2452931E+02  0.7546771E-02  0.1667856E+00
         21   -1    0    0  503  501  0.00000000000E+00  0.00000000000E+00  0.54563120386E+02  0.54563120386E+02  0.00000000000E+00 0. -1.
         21   -1    0    0  504  502 -0.00000000000E+00 -0.00000000000E+00 -0.37042445917E+03  0.37042445917E+03  0.00000000000E+00 0. -1.
         21    1    1    2  503  502  0.24431649419E+02  0.21866967817E+01  0.51376304343E+02  0.56931641326E+02  0.00000000000E+00 0. -1.
         21    1    1    2  504  501 -0.24431649419E+02 -0.21866967817E+01 -0.36723764313E+03  0.36805593823E+03  0.00000000000E+00 0. -1.
<mgrwt>
<rscale>  2 0.24529312E+02</rscale>
<asrwt>0</asrwt>
<pdfrwt beam="1">  1       21 0.83943263E-02 0.24529312E+02</pdfrwt>
<pdfrwt beam="2">  1       21 0.56988378E-01 0.24529312E+02</pdfrwt>
<totfact> 0.32216360E+05</totfact>
</mgrwt>
</event>
<event>
 4    1  0.4578942E+006  0.2408423E+02  0.7546771E-02  0.1674515E+00
         21   -1    0    0  503  501  0.00000000000E+00  0.00000000000E+00  0.36536235014E+02  0.36536235014E+02  0.00000000000E+00 0.  1.
         21   -1    0    0  504  502 -0.00000000000E+00 -0.00000000000E+00 -0.83166235260E+02  0.83166235260E+02  0.00000000000E+00 0. -1.
         21    1    1    2  503  502  0.21642073262E+02  0.10567429339E+02  0.30521344397E+02  0.38879330777E+02  0.00000000000E+00 0.  1.
         21    1    1    2  504  501 -0.21642073262E+02 -0.10567429339E+02 -0.77151344643E+02  0.80823139497E+02  0.00000000000E+00 0. -1.
<mgrwt>
<rscale>  2 0.24084225E+02</rscale>
<asrwt>0</asrwt>
<pdfrwt beam="1">  1       21 0.56209593E-02 0.24084225E+02</pdfrwt>
<pdfrwt beam="2">  1       21 0.12794805E-01 0.24084225E+02</pdfrwt>
<totfact> 0.92508496E+06</totfact>
</mgrwt>
</event>
<event>
 4    1  0.4578942E+006  0.2280201E+02  0.7546771E-02  0.1694740E+00
         21   -1    0    0  502  501  0.00000000000E+00  0.00000000000E+00  0.84269596101E+01  0.84269596101E+01  0.00000000000E+00 0. -1.
         21   -1    0    0  503  502 -0.00000000000E+00 -0.00000000000E+00 -0.76052082366E+02  0.76052082366E+02  0.00000000000E+00 0.  1.
         21    1    1    2  503  504  0.12377925960E+02  0.19149901827E+02 -0.52162801219E+02  0.56928811880E+02  0.00000000000E+00 0.  1.
         21    1    1    2  504  501 -0.12377925960E+02 -0.19149901827E+02 -0.15462321537E+02  0.27550230096E+02  0.00000000000E+00 0. -1.
<mgrwt>
<rscale>  2 0.22802013E+02</rscale>
<asrwt>0</asrwt>
<pdfrwt beam="1">  1       21 0.12964554E-02 0.22802013E+02</pdfrwt>
<pdfrwt beam="2">  1       21 0.11700320E-01 0.22802013E+02</pdfrwt>
<totfact> 0.10369153E+08</totfact>
</mgrwt>
</event>
<event>
 4    1  0.4578942E+006  0.2132799E+02  0.7546771E-02  0.1720140E+00
         21   -1    0    0  503  501  0.00000000000E+00  0.00000000000E+00  0.98874024121E+01  0.98874024121E+01  0.00000000000E+00 0.  1.
         21   -1    0    0  504  502 -0.00000000000E+00 -0.00000000000E+00 -0.10856706324E+04  0.10856706324E+04  0.00000000000E+00 0.  1.
         21    1    1    2  503  502  0.13659806402E+02 -0.16379651100E+02 -0.10739386645E+04  0.10741504263E+04  0.00000000000E+00 0.  1.
         21    1    1    2  504  501 -0.13659806402E+02  0.16379651100E+02 -0.18445655414E+01  0.21407608534E+02  0.00000000000E+00 0.  1.
<mgrwt>
<rscale>  2 0.21327993E+02</rscale>
<asrwt>0</asrwt>
<pdfrwt beam="1">  1       21 0.15211390E-02 0.21327993E+02</pdfrwt>
<pdfrwt beam="2">  1       21 0.16702623E+00 0.21327993E+02</pdfrwt>
<totfact> 0.44765254E+05</totfact>
</mgrwt>
</event>
<event>
 4    1  0.4578942E+006  0.2080888E+02  0.7546771E-02  0.1729705E+00
         21   -1    0    0  502  501  0.00000000000E+00  0.00000000000E+00  0.41183318286E+00  0.41183318286E+00  0.00000000000E+00 0. -1.
         21   -1    0    0  504  502 -0.00000000000E+00 -0.00000000000E+00 -0.14618913369E+04  0.14618913369E+04  0.00000000000E+00 0. -1.
         21    1    1    2  503  501 -0.43585123578E+01 -0.20347310625E+02 -0.34331153012E+03  0.34394158864E+03  0.00000000000E+00 0. -1.
         21    1    1    2  504  503  0.43585123578E+01  0.20347310625E+02 -0.11181679736E+04  0.11183615815E+04  0.00000000000E+00 0. -1.
<mgrwt>
<rscale>  2 0.20808885E+02</rscale>
<asrwt>0</asrwt>
<pdfrwt beam="1">  1       21 0.63358588E-04 0.20808885E+02</pdfrwt>
<pdfrwt beam="2">  1       21 0.22490765E+00 0.20808885E+02</pdfrwt>
<totfact> 0.21514567E+07</totfact>
</mgrwt>
</event>
<event>
 4    1  0.4578942E+006  0.2059735E+02  0.7546771E-02  0.1733703E+00
         21   -1    0    0  503  501  0.00000000000E+00  0.00000000000E+00  0.10405749874E+01  0.10405749874E+01  0.00000000000E+00 0.  1.
         21   -1    0    0  501  502 -0.00000000000E+00 -0.00000000000E+00 -0.59583559127E+03  0.59583559127E+03  0.00000000000E+00 0.  1.
         21    1    1    2  503  504 -0.15021278087E+02  0.14092981154E+02 -0.12970367798E+03  0.13132895718E+03  0.00000000000E+00 0.  1.
         21    1    1    2  504  502  0.15021278087E+02 -0.14092981154E+02 -0.46509133830E+03  0.46554720908E+03  0.00000000000E+00 0.  1.
<mgrwt>
<rscale>  2 0.20597352E+02</rscale>
<asrwt>0</asrwt>
<pdfrwt beam="1">  1       21 0.16008837E-03 0.20597352E+02</pdfrwt>
<pdfrwt beam="2">  1       21 0.91667063E-01 0.20597352E+02</pdfrwt>
<totfact> 0.47762131E+07</totfact>
</mgrwt>
</event>
<event>
 4    1  0.4578942E+006  0.2219920E+02  0.7546771E-02  0.1704830E+00
         21   -1    0    0  504  501  0.00000000000E+00  0.00000000000E+00  0.32865982519E+02  0.32865982519E+02  0.00000000000E+00 0. -1.
         21   -1    0    0  503  502 -0.00000000000E+00 -0.00000000000E+00 -0.25082483136E+02  0.25082483136E+02  0.00000000000E+00 0. -1.
         21    1    1    2  503  501  0.22193648178E+02 -0.49635879222E+00 -0.14483441087E+02  0.26506121128E+02  0.00000000000E+00 0. -1.
         21    1    1    2  504  502 -0.22193648178E+02  0.49635879222E+00  0.22266940470E+02  0.31442344528E+02  0.00000000000E+00 0. -1.
<mgrwt>
<rscale>  2 0.22199198E+02</rscale>
<asrwt>0</asrwt>
<pdfrwt beam="1">  1       21 0.50563050E-02 0.22199198E+02</pdfrwt>
<pdfrwt beam="2">  1       21 0.38588436E-02 0.22199198E+02</pdfrwt>
<totfact> 0.75177882E+07</totfact>
</mgrwt>
</event>
<event>
 4    1  0.4578942E+006  0.2228499E+02  0.7546771E-02  0.1703369E+00
         21   -1    0    0  503  501  0.00000000000E+00  0.00000000000E+00  0.48905936664E+03  0.48905936664E+03  0.00000000000E+00 0. -1.
         21   -1    0    0  504  502 -0.00000000000E+00 -0.00000000000E+00 -0.49827821279E+02  0.49827821279E+02  0.00000000000E+00 0. -1.
         21    1    1    2  503  502  0.12070045562E+02 -0.18733258391E+02  0.48629968356E+03  0.48681002783E+03  0.00000000000E+00 0. -1.
         21    1    1    2  504  501 -0.12070045562E+02  0.18733258391E+02 -0.47068138194E+02  0.52077160089E+02  0.00000000000E+00 0. -1.
<mgrwt>
<rscale>  2 0.22284994E+02</rscale>
<asrwt>0</asrwt>
<pdfrwt beam="1">  1       21 0.75239899E-01 0.22284994E+02</pdfrwt>
<pdfrwt beam="2">  1       21 0.76658190E-02 0.22284994E+02</pdfrwt>
<totfact> 0.21184664E+05</totfact>
</mgrwt>
</event>
<event>
 4    1  0.4578942E+006  0.2683553E+02  0.7546771E-02  0.1635956E+00
         21   -1    0    0  503  501  0.00000000000E+00  0.00000000000E+00  0.14408449806E+02  0.14408449806E+02  0.00000000000E+00 0. -1.
         21   -1    0    0  501  502 -0.00000000000E+00 -0.00000000000E+00 -0.88648941715E+03  0.88648941715E+03  0.00000000000E+00 0.  1.
         21    1    1    2  503  504 -0.98254624667E+01 -0.24972100146E+02  0.15259518960E+01  0.26878876978E+02  0.00000000000E+00 0. -1.
         21    1    1    2  504  502  0.98254624667E+01  0.24972100146E+02 -0.87360691924E+03  0.87401898997E+03  0.00000000000E+00 0.  1.
<mgrwt>
<rscale>  2 0.26835527E+02</rscale>
<asrwt>0</asrwt>
<pdfrwt beam="1">  1       21 0.22166844E-02 0.26835527E+02</pdfrwt>
<pdfrwt beam="2">  1       21 0.13638300E+00 0.26835527E+02</pdfrwt>
<totfact> 0.41051509E+05</totfact>
</mgrwt>
</event>
<event>
 4    1  0.4578942E+006  0.2803549E+02  0.7546771E-02  0.1620877E+00
         21   -1    0    0  502  501  0.00000000000E+00  0.00000000000E+00  0.22623880193E+02  0.22623880193E+02  0.00000000000E+00 0.  1.
         21   -1    0    0  504  502 -0.00000000000E+00 -0.00000000000E+00 -0.11339814407E+03  0.11339814407E+03  0.00000000000E+00 0.  1.
         21    1    1    2  503  501  0.19414161379E+02 -0.20225699780E+02  0.11255554372E+02  0.30210529586E+02  0.00000000000E+00 0.  1.
         21    1    1    2  504  503 -0.19414161379E+02  0.20225699780E+02 -0.10202981824E+03  0.10581149467E+03  0.00000000000E+00 0.  1.
<mgrwt>
<rscale>  2 0.28035488E+02</rscale>
<asrwt>0</asrwt>
<pdfrwt beam="1">  1       21 0.34805970E-02 0.28035488E+02</pdfrwt>
<pdfrwt beam="2">  1       21 0.17445868E-01 0.28035488E+02</pdfrwt>
<totfact> 0.11983911E+07</totfact>
</mgrwt>
</event>
<event>
 4    1  0.4578942E+006  0.3149714E+02  0.7546771E-02  0.1582106E+00
         21   -1    0    0  502  501  0.00000000000E+00  0.00000000000E+00  0.38062808469E+02  0.38062808469E+02  0.00000000000E+00 0.  1.
         21   -1    0    0  504  502 -0.00000000000E+00 -0.00000000000E+00 -0.13047793944E+03  0.13047793944E+03  0.00000000000E+00 0.  1.
         21    1    1    2  503  501  0.30265175247E+02  0.87229156873E+01  0.29177542234E+02  0.42934823414E+02  0.00000000000E+00 0.  1.
         21    1    1    2  504  503 -0.30265175247E+02 -0.87229156873E+01 -0.12159267320E+03  0.12560592449E+03  0.00000000000E+00 0.  1.
<mgrwt>
<rscale>  2 0.31497144E+02</rscale>
<asrwt>0</asrwt>
<pdfrwt beam="1">  1       21 0.58558167E-02 0.31497144E+02</pdfrwt>
<pdfrwt beam="2">  1       21 0.20073529E-01 0.31497144E+02</pdfrwt>
<totfact> 0.41475582E+06</totfact>
</mgrwt>
</event>
<event>
 4    1  0.4578942E+006  0.3415692E+02  0.7546771E-02  0.1556217E+00
         21   -1    0    0  503  501  0.00000000000E+00  0.00000000000E+00  0.12864811972E+03  0.12864811972E+03  0.00000000000E+00 0. -1.
         21   -1    0    0  504  502 -0.00000000000E+00 -0.00000000000E+00 -0.56999918570E+02  0.56999918570E+02  0.00000000000E+00 0. -1.
         21    1    1    2  503  502 -0.25998767222E+02 -0.22153083594E+02 -0.49295905902E+02  0.59973171906E+02  0.00000000000E+00 0. -1.
         21    1    1    2  504  501  0.25998767222E+02  0.22153083594E+02  0.12094410705E+03  0.12567486638E+03  0.00000000000E+00 0. -1.
<mgrwt>
<rscale>  2 0.34156917E+02</rscale>
<asrwt>0</asrwt>
<pdfrwt beam="1">  1       21 0.19792018E-01 0.34156917E+02</pdfrwt>
<pdfrwt beam="2">  1       21 0.87692183E-02 0.34156917E+02</pdfrwt>
<totfact> 0.22089493E+06</totfact>
</mgrwt>
</event>
<event>
 4    1  0.4578942E+006  0.2031425E+02  0.7546771E-02  0.1739150E+00
         21   -1    0    0  504  501  0.00000000000E+00  0.00000000000E+00  0.78079643030E+02  0.78079643030E+02  0.00000000000E+00 0.  1.
         21   -1    0    0  503  502 -0.00000000000E+00 -0.00000000000E+00 -0.23400994398E+02  0.23400994398E+02  0.00000000000E+00 0.  1.
         21    1    1    2  503  501 -0.18026694247E+01 -0.20234106222E+02 -0.17304809083E+02  0.26685671980E+02  0.00000000000E+00 0.  1.
         21    1    1    2  504  502  0.18026694247E+01  0.20234106222E+02  0.71983457715E+02  0.74794965447E+02  0.00000000000E+00 0.  1.
<mgrwt>
<rscale>  2 0.20314248E+02</rscale>
<asrwt>0</asrwt>
<pdfrwt beam="1">  1       21 0.12012253E-01 0.20314248E+02</pdfrwt>
<pdfrwt beam="2">  1       21 0.36001530E-02 0.20314248E+02</pdfrwt>
<totfact> 0.20078662E+07</totfact>
</mgrwt>
</event>
<event>
 4    1  0.4578942E+006  0.2942754E+02  0.7546771E-02  0.1604504E+00
         21   -1    0    0  503  501  0.00000000000E+00  0.00000000000E+00  0.60801169914E+02  0.60801169914E+02  0.00000000000E+00 0.  1.
         21   -1    0    0  504  502 -0.00000000000E+00 -0.00000000000E+00 -0.72762518765E+02  0.72762518765E+02  0.00000000000E+00 0. -1.
         21    1    1    2  503  502  0.25965969257E+02 -0.13847333439E+02 -0.65870849499E+02  0.72145332604E+02  0.00000000000E+00 0. -1.
         21    1    1    2  504  501 -0.25965969257E+02  0.13847333439E+02  0.53909500648E+02  0.61418356075E+02  0.00000000000E+00 0.  1.
<mgrwt>
<rscale>  2 0.29427542E+02</rscale>
<asrwt>0</asrwt>
<pdfrwt beam="1">  1       21 0.93540262E-02 0.29427542E+02</pdfrwt>
<pdfrwt beam="2">  1       21 0.11194234E-01 0.29427542E+02</pdfrwt>
<totfact> 0.52106545E+06</totfact>
</mgrwt>
</event>
<event>
 4    1  0.4578942E+006  0.2354138E+02  0.7546771E-02  0.1682882E+00
         21   -1    0    0  503  501  0.00000000000E+00  0.00000000000E+00  0.22951677071E+02  0.22951677071E+02  0.00000000000E+00 0. -1.
         21   -1    0    0  504  502 -0.00000000000E+00 -0.00000000000E+00 -0.27000906885E+02  0.27000906885E+02  0.00000000000E+00 0. -1.
         21    1    1    2  503  502  0.22021285419E+02 -0.83222232315E+01  0.60965339931E+01  0.24317979722E+02  0.00000000000E+00 0. -1.
         21    1    1    2  504  501 -0.22021285419E+02  0.83222232315E+01 -0.10145763807E+02  0.25634604234E+02  0.00000000000E+00 0. -1.
<mgrwt>
<rscale>  2 0.23541377E+02</rscale>
<asrwt>0</asrwt>
<pdfrwt beam="1">  1       21 0.35310273E-02 0.23541377E+02</pdfrwt>
<pdfrwt beam="2">  1       21 0.41539857E-02 0.23541377E+02</pdfrwt>
<totfact> 0.12002410E+08</totfact>
</mgrwt>
</event>
<event>
 4    1  0.4578942E+006  0.2173070E+02  0.7546771E-02  0.1712951E+00
         21   -1    0    0  503  501  0.00000000000E+00  0.00000000000E+00  0.98356201438E+01  0.98356201438E+01  0.00000000000E+00 0. -1.
         21   -1    0    0  504  502 -0.00000000000E+00 -0.00000000000E+00 -0.94371269632E+02  0.94371269632E+02  0.00000000000E+00 0.  1.
         21    1    1    2  503  502 -0.21654549438E+02 -0.18176379685E+01 -0.57489856599E+01  0.22478304101E+02  0.00000000000E+00 0. -1.
         21    1    1    2  504  501  0.21654549438E+02  0.18176379685E+01 -0.78786663828E+02  0.81728585674E+02  0.00000000000E+00 0.  1.
<mgrwt>
<rscale>  2 0.21730700E+02</rscale>
<asrwt>0</asrwt>
<pdfrwt beam="1">  1       21 0.15131723E-02 0.21730700E+02</pdfrwt>
<pdfrwt beam="2">  1       21 0.14518657E-01 0.21730700E+02</pdfrwt>
<totfact> 0.56315180E+07</totfact>
</mgrwt>
</event>
<event>
 4    1  0.4578942E+006  0.2071948E+02  0.7546771E-02  0.1731387E+00
         21   -1    0    0  503  501  0.00000000000E+00  0.00000000000E+00  0.64984644959E+03  0.64984644959E+03  0.00000000000E+00 0. -1.
         21   -1    0    0  501  502 -0.00000000000E+00 -0.00000000000E+00 -0.29962755050E+03  0.29962755050E+03  0.00000000000E+00 0.  1.
         21    1    1    2  503  504 -0.18551876313E+02  0.92263143569E+01  0.64932281537E+03  0.64965330412E+03  0.00000000000E+00 0. -1.
         21    1    1    2  504  502  0.18551876313E+02 -0.92263143569E+01 -0.29910391628E+03  0.29982069596E+03  0.00000000000E+00 0.  1.
<mgrwt>
<rscale>  2 0.20719483E+02</rscale>
<asrwt>0</asrwt>
<pdfrwt beam="1">  1       21 0.99976376E-01 0.20719483E+02</pdfrwt>
<pdfrwt beam="2">  1       21 0.46096547E-01 0.20719483E+02</pdfrwt>
<totfact> 0.51034315E+03</totfact>
</mgrwt>
</event>
<event>
 4    1  0.4578942E+006  0.3132255E+02  0.7546771E-02  0.1583913E+00
         21   -1    0    0  503  501  0.00000000000E+00  0.00000000000E+00  0.26038661886E+02  0.26038661886E+02  0.00000000000E+00 0.  1.
         21   -1    0    0  504  502 -0.00000000000E+00 -0.00000000000E+00 -0.61582490973E+02  0.61582490973E+02  0.00000000000E+00 0. -1.
         21    1    1    2  503  502  0.16585778423E+02  0.26570922393E+02  0.95231465039E+01  0.32738238836E+02  0.00000000000E+00 0.  1.
         21    1    1    2  504  501 -0.16585778423E+02 -0.26570922393E+02 -0.45066975591E+02  0.54882914023E+02  0.00000000000E+00 0. -1.
<mgrwt>
<rscale>  2 0.31322547E+02</rscale>
<asrwt>0</asrwt>
<pdfrwt beam="1">  1       21 0.40059480E-02 0.31322547E+02</pdfrwt>
<pdfrwt beam="2">  1       21 0.94742294E-02 0.31322547E+02</pdfrwt>
<totfact> 0.27654055E+07</totfact>
</mgrwt>
</event>
<event>
 4    1  0.4578942E+006  0.4566054E+02  0.7546771E-02  0.1470260E+00
         21   -1    0    0  504  501  0.00000000000E+00  0.00000000000E+00  0.51322494418E+03  0.51322494418E+03  0.00000000000E+00 0.  1.
         21   -1    0    0  503  502 -0.00000000000E+00 -0.00000000000E+00 -0.12751398213E+02  0.12751398213E+02  0.00000000000E+00 0. -1.
         21    1    1    2  503  501 -0.38092548990E+02 -0.25176239624E+02  0.46732891163E+03  0.46955425349E+03  0.00000000000E+00 0.  1.
         21    1    1    2  504  502  0.38092548990E+02  0.25176239624E+02  0.33144634337E+02  0.56422088897E+02  0.00000000000E+00 0. -1.
<mgrwt>
<rscale>  2 0.45660545E+02</rscale>
<asrwt>0</asrwt>
<pdfrwt beam="1">  1       21 0.78957668E-01 0.45660545E+02</pdfrwt>
<pdfrwt beam="2">  1       21 0.19617540E-02 0.45660545E+02</pdfrwt>
<totfact> 0.17350530E+06</totfact>
</mgrwt>
</event>
<event>
 4    1  0.4578942E+006  0.2015015E+02  0.7546771E-02  0.1742358E+00
         21   -1    0    0  503  501  0.00000000000E+00  0.00000000000E+00  0.61749487983E+02  0.61749487983E+02  0.00000000000E+00 0. -1.
         21   -1    0    0  504  502 -0.00000000000E+00 -0.00000000000E+00 -0.96678695807E+02  0.96678695807E+02  0.00000000000E+00 0.  1.
         21    1    1    2  503  502 -0.19895832591E+02  0.31913168480E+01  0.59008259642E+02  0.62353856045E+02  0.00000000000E+00 0. -1.
         21    1    1    2  504  501  0.19895832591E+02 -0.31913168480E+01 -0.93937467466E+02  0.96074327745E+02  0.00000000000E+00 0.  1.
<mgrwt>
<rscale>  2 0.20150153E+02</rscale>
<asrwt>0</asrwt>
<pdfrwt beam="1">  1       21 0.94999213E-02 0.20150153E+02</pdfrwt>
<pdfrwt beam="2">  1       21 0.14873645E-01 0.20150153E+02</pdfrwt>
<totfact> 0.29730692E+06</totfact>
</mgrwt>
</event>
<event>
 4    1  0.4578942E+006  0.2558695E+02  0.7546771E-02  0.1652712E+00
         21   -1    0    0  504  501  0.00000000000E+00  0.00000000000E+00  0.61711869479E+03  0.61711869479E+03  0.00000000000E+00 0. -1.
         21   -1    0    0  501  502 -0.00000000000E+00 -0.00000000000E+00 -0.10170201235E+02  0.10170201235E+02  0.00000000000E+00 0.  1.
         21    1    1    2  503  502 -0.24395660644E+01 -0.25470384471E+02  0.66388277447E+01  0.26434182444E+02  0.00000000000E+00 0.  1.
         21    1    1    2  504  503  0.24395660644E+01  0.25470384471E+02  0.60030966581E+03  0.60085471358E+03  0.00000000000E+00 0. -1.
<mgrwt>
<rscale>  2 0.25586949E+02</rscale>
<asrwt>0</asrwt>
<pdfrwt beam="1">  1       21 0.94941308E-01 0.25586949E+02</pdfrwt>
<pdfrwt beam="2">  1       21 0.15646468E-02 0.25586949E+02</pdfrwt>
<totfact> 0.15842095E+06</totfact>
</mgrwt>
</event>
<event>
 4    1  0.4578942E+006  0.2117459E+02  0.7546771E-02  0.1722931E+00
         21   -1    0    0  502  501  0.00000000000E+00  0.00000000000E+00  0.60050657195E+02  0.60050657195E+02  0.00000000000E+00 0.  1.
         21   -1    0    0  504  502 -0.00000000000E+00 -0.00000000000E+00 -0.27452658025E+03  0.27452658025E+03  0.00000000000E+00 0. -1.
         21    1    1    2  503  501 -0.19110531553E+02 -0.91187170340E+01  0.57760064299E+02  0.61519008806E+02  0.00000000000E+00 0.  1.
         21    1    1    2  504  503  0.19110531553E+02  0.91187170340E+01 -0.27223598735E+03  0.27305822864E+03  0.00000000000E+00 0. -1.
<mgrwt>
<rscale>  2 0.21174594E+02</rscale>
<asrwt>0</asrwt>
<pdfrwt beam="1">  1       21 0.92385626E-02 0.21174594E+02</pdfrwt>
<pdfrwt beam="2">  1       21 0.42234859E-01 0.21174594E+02</pdfrwt>
<totfact> 0.48796819E+05</totfact>
</mgrwt>
</event>
<event>
 4    1  0.4578942E+006  0.2691697E+02  0.7546771E-02  0.1634902E+00
         21   -1    0    0  502  501  0.00000000000E+00  0.00000000000E+00  0.28911590413E+02  0.28911590413E+02  0.00000000000E+00 0. -1.
         21   -1    0    0  504  502 -0.00000000000E+00 -0.00000000000E+00 -0.54736430719E+02  0.54736430719E+02  0.00000000000E+00 0. -1.
         21    1    1    2  503  501 -0.91163559905E+01  0.25326175569E+02  0.17883530179E+02  0.32316308068E+02  0.00000000000E+00 0. -1.
         21    1    1    2  504  503  0.91163559905E+01 -0.25326175569E+02 -0.43708370485E+02  0.51331713063E+02  0.00000000000E+00 0. -1.
<mgrwt>
<rscale>  2 0.26916967E+02</rscale>
<asrwt>0</asrwt>
<pdfrwt beam="1">  1       21 0.44479370E-02 0.26916967E+02</pdfrwt>
<pdfrwt beam="2">  1       21 0.84209893E-02 0.26916967E+02</pdfrwt>
<totfact> 0.27585938E+07</totfact>
</mgrwt>
</event>
<event>
 4    1  0.4578942E+006  0.2352447E+02  0.7546771E-02  0.1683147E+00
         21   -1    0    0  504  501  0.00000000000E+00  0.00000000000E+00  0.85179889056E+02  0.85179889056E+02  0.00000000000E+00 0.  1.
         21   -1    0    0  503  502 -0.00000000000E+00 -0.00000000000E+00 -0.20297900139E+02  0.20297900139E+02  0.00000000000E+00 0. -1.
         21    1    1    2  503  501 -0.21148018052E+02  0.10303494643E+02 -0.11046219778E+02  0.25988836849E+02  0.00000000000E+00 0. -1.
         21    1    1    2  504  502  0.21148018052E+02 -0.10303494643E+02  0.75928208695E+02  0.79488952346E+02  0.00000000000E+00 0.  1.
<mgrwt>
<rscale>  2 0.23524470E+02</rscale>
<asrwt>0</asrwt>
<pdfrwt beam="1">  1       21 0.13104598E-01 0.23524470E+02</pdfrwt>
<pdfrwt beam="2">  1       21 0.31227539E-02 0.23524470E+02</pdfrwt>
<totfact> 0.22401646E+07</totfact>
</mgrwt>
</event>
<event>
 4    1  0.4578942E+006  0.2101039E+02  0.7546771E-02  0.1725951E+00
         21   -1    0    0  504  501  0.00000000000E+00  0.00000000000E+00  0.32436678053E+02  0.32436678053E+02  0.00000000000E+00 0.  1.
         21   -1    0    0  501  502 -0.00000000000E+00 -0.00000000000E+00 -0.19528367149E+02  0.19528367149E+02  0.00000000000E+00 0.  1.
         21    1    1    2  503  502  0.19347872914E+02  0.81912344741E+01 -0.78505683270E+01  0.22429175900E+02  0.00000000000E+00 0.  1.
         21    1    1    2  504  503 -0.19347872914E+02 -0.81912344741E+01  0.20758879231E+02  0.29535869302E+02  0.00000000000E+00 0.  1.
<mgrwt>
<rscale>  2 0.21010390E+02</rscale>
<asrwt>0</asrwt>
<pdfrwt beam="1">  1       21 0.49902582E-02 0.21010390E+02</pdfrwt>
<pdfrwt beam="2">  1       21 0.30043642E-02 0.21010390E+02</pdfrwt>
<totfact> 0.11168360E+08</totfact>
</mgrwt>
</event>
<event>
 4    1  0.4578942E+006  0.2781638E+02  0.7546771E-02  0.1623561E+00
         21   -1    0    0  504  501  0.00000000000E+00  0.00000000000E+00  0.16706325938E+03  0.16706325938E+03  0.00000000000E+00 0. -1.
         21   -1    0    0  501  502 -0.00000000000E+00 -0.00000000000E+00 -0.35143938204E+02  0.35143938204E+02  0.00000000000E+00 0.  1.
         21    1    1    2  503  502  0.10116873202E+02 -0.25911386374E+02 -0.28246642401E+02  0.39643711659E+02  0.00000000000E+00 0.  1.
         21    1    1    2  504  503 -0.10116873202E+02  0.25911386374E+02  0.16016596358E+03  0.16256348592E+03  0.00000000000E+00 0. -1.
<mgrwt>
<rscale>  2 0.27816381E+02</rscale>
<asrwt>0</asrwt>
<pdfrwt beam="1">  1       21 0.25702039E-01 0.27816381E+02</pdfrwt>
<pdfrwt beam="2">  1       21 0.54067598E-02 0.27816381E+02</pdfrwt>
<totfact> 0.29894903E+06</totfact>
</mgrwt>
</event>
<event>
 4    1  0.4578942E+006  0.2083570E+02  0.7546771E-02  0.1729202E+00
         21   -1    0    0  503  501  0.00000000000E+00  0.00000000000E+00  0.57758776604E+00  0.57758776604E+00  0.00000000000E+00 0. -1.
         21   -1    0    0  504  502 -0.00000000000E+00 -0.00000000000E+00 -0.12002947031E+04  0.12002947031E+04  0.00000000000E+00 0. -1.
         21    1    1    2  503  502 -0.13237951379E+02  0.16089841172E+02 -0.23275480934E+03  0.23368553147E+03  0.00000000000E+00 0. -1.
         21    1    1    2  504  501  0.13237951379E+02 -0.16089841172E+02 -0.96696230602E+03  0.96718675943E+03  0.00000000000E+00 0. -1.
<mgrwt>
<rscale>  2 0.20835699E+02</rscale>
<asrwt>0</asrwt>
<pdfrwt beam="1">  1       21 0.88860281E-04 0.20835699E+02</pdfrwt>
<pdfrwt beam="2">  1       21 0.18465943E+00 0.20835699E+02</pdfrwt>
<totfact> 0.22168767E+07</totfact>
</mgrwt>
</event>
<event>
 4    1  0.4578942E+006  0.2004704E+02  0.7546771E-02  0.1744394E+00
         21   -1    0    0  503  501  0.00000000000E+00  0.00000000000E+00  0.19153010117E+02  0.19153010117E+02  0.00000000000E+00 0.  1.
         21   -1    0    0  504  502 -0.00000000000E+00 -0.00000000000E+00 -0.26888647687E+02  0.26888647687E+02  0.00000000000E+00 0.  1.
         21    1    1    2  503  502  0.13364144782E+02  0.14942676045E+02 -0.14656722198E+02  0.24833514426E+02  0.00000000000E+00 0.  1.
         21    1    1    2  504  501 -0.13364144782E+02 -0.14942676045E+02  0.69210846284E+01  0.21208143379E+02  0.00000000000E+00 0.  1.
<mgrwt>
<rscale>  2 0.20047043E+02</rscale>
<asrwt>0</asrwt>
<pdfrwt beam="1">  1       21 0.29466169E-02 0.20047043E+02</pdfrwt>
<pdfrwt beam="2">  1       21 0.41367150E-02 0.20047043E+02</pdfrwt>
<totfact> 0.15249811E+08</totfact>
</mgrwt>
</event>
<event>
 4    1  0.4578942E+006  0.2316277E+02  0.7546771E-02  0.1688885E+00
         21   -1    0    0  503  501  0.00000000000E+00  0.00000000000E+00  0.27818384868E+03  0.27818384868E+03  0.00000000000E+00 0.  1.
         21   -1    0    0  504  502 -0.00000000000E+00 -0.00000000000E+00 -0.97407234963E+02  0.97407234963E+02  0.00000000000E+00 0.  1.
         21    1    1    2  503  502 -0.18580011310E+02 -0.13831015220E+02 -0.95538796001E+02  0.98306537645E+02  0.00000000000E+00 0.  1.
         21    1    1    2  504  501  0.18580011310E+02  0.13831015220E+02  0.27631540972E+03  0.27728454600E+03  0.00000000000E+00 0.  1.
<mgrwt>
<rscale>  2 0.23162768E+02</rscale>
<asrwt>0</asrwt>
<pdfrwt beam="1">  1       21 0.42797515E-01 0.23162768E+02</pdfrwt>
<pdfrwt beam="2">  1       21 0.14985729E-01 0.23162768E+02</pdfrwt>
<totfact> 0.21307203E+05</totfact>
</mgrwt>
</event>
<event>
 4    1  0.4578942E+006  0.2022617E+02  0.7546771E-02  0.1740867E+00
         21   -1    0    0  504  501  0.00000000000E+00  0.00000000000E+00  0.34244226760E+02  0.34244226760E+02  0.00000000000E+00 0.  1.
         21   -1    0    0  501  502 -0.00000000000E+00 -0.00000000000E+00 -0.82666642046E+02  0.82666642046E+02  0.00000000000E+00 0.  1.
         21    1    1    2  503  502  0.79599816462E+01 -0.18593992442E+02 -0.78278096147E+02  0.80848983909E+02  0.00000000000E+00 0.  1.
         21    1    1    2  504  503 -0.79599816462E+01  0.18593992442E+02  0.29855680860E+02  0.36061884897E+02  0.00000000000E+00 0.  1.
<mgrwt>
<rscale>  2 0.20226168E+02</rscale>
<asrwt>0</asrwt>
<pdfrwt beam="1">  1       21 0.52683426E-02 0.20226168E+02</pdfrwt>
<pdfrwt beam="2">  1       21 0.12717945E-01 0.20226168E+02</pdfrwt>
<totfact> 0.10016164E+07</totfact>
</mgrwt>
</event>
<event>
 4    1  0.4578942E+006  0.2335491E+02  0.7546771E-02  0.1685821E+00
         21   -1    0    0  503  501  0.00000000000E+00  0.00000000000E+00  0.13041964095E+04  0.13041964095E+04  0.00000000000E+00 0.  1.
         21   -1    0    0  504  502 -0.00000000000E+00 -0.00000000000E+00 -0.63093633882E+01  0.63093633882E+01  0.00000000000E+00 0. -1.
         21    1    1    2  503  502  0.18966583401E+02  0.13627928955E+02  0.15780322042E+02  0.28186349485E+02  0.00000000000E+00 0. -1.
         21    1    1    2  504  501 -0.18966583401E+02 -0.13627928955E+02  0.12821067240E+04  0.12823194234E+04  0.00000000000E+00 0.  1.
<mgrwt>
<rscale>  2 0.23354908E+02</rscale>
<asrwt>0</asrwt>
<pdfrwt beam="1">  1       21 0.20064539E+00 0.23354908E+02</pdfrwt>
<pdfrwt beam="2">  1       21 0.97067233E-03 0.23354908E+02</pdfrwt>
<totfact> 0.55903838E+05</totfact>
</mgrwt>
</event>
<event>
 4    1  0.4578942E+006  0.2046440E+02  0.7546771E-02  0.1736247E+00
         21   -1    0    0  502  501  0.00000000000E+00  0.00000000000E+00  0.20301965771E+03  0.20301965771E+03  0.00000000000E+00 0. -1.
         21   -1    0    0  504  502 -0.00000000000E+00 -0.00000000000E+00 -0.12098849074E+02  0.12098849074E+02  0.00000000000E+00 0. -1.
         21    1    1    2  503  501  0.69572995873E+01  0.19245459460E+02  0.19342222349E+03  0.19450179503E+03  0.00000000000E+00 0. -1.
         21    1    1    2  504  503 -0.69572995873E+01 -0.19245459460E+02 -0.25014148578E+01  0.20616711757E+02  0.00000000000E+00 0. -1.
<mgrwt>
<rscale>  2 0.20464401E+02</rscale>
<asrwt>0</asrwt>
<pdfrwt beam="1">  1       21 0.31233791E-01 0.20464401E+02</pdfrwt>
<pdfrwt beam="2">  1       21 0.18613616E-02 0.20464401E+02</pdfrwt>
<totfact> 0.10601354E+07</totfact>
</mgrwt>
</event>
<event>
 4    1  0.4578942E+006  0.2535345E+02  0.7546771E-02  0.1655976E+00
         21   -1    0    0  503  501  0.00000000000E+00  0.00000000000E+00  0.11372158176E+02  0.11372158176E+02  0.00000000000E+00 0.  1.
         21   -1    0    0  504  502 -0.00000000000E+00 -0.00000000000E+00 -0.65607171634E+02  0.65607171634E+02  0.00000000000E+00 0.  1.
         21    1    1    2  503  502  0.24143782717E+02  0.77379094334E+01 -0.41439129852E+02  0.48579820596E+02  0.00000000000E+00 0.  1.
         21    1    1    2  504  501 -0.24143782717E+02 -0.77379094334E+01 -0.12795883607E+02  0.28399509213E+02  0.00000000000E+00 0.  1.
<mgrwt>
<rscale>  2 0.25353451E+02</rscale>
<asrwt>0</asrwt>
<pdfrwt beam="1">  1       21 0.17495628E-02 0.25353451E+02</pdfrwt>
<pdfrwt beam="2">  1       21 0.10093411E-01 0.25353451E+02</pdfrwt>
<totfact> 0.86504154E+07</totfact>
</mgrwt>
</event>
