<event>
 4    1  0.2812958E+004  0.2828842E+02  0.7546771E-02  0.1617817E+00
         21   -1    0    0  501  502  0.00000000000E+00  0.00000000000E+00  0.18774200841E+01  0.18774200841E+01  0.00000000000E+00 0. -1.
         21   -1    0    0  502  503 -0.00000000000E+00 -0.00000000000E+00 -0.56253476777E+03  0.56253476777E+03  0.00000000000E+00 0.  1.
          2    1    1    2  501    0  0.18325201200E+02 -0.21550449662E+02 -0.14142029017E+03  0.14422181996E+03  0.00000000000E+00 0. -1.
         -2    1    1    2    0  503 -0.18325201200E+02  0.21550449662E+02 -0.41923705751E+03  0.42019036789E+03  0.00000000000E+00 0.  1.
<mgrwt>
<rscale>  2 0.28288423E+02</rscale>
<asrwt>0</asrwt>
<pdfrwt beam="1">  1       21 0.28883367E-03 0.28288423E+02</pdfrwt>
<pdfrwt beam="2">  1       21 0.86543869E-01 0.28288423E+02</pdfrwt>
<totfact> 0.24510646E+07</totfact>
</mgrwt>
</event>
<event>
 4    1  0.2812958E+004  0.2055522E+02  0.7546771E-02  0.1734507E+00
         21   -1    0    0  501  502  0.00000000000E+00  0.00000000000E+00  0.28676924819E+01  0.28676924819E+01  0.00000000000E+00 0. -1.
         21   -1    0    0  502  503 -0.00000000000E+00 -0.00000000000E+00 -0.15360050344E+03  0.15360050344E+03  0.00000000000E+00 0.  1.
          2    1    1    2  501    0  0.15188880752E+02 -0.13849733996E+02 -0.59568186054E+02  0.63014966635E+02  0.00000000000E+00 0. -1.
         -2    1    1    2    0  503 -0.15188880752E+02  0.13849733996E+02 -0.91164624908E+02  0.93453229291E+02  0.00000000000E+00 0.  1.
<mgrwt>
<rscale>  2 0.20555224E+02</rscale>
<asrwt>0</asrwt>
<pdfrwt beam="1">  1       21 0.44118344E-03 0.20555224E+02</pdfrwt>
<pdfrwt beam="2">  1       21 0.23630848E-01 0.20555224E+02</pdfrwt>
<totfact> 0.14991663E+08</totfact>
</mgrwt>
</event>
<event>
 4    1  0.2812958E+004  0.3421294E+02  0.7546771E-02  0.1555703E+00
         21   -1    0    0  503  502  0.00000000000E+00  0.00000000000E+00  0.19585501684E+03  0.19585501684E+03  0.00000000000E+00 0.  1.
         21   -1    0    0  501  503 -0.00000000000E+00 -0.00000000000E+00 -0.61720689852E+01  0.61720689852E+01  0.00000000000E+00 0. -1.
          2    1    1    2  501    0 -0.22727683132E+02 -0.25572990131E+02  0.76859964994E+02  0.84130729366E+02  0.00000000000E+00 0. -1.
         -2    1    1    2    0  502  0.22727683132E+02  0.25572990131E+02  0.11282298286E+03  0.11789635646E+03  0.00000000000E+00 0.  1.
<mgrwt>
<rscale>  2 0.34212942E+02</rscale>
<asrwt>0</asrwt>
<pdfrwt beam="1">  1       21 0.30131536E-01 0.34212942E+02</pdfrwt>
<pdfrwt beam="2">  1       21 0.94954923E-03 0.34212942E+02</pdfrwt>
<totfact> 0.34816168E+07</totfact>
</mgrwt>
</event>
<event>
 4    1  0.2812958E+004  0.3261403E+02  0.7546771E-02  0.1570870E+00
         21   -1    0    0  503  502  0.00000000000E+00  0.00000000000E+00  0.18597911622E+01  0.18597911622E+01  0.00000000000E+00 0.  1.
         21   -1    0    0  501  503 -0.00000000000E+00 -0.00000000000E+00 -0.12606457581E+04  0.12606457581E+04  0.00000000000E+00 0. -1.
          2    1    1    2  501    0 -0.23199927551E+02 -0.22922436643E+02 -0.10959728923E+04  0.10964580500E+04  0.00000000000E+00 0. -1.
         -2    1    1    2    0  502  0.23199927551E+02  0.22922436643E+02 -0.16281307460E+03  0.16604749923E+03  0.00000000000E+00 0.  1.
<mgrwt>
<rscale>  2 0.32614027E+02</rscale>
<asrwt>0</asrwt>
<pdfrwt beam="1">  1       21 0.28612342E-03 0.32614027E+02</pdfrwt>
<pdfrwt beam="2">  1       21 0.19394435E+00 0.32614027E+02</pdfrwt>
<totfact> 0.38017375E+06</totfact>
</mgrwt>
</event>
<event>
 4    1  0.2812958E+004  0.2216933E+02  0.7546771E-02  0.1705340E+00
         21   -1    0    0  501  502  0.00000000000E+00  0.00000000000E+00  0.19026207534E+01  0.19026207534E+01  0.00000000000E+00 0. -1.
         21   -1    0    0  502  503 -0.00000000000E+00 -0.00000000000E+00 -0.34642973400E+03  0.34642973400E+03  0.00000000000E+00 0.  1.
          2    1    1    2  501    0  0.20792815196E+02  0.76901187926E+01 -0.84426893257E+02  0.87289056564E+02  0.00000000000E+00 0. -1.
         -2    1    1    2    0  503 -0.20792815196E+02 -0.76901187926E+01 -0.26010021999E+03  0.26104329819E+03  0.00000000000E+00 0.  1.
<mgrwt>
<rscale>  2 0.22169328E+02</rscale>
<asrwt>0</asrwt>
<pdfrwt beam="1">  1       21 0.29271076E-03 0.22169328E+02</pdfrwt>
<pdfrwt beam="2">  1       21 0.53296905E-01 0.22169328E+02</pdfrwt>
<totfact> 0.61678079E+07</totfact>
</mgrwt>
</event>
<event>
 4    1  0.2812958E+004  0.2085042E+02  0.7546771E-02  0.1728927E+00
         21   -1    0    0  503  502  0.00000000000E+00  0.00000000000E+00  0.11203463010E+01  0.11203463010E+01  0.00000000000E+00 0.  1.
         21   -1    0    0  501  503 -0.00000000000E+00 -0.00000000000E+00 -0.40915138230E+03  0.40915138230E+03  0.00000000000E+00 0. -1.
          2    1    1    2  501    0 -0.17756182027E+02 -0.10929686548E+02 -0.25061165740E+03  0.25147751962E+03  0.00000000000E+00 0. -1.
         -2    1    1    2    0  502  0.17756182027E+02  0.10929686548E+02 -0.15741937860E+03  0.15879420898E+03  0.00000000000E+00 0.  1.
<mgrwt>
<rscale>  2 0.20850421E+02</rscale>
<asrwt>0</asrwt>
<pdfrwt beam="1">  1       21 0.17236075E-03 0.20850421E+02</pdfrwt>
<pdfrwt beam="2">  1       21 0.62946446E-01 0.20850421E+02</pdfrwt>
<totfact> 0.93828228E+07</totfact>
</mgrwt>
</event>
<event>
 4    1  0.2812958E+004  0.2806671E+02  0.7546771E-02  0.1620497E+00
         21   -1    0    0  501  502  0.00000000000E+00  0.00000000000E+00  0.78271049443E+02  0.78271049443E+02  0.00000000000E+00 0. -1.
         21   -1    0    0  502  503 -0.00000000000E+00 -0.00000000000E+00 -0.33299183780E+02  0.33299183780E+02  0.00000000000E+00 0.  1.
          2    1    1    2  501    0 -0.16952983207E+02  0.22368199666E+02  0.69084461109E+02  0.74568108215E+02  0.00000000000E+00 0. -1.
         -2    1    1    2    0  503  0.16952983207E+02 -0.22368199666E+02 -0.24112595447E+02  0.37002125008E+02  0.00000000000E+00 0.  1.
<mgrwt>
<rscale>  2 0.28066706E+02</rscale>
<asrwt>0</asrwt>
<pdfrwt beam="1">  1       21 0.12041700E-01 0.28066706E+02</pdfrwt>
<pdfrwt beam="2">  1       21 0.51229514E-02 0.28066706E+02</pdfrwt>
<totfact> 0.12222934E+07</totfact>
</mgrwt>
</event>
<event>
 4    1  0.2812958E+004  0.2453704E+02  0.7546771E-02  0.1667742E+00
         21   -1    0    0  501  502  0.00000000000E+00  0.00000000000E+00  0.22399580734E+02  0.22399580734E+02  0.00000000000E+00 0.  1.
         21   -1    0    0  502  503 -0.00000000000E+00 -0.00000000000E+00 -0.27616838140E+02  0.27616838140E+02  0.00000000000E+00 0. -1.
          2    1    1    2  501    0  0.22296284430E+02 -0.10244130381E+02  0.14805064663E+01  0.24581668089E+02  0.00000000000E+00 0. -1.
         -2    1    1    2    0  503 -0.22296284430E+02  0.10244130381E+02 -0.66977638726E+01  0.25434750786E+02  0.00000000000E+00 0.  1.
<mgrwt>
<rscale>  2 0.24537044E+02</rscale>
<asrwt>0</asrwt>
<pdfrwt beam="1">  1       21 0.34460894E-02 0.24537044E+02</pdfrwt>
<pdfrwt beam="2">  1       21 0.42487443E-02 0.24537044E+02</pdfrwt>
<totfact> 0.12179174E+08</totfact>
</mgrwt>
</event>
<event>
 4    1  0.2812958E+004  0.2128024E+02  0.7546771E-02  0.1721006E+00
         21   -1    0    0  501  502  0.00000000000E+00  0.00000000000E+00  0.43301195055E+01  0.43301195055E+01  0.00000000000E+00 0. -1.
         21   -1    0    0  502  503 -0.00000000000E+00 -0.00000000000E+00 -0.10952233996E+03  0.10952233996E+03  0.00000000000E+00 0.  1.
          2    1    1    2  501    0 -0.21236942336E+02 -0.13568435406E+01 -0.40504665563E+02  0.45754526296E+02  0.00000000000E+00 0.  1.
         -2    1    1    2    0  503  0.21236942336E+02  0.13568435406E+01 -0.64687554888E+02  0.68097933167E+02  0.00000000000E+00 0. -1.
<mgrwt>
<rscale>  2 0.21280243E+02</rscale>
<asrwt>0</asrwt>
<pdfrwt beam="1">  1       21 0.66617223E-03 0.21280243E+02</pdfrwt>
<pdfrwt beam="2">  1       21 0.16849591E-01 0.21280243E+02</pdfrwt>
<totfact> 0.14857610E+08</totfact>
</mgrwt>
</event>
<event>
 4    1  0.2812958E+004  0.2214426E+02  0.7546771E-02  0.1705769E+00
         21   -1    0    0  501  502  0.00000000000E+00  0.00000000000E+00  0.39349363130E+03  0.39349363130E+03  0.00000000000E+00 0. -1.
         21   -1    0    0  502  503 -0.00000000000E+00 -0.00000000000E+00 -0.24043870325E+01  0.24043870325E+01  0.00000000000E+00 0.  1.
          2    1    1    2  501    0  0.30674341475E+00 -0.22142134854E+02  0.33293052669E+03  0.33366615626E+03  0.00000000000E+00 0. -1.
         -2    1    1    2    0  503 -0.30674341475E+00  0.22142134854E+02  0.58158717574E+02  0.62231862075E+02  0.00000000000E+00 0.  1.
<mgrwt>
<rscale>  2 0.22144259E+02</rscale>
<asrwt>0</asrwt>
<pdfrwt beam="1">  1       21 0.60537431E-01 0.22144259E+02</pdfrwt>
<pdfrwt beam="2">  1       21 0.36990601E-03 0.22144259E+02</pdfrwt>
<totfact> 0.34065349E+07</totfact>
</mgrwt>
</event>
<event>
 4    1  0.2812958E+004  0.3798778E+02  0.7546771E-02  0.1523564E+00
         21   -1    0    0  501  502  0.00000000000E+00  0.00000000000E+00  0.83489263345E+03  0.83489263345E+03  0.00000000000E+00 0. -1.
         21   -1    0    0  502  503 -0.00000000000E+00 -0.00000000000E+00 -0.22299936139E+01  0.22299936139E+01  0.00000000000E+00 0.  1.
          2    1    1    2  501    0 -0.28575969886E+02  0.25029682417E+02  0.61483162077E+03  0.61600405271E+03  0.00000000000E+00 0. -1.
         -2    1    1    2    0  503  0.28575969886E+02 -0.25029682417E+02  0.21783101907E+03  0.22111857436E+03  0.00000000000E+00 0.  1.
<mgrwt>
<rscale>  2 0.37987775E+02</rscale>
<asrwt>0</asrwt>
<pdfrwt beam="1">  1       21 0.12844477E+00 0.37987775E+02</pdfrwt>
<pdfrwt beam="2">  1       21 0.34307661E-03 0.37987775E+02</pdfrwt>
<totfact> 0.81534896E+06</totfact>
</mgrwt>
</event>
<event>
 4    1  0.2812958E+004  0.2485829E+02  0.7546771E-02  0.1663046E+00
         21   -1    0    0  503  502  0.00000000000E+00  0.00000000000E+00  0.18272819195E+03  0.18272819195E+03  0.00000000000E+00 0. -1.
         21   -1    0    0  501  503 -0.00000000000E+00 -0.00000000000E+00 -0.85855741031E+01  0.85855741031E+01  0.00000000000E+00 0.  1.
          2    1    1    2  501    0  0.20084982503E+02  0.14646773489E+02  0.12599078900E+02  0.27868822811E+02  0.00000000000E+00 0.  1.
         -2    1    1    2    0  502 -0.20084982503E+02 -0.14646773489E+02  0.16154353894E+03  0.16344494324E+03  0.00000000000E+00 0. -1.
<mgrwt>
<rscale>  2 0.24858288E+02</rscale>
<asrwt>0</asrwt>
<pdfrwt beam="1">  1       21 0.28112027E-01 0.24858288E+02</pdfrwt>
<pdfrwt beam="2">  1       21 0.13208577E-02 0.24858288E+02</pdfrwt>
<totfact> 0.22500588E+07</totfact>
</mgrwt>
</event>
<event>
 4    1  0.2812958E+004  0.2277288E+02  0.7546771E-02  0.1695218E+00
         21   -1    0    0  501  502  0.00000000000E+00  0.00000000000E+00  0.93465860836E+01  0.93465860836E+01  0.00000000000E+00 0. -1.
         21   -1    0    0  502  503 -0.00000000000E+00 -0.00000000000E+00 -0.60272835555E+02  0.60272835555E+02  0.00000000000E+00 0.  1.
          2    1    1    2  501    0  0.76165370320E+01  0.21461414664E+02 -0.15653162158E+02  0.27633773562E+02  0.00000000000E+00 0. -1.
         -2    1    1    2    0  503 -0.76165370320E+01 -0.21461414664E+02 -0.35273087313E+02  0.41985648076E+02  0.00000000000E+00 0.  1.
<mgrwt>
<rscale>  2 0.22772878E+02</rscale>
<asrwt>0</asrwt>
<pdfrwt beam="1">  1       21 0.14379363E-02 0.22772878E+02</pdfrwt>
<pdfrwt beam="2">  1       21 0.92727442E-02 0.22772878E+02</pdfrwt>
<totfact> 0.13027788E+08</totfact>
</mgrwt>
</event>
<event>
 4    1  0.2812958E+004  0.2051632E+02  0.7546771E-02  0.1735251E+00
         21   -1    0    0  501  502  0.00000000000E+00  0.00000000000E+00  0.11783907657E+02  0.11783907657E+02  0.00000000000E+00 0. -1.
         21   -1    0    0  502  503 -0.00000000000E+00 -0.00000000000E+00 -0.54921916057E+02  0.54921916057E+02  0.00000000000E+00 0.  1.
          2    1    1    2  501    0 -0.14177818026E+02 -0.14829323221E+02 -0.18477307191E+01  0.20599355815E+02  0.00000000000E+00 0.  1.
         -2    1    1    2    0  503  0.14177818026E+02  0.14829323221E+02 -0.41290277681E+02  0.46106467899E+02  0.00000000000E+00 0. -1.
<mgrwt>
<rscale>  2 0.20516319E+02</rscale>
<asrwt>0</asrwt>
<pdfrwt beam="1">  1       21 0.18129089E-02 0.20516319E+02</pdfrwt>
<pdfrwt beam="2">  1       21 0.84495256E-02 0.20516319E+02</pdfrwt>
<totfact> 0.10342480E+08</totfact>
</mgrwt>
</event>
<event>
 4    1  0.2812958E+004  0.2054606E+02  0.7546771E-02  0.1734682E+00
         21   -1    0    0  501  502  0.00000000000E+00  0.00000000000E+00  0.10178060101E+03  0.10178060101E+03  0.00000000000E+00 0.  1.
         21   -1    0    0  502  503 -0.00000000000E+00 -0.00000000000E+00 -0.72651323569E+01  0.72651323569E+01  0.00000000000E+00 0. -1.
          2    1    1    2  501    0 -0.19581847368E+02 -0.62202596231E+01  0.82973973029E+02  0.85479942539E+02  0.00000000000E+00 0.  1.
         -2    1    1    2    0  503  0.19581847368E+02  0.62202596231E+01  0.11541495623E+02  0.23565790828E+02  0.00000000000E+00 0. -1.
<mgrwt>
<rscale>  2 0.20546055E+02</rscale>
<asrwt>0</asrwt>
<pdfrwt beam="1">  1       21 0.15658553E-01 0.20546055E+02</pdfrwt>
<pdfrwt beam="2">  1       21 0.11177127E-02 0.20546055E+02</pdfrwt>
<totfact> 0.77059049E+07</totfact>
</mgrwt>
</event>
<event>
 4    1  0.2812958E+004  0.2095077E+02  0.7546771E-02  0.1727056E+00
         21   -1    0    0  501  502  0.00000000000E+00  0.00000000000E+00  0.11678953769E+02  0.11678953769E+02  0.00000000000E+00 0.  1.
         21   -1    0    0  502  503 -0.00000000000E+00 -0.00000000000E+00 -0.64205749567E+02  0.64205749567E+02  0.00000000000E+00 0. -1.
          2    1    1    2  501    0 -0.10055707289E+02 -0.18379817971E+02 -0.18313225461E+01  0.21030660951E+02  0.00000000000E+00 0.  1.
         -2    1    1    2    0  503  0.10055707289E+02  0.18379817971E+02 -0.50695473252E+02  0.54854042385E+02  0.00000000000E+00 0. -1.
<mgrwt>
<rscale>  2 0.20950775E+02</rscale>
<asrwt>0</asrwt>
<pdfrwt beam="1">  1       21 0.17967621E-02 0.20950775E+02</pdfrwt>
<pdfrwt beam="2">  1       21 0.98778078E-02 0.20950775E+02</pdfrwt>
<totfact> 0.81675218E+07</totfact>
</mgrwt>
</event>
<event>
 4    1  0.2812958E+004  0.2776809E+02  0.7546771E-02  0.1624156E+00
         21   -1    0    0  503  502  0.00000000000E+00  0.00000000000E+00  0.13431505061E+01  0.13431505061E+01  0.00000000000E+00 0. -1.
         21   -1    0    0  501  503 -0.00000000000E+00 -0.00000000000E+00 -0.70421551798E+03  0.70421551798E+03  0.00000000000E+00 0.  1.
          2    1    1    2  501    0 -0.98958576063E+01  0.25944918394E+02 -0.50309215383E+03  0.50385789865E+03  0.00000000000E+00 0.  1.
         -2    1    1    2    0  502  0.98958576063E+01 -0.25944918394E+02 -0.19978021364E+03  0.20170076983E+03  0.00000000000E+00 0. -1.
<mgrwt>
<rscale>  2 0.27768089E+02</rscale>
<asrwt>0</asrwt>
<pdfrwt beam="1">  1       21 0.20663807E-03 0.27768089E+02</pdfrwt>
<pdfrwt beam="2">  1       21 0.10834110E+00 0.27768089E+02</pdfrwt>
<totfact> 0.24333897E+07</totfact>
</mgrwt>
</event>
<event>
 4    1  0.2812958E+004  0.2509806E+02  0.7546771E-02  0.1659597E+00
         21   -1    0    0  503  502  0.00000000000E+00  0.00000000000E+00  0.67572813954E+02  0.67572813954E+02  0.00000000000E+00 0.  1.
         21   -1    0    0  501  503 -0.00000000000E+00 -0.00000000000E+00 -0.85080326462E+02  0.85080326462E+02  0.00000000000E+00 0. -1.
          2    1    1    2  501    0 -0.19441715344E+02  0.15872374512E+02 -0.80777619222E+02  0.84586856753E+02  0.00000000000E+00 0. -1.
         -2    1    1    2    0  502  0.19441715344E+02 -0.15872374512E+02  0.63270106714E+02  0.68066283664E+02  0.00000000000E+00 0.  1.
<mgrwt>
<rscale>  2 0.25098059E+02</rscale>
<asrwt>0</asrwt>
<pdfrwt beam="1">  1       21 0.10395818E-01 0.25098059E+02</pdfrwt>
<pdfrwt beam="2">  1       21 0.13089281E-01 0.25098059E+02</pdfrwt>
<totfact> 0.32835590E+06</totfact>
</mgrwt>
</event>
<event>
 4    1  0.2812958E+004  0.2171952E+02  0.7546771E-02  0.1713148E+00
         21   -1    0    0  501  502  0.00000000000E+00  0.00000000000E+00  0.76040611585E+03  0.76040611585E+03  0.00000000000E+00 0. -1.
         21   -1    0    0  502  503 -0.00000000000E+00 -0.00000000000E+00 -0.12123708257E+01  0.12123708257E+01  0.00000000000E+00 0.  1.
          2    1    1    2  501    0  0.18138294886E+02  0.11947380973E+02  0.64569923049E+03  0.64606441932E+03  0.00000000000E+00 0. -1.
         -2    1    1    2    0  503 -0.18138294886E+02 -0.11947380973E+02  0.11349451453E+03  0.11555406735E+03  0.00000000000E+00 0.  1.
<mgrwt>
<rscale>  2 0.21719522E+02</rscale>
<asrwt>0</asrwt>
<pdfrwt beam="1">  1       21 0.11698518E+00 0.21719522E+02</pdfrwt>
<pdfrwt beam="2">  1       21 0.18651920E-03 0.21719522E+02</pdfrwt>
<totfact> 0.22726399E+07</totfact>
</mgrwt>
</event>
<event>
 4    1  0.2812958E+004  0.2275079E+02  0.7546771E-02  0.1695582E+00
         21   -1    0    0  503  502  0.00000000000E+00  0.00000000000E+00  0.20531088932E+02  0.20531088932E+02  0.00000000000E+00 0.  1.
         21   -1    0    0  501  503 -0.00000000000E+00 -0.00000000000E+00 -0.20553657320E+03  0.20553657320E+03  0.00000000000E+00 0. -1.
          2    1    1    2  501    0  0.17400207095E+02 -0.14657126176E+02 -0.19837768320E+03  0.19967800016E+03  0.00000000000E+00 0. -1.
         -2    1    1    2    0  502 -0.17400207095E+02  0.14657126176E+02  0.13372198936E+02  0.26389661973E+02  0.00000000000E+00 0.  1.
<mgrwt>
<rscale>  2 0.22750792E+02</rscale>
<asrwt>0</asrwt>
<pdfrwt beam="1">  1       21 0.31586292E-02 0.22750792E+02</pdfrwt>
<pdfrwt beam="2">  1       21 0.31621010E-01 0.22750792E+02</pdfrwt>
<totfact> 0.46748034E+06</totfact>
</mgrwt>
</event>
<event>
 4    1  0.2812958E+004  0.2268939E+02  0.7546771E-02  0.1696595E+00
         21   -1    0    0  503  502  0.00000000000E+00  0.00000000000E+00  0.77785909992E+03  0.77785909992E+03  0.00000000000E+00 0.  1.
         21   -1    0    0  501  503 -0.00000000000E+00 -0.00000000000E+00 -0.66271109350E+00  0.66271109350E+00  0.00000000000E+00 0. -1.
          2    1    1    2  501    0 -0.86341293978E+01  0.20982378940E+02  0.37438325373E+03  0.37507016556E+03  0.00000000000E+00 0. -1.
         -2    1    1    2    0  502  0.86341293978E+01 -0.20982378940E+02  0.40281313509E+03  0.40345164546E+03  0.00000000000E+00 0.  1.
<mgrwt>
<rscale>  2 0.22689390E+02</rscale>
<asrwt>0</asrwt>
<pdfrwt beam="1">  1       21 0.11966990E+00 0.22689390E+02</pdfrwt>
<pdfrwt beam="2">  1       21 0.10195618E-03 0.22689390E+02</pdfrwt>
<totfact> 0.51709738E+07</totfact>
</mgrwt>
</event>
<event>
 4    1  0.2812958E+004  0.2701902E+02  0.7546771E-02  0.1633588E+00
         21   -1    0    0  501  502  0.00000000000E+00  0.00000000000E+00  0.79127144820E+01  0.79127144820E+01  0.00000000000E+00 0.  1.
         21   -1    0    0  502  503 -0.00000000000E+00 -0.00000000000E+00 -0.19564152586E+03  0.19564152586E+03  0.00000000000E+00 0. -1.
          2    1    1    2  501    0  0.91279447357E+01 -0.25430452490E+02 -0.19879855143E+02  0.33544536507E+02  0.00000000000E+00 0.  1.
         -2    1    1    2    0  503 -0.91279447357E+01  0.25430452490E+02 -0.16784895623E+03  0.17000970383E+03  0.00000000000E+00 0. -1.
<mgrwt>
<rscale>  2 0.27019017E+02</rscale>
<asrwt>0</asrwt>
<pdfrwt beam="1">  1       21 0.12173406E-02 0.27019017E+02</pdfrwt>
<pdfrwt beam="2">  1       21 0.30098698E-01 0.27019017E+02</pdfrwt>
<totfact> 0.22865510E+07</totfact>
</mgrwt>
</event>
<event>
 4    1  0.2812958E+004  0.2891973E+02  0.7546771E-02  0.1610346E+00
         21   -1    0    0  501  502  0.00000000000E+00  0.00000000000E+00  0.13154673088E+03  0.13154673088E+03  0.00000000000E+00 0.  1.
         21   -1    0    0  502  503 -0.00000000000E+00 -0.00000000000E+00 -0.89188201044E+01  0.89188201044E+01  0.00000000000E+00 0. -1.
          2    1    1    2  501    0 -0.18486272965E+02 -0.22239794999E+02  0.98948850726E+02  0.10308843694E+03  0.00000000000E+00 0.  1.
         -2    1    1    2    0  503  0.18486272965E+02  0.22239794999E+02  0.23679060048E+02  0.37377114047E+02  0.00000000000E+00 0. -1.
<mgrwt>
<rscale>  2 0.28919730E+02</rscale>
<asrwt>0</asrwt>
<pdfrwt beam="1">  1       21 0.20237957E-01 0.28919730E+02</pdfrwt>
<pdfrwt beam="2">  1       21 0.13721263E-02 0.28919730E+02</pdfrwt>
<totfact> 0.39420235E+07</totfact>
</mgrwt>
</event>
<event>
 4    1  0.2812958E+004  0.2249032E+02  0.7546771E-02  0.1699908E+00
         21   -1    0    0  503  502  0.00000000000E+00  0.00000000000E+00  0.77705154373E+01  0.77705154373E+01  0.00000000000E+00 0. -1.
         21   -1    0    0  501  503 -0.00000000000E+00 -0.00000000000E+00 -0.83221034823E+02  0.83221034823E+02  0.00000000000E+00 0.  1.
          2    1    1    2  501    0  0.21509261541E+02  0.65700860833E+01 -0.58958546816E+02  0.63102492865E+02  0.00000000000E+00 0.  1.
         -2    1    1    2    0  502 -0.21509261541E+02 -0.65700860833E+01 -0.16491972570E+02  0.27889057396E+02  0.00000000000E+00 0. -1.
<mgrwt>
<rscale>  2 0.22490317E+02</rscale>
<asrwt>0</asrwt>
<pdfrwt beam="1">  1       21 0.11954639E-02 0.22490317E+02</pdfrwt>
<pdfrwt beam="2">  1       21 0.12803236E-01 0.22490317E+02</pdfrwt>
<totfact> 0.10039071E+08</totfact>
</mgrwt>
</event>
<event>
 4    1  0.2812958E+004  0.2620869E+02  0.7546771E-02  0.1644224E+00
         21   -1    0    0  501  502  0.00000000000E+00  0.00000000000E+00  0.47387901749E+01  0.47387901749E+01  0.00000000000E+00 0.  1.
         21   -1    0    0  502  503 -0.00000000000E+00 -0.00000000000E+00 -0.37031827207E+03  0.37031827207E+03  0.00000000000E+00 0. -1.
          2    1    1    2  501    0 -0.22210518611E+02 -0.13913603728E+02 -0.36496396504E+02  0.44931975958E+02  0.00000000000E+00 0.  1.
         -2    1    1    2    0  503  0.22210518611E+02  0.13913603728E+02 -0.32908308539E+03  0.33012508629E+03  0.00000000000E+00 0. -1.
<mgrwt>
<rscale>  2 0.26208691E+02</rscale>
<asrwt>0</asrwt>
<pdfrwt beam="1">  1       21 0.72904465E-03 0.26208691E+02</pdfrwt>
<pdfrwt beam="2">  1       21 0.56972041E-01 0.26208691E+02</pdfrwt>
<totfact> 0.14579694E+07</totfact>
</mgrwt>
</event>
<event>
 4    1  0.2812958E+004  0.3305950E+02  0.7546771E-02  0.1566540E+00
         21   -1    0    0  501  502  0.00000000000E+00  0.00000000000E+00  0.22860263933E+02  0.22860263933E+02  0.00000000000E+00 0.  1.
         21   -1    0    0  502  503 -0.00000000000E+00 -0.00000000000E+00 -0.12915023456E+03  0.12915023456E+03  0.00000000000E+00 0. -1.
          2    1    1    2  501    0 -0.33000756315E+02 -0.19698889273E+01  0.71735654014E+01  0.33828840068E+02  0.00000000000E+00 0.  1.
         -2    1    1    2    0  503  0.33000756315E+02  0.19698889273E+01 -0.11346353602E+03  0.11818165842E+03  0.00000000000E+00 0. -1.
<mgrwt>
<rscale>  2 0.33059498E+02</rscale>
<asrwt>0</asrwt>
<pdfrwt beam="1">  1       21 0.35169637E-02 0.33059498E+02</pdfrwt>
<pdfrwt beam="2">  1       21 0.19869267E-01 0.33059498E+02</pdfrwt>
<totfact> 0.96375567E+06</totfact>
</mgrwt>
</event>
<event>
 4    1  0.2812958E+004  0.2604236E+02  0.7546771E-02  0.1646466E+00
         21   -1    0    0  501  502  0.00000000000E+00  0.00000000000E+00  0.60788916460E+02  0.60788916460E+02  0.00000000000E+00 0.  1.
         21   -1    0    0  502  503 -0.00000000000E+00 -0.00000000000E+00 -0.75144327548E+02  0.75144327548E+02  0.00000000000E+00 0. -1.
          2    1    1    2  501    0  0.87779751332E+01 -0.24518399394E+02  0.55540775224E+02  0.61343153398E+02  0.00000000000E+00 0.  1.
         -2    1    1    2    0  503 -0.87779751332E+01  0.24518399394E+02 -0.69896186312E+02  0.74590090611E+02  0.00000000000E+00 0. -1.
<mgrwt>
<rscale>  2 0.26042365E+02</rscale>
<asrwt>0</asrwt>
<pdfrwt beam="1">  1       21 0.93521410E-02 0.26042365E+02</pdfrwt>
<pdfrwt beam="2">  1       21 0.11560666E-01 0.26042365E+02</pdfrwt>
<totfact> 0.48496554E+06</totfact>
</mgrwt>
</event>
<event>
 4    1  0.2812958E+004  0.2650648E+02  0.7546771E-02  0.1640261E+00
         21   -1    0    0  503  502  0.00000000000E+00  0.00000000000E+00  0.94395538055E+02  0.94395538055E+02  0.00000000000E+00 0. -1.
         21   -1    0    0  501  503 -0.00000000000E+00 -0.00000000000E+00 -0.36183303012E+02  0.36183303012E+02  0.00000000000E+00 0.  1.
          2    1    1    2  501    0  0.23112073834E+02  0.12977889422E+02 -0.29081928555E+02  0.39349105952E+02  0.00000000000E+00 0.  1.
         -2    1    1    2    0  502 -0.23112073834E+02 -0.12977889422E+02  0.87294163598E+02  0.91229735114E+02  0.00000000000E+00 0. -1.
<mgrwt>
<rscale>  2 0.26506482E+02</rscale>
<asrwt>0</asrwt>
<pdfrwt beam="1">  1       21 0.14522390E-01 0.26506482E+02</pdfrwt>
<pdfrwt beam="2">  1       21 0.55666620E-02 0.26506482E+02</pdfrwt>
<totfact> 0.77044906E+06</totfact>
</mgrwt>
</event>
<event>
 4    1  0.2812958E+004  0.2234541E+02  0.7546771E-02  0.1702346E+00
         21   -1    0    0  503  502  0.00000000000E+00  0.00000000000E+00  0.24829094156E+02  0.24829094156E+02  0.00000000000E+00 0.  1.
         21   -1    0    0  501  503 -0.00000000000E+00 -0.00000000000E+00 -0.51258440263E+02  0.51258440263E+02  0.00000000000E+00 0. -1.
          2    1    1    2  501    0  0.11916064804E+02  0.18903029670E+02 -0.42871032568E+02  0.48345036608E+02  0.00000000000E+00 0. -1.
         -2    1    1    2    0  502 -0.11916064804E+02 -0.18903029670E+02  0.16441686461E+02  0.27742497811E+02  0.00000000000E+00 0.  1.
<mgrwt>
<rscale>  2 0.22345405E+02</rscale>
<asrwt>0</asrwt>
<pdfrwt beam="1">  1       21 0.38198607E-02 0.22345405E+02</pdfrwt>
<pdfrwt beam="2">  1       21 0.78859138E-02 0.22345405E+02</pdfrwt>
<totfact> 0.37432325E+07</totfact>
</mgrwt>
</event>
<event>
 4    1  0.2812958E+004  0.2264092E+02  0.7546771E-02  0.1697398E+00
         21   -1    0    0  501  502  0.00000000000E+00  0.00000000000E+00  0.41891624911E+01  0.41891624911E+01  0.00000000000E+00 0.  1.
         21   -1    0    0  502  503 -0.00000000000E+00 -0.00000000000E+00 -0.15404888447E+03  0.15404888447E+03  0.00000000000E+00 0. -1.
          2    1    1    2  501    0 -0.10087607123E+02  0.20269472906E+02 -0.39048945229E+02  0.45137916133E+02  0.00000000000E+00 0.  1.
         -2    1    1    2    0  503  0.10087607123E+02 -0.20269472906E+02 -0.11081077675E+03  0.11310013083E+03  0.00000000000E+00 0. -1.
<mgrwt>
<rscale>  2 0.22640922E+02</rscale>
<asrwt>0</asrwt>
<pdfrwt beam="1">  1       21 0.64448665E-03 0.22640922E+02</pdfrwt>
<pdfrwt beam="2">  1       21 0.23699824E-01 0.22640922E+02</pdfrwt>
<totfact> 0.87677865E+07</totfact>
</mgrwt>
</event>
<event>
 4    1  0.2812958E+004  0.2965250E+02  0.7546771E-02  0.1601962E+00
         21   -1    0    0  501  502  0.00000000000E+00  0.00000000000E+00  0.26890885393E+02  0.26890885393E+02  0.00000000000E+00 0. -1.
         21   -1    0    0  502  503 -0.00000000000E+00 -0.00000000000E+00 -0.34734842662E+02  0.34734842662E+02  0.00000000000E+00 0.  1.
          2    1    1    2  501    0  0.29651390535E+02 -0.25609032573E+00  0.35400752167E+01  0.29863065406E+02  0.00000000000E+00 0. -1.
         -2    1    1    2    0  503 -0.29651390535E+02  0.25609032573E+00 -0.11384032485E+02  0.31762662649E+02  0.00000000000E+00 0.  1.
<mgrwt>
<rscale>  2 0.29652496E+02</rscale>
<asrwt>0</asrwt>
<pdfrwt beam="1">  1       21 0.41370593E-02 0.29652496E+02</pdfrwt>
<pdfrwt beam="2">  1       21 0.53438219E-02 0.29652496E+02</pdfrwt>
<totfact> 0.66401194E+07</totfact>
</mgrwt>
</event>
<event>
 4    1  0.2812958E+004  0.4602227E+02  0.7546771E-02  0.1468059E+00
         21   -1    0    0  503  502  0.00000000000E+00  0.00000000000E+00  0.14511022994E+03  0.14511022994E+03  0.00000000000E+00 0. -1.
         21   -1    0    0  501  503 -0.00000000000E+00 -0.00000000000E+00 -0.15193507005E+02  0.15193507005E+02  0.00000000000E+00 0.  1.
          2    1    1    2  501    0 -0.43652470330E+02 -0.14577762034E+02  0.49065391948E+02  0.67271554158E+02  0.00000000000E+00 0.  1.
         -2    1    1    2    0  502  0.43652470330E+02  0.14577762034E+02  0.80851330985E+02  0.93032182786E+02  0.00000000000E+00 0. -1.
<mgrwt>
<rscale>  2 0.46022270E+02</rscale>
<asrwt>0</asrwt>
<pdfrwt beam="1">  1       21 0.22324650E-01 0.46022270E+02</pdfrwt>
<pdfrwt beam="2">  1       21 0.23374627E-02 0.46022270E+02</pdfrwt>
<totfact> 0.15663719E+07</totfact>
</mgrwt>
</event>
<event>
 4    1  0.2812958E+004  0.2794207E+02  0.7546771E-02  0.1622018E+00
         21   -1    0    0  501  502  0.00000000000E+00  0.00000000000E+00  0.92200257879E+01  0.92200257879E+01  0.00000000000E+00 0. -1.
         21   -1    0    0  502  503 -0.00000000000E+00 -0.00000000000E+00 -0.12536437930E+03  0.12536437930E+03  0.00000000000E+00 0.  1.
          2    1    1    2  501    0 -0.21662770664E+02  0.17648906813E+02 -0.19737922354E+02  0.34210307268E+02  0.00000000000E+00 0. -1.
         -2    1    1    2    0  503  0.21662770664E+02 -0.17648906813E+02 -0.96406431161E+02  0.10037409782E+03  0.00000000000E+00 0.  1.
<mgrwt>
<rscale>  2 0.27942075E+02</rscale>
<asrwt>0</asrwt>
<pdfrwt beam="1">  1       21 0.14184657E-02 0.27942075E+02</pdfrwt>
<pdfrwt beam="2">  1       21 0.19286825E-01 0.27942075E+02</pdfrwt>
<totfact> 0.40473886E+07</totfact>
</mgrwt>
</event>
<event>
 4    1  0.2812958E+004  0.2181460E+02  0.7546771E-02  0.1711478E+00
         21   -1    0    0  501  502  0.00000000000E+00  0.00000000000E+00  0.55060664838E+03  0.55060664838E+03  0.00000000000E+00 0.  1.
         21   -1    0    0  502  503 -0.00000000000E+00 -0.00000000000E+00 -0.11441260887E+01  0.11441260887E+01  0.00000000000E+00 0. -1.
          2    1    1    2  501    0 -0.20860330415E+02 -0.63814807374E+01  0.41117007430E+03  0.41174835359E+03  0.00000000000E+00 0.  1.
         -2    1    1    2    0  503  0.20860330415E+02  0.63814807374E+01  0.13829244799E+03  0.14000242088E+03  0.00000000000E+00 0. -1.
<mgrwt>
<rscale>  2 0.21814598E+02</rscale>
<asrwt>0</asrwt>
<pdfrwt beam="1">  1       21 0.84708504E-01 0.21814598E+02</pdfrwt>
<pdfrwt beam="2">  1       21 0.17601984E-03 0.21814598E+02</pdfrwt>
<totfact> 0.49958888E+07</totfact>
</mgrwt>
</event>
<event>
 4    1  0.2812958E+004  0.3481960E+02  0.7546771E-02  0.1550208E+00
         21   -1    0    0  503  502  0.00000000000E+00  0.00000000000E+00  0.63796707936E+02  0.63796707936E+02  0.00000000000E+00 0.  1.
         21   -1    0    0  501  503 -0.00000000000E+00 -0.00000000000E+00 -0.20118793112E+02  0.20118793112E+02  0.00000000000E+00 0. -1.
          2    1    1    2  501    0  0.21244825772E+02 -0.27587356413E+02  0.11963185216E+02  0.36817423273E+02  0.00000000000E+00 0.  1.
         -2    1    1    2    0  502 -0.21244825772E+02  0.27587356413E+02  0.31714729608E+02  0.47098077775E+02  0.00000000000E+00 0. -1.
<mgrwt>
<rscale>  2 0.34819604E+02</rscale>
<asrwt>0</asrwt>
<pdfrwt beam="1">  1       21 0.98148781E-02 0.34819604E+02</pdfrwt>
<pdfrwt beam="2">  1       21 0.30951990E-02 0.34819604E+02</pdfrwt>
<totfact> 0.40095138E+07</totfact>
</mgrwt>
</event>
<event>
 4    1  0.2812958E+004  0.2235478E+02  0.7546771E-02  0.1702188E+00
         21   -1    0    0  503  502  0.00000000000E+00  0.00000000000E+00  0.32013736410E+02  0.32013736410E+02  0.00000000000E+00 0.  1.
         21   -1    0    0  501  503 -0.00000000000E+00 -0.00000000000E+00 -0.32161404313E+02  0.32161404313E+02  0.00000000000E+00 0. -1.
          2    1    1    2  501    0 -0.16810249815E+02  0.14736069025E+02 -0.23092810831E+02  0.32140537351E+02  0.00000000000E+00 0. -1.
         -2    1    1    2    0  502  0.16810249815E+02 -0.14736069025E+02  0.22945142928E+02  0.32034603371E+02  0.00000000000E+00 0.  1.
<mgrwt>
<rscale>  2 0.22354781E+02</rscale>
<asrwt>0</asrwt>
<pdfrwt beam="1">  1       21 0.49251902E-02 0.22354781E+02</pdfrwt>
<pdfrwt beam="2">  1       21 0.49479084E-02 0.22354781E+02</pdfrwt>
<totfact> 0.53022405E+07</totfact>
</mgrwt>
</event>
<event>
 4    1  0.2812958E+004  0.2527953E+02  0.7546771E-02  0.1657019E+00
         21   -1    0    0  501  502  0.00000000000E+00  0.00000000000E+00  0.46583847224E+03  0.46583847224E+03  0.00000000000E+00 0.  1.
         21   -1    0    0  502  503 -0.00000000000E+00 -0.00000000000E+00 -0.14273110888E+01  0.14273110888E+01  0.00000000000E+00 0. -1.
          2    1    1    2  501    0  0.24856123330E+02 -0.46073852895E+01  0.27826476829E+03  0.27941069439E+03  0.00000000000E+00 0.  1.
         -2    1    1    2    0  503 -0.24856123330E+02  0.46073852895E+01  0.18614639286E+03  0.18785508894E+03  0.00000000000E+00 0. -1.
<mgrwt>
<rscale>  2 0.25279535E+02</rscale>
<asrwt>0</asrwt>
<pdfrwt beam="1">  1       21 0.71667336E-01 0.25279535E+02</pdfrwt>
<pdfrwt beam="2">  1       21 0.21958669E-03 0.25279535E+02</pdfrwt>
<totfact> 0.53204638E+07</totfact>
</mgrwt>
</event>
<event>
 4    1  0.2812958E+004  0.2138927E+02  0.7546771E-02  0.1719033E+00
         21   -1    0    0  501  502  0.00000000000E+00  0.00000000000E+00  0.49959852956E+01  0.49959852956E+01  0.00000000000E+00 0.  1.
         21   -1    0    0  502  503 -0.00000000000E+00 -0.00000000000E+00 -0.91593159398E+02  0.91593159398E+02  0.00000000000E+00 0. -1.
          2    1    1    2  501    0 -0.20564167511E+02  0.58835293696E+01 -0.42594815193E+02  0.47663604402E+02  0.00000000000E+00 0.  1.
         -2    1    1    2    0  503  0.20564167511E+02 -0.58835293696E+01 -0.44002358909E+02  0.48925540291E+02  0.00000000000E+00 0. -1.
<mgrwt>
<rscale>  2 0.21389271E+02</rscale>
<asrwt>0</asrwt>
<pdfrwt beam="1">  1       21 0.76861320E-03 0.21389271E+02</pdfrwt>
<pdfrwt beam="2">  1       21 0.14091254E-01 0.21389271E+02</pdfrwt>
<totfact> 0.16309754E+08</totfact>
</mgrwt>
</event>
<event>
 4    1  0.2812958E+004  0.2304689E+02  0.7546771E-02  0.1690751E+00
         21   -1    0    0  501  502  0.00000000000E+00  0.00000000000E+00  0.47336527914E+02  0.47336527914E+02  0.00000000000E+00 0.  1.
         21   -1    0    0  502  503 -0.00000000000E+00 -0.00000000000E+00 -0.12494063704E+02  0.12494063704E+02  0.00000000000E+00 0. -1.
          2    1    1    2  501    0 -0.22278516342E+02 -0.59014248291E+01  0.26970744403E+02  0.35476473318E+02  0.00000000000E+00 0.  1.
         -2    1    1    2    0  503  0.22278516342E+02  0.59014248291E+01  0.78717198075E+01  0.24354118300E+02  0.00000000000E+00 0. -1.
<mgrwt>
<rscale>  2 0.23046889E+02</rscale>
<asrwt>0</asrwt>
<pdfrwt beam="1">  1       21 0.72825427E-02 0.23046889E+02</pdfrwt>
<pdfrwt beam="2">  1       21 0.19221637E-02 0.23046889E+02</pdfrwt>
<totfact> 0.12463873E+08</totfact>
</mgrwt>
</event>
<event>
 4    1  0.2812958E+004  0.3747416E+02  0.7546771E-02  0.1527667E+00
         21   -1    0    0  503  502  0.00000000000E+00  0.00000000000E+00  0.12629998011E+03  0.12629998011E+03  0.00000000000E+00 0.  1.
         21   -1    0    0  501  503 -0.00000000000E+00 -0.00000000000E+00 -0.18688305541E+02  0.18688305541E+02  0.00000000000E+00 0. -1.
          2    1    1    2  501    0 -0.24149105342E+02 -0.28655425010E+02  0.76687905132E+01  0.38250791093E+02  0.00000000000E+00 0. -1.
         -2    1    1    2    0  502  0.24149105342E+02  0.28655425010E+02  0.99942884052E+02  0.10673749456E+03  0.00000000000E+00 0.  1.
<mgrwt>
<rscale>  2 0.37474160E+02</rscale>
<asrwt>0</asrwt>
<pdfrwt beam="1">  1       21 0.19430766E-01 0.37474160E+02</pdfrwt>
<pdfrwt beam="2">  1       21 0.28751240E-02 0.37474160E+02</pdfrwt>
<totfact> 0.14062577E+07</totfact>
</mgrwt>
</event>
<event>
 4    1  0.2812958E+004  0.2432624E+02  0.7546771E-02  0.1670872E+00
         21   -1    0    0  503  502  0.00000000000E+00  0.00000000000E+00  0.70524318407E+01  0.70524318407E+01  0.00000000000E+00 0. -1.
         21   -1    0    0  501  503 -0.00000000000E+00 -0.00000000000E+00 -0.21542568176E+03  0.21542568176E+03  0.00000000000E+00 0.  1.
          2    1    1    2  501    0  0.24281360819E+02  0.14769537022E+01 -0.19110231685E+03  0.19264439100E+03  0.00000000000E+00 0.  1.
         -2    1    1    2    0  502 -0.24281360819E+02 -0.14769537022E+01 -0.17270933065E+02  0.29833722604E+02  0.00000000000E+00 0. -1.
<mgrwt>
<rscale>  2 0.24326238E+02</rscale>
<asrwt>0</asrwt>
<pdfrwt beam="1">  1       21 0.10849896E-02 0.24326238E+02</pdfrwt>
<pdfrwt beam="2">  1       21 0.33142409E-01 0.24326238E+02</pdfrwt>
<totfact> 0.22329516E+07</totfact>
</mgrwt>
</event>
<event>
 4    1  0.2812958E+004  0.2408629E+02  0.7546771E-02  0.1674484E+00
         21   -1    0    0  503  502  0.00000000000E+00  0.00000000000E+00  0.10207282739E+03  0.10207282739E+03  0.00000000000E+00 0.  1.
         21   -1    0    0  501  503 -0.00000000000E+00 -0.00000000000E+00 -0.87214676752E+01  0.87214676752E+01  0.00000000000E+00 0. -1.
          2    1    1    2  501    0 -0.22962080438E+02 -0.72727171030E+01  0.13981448025E+02  0.27850142567E+02  0.00000000000E+00 0. -1.
         -2    1    1    2    0  502  0.22962080438E+02  0.72727171030E+01  0.79369911692E+02  0.82944152501E+02  0.00000000000E+00 0.  1.
<mgrwt>
<rscale>  2 0.24086294E+02</rscale>
<asrwt>0</asrwt>
<pdfrwt beam="1">  1       21 0.15703511E-01 0.24086294E+02</pdfrwt>
<pdfrwt beam="2">  1       21 0.13417643E-02 0.24086294E+02</pdfrwt>
<totfact> 0.60745549E+07</totfact>
</mgrwt>
</event>
<event>
 4    1  0.2812958E+004  0.2631986E+02  0.7546771E-02  0.1642737E+00
         21   -1    0    0  503  502  0.00000000000E+00  0.00000000000E+00  0.85331169389E+02  0.85331169389E+02  0.00000000000E+00 0.  1.
         21   -1    0    0  501  503 -0.00000000000E+00 -0.00000000000E+00 -0.81471233146E+01  0.81471233146E+01  0.00000000000E+00 0. -1.
          2    1    1    2  501    0 -0.26319855648E+02 -0.84860294209E-02  0.35806814416E+02  0.44439428799E+02  0.00000000000E+00 0. -1.
         -2    1    1    2    0  502  0.26319855648E+02  0.84860294209E-02  0.41377231659E+02  0.49038863905E+02  0.00000000000E+00 0.  1.
<mgrwt>
<rscale>  2 0.26319857E+02</rscale>
<asrwt>0</asrwt>
<pdfrwt beam="1">  1       21 0.13127872E-01 0.26319857E+02</pdfrwt>
<pdfrwt beam="2">  1       21 0.12534036E-02 0.26319857E+02</pdfrwt>
<totfact> 0.93469918E+07</totfact>
</mgrwt>
</event>
<event>
 4    1  0.2812958E+004  0.2450968E+02  0.7546771E-02  0.1668146E+00
         21   -1    0    0  501  502  0.00000000000E+00  0.00000000000E+00  0.54983633681E+01  0.54983633681E+01  0.00000000000E+00 0. -1.
         21   -1    0    0  502  503 -0.00000000000E+00 -0.00000000000E+00 -0.11296616568E+03  0.11296616568E+03  0.00000000000E+00 0.  1.
          2    1    1    2  501    0 -0.11502093180E+02 -0.21643152877E+02 -0.64469684433E+02  0.68971475444E+02  0.00000000000E+00 0.  1.
         -2    1    1    2    0  503  0.11502093180E+02  0.21643152877E+02 -0.42998117879E+02  0.49493053605E+02  0.00000000000E+00 0. -1.
<mgrwt>
<rscale>  2 0.24509676E+02</rscale>
<asrwt>0</asrwt>
<pdfrwt beam="1">  1       21 0.84590209E-03 0.24509676E+02</pdfrwt>
<pdfrwt beam="2">  1       21 0.17379409E-01 0.24509676E+02</pdfrwt>
<totfact> 0.10276199E+08</totfact>
</mgrwt>
</event>
<event>
 4    1  0.2812958E+004  0.2380805E+02  0.7546771E-02  0.1678737E+00
         21   -1    0    0  501  502  0.00000000000E+00  0.00000000000E+00  0.32416810596E+01  0.32416810596E+01  0.00000000000E+00 0. -1.
         21   -1    0    0  502  503 -0.00000000000E+00 -0.00000000000E+00 -0.23412230817E+03  0.23412230817E+03  0.00000000000E+00 0.  1.
          2    1    1    2  501    0  0.14945679558E+02 -0.18532406323E+02 -0.55726906225E+02  0.60599599825E+02  0.00000000000E+00 0. -1.
         -2    1    1    2    0  503 -0.14945679558E+02  0.18532406323E+02 -0.17515372089E+03  0.17676438941E+03  0.00000000000E+00 0.  1.
<mgrwt>
<rscale>  2 0.23808054E+02</rscale>
<asrwt>0</asrwt>
<pdfrwt beam="1">  1       21 0.49872017E-03 0.23808054E+02</pdfrwt>
<pdfrwt beam="2">  1       21 0.36018816E-01 0.23808054E+02</pdfrwt>
<totfact> 0.60729019E+07</totfact>
</mgrwt>
</event>
<event>
 4    1  0.2812958E+004  0.2028078E+02  0.7546771E-02  0.1739801E+00
         21   -1    0    0  503  502  0.00000000000E+00  0.00000000000E+00  0.73863835083E+02  0.73863835083E+02  0.00000000000E+00 0. -1.
         21   -1    0    0  501  503 -0.00000000000E+00 -0.00000000000E+00 -0.92174378560E+01  0.92174378560E+01  0.00000000000E+00 0.  1.
          2    1    1    2  501    0 -0.10083419415E+02 -0.17596440319E+02  0.61864331922E+01  0.21203349138E+02  0.00000000000E+00 0.  1.
         -2    1    1    2    0  502  0.10083419415E+02  0.17596440319E+02  0.58459964035E+02  0.61877923801E+02  0.00000000000E+00 0. -1.
<mgrwt>
<rscale>  2 0.20280781E+02</rscale>
<asrwt>0</asrwt>
<pdfrwt beam="1">  1       21 0.11363667E-01 0.20280781E+02</pdfrwt>
<pdfrwt beam="2">  1       21 0.14180674E-02 0.20280781E+02</pdfrwt>
<totfact> 0.91918642E+07</totfact>
</mgrwt>
</event>
<event>
 4    1  0.2812958E+004  0.2049059E+02  0.7546771E-02  0.1735744E+00
         21   -1    0    0  503  502  0.00000000000E+00  0.00000000000E+00  0.30272067056E+03  0.30272067056E+03  0.00000000000E+00 0. -1.
         21   -1    0    0  501  503 -0.00000000000E+00 -0.00000000000E+00 -0.15927847709E+01  0.15927847709E+01  0.00000000000E+00 0.  1.
          2    1    1    2  501    0 -0.17755134099E+02  0.10228373178E+02  0.95868496143E+02  0.98033835778E+02  0.00000000000E+00 0.  1.
         -2    1    1    2    0  502  0.17755134099E+02 -0.10228373178E+02  0.20525938965E+03  0.20627961956E+03  0.00000000000E+00 0. -1.
<mgrwt>
<rscale>  2 0.20490593E+02</rscale>
<asrwt>0</asrwt>
<pdfrwt beam="1">  1       21 0.46572365E-01 0.20490593E+02</pdfrwt>
<pdfrwt beam="2">  1       21 0.24504405E-03 0.20490593E+02</pdfrwt>
<totfact> 0.10153022E+08</totfact>
</mgrwt>
</event>
<event>
 4    1  0.2812958E+004  0.2004117E+02  0.7546771E-02  0.1744511E+00
         21   -1    0    0  501  502  0.00000000000E+00  0.00000000000E+00  0.78170302863E+01  0.78170302863E+01  0.00000000000E+00 0.  1.
         21   -1    0    0  502  503 -0.00000000000E+00 -0.00000000000E+00 -0.35093938447E+03  0.35093938447E+03  0.00000000000E+00 0. -1.
          2    1    1    2  501    0  0.11675011192E+02  0.16289339789E+02 -0.58338171725E+01  0.20872994512E+02  0.00000000000E+00 0.  1.
         -2    1    1    2    0  503 -0.11675011192E+02 -0.16289339789E+02 -0.33728853701E+03  0.33788342024E+03  0.00000000000E+00 0. -1.
<mgrwt>
<rscale>  2 0.20041170E+02</rscale>
<asrwt>0</asrwt>
<pdfrwt beam="1">  1       21 0.12026205E-02 0.20041170E+02</pdfrwt>
<pdfrwt beam="2">  1       21 0.53990656E-01 0.20041170E+02</pdfrwt>
<totfact> 0.72985293E+06</totfact>
</mgrwt>
</event>
<event>
 4    1  0.2812958E+004  0.2037869E+02  0.7546771E-02  0.1737900E+00
         21   -1    0    0  501  502  0.00000000000E+00  0.00000000000E+00  0.32012289569E+01  0.32012289569E+01  0.00000000000E+00 0.  1.
         21   -1    0    0  502  503 -0.00000000000E+00 -0.00000000000E+00 -0.12975139677E+03  0.12975139677E+03  0.00000000000E+00 0. -1.
          2    1    1    2  501    0 -0.16396123760E+02  0.12101991695E+02 -0.64155465439E+02  0.67314298801E+02  0.00000000000E+00 0.  1.
         -2    1    1    2    0  503  0.16396123760E+02 -0.12101991695E+02 -0.62394702374E+02  0.65638326926E+02  0.00000000000E+00 0. -1.
<mgrwt>
<rscale>  2 0.20378692E+02</rscale>
<asrwt>0</asrwt>
<pdfrwt beam="1">  1       21 0.49249701E-03 0.20378692E+02</pdfrwt>
<pdfrwt beam="2">  1       21 0.19961743E-01 0.20378692E+02</pdfrwt>
<totfact> 0.17094542E+08</totfact>
</mgrwt>
</event>
<event>
 4    1  0.2812958E+004  0.2138060E+02  0.7546771E-02  0.1719190E+00
         21   -1    0    0  503  502  0.00000000000E+00  0.00000000000E+00  0.25923970271E+03  0.25923970271E+03  0.00000000000E+00 0.  1.
         21   -1    0    0  501  503 -0.00000000000E+00 -0.00000000000E+00 -0.20004846313E+01  0.20004846313E+01  0.00000000000E+00 0. -1.
          2    1    1    2  501    0  0.72808071323E+01  0.20102738075E+02  0.83647813954E+02  0.86337054675E+02  0.00000000000E+00 0. -1.
         -2    1    1    2    0  502 -0.72808071323E+01 -0.20102738075E+02  0.17359140413E+03  0.17490313267E+03  0.00000000000E+00 0.  1.
<mgrwt>
<rscale>  2 0.21380604E+02</rscale>
<asrwt>0</asrwt>
<pdfrwt beam="1">  1       21 0.39883005E-01 0.21380604E+02</pdfrwt>
<pdfrwt beam="2">  1       21 0.30776707E-03 0.21380604E+02</pdfrwt>
<totfact> 0.99036225E+07</totfact>
</mgrwt>
</event>
<event>
 4    1  0.2812958E+004  0.2997604E+02  0.7546771E-02  0.1598354E+00
         21   -1    0    0  503  502  0.00000000000E+00  0.00000000000E+00  0.10032761145E+02  0.10032761145E+02  0.00000000000E+00 0.  1.
         21   -1    0    0  501  503 -0.00000000000E+00 -0.00000000000E+00 -0.25263766165E+03  0.25263766165E+03  0.00000000000E+00 0. -1.
          2    1    1    2  501    0 -0.27702535103E+02 -0.11451317632E+02 -0.22682019848E+03  0.22879240714E+03  0.00000000000E+00 0. -1.
         -2    1    1    2    0  502  0.27702535103E+02  0.11451317632E+02 -0.15784702023E+02  0.33878015653E+02  0.00000000000E+00 0.  1.
<mgrwt>
<rscale>  2 0.29976043E+02</rscale>
<asrwt>0</asrwt>
<pdfrwt beam="1">  1       21 0.15435019E-02 0.29976043E+02</pdfrwt>
<pdfrwt beam="2">  1       21 0.38867328E-01 0.29976043E+02</pdfrwt>
<totfact> 0.10063222E+07</totfact>
</mgrwt>
</event>
<event>
 4    1  0.2812958E+004  0.2007913E+02  0.7546771E-02  0.1743759E+00
         21   -1    0    0  503  502  0.00000000000E+00  0.00000000000E+00  0.92472723694E+01  0.92472723694E+01  0.00000000000E+00 0.  1.
         21   -1    0    0  501  503 -0.00000000000E+00 -0.00000000000E+00 -0.15121609609E+03  0.15121609609E+03  0.00000000000E+00 0. -1.
          2    1    1    2  501    0  0.23159815628E+01  0.19945117060E+02 -0.13866866044E+03  0.14011484166E+03  0.00000000000E+00 0. -1.
         -2    1    1    2    0  502 -0.23159815628E+01 -0.19945117060E+02 -0.33001632775E+01  0.20348526797E+02  0.00000000000E+00 0.  1.
<mgrwt>
<rscale>  2 0.20079130E+02</rscale>
<asrwt>0</asrwt>
<pdfrwt beam="1">  1       21 0.14226573E-02 0.20079130E+02</pdfrwt>
<pdfrwt beam="2">  1       21 0.23264014E-01 0.20079130E+02</pdfrwt>
<totfact> 0.26873174E+07</totfact>
</mgrwt>
</event>
<event>
 4    1  0.2812958E+004  0.3181441E+02  0.7546771E-02  0.1578857E+00
         21   -1    0    0  501  502  0.00000000000E+00  0.00000000000E+00  0.17770366253E+02  0.17770366253E+02  0.00000000000E+00 0. -1.
         21   -1    0    0  502  503 -0.00000000000E+00 -0.00000000000E+00 -0.59276521303E+02  0.59276521303E+02  0.00000000000E+00 0.  1.
          2    1    1    2  501    0 -0.31516283650E+02 -0.43451827652E+01 -0.28372643893E+02  0.42628202752E+02  0.00000000000E+00 0. -1.
         -2    1    1    2    0  503  0.31516283650E+02  0.43451827652E+01 -0.13133511157E+02  0.34418684804E+02  0.00000000000E+00 0.  1.
<mgrwt>
<rscale>  2 0.31814411E+02</rscale>
<asrwt>0</asrwt>
<pdfrwt beam="1">  1       21 0.27339025E-02 0.31814411E+02</pdfrwt>
<pdfrwt beam="2">  1       21 0.91194648E-02 0.31814411E+02</pdfrwt>
<totfact> 0.54104292E+07</totfact>
</mgrwt>
</event>
<event>
 4    1  0.2812958E+004  0.2263920E+02  0.7546771E-02  0.1697426E+00
         21   -1    0    0  501  502  0.00000000000E+00  0.00000000000E+00  0.24569158965E+03  0.24569158965E+03  0.00000000000E+00 0.  1.
         21   -1    0    0  502  503 -0.00000000000E+00 -0.00000000000E+00 -0.22452594130E+01  0.22452594130E+01  0.00000000000E+00 0. -1.
          2    1    1    2  501    0  0.22619295477E+02 -0.94921055206E+00  0.15473080786E+03  0.15637824794E+03  0.00000000000E+00 0. -1.
         -2    1    1    2    0  503 -0.22619295477E+02  0.94921055206E+00  0.88715522373E+02  0.91558601117E+02  0.00000000000E+00 0.  1.
<mgrwt>
<rscale>  2 0.22639203E+02</rscale>
<asrwt>0</asrwt>
<pdfrwt beam="1">  1       21 0.37798685E-01 0.22639203E+02</pdfrwt>
<pdfrwt beam="2">  1       21 0.34542472E-03 0.22639203E+02</pdfrwt>
<totfact> 0.93974971E+07</totfact>
</mgrwt>
</event>
<event>
 4    1  0.2812958E+004  0.3223022E+02  0.7546771E-02  0.1574669E+00
         21   -1    0    0  503  502  0.00000000000E+00  0.00000000000E+00  0.20813839480E+02  0.20813839480E+02  0.00000000000E+00 0.  1.
         21   -1    0    0  501  503 -0.00000000000E+00 -0.00000000000E+00 -0.55575502908E+02  0.55575502908E+02  0.00000000000E+00 0. -1.
          2    1    1    2  501    0  0.25576978729E+02  0.19611359966E+02 -0.29577415703E+02  0.43744837413E+02  0.00000000000E+00 0. -1.
         -2    1    1    2    0  502 -0.25576978729E+02 -0.19611359966E+02 -0.51842477253E+01  0.32644504976E+02  0.00000000000E+00 0.  1.
<mgrwt>
<rscale>  2 0.32230223E+02</rscale>
<asrwt>0</asrwt>
<pdfrwt beam="1">  1       21 0.32021292E-02 0.32230223E+02</pdfrwt>
<pdfrwt beam="2">  1       21 0.85500772E-02 0.32230223E+02</pdfrwt>
<totfact> 0.47080041E+07</totfact>
</mgrwt>
</event>
<event>
 4    1  0.2812958E+004  0.2090437E+02  0.7546771E-02  0.1727919E+00
         21   -1    0    0  503  502  0.00000000000E+00  0.00000000000E+00  0.16638715033E+02  0.16638715033E+02  0.00000000000E+00 0. -1.
         21   -1    0    0  501  503 -0.00000000000E+00 -0.00000000000E+00 -0.48417311957E+02  0.48417311957E+02  0.00000000000E+00 0.  1.
          2    1    1    2  501    0  0.16986472457E+02  0.12184111901E+02 -0.37892217240E+02  0.43276009021E+02  0.00000000000E+00 0.  1.
         -2    1    1    2    0  502 -0.16986472457E+02 -0.12184111901E+02  0.61136203161E+01  0.21780017969E+02  0.00000000000E+00 0. -1.
<mgrwt>
<rscale>  2 0.20904373E+02</rscale>
<asrwt>0</asrwt>
<pdfrwt beam="1">  1       21 0.25598023E-02 0.20904373E+02</pdfrwt>
<pdfrwt beam="2">  1       21 0.74488172E-02 0.20904373E+02</pdfrwt>
<totfact> 0.75210988E+07</totfact>
</mgrwt>
</event>
<event>
 4    1  0.2812958E+004  0.2406114E+02  0.7546771E-02  0.1674865E+00
         21   -1    0    0  501  502  0.00000000000E+00  0.00000000000E+00  0.17614083806E+02  0.17614083806E+02  0.00000000000E+00 0. -1.
         21   -1    0    0  502  503 -0.00000000000E+00 -0.00000000000E+00 -0.32901114058E+02  0.32901114058E+02  0.00000000000E+00 0.  1.
          2    1    1    2  501    0 -0.18841084381E+02 -0.14965027245E+02 -0.84456386907E+01  0.25500339488E+02  0.00000000000E+00 0. -1.
         -2    1    1    2    0  503  0.18841084381E+02  0.14965027245E+02 -0.68413915617E+01  0.25014858377E+02  0.00000000000E+00 0.  1.
<mgrwt>
<rscale>  2 0.24061141E+02</rscale>
<asrwt>0</asrwt>
<pdfrwt beam="1">  1       21 0.27098591E-02 0.24061141E+02</pdfrwt>
<pdfrwt beam="2">  1       21 0.50617098E-02 0.24061141E+02</pdfrwt>
<totfact> 0.13343407E+08</totfact>
</mgrwt>
</event>
<event>
 4    1  0.2812958E+004  0.2206501E+02  0.7546771E-02  0.1707130E+00
         21   -1    0    0  501  502  0.00000000000E+00  0.00000000000E+00  0.79260772869E+02  0.79260772869E+02  0.00000000000E+00 0.  1.
         21   -1    0    0  502  503 -0.00000000000E+00 -0.00000000000E+00 -0.20109150583E+02  0.20109150583E+02  0.00000000000E+00 0. -1.
          2    1    1    2  501    0 -0.21493533887E+02 -0.49892770902E+01  0.70982750903E+02  0.74333140729E+02  0.00000000000E+00 0.  1.
         -2    1    1    2    0  503  0.21493533887E+02  0.49892770902E+01 -0.11831128617E+02  0.25036782724E+02  0.00000000000E+00 0. -1.
<mgrwt>
<rscale>  2 0.22065015E+02</rscale>
<asrwt>0</asrwt>
<pdfrwt beam="1">  1       21 0.12193965E-01 0.22065015E+02</pdfrwt>
<pdfrwt beam="2">  1       21 0.30937155E-02 0.22065015E+02</pdfrwt>
<totfact> 0.25279239E+07</totfact>
</mgrwt>
</event>
<event>
 4    1  0.2812958E+004  0.2106657E+02  0.7546771E-02  0.1724914E+00
         21   -1    0    0  503  502  0.00000000000E+00  0.00000000000E+00  0.31472357058E+03  0.31472357058E+03  0.00000000000E+00 0. -1.
         21   -1    0    0  501  503 -0.00000000000E+00 -0.00000000000E+00 -0.15282721194E+01  0.15282721194E+01  0.00000000000E+00 0.  1.
          2    1    1    2  501    0 -0.65238783497E+01  0.20030960501E+02  0.11263238726E+03  0.11458557949E+03  0.00000000000E+00 0.  1.
         -2    1    1    2    0  502  0.65238783497E+01 -0.20030960501E+02  0.20056291120E+03  0.20166626321E+03  0.00000000000E+00 0. -1.
<mgrwt>
<rscale>  2 0.21066570E+02</rscale>
<asrwt>0</asrwt>
<pdfrwt beam="1">  1       21 0.48418959E-01 0.21066570E+02</pdfrwt>
<pdfrwt beam="2">  1       21 0.23511904E-03 0.21066570E+02</pdfrwt>
<totfact> 0.10077725E+08</totfact>
</mgrwt>
</event>
<event>
 4    1  0.2812958E+004  0.2373145E+02  0.7546771E-02  0.1679921E+00
         21   -1    0    0  503  502  0.00000000000E+00  0.00000000000E+00  0.14535815436E+02  0.14535815436E+02  0.00000000000E+00 0. -1.
         21   -1    0    0  501  503 -0.00000000000E+00 -0.00000000000E+00 -0.20025566543E+03  0.20025566543E+03  0.00000000000E+00 0.  1.
          2    1    1    2  501    0 -0.23293114580E+02  0.45401218542E+01 -0.18930854531E+03  0.19079021783E+03  0.00000000000E+00 0.  1.
         -2    1    1    2    0  502  0.23293114580E+02 -0.45401218542E+01  0.35886953120E+01  0.24001263036E+02  0.00000000000E+00 0. -1.
<mgrwt>
<rscale>  2 0.23731454E+02</rscale>
<asrwt>0</asrwt>
<pdfrwt beam="1">  1       21 0.22362793E-02 0.23731454E+02</pdfrwt>
<pdfrwt beam="2">  1       21 0.30808564E-01 0.23731454E+02</pdfrwt>
<totfact> 0.84354263E+06</totfact>
</mgrwt>
</event>
<event>
 4    1  0.2812958E+004  0.2643755E+02  0.7546771E-02  0.1641173E+00
         21   -1    0    0  503  502  0.00000000000E+00  0.00000000000E+00  0.89528675493E+02  0.89528675493E+02  0.00000000000E+00 0. -1.
         21   -1    0    0  501  503 -0.00000000000E+00 -0.00000000000E+00 -0.95573669914E+01  0.95573669914E+01  0.00000000000E+00 0.  1.
          2    1    1    2  501    0  0.18102091119E+02  0.19268072188E+02  0.18783191371E+02  0.32430735218E+02  0.00000000000E+00 0.  1.
         -2    1    1    2    0  502 -0.18102091119E+02 -0.19268072188E+02  0.61188117131E+02  0.66655307266E+02  0.00000000000E+00 0. -1.
<mgrwt>
<rscale>  2 0.26437555E+02</rscale>
<asrwt>0</asrwt>
<pdfrwt beam="1">  1       21 0.13773642E-01 0.26437555E+02</pdfrwt>
<pdfrwt beam="2">  1       21 0.14703642E-02 0.26437555E+02</pdfrwt>
<totfact> 0.67633638E+07</totfact>
</mgrwt>
</event>
<event>
 4    1  0.2812958E+004  0.4775233E+02  0.7546771E-02  0.1457856E+00
         21   -1    0    0  501  502  0.00000000000E+00  0.00000000000E+00  0.11697977092E+02  0.11697977092E+02  0.00000000000E+00 0.  1.
         21   -1    0    0  502  503 -0.00000000000E+00 -0.00000000000E+00 -0.47487018525E+03  0.47487018525E+03  0.00000000000E+00 0. -1.
          2    1    1    2  501    0  0.47092113074E+02  0.79131751128E+01 -0.44793814786E+02  0.65473439632E+02  0.00000000000E+00 0.  1.
         -2    1    1    2    0  503 -0.47092113074E+02 -0.79131751128E+01 -0.41837839337E+03  0.42109472271E+03  0.00000000000E+00 0. -1.
<mgrwt>
<rscale>  2 0.47752335E+02</rscale>
<asrwt>0</asrwt>
<pdfrwt beam="1">  1       21 0.17996884E-02 0.47752335E+02</pdfrwt>
<pdfrwt beam="2">  1       21 0.73056968E-01 0.47752335E+02</pdfrwt>
<totfact> 0.23516030E+06</totfact>
</mgrwt>
</event>
<event>
 4    1  0.2812958E+004  0.2162504E+02  0.7546771E-02  0.1714819E+00
         21   -1    0    0  501  502  0.00000000000E+00  0.00000000000E+00  0.31363761199E+03  0.31363761199E+03  0.00000000000E+00 0. -1.
         21   -1    0    0  502  503 -0.00000000000E+00 -0.00000000000E+00 -0.14938987869E+01  0.14938987869E+01  0.00000000000E+00 0.  1.
          2    1    1    2  501    0 -0.18506506675E+02 -0.11187118708E+02  0.16297923222E+03  0.16440764140E+03  0.00000000000E+00 0. -1.
         -2    1    1    2    0  503  0.18506506675E+02  0.11187118708E+02  0.14916448098E+03  0.15072386938E+03  0.00000000000E+00 0.  1.
<mgrwt>
<rscale>  2 0.21625041E+02</rscale>
<asrwt>0</asrwt>
<pdfrwt beam="1">  1       21 0.48251888E-01 0.21625041E+02</pdfrwt>
<pdfrwt beam="2">  1       21 0.22983083E-03 0.21625041E+02</pdfrwt>
<totfact> 0.10557997E+08</totfact>
</mgrwt>
</event>
<event>
 4    1  0.2812958E+004  0.2053698E+02  0.7546771E-02  0.1734856E+00
         21   -1    0    0  503  502  0.00000000000E+00  0.00000000000E+00  0.17463609905E+03  0.17463609905E+03  0.00000000000E+00 0.  1.
         21   -1    0    0  501  503 -0.00000000000E+00 -0.00000000000E+00 -0.32422668314E+01  0.32422668314E+01  0.00000000000E+00 0. -1.
          2    1    1    2  501    0  0.19435638363E+02  0.66350188811E+01  0.40774873572E+02  0.45654767866E+02  0.00000000000E+00 0. -1.
         -2    1    1    2    0  502 -0.19435638363E+02 -0.66350188811E+01  0.13061895864E+03  0.13222359801E+03  0.00000000000E+00 0.  1.
<mgrwt>
<rscale>  2 0.20536979E+02</rscale>
<asrwt>0</asrwt>
<pdfrwt beam="1">  1       21 0.26867085E-01 0.20536979E+02</pdfrwt>
<pdfrwt beam="2">  1       21 0.49881042E-03 0.20536979E+02</pdfrwt>
<totfact> 0.99669274E+07</totfact>
</mgrwt>
</event>
<event>
 4    1  0.2812958E+004  0.2084143E+02  0.7546771E-02  0.1729095E+00
         21   -1    0    0  503  502  0.00000000000E+00  0.00000000000E+00  0.24701011400E+01  0.24701011400E+01  0.00000000000E+00 0. -1.
         21   -1    0    0  501  503 -0.00000000000E+00 -0.00000000000E+00 -0.24456681039E+03  0.24456681039E+03  0.00000000000E+00 0.  1.
          2    1    1    2  501    0  0.20047358063E+02  0.56981158728E+01 -0.18652213224E+03  0.18768289987E+03  0.00000000000E+00 0.  1.
         -2    1    1    2    0  502 -0.20047358063E+02 -0.56981158728E+01 -0.55574577011E+02  0.59354011656E+02  0.00000000000E+00 0. -1.
<mgrwt>
<rscale>  2 0.20841427E+02</rscale>
<asrwt>0</asrwt>
<pdfrwt beam="1">  1       21 0.38001569E-03 0.20841427E+02</pdfrwt>
<pdfrwt beam="2">  1       21 0.37625650E-01 0.20841427E+02</pdfrwt>
<totfact> 0.80659193E+07</totfact>
</mgrwt>
</event>
<event>
 4    1  0.2812958E+004  0.2131383E+02  0.7546771E-02  0.1720396E+00
         21   -1    0    0  503  502  0.00000000000E+00  0.00000000000E+00  0.89011701174E+00  0.89011701174E+00  0.00000000000E+00 0. -1.
         21   -1    0    0  501  503 -0.00000000000E+00 -0.00000000000E+00 -0.51124024679E+03  0.51124024679E+03  0.00000000000E+00 0.  1.
          2    1    1    2  501    0  0.19449410792E+02  0.87177740096E+01 -0.26580680983E+03  0.26665996946E+03  0.00000000000E+00 0.  1.
         -2    1    1    2    0  502 -0.19449410792E+02 -0.87177740096E+01 -0.24454331996E+03  0.24547039434E+03  0.00000000000E+00 0. -1.
<mgrwt>
<rscale>  2 0.21313826E+02</rscale>
<asrwt>0</asrwt>
<pdfrwt beam="1">  1       21 0.13694140E-03 0.21313826E+02</pdfrwt>
<pdfrwt beam="2">  1       21 0.78652161E-01 0.21313826E+02</pdfrwt>
<totfact> 0.83183451E+07</totfact>
</mgrwt>
</event>
<event>
 4    1  0.2812958E+004  0.2818181E+02  0.7546771E-02  0.1619102E+00
         21   -1    0    0  503  502  0.00000000000E+00  0.00000000000E+00  0.21191874278E+03  0.21191874278E+03  0.00000000000E+00 0.  1.
         21   -1    0    0  501  503 -0.00000000000E+00 -0.00000000000E+00 -0.37639076014E+01  0.37639076014E+01  0.00000000000E+00 0. -1.
          2    1    1    2  501    0  0.26212849821E+02  0.10348944160E+02  0.11114756447E+03  0.11466470786E+03  0.00000000000E+00 0.  1.
         -2    1    1    2    0  502 -0.26212849821E+02 -0.10348944160E+02  0.97007270704E+02  0.10101794252E+03  0.00000000000E+00 0. -1.
<mgrwt>
<rscale>  2 0.28181805E+02</rscale>
<asrwt>0</asrwt>
<pdfrwt beam="1">  1       21 0.32602874E-01 0.28181805E+02</pdfrwt>
<pdfrwt beam="2">  1       21 0.57906288E-03 0.28181805E+02</pdfrwt>
<totfact> 0.60883328E+07</totfact>
</mgrwt>
</event>
<event>
 4    1  0.2812958E+004  0.2620207E+02  0.7546771E-02  0.1644313E+00
         21   -1    0    0  501  502  0.00000000000E+00  0.00000000000E+00  0.72350822177E+01  0.72350822177E+01  0.00000000000E+00 0.  1.
         21   -1    0    0  502  503 -0.00000000000E+00 -0.00000000000E+00 -0.61484442313E+03  0.61484442313E+03  0.00000000000E+00 0. -1.
          2    1    1    2  501    0  0.32337985332E+01  0.26001754199E+02 -0.17772263528E+02  0.31660733177E+02  0.00000000000E+00 0.  1.
         -2    1    1    2    0  503 -0.32337985332E+01 -0.26001754199E+02 -0.58983707738E+03  0.59041877217E+03  0.00000000000E+00 0. -1.
<mgrwt>
<rscale>  2 0.26202074E+02</rscale>
<asrwt>0</asrwt>
<pdfrwt beam="1">  1       21 0.11130899E-02 0.26202074E+02</pdfrwt>
<pdfrwt beam="2">  1       21 0.94591422E-01 0.26202074E+02</pdfrwt>
<totfact> 0.26864479E+06</totfact>
</mgrwt>
</event>
<event>
 4    1  0.2812958E+004  0.2358356E+02  0.7546771E-02  0.1682222E+00
         21   -1    0    0  503  502  0.00000000000E+00  0.00000000000E+00  0.73629870869E+01  0.73629870869E+01  0.00000000000E+00 0. -1.
         21   -1    0    0  501  503 -0.00000000000E+00 -0.00000000000E+00 -0.28254761109E+03  0.28254761109E+03  0.00000000000E+00 0.  1.
          2    1    1    2  501    0  0.23573726366E+02  0.68090572049E+00 -0.26166714220E+03  0.26272776312E+03  0.00000000000E+00 0.  1.
         -2    1    1    2    0  502 -0.23573726366E+02 -0.68090572049E+00 -0.13517481803E+02  0.27182835056E+02  0.00000000000E+00 0. -1.
<mgrwt>
<rscale>  2 0.23583558E+02</rscale>
<asrwt>0</asrwt>
<pdfrwt beam="1">  1       21 0.11327674E-02 0.23583558E+02</pdfrwt>
<pdfrwt beam="2">  1       21 0.43468859E-01 0.23583558E+02</pdfrwt>
<totfact> 0.12504250E+07</totfact>
</mgrwt>
</event>
<event>
 4    1  0.2812958E+004  0.2269173E+02  0.7546771E-02  0.1696556E+00
         21   -1    0    0  501  502  0.00000000000E+00  0.00000000000E+00  0.49317897361E+01  0.49317897361E+01  0.00000000000E+00 0.  1.
         21   -1    0    0  502  503 -0.00000000000E+00 -0.00000000000E+00 -0.10725315450E+03  0.10725315450E+03  0.00000000000E+00 0. -1.
          2    1    1    2  501    0 -0.22481815622E+02  0.30793777646E+01 -0.42023553537E+02  0.47758702379E+02  0.00000000000E+00 0. -1.
         -2    1    1    2    0  503  0.22481815622E+02 -0.30793777646E+01 -0.60297811228E+02  0.64426241858E+02  0.00000000000E+00 0.  1.
<mgrwt>
<rscale>  2 0.22691730E+02</rscale>
<asrwt>0</asrwt>
<pdfrwt beam="1">  1       21 0.75873685E-03 0.22691730E+02</pdfrwt>
<pdfrwt beam="2">  1       21 0.16500486E-01 0.22691730E+02</pdfrwt>
<totfact> 0.12935079E+08</totfact>
</mgrwt>
</event>
<event>
 4    1  0.2812958E+004  0.3619624E+02  0.7546771E-02  0.1538227E+00
         21   -1    0    0  503  502  0.00000000000E+00  0.00000000000E+00  0.78056795935E+03  0.78056795935E+03  0.00000000000E+00 0.  1.
         21   -1    0    0  501  503 -0.00000000000E+00 -0.00000000000E+00 -0.67212091066E+01  0.67212091066E+01  0.00000000000E+00 0. -1.
          2    1    1    2  501    0  0.35402277930E+02 -0.75396816963E+01  0.45955568478E+02  0.58498567135E+02  0.00000000000E+00 0. -1.
         -2    1    1    2    0  502 -0.35402277930E+02  0.75396816963E+01  0.72789118177E+03  0.72879060132E+03  0.00000000000E+00 0.  1.
<mgrwt>
<rscale>  2 0.36196244E+02</rscale>
<asrwt>0</asrwt>
<pdfrwt beam="1">  1       21 0.12008731E+00 0.36196244E+02</pdfrwt>
<pdfrwt beam="2">  1       21 0.10340328E-02 0.36196244E+02</pdfrwt>
<totfact> 0.18076317E+06</totfact>
</mgrwt>
</event>
<event>
 4    1  0.2812958E+004  0.2225998E+02  0.7546771E-02  0.1703794E+00
         21   -1    0    0  503  502  0.00000000000E+00  0.00000000000E+00  0.28039983196E+02  0.28039983196E+02  0.00000000000E+00 0.  1.
         21   -1    0    0  501  503 -0.00000000000E+00 -0.00000000000E+00 -0.86492592076E+02  0.86492592076E+02  0.00000000000E+00 0. -1.
          2    1    1    2  501    0 -0.12655771107E+02 -0.18312244102E+02 -0.80308616916E+02  0.83336551269E+02  0.00000000000E+00 0. -1.
         -2    1    1    2    0  502  0.12655771107E+02  0.18312244102E+02  0.21856008036E+02  0.31196024004E+02  0.00000000000E+00 0.  1.
<mgrwt>
<rscale>  2 0.22259983E+02</rscale>
<asrwt>0</asrwt>
<pdfrwt beam="1">  1       21 0.43138437E-02 0.22259983E+02</pdfrwt>
<pdfrwt beam="2">  1       21 0.13306552E-01 0.22259983E+02</pdfrwt>
<totfact> 0.12989933E+07</totfact>
</mgrwt>
</event>
<event>
 4    1  0.2812958E+004  0.2134021E+02  0.7546771E-02  0.1719919E+00
         21   -1    0    0  503  502  0.00000000000E+00  0.00000000000E+00  0.10078724829E+01  0.10078724829E+01  0.00000000000E+00 0. -1.
         21   -1    0    0  501  503 -0.00000000000E+00 -0.00000000000E+00 -0.60070608840E+03  0.60070608840E+03  0.00000000000E+00 0.  1.
          2    1    1    2  501    0 -0.20607661985E+02 -0.55433537726E+01 -0.44961615007E+03  0.45012230216E+03  0.00000000000E+00 0.  1.
         -2    1    1    2    0  502  0.20607661985E+02  0.55433537726E+01 -0.15008206585E+03  0.15159165872E+03  0.00000000000E+00 0. -1.
<mgrwt>
<rscale>  2 0.21340209E+02</rscale>
<asrwt>0</asrwt>
<pdfrwt beam="1">  1       21 0.15505748E-03 0.21340209E+02</pdfrwt>
<pdfrwt beam="2">  1       21 0.92416220E-01 0.21340209E+02</pdfrwt>
<totfact> 0.49536893E+07</totfact>
</mgrwt>
</event>
<event>
 4    1  0.2812958E+004  0.2177793E+02  0.7546771E-02  0.1712121E+00
         21   -1    0    0  501  502  0.00000000000E+00  0.00000000000E+00  0.13190285533E+02  0.13190285533E+02  0.00000000000E+00 0.  1.
         21   -1    0    0  502  503 -0.00000000000E+00 -0.00000000000E+00 -0.54552350358E+02  0.54552350358E+02  0.00000000000E+00 0. -1.
          2    1    1    2  501    0  0.21168669034E+02  0.51152323972E+01 -0.90532976162E+00  0.21796737672E+02  0.00000000000E+00 0.  1.
         -2    1    1    2    0  503 -0.21168669034E+02 -0.51152323972E+01 -0.40456735063E+02  0.45945898219E+02  0.00000000000E+00 0. -1.
<mgrwt>
<rscale>  2 0.21777928E+02</rscale>
<asrwt>0</asrwt>
<pdfrwt beam="1">  1       21 0.20292747E-02 0.21777928E+02</pdfrwt>
<pdfrwt beam="2">  1       21 0.83926693E-02 0.21777928E+02</pdfrwt>
<totfact> 0.89563791E+07</totfact>
</mgrwt>
</event>
<event>
 4    1  0.2812958E+004  0.2236087E+02  0.7546771E-02  0.1702085E+00
         21   -1    0    0  501  502  0.00000000000E+00  0.00000000000E+00  0.52877538433E+03  0.52877538433E+03  0.00000000000E+00 0. -1.
         21   -1    0    0  502  503 -0.00000000000E+00 -0.00000000000E+00 -0.14359637864E+01  0.14359637864E+01  0.00000000000E+00 0.  1.
          2    1    1    2  501    0  0.16555204980E+02 -0.15031089977E+02  0.41858980427E+03  0.41918663232E+03  0.00000000000E+00 0. -1.
         -2    1    1    2    0  503 -0.16555204980E+02  0.15031089977E+02  0.10874961627E+03  0.11102471580E+03  0.00000000000E+00 0.  1.
<mgrwt>
<rscale>  2 0.22360869E+02</rscale>
<asrwt>0</asrwt>
<pdfrwt beam="1">  1       21 0.81349904E-01 0.22360869E+02</pdfrwt>
<pdfrwt beam="2">  1       21 0.22091793E-03 0.22360869E+02</pdfrwt>
<totfact> 0.39429201E+07</totfact>
</mgrwt>
</event>
<event>
 4    1  0.2812958E+004  0.4384858E+02  0.7546771E-02  0.1481660E+00
         21   -1    0    0  501  502  0.00000000000E+00  0.00000000000E+00  0.16498977299E+02  0.16498977299E+02  0.00000000000E+00 0. -1.
         21   -1    0    0  502  503 -0.00000000000E+00 -0.00000000000E+00 -0.13141832586E+03  0.13141832586E+03  0.00000000000E+00 0.  1.
          2    1    1    2  501    0  0.31122633296E+02  0.30888179314E+02 -0.32569943074E+02  0.54621416280E+02  0.00000000000E+00 0. -1.
         -2    1    1    2    0  503 -0.31122633296E+02 -0.30888179314E+02 -0.82349405488E+02  0.93295886881E+02  0.00000000000E+00 0.  1.
<mgrwt>
<rscale>  2 0.43848580E+02</rscale>
<asrwt>0</asrwt>
<pdfrwt beam="1">  1       21 0.25383042E-02 0.43848580E+02</pdfrwt>
<pdfrwt beam="2">  1       21 0.20218204E-01 0.43848580E+02</pdfrwt>
<totfact> 0.16328859E+07</totfact>
</mgrwt>
</event>
<event>
 4    1  0.2812958E+004  0.2826343E+02  0.7546771E-02  0.1618117E+00
         21   -1    0    0  501  502  0.00000000000E+00  0.00000000000E+00  0.15581352431E+01  0.15581352431E+01  0.00000000000E+00 0.  1.
         21   -1    0    0  502  503 -0.00000000000E+00 -0.00000000000E+00 -0.82837659361E+03  0.82837659361E+03  0.00000000000E+00 0. -1.
          2    1    1    2  501    0  0.25009094597E+02  0.13166879499E+02 -0.15723442392E+03  0.15975445406E+03  0.00000000000E+00 0.  1.
         -2    1    1    2    0  503 -0.25009094597E+02 -0.13166879499E+02 -0.66958403445E+03  0.67018027479E+03  0.00000000000E+00 0. -1.
<mgrwt>
<rscale>  2 0.28263431E+02</rscale>
<asrwt>0</asrwt>
<pdfrwt beam="1">  1       21 0.23971308E-03 0.28263431E+02</pdfrwt>
<pdfrwt beam="2">  1       21 0.12744257E+00 0.28263431E+02</pdfrwt>
<totfact> 0.13579622E+07</totfact>
</mgrwt>
</event>
<event>
 4    1  0.2812958E+004  0.2126707E+02  0.7546771E-02  0.1721245E+00
         21   -1    0    0  503  502  0.00000000000E+00  0.00000000000E+00  0.21364248676E+02  0.21364248676E+02  0.00000000000E+00 0. -1.
         21   -1    0    0  501  503 -0.00000000000E+00 -0.00000000000E+00 -0.20222280547E+03  0.20222280547E+03  0.00000000000E+00 0.  1.
          2    1    1    2  501    0 -0.20731414366E+02  0.47430731738E+01 -0.19620934138E+03  0.19735854157E+03  0.00000000000E+00 0.  1.
         -2    1    1    2    0  502  0.20731414366E+02 -0.47430731738E+01  0.15350784585E+02  0.26228512579E+02  0.00000000000E+00 0. -1.
<mgrwt>
<rscale>  2 0.21267070E+02</rscale>
<asrwt>0</asrwt>
<pdfrwt beam="1">  1       21 0.32868074E-02 0.21267070E+02</pdfrwt>
<pdfrwt beam="2">  1       21 0.31111202E-01 0.21267070E+02</pdfrwt>
<totfact> 0.44775562E+06</totfact>
</mgrwt>
</event>
<event>
 4    1  0.2812958E+004  0.3847585E+02  0.7546771E-02  0.1519737E+00
         21   -1    0    0  503  502  0.00000000000E+00  0.00000000000E+00  0.23599950763E+02  0.23599950763E+02  0.00000000000E+00 0. -1.
         21   -1    0    0  501  503 -0.00000000000E+00 -0.00000000000E+00 -0.23755363065E+03  0.23755363065E+03  0.00000000000E+00 0.  1.
          2    1    1    2  501    0 -0.32313851921E+02  0.20885546028E+02 -0.21899463080E+03  0.22234891359E+03  0.00000000000E+00 0.  1.
         -2    1    1    2    0  502  0.32313851921E+02 -0.20885546028E+02  0.50409509054E+01  0.38804667824E+02  0.00000000000E+00 0. -1.
<mgrwt>
<rscale>  2 0.38475850E+02</rscale>
<asrwt>0</asrwt>
<pdfrwt beam="1">  1       21 0.36307616E-02 0.38475850E+02</pdfrwt>
<pdfrwt beam="2">  1       21 0.36546713E-01 0.38475850E+02</pdfrwt>
<totfact> 0.30566935E+06</totfact>
</mgrwt>
</event>
<event>
 4    1  0.2812958E+004  0.2405288E+02  0.7546771E-02  0.1674991E+00
         21   -1    0    0  501  502  0.00000000000E+00  0.00000000000E+00  0.87297644048E+01  0.87297644048E+01  0.00000000000E+00 0.  1.
         21   -1    0    0  502  503 -0.00000000000E+00 -0.00000000000E+00 -0.17048527505E+03  0.17048527505E+03  0.00000000000E+00 0. -1.
          2    1    1    2  501    0 -0.10110184118E+02  0.21824874364E+02 -0.10819057645E+02  0.26374096615E+02  0.00000000000E+00 0.  1.
         -2    1    1    2    0  503  0.10110184118E+02 -0.21824874364E+02 -0.15093645300E+03  0.15284094284E+03  0.00000000000E+00 0. -1.
<mgrwt>
<rscale>  2 0.24052878E+02</rscale>
<asrwt>0</asrwt>
<pdfrwt beam="1">  1       21 0.13430407E-02 0.24052878E+02</pdfrwt>
<pdfrwt beam="2">  1       21 0.26228503E-01 0.24052878E+02</pdfrwt>
<totfact> 0.24690483E+07</totfact>
</mgrwt>
</event>
<event>
 4    1  0.2812958E+004  0.2401769E+02  0.7546771E-02  0.1675526E+00
         21   -1    0    0  501  502  0.00000000000E+00  0.00000000000E+00  0.60934091338E+01  0.60934091338E+01  0.00000000000E+00 0.  1.
         21   -1    0    0  502  503 -0.00000000000E+00 -0.00000000000E+00 -0.22784528322E+03  0.22784528322E+03  0.00000000000E+00 0. -1.
          2    1    1    2  501    0  0.13726292433E+02 -0.19708840332E+02 -0.21449179991E+02  0.32201192734E+02  0.00000000000E+00 0.  1.
         -2    1    1    2    0  503 -0.13726292433E+02  0.19708840332E+02 -0.20030269410E+03  0.20173749962E+03  0.00000000000E+00 0. -1.
<mgrwt>
<rscale>  2 0.24017691E+02</rscale>
<asrwt>0</asrwt>
<pdfrwt beam="1">  1       21 0.93744773E-03 0.24017691E+02</pdfrwt>
<pdfrwt beam="2">  1       21 0.35053114E-01 0.24017691E+02</pdfrwt>
<totfact> 0.25013778E+07</totfact>
</mgrwt>
</event>
<event>
 4    1  0.2812958E+004  0.2238538E+02  0.7546771E-02  0.1701671E+00
         21   -1    0    0  503  502  0.00000000000E+00  0.00000000000E+00  0.99271762982E+02  0.99271762982E+02  0.00000000000E+00 0. -1.
         21   -1    0    0  501  503 -0.00000000000E+00 -0.00000000000E+00 -0.65691004600E+01  0.65691004600E+01  0.00000000000E+00 0.  1.
          2    1    1    2  501    0 -0.15207428946E+02 -0.16426780670E+02  0.20884408670E+02  0.30614760228E+02  0.00000000000E+00 0.  1.
         -2    1    1    2    0  502  0.15207428946E+02  0.16426780670E+02  0.71818253853E+02  0.75226103214E+02  0.00000000000E+00 0. -1.
<mgrwt>
<rscale>  2 0.22385375E+02</rscale>
<asrwt>0</asrwt>
<pdfrwt beam="1">  1       21 0.15272578E-01 0.22385375E+02</pdfrwt>
<pdfrwt beam="2">  1       21 0.10106309E-02 0.22385375E+02</pdfrwt>
<totfact> 0.95785535E+07</totfact>
</mgrwt>
</event>
<event>
 4    1  0.2812958E+004  0.3048430E+02  0.7546771E-02  0.1592796E+00
         21   -1    0    0  503  502  0.00000000000E+00  0.00000000000E+00  0.55854092140E+03  0.55854092140E+03  0.00000000000E+00 0.  1.
         21   -1    0    0  501  503 -0.00000000000E+00 -0.00000000000E+00 -0.19271930727E+01  0.19271930727E+01  0.00000000000E+00 0. -1.
          2    1    1    2  501    0 -0.13651999402E+02  0.27256480416E+02  0.17470402593E+03  0.17734370439E+03  0.00000000000E+00 0. -1.
         -2    1    1    2    0  502  0.13651999402E+02 -0.27256480416E+02  0.38190970240E+03  0.38312441008E+03  0.00000000000E+00 0.  1.
<mgrwt>
<rscale>  2 0.30484304E+02</rscale>
<asrwt>0</asrwt>
<pdfrwt beam="1">  1       21 0.85929243E-01 0.30484304E+02</pdfrwt>
<pdfrwt beam="2">  1       21 0.29649169E-03 0.30484304E+02</pdfrwt>
<totfact> 0.24258357E+07</totfact>
</mgrwt>
</event>
<event>
 4    1  0.2812958E+004  0.2107945E+02  0.7546771E-02  0.1724677E+00
         21   -1    0    0  503  502  0.00000000000E+00  0.00000000000E+00  0.55756198533E+03  0.55756198533E+03  0.00000000000E+00 0. -1.
         21   -1    0    0  501  503 -0.00000000000E+00 -0.00000000000E+00 -0.29149736591E+01  0.29149736591E+01  0.00000000000E+00 0.  1.
          2    1    1    2  501    0 -0.44877731689E+01  0.20596188691E+02  0.38445071414E+02  0.43844801433E+02  0.00000000000E+00 0.  1.
         -2    1    1    2    0  502  0.44877731689E+01 -0.20596188691E+02  0.51620194026E+03  0.51663215756E+03  0.00000000000E+00 0. -1.
<mgrwt>
<rscale>  2 0.21079447E+02</rscale>
<asrwt>0</asrwt>
<pdfrwt beam="1">  1       21 0.85778682E-01 0.21079447E+02</pdfrwt>
<pdfrwt beam="2">  1       21 0.44845793E-03 0.21079447E+02</pdfrwt>
<totfact> 0.12428317E+07</totfact>
</mgrwt>
</event>
<event>
 4    1  0.2812958E+004  0.3907856E+02  0.7546771E-02  0.1515104E+00
         21   -1    0    0  503  502  0.00000000000E+00  0.00000000000E+00  0.11620384710E+02  0.11620384710E+02  0.00000000000E+00 0.  1.
         21   -1    0    0  501  503 -0.00000000000E+00 -0.00000000000E+00 -0.16435186614E+03  0.16435186614E+03  0.00000000000E+00 0. -1.
          2    1    1    2  501    0  0.36713339741E+02 -0.13388958388E+02 -0.11575201840E+03  0.12217063184E+03  0.00000000000E+00 0. -1.
         -2    1    1    2    0  502 -0.36713339741E+02  0.13388958388E+02 -0.36979463029E+02  0.53801619005E+02  0.00000000000E+00 0.  1.
<mgrwt>
<rscale>  2 0.39078556E+02</rscale>
<asrwt>0</asrwt>
<pdfrwt beam="1">  1       21 0.17877515E-02 0.39078556E+02</pdfrwt>
<pdfrwt beam="2">  1       21 0.25284903E-01 0.39078556E+02</pdfrwt>
<totfact> 0.18572389E+07</totfact>
</mgrwt>
</event>
<event>
 4    1  0.2812958E+004  0.2355681E+02  0.7546771E-02  0.1682640E+00
         21   -1    0    0  501  502  0.00000000000E+00  0.00000000000E+00  0.50848133886E+01  0.50848133886E+01  0.00000000000E+00 0.  1.
         21   -1    0    0  502  503 -0.00000000000E+00 -0.00000000000E+00 -0.46445387792E+03  0.46445387792E+03  0.00000000000E+00 0. -1.
          2    1    1    2  501    0 -0.19427748675E+02 -0.13322384513E+02 -0.24341407442E+02  0.33873698705E+02  0.00000000000E+00 0.  1.
         -2    1    1    2    0  503  0.19427748675E+02  0.13322384513E+02 -0.43502765709E+03  0.43566499260E+03  0.00000000000E+00 0. -1.
<mgrwt>
<rscale>  2 0.23556811E+02</rscale>
<asrwt>0</asrwt>
<pdfrwt beam="1">  1       21 0.78227887E-03 0.23556811E+02</pdfrwt>
<pdfrwt beam="2">  1       21 0.71454453E-01 0.23556811E+02</pdfrwt>
<totfact> 0.81451184E+06</totfact>
</mgrwt>
</event>
<event>
 4    1  0.2812958E+004  0.3181208E+02  0.7546771E-02  0.1578881E+00
         21   -1    0    0  503  502  0.00000000000E+00  0.00000000000E+00  0.30381524609E+03  0.30381524609E+03  0.00000000000E+00 0.  1.
         21   -1    0    0  501  503 -0.00000000000E+00 -0.00000000000E+00 -0.41315993268E+01  0.41315993268E+01  0.00000000000E+00 0. -1.
          2    1    1    2  501    0  0.11847303802E+02 -0.29523713845E+02  0.82062919469E+02  0.88013243539E+02  0.00000000000E+00 0. -1.
         -2    1    1    2    0  502 -0.11847303802E+02  0.29523713845E+02  0.21762072729E+03  0.21993360188E+03  0.00000000000E+00 0.  1.
<mgrwt>
<rscale>  2 0.31812078E+02</rscale>
<asrwt>0</asrwt>
<pdfrwt beam="1">  1       21 0.46740790E-01 0.31812078E+02</pdfrwt>
<pdfrwt beam="2">  1       21 0.63563090E-03 0.31812078E+02</pdfrwt>
<totfact> 0.27370198E+07</totfact>
</mgrwt>
</event>
<event>
 4    1  0.2812958E+004  0.4611339E+02  0.7546771E-02  0.1467508E+00
         21   -1    0    0  501  502  0.00000000000E+00  0.00000000000E+00  0.39313461357E+03  0.39313461357E+03  0.00000000000E+00 0.  1.
         21   -1    0    0  502  503 -0.00000000000E+00 -0.00000000000E+00 -0.14999243490E+02  0.14999243490E+02  0.00000000000E+00 0. -1.
          2    1    1    2  501    0  0.40685099120E+02  0.21706383912E+02  0.35224281270E+03  0.35524842503E+03  0.00000000000E+00 0.  1.
         -2    1    1    2    0  503 -0.40685099120E+02 -0.21706383912E+02  0.25892557388E+02  0.52885432030E+02  0.00000000000E+00 0. -1.
<mgrwt>
<rscale>  2 0.46113386E+02</rscale>
<asrwt>0</asrwt>
<pdfrwt beam="1">  1       21 0.60482240E-01 0.46113386E+02</pdfrwt>
<pdfrwt beam="2">  1       21 0.23075762E-02 0.46113386E+02</pdfrwt>
<totfact> 0.23560469E+06</totfact>
</mgrwt>
</event>
<event>
 4    1  0.2812958E+004  0.2202779E+02  0.7546771E-02  0.1707772E+00
         21   -1    0    0  501  502  0.00000000000E+00  0.00000000000E+00  0.76803192748E+01  0.76803192748E+01  0.00000000000E+00 0. -1.
         21   -1    0    0  502  503 -0.00000000000E+00 -0.00000000000E+00 -0.98204563605E+02  0.98204563605E+02  0.00000000000E+00 0.  1.
          2    1    1    2  501    0  0.21310876634E+02 -0.55740437185E+01 -0.13643717698E+02  0.25910894599E+02  0.00000000000E+00 0. -1.
         -2    1    1    2    0  503 -0.21310876634E+02  0.55740437185E+01 -0.76880526633E+02  0.79973988281E+02  0.00000000000E+00 0.  1.
<mgrwt>
<rscale>  2 0.22027788E+02</rscale>
<asrwt>0</asrwt>
<pdfrwt beam="1">  1       21 0.11815876E-02 0.22027788E+02</pdfrwt>
<pdfrwt beam="2">  1       21 0.15108394E-01 0.22027788E+02</pdfrwt>
<totfact> 0.76785310E+07</totfact>
</mgrwt>
</event>
<event>
 4    1  0.2812958E+004  0.2118843E+02  0.7546771E-02  0.1722678E+00
         21   -1    0    0  503  502  0.00000000000E+00  0.00000000000E+00  0.33475753122E+01  0.33475753122E+01  0.00000000000E+00 0. -1.
         21   -1    0    0  501  503 -0.00000000000E+00 -0.00000000000E+00 -0.17212074090E+03  0.17212074090E+03  0.00000000000E+00 0.  1.
          2    1    1    2  501    0 -0.90629569372E+01  0.19152349634E+02 -0.12561478747E+03  0.12738926374E+03  0.00000000000E+00 0. -1.
         -2    1    1    2    0  502  0.90629569372E+01 -0.19152349634E+02 -0.43158378121E+02  0.48079052476E+02  0.00000000000E+00 0.  1.
<mgrwt>
<rscale>  2 0.21188433E+02</rscale>
<asrwt>0</asrwt>
<pdfrwt beam="1">  1       21 0.51501167E-03 0.21188433E+02</pdfrwt>
<pdfrwt beam="2">  1       21 0.26480110E-01 0.21188433E+02</pdfrwt>
<totfact> 0.98444924E+07</totfact>
</mgrwt>
</event>
<event>
 4    1  0.2812958E+004  0.2081929E+02  0.7546771E-02  0.1729510E+00
         21   -1    0    0  503  502  0.00000000000E+00  0.00000000000E+00  0.23584185738E+03  0.23584185738E+03  0.00000000000E+00 0.  1.
         21   -1    0    0  501  503 -0.00000000000E+00 -0.00000000000E+00 -0.24779933083E+01  0.24779933083E+01  0.00000000000E+00 0. -1.
          2    1    1    2  501    0  0.34344287088E+00 -0.20816457288E+02  0.56117523052E+02  0.59854985093E+02  0.00000000000E+00 0. -1.
         -2    1    1    2    0  502 -0.34344287088E+00  0.20816457288E+02  0.17724634102E+03  0.17846486560E+03  0.00000000000E+00 0.  1.
<mgrwt>
<rscale>  2 0.20819290E+02</rscale>
<asrwt>0</asrwt>
<pdfrwt beam="1">  1       21 0.36283345E-01 0.20819290E+02</pdfrwt>
<pdfrwt beam="2">  1       21 0.38122992E-03 0.20819290E+02</pdfrwt>
<totfact> 0.85861202E+07</totfact>
</mgrwt>
</event>
<event>
 4    1  0.2812958E+004  0.2419843E+02  0.7546771E-02  0.1672789E+00
         21   -1    0    0  501  502  0.00000000000E+00  0.00000000000E+00  0.98932560690E+00  0.98932560690E+00  0.00000000000E+00 0.  1.
         21   -1    0    0  502  503 -0.00000000000E+00 -0.00000000000E+00 -0.70618316232E+03  0.70618316232E+03  0.00000000000E+00 0. -1.
          2    1    1    2  501    0  0.61389022157E+01 -0.23406796043E+02 -0.21034385878E+03  0.21173120494E+03  0.00000000000E+00 0.  1.
         -2    1    1    2    0  503 -0.61389022157E+01  0.23406796043E+02 -0.49484997794E+03  0.49544128298E+03  0.00000000000E+00 0. -1.
<mgrwt>
<rscale>  2 0.24198434E+02</rscale>
<asrwt>0</asrwt>
<pdfrwt beam="1">  1       21 0.15220432E-03 0.24198434E+02</pdfrwt>
<pdfrwt beam="2">  1       21 0.10864329E+00 0.24198434E+02</pdfrwt>
<totfact> 0.36686991E+07</totfact>
</mgrwt>
</event>
<event>
 4    1  0.2812958E+004  0.2045808E+02  0.7546771E-02  0.1736369E+00
         21   -1    0    0  501  502  0.00000000000E+00  0.00000000000E+00  0.26541911234E+02  0.26541911234E+02  0.00000000000E+00 0. -1.
         21   -1    0    0  502  503 -0.00000000000E+00 -0.00000000000E+00 -0.46814590804E+02  0.46814590804E+02  0.00000000000E+00 0.  1.
          2    1    1    2  501    0  0.20456100161E+02 -0.28447398825E+00  0.19732590134E+02  0.28423723764E+02  0.00000000000E+00 0. -1.
         -2    1    1    2    0  503 -0.20456100161E+02  0.28447398825E+00 -0.40005269705E+02  0.44932778274E+02  0.00000000000E+00 0.  1.
<mgrwt>
<rscale>  2 0.20458078E+02</rscale>
<asrwt>0</asrwt>
<pdfrwt beam="1">  1       21 0.40833710E-02 0.20458078E+02</pdfrwt>
<pdfrwt beam="2">  1       21 0.72022446E-02 0.20458078E+02</pdfrwt>
<totfact> 0.38186792E+07</totfact>
</mgrwt>
</event>
<event>
 4    1  0.2812958E+004  0.2219089E+02  0.7546771E-02  0.1704971E+00
         21   -1    0    0  503  502  0.00000000000E+00  0.00000000000E+00  0.10315410504E+04  0.10315410504E+04  0.00000000000E+00 0.  1.
         21   -1    0    0  501  503 -0.00000000000E+00 -0.00000000000E+00 -0.65670705967E+00  0.65670705967E+00  0.00000000000E+00 0. -1.
          2    1    1    2  501    0 -0.68928063855E+01 -0.21093241217E+02  0.24574791204E+03  0.24674779001E+03  0.00000000000E+00 0. -1.
         -2    1    1    2    0  502  0.68928063855E+01  0.21093241217E+02  0.78513643127E+03  0.78544996741E+03  0.00000000000E+00 0.  1.
<mgrwt>
<rscale>  2 0.22190890E+02</rscale>
<asrwt>0</asrwt>
<pdfrwt beam="1">  1       21 0.15869733E+00 0.22190890E+02</pdfrwt>
<pdfrwt beam="2">  1       21 0.10103268E-03 0.22190890E+02</pdfrwt>
<totfact> 0.27044185E+07</totfact>
</mgrwt>
</event>
<event>
 4    1  0.2812958E+004  0.6836348E+02  0.7546771E-02  0.1365748E+00
         21   -1    0    0  503  502  0.00000000000E+00  0.00000000000E+00  0.77599172982E+01  0.77599172982E+01  0.00000000000E+00 0. -1.
         21   -1    0    0  501  503 -0.00000000000E+00 -0.00000000000E+00 -0.62282265274E+03  0.62282265274E+03  0.00000000000E+00 0.  1.
          2    1    1    2  501    0 -0.66022684377E+02  0.17736127739E+02 -0.25025649496E+03  0.25942605565E+03  0.00000000000E+00 0. -1.
         -2    1    1    2    0  502  0.66022684377E+02 -0.17736127739E+02 -0.36480624048E+03  0.37115651439E+03  0.00000000000E+00 0.  1.
<mgrwt>
<rscale>  2 0.68363478E+02</rscale>
<asrwt>0</asrwt>
<pdfrwt beam="1">  1       21 0.11938337E-02 0.68363478E+02</pdfrwt>
<pdfrwt beam="2">  1       21 0.95818845E-01 0.68363478E+02</pdfrwt>
<totfact> 0.25116502E+06</totfact>
</mgrwt>
</event>
<event>
 4    1  0.2812958E+004  0.2770612E+02  0.7546771E-02  0.1624923E+00
         21   -1    0    0  503  502  0.00000000000E+00  0.00000000000E+00  0.45350386625E+02  0.45350386625E+02  0.00000000000E+00 0.  1.
         21   -1    0    0  501  503 -0.00000000000E+00 -0.00000000000E+00 -0.16997630726E+02  0.16997630726E+02  0.00000000000E+00 0. -1.
          2    1    1    2  501    0  0.19094985713E+02 -0.20075118504E+02  0.12161477398E+02  0.30257732811E+02  0.00000000000E+00 0. -1.
         -2    1    1    2    0  502 -0.19094985713E+02  0.20075118504E+02  0.16191278502E+02  0.32090284540E+02  0.00000000000E+00 0.  1.
<mgrwt>
<rscale>  2 0.27706116E+02</rscale>
<asrwt>0</asrwt>
<pdfrwt beam="1">  1       21 0.69769825E-02 0.27706116E+02</pdfrwt>
<pdfrwt beam="2">  1       21 0.26150201E-02 0.27706116E+02</pdfrwt>
<totfact> 0.87300388E+07</totfact>
</mgrwt>
</event>
<event>
 4    1  0.2812958E+004  0.2535970E+02  0.7546771E-02  0.1655888E+00
         21   -1    0    0  503  502  0.00000000000E+00  0.00000000000E+00  0.39543523037E+01  0.39543523037E+01  0.00000000000E+00 0.  1.
         21   -1    0    0  501  503 -0.00000000000E+00 -0.00000000000E+00 -0.16355057156E+03  0.16355057156E+03  0.00000000000E+00 0. -1.
          2    1    1    2  501    0  0.22653169879E+02  0.11399493373E+02 -0.86065829437E+02  0.89724252861E+02  0.00000000000E+00 0.  1.
         -2    1    1    2    0  502 -0.22653169879E+02 -0.11399493373E+02 -0.73530389821E+02  0.77780671004E+02  0.00000000000E+00 0. -1.
<mgrwt>
<rscale>  2 0.25359703E+02</rscale>
<asrwt>0</asrwt>
<pdfrwt beam="1">  1       21 0.60836194E-03 0.25359703E+02</pdfrwt>
<pdfrwt beam="2">  1       21 0.25161624E-01 0.25359703E+02</pdfrwt>
<totfact> 0.88442137E+07</totfact>
</mgrwt>
</event>
<event>
 4    1  0.2812958E+004  0.2034448E+02  0.7546771E-02  0.1738563E+00
         21   -1    0    0  503  502  0.00000000000E+00  0.00000000000E+00  0.10488683795E+03  0.10488683795E+03  0.00000000000E+00 0. -1.
         21   -1    0    0  501  503 -0.00000000000E+00 -0.00000000000E+00 -0.72153830246E+01  0.72153830246E+01  0.00000000000E+00 0.  1.
          2    1    1    2  501    0  0.97624466126E+01  0.17849163971E+02  0.11106474150E+02  0.23178692508E+02  0.00000000000E+00 0.  1.
         -2    1    1    2    0  502 -0.97624466126E+01 -0.17849163971E+02  0.86564980775E+02  0.88923528466E+02  0.00000000000E+00 0. -1.
<mgrwt>
<rscale>  2 0.20344484E+02</rscale>
<asrwt>0</asrwt>
<pdfrwt beam="1">  1       21 0.16136435E-01 0.20344484E+02</pdfrwt>
<pdfrwt beam="2">  1       21 0.11100590E-02 0.20344484E+02</pdfrwt>
<totfact> 0.73772817E+07</totfact>
</mgrwt>
</event>
<event>
 4    1  0.2812958E+004  0.2343532E+02  0.7546771E-02  0.1684549E+00
         21   -1    0    0  501  502  0.00000000000E+00  0.00000000000E+00  0.52950235441E+03  0.52950235441E+03  0.00000000000E+00 0. -1.
         21   -1    0    0  502  503 -0.00000000000E+00 -0.00000000000E+00 -0.10819841053E+01  0.10819841053E+01  0.00000000000E+00 0.  1.
          2    1    1    2  501    0  0.23019523270E+02  0.43949971326E+01  0.31816648002E+03  0.31902840541E+03  0.00000000000E+00 0. -1.
         -2    1    1    2    0  503 -0.23019523270E+02 -0.43949971326E+01  0.21025389029E+03  0.21155593311E+03  0.00000000000E+00 0.  1.
<mgrwt>
<rscale>  2 0.23435325E+02</rscale>
<asrwt>0</asrwt>
<pdfrwt beam="1">  1       21 0.81461693E-01 0.23435325E+02</pdfrwt>
<pdfrwt beam="2">  1       21 0.16645952E-03 0.23435325E+02</pdfrwt>
<totfact> 0.59761624E+07</totfact>
</mgrwt>
</event>
<event>
 4    1  0.2812958E+004  0.2594471E+02  0.7546771E-02  0.1647792E+00
         21   -1    0    0  503  502  0.00000000000E+00  0.00000000000E+00  0.13447037282E+03  0.13447037282E+03  0.00000000000E+00 0.  1.
         21   -1    0    0  501  503 -0.00000000000E+00 -0.00000000000E+00 -0.57204814133E+01  0.57204814133E+01  0.00000000000E+00 0. -1.
          2    1    1    2  501    0 -0.22514808720E+02 -0.12892290507E+02  0.39598515259E+02  0.47340998901E+02  0.00000000000E+00 0. -1.
         -2    1    1    2    0  502  0.22514808720E+02  0.12892290507E+02  0.89151376143E+02  0.92849855327E+02  0.00000000000E+00 0.  1.
<mgrwt>
<rscale>  2 0.25944706E+02</rscale>
<asrwt>0</asrwt>
<pdfrwt beam="1">  1       21 0.20687747E-01 0.25944706E+02</pdfrwt>
<pdfrwt beam="2">  1       21 0.88007417E-03 0.25944706E+02</pdfrwt>
<totfact> 0.72495292E+07</totfact>
</mgrwt>
</event>
<event>
 4    1  0.2812958E+004  0.2138792E+02  0.7546771E-02  0.1719058E+00
         21   -1    0    0  501  502  0.00000000000E+00  0.00000000000E+00  0.18560265405E+02  0.18560265405E+02  0.00000000000E+00 0. -1.
         21   -1    0    0  502  503 -0.00000000000E+00 -0.00000000000E+00 -0.25758387818E+02  0.25758387818E+02  0.00000000000E+00 0.  1.
          2    1    1    2  501    0 -0.11274776085E+02  0.18174783594E+02  0.10051087501E+01  0.21411529092E+02  0.00000000000E+00 0.  1.
         -2    1    1    2    0  503  0.11274776085E+02 -0.18174783594E+02 -0.82032311631E+01  0.22907124131E+02  0.00000000000E+00 0. -1.
<mgrwt>
<rscale>  2 0.21387925E+02</rscale>
<asrwt>0</asrwt>
<pdfrwt beam="1">  1       21 0.28554255E-02 0.21387925E+02</pdfrwt>
<pdfrwt beam="2">  1       21 0.39628289E-02 0.21387925E+02</pdfrwt>
<totfact> 0.17482868E+08</totfact>
</mgrwt>
</event>
<event>
 4    1  0.2812958E+004  0.3540730E+02  0.7546771E-02  0.1545013E+00
         21   -1    0    0  501  502  0.00000000000E+00  0.00000000000E+00  0.14626798785E+03  0.14626798785E+03  0.00000000000E+00 0. -1.
         21   -1    0    0  502  503 -0.00000000000E+00 -0.00000000000E+00 -0.41644541979E+02  0.41644541979E+02  0.00000000000E+00 0.  1.
          2    1    1    2  501    0 -0.35297084219E+02 -0.27914911940E+01  0.13604275412E+03  0.14057491784E+03  0.00000000000E+00 0. -1.
         -2    1    1    2    0  503  0.35297084219E+02  0.27914911940E+01 -0.31419308252E+02  0.47337611986E+02  0.00000000000E+00 0.  1.
<mgrwt>
<rscale>  2 0.35407296E+02</rscale>
<asrwt>0</asrwt>
<pdfrwt beam="1">  1       21 0.22502767E-01 0.35407296E+02</pdfrwt>
<pdfrwt beam="2">  1       21 0.64068527E-02 0.35407296E+02</pdfrwt>
<totfact> 0.29617364E+06</totfact>
</mgrwt>
</event>
<event>
 4    1  0.2812958E+004  0.2115129E+02  0.7546771E-02  0.1723357E+00
         21   -1    0    0  501  502  0.00000000000E+00  0.00000000000E+00  0.60127520226E+01  0.60127520226E+01  0.00000000000E+00 0.  1.
         21   -1    0    0  502  503 -0.00000000000E+00 -0.00000000000E+00 -0.79864523236E+02  0.79864523236E+02  0.00000000000E+00 0. -1.
          2    1    1    2  501    0  0.21129699774E+02  0.95540065363E+00 -0.25698965043E+02  0.33283837027E+02  0.00000000000E+00 0.  1.
         -2    1    1    2    0  503 -0.21129699774E+02 -0.95540065363E+00 -0.48152806171E+02  0.52593438232E+02  0.00000000000E+00 0. -1.
<mgrwt>
<rscale>  2 0.21151288E+02</rscale>
<asrwt>0</asrwt>
<pdfrwt beam="1">  1       21 0.92503879E-03 0.21151288E+02</pdfrwt>
<pdfrwt beam="2">  1       21 0.12286849E-01 0.21151288E+02</pdfrwt>
<totfact> 0.15524599E+08</totfact>
</mgrwt>
</event>
<event>
 4    1  0.2812958E+004  0.2127910E+02  0.7546771E-02  0.1721026E+00
         21   -1    0    0  503  502  0.00000000000E+00  0.00000000000E+00  0.29107475097E+01  0.29107475097E+01  0.00000000000E+00 0. -1.
         21   -1    0    0  501  503 -0.00000000000E+00 -0.00000000000E+00 -0.39456616115E+03  0.39456616115E+03  0.00000000000E+00 0.  1.
          2    1    1    2  501    0  0.21239032622E+02 -0.13051646818E+01 -0.35050453742E+03  0.35114986931E+03  0.00000000000E+00 0.  1.
         -2    1    1    2    0  502 -0.21239032622E+02  0.13051646818E+01 -0.41150876218E+02  0.46327039352E+02  0.00000000000E+00 0. -1.
<mgrwt>
<rscale>  2 0.21279097E+02</rscale>
<asrwt>0</asrwt>
<pdfrwt beam="1">  1       21 0.44780736E-03 0.21279097E+02</pdfrwt>
<pdfrwt beam="2">  1       21 0.60702479E-01 0.21279097E+02</pdfrwt>
<totfact> 0.25386023E+07</totfact>
</mgrwt>
</event>
<event>
 4    1  0.2812958E+004  0.2155571E+02  0.7546771E-02  0.1716051E+00
         21   -1    0    0  503  502  0.00000000000E+00  0.00000000000E+00  0.68592936724E+01  0.68592936724E+01  0.00000000000E+00 0.  1.
         21   -1    0    0  501  503 -0.00000000000E+00 -0.00000000000E+00 -0.68975213865E+02  0.68975213865E+02  0.00000000000E+00 0. -1.
          2    1    1    2  501    0  0.46485425492E+01 -0.21048503934E+02 -0.36132114438E+02  0.42073485231E+02  0.00000000000E+00 0. -1.
         -2    1    1    2    0  502 -0.46485425492E+01  0.21048503934E+02 -0.25983805755E+02  0.33761022307E+02  0.00000000000E+00 0.  1.
<mgrwt>
<rscale>  2 0.21555706E+02</rscale>
<asrwt>0</asrwt>
<pdfrwt beam="1">  1       21 0.10552759E-02 0.21555706E+02</pdfrwt>
<pdfrwt beam="2">  1       21 0.10611572E-01 0.21555706E+02</pdfrwt>
<totfact> 0.16359321E+08</totfact>
</mgrwt>
</event>
<event>
 4    1  0.2812958E+004  0.2512147E+02  0.7546771E-02  0.1659263E+00
         21   -1    0    0  503  502  0.00000000000E+00  0.00000000000E+00  0.27678212148E+03  0.27678212148E+03  0.00000000000E+00 0. -1.
         21   -1    0    0  501  503 -0.00000000000E+00 -0.00000000000E+00 -0.29388826202E+01  0.29388826202E+01  0.00000000000E+00 0.  1.
          2    1    1    2  501    0  0.21109082246E+02  0.13619660181E+02  0.70703337382E+02  0.75033661870E+02  0.00000000000E+00 0.  1.
         -2    1    1    2    0  502 -0.21109082246E+02 -0.13619660181E+02  0.20313990147E+03  0.20468734223E+03  0.00000000000E+00 0. -1.
<mgrwt>
<rscale>  2 0.25121475E+02</rscale>
<asrwt>0</asrwt>
<pdfrwt beam="1">  1       21 0.42581844E-01 0.25121475E+02</pdfrwt>
<pdfrwt beam="2">  1       21 0.45213601E-03 0.25121475E+02</pdfrwt>
<totfact> 0.51851419E+07</totfact>
</mgrwt>
</event>
<event>
 4    1  0.2812958E+004  0.2236928E+02  0.7546771E-02  0.1701943E+00
         21   -1    0    0  501  502  0.00000000000E+00  0.00000000000E+00  0.10851785282E+01  0.10851785282E+01  0.00000000000E+00 0. -1.
         21   -1    0    0  502  503 -0.00000000000E+00 -0.00000000000E+00 -0.54630678931E+03  0.54630678931E+03  0.00000000000E+00 0.  1.
          2    1    1    2  501    0 -0.11855206603E+02 -0.18969412009E+02 -0.16452546295E+03  0.16603918957E+03  0.00000000000E+00 0.  1.
         -2    1    1    2    0  503  0.11855206603E+02  0.18969412009E+02 -0.38069614784E+03  0.38135277827E+03  0.00000000000E+00 0. -1.
<mgrwt>
<rscale>  2 0.22369276E+02</rscale>
<asrwt>0</asrwt>
<pdfrwt beam="1">  1       21 0.16695078E-03 0.22369276E+02</pdfrwt>
<pdfrwt beam="2">  1       21 0.84047077E-01 0.22369276E+02</pdfrwt>
<totfact> 0.55122207E+07</totfact>
</mgrwt>
</event>
<event>
 4    1  0.2812958E+004  0.3319807E+02  0.7546771E-02  0.1565210E+00
         21   -1    0    0  503  502  0.00000000000E+00  0.00000000000E+00  0.89355377541E+02  0.89355377541E+02  0.00000000000E+00 0.  1.
         21   -1    0    0  501  503 -0.00000000000E+00 -0.00000000000E+00 -0.23211302172E+02  0.23211302172E+02  0.00000000000E+00 0. -1.
          2    1    1    2  501    0 -0.32995500072E+02 -0.36618161962E+01 -0.54571721238E+01  0.33643612328E+02  0.00000000000E+00 0. -1.
         -2    1    1    2    0  502  0.32995500072E+02  0.36618161962E+01  0.71601247493E+02  0.78923067385E+02  0.00000000000E+00 0.  1.
<mgrwt>
<rscale>  2 0.33198071E+02</rscale>
<asrwt>0</asrwt>
<pdfrwt beam="1">  1       21 0.13746981E-01 0.33198071E+02</pdfrwt>
<pdfrwt beam="2">  1       21 0.35709696E-02 0.33198071E+02</pdfrwt>
<totfact> 0.17881024E+07</totfact>
</mgrwt>
</event>
<event>
 4    1  0.2812958E+004  0.2036081E+02  0.7546771E-02  0.1738247E+00
         21   -1    0    0  501  502  0.00000000000E+00  0.00000000000E+00  0.23255266869E+02  0.23255266869E+02  0.00000000000E+00 0. -1.
         21   -1    0    0  502  503 -0.00000000000E+00 -0.00000000000E+00 -0.32842523792E+02  0.32842523792E+02  0.00000000000E+00 0.  1.
          2    1    1    2  501    0 -0.11471783636E+02 -0.16821431680E+02  0.14172273493E+02  0.24807573834E+02  0.00000000000E+00 0.  1.
         -2    1    1    2    0  503  0.11471783636E+02  0.16821431680E+02 -0.23759530415E+02  0.31290216827E+02  0.00000000000E+00 0. -1.
<mgrwt>
<rscale>  2 0.20360805E+02</rscale>
<asrwt>0</asrwt>
<pdfrwt beam="1">  1       21 0.35777334E-02 0.20360805E+02</pdfrwt>
<pdfrwt beam="2">  1       21 0.50526959E-02 0.20360805E+02</pdfrwt>
<totfact> 0.82676084E+07</totfact>
</mgrwt>
</event>
<event>
 4    1  0.2812958E+004  0.2377866E+02  0.7546771E-02  0.1679190E+00
         21   -1    0    0  503  502  0.00000000000E+00  0.00000000000E+00  0.37442584025E+01  0.37442584025E+01  0.00000000000E+00 0.  1.
         21   -1    0    0  501  503 -0.00000000000E+00 -0.00000000000E+00 -0.21092663156E+03  0.21092663156E+03  0.00000000000E+00 0. -1.
          2    1    1    2  501    0  0.23320999038E+02 -0.46428197270E+01 -0.16079789710E+03  0.16254657327E+03  0.00000000000E+00 0. -1.
         -2    1    1    2    0  502 -0.23320999038E+02  0.46428197270E+01 -0.46384476057E+02  0.52124316689E+02  0.00000000000E+00 0.  1.
<mgrwt>
<rscale>  2 0.23778662E+02</rscale>
<asrwt>0</asrwt>
<pdfrwt beam="1">  1       21 0.57603978E-03 0.23778662E+02</pdfrwt>
<pdfrwt beam="2">  1       21 0.32450250E-01 0.23778662E+02</pdfrwt>
<totfact> 0.59496490E+07</totfact>
</mgrwt>
</event>
<event>
 4    1  0.2812958E+004  0.2353866E+02  0.7546771E-02  0.1682925E+00
         21   -1    0    0  503  502  0.00000000000E+00  0.00000000000E+00  0.28021344953E+03  0.28021344953E+03  0.00000000000E+00 0.  1.
         21   -1    0    0  501  503 -0.00000000000E+00 -0.00000000000E+00 -0.80135876907E+01  0.80135876907E+01  0.00000000000E+00 0. -1.
          2    1    1    2  501    0 -0.21328993439E+02 -0.99570351794E+01  0.11023386354E+02  0.25991990255E+02  0.00000000000E+00 0. -1.
         -2    1    1    2    0  502  0.21328993439E+02  0.99570351794E+01  0.26117647549E+03  0.26223504697E+03  0.00000000000E+00 0.  1.
<mgrwt>
<rscale>  2 0.23538660E+02</rscale>
<asrwt>0</asrwt>
<pdfrwt beam="1">  1       21 0.43109754E-01 0.23538660E+02</pdfrwt>
<pdfrwt beam="2">  1       21 0.12328599E-02 0.23538660E+02</pdfrwt>
<totfact> 0.11174514E+07</totfact>
</mgrwt>
</event>
<event>
 4    1  0.2812958E+004  0.2693230E+02  0.7546771E-02  0.1634704E+00
         21   -1    0    0  503  502  0.00000000000E+00  0.00000000000E+00  0.35457306334E+00  0.35457306334E+00  0.00000000000E+00 0.  1.
         21   -1    0    0  501  503 -0.00000000000E+00 -0.00000000000E+00 -0.21432495180E+04  0.21432495180E+04  0.00000000000E+00 0. -1.
          2    1    1    2  501    0 -0.24810837488E+02  0.10477177655E+02 -0.13001117676E+04  0.13003906940E+04  0.00000000000E+00 0.  1.
         -2    1    1    2    0  502  0.24810837488E+02 -0.10477177655E+02 -0.84278317732E+03  0.84321339700E+03  0.00000000000E+00 0. -1.
<mgrwt>
<rscale>  2 0.26932302E+02</rscale>
<asrwt>0</asrwt>
<pdfrwt beam="1">  1       21 0.54549634E-04 0.26932302E+02</pdfrwt>
<pdfrwt beam="2">  1       21 0.32973111E+00 0.26932302E+02</pdfrwt>
<totfact> 0.82173071E+06</totfact>
</mgrwt>
</event>
<event>
 4    1  0.2812958E+004  0.2267173E+02  0.7546771E-02  0.1696887E+00
         21   -1    0    0  501  502  0.00000000000E+00  0.00000000000E+00  0.49684616948E+01  0.49684616948E+01  0.00000000000E+00 0.  1.
         21   -1    0    0  502  503 -0.00000000000E+00 -0.00000000000E+00 -0.10684152968E+03  0.10684152968E+03  0.00000000000E+00 0. -1.
          2    1    1    2  501    0  0.91746105502E+01  0.20732434813E+02 -0.40982001074E+02  0.46835155002E+02  0.00000000000E+00 0.  1.
         -2    1    1    2    0  503 -0.91746105502E+01 -0.20732434813E+02 -0.60891066906E+02  0.64974836368E+02  0.00000000000E+00 0. -1.
<mgrwt>
<rscale>  2 0.22671730E+02</rscale>
<asrwt>0</asrwt>
<pdfrwt beam="1">  1       21 0.76437870E-03 0.22671730E+02</pdfrwt>
<pdfrwt beam="2">  1       21 0.16437159E-01 0.22671730E+02</pdfrwt>
<totfact> 0.12874399E+08</totfact>
</mgrwt>
</event>
<event>
 4    1  0.2812958E+004  0.2428087E+02  0.7546771E-02  0.1671551E+00
         21   -1    0    0  501  502  0.00000000000E+00  0.00000000000E+00  0.22391114255E+02  0.22391114255E+02  0.00000000000E+00 0. -1.
         21   -1    0    0  502  503 -0.00000000000E+00 -0.00000000000E+00 -0.30669150223E+02  0.30669150223E+02  0.00000000000E+00 0.  1.
          2    1    1    2  501    0  0.10195716643E+02 -0.22036515994E+02  0.58399353865E+01  0.24973296145E+02  0.00000000000E+00 0. -1.
         -2    1    1    2    0  503 -0.10195716643E+02  0.22036515994E+02 -0.14117971354E+02  0.28086968333E+02  0.00000000000E+00 0.  1.
<mgrwt>
<rscale>  2 0.24280871E+02</rscale>
<asrwt>0</asrwt>
<pdfrwt beam="1">  1       21 0.34447868E-02 0.24280871E+02</pdfrwt>
<pdfrwt beam="2">  1       21 0.47183308E-02 0.24280871E+02</pdfrwt>
<totfact> 0.10287538E+08</totfact>
</mgrwt>
</event>
<event>
 4    1  0.2812958E+004  0.2590019E+02  0.7546771E-02  0.1648399E+00
         21   -1    0    0  503  502  0.00000000000E+00  0.00000000000E+00  0.10556648080E+02  0.10556648080E+02  0.00000000000E+00 0.  1.
         21   -1    0    0  501  503 -0.00000000000E+00 -0.00000000000E+00 -0.99844735879E+02  0.99844735879E+02  0.00000000000E+00 0. -1.
          2    1    1    2  501    0 -0.20129053650E+02  0.16298505342E+02 -0.77927994778E+02  0.82119379244E+02  0.00000000000E+00 0. -1.
         -2    1    1    2    0  502  0.20129053650E+02 -0.16298505342E+02 -0.11360093021E+02  0.28282004715E+02  0.00000000000E+00 0.  1.
<mgrwt>
<rscale>  2 0.25900195E+02</rscale>
<asrwt>0</asrwt>
<pdfrwt beam="1">  1       21 0.16240997E-02 0.25900195E+02</pdfrwt>
<pdfrwt beam="2">  1       21 0.15360729E-01 0.25900195E+02</pdfrwt>
<totfact> 0.47988967E+07</totfact>
</mgrwt>
</event>
<event>
 4    1  0.2812958E+004  0.2699754E+02  0.7546771E-02  0.1633864E+00
         21   -1    0    0  503  502  0.00000000000E+00  0.00000000000E+00  0.31726002806E+02  0.31726002806E+02  0.00000000000E+00 0. -1.
         21   -1    0    0  501  503 -0.00000000000E+00 -0.00000000000E+00 -0.43245836830E+02  0.43245836830E+02  0.00000000000E+00 0.  1.
          2    1    1    2  501    0 -0.40110491244E+01 -0.26697918381E+02 -0.31425110205E+02  0.41429517404E+02  0.00000000000E+00 0.  1.
         -2    1    1    2    0  502  0.40110491244E+01  0.26697918381E+02  0.19905276181E+02  0.33542322233E+02  0.00000000000E+00 0. -1.
<mgrwt>
<rscale>  2 0.26997544E+02</rscale>
<asrwt>0</asrwt>
<pdfrwt beam="1">  1       21 0.48809235E-02 0.26997544E+02</pdfrwt>
<pdfrwt beam="2">  1       21 0.66532057E-02 0.26997544E+02</pdfrwt>
<totfact> 0.34991978E+07</totfact>
</mgrwt>
</event>
<event>
 4    1  0.2812958E+004  0.2802974E+02  0.7546771E-02  0.1620947E+00
         21   -1    0    0  501  502  0.00000000000E+00  0.00000000000E+00  0.13231088952E+04  0.13231088952E+04  0.00000000000E+00 0. -1.
         21   -1    0    0  502  503 -0.00000000000E+00 -0.00000000000E+00 -0.69298173871E+00  0.69298173871E+00  0.00000000000E+00 0.  1.
          2    1    1    2  501    0  0.18225322164E+02  0.21295634228E+02  0.91161167508E+03  0.91204249493E+03  0.00000000000E+00 0. -1.
         -2    1    1    2    0  503 -0.18225322164E+02 -0.21295634228E+02  0.41080423842E+03  0.41175938205E+03  0.00000000000E+00 0.  1.
<mgrwt>
<rscale>  2 0.28029741E+02</rscale>
<asrwt>0</asrwt>
<pdfrwt beam="1">  1       21 0.20355319E+00 0.28029741E+02</pdfrwt>
<pdfrwt beam="2">  1       21 0.10661363E-03 0.28029741E+02</pdfrwt>
<totfact> 0.13870316E+07</totfact>
</mgrwt>
</event>
<event>
 4    1  0.2812958E+004  0.2026083E+02  0.7546771E-02  0.1740190E+00
         21   -1    0    0  501  502  0.00000000000E+00  0.00000000000E+00  0.79098463802E+01  0.79098463802E+01  0.00000000000E+00 0. -1.
         21   -1    0    0  502  503 -0.00000000000E+00 -0.00000000000E+00 -0.14858326915E+03  0.14858326915E+03  0.00000000000E+00 0.  1.
          2    1    1    2  501    0  0.14965557893E+02 -0.13657714121E+02 -0.72174927404E+01  0.21507981763E+02  0.00000000000E+00 0. -1.
         -2    1    1    2    0  503 -0.14965557893E+02  0.13657714121E+02 -0.13345593003E+03  0.13498513377E+03  0.00000000000E+00 0.  1.
<mgrwt>
<rscale>  2 0.20260826E+02</rscale>
<asrwt>0</asrwt>
<pdfrwt beam="1">  1       21 0.12168995E-02 0.20260826E+02</pdfrwt>
<pdfrwt beam="2">  1       21 0.22858963E-01 0.20260826E+02</pdfrwt>
<totfact> 0.35151293E+07</totfact>
</mgrwt>
</event>
<event>
 4    1  0.2812958E+004  0.2025644E+02  0.7546771E-02  0.1740276E+00
         21   -1    0    0  501  502  0.00000000000E+00  0.00000000000E+00  0.26704670281E+01  0.26704670281E+01  0.00000000000E+00 0.  1.
         21   -1    0    0  502  503 -0.00000000000E+00 -0.00000000000E+00 -0.31013446346E+03  0.31013446346E+03  0.00000000000E+00 0. -1.
          2    1    1    2  501    0  0.14706197793E+02  0.13930228322E+02 -0.42635353890E+02  0.47202721489E+02  0.00000000000E+00 0.  1.
         -2    1    1    2    0  503 -0.14706197793E+02 -0.13930228322E+02 -0.26482864254E+03  0.26560220900E+03  0.00000000000E+00 0. -1.
<mgrwt>
<rscale>  2 0.20256444E+02</rscale>
<asrwt>0</asrwt>
<pdfrwt beam="1">  1       21 0.41084139E-03 0.20256444E+02</pdfrwt>
<pdfrwt beam="2">  1       21 0.47712958E-01 0.20256444E+02</pdfrwt>
<totfact> 0.45611343E+07</totfact>
</mgrwt>
</event>
<event>
 4    1  0.2812958E+004  0.2006183E+02  0.7546771E-02  0.1744101E+00
         21   -1    0    0  501  502  0.00000000000E+00  0.00000000000E+00  0.12733187687E+03  0.12733187687E+03  0.00000000000E+00 0. -1.
         21   -1    0    0  502  503 -0.00000000000E+00 -0.00000000000E+00 -0.55381060513E+02  0.55381060513E+02  0.00000000000E+00 0.  1.
          2    1    1    2  501    0  0.27815181575E+01 -0.19868073537E+02  0.12468650966E+03  0.12629015353E+03  0.00000000000E+00 0. -1.
         -2    1    1    2    0  503 -0.27815181575E+01  0.19868073537E+02 -0.52735693300E+02  0.56422783848E+02  0.00000000000E+00 0.  1.
<mgrwt>
<rscale>  2 0.20061834E+02</rscale>
<asrwt>0</asrwt>
<pdfrwt beam="1">  1       21 0.19589519E-01 0.20061834E+02</pdfrwt>
<pdfrwt beam="2">  1       21 0.85201632E-02 0.20061834E+02</pdfrwt>
<totfact> 0.22157759E+06</totfact>
</mgrwt>
</event>
<event>
 4    1  0.2812958E+004  0.2019720E+02  0.7546771E-02  0.1741435E+00
         21   -1    0    0  503  502  0.00000000000E+00  0.00000000000E+00  0.37001432076E+02  0.37001432076E+02  0.00000000000E+00 0.  1.
         21   -1    0    0  501  503 -0.00000000000E+00 -0.00000000000E+00 -0.11487330472E+02  0.11487330472E+02  0.00000000000E+00 0. -1.
          2    1    1    2  501    0 -0.63987314137E+01 -0.19156807425E+02  0.78912724013E+01  0.21684077443E+02  0.00000000000E+00 0. -1.
         -2    1    1    2    0  502  0.63987314137E+01  0.19156807425E+02  0.17622829203E+02  0.26804685105E+02  0.00000000000E+00 0.  1.
<mgrwt>
<rscale>  2 0.20197204E+02</rscale>
<asrwt>0</asrwt>
<pdfrwt beam="1">  1       21 0.56925279E-02 0.20197204E+02</pdfrwt>
<pdfrwt beam="2">  1       21 0.17672816E-02 0.20197204E+02</pdfrwt>
<totfact> 0.20213192E+08</totfact>
</mgrwt>
</event>
<event>
 4    1  0.2812958E+004  0.2083970E+02  0.7546771E-02  0.1729127E+00
         21   -1    0    0  501  502  0.00000000000E+00  0.00000000000E+00  0.42593089377E+02  0.42593089377E+02  0.00000000000E+00 0. -1.
         21   -1    0    0  502  503 -0.00000000000E+00 -0.00000000000E+00 -0.10551198923E+02  0.10551198923E+02  0.00000000000E+00 0.  1.
          2    1    1    2  501    0  0.19721948953E+02  0.67333392922E+01  0.20894104805E+02  0.29510282007E+02  0.00000000000E+00 0. -1.
         -2    1    1    2    0  503 -0.19721948953E+02 -0.67333392922E+01  0.11147785648E+02  0.23634006292E+02  0.00000000000E+00 0.  1.
<mgrwt>
<rscale>  2 0.20839701E+02</rscale>
<asrwt>0</asrwt>
<pdfrwt beam="1">  1       21 0.65527829E-02 0.20839701E+02</pdfrwt>
<pdfrwt beam="2">  1       21 0.16232614E-02 0.20839701E+02</pdfrwt>
<totfact> 0.18547704E+08</totfact>
</mgrwt>
</event>
<event>
 4    1  0.2812958E+004  0.2975109E+02  0.7546771E-02  0.1600856E+00
         21   -1    0    0  503  502  0.00000000000E+00  0.00000000000E+00  0.11777052945E+01  0.11777052945E+01  0.00000000000E+00 0. -1.
         21   -1    0    0  501  503 -0.00000000000E+00 -0.00000000000E+00 -0.75219698099E+03  0.75219698099E+03  0.00000000000E+00 0.  1.
          2    1    1    2  501    0 -0.12820817780E+02  0.26846856734E+02 -0.38639146908E+03  0.38753515256E+03  0.00000000000E+00 0. -1.
         -2    1    1    2    0  502  0.12820817780E+02 -0.26846856734E+02 -0.36462780661E+03  0.36583953373E+03  0.00000000000E+00 0.  1.
<mgrwt>
<rscale>  2 0.29751085E+02</rscale>
<asrwt>0</asrwt>
<pdfrwt beam="1">  1       21 0.18118535E-03 0.29751085E+02</pdfrwt>
<pdfrwt beam="2">  1       21 0.11572266E+00 0.29751085E+02</pdfrwt>
<totfact> 0.25677485E+07</totfact>
</mgrwt>
</event>
<event>
 4    1  0.2812958E+004  0.2244607E+02  0.7546771E-02  0.1700650E+00
         21   -1    0    0  503  502  0.00000000000E+00  0.00000000000E+00  0.85150429251E+01  0.85150429251E+01  0.00000000000E+00 0.  1.
         21   -1    0    0  501  503 -0.00000000000E+00 -0.00000000000E+00 -0.14713275998E+03  0.14713275998E+03  0.00000000000E+00 0. -1.
          2    1    1    2  501    0  0.12069615985E+02  0.18924868507E+02 -0.12948305318E+03  0.13141418242E+03  0.00000000000E+00 0. -1.
         -2    1    1    2    0  502 -0.12069615985E+02 -0.18924868507E+02 -0.91346638726E+01  0.24233620491E+02  0.00000000000E+00 0.  1.
<mgrwt>
<rscale>  2 0.22446075E+02</rscale>
<asrwt>0</asrwt>
<pdfrwt beam="1">  1       21 0.13100068E-02 0.22446075E+02</pdfrwt>
<pdfrwt beam="2">  1       21 0.22635806E-01 0.22446075E+02</pdfrwt>
<totfact> 0.32799579E+07</totfact>
</mgrwt>
</event>
<event>
 4    1  0.2812958E+004  0.3019971E+02  0.7546771E-02  0.1595892E+00
         21   -1    0    0  501  502  0.00000000000E+00  0.00000000000E+00  0.15953043335E+02  0.15953043335E+02  0.00000000000E+00 0. -1.
         21   -1    0    0  502  503 -0.00000000000E+00 -0.00000000000E+00 -0.61866073050E+02  0.61866073050E+02  0.00000000000E+00 0.  1.
          2    1    1    2  501    0  0.13590976526E+02  0.26968643002E+02 -0.33677520567E+02  0.45234917263E+02  0.00000000000E+00 0. -1.
         -2    1    1    2    0  503 -0.13590976526E+02 -0.26968643002E+02 -0.12235509148E+02  0.32584199122E+02  0.00000000000E+00 0.  1.
<mgrwt>
<rscale>  2 0.30199708E+02</rscale>
<asrwt>0</asrwt>
<pdfrwt beam="1">  1       21 0.24543144E-02 0.30199708E+02</pdfrwt>
<pdfrwt beam="2">  1       21 0.95178574E-02 0.30199708E+02</pdfrwt>
<totfact> 0.58977519E+07</totfact>
</mgrwt>
</event>
<event>
 4    1  0.2812958E+004  0.2874645E+02  0.7546771E-02  0.1612373E+00
         21   -1    0    0  501  502  0.00000000000E+00  0.00000000000E+00  0.26044478389E+03  0.26044478389E+03  0.00000000000E+00 0. -1.
         21   -1    0    0  502  503 -0.00000000000E+00 -0.00000000000E+00 -0.34911251729E+01  0.34911251729E+01  0.00000000000E+00 0.  1.
          2    1    1    2  501    0 -0.12304573547E+02 -0.25979912991E+02  0.16832156735E+03  0.17075862627E+03  0.00000000000E+00 0. -1.
         -2    1    1    2    0  503  0.12304573547E+02  0.25979912991E+02  0.88632091363E+02  0.93177282792E+02  0.00000000000E+00 0.  1.
<mgrwt>
<rscale>  2 0.28746450E+02</rscale>
<asrwt>0</asrwt>
<pdfrwt beam="1">  1       21 0.40068413E-01 0.28746450E+02</pdfrwt>
<pdfrwt beam="2">  1       21 0.53709638E-03 0.28746450E+02</pdfrwt>
<totfact> 0.46451600E+07</totfact>
</mgrwt>
</event>
<event>
 4    1  0.2812958E+004  0.2893255E+02  0.7546771E-02  0.1610197E+00
         21   -1    0    0  501  502  0.00000000000E+00  0.00000000000E+00  0.64255524366E+01  0.64255524366E+01  0.00000000000E+00 0.  1.
         21   -1    0    0  502  503 -0.00000000000E+00 -0.00000000000E+00 -0.13380074234E+03  0.13380074234E+03  0.00000000000E+00 0. -1.
          2    1    1    2  501    0  0.22444720450E+01 -0.28845359631E+02 -0.52307100323E+02  0.59775623553E+02  0.00000000000E+00 0.  1.
         -2    1    1    2    0  503 -0.22444720450E+01  0.28845359631E+02 -0.75068089576E+02  0.80450671219E+02  0.00000000000E+00 0. -1.
<mgrwt>
<rscale>  2 0.28932550E+02</rscale>
<asrwt>0</asrwt>
<pdfrwt beam="1">  1       21 0.98854658E-03 0.28932550E+02</pdfrwt>
<pdfrwt beam="2">  1       21 0.20584728E-01 0.28932550E+02</pdfrwt>
<totfact> 0.62987562E+07</totfact>
</mgrwt>
</event>
<event>
 4    1  0.2812958E+004  0.4239523E+02  0.7546771E-02  0.1491290E+00
         21   -1    0    0  503  502  0.00000000000E+00  0.00000000000E+00  0.10733209243E+02  0.10733209243E+02  0.00000000000E+00 0. -1.
         21   -1    0    0  501  503 -0.00000000000E+00 -0.00000000000E+00 -0.43149152183E+03  0.43149152183E+03  0.00000000000E+00 0.  1.
          2    1    1    2  501    0  0.74030463848E+01  0.41743866784E+02 -0.38334363015E+03  0.38568081919E+03  0.00000000000E+00 0.  1.
         -2    1    1    2    0  502 -0.74030463848E+01 -0.41743866784E+02 -0.37414682436E+02  0.56543911889E+02  0.00000000000E+00 0. -1.
<mgrwt>
<rscale>  2 0.42395230E+02</rscale>
<asrwt>0</asrwt>
<pdfrwt beam="1">  1       21 0.16512630E-02 0.42395230E+02</pdfrwt>
<pdfrwt beam="2">  1       21 0.66383311E-01 0.42395230E+02</pdfrwt>
<totfact> 0.32621919E+06</totfact>
</mgrwt>
</event>
<event>
 4    1  0.2812958E+004  0.2768914E+02  0.7546771E-02  0.1625133E+00
         21   -1    0    0  503  502  0.00000000000E+00  0.00000000000E+00  0.30580533281E+02  0.30580533281E+02  0.00000000000E+00 0.  1.
         21   -1    0    0  501  503 -0.00000000000E+00 -0.00000000000E+00 -0.25370645084E+02  0.25370645084E+02  0.00000000000E+00 0. -1.
          2    1    1    2  501    0 -0.19044740369E+02 -0.20099411743E+02 -0.43470687198E+00  0.27692552396E+02  0.00000000000E+00 0. -1.
         -2    1    1    2    0  502  0.19044740369E+02  0.20099411743E+02  0.56445950691E+01  0.28258625969E+02  0.00000000000E+00 0.  1.
<mgrwt>
<rscale>  2 0.27689140E+02</rscale>
<asrwt>0</asrwt>
<pdfrwt beam="1">  1       21 0.47046974E-02 0.27689140E+02</pdfrwt>
<pdfrwt beam="2">  1       21 0.39031762E-02 0.27689140E+02</pdfrwt>
<totfact> 0.87855732E+07</totfact>
</mgrwt>
</event>
<event>
 4    1  0.2812958E+004  0.3201624E+02  0.7546771E-02  0.1576815E+00
         21   -1    0    0  503  502  0.00000000000E+00  0.00000000000E+00  0.21960356384E+03  0.21960356384E+03  0.00000000000E+00 0.  1.
         21   -1    0    0  501  503 -0.00000000000E+00 -0.00000000000E+00 -0.10251152233E+02  0.10251152233E+02  0.00000000000E+00 0. -1.
          2    1    1    2  501    0  0.23541518418E+02 -0.21698764654E+02  0.19857975579E+02  0.37674642282E+02  0.00000000000E+00 0. -1.
         -2    1    1    2    0  502 -0.23541518418E+02  0.21698764654E+02  0.18949443602E+03  0.19218007379E+03  0.00000000000E+00 0.  1.
<mgrwt>
<rscale>  2 0.32016238E+02</rscale>
<asrwt>0</asrwt>
<pdfrwt beam="1">  1       21 0.33785160E-01 0.32016238E+02</pdfrwt>
<pdfrwt beam="2">  1       21 0.15771005E-02 0.32016238E+02</pdfrwt>
<totfact> 0.12804255E+07</totfact>
</mgrwt>
</event>
<event>
 4    1  0.2812958E+004  0.2287397E+02  0.7546771E-02  0.1693561E+00
         21   -1    0    0  503  502  0.00000000000E+00  0.00000000000E+00  0.15724112711E+01  0.15724112711E+01  0.00000000000E+00 0. -1.
         21   -1    0    0  501  503 -0.00000000000E+00 -0.00000000000E+00 -0.48392053712E+03  0.48392053712E+03  0.00000000000E+00 0.  1.
          2    1    1    2  501    0 -0.22845435484E+02 -0.11421566664E+01 -0.37684935542E+03  0.37754291825E+03  0.00000000000E+00 0.  1.
         -2    1    1    2    0  502  0.22845435484E+02  0.11421566664E+01 -0.10549877044E+03  0.10795003014E+03  0.00000000000E+00 0. -1.
<mgrwt>
<rscale>  2 0.22873969E+02</rscale>
<asrwt>0</asrwt>
<pdfrwt beam="1">  1       21 0.24190915E-03 0.22873969E+02</pdfrwt>
<pdfrwt beam="2">  1       21 0.74449398E-01 0.22873969E+02</pdfrwt>
<totfact> 0.41804541E+07</totfact>
</mgrwt>
</event>
<event>
 4    1  0.2812958E+004  0.2133696E+02  0.7546771E-02  0.1719978E+00
         21   -1    0    0  501  502  0.00000000000E+00  0.00000000000E+00  0.14328464041E+03  0.14328464041E+03  0.00000000000E+00 0.  1.
         21   -1    0    0  502  503 -0.00000000000E+00 -0.00000000000E+00 -0.32946524815E+01  0.32946524815E+01  0.00000000000E+00 0. -1.
          2    1    1    2  501    0  0.15540675208E+02 -0.14620304631E+02  0.83823832946E+02  0.86496825740E+02  0.00000000000E+00 0.  1.
         -2    1    1    2    0  503 -0.15540675208E+02  0.14620304631E+02  0.56166154979E+02  0.60082467148E+02  0.00000000000E+00 0. -1.
<mgrwt>
<rscale>  2 0.21336961E+02</rscale>
<asrwt>0</asrwt>
<pdfrwt beam="1">  1       21 0.22043786E-01 0.21336961E+02</pdfrwt>
<pdfrwt beam="2">  1       21 0.50686972E-03 0.21336961E+02</pdfrwt>
<totfact> 0.13971845E+08</totfact>
</mgrwt>
</event>
<event>
 4    1  0.2812958E+004  0.3854125E+02  0.7546771E-02  0.1519229E+00
         21   -1    0    0  501  502  0.00000000000E+00  0.00000000000E+00  0.97577008313E+02  0.97577008313E+02  0.00000000000E+00 0.  1.
         21   -1    0    0  502  503 -0.00000000000E+00 -0.00000000000E+00 -0.12846589976E+03  0.12846589976E+03  0.00000000000E+00 0. -1.
          2    1    1    2  501    0  0.21003496924E+02 -0.32315340575E+02  0.90669432613E+02  0.98520932445E+02  0.00000000000E+00 0.  1.
         -2    1    1    2    0  503 -0.21003496924E+02  0.32315340575E+02 -0.12155832406E+03  0.12752197563E+03  0.00000000000E+00 0. -1.
<mgrwt>
<rscale>  2 0.38541252E+02</rscale>
<asrwt>0</asrwt>
<pdfrwt beam="1">  1       21 0.15011848E-01 0.38541252E+02</pdfrwt>
<pdfrwt beam="2">  1       21 0.19763984E-01 0.38541252E+02</pdfrwt>
<totfact> 0.89583536E+05</totfact>
</mgrwt>
</event>
<event>
 4    1  0.2812958E+004  0.2273787E+02  0.7546771E-02  0.1695795E+00
         21   -1    0    0  501  502  0.00000000000E+00  0.00000000000E+00  0.16811652186E+03  0.16811652186E+03  0.00000000000E+00 0.  1.
         21   -1    0    0  502  503 -0.00000000000E+00 -0.00000000000E+00 -0.34760292844E+01  0.34760292844E+01  0.00000000000E+00 0. -1.
          2    1    1    2  501    0  0.11564287707E+02 -0.19577489862E+02  0.11145057799E+03  0.11374639420E+03  0.00000000000E+00 0. -1.
         -2    1    1    2    0  503 -0.11564287707E+02  0.19577489862E+02  0.53189914586E+02  0.57846156944E+02  0.00000000000E+00 0.  1.
<mgrwt>
<rscale>  2 0.22737873E+02</rscale>
<asrwt>0</asrwt>
<pdfrwt beam="1">  1       21 0.25864074E-01 0.22737873E+02</pdfrwt>
<pdfrwt beam="2">  1       21 0.53477387E-03 0.22737873E+02</pdfrwt>
<totfact> 0.99035281E+07</totfact>
</mgrwt>
</event>
<event>
 4    1  0.2812958E+004  0.2062056E+02  0.7546771E-02  0.1733262E+00
         21   -1    0    0  503  502  0.00000000000E+00  0.00000000000E+00  0.49080636978E+01  0.49080636978E+01  0.00000000000E+00 0. -1.
         21   -1    0    0  501  503 -0.00000000000E+00 -0.00000000000E+00 -0.12724802782E+03  0.12724802782E+03  0.00000000000E+00 0.  1.
          2    1    1    2  501    0 -0.53347874488E+01  0.19918518688E+02 -0.98500786229E+02  0.10063603843E+03  0.00000000000E+00 0.  1.
         -2    1    1    2    0  502  0.53347874488E+01 -0.19918518688E+02 -0.23839177897E+02  0.31520053088E+02  0.00000000000E+00 0. -1.
<mgrwt>
<rscale>  2 0.20620556E+02</rscale>
<asrwt>0</asrwt>
<pdfrwt beam="1">  1       21 0.75508679E-03 0.20620556E+02</pdfrwt>
<pdfrwt beam="2">  1       21 0.19576618E-01 0.20620556E+02</pdfrwt>
<totfact> 0.94415916E+07</totfact>
</mgrwt>
</event>
<event>
 4    1  0.2812958E+004  0.2486095E+02  0.7546771E-02  0.1663007E+00
         21   -1    0    0  503  502  0.00000000000E+00  0.00000000000E+00  0.66537436415E+02  0.66537436415E+02  0.00000000000E+00 0. -1.
         21   -1    0    0  501  503 -0.00000000000E+00 -0.00000000000E+00 -0.16393720718E+02  0.16393720718E+02  0.00000000000E+00 0.  1.
          2    1    1    2  501    0 -0.21146845988E+02  0.13072017261E+02 -0.22256026723E+01  0.24960369344E+02  0.00000000000E+00 0.  1.
         -2    1    1    2    0  502  0.21146845988E+02 -0.13072017261E+02  0.52369318369E+02  0.57970787790E+02  0.00000000000E+00 0. -1.
<mgrwt>
<rscale>  2 0.24860948E+02</rscale>
<asrwt>0</asrwt>
<pdfrwt beam="1">  1       21 0.10236529E-01 0.24860948E+02</pdfrwt>
<pdfrwt beam="2">  1       21 0.25221109E-02 0.24860948E+02</pdfrwt>
<totfact> 0.47845941E+07</totfact>
</mgrwt>
</event>
<event>
 4    1  0.2812958E+004  0.2809584E+02  0.7546771E-02  0.1620143E+00
         21   -1    0    0  503  502  0.00000000000E+00  0.00000000000E+00  0.53727037469E+02  0.53727037469E+02  0.00000000000E+00 0.  1.
         21   -1    0    0  501  503 -0.00000000000E+00 -0.00000000000E+00 -0.16144560660E+02  0.16144560660E+02  0.00000000000E+00 0. -1.
          2    1    1    2  501    0 -0.28087537770E+02 -0.68313386871E+00  0.83133843390E+01  0.29299979676E+02  0.00000000000E+00 0. -1.
         -2    1    1    2    0  502  0.28087537770E+02  0.68313386871E+00  0.29269092470E+02  0.40571618453E+02  0.00000000000E+00 0.  1.
<mgrwt>
<rscale>  2 0.28095844E+02</rscale>
<asrwt>0</asrwt>
<pdfrwt beam="1">  1       21 0.82656980E-02 0.28095844E+02</pdfrwt>
<pdfrwt beam="2">  1       21 0.24837786E-02 0.28095844E+02</pdfrwt>
<totfact> 0.71897986E+07</totfact>
</mgrwt>
</event>
<event>
 4    1  0.2812958E+004  0.5114604E+02  0.7546771E-02  0.1439256E+00
         21   -1    0    0  503  502  0.00000000000E+00  0.00000000000E+00  0.38669257328E+03  0.38669257328E+03  0.00000000000E+00 0. -1.
         21   -1    0    0  501  503 -0.00000000000E+00 -0.00000000000E+00 -0.23135380243E+02  0.23135380243E+02  0.00000000000E+00 0.  1.
          2    1    1    2  501    0  0.49890634254E+01  0.50902131855E+02  0.94074318619E+01  0.52004014802E+02  0.00000000000E+00 0.  1.
         -2    1    1    2    0  502 -0.49890634254E+01 -0.50902131855E+02  0.35414976117E+03  0.35782393872E+03  0.00000000000E+00 0. -1.
<mgrwt>
<rscale>  2 0.51146044E+02</rscale>
<asrwt>0</asrwt>
<pdfrwt beam="1">  1       21 0.59491160E-01 0.51146044E+02</pdfrwt>
<pdfrwt beam="2">  1       21 0.35592896E-02 0.51146044E+02</pdfrwt>
<totfact> 0.12285989E+06</totfact>
</mgrwt>
</event>
<event>
 4    1  0.2812958E+004  0.3631039E+02  0.7546771E-02  0.1537263E+00
         21   -1    0    0  503  502  0.00000000000E+00  0.00000000000E+00  0.50363227118E+01  0.50363227118E+01  0.00000000000E+00 0.  1.
         21   -1    0    0  501  503 -0.00000000000E+00 -0.00000000000E+00 -0.71634766473E+03  0.71634766473E+03  0.00000000000E+00 0. -1.
          2    1    1    2  501    0 -0.34916828764E+02  0.99628914084E+01 -0.64297872425E+03  0.64400317078E+03  0.00000000000E+00 0. -1.
         -2    1    1    2    0  502  0.34916828764E+02 -0.99628914084E+01 -0.68332617764E+02  0.77380816658E+02  0.00000000000E+00 0.  1.
<mgrwt>
<rscale>  2 0.36310386E+02</rscale>
<asrwt>0</asrwt>
<pdfrwt beam="1">  1       21 0.77481911E-03 0.36310386E+02</pdfrwt>
<pdfrwt beam="2">  1       21 0.11020730E+00 0.36310386E+02</pdfrwt>
<totfact> 0.34131348E+06</totfact>
</mgrwt>
</event>
<event>
 4    1  0.2812958E+004  0.2094061E+02  0.7546771E-02  0.1727245E+00
         21   -1    0    0  503  502  0.00000000000E+00  0.00000000000E+00  0.39951176616E+01  0.39951176616E+01  0.00000000000E+00 0.  1.
         21   -1    0    0  501  503 -0.00000000000E+00 -0.00000000000E+00 -0.11014358758E+03  0.11014358758E+03  0.00000000000E+00 0. -1.
          2    1    1    2  501    0  0.24200375933E+01 -0.20800297942E+02 -0.49711709389E+02  0.53942219335E+02  0.00000000000E+00 0. -1.
         -2    1    1    2    0  502 -0.24200375933E+01  0.20800297942E+02 -0.56436760529E+02  0.60196485906E+02  0.00000000000E+00 0.  1.
<mgrwt>
<rscale>  2 0.20940606E+02</rscale>
<asrwt>0</asrwt>
<pdfrwt beam="1">  1       21 0.61463350E-03 0.20940606E+02</pdfrwt>
<pdfrwt beam="2">  1       21 0.16945167E-01 0.20940606E+02</pdfrwt>
<totfact> 0.16496081E+08</totfact>
</mgrwt>
</event>
<event>
 4    1  0.2812958E+004  0.2574333E+02  0.7546771E-02  0.1650549E+00
         21   -1    0    0  501  502  0.00000000000E+00  0.00000000000E+00  0.20502483185E+01  0.20502483185E+01  0.00000000000E+00 0.  1.
         21   -1    0    0  502  503 -0.00000000000E+00 -0.00000000000E+00 -0.88761886197E+03  0.88761886197E+03  0.00000000000E+00 0. -1.
          2    1    1    2  501    0  0.11855718012E+02  0.22850836795E+02 -0.88076067277E+02  0.91761170539E+02  0.00000000000E+00 0.  1.
         -2    1    1    2    0  503 -0.11855718012E+02 -0.22850836795E+02 -0.79749254638E+03  0.79790793975E+03  0.00000000000E+00 0. -1.
<mgrwt>
<rscale>  2 0.25743325E+02</rscale>
<asrwt>0</asrwt>
<pdfrwt beam="1">  1       21 0.31542273E-03 0.25743325E+02</pdfrwt>
<pdfrwt beam="2">  1       21 0.13655679E+00 0.25743325E+02</pdfrwt>
<totfact> 0.76445991E+06</totfact>
</mgrwt>
</event>
<event>
 4    1  0.2812958E+004  0.2022092E+02  0.7546771E-02  0.1740970E+00
         21   -1    0    0  503  502  0.00000000000E+00  0.00000000000E+00  0.93882089637E+02  0.93882089637E+02  0.00000000000E+00 0.  1.
         21   -1    0    0  501  503 -0.00000000000E+00 -0.00000000000E+00 -0.52269233770E+01  0.52269233770E+01  0.00000000000E+00 0. -1.
          2    1    1    2  501    0  0.16245394006E+02 -0.12040457441E+02  0.24091686044E+02  0.31453056740E+02  0.00000000000E+00 0. -1.
         -2    1    1    2    0  502 -0.16245394006E+02  0.12040457441E+02  0.64563480215E+02  0.67655956274E+02  0.00000000000E+00 0.  1.
<mgrwt>
<rscale>  2 0.20220916E+02</rscale>
<asrwt>0</asrwt>
<pdfrwt beam="1">  1       21 0.14443397E-01 0.20220916E+02</pdfrwt>
<pdfrwt beam="2">  1       21 0.80414213E-03 0.20220916E+02</pdfrwt>
<totfact> 0.14380137E+08</totfact>
</mgrwt>
</event>
<event>
 4    1  0.2812958E+004  0.2593988E+02  0.7546771E-02  0.1647858E+00
         21   -1    0    0  501  502  0.00000000000E+00  0.00000000000E+00  0.22776933035E+02  0.22776933035E+02  0.00000000000E+00 0.  1.
         21   -1    0    0  502  503 -0.00000000000E+00 -0.00000000000E+00 -0.30067815718E+02  0.30067815718E+02  0.00000000000E+00 0. -1.
          2    1    1    2  501    0  0.97646804045E+01 -0.24031817500E+02 -0.15147995961E+00  0.25940319619E+02  0.00000000000E+00 0. -1.
         -2    1    1    2    0  503 -0.97646804045E+01  0.24031817500E+02 -0.71394027234E+01  0.26904429133E+02  0.00000000000E+00 0.  1.
<mgrwt>
<rscale>  2 0.25939877E+02</rscale>
<asrwt>0</asrwt>
<pdfrwt beam="1">  1       21 0.35041435E-02 0.25939877E+02</pdfrwt>
<pdfrwt beam="2">  1       21 0.46258178E-02 0.25939877E+02</pdfrwt>
<totfact> 0.10521217E+08</totfact>
</mgrwt>
</event>
<event>
 4    1  0.2812958E+004  0.3731572E+02  0.7546771E-02  0.1528948E+00
         21   -1    0    0  501  502  0.00000000000E+00  0.00000000000E+00  0.53147902918E+02  0.53147902918E+02  0.00000000000E+00 0.  1.
         21   -1    0    0  502  503 -0.00000000000E+00 -0.00000000000E+00 -0.48010601625E+02  0.48010601625E+02  0.00000000000E+00 0. -1.
          2    1    1    2  501    0  0.26181691827E+02 -0.26589139201E+02  0.36659659516E+02  0.52310552914E+02  0.00000000000E+00 0.  1.
         -2    1    1    2    0  503 -0.26181691827E+02  0.26589139201E+02 -0.31522358223E+02  0.48847951628E+02  0.00000000000E+00 0. -1.
<mgrwt>
<rscale>  2 0.37315725E+02</rscale>
<asrwt>0</asrwt>
<pdfrwt beam="1">  1       21 0.81766004E-02 0.37315725E+02</pdfrwt>
<pdfrwt beam="2">  1       21 0.73862464E-02 0.37315725E+02</pdfrwt>
<totfact> 0.13500987E+07</totfact>
</mgrwt>
</event>
<event>
 4    1  0.2812958E+004  0.2168832E+02  0.7546771E-02  0.1713699E+00
         21   -1    0    0  503  502  0.00000000000E+00  0.00000000000E+00  0.55444133913E+01  0.55444133913E+01  0.00000000000E+00 0. -1.
         21   -1    0    0  501  503 -0.00000000000E+00 -0.00000000000E+00 -0.22097643708E+03  0.22097643708E+03  0.00000000000E+00 0.  1.
          2    1    1    2  501    0 -0.96097564264E+01 -0.19443147849E+02 -0.19661436633E+03  0.19780695758E+03  0.00000000000E+00 0.  1.
         -2    1    1    2    0  502  0.96097564264E+01  0.19443147849E+02 -0.18817657356E+02  0.28713892895E+02  0.00000000000E+00 0. -1.
<mgrwt>
<rscale>  2 0.21688324E+02</rscale>
<asrwt>0</asrwt>
<pdfrwt beam="1">  1       21 0.85298676E-03 0.21688324E+02</pdfrwt>
<pdfrwt beam="2">  1       21 0.33996372E-01 0.21688324E+02</pdfrwt>
<totfact> 0.29802345E+07</totfact>
</mgrwt>
</event>
<event>
 4    1  0.2812958E+004  0.3627817E+02  0.7546771E-02  0.1537534E+00
         21   -1    0    0  501  502  0.00000000000E+00  0.00000000000E+00  0.46189004586E+02  0.46189004586E+02  0.00000000000E+00 0. -1.
         21   -1    0    0  502  503 -0.00000000000E+00 -0.00000000000E+00 -0.14747192920E+03  0.14747192920E+03  0.00000000000E+00 0.  1.
          2    1    1    2  501    0 -0.33103286657E+02  0.14841778064E+02  0.36332786731E+02  0.51343717778E+02  0.00000000000E+00 0. -1.
         -2    1    1    2    0  503  0.33103286657E+02 -0.14841778064E+02 -0.13761571135E+03  0.14231721601E+03  0.00000000000E+00 0.  1.
<mgrwt>
<rscale>  2 0.36278175E+02</rscale>
<asrwt>0</asrwt>
<pdfrwt beam="1">  1       21 0.71060008E-02 0.36278175E+02</pdfrwt>
<pdfrwt beam="2">  1       21 0.22687989E-01 0.36278175E+02</pdfrwt>
<totfact> 0.24672512E+06</totfact>
</mgrwt>
</event>
<event>
 4    1  0.2812958E+004  0.2742869E+02  0.7546771E-02  0.1628384E+00
         21   -1    0    0  503  502  0.00000000000E+00  0.00000000000E+00  0.47189214522E+03  0.47189214522E+03  0.00000000000E+00 0.  1.
         21   -1    0    0  501  503 -0.00000000000E+00 -0.00000000000E+00 -0.20429494614E+01  0.20429494614E+01  0.00000000000E+00 0. -1.
          2    1    1    2  501    0  0.40508298613E+01  0.27127919031E+02  0.12387469459E+03  0.12687502975E+03  0.00000000000E+00 0. -1.
         -2    1    1    2    0  502 -0.40508298613E+01 -0.27127919031E+02  0.34597450117E+03  0.34706006493E+03  0.00000000000E+00 0.  1.
<mgrwt>
<rscale>  2 0.27428693E+02</rscale>
<asrwt>0</asrwt>
<pdfrwt beam="1">  1       21 0.72598705E-01 0.27428693E+02</pdfrwt>
<pdfrwt beam="2">  1       21 0.31430029E-03 0.27428693E+02</pdfrwt>
<totfact> 0.31207286E+07</totfact>
</mgrwt>
</event>
<event>
 4    1  0.2812958E+004  0.2179359E+02  0.7546771E-02  0.1711846E+00
         21   -1    0    0  501  502  0.00000000000E+00  0.00000000000E+00  0.23876885795E+03  0.23876885795E+03  0.00000000000E+00 0. -1.
         21   -1    0    0  502  503 -0.00000000000E+00 -0.00000000000E+00 -0.21201131064E+01  0.21201131064E+01  0.00000000000E+00 0.  1.
          2    1    1    2  501    0  0.14173468485E+02 -0.16555165718E+02  0.14825302051E+03  0.14984631731E+03  0.00000000000E+00 0. -1.
         -2    1    1    2    0  503 -0.14173468485E+02  0.16555165718E+02  0.88395724339E+02  0.91042653753E+02  0.00000000000E+00 0.  1.
<mgrwt>
<rscale>  2 0.21793594E+02</rscale>
<asrwt>0</asrwt>
<pdfrwt beam="1">  1       21 0.36733649E-01 0.21793594E+02</pdfrwt>
<pdfrwt beam="2">  1       21 0.32617144E-03 0.21793594E+02</pdfrwt>
<totfact> 0.10667335E+08</totfact>
</mgrwt>
</event>
<event>
 4    1  0.2812958E+004  0.2207721E+02  0.7546771E-02  0.1706920E+00
         21   -1    0    0  501  502  0.00000000000E+00  0.00000000000E+00  0.93240303724E+02  0.93240303724E+02  0.00000000000E+00 0.  1.
         21   -1    0    0  502  503 -0.00000000000E+00 -0.00000000000E+00 -0.25455910230E+02  0.25455910230E+02  0.00000000000E+00 0. -1.
          2    1    1    2  501    0 -0.57126002615E+01  0.21325319250E+02  0.86796945623E+02  0.89560665542E+02  0.00000000000E+00 0.  1.
         -2    1    1    2    0  503  0.57126002615E+01 -0.21325319250E+02 -0.19012552128E+02  0.29135548412E+02  0.00000000000E+00 0. -1.
<mgrwt>
<rscale>  2 0.22077206E+02</rscale>
<asrwt>0</asrwt>
<pdfrwt beam="1">  1       21 0.14344662E-01 0.22077206E+02</pdfrwt>
<pdfrwt beam="2">  1       21 0.39162939E-02 0.22077206E+02</pdfrwt>
<totfact> 0.13301497E+07</totfact>
</mgrwt>
</event>
<event>
 4    1  0.2812958E+004  0.4063655E+02  0.7546771E-02  0.1503579E+00
         21   -1    0    0  503  502  0.00000000000E+00  0.00000000000E+00  0.30449225261E+01  0.30449225261E+01  0.00000000000E+00 0. -1.
         21   -1    0    0  501  503 -0.00000000000E+00 -0.00000000000E+00 -0.91580270195E+03  0.91580270195E+03  0.00000000000E+00 0.  1.
          2    1    1    2  501    0 -0.37133289683E+02  0.16505998036E+02 -0.74976968918E+03  0.75087010593E+03  0.00000000000E+00 0.  1.
         -2    1    1    2    0  502  0.37133289683E+02 -0.16505998036E+02 -0.16298809025E+03  0.16797751854E+03  0.00000000000E+00 0. -1.
<mgrwt>
<rscale>  2 0.40636550E+02</rscale>
<asrwt>0</asrwt>
<pdfrwt beam="1">  1       21 0.46844907E-03 0.40636550E+02</pdfrwt>
<pdfrwt beam="2">  1       21 0.14089289E+00 0.40636550E+02</pdfrwt>
<totfact> 0.41343798E+06</totfact>
</mgrwt>
</event>
<event>
 4    1  0.2812958E+004  0.2925582E+02  0.7546771E-02  0.1606463E+00
         21   -1    0    0  501  502  0.00000000000E+00  0.00000000000E+00  0.23380481793E+03  0.23380481793E+03  0.00000000000E+00 0. -1.
         21   -1    0    0  502  503 -0.00000000000E+00 -0.00000000000E+00 -0.41159463340E+01  0.41159463340E+01  0.00000000000E+00 0.  1.
          2    1    1    2  501    0 -0.18636375581E+02 -0.22551909987E+02  0.15440500089E+03  0.15715217924E+03  0.00000000000E+00 0. -1.
         -2    1    1    2    0  503  0.18636375581E+02  0.22551909987E+02  0.75283870703E+02  0.80768585025E+02  0.00000000000E+00 0.  1.
<mgrwt>
<rscale>  2 0.29255822E+02</rscale>
<asrwt>0</asrwt>
<pdfrwt beam="1">  1       21 0.35969962E-01 0.29255822E+02</pdfrwt>
<pdfrwt beam="2">  1       21 0.63322270E-03 0.29255822E+02</pdfrwt>
<totfact> 0.44718551E+07</totfact>
</mgrwt>
</event>
<event>
 4    1  0.2812958E+004  0.5376403E+02  0.7546771E-02  0.1426036E+00
         21   -1    0    0  503  502  0.00000000000E+00  0.00000000000E+00  0.10148447612E+04  0.10148447612E+04  0.00000000000E+00 0. -1.
         21   -1    0    0  501  503 -0.00000000000E+00 -0.00000000000E+00 -0.16201138154E+02  0.16201138154E+02  0.00000000000E+00 0.  1.
          2    1    1    2  501    0 -0.53501333692E+02  0.53083623406E+01  0.31304186542E+02  0.62213531587E+02  0.00000000000E+00 0.  1.
         -2    1    1    2    0  502  0.53501333692E+02 -0.53083623406E+01  0.96733943648E+03  0.96883236774E+03  0.00000000000E+00 0. -1.
<mgrwt>
<rscale>  2 0.53764035E+02</rscale>
<asrwt>0</asrwt>
<pdfrwt beam="1">  1       21 0.15612991E+00 0.53764035E+02</pdfrwt>
<pdfrwt beam="2">  1       21 0.24924836E-02 0.53764035E+02</pdfrwt>
<totfact> 0.24557007E+05</totfact>
</mgrwt>
</event>
<event>
 4    1  0.2812958E+004  0.2425168E+02  0.7546771E-02  0.1671989E+00
         21   -1    0    0  503  502  0.00000000000E+00  0.00000000000E+00  0.12334310968E+03  0.12334310968E+03  0.00000000000E+00 0.  1.
         21   -1    0    0  501  503 -0.00000000000E+00 -0.00000000000E+00 -0.48164696855E+01  0.48164696855E+01  0.00000000000E+00 0. -1.
          2    1    1    2  501    0  0.29261510099E+01  0.24074499558E+02  0.52858752341E+02  0.58156612588E+02  0.00000000000E+00 0. -1.
         -2    1    1    2    0  502 -0.29261510099E+01 -0.24074499558E+02  0.65667887654E+02  0.70002966778E+02  0.00000000000E+00 0.  1.
<mgrwt>
<rscale>  2 0.24251678E+02</rscale>
<asrwt>0</asrwt>
<pdfrwt beam="1">  1       21 0.18975861E-01 0.24251678E+02</pdfrwt>
<pdfrwt beam="2">  1       21 0.74099543E-03 0.24251678E+02</pdfrwt>
<totfact> 0.10725082E+08</totfact>
</mgrwt>
</event>
<event>
 4    1  0.2812958E+004  0.2168535E+02  0.7546771E-02  0.1713751E+00
         21   -1    0    0  501  502  0.00000000000E+00  0.00000000000E+00  0.85222926253E+01  0.85222926253E+01  0.00000000000E+00 0. -1.
         21   -1    0    0  502  503 -0.00000000000E+00 -0.00000000000E+00 -0.77556509172E+02  0.77556509172E+02  0.00000000000E+00 0.  1.
          2    1    1    2  501    0  0.10266697523E+02 -0.19101026911E+02 -0.11398597061E+02  0.24498618778E+02  0.00000000000E+00 0. -1.
         -2    1    1    2    0  503 -0.10266697523E+02  0.19101026911E+02 -0.57635619487E+02  0.61580183019E+02  0.00000000000E+00 0.  1.
<mgrwt>
<rscale>  2 0.21685348E+02</rscale>
<asrwt>0</asrwt>
<pdfrwt beam="1">  1       21 0.13111219E-02 0.21685348E+02</pdfrwt>
<pdfrwt beam="2">  1       21 0.11931771E-01 0.21685348E+02</pdfrwt>
<totfact> 0.97257641E+07</totfact>
</mgrwt>
</event>
<event>
 4    1  0.2812958E+004  0.2049293E+02  0.7546771E-02  0.1735700E+00
         21   -1    0    0  501  502  0.00000000000E+00  0.00000000000E+00  0.17517218456E+02  0.17517218456E+02  0.00000000000E+00 0.  1.
         21   -1    0    0  502  503 -0.00000000000E+00 -0.00000000000E+00 -0.46449921844E+02  0.46449921844E+02  0.00000000000E+00 0. -1.
          2    1    1    2  501    0 -0.13001005370E+02  0.15840891763E+02  0.77817003104E+01  0.21920648992E+02  0.00000000000E+00 0.  1.
         -2    1    1    2    0  503  0.13001005370E+02 -0.15840891763E+02 -0.36714403698E+02  0.42046491309E+02  0.00000000000E+00 0. -1.
<mgrwt>
<rscale>  2 0.20492925E+02</rscale>
<asrwt>0</asrwt>
<pdfrwt beam="1">  1       21 0.26949567E-02 0.20492925E+02</pdfrwt>
<pdfrwt beam="2">  1       21 0.71461418E-02 0.20492925E+02</pdfrwt>
<totfact> 0.73873309E+07</totfact>
</mgrwt>
</event>
<event>
 4    1  0.2812958E+004  0.3772212E+02  0.7546771E-02  0.1525676E+00
         21   -1    0    0  503  502  0.00000000000E+00  0.00000000000E+00  0.28462410886E+03  0.28462410886E+03  0.00000000000E+00 0.  1.
         21   -1    0    0  501  503 -0.00000000000E+00 -0.00000000000E+00 -0.13523261899E+02  0.13523261899E+02  0.00000000000E+00 0. -1.
          2    1    1    2  501    0  0.26629912737E+02 -0.26717147773E+02  0.17197850691E+02  0.41457499995E+02  0.00000000000E+00 0. -1.
         -2    1    1    2    0  502 -0.26629912737E+02  0.26717147773E+02  0.25390299627E+03  0.25668987076E+03  0.00000000000E+00 0.  1.
<mgrwt>
<rscale>  2 0.37722119E+02</rscale>
<asrwt>0</asrwt>
<pdfrwt beam="1">  1       21 0.43788320E-01 0.37722119E+02</pdfrwt>
<pdfrwt beam="2">  1       21 0.20805021E-02 0.37722119E+02</pdfrwt>
<totfact> 0.51942232E+06</totfact>
</mgrwt>
</event>
<event>
 4    1  0.2812958E+004  0.2024102E+02  0.7546771E-02  0.1740577E+00
         21   -1    0    0  503  502  0.00000000000E+00  0.00000000000E+00  0.25818693656E+00  0.25818693656E+00  0.00000000000E+00 0.  1.
         21   -1    0    0  501  503 -0.00000000000E+00 -0.00000000000E+00 -0.18138410114E+04  0.18138410114E+04  0.00000000000E+00 0. -1.
          2    1    1    2  501    0 -0.58856311928E+01 -0.19366419050E+02 -0.12276802785E+04  0.12278471261E+04  0.00000000000E+00 0. -1.
         -2    1    1    2    0  502  0.58856311928E+01  0.19366419050E+02 -0.58590254603E+03  0.58625207230E+03  0.00000000000E+00 0.  1.
<mgrwt>
<rscale>  2 0.20241019E+02</rscale>
<asrwt>0</asrwt>
<pdfrwt beam="1">  1       21 0.39721447E-04 0.20241019E+02</pdfrwt>
<pdfrwt beam="2">  1       21 0.27904980E+00 0.20241019E+02</pdfrwt>
<totfact> 0.22371207E+07</totfact>
</mgrwt>
</event>
<event>
 4    1  0.2812958E+004  0.2557465E+02  0.7546771E-02  0.1652883E+00
         21   -1    0    0  501  502  0.00000000000E+00  0.00000000000E+00  0.69413375898E+02  0.69413375898E+02  0.00000000000E+00 0.  1.
         21   -1    0    0  502  503 -0.00000000000E+00 -0.00000000000E+00 -0.16101979199E+02  0.16101979199E+02  0.00000000000E+00 0. -1.
          2    1    1    2  501    0  0.24837065330E+02  0.60977871058E+01  0.54194092911E+02  0.59925474785E+02  0.00000000000E+00 0.  1.
         -2    1    1    2    0  503 -0.24837065330E+02 -0.60977871058E+01 -0.88269621194E+00  0.25589880312E+02  0.00000000000E+00 0. -1.
<mgrwt>
<rscale>  2 0.25574652E+02</rscale>
<asrwt>0</asrwt>
<pdfrwt beam="1">  1       21 0.10678981E-01 0.25574652E+02</pdfrwt>
<pdfrwt beam="2">  1       21 0.24772276E-02 0.25574652E+02</pdfrwt>
<totfact> 0.46156379E+07</totfact>
</mgrwt>
</event>
<event>
 4    1  0.2812958E+004  0.3548828E+02  0.7546771E-02  0.1544307E+00
         21   -1    0    0  503  502  0.00000000000E+00  0.00000000000E+00  0.51000628463E+01  0.51000628463E+01  0.00000000000E+00 0.  1.
         21   -1    0    0  501  503 -0.00000000000E+00 -0.00000000000E+00 -0.25023773501E+03  0.25023773501E+03  0.00000000000E+00 0. -1.
          2    1    1    2  501    0  0.33530321252E+02  0.11624769478E+02 -0.10791636643E+03  0.11360175990E+03  0.00000000000E+00 0. -1.
         -2    1    1    2    0  502 -0.33530321252E+02 -0.11624769478E+02 -0.13722130573E+03  0.14173603796E+03  0.00000000000E+00 0.  1.
<mgrwt>
<rscale>  2 0.35488276E+02</rscale>
<asrwt>0</asrwt>
<pdfrwt beam="1">  1       21 0.78462517E-03 0.35488276E+02</pdfrwt>
<pdfrwt beam="2">  1       21 0.38498107E-01 0.35488276E+02</pdfrwt>
<totfact> 0.29543908E+07</totfact>
</mgrwt>
</event>
<event>
 4    1  0.2812958E+004  0.2677866E+02  0.7546771E-02  0.1636695E+00
         21   -1    0    0  503  502  0.00000000000E+00  0.00000000000E+00  0.17539635059E+01  0.17539635059E+01  0.00000000000E+00 0.  1.
         21   -1    0    0  501  503 -0.00000000000E+00 -0.00000000000E+00 -0.46680463061E+03  0.46680463061E+03  0.00000000000E+00 0. -1.
          2    1    1    2  501    0 -0.26657727614E+02  0.25420690292E+01 -0.31507870342E+03  0.31621462000E+03  0.00000000000E+00 0. -1.
         -2    1    1    2    0  502  0.26657727614E+02 -0.25420690292E+01 -0.14997196369E+03  0.15234397411E+03  0.00000000000E+00 0.  1.
<mgrwt>
<rscale>  2 0.26778659E+02</rscale>
<asrwt>0</asrwt>
<pdfrwt beam="1">  1       21 0.26984074E-03 0.26778659E+02</pdfrwt>
<pdfrwt beam="2">  1       21 0.71816043E-01 0.26778659E+02</pdfrwt>
<totfact> 0.39715107E+07</totfact>
</mgrwt>
</event>
<event>
 4    1  0.2812958E+004  0.2022037E+02  0.7546771E-02  0.1740981E+00
         21   -1    0    0  501  502  0.00000000000E+00  0.00000000000E+00  0.72271293473E+01  0.72271293473E+01  0.00000000000E+00 0.  1.
         21   -1    0    0  502  503 -0.00000000000E+00 -0.00000000000E+00 -0.69961311009E+02  0.69961311009E+02  0.00000000000E+00 0. -1.
          2    1    1    2  501    0  0.19859488159E+02 -0.38031797778E+01 -0.14484101953E+02  0.24872729158E+02  0.00000000000E+00 0. -1.
         -2    1    1    2    0  503 -0.19859488159E+02  0.38031797778E+01 -0.48250079708E+02  0.52315711199E+02  0.00000000000E+00 0.  1.
<mgrwt>
<rscale>  2 0.20220372E+02</rscale>
<asrwt>0</asrwt>
<pdfrwt beam="1">  1       21 0.11118661E-02 0.20220372E+02</pdfrwt>
<pdfrwt beam="2">  1       21 0.10763278E-01 0.20220372E+02</pdfrwt>
<totfact> 0.14488415E+08</totfact>
</mgrwt>
</event>
<event>
 4    1  0.2812958E+004  0.2054966E+02  0.7546771E-02  0.1734613E+00
         21   -1    0    0  501  502  0.00000000000E+00  0.00000000000E+00  0.14526224694E+02  0.14526224694E+02  0.00000000000E+00 0.  1.
         21   -1    0    0  502  503 -0.00000000000E+00 -0.00000000000E+00 -0.65831666993E+02  0.65831666993E+02  0.00000000000E+00 0. -1.
          2    1    1    2  501    0 -0.15572626830E+00  0.20549071127E+02  0.43716656614E+01  0.21009522496E+02  0.00000000000E+00 0.  1.
         -2    1    1    2    0  503  0.15572626830E+00 -0.20549071127E+02 -0.55677107960E+02  0.59348369191E+02  0.00000000000E+00 0. -1.
<mgrwt>
<rscale>  2 0.20549661E+02</rscale>
<asrwt>0</asrwt>
<pdfrwt beam="1">  1       21 0.22348038E-02 0.20549661E+02</pdfrwt>
<pdfrwt beam="2">  1       21 0.10127949E-01 0.20549661E+02</pdfrwt>
<totfact> 0.55854973E+07</totfact>
</mgrwt>
</event>
<event>
 4    1  0.2812958E+004  0.2409571E+02  0.7546771E-02  0.1674341E+00
         21   -1    0    0  501  502  0.00000000000E+00  0.00000000000E+00  0.28791955083E+01  0.28791955083E+01  0.00000000000E+00 0.  1.
         21   -1    0    0  502  503 -0.00000000000E+00 -0.00000000000E+00 -0.20870618464E+03  0.20870618464E+03  0.00000000000E+00 0. -1.
          2    1    1    2  501    0 -0.38484191310E+01  0.23786401738E+02 -0.12235943815E+03  0.12470940358E+03  0.00000000000E+00 0. -1.
         -2    1    1    2    0  503  0.38484191310E+01 -0.23786401738E+02 -0.83467550980E+02  0.86875976564E+02  0.00000000000E+00 0.  1.
<mgrwt>
<rscale>  2 0.24095710E+02</rscale>
<asrwt>0</asrwt>
<pdfrwt beam="1">  1       21 0.44295316E-03 0.24095710E+02</pdfrwt>
<pdfrwt beam="2">  1       21 0.32108643E-01 0.24095710E+02</pdfrwt>
<totfact> 0.89732160E+07</totfact>
</mgrwt>
</event>
<event>
 4    1  0.2812958E+004  0.2388520E+02  0.7546771E-02  0.1677550E+00
         21   -1    0    0  503  502  0.00000000000E+00  0.00000000000E+00  0.53660390068E+01  0.53660390068E+01  0.00000000000E+00 0. -1.
         21   -1    0    0  501  503 -0.00000000000E+00 -0.00000000000E+00 -0.12899704744E+03  0.12899704744E+03  0.00000000000E+00 0.  1.
          2    1    1    2  501    0  0.12948674561E+02 -0.20070741560E+02 -0.89985001025E+02  0.93101037852E+02  0.00000000000E+00 0. -1.
         -2    1    1    2    0  502 -0.12948674561E+02  0.20070741560E+02 -0.33646007406E+02  0.41262048593E+02  0.00000000000E+00 0.  1.
<mgrwt>
<rscale>  2 0.23885201E+02</rscale>
<asrwt>0</asrwt>
<pdfrwt beam="1">  1       21 0.82554451E-03 0.23885201E+02</pdfrwt>
<pdfrwt beam="2">  1       21 0.19845699E-01 0.23885201E+02</pdfrwt>
<totfact> 0.84051730E+07</totfact>
</mgrwt>
</event>
<event>
 4    1  0.2812958E+004  0.2206501E+02  0.7546771E-02  0.1707130E+00
         21   -1    0    0  503  502  0.00000000000E+00  0.00000000000E+00  0.25413775635E+02  0.25413775635E+02  0.00000000000E+00 0. -1.
         21   -1    0    0  501  503 -0.00000000000E+00 -0.00000000000E+00 -0.28675020061E+02  0.28675020061E+02  0.00000000000E+00 0.  1.
          2    1    1    2  501    0 -0.17192973721E+02  0.13829912960E+02 -0.17211322173E+02  0.27983824771E+02  0.00000000000E+00 0.  1.
         -2    1    1    2    0  502  0.17192973721E+02 -0.13829912960E+02  0.13950077748E+02  0.26104970925E+02  0.00000000000E+00 0. -1.
<mgrwt>
<rscale>  2 0.22065014E+02</rscale>
<asrwt>0</asrwt>
<pdfrwt beam="1">  1       21 0.39098116E-02 0.22065014E+02</pdfrwt>
<pdfrwt beam="2">  1       21 0.44115415E-02 0.22065014E+02</pdfrwt>
<totfact> 0.91265904E+07</totfact>
</mgrwt>
</event>
<event>
 4    1  0.2812958E+004  0.2004266E+02  0.7546771E-02  0.1744481E+00
         21   -1    0    0  501  502  0.00000000000E+00  0.00000000000E+00  0.10487823958E+01  0.10487823958E+01  0.00000000000E+00 0.  1.
         21   -1    0    0  502  503 -0.00000000000E+00 -0.00000000000E+00 -0.44105439099E+03  0.44105439099E+03  0.00000000000E+00 0. -1.
          2    1    1    2  501    0 -0.19552572248E+02  0.44051047413E+01 -0.13982056869E+03  0.14124977684E+03  0.00000000000E+00 0.  1.
         -2    1    1    2    0  503  0.19552572248E+02 -0.44051047413E+01 -0.30018503990E+03  0.30085339654E+03  0.00000000000E+00 0. -1.
<mgrwt>
<rscale>  2 0.20042655E+02</rscale>
<asrwt>0</asrwt>
<pdfrwt beam="1">  1       21 0.16135050E-03 0.20042655E+02</pdfrwt>
<pdfrwt beam="2">  1       21 0.67854790E-01 0.20042655E+02</pdfrwt>
<totfact> 0.87721565E+07</totfact>
</mgrwt>
</event>
<event>
 4    1  0.2812958E+004  0.2267289E+02  0.7546771E-02  0.1696868E+00
         21   -1    0    0  503  502  0.00000000000E+00  0.00000000000E+00  0.23035381246E+03  0.23035381246E+03  0.00000000000E+00 0.  1.
         21   -1    0    0  501  503 -0.00000000000E+00 -0.00000000000E+00 -0.38452866045E+01  0.38452866045E+01  0.00000000000E+00 0. -1.
          2    1    1    2  501    0 -0.92632390590E+00 -0.22653954223E+02  0.37396643793E+02  0.43732924495E+02  0.00000000000E+00 0. -1.
         -2    1    1    2    0  502  0.92632390590E+00  0.22653954223E+02  0.18911188207E+03  0.19046617457E+03  0.00000000000E+00 0.  1.
<mgrwt>
<rscale>  2 0.22672885E+02</rscale>
<asrwt>0</asrwt>
<pdfrwt beam="1">  1       21 0.35439037E-01 0.22672885E+02</pdfrwt>
<pdfrwt beam="2">  1       21 0.59158274E-03 0.22672885E+02</pdfrwt>
<totfact> 0.48046437E+07</totfact>
</mgrwt>
</event>
<event>
 4    1  0.2812958E+004  0.2229543E+02  0.7546771E-02  0.1703192E+00
         21   -1    0    0  501  502  0.00000000000E+00  0.00000000000E+00  0.25734677625E+03  0.25734677625E+03  0.00000000000E+00 0. -1.
         21   -1    0    0  502  503 -0.00000000000E+00 -0.00000000000E+00 -0.20351351539E+01  0.20351351539E+01  0.00000000000E+00 0.  1.
          2    1    1    2  501    0  0.91521782146E+00  0.22276635554E+02  0.15691061521E+03  0.15848667856E+03  0.00000000000E+00 0. -1.
         -2    1    1    2    0  503 -0.91521782146E+00 -0.22276635554E+02  0.98401025888E+02  0.10089523285E+03  0.00000000000E+00 0.  1.
<mgrwt>
<rscale>  2 0.22295428E+02</rscale>
<asrwt>0</asrwt>
<pdfrwt beam="1">  1       21 0.39591786E-01 0.22295428E+02</pdfrwt>
<pdfrwt beam="2">  1       21 0.31309792E-03 0.22295428E+02</pdfrwt>
<totfact> 0.99037303E+07</totfact>
</mgrwt>
</event>
<event>
 4    1  0.2812958E+004  0.2625077E+02  0.7546771E-02  0.1643660E+00
         21   -1    0    0  501  502  0.00000000000E+00  0.00000000000E+00  0.12919124029E+03  0.12919124029E+03  0.00000000000E+00 0. -1.
         21   -1    0    0  502  503 -0.00000000000E+00 -0.00000000000E+00 -0.12708040420E+02  0.12708040420E+02  0.00000000000E+00 0.  1.
          2    1    1    2  501    0 -0.22595925500E+02 -0.13361398736E+02  0.11228770515E+03  0.11531535697E+03  0.00000000000E+00 0. -1.
         -2    1    1    2    0  503  0.22595925500E+02  0.13361398736E+02  0.41954947183E+01  0.26583923739E+02  0.00000000000E+00 0.  1.
<mgrwt>
<rscale>  2 0.26250768E+02</rscale>
<asrwt>0</asrwt>
<pdfrwt beam="1">  1       21 0.19875575E-01 0.26250768E+02</pdfrwt>
<pdfrwt beam="2">  1       21 0.19550832E-02 0.26250768E+02</pdfrwt>
<totfact> 0.23161353E+07</totfact>
</mgrwt>
</event>
<event>
 4    1  0.2812958E+004  0.2724344E+02  0.7546771E-02  0.1630723E+00
         21   -1    0    0  501  502  0.00000000000E+00  0.00000000000E+00  0.95565381000E+01  0.95565381000E+01  0.00000000000E+00 0.  1.
         21   -1    0    0  502  503 -0.00000000000E+00 -0.00000000000E+00 -0.20212125719E+03  0.20212125719E+03  0.00000000000E+00 0. -1.
          2    1    1    2  501    0 -0.27050581993E+02 -0.32359221551E+01 -0.13230704261E+02  0.30286246278E+02  0.00000000000E+00 0.  1.
         -2    1    1    2    0  503  0.27050581993E+02  0.32359221551E+01 -0.17933401483E+03  0.18139154901E+03  0.00000000000E+00 0. -1.
<mgrwt>
<rscale>  2 0.27243443E+02</rscale>
<asrwt>0</asrwt>
<pdfrwt beam="1">  1       21 0.14702367E-02 0.27243443E+02</pdfrwt>
<pdfrwt beam="2">  1       21 0.31095576E-01 0.27243443E+02</pdfrwt>
<totfact> 0.16180541E+07</totfact>
</mgrwt>
</event>
<event>
 4    1  0.2812958E+004  0.2017820E+02  0.7546771E-02  0.1741807E+00
         21   -1    0    0  501  502  0.00000000000E+00  0.00000000000E+00  0.32486678761E+01  0.32486678761E+01  0.00000000000E+00 0.  1.
         21   -1    0    0  502  503 -0.00000000000E+00 -0.00000000000E+00 -0.12673487261E+03  0.12673487261E+03  0.00000000000E+00 0. -1.
          2    1    1    2  501    0  0.20169252507E+02 -0.60076582902E+00 -0.54903472571E+02  0.58494025050E+02  0.00000000000E+00 0.  1.
         -2    1    1    2    0  503 -0.20169252507E+02  0.60076582902E+00 -0.68582732162E+02  0.71489515434E+02  0.00000000000E+00 0. -1.
<mgrwt>
<rscale>  2 0.20178198E+02</rscale>
<asrwt>0</asrwt>
<pdfrwt beam="1">  1       21 0.49979518E-03 0.20178198E+02</pdfrwt>
<pdfrwt beam="2">  1       21 0.19497668E-01 0.20178198E+02</pdfrwt>
<totfact> 0.17372151E+08</totfact>
</mgrwt>
</event>
<event>
 4    1  0.2812958E+004  0.2095256E+02  0.7546771E-02  0.1727023E+00
         21   -1    0    0  503  502  0.00000000000E+00  0.00000000000E+00  0.14746250705E+02  0.14746250705E+02  0.00000000000E+00 0. -1.
         21   -1    0    0  501  503 -0.00000000000E+00 -0.00000000000E+00 -0.33807948419E+02  0.33807948419E+02  0.00000000000E+00 0.  1.
          2    1    1    2  501    0  0.70120131208E+01  0.19744403484E+02 -0.17919980874E+02  0.27570555153E+02  0.00000000000E+00 0. -1.
         -2    1    1    2    0  502 -0.70120131208E+01 -0.19744403484E+02 -0.11417168400E+01  0.20983643970E+02  0.00000000000E+00 0.  1.
<mgrwt>
<rscale>  2 0.20952561E+02</rscale>
<asrwt>0</asrwt>
<pdfrwt beam="1">  1       21 0.22686540E-02 0.20952561E+02</pdfrwt>
<pdfrwt beam="2">  1       21 0.52012228E-02 0.20952561E+02</pdfrwt>
<totfact> 0.16120028E+08</totfact>
</mgrwt>
</event>
<event>
 4    1  0.2812958E+004  0.2247088E+02  0.7546771E-02  0.1700233E+00
         21   -1    0    0  501  502  0.00000000000E+00  0.00000000000E+00  0.15396280820E+03  0.15396280820E+03  0.00000000000E+00 0. -1.
         21   -1    0    0  502  503 -0.00000000000E+00 -0.00000000000E+00 -0.49162298700E+01  0.49162298700E+01  0.00000000000E+00 0.  1.
          2    1    1    2  501    0 -0.15824242420E+02  0.15954118060E+02  0.12035775919E+03  0.12243745640E+03  0.00000000000E+00 0. -1.
         -2    1    1    2    0  503  0.15824242420E+02 -0.15954118060E+02  0.28688819136E+02  0.36441581671E+02  0.00000000000E+00 0.  1.
<mgrwt>
<rscale>  2 0.22470882E+02</rscale>
<asrwt>0</asrwt>
<pdfrwt beam="1">  1       21 0.23686582E-01 0.22470882E+02</pdfrwt>
<pdfrwt beam="2">  1       21 0.75634317E-03 0.22470882E+02</pdfrwt>
<totfact> 0.69045075E+07</totfact>
</mgrwt>
</event>
<event>
 4    1  0.2812958E+004  0.2338976E+02  0.7546771E-02  0.1685269E+00
         21   -1    0    0  503  502  0.00000000000E+00  0.00000000000E+00  0.13926711902E+02  0.13926711902E+02  0.00000000000E+00 0. -1.
         21   -1    0    0  501  503 -0.00000000000E+00 -0.00000000000E+00 -0.85601194850E+02  0.85601194850E+02  0.00000000000E+00 0.  1.
          2    1    1    2  501    0 -0.13617905776E+02  0.19016661048E+02 -0.72443179278E+02  0.76125521207E+02  0.00000000000E+00 0.  1.
         -2    1    1    2    0  502  0.13617905776E+02 -0.19016661048E+02  0.76869632965E+00  0.23402385545E+02  0.00000000000E+00 0. -1.
<mgrwt>
<rscale>  2 0.23389757E+02</rscale>
<asrwt>0</asrwt>
<pdfrwt beam="1">  1       21 0.21425711E-02 0.23389757E+02</pdfrwt>
<pdfrwt beam="2">  1       21 0.13169415E-01 0.23389757E+02</pdfrwt>
<totfact> 0.39775564E+07</totfact>
</mgrwt>
</event>
<event>
 4    1  0.2812958E+004  0.2866637E+02  0.7546771E-02  0.1613316E+00
         21   -1    0    0  501  502  0.00000000000E+00  0.00000000000E+00  0.25442475483E+02  0.25442475483E+02  0.00000000000E+00 0.  1.
         21   -1    0    0  502  503 -0.00000000000E+00 -0.00000000000E+00 -0.42490130903E+02  0.42490130903E+02  0.00000000000E+00 0. -1.
          2    1    1    2  501    0 -0.28580595093E+02  0.22159555357E+01  0.81110710255E+01  0.29791783229E+02  0.00000000000E+00 0.  1.
         -2    1    1    2    0  503  0.28580595093E+02 -0.22159555357E+01 -0.25158726445E+02  0.38140823157E+02  0.00000000000E+00 0. -1.
<mgrwt>
<rscale>  2 0.28666372E+02</rscale>
<asrwt>0</asrwt>
<pdfrwt beam="1">  1       21 0.39142270E-02 0.28666372E+02</pdfrwt>
<pdfrwt beam="2">  1       21 0.65369432E-02 0.28666372E+02</pdfrwt>
<totfact> 0.51899062E+07</totfact>
</mgrwt>
</event>
<event>
 4    1  0.2812958E+004  0.2353948E+02  0.7546771E-02  0.1682912E+00
         21   -1    0    0  501  502  0.00000000000E+00  0.00000000000E+00  0.42871279918E+02  0.42871279918E+02  0.00000000000E+00 0.  1.
         21   -1    0    0  502  503 -0.00000000000E+00 -0.00000000000E+00 -0.14385411533E+02  0.14385411533E+02  0.00000000000E+00 0. -1.
          2    1    1    2  501    0 -0.15746576240E+02 -0.17497217778E+02  0.23364861489E+02  0.33166610403E+02  0.00000000000E+00 0. -1.
         -2    1    1    2    0  503  0.15746576240E+02  0.17497217778E+02  0.51210068957E+01  0.24090081047E+02  0.00000000000E+00 0.  1.
<mgrwt>
<rscale>  2 0.23539484E+02</rscale>
<asrwt>0</asrwt>
<pdfrwt beam="1">  1       21 0.65955815E-02 0.23539484E+02</pdfrwt>
<pdfrwt beam="2">  1       21 0.22131403E-02 0.23539484E+02</pdfrwt>
<totfact> 0.11856729E+08</totfact>
</mgrwt>
</event>
<event>
 4    1  0.2812958E+004  0.2751210E+02  0.7546771E-02  0.1627338E+00
         21   -1    0    0  501  502  0.00000000000E+00  0.00000000000E+00  0.65136251177E+03  0.65136251177E+03  0.00000000000E+00 0.  1.
         21   -1    0    0  502  503 -0.00000000000E+00 -0.00000000000E+00 -0.15673938556E+01  0.15673938556E+01  0.00000000000E+00 0. -1.
          2    1    1    2  501    0 -0.24566654528E+02  0.12385280516E+02  0.49091716911E+03  0.49168748470E+03  0.00000000000E+00 0.  1.
         -2    1    1    2    0  503  0.24566654528E+02 -0.12385280516E+02  0.15887794880E+03  0.16124242092E+03  0.00000000000E+00 0. -1.
<mgrwt>
<rscale>  2 0.27512101E+02</rscale>
<asrwt>0</asrwt>
<pdfrwt beam="1">  1       21 0.10020940E+00 0.27512101E+02</pdfrwt>
<pdfrwt beam="2">  1       21 0.24113804E-03 0.27512101E+02</pdfrwt>
<totfact> 0.23087131E+07</totfact>
</mgrwt>
</event>
<event>
 4    1  0.2812958E+004  0.2496919E+02  0.7546771E-02  0.1661445E+00
         21   -1    0    0  503  502  0.00000000000E+00  0.00000000000E+00  0.13932872499E+01  0.13932872499E+01  0.00000000000E+00 0.  1.
         21   -1    0    0  501  503 -0.00000000000E+00 -0.00000000000E+00 -0.59021242758E+03  0.59021242758E+03  0.00000000000E+00 0. -1.
          2    1    1    2  501    0  0.32472222699E+01  0.24757144112E+02 -0.43987766492E+03  0.44058577001E+03  0.00000000000E+00 0. -1.
         -2    1    1    2    0  502 -0.32472222699E+01 -0.24757144112E+02 -0.14894147541E+03  0.15101994482E+03  0.00000000000E+00 0.  1.
<mgrwt>
<rscale>  2 0.24969194E+02</rscale>
<asrwt>0</asrwt>
<pdfrwt beam="1">  1       21 0.21435141E-03 0.24969194E+02</pdfrwt>
<pdfrwt beam="2">  1       21 0.90802115E-01 0.24969194E+02</pdfrwt>
<totfact> 0.33363463E+07</totfact>
</mgrwt>
</event>
<event>
 4    1  0.2812958E+004  0.2935431E+02  0.7546771E-02  0.1605338E+00
         21   -1    0    0  503  502  0.00000000000E+00  0.00000000000E+00  0.31030337180E+02  0.31030337180E+02  0.00000000000E+00 0.  1.
         21   -1    0    0  501  503 -0.00000000000E+00 -0.00000000000E+00 -0.49057273183E+02  0.49057273183E+02  0.00000000000E+00 0. -1.
          2    1    1    2  501    0  0.19965930071E+02  0.21518298231E+02 -0.35392314330E+02  0.45981424901E+02  0.00000000000E+00 0. -1.
         -2    1    1    2    0  502 -0.19965930071E+02 -0.21518298231E+02  0.17365378326E+02  0.34106185462E+02  0.00000000000E+00 0.  1.
<mgrwt>
<rscale>  2 0.29354310E+02</rscale>
<asrwt>0</asrwt>
<pdfrwt beam="1">  1       21 0.47738980E-02 0.29354310E+02</pdfrwt>
<pdfrwt beam="2">  1       21 0.75472728E-02 0.29354310E+02</pdfrwt>
<totfact> 0.30052794E+07</totfact>
</mgrwt>
</event>
<event>
 4    1  0.2812958E+004  0.2195352E+02  0.7546771E-02  0.1709057E+00
         21   -1    0    0  501  502  0.00000000000E+00  0.00000000000E+00  0.81086514252E+01  0.81086514252E+01  0.00000000000E+00 0. -1.
         21   -1    0    0  502  503 -0.00000000000E+00 -0.00000000000E+00 -0.18278319705E+03  0.18278319705E+03  0.00000000000E+00 0.  1.
          2    1    1    2  501    0 -0.16395984736E+01 -0.21892208721E+02 -0.89308849404E+01  0.23700586314E+02  0.00000000000E+00 0. -1.
         -2    1    1    2    0  503  0.16395984736E+01  0.21892208721E+02 -0.16574366068E+03  0.16719126216E+03  0.00000000000E+00 0.  1.
<mgrwt>
<rscale>  2 0.21953521E+02</rscale>
<asrwt>0</asrwt>
<pdfrwt beam="1">  1       21 0.12474848E-02 0.21953521E+02</pdfrwt>
<pdfrwt beam="2">  1       21 0.28120492E-01 0.21953521E+02</pdfrwt>
<totfact> 0.23867820E+07</totfact>
</mgrwt>
</event>
<event>
 4    1  0.2812958E+004  0.3897771E+02  0.7546771E-02  0.1515872E+00
         21   -1    0    0  501  502  0.00000000000E+00  0.00000000000E+00  0.75251988216E+01  0.75251988216E+01  0.00000000000E+00 0.  1.
         21   -1    0    0  502  503 -0.00000000000E+00 -0.00000000000E+00 -0.20254632619E+03  0.20254632619E+03  0.00000000000E+00 0. -1.
          2    1    1    2  501    0  0.36329870390E+00 -0.38976013209E+02 -0.10349013400E+03  0.11058693154E+03  0.00000000000E+00 0. -1.
         -2    1    1    2    0  503 -0.36329870390E+00  0.38976013209E+02 -0.91530993361E+02  0.99484593467E+02  0.00000000000E+00 0.  1.
<mgrwt>
<rscale>  2 0.38977706E+02</rscale>
<asrwt>0</asrwt>
<pdfrwt beam="1">  1       21 0.11577230E-02 0.38977706E+02</pdfrwt>
<pdfrwt beam="2">  1       21 0.31160970E-01 0.38977706E+02</pdfrwt>
<totfact> 0.24714107E+07</totfact>
</mgrwt>
</event>
<event>
 4    1  0.2812958E+004  0.2935395E+02  0.7546771E-02  0.1605342E+00
         21   -1    0    0  503  502  0.00000000000E+00  0.00000000000E+00  0.43369283018E+02  0.43369283018E+02  0.00000000000E+00 0.  1.
         21   -1    0    0  501  503 -0.00000000000E+00 -0.00000000000E+00 -0.32457760980E+02  0.32457760980E+02  0.00000000000E+00 0. -1.
          2    1    1    2  501    0 -0.33002943337E+00 -0.29352095151E+02 -0.18156967899E+02  0.34515647068E+02  0.00000000000E+00 0. -1.
         -2    1    1    2    0  502  0.33002943337E+00  0.29352095151E+02  0.29068489937E+02  0.41311396931E+02  0.00000000000E+00 0.  1.
<mgrwt>
<rscale>  2 0.29353950E+02</rscale>
<asrwt>0</asrwt>
<pdfrwt beam="1">  1       21 0.66721974E-02 0.29353950E+02</pdfrwt>
<pdfrwt beam="2">  1       21 0.49935017E-02 0.29353950E+02</pdfrwt>
<totfact> 0.34206801E+07</totfact>
</mgrwt>
</event>
<event>
 4    1  0.2812958E+004  0.2645749E+02  0.7546771E-02  0.1640909E+00
         21   -1    0    0  503  502  0.00000000000E+00  0.00000000000E+00  0.57926406467E+01  0.57926406467E+01  0.00000000000E+00 0. -1.
         21   -1    0    0  501  503 -0.00000000000E+00 -0.00000000000E+00 -0.13892999664E+03  0.13892999664E+03  0.00000000000E+00 0.  1.
          2    1    1    2  501    0  0.15633427174E+02  0.21344665691E+02 -0.92677924060E+02  0.96380477311E+02  0.00000000000E+00 0.  1.
         -2    1    1    2    0  502 -0.15633427174E+02 -0.21344665691E+02 -0.40459431930E+02  0.48342159972E+02  0.00000000000E+00 0. -1.
<mgrwt>
<rscale>  2 0.26457490E+02</rscale>
<asrwt>0</asrwt>
<pdfrwt beam="1">  1       21 0.89117545E-03 0.26457490E+02</pdfrwt>
<pdfrwt beam="2">  1       21 0.21373846E-01 0.26457490E+02</pdfrwt>
<totfact> 0.67483101E+07</totfact>
</mgrwt>
</event>
<event>
 4    1  0.2812958E+004  0.2217196E+02  0.7546771E-02  0.1705295E+00
         21   -1    0    0  503  502  0.00000000000E+00  0.00000000000E+00  0.99527804620E+01  0.99527804620E+01  0.00000000000E+00 0. -1.
         21   -1    0    0  501  503 -0.00000000000E+00 -0.00000000000E+00 -0.62160665657E+02  0.62160665657E+02  0.00000000000E+00 0.  1.
          2    1    1    2  501    0 -0.46829059797E+01 -0.21671788007E+02 -0.42445259419E+02  0.47887326622E+02  0.00000000000E+00 0.  1.
         -2    1    1    2    0  502  0.46829059797E+01  0.21671788007E+02 -0.97626257763E+01  0.24226119497E+02  0.00000000000E+00 0. -1.
<mgrwt>
<rscale>  2 0.22171964E+02</rscale>
<asrwt>0</asrwt>
<pdfrwt beam="1">  1       21 0.15311970E-02 0.22171964E+02</pdfrwt>
<pdfrwt beam="2">  1       21 0.95631795E-02 0.22171964E+02</pdfrwt>
<totfact> 0.11167892E+08</totfact>
</mgrwt>
</event>
<event>
 4    1  0.2812958E+004  0.2108068E+02  0.7546771E-02  0.1724654E+00
         21   -1    0    0  501  502  0.00000000000E+00  0.00000000000E+00  0.21533819834E+02  0.21533819834E+02  0.00000000000E+00 0. -1.
         21   -1    0    0  502  503 -0.00000000000E+00 -0.00000000000E+00 -0.46410705582E+02  0.46410705582E+02  0.00000000000E+00 0.  1.
          2    1    1    2  501    0 -0.17233944978E+02  0.12140278861E+02  0.12878025356E+02  0.24703011302E+02  0.00000000000E+00 0. -1.
         -2    1    1    2    0  503  0.17233944978E+02 -0.12140278861E+02 -0.37754911105E+02  0.43241514114E+02  0.00000000000E+00 0.  1.
<mgrwt>
<rscale>  2 0.21080684E+02</rscale>
<asrwt>0</asrwt>
<pdfrwt beam="1">  1       21 0.33128954E-02 0.21080684E+02</pdfrwt>
<pdfrwt beam="2">  1       21 0.71401084E-02 0.21080684E+02</pdfrwt>
<totfact> 0.54126496E+07</totfact>
</mgrwt>
</event>
<event>
 4    1  0.2812958E+004  0.2089356E+02  0.7546771E-02  0.1728121E+00
         21   -1    0    0  501  502  0.00000000000E+00  0.00000000000E+00  0.60461134058E+03  0.60461134058E+03  0.00000000000E+00 0.  1.
         21   -1    0    0  502  503 -0.00000000000E+00 -0.00000000000E+00 -0.85376004412E+00  0.85376004412E+00  0.00000000000E+00 0. -1.
          2    1    1    2  501    0 -0.16225909658E+02  0.13162856218E+02  0.42079789032E+03  0.42131627719E+03  0.00000000000E+00 0. -1.
         -2    1    1    2    0  503  0.16225909658E+02 -0.13162856218E+02  0.18295969021E+03  0.18414882343E+03  0.00000000000E+00 0.  1.
<mgrwt>
<rscale>  2 0.20893562E+02</rscale>
<asrwt>0</asrwt>
<pdfrwt beam="1">  1       21 0.93016787E-01 0.20893562E+02</pdfrwt>
<pdfrwt beam="2">  1       21 0.13134818E-03 0.20893562E+02</pdfrwt>
<totfact> 0.61625070E+07</totfact>
</mgrwt>
</event>
<event>
 4    1  0.2812958E+004  0.2234730E+02  0.7546771E-02  0.1702314E+00
         21   -1    0    0  501  502  0.00000000000E+00  0.00000000000E+00  0.51595290553E+02  0.51595290553E+02  0.00000000000E+00 0. -1.
         21   -1    0    0  502  503 -0.00000000000E+00 -0.00000000000E+00 -0.12459545516E+02  0.12459545516E+02  0.00000000000E+00 0.  1.
          2    1    1    2  501    0 -0.72039591816E+01 -0.21154304340E+02  0.34697195018E+02  0.41271018429E+02  0.00000000000E+00 0. -1.
         -2    1    1    2    0  503  0.72039591816E+01  0.21154304340E+02  0.44385500188E+01  0.22783817641E+02  0.00000000000E+00 0.  1.
<mgrwt>
<rscale>  2 0.22347296E+02</rscale>
<asrwt>0</asrwt>
<pdfrwt beam="1">  1       21 0.79377369E-02 0.22347296E+02</pdfrwt>
<pdfrwt beam="2">  1       21 0.19168532E-02 0.22347296E+02</pdfrwt>
<totfact> 0.10782780E+08</totfact>
</mgrwt>
</event>
<event>
 4    1  0.2812958E+004  0.2797764E+02  0.7546771E-02  0.1621583E+00
         21   -1    0    0  503  502  0.00000000000E+00  0.00000000000E+00  0.53875311002E+01  0.53875311002E+01  0.00000000000E+00 0.  1.
         21   -1    0    0  501  503 -0.00000000000E+00 -0.00000000000E+00 -0.15636281168E+03  0.15636281168E+03  0.00000000000E+00 0. -1.
          2    1    1    2  501    0  0.15932517926E+02 -0.22997896943E+02 -0.97010465694E+02  0.10096424538E+03  0.00000000000E+00 0. -1.
         -2    1    1    2    0  502 -0.15932517926E+02  0.22997896943E+02 -0.53964814881E+02  0.60786097394E+02  0.00000000000E+00 0.  1.
<mgrwt>
<rscale>  2 0.27977641E+02</rscale>
<asrwt>0</asrwt>
<pdfrwt beam="1">  1       21 0.82885094E-03 0.27977641E+02</pdfrwt>
<pdfrwt beam="2">  1       21 0.24055817E-01 0.27977641E+02</pdfrwt>
<totfact> 0.61797776E+07</totfact>
</mgrwt>
</event>
<event>
 4    1  0.2812958E+004  0.2213528E+02  0.7546771E-02  0.1705923E+00
         21   -1    0    0  503  502  0.00000000000E+00  0.00000000000E+00  0.29859568894E+01  0.29859568894E+01  0.00000000000E+00 0. -1.
         21   -1    0    0  501  503 -0.00000000000E+00 -0.00000000000E+00 -0.25707164217E+03  0.25707164217E+03  0.00000000000E+00 0.  1.
          2    1    1    2  501    0 -0.12910024654E+02 -0.17980595801E+02 -0.20524293102E+03  0.20643311580E+03  0.00000000000E+00 0.  1.
         -2    1    1    2    0  502  0.12910024654E+02  0.17980595801E+02 -0.48842754260E+02  0.53624483267E+02  0.00000000000E+00 0. -1.
<mgrwt>
<rscale>  2 0.22135279E+02</rscale>
<asrwt>0</asrwt>
<pdfrwt beam="1">  1       21 0.45937781E-03 0.22135279E+02</pdfrwt>
<pdfrwt beam="2">  1       21 0.39549498E-01 0.22135279E+02</pdfrwt>
<totfact> 0.56522925E+07</totfact>
</mgrwt>
</event>
<event>
 4    1  0.2812958E+004  0.2657308E+02  0.7546771E-02  0.1639384E+00
         21   -1    0    0  503  502  0.00000000000E+00  0.00000000000E+00  0.19616295201E+02  0.19616295201E+02  0.00000000000E+00 0. -1.
         21   -1    0    0  501  503 -0.00000000000E+00 -0.00000000000E+00 -0.60560536661E+02  0.60560536661E+02  0.00000000000E+00 0.  1.
          2    1    1    2  501    0  0.24728144862E+02  0.97286967967E+01 -0.46003194230E+02  0.53126477099E+02  0.00000000000E+00 0.  1.
         -2    1    1    2    0  502 -0.24728144862E+02 -0.97286967967E+01  0.50589527689E+01  0.27050354763E+02  0.00000000000E+00 0. -1.
<mgrwt>
<rscale>  2 0.26573082E+02</rscale>
<asrwt>0</asrwt>
<pdfrwt beam="1">  1       21 0.30178916E-02 0.26573082E+02</pdfrwt>
<pdfrwt beam="2">  1       21 0.93170055E-02 0.26573082E+02</pdfrwt>
<totfact> 0.42947076E+07</totfact>
</mgrwt>
</event>
<event>
 4    1  0.2812958E+004  0.2289041E+02  0.7546771E-02  0.1693293E+00
         21   -1    0    0  501  502  0.00000000000E+00  0.00000000000E+00  0.55184649419E+02  0.55184649419E+02  0.00000000000E+00 0.  1.
         21   -1    0    0  502  503 -0.00000000000E+00 -0.00000000000E+00 -0.11543811394E+02  0.11543811394E+02  0.00000000000E+00 0. -1.
          2    1    1    2  501    0 -0.19074892876E+02 -0.12653834025E+02  0.35876728286E+02  0.42557146124E+02  0.00000000000E+00 0.  1.
         -2    1    1    2    0  503  0.19074892876E+02  0.12653834025E+02  0.77641097391E+01  0.24171314689E+02  0.00000000000E+00 0. -1.
<mgrwt>
<rscale>  2 0.22890414E+02</rscale>
<asrwt>0</asrwt>
<pdfrwt beam="1">  1       21 0.84899459E-02 0.22890414E+02</pdfrwt>
<pdfrwt beam="2">  1       21 0.17759710E-02 0.22890414E+02</pdfrwt>
<totfact> 0.10933600E+08</totfact>
</mgrwt>
</event>
<event>
 4    1  0.2812958E+004  0.2871086E+02  0.7546771E-02  0.1612792E+00
         21   -1    0    0  503  502  0.00000000000E+00  0.00000000000E+00  0.11509232483E+03  0.11509232483E+03  0.00000000000E+00 0.  1.
         21   -1    0    0  501  503 -0.00000000000E+00 -0.00000000000E+00 -0.71894791135E+01  0.71894791135E+01  0.00000000000E+00 0. -1.
          2    1    1    2  501    0  0.28699728396E+02  0.79959258327E+00  0.50184973056E+02  0.57817344102E+02  0.00000000000E+00 0. -1.
         -2    1    1    2    0  502 -0.28699728396E+02 -0.79959258327E+00  0.57717872662E+02  0.64464459844E+02  0.00000000000E+00 0.  1.
<mgrwt>
<rscale>  2 0.28710865E+02</rscale>
<asrwt>0</asrwt>
<pdfrwt beam="1">  1       21 0.17706510E-01 0.28710865E+02</pdfrwt>
<pdfrwt beam="2">  1       21 0.11060738E-02 0.28710865E+02</pdfrwt>
<totfact> 0.69064601E+07</totfact>
</mgrwt>
</event>
<event>
 4    1  0.2812958E+004  0.2937685E+02  0.7546771E-02  0.1605081E+00
         21   -1    0    0  503  502  0.00000000000E+00  0.00000000000E+00  0.30624874202E+02  0.30624874202E+02  0.00000000000E+00 0. -1.
         21   -1    0    0  501  503 -0.00000000000E+00 -0.00000000000E+00 -0.29115470850E+02  0.29115470850E+02  0.00000000000E+00 0.  1.
          2    1    1    2  501    0 -0.21340813684E+02  0.20188335245E+02 -0.46003641413E+01  0.29734871093E+02  0.00000000000E+00 0.  1.
         -2    1    1    2    0  502  0.21340813684E+02 -0.20188335245E+02  0.61097674935E+01  0.30005473959E+02  0.00000000000E+00 0. -1.
<mgrwt>
<rscale>  2 0.29376848E+02</rscale>
<asrwt>0</asrwt>
<pdfrwt beam="1">  1       21 0.47115191E-02 0.29376848E+02</pdfrwt>
<pdfrwt beam="2">  1       21 0.44793032E-02 0.29376848E+02</pdfrwt>
<totfact> 0.71457764E+07</totfact>
</mgrwt>
</event>
<event>
 4    1  0.2812958E+004  0.2032663E+02  0.7546771E-02  0.1738909E+00
         21   -1    0    0  503  502  0.00000000000E+00  0.00000000000E+00  0.20726258802E+02  0.20726258802E+02  0.00000000000E+00 0.  1.
         21   -1    0    0  501  503 -0.00000000000E+00 -0.00000000000E+00 -0.22004490283E+02  0.22004490283E+02  0.00000000000E+00 0. -1.
          2    1    1    2  501    0  0.14977584727E+02  0.13742053759E+02 -0.71917561112E+01  0.21561387750E+02  0.00000000000E+00 0.  1.
         -2    1    1    2    0  502 -0.14977584727E+02 -0.13742053759E+02  0.59135246309E+01  0.21169361335E+02  0.00000000000E+00 0. -1.
<mgrwt>
<rscale>  2 0.20326635E+02</rscale>
<asrwt>0</asrwt>
<pdfrwt beam="1">  1       21 0.31886552E-02 0.20326635E+02</pdfrwt>
<pdfrwt beam="2">  1       21 0.33853062E-02 0.20326635E+02</pdfrwt>
<totfact> 0.18542893E+08</totfact>
</mgrwt>
</event>
<event>
 4    1  0.2812958E+004  0.2414730E+02  0.7546771E-02  0.1673560E+00
         21   -1    0    0  501  502  0.00000000000E+00  0.00000000000E+00  0.89617411531E+02  0.89617411531E+02  0.00000000000E+00 0.  1.
         21   -1    0    0  502  503 -0.00000000000E+00 -0.00000000000E+00 -0.67710937514E+01  0.67710937514E+01  0.00000000000E+00 0. -1.
          2    1    1    2  501    0 -0.64198054257E+01  0.23278277742E+02  0.50950864617E+02  0.56383355005E+02  0.00000000000E+00 0. -1.
         -2    1    1    2    0  503  0.64198054257E+01 -0.23278277742E+02  0.31895453162E+02  0.40005150278E+02  0.00000000000E+00 0.  1.
<mgrwt>
<rscale>  2 0.24147300E+02</rscale>
<asrwt>0</asrwt>
<pdfrwt beam="1">  1       21 0.13787293E-01 0.24147300E+02</pdfrwt>
<pdfrwt beam="2">  1       21 0.10417068E-02 0.24147300E+02</pdfrwt>
<totfact> 0.11124413E+08</totfact>
</mgrwt>
</event>
<event>
 4    1  0.2812958E+004  0.2978710E+02  0.7546771E-02  0.1600454E+00
         21   -1    0    0  503  502  0.00000000000E+00  0.00000000000E+00  0.11071078867E+02  0.11071078867E+02  0.00000000000E+00 0.  1.
         21   -1    0    0  501  503 -0.00000000000E+00 -0.00000000000E+00 -0.15883394303E+03  0.15883394303E+03  0.00000000000E+00 0. -1.
          2    1    1    2  501    0  0.54369878613E+01  0.29286698355E+02 -0.13367664570E+03  0.13695516472E+03  0.00000000000E+00 0. -1.
         -2    1    1    2    0  502 -0.54369878613E+01 -0.29286698355E+02 -0.14086218466E+02  0.32949857181E+02  0.00000000000E+00 0.  1.
<mgrwt>
<rscale>  2 0.29787104E+02</rscale>
<asrwt>0</asrwt>
<pdfrwt beam="1">  1       21 0.17032428E-02 0.29787104E+02</pdfrwt>
<pdfrwt beam="2">  1       21 0.24435992E-01 0.29787104E+02</pdfrwt>
<totfact> 0.20347008E+07</totfact>
</mgrwt>
</event>
<event>
 4    1  0.2812958E+004  0.2341417E+02  0.7546771E-02  0.1684883E+00
         21   -1    0    0  503  502  0.00000000000E+00  0.00000000000E+00  0.38036292683E+02  0.38036292683E+02  0.00000000000E+00 0. -1.
         21   -1    0    0  501  503 -0.00000000000E+00 -0.00000000000E+00 -0.33124374257E+02  0.33124374257E+02  0.00000000000E+00 0.  1.
          2    1    1    2  501    0  0.54438067599E+01  0.22772532403E+02 -0.24285624911E+02  0.33734475562E+02  0.00000000000E+00 0.  1.
         -2    1    1    2    0  502 -0.54438067599E+01 -0.22772532403E+02  0.29197543337E+02  0.37426191377E+02  0.00000000000E+00 0. -1.
<mgrwt>
<rscale>  2 0.23414168E+02</rscale>
<asrwt>0</asrwt>
<pdfrwt beam="1">  1       21 0.58517373E-02 0.23414168E+02</pdfrwt>
<pdfrwt beam="2">  1       21 0.50960576E-02 0.23414168E+02</pdfrwt>
<totfact> 0.38876610E+07</totfact>
</mgrwt>
</event>
<event>
 4    1  0.2812958E+004  0.2248234E+02  0.7546771E-02  0.1700041E+00
         21   -1    0    0  503  502  0.00000000000E+00  0.00000000000E+00  0.43045991386E+02  0.43045991386E+02  0.00000000000E+00 0.  1.
         21   -1    0    0  501  503 -0.00000000000E+00 -0.00000000000E+00 -0.82342935426E+02  0.82342935426E+02  0.00000000000E+00 0. -1.
          2    1    1    2  501    0  0.22468998983E+02 -0.77435137369E+00 -0.77700923703E+02  0.80888126939E+02  0.00000000000E+00 0. -1.
         -2    1    1    2    0  502 -0.22468998983E+02  0.77435137369E+00  0.38403979663E+02  0.44500799873E+02  0.00000000000E+00 0.  1.
<mgrwt>
<rscale>  2 0.22482338E+02</rscale>
<asrwt>0</asrwt>
<pdfrwt beam="1">  1       21 0.66224602E-02 0.22482338E+02</pdfrwt>
<pdfrwt beam="2">  1       21 0.12668144E-01 0.22482338E+02</pdfrwt>
<totfact> 0.71341200E+06</totfact>
</mgrwt>
</event>
<event>
 4    1  0.2812958E+004  0.3033650E+02  0.7546771E-02  0.1594399E+00
         21   -1    0    0  503  502  0.00000000000E+00  0.00000000000E+00  0.43868281675E+02  0.43868281675E+02  0.00000000000E+00 0. -1.
         21   -1    0    0  501  503 -0.00000000000E+00 -0.00000000000E+00 -0.47154209393E+02  0.47154209393E+02  0.00000000000E+00 0.  1.
          2    1    1    2  501    0  0.29872906610E+02 -0.52832478701E+01 -0.35551211936E+02  0.46735339172E+02  0.00000000000E+00 0.  1.
         -2    1    1    2    0  502 -0.29872906610E+02  0.52832478701E+01  0.32265284218E+02  0.44287151896E+02  0.00000000000E+00 0. -1.
<mgrwt>
<rscale>  2 0.30336500E+02</rscale>
<asrwt>0</asrwt>
<pdfrwt beam="1">  1       21 0.67489665E-02 0.30336500E+02</pdfrwt>
<pdfrwt beam="2">  1       21 0.72544937E-02 0.30336500E+02</pdfrwt>
<totfact> 0.18428993E+07</totfact>
</mgrwt>
</event>
<event>
 4    1  0.2812958E+004  0.2335187E+02  0.7546771E-02  0.1685869E+00
         21   -1    0    0  503  502  0.00000000000E+00  0.00000000000E+00  0.12351521887E+03  0.12351521887E+03  0.00000000000E+00 0. -1.
         21   -1    0    0  501  503 -0.00000000000E+00 -0.00000000000E+00 -0.50362079959E+01  0.50362079959E+01  0.00000000000E+00 0.  1.
          2    1    1    2  501    0  0.14013316582E+02 -0.18679847734E+02  0.36663779739E+02  0.43468868144E+02  0.00000000000E+00 0. -1.
         -2    1    1    2    0  502 -0.14013316582E+02  0.18679847734E+02  0.81815231137E+02  0.85082558724E+02  0.00000000000E+00 0.  1.
<mgrwt>
<rscale>  2 0.23351868E+02</rscale>
<asrwt>0</asrwt>
<pdfrwt beam="1">  1       21 0.19002339E-01 0.23351868E+02</pdfrwt>
<pdfrwt beam="2">  1       21 0.77480133E-03 0.23351868E+02</pdfrwt>
<totfact> 0.99060810E+07</totfact>
</mgrwt>
</event>
<event>
 4    1  0.2812958E+004  0.2772056E+02  0.7546771E-02  0.1624744E+00
         21   -1    0    0  501  502  0.00000000000E+00  0.00000000000E+00  0.29603270174E+04  0.29603270174E+04  0.00000000000E+00 0. -1.
         21   -1    0    0  502  503 -0.00000000000E+00 -0.00000000000E+00 -0.29239417542E+00  0.29239417542E+00  0.00000000000E+00 0.  1.
          2    1    1    2  501    0  0.26328559551E+02  0.86738918546E+01  0.19759541094E+04  0.19761485450E+04  0.00000000000E+00 0. -1.
         -2    1    1    2    0  503 -0.26328559551E+02 -0.86738918546E+01  0.98408051380E+03  0.98447086655E+03  0.00000000000E+00 0.  1.
<mgrwt>
<rscale>  2 0.27720560E+02</rscale>
<asrwt>0</asrwt>
<pdfrwt beam="1">  1       21 0.45541092E+00 0.27720560E+02</pdfrwt>
<pdfrwt beam="2">  1       21 0.44986090E-04 0.27720560E+02</pdfrwt>
<totfact> 0.22058446E+06</totfact>
</mgrwt>
</event>
<event>
 4    1  0.2812958E+004  0.2775999E+02  0.7546771E-02  0.1624256E+00
         21   -1    0    0  501  502  0.00000000000E+00  0.00000000000E+00  0.19410884148E+03  0.19410884148E+03  0.00000000000E+00 0. -1.
         21   -1    0    0  502  503 -0.00000000000E+00 -0.00000000000E+00 -0.41582716074E+01  0.41582716074E+01  0.00000000000E+00 0.  1.
          2    1    1    2  501    0 -0.15718974516E+02 -0.22880800101E+02  0.11606771094E+03  0.11934123636E+03  0.00000000000E+00 0.  1.
         -2    1    1    2    0  503  0.15718974516E+02  0.22880800101E+02  0.73882858930E+02  0.78925876725E+02  0.00000000000E+00 0. -1.
<mgrwt>
<rscale>  2 0.27759992E+02</rscale>
<asrwt>0</asrwt>
<pdfrwt beam="1">  1       21 0.29862892E-01 0.27759992E+02</pdfrwt>
<pdfrwt beam="2">  1       21 0.63973425E-03 0.27759992E+02</pdfrwt>
<totfact> 0.61474476E+07</totfact>
</mgrwt>
</event>
<event>
 4    1  0.2812958E+004  0.2049343E+02  0.7546771E-02  0.1735690E+00
         21   -1    0    0  503  502  0.00000000000E+00  0.00000000000E+00  0.17034659592E+01  0.17034659592E+01  0.00000000000E+00 0.  1.
         21   -1    0    0  501  503 -0.00000000000E+00 -0.00000000000E+00 -0.90337521108E+03  0.90337521108E+03  0.00000000000E+00 0. -1.
          2    1    1    2  501    0  0.48177787334E+01 -0.19919074237E+02 -0.83671288820E+03  0.83696382108E+03  0.00000000000E+00 0. -1.
         -2    1    1    2    0  502 -0.48177787334E+01  0.19919074237E+02 -0.64958856918E+02  0.68114855960E+02  0.00000000000E+00 0.  1.
<mgrwt>
<rscale>  2 0.20493426E+02</rscale>
<asrwt>0</asrwt>
<pdfrwt beam="1">  1       21 0.26207180E-03 0.20493426E+02</pdfrwt>
<pdfrwt beam="2">  1       21 0.13898074E+00 0.20493426E+02</pdfrwt>
<totfact> 0.92939843E+06</totfact>
</mgrwt>
</event>
<event>
 4    1  0.2812958E+004  0.3758895E+02  0.7546771E-02  0.1526743E+00
         21   -1    0    0  501  502  0.00000000000E+00  0.00000000000E+00  0.65098292044E+03  0.65098292044E+03  0.00000000000E+00 0.  1.
         21   -1    0    0  502  503 -0.00000000000E+00 -0.00000000000E+00 -0.21871184772E+01  0.21871184772E+01  0.00000000000E+00 0. -1.
          2    1    1    2  501    0  0.11944642250E+02  0.35640629733E+02  0.35290455802E+03  0.35490076928E+03  0.00000000000E+00 0. -1.
         -2    1    1    2    0  503 -0.11944642250E+02 -0.35640629733E+02  0.29589124395E+03  0.29826926964E+03  0.00000000000E+00 0.  1.
<mgrwt>
<rscale>  2 0.37588947E+02</rscale>
<asrwt>0</asrwt>
<pdfrwt beam="1">  1       21 0.10015106E+00 0.37588947E+02</pdfrwt>
<pdfrwt beam="2">  1       21 0.33648029E-03 0.37588947E+02</pdfrwt>
<totfact> 0.14836166E+07</totfact>
</mgrwt>
</event>
<event>
 4    1  0.2812958E+004  0.3088880E+02  0.7546771E-02  0.1588467E+00
         21   -1    0    0  501  502  0.00000000000E+00  0.00000000000E+00  0.64392523467E+02  0.64392523467E+02  0.00000000000E+00 0.  1.
         21   -1    0    0  502  503 -0.00000000000E+00 -0.00000000000E+00 -0.14917481447E+02  0.14917481447E+02  0.00000000000E+00 0. -1.
          2    1    1    2  501    0  0.17147683834E+02  0.25691920756E+02  0.27988606807E+02  0.41683089664E+02  0.00000000000E+00 0.  1.
         -2    1    1    2    0  503 -0.17147683834E+02 -0.25691920756E+02  0.21486435213E+02  0.37626915249E+02  0.00000000000E+00 0. -1.
<mgrwt>
<rscale>  2 0.30888798E+02</rscale>
<asrwt>0</asrwt>
<pdfrwt beam="1">  1       21 0.99065419E-02 0.30888798E+02</pdfrwt>
<pdfrwt beam="2">  1       21 0.22949972E-02 0.30888798E+02</pdfrwt>
<totfact> 0.61557303E+07</totfact>
</mgrwt>
</event>
<event>
 4    1  0.2812958E+004  0.2635746E+02  0.7546771E-02  0.1642236E+00
         21   -1    0    0  501  502  0.00000000000E+00  0.00000000000E+00  0.19035714702E+02  0.19035714702E+02  0.00000000000E+00 0. -1.
         21   -1    0    0  502  503 -0.00000000000E+00 -0.00000000000E+00 -0.53651906200E+02  0.53651906200E+02  0.00000000000E+00 0.  1.
          2    1    1    2  501    0  0.13634993130E+02 -0.22556658634E+02  0.32438240554E+01  0.26556322805E+02  0.00000000000E+00 0. -1.
         -2    1    1    2    0  503 -0.13634993130E+02  0.22556658634E+02 -0.37860015554E+02  0.46131298097E+02  0.00000000000E+00 0.  1.
<mgrwt>
<rscale>  2 0.26357464E+02</rscale>
<asrwt>0</asrwt>
<pdfrwt beam="1">  1       21 0.29285715E-02 0.26357464E+02</pdfrwt>
<pdfrwt beam="2">  1       21 0.82541394E-02 0.26357464E+02</pdfrwt>
<totfact> 0.54867484E+07</totfact>
</mgrwt>
</event>
<event>
 4    1  0.2812958E+004  0.3005146E+02  0.7546771E-02  0.1597521E+00
         21   -1    0    0  501  502  0.00000000000E+00  0.00000000000E+00  0.36094178111E+02  0.36094178111E+02  0.00000000000E+00 0.  1.
         21   -1    0    0  502  503 -0.00000000000E+00 -0.00000000000E+00 -0.16302775595E+03  0.16302775595E+03  0.00000000000E+00 0. -1.
          2    1    1    2  501    0  0.29985937355E+02 -0.19833806490E+01  0.28136163615E+02  0.41167146377E+02  0.00000000000E+00 0.  1.
         -2    1    1    2    0  503 -0.29985937355E+02  0.19833806490E+01 -0.15506974145E+03  0.15795478768E+03  0.00000000000E+00 0. -1.
<mgrwt>
<rscale>  2 0.30051460E+02</rscale>
<asrwt>0</asrwt>
<pdfrwt beam="1">  1       21 0.55529505E-02 0.30051460E+02</pdfrwt>
<pdfrwt beam="2">  1       21 0.25081193E-01 0.30051460E+02</pdfrwt>
<totfact> 0.30206400E+06</totfact>
</mgrwt>
</event>
<event>
 4    1  0.2812958E+004  0.2039253E+02  0.7546771E-02  0.1737633E+00
         21   -1    0    0  503  502  0.00000000000E+00  0.00000000000E+00  0.44667944966E+01  0.44667944966E+01  0.00000000000E+00 0. -1.
         21   -1    0    0  501  503 -0.00000000000E+00 -0.00000000000E+00 -0.21159848571E+03  0.21159848571E+03  0.00000000000E+00 0.  1.
          2    1    1    2  501    0 -0.20353927035E+02 -0.12541406997E+01 -0.18441146406E+03  0.18553555802E+03  0.00000000000E+00 0.  1.
         -2    1    1    2    0  502  0.20353927035E+02  0.12541406997E+01 -0.22720227155E+02  0.30529722183E+02  0.00000000000E+00 0. -1.
<mgrwt>
<rscale>  2 0.20392528E+02</rscale>
<asrwt>0</asrwt>
<pdfrwt beam="1">  1       21 0.68719903E-03 0.20392528E+02</pdfrwt>
<pdfrwt beam="2">  1       21 0.32553619E-01 0.20392528E+02</pdfrwt>
<totfact> 0.43843078E+07</totfact>
</mgrwt>
</event>
<event>
 4    1  0.2812958E+004  0.4847787E+02  0.7546771E-02  0.1453729E+00
         21   -1    0    0  501  502  0.00000000000E+00  0.00000000000E+00  0.18698042647E+03  0.18698042647E+03  0.00000000000E+00 0.  1.
         21   -1    0    0  502  503 -0.00000000000E+00 -0.00000000000E+00 -0.12615157551E+02  0.12615157551E+02  0.00000000000E+00 0. -1.
          2    1    1    2  501    0  0.84782073916E+01  0.47730741426E+02  0.93237896712E+02  0.10508762563E+03  0.00000000000E+00 0. -1.
         -2    1    1    2    0  503 -0.84782073916E+01 -0.47730741426E+02  0.81127372204E+02  0.94507958386E+02  0.00000000000E+00 0.  1.
<mgrwt>
<rscale>  2 0.48477868E+02</rscale>
<asrwt>0</asrwt>
<pdfrwt beam="1">  1       21 0.28766217E-01 0.48477868E+02</pdfrwt>
<pdfrwt beam="2">  1       21 0.19407936E-02 0.48477868E+02</pdfrwt>
<totfact> 0.13271349E+07</totfact>
</mgrwt>
</event>
<event>
 4    1  0.2812958E+004  0.2565809E+02  0.7546771E-02  0.1651725E+00
         21   -1    0    0  503  502  0.00000000000E+00  0.00000000000E+00  0.11703307514E+03  0.11703307514E+03  0.00000000000E+00 0. -1.
         21   -1    0    0  501  503 -0.00000000000E+00 -0.00000000000E+00 -0.58857060672E+01  0.58857060672E+01  0.00000000000E+00 0.  1.
          2    1    1    2  501    0  0.25178308429E+02  0.49386842628E+01  0.68502952303E+02  0.73150477044E+02  0.00000000000E+00 0.  1.
         -2    1    1    2    0  502 -0.25178308429E+02 -0.49386842628E+01  0.42644416766E+02  0.49768304159E+02  0.00000000000E+00 0. -1.
<mgrwt>
<rscale>  2 0.25658095E+02</rscale>
<asrwt>0</asrwt>
<pdfrwt beam="1">  1       21 0.18005087E-01 0.25658095E+02</pdfrwt>
<pdfrwt beam="2">  1       21 0.90549333E-03 0.25658095E+02</pdfrwt>
<totfact> 0.88297426E+07</totfact>
</mgrwt>
</event>
<event>
 4    1  0.2812958E+004  0.2735126E+02  0.7546771E-02  0.1629359E+00
         21   -1    0    0  501  502  0.00000000000E+00  0.00000000000E+00  0.19603286959E+01  0.19603286959E+01  0.00000000000E+00 0. -1.
         21   -1    0    0  502  503 -0.00000000000E+00 -0.00000000000E+00 -0.39150627425E+03  0.39150627425E+03  0.00000000000E+00 0.  1.
          2    1    1    2  501    0  0.27333251196E+02  0.99246308457E+00 -0.16350310600E+03  0.16577502006E+03  0.00000000000E+00 0.  1.
         -2    1    1    2    0  503 -0.27333251196E+02 -0.99246308457E+00 -0.22604283956E+03  0.22769158289E+03  0.00000000000E+00 0. -1.
<mgrwt>
<rscale>  2 0.27351263E+02</rscale>
<asrwt>0</asrwt>
<pdfrwt beam="1">  1       21 0.30158885E-03 0.27351263E+02</pdfrwt>
<pdfrwt beam="2">  1       21 0.60231770E-01 0.27351263E+02</pdfrwt>
<totfact> 0.48559662E+07</totfact>
</mgrwt>
</event>
<event>
 4    1  0.2812958E+004  0.2451108E+02  0.7546771E-02  0.1668125E+00
         21   -1    0    0  501  502  0.00000000000E+00  0.00000000000E+00  0.54419948693E+02  0.54419948693E+02  0.00000000000E+00 0. -1.
         21   -1    0    0  502  503 -0.00000000000E+00 -0.00000000000E+00 -0.90340690074E+02  0.90340690074E+02  0.00000000000E+00 0.  1.
          2    1    1    2  501    0  0.80395726454E+01 -0.23155097622E+02  0.49853326942E+02  0.55553105056E+02  0.00000000000E+00 0. -1.
         -2    1    1    2    0  503 -0.80395726454E+01  0.23155097622E+02 -0.85774068322E+02  0.89207533711E+02  0.00000000000E+00 0.  1.
<mgrwt>
<rscale>  2 0.24511085E+02</rscale>
<asrwt>0</asrwt>
<pdfrwt beam="1">  1       21 0.83722998E-02 0.24511085E+02</pdfrwt>
<pdfrwt beam="2">  1       21 0.13898568E-01 0.24511085E+02</pdfrwt>
<totfact> 0.42278118E+06</totfact>
</mgrwt>
</event>
<event>
 4    1  0.2812958E+004  0.2930752E+02  0.7546771E-02  0.1605872E+00
         21   -1    0    0  503  502  0.00000000000E+00  0.00000000000E+00  0.78185863272E+01  0.78185863272E+01  0.00000000000E+00 0. -1.
         21   -1    0    0  501  503 -0.00000000000E+00 -0.00000000000E+00 -0.13119954569E+03  0.13119954569E+03  0.00000000000E+00 0.  1.
          2    1    1    2  501    0  0.88010741061E+01  0.27954820208E+02 -0.89724967054E+02  0.94390150923E+02  0.00000000000E+00 0.  1.
         -2    1    1    2    0  502 -0.88010741061E+01 -0.27954820208E+02 -0.33655992307E+02  0.44627981093E+02  0.00000000000E+00 0. -1.
<mgrwt>
<rscale>  2 0.29307523E+02</rscale>
<asrwt>0</asrwt>
<pdfrwt beam="1">  1       21 0.12028595E-02 0.29307523E+02</pdfrwt>
<pdfrwt beam="2">  1       21 0.20184544E-01 0.29307523E+02</pdfrwt>
<totfact> 0.48554436E+07</totfact>
</mgrwt>
</event>
<event>
 4    1  0.2812958E+004  0.2509567E+02  0.7546771E-02  0.1659631E+00
         21   -1    0    0  501  502  0.00000000000E+00  0.00000000000E+00  0.22547170426E+02  0.22547170426E+02  0.00000000000E+00 0.  1.
         21   -1    0    0  502  503 -0.00000000000E+00 -0.00000000000E+00 -0.34735557073E+03  0.34735557073E+03  0.00000000000E+00 0. -1.
          2    1    1    2  501    0 -0.72167126614E+01  0.24035639092E+02  0.14955007307E+02  0.29213783249E+02  0.00000000000E+00 0.  1.
         -2    1    1    2    0  503  0.72167126614E+01 -0.24035639092E+02 -0.33976340761E+03  0.34068895790E+03  0.00000000000E+00 0. -1.
<mgrwt>
<rscale>  2 0.25095675E+02</rscale>
<asrwt>0</asrwt>
<pdfrwt beam="1">  1       21 0.34687956E-02 0.25095675E+02</pdfrwt>
<pdfrwt beam="2">  1       21 0.53439317E-01 0.25095675E+02</pdfrwt>
<totfact> 0.15119320E+06</totfact>
</mgrwt>
</event>
<event>
 4    1  0.2812958E+004  0.2781333E+02  0.7546771E-02  0.1623598E+00
         21   -1    0    0  501  502  0.00000000000E+00  0.00000000000E+00  0.35786217425E+01  0.35786217425E+01  0.00000000000E+00 0.  1.
         21   -1    0    0  502  503 -0.00000000000E+00 -0.00000000000E+00 -0.61875344119E+03  0.61875344119E+03  0.00000000000E+00 0. -1.
          2    1    1    2  501    0 -0.11634826159E+02  0.25262857356E+02 -0.56593746988E+02  0.63058967163E+02  0.00000000000E+00 0.  1.
         -2    1    1    2    0  503  0.11634826159E+02 -0.25262857356E+02 -0.55858107246E+03  0.55927309577E+03  0.00000000000E+00 0. -1.
<mgrwt>
<rscale>  2 0.27813327E+02</rscale>
<asrwt>0</asrwt>
<pdfrwt beam="1">  1       21 0.55055672E-03 0.27813327E+02</pdfrwt>
<pdfrwt beam="2">  1       21 0.95192919E-01 0.27813327E+02</pdfrwt>
<totfact> 0.76739921E+06</totfact>
</mgrwt>
</event>
<event>
 4    1  0.2812958E+004  0.2112977E+02  0.7546771E-02  0.1723752E+00
         21   -1    0    0  503  502  0.00000000000E+00  0.00000000000E+00  0.16509656118E+02  0.16509656118E+02  0.00000000000E+00 0.  1.
         21   -1    0    0  501  503 -0.00000000000E+00 -0.00000000000E+00 -0.30603927498E+03  0.30603927498E+03  0.00000000000E+00 0. -1.
          2    1    1    2  501    0 -0.13310341534E+02 -0.16410423117E+02 -0.29874909212E+03  0.29949538764E+03  0.00000000000E+00 0. -1.
         -2    1    1    2    0  502  0.13310341534E+02  0.16410423117E+02  0.92194732568E+01  0.23053543453E+02  0.00000000000E+00 0.  1.
<mgrwt>
<rscale>  2 0.21129770E+02</rscale>
<asrwt>0</asrwt>
<pdfrwt beam="1">  1       21 0.25399472E-02 0.21129770E+02</pdfrwt>
<pdfrwt beam="2">  1       21 0.47082963E-01 0.21129770E+02</pdfrwt>
<totfact> 0.30764847E+06</totfact>
</mgrwt>
</event>
<event>
 4    1  0.2812958E+004  0.2328116E+02  0.7546771E-02  0.1686993E+00
         21   -1    0    0  501  502  0.00000000000E+00  0.00000000000E+00  0.95192927433E+02  0.95192927433E+02  0.00000000000E+00 0. -1.
         21   -1    0    0  502  503 -0.00000000000E+00 -0.00000000000E+00 -0.58187319435E+01  0.58187319435E+01  0.00000000000E+00 0.  1.
          2    1    1    2  501    0 -0.17787724472E+02 -0.15020292731E+02  0.52086763834E+02  0.57052986796E+02  0.00000000000E+00 0. -1.
         -2    1    1    2    0  503  0.17787724472E+02  0.15020292731E+02  0.37287431656E+02  0.43958672581E+02  0.00000000000E+00 0.  1.
<mgrwt>
<rscale>  2 0.23281158E+02</rscale>
<asrwt>0</asrwt>
<pdfrwt beam="1">  1       21 0.14645065E-01 0.23281158E+02</pdfrwt>
<pdfrwt beam="2">  1       21 0.89518960E-03 0.23281158E+02</pdfrwt>
<totfact> 0.12477714E+08</totfact>
</mgrwt>
</event>
<event>
 4    1  0.2812958E+004  0.2368887E+02  0.7546771E-02  0.1680581E+00
         21   -1    0    0  503  502  0.00000000000E+00  0.00000000000E+00  0.69797660200E+01  0.69797660200E+01  0.00000000000E+00 0.  1.
         21   -1    0    0  501  503 -0.00000000000E+00 -0.00000000000E+00 -0.10875530207E+03  0.10875530207E+03  0.00000000000E+00 0. -1.
          2    1    1    2  501    0  0.23539117812E+02  0.26594078435E+01 -0.80436483256E+02  0.83852193508E+02  0.00000000000E+00 0. -1.
         -2    1    1    2    0  502 -0.23539117812E+02 -0.26594078435E+01 -0.21339052791E+02  0.31882874579E+02  0.00000000000E+00 0.  1.
<mgrwt>
<rscale>  2 0.23688869E+02</rscale>
<asrwt>0</asrwt>
<pdfrwt beam="1">  1       21 0.10738103E-02 0.23688869E+02</pdfrwt>
<pdfrwt beam="2">  1       21 0.16731583E-01 0.23688869E+02</pdfrwt>
<totfact> 0.75966575E+07</totfact>
</mgrwt>
</event>
<event>
 4    1  0.2812958E+004  0.3660725E+02  0.7546771E-02  0.1534774E+00
         21   -1    0    0  503  502  0.00000000000E+00  0.00000000000E+00  0.52577598530E+03  0.52577598530E+03  0.00000000000E+00 0.  1.
         21   -1    0    0  501  503 -0.00000000000E+00 -0.00000000000E+00 -0.25998877607E+01  0.25998877607E+01  0.00000000000E+00 0. -1.
          2    1    1    2  501    0  0.28626148422E+02 -0.22817408957E+02  0.22454956716E+03  0.22751395262E+03  0.00000000000E+00 0.  1.
         -2    1    1    2    0  502 -0.28626148422E+02  0.22817408957E+02  0.29862653038E+03  0.30086192044E+03  0.00000000000E+00 0. -1.
<mgrwt>
<rscale>  2 0.36607247E+02</rscale>
<asrwt>0</asrwt>
<pdfrwt beam="1">  1       21 0.80888529E-01 0.36607247E+02</pdfrwt>
<pdfrwt beam="2">  1       21 0.39998315E-03 0.36607247E+02</pdfrwt>
<totfact> 0.18245120E+07</totfact>
</mgrwt>
</event>
<event>
 4    1  0.2812958E+004  0.4076658E+02  0.7546771E-02  0.1502645E+00
         21   -1    0    0  501  502  0.00000000000E+00  0.00000000000E+00  0.37427251425E+03  0.37427251425E+03  0.00000000000E+00 0. -1.
         21   -1    0    0  502  503 -0.00000000000E+00 -0.00000000000E+00 -0.59172046945E+01  0.59172046945E+01  0.00000000000E+00 0.  1.
          2    1    1    2  501    0 -0.67865764366E+01  0.40197718463E+02  0.27914532032E+03  0.28210640554E+03  0.00000000000E+00 0. -1.
         -2    1    1    2    0  503  0.67865764366E+01 -0.40197718463E+02  0.89209989239E+02  0.98083313410E+02  0.00000000000E+00 0.  1.
<mgrwt>
<rscale>  2 0.40766582E+02</rscale>
<asrwt>0</asrwt>
<pdfrwt beam="1">  1       21 0.57580368E-01 0.40766582E+02</pdfrwt>
<pdfrwt beam="2">  1       21 0.91033948E-03 0.40766582E+02</pdfrwt>
<totfact> 0.10895375E+07</totfact>
</mgrwt>
</event>
<event>
 4    1  0.2812958E+004  0.2512011E+02  0.7546771E-02  0.1659283E+00
         21   -1    0    0  501  502  0.00000000000E+00  0.00000000000E+00  0.20583883824E+01  0.20583883824E+01  0.00000000000E+00 0. -1.
         21   -1    0    0  502  503 -0.00000000000E+00 -0.00000000000E+00 -0.51941193088E+03  0.51941193088E+03  0.00000000000E+00 0.  1.
          2    1    1    2  501    0 -0.10802351672E+02  0.22678824957E+02 -0.91766809846E+02  0.95142878306E+02  0.00000000000E+00 0.  1.
         -2    1    1    2    0  503  0.10802351672E+02 -0.22678824957E+02 -0.42558673265E+03  0.42632744096E+03  0.00000000000E+00 0. -1.
<mgrwt>
<rscale>  2 0.25120110E+02</rscale>
<asrwt>0</asrwt>
<pdfrwt beam="1">  1       21 0.31667497E-03 0.25120110E+02</pdfrwt>
<pdfrwt beam="2">  1       21 0.79909570E-01 0.25120110E+02</pdfrwt>
<totfact> 0.24835272E+07</totfact>
</mgrwt>
</event>
<event>
 4    1  0.2812958E+004  0.2186490E+02  0.7546771E-02  0.1710599E+00
         21   -1    0    0  501  502  0.00000000000E+00  0.00000000000E+00  0.23326982750E+03  0.23326982750E+03  0.00000000000E+00 0. -1.
         21   -1    0    0  502  503 -0.00000000000E+00 -0.00000000000E+00 -0.27287685730E+01  0.27287685730E+01  0.00000000000E+00 0.  1.
          2    1    1    2  501    0  0.21852971527E+02 -0.72202052093E+00  0.17414600375E+03  0.17551325961E+03  0.00000000000E+00 0. -1.
         -2    1    1    2    0  503 -0.21852971527E+02  0.72202052093E+00  0.56395055180E+02  0.60485336462E+02  0.00000000000E+00 0.  1.
<mgrwt>
<rscale>  2 0.21864896E+02</rscale>
<asrwt>0</asrwt>
<pdfrwt beam="1">  1       21 0.35887650E-01 0.21864896E+02</pdfrwt>
<pdfrwt beam="2">  1       21 0.41981073E-03 0.21864896E+02</pdfrwt>
<totfact> 0.77092020E+07</totfact>
</mgrwt>
</event>
<event>
 4    1  0.2812958E+004  0.2131472E+02  0.7546771E-02  0.1720380E+00
         21   -1    0    0  501  502  0.00000000000E+00  0.00000000000E+00  0.33582883388E+02  0.33582883388E+02  0.00000000000E+00 0.  1.
         21   -1    0    0  502  503 -0.00000000000E+00 -0.00000000000E+00 -0.15828851920E+02  0.15828851920E+02  0.00000000000E+00 0. -1.
          2    1    1    2  501    0 -0.15897600343E+02 -0.14198012493E+02  0.18295851591E+02  0.28090130666E+02  0.00000000000E+00 0.  1.
         -2    1    1    2    0  503  0.15897600343E+02  0.14198012493E+02 -0.54182012326E+00  0.21321604641E+02  0.00000000000E+00 0. -1.
<mgrwt>
<rscale>  2 0.21314719E+02</rscale>
<asrwt>0</asrwt>
<pdfrwt beam="1">  1       21 0.51665974E-02 0.21314719E+02</pdfrwt>
<pdfrwt beam="2">  1       21 0.24352080E-02 0.21314719E+02</pdfrwt>
<totfact> 0.14687942E+08</totfact>
</mgrwt>
</event>
<event>
 4    1  0.2812958E+004  0.2653162E+02  0.7546771E-02  0.1639930E+00
         21   -1    0    0  503  502  0.00000000000E+00  0.00000000000E+00  0.80267376420E+02  0.80267376420E+02  0.00000000000E+00 0.  1.
         21   -1    0    0  501  503 -0.00000000000E+00 -0.00000000000E+00 -0.96885697328E+01  0.96885697328E+01  0.00000000000E+00 0. -1.
          2    1    1    2  501    0  0.21983858999E+02  0.14853841737E+02  0.21438446838E+02  0.34110609400E+02  0.00000000000E+00 0. -1.
         -2    1    1    2    0  502 -0.21983858999E+02 -0.14853841737E+02  0.49140359850E+02  0.55845336753E+02  0.00000000000E+00 0.  1.
<mgrwt>
<rscale>  2 0.26531616E+02</rscale>
<asrwt>0</asrwt>
<pdfrwt beam="1">  1       21 0.12348827E-01 0.26531616E+02</pdfrwt>
<pdfrwt beam="2">  1       21 0.14905492E-02 0.26531616E+02</pdfrwt>
<totfact> 0.79773257E+07</totfact>
</mgrwt>
</event>
<event>
 4    1  0.2812958E+004  0.4626816E+02  0.7546771E-02  0.1466577E+00
         21   -1    0    0  501  502  0.00000000000E+00  0.00000000000E+00  0.20402157313E+03  0.20402157313E+03  0.00000000000E+00 0. -1.
         21   -1    0    0  502  503 -0.00000000000E+00 -0.00000000000E+00 -0.19117155208E+03  0.19117155208E+03  0.00000000000E+00 0.  1.
          2    1    1    2  501    0  0.34330870761E+02 -0.31018279758E+02  0.19852236458E+03  0.20384276196E+03  0.00000000000E+00 0. -1.
         -2    1    1    2    0  503 -0.34330870761E+02  0.31018279758E+02 -0.18567234352E+03  0.19135036325E+03  0.00000000000E+00 0.  1.
<mgrwt>
<rscale>  2 0.46268157E+02</rscale>
<asrwt>0</asrwt>
<pdfrwt beam="1">  1       21 0.31387934E-01 0.46268157E+02</pdfrwt>
<pdfrwt beam="2">  1       21 0.29411008E-01 0.46268157E+02</pdfrwt>
<totfact> 0.11521497E+05</totfact>
</mgrwt>
</event>
<event>
 4    1  0.2812958E+004  0.2135451E+02  0.7546771E-02  0.1719661E+00
         21   -1    0    0  503  502  0.00000000000E+00  0.00000000000E+00  0.15380988533E+02  0.15380988533E+02  0.00000000000E+00 0. -1.
         21   -1    0    0  501  503 -0.00000000000E+00 -0.00000000000E+00 -0.87623791650E+02  0.87623791650E+02  0.00000000000E+00 0.  1.
          2    1    1    2  501    0 -0.17351246380E+02  0.12447859927E+02 -0.78014245902E+02  0.80884099373E+02  0.00000000000E+00 0.  1.
         -2    1    1    2    0  502  0.17351246380E+02 -0.12447859927E+02  0.57714427854E+01  0.22120680810E+02  0.00000000000E+00 0. -1.
<mgrwt>
<rscale>  2 0.21354507E+02</rscale>
<asrwt>0</asrwt>
<pdfrwt beam="1">  1       21 0.23663060E-02 0.21354507E+02</pdfrwt>
<pdfrwt beam="2">  1       21 0.13480583E-01 0.21354507E+02</pdfrwt>
<totfact> 0.32093927E+07</totfact>
</mgrwt>
</event>
<event>
 4    1  0.2812958E+004  0.2065518E+02  0.7546771E-02  0.1732604E+00
         21   -1    0    0  501  502  0.00000000000E+00  0.00000000000E+00  0.56838417632E+02  0.56838417632E+02  0.00000000000E+00 0. -1.
         21   -1    0    0  502  503 -0.00000000000E+00 -0.00000000000E+00 -0.78196795825E+01  0.78196795825E+01  0.00000000000E+00 0.  1.
          2    1    1    2  501    0 -0.48408342423E+01 -0.20079913134E+02  0.30983047437E+02  0.37236887842E+02  0.00000000000E+00 0.  1.
         -2    1    1    2    0  503  0.48408342423E+01  0.20079913134E+02  0.18035690612E+02  0.27421209373E+02  0.00000000000E+00 0. -1.
<mgrwt>
<rscale>  2 0.20655183E+02</rscale>
<asrwt>0</asrwt>
<pdfrwt beam="1">  1       21 0.87443717E-02 0.20655183E+02</pdfrwt>
<pdfrwt beam="2">  1       21 0.12030277E-02 0.20655183E+02</pdfrwt>
<totfact> 0.18227048E+08</totfact>
</mgrwt>
</event>
<event>
 4    1  0.2812958E+004  0.2049326E+02  0.7546771E-02  0.1735693E+00
         21   -1    0    0  501  502  0.00000000000E+00  0.00000000000E+00  0.79717374815E+02  0.79717374815E+02  0.00000000000E+00 0. -1.
         21   -1    0    0  502  503 -0.00000000000E+00 -0.00000000000E+00 -0.79919530153E+01  0.79919530153E+01  0.00000000000E+00 0.  1.
          2    1    1    2  501    0 -0.11637820340E+02 -0.16868162277E+02  0.61464275103E+02  0.64790669658E+02  0.00000000000E+00 0.  1.
         -2    1    1    2    0  503  0.11637820340E+02  0.16868162277E+02  0.10261146697E+02  0.22918658172E+02  0.00000000000E+00 0. -1.
<mgrwt>
<rscale>  2 0.20493261E+02</rscale>
<asrwt>0</asrwt>
<pdfrwt beam="1">  1       21 0.12264211E-01 0.20493261E+02</pdfrwt>
<pdfrwt beam="2">  1       21 0.12295313E-02 0.20493261E+02</pdfrwt>
<totfact> 0.10069190E+08</totfact>
</mgrwt>
</event>
<event>
 4    1  0.2812958E+004  0.2361556E+02  0.7546771E-02  0.1681722E+00
         21   -1    0    0  503  502  0.00000000000E+00  0.00000000000E+00  0.13763074224E+03  0.13763074224E+03  0.00000000000E+00 0. -1.
         21   -1    0    0  501  503 -0.00000000000E+00 -0.00000000000E+00 -0.47980749178E+01  0.47980749178E+01  0.00000000000E+00 0.  1.
          2    1    1    2  501    0 -0.19692734586E+02 -0.13034215703E+02  0.38336517223E+02  0.45026471406E+02  0.00000000000E+00 0.  1.
         -2    1    1    2    0  502  0.19692734586E+02  0.13034215703E+02  0.94496150100E+02  0.97402345753E+02  0.00000000000E+00 0. -1.
<mgrwt>
<rscale>  2 0.23615558E+02</rscale>
<asrwt>0</asrwt>
<pdfrwt beam="1">  1       21 0.21173957E-01 0.23615558E+02</pdfrwt>
<pdfrwt beam="2">  1       21 0.73816548E-03 0.23615558E+02</pdfrwt>
<totfact> 0.88411332E+07</totfact>
</mgrwt>
</event>
<event>
 4    1  0.2812958E+004  0.3839951E+02  0.7546771E-02  0.1520331E+00
         21   -1    0    0  501  502  0.00000000000E+00  0.00000000000E+00  0.17579929886E+03  0.17579929886E+03  0.00000000000E+00 0.  1.
         21   -1    0    0  502  503 -0.00000000000E+00 -0.00000000000E+00 -0.84020555938E+01  0.84020555938E+01  0.00000000000E+00 0. -1.
          2    1    1    2  501    0 -0.35965558646E+02  0.13453671328E+02  0.87527486123E+02  0.95580246431E+02  0.00000000000E+00 0.  1.
         -2    1    1    2    0  503  0.35965558646E+02 -0.13453671328E+02  0.79869757139E+02  0.88621108018E+02  0.00000000000E+00 0. -1.
<mgrwt>
<rscale>  2 0.38399514E+02</rscale>
<asrwt>0</asrwt>
<pdfrwt beam="1">  1       21 0.27046043E-01 0.38399514E+02</pdfrwt>
<pdfrwt beam="2">  1       21 0.12926241E-02 0.38399514E+02</pdfrwt>
<totfact> 0.27048108E+07</totfact>
</mgrwt>
</event>
<event>
 4    1  0.2812958E+004  0.2765287E+02  0.7546771E-02  0.1625583E+00
         21   -1    0    0  503  502  0.00000000000E+00  0.00000000000E+00  0.18330995736E+02  0.18330995736E+02  0.00000000000E+00 0.  1.
         21   -1    0    0  501  503 -0.00000000000E+00 -0.00000000000E+00 -0.11701595478E+03  0.11701595478E+03  0.00000000000E+00 0. -1.
          2    1    1    2  501    0  0.21028950796E+02 -0.17957289914E+02 -0.10362945209E+03  0.10725550975E+03  0.00000000000E+00 0. -1.
         -2    1    1    2    0  502 -0.21028950796E+02  0.17957289914E+02  0.49444930430E+01  0.28091440762E+02  0.00000000000E+00 0.  1.
<mgrwt>
<rscale>  2 0.27652867E+02</rscale>
<asrwt>0</asrwt>
<pdfrwt beam="1">  1       21 0.28201531E-02 0.27652867E+02</pdfrwt>
<pdfrwt beam="2">  1       21 0.18002455E-01 0.27652867E+02</pdfrwt>
<totfact> 0.15752686E+07</totfact>
</mgrwt>
</event>
<event>
 4    1  0.2812958E+004  0.2144384E+02  0.7546771E-02  0.1718052E+00
         21   -1    0    0  503  502  0.00000000000E+00  0.00000000000E+00  0.13518253443E+02  0.13518253443E+02  0.00000000000E+00 0. -1.
         21   -1    0    0  501  503 -0.00000000000E+00 -0.00000000000E+00 -0.12827186452E+03  0.12827186452E+03  0.00000000000E+00 0.  1.
          2    1    1    2  501    0 -0.19543516691E+02  0.88254774911E+01 -0.11814890674E+03  0.12007914999E+03  0.00000000000E+00 0.  1.
         -2    1    1    2    0  502  0.19543516691E+02 -0.88254774911E+01  0.33952956676E+01  0.21710967972E+02  0.00000000000E+00 0. -1.
<mgrwt>
<rscale>  2 0.21443836E+02</rscale>
<asrwt>0</asrwt>
<pdfrwt beam="1">  1       21 0.20797313E-02 0.21443836E+02</pdfrwt>
<pdfrwt beam="2">  1       21 0.19734133E-01 0.21443836E+02</pdfrwt>
<totfact> 0.20419653E+07</totfact>
</mgrwt>
</event>
<event>
 4    1  0.2812958E+004  0.2368152E+02  0.7546771E-02  0.1680695E+00
         21   -1    0    0  501  502  0.00000000000E+00  0.00000000000E+00  0.17533332980E+02  0.17533332980E+02  0.00000000000E+00 0.  1.
         21   -1    0    0  502  503 -0.00000000000E+00 -0.00000000000E+00 -0.38089009673E+02  0.38089009673E+02  0.00000000000E+00 0. -1.
          2    1    1    2  501    0  0.62718662513E+01  0.22835892272E+02  0.85498926430E+00  0.23696946824E+02  0.00000000000E+00 0.  1.
         -2    1    1    2    0  503 -0.62718662513E+01 -0.22835892272E+02 -0.21410665957E+02  0.31925395829E+02  0.00000000000E+00 0. -1.
<mgrwt>
<rscale>  2 0.23681518E+02</rscale>
<asrwt>0</asrwt>
<pdfrwt beam="1">  1       21 0.26974359E-02 0.23681518E+02</pdfrwt>
<pdfrwt beam="2">  1       21 0.58598476E-02 0.23681518E+02</pdfrwt>
<totfact> 0.10581440E+08</totfact>
</mgrwt>
</event>
<event>
 4    1  0.2812958E+004  0.2239034E+02  0.7546771E-02  0.1701587E+00
         21   -1    0    0  503  502  0.00000000000E+00  0.00000000000E+00  0.10424795879E+03  0.10424795879E+03  0.00000000000E+00 0.  1.
         21   -1    0    0  501  503 -0.00000000000E+00 -0.00000000000E+00 -0.80469347305E+01  0.80469347305E+01  0.00000000000E+00 0. -1.
          2    1    1    2  501    0  0.22150307203E+02  0.32697166028E+01  0.12484143220E+02  0.25635541496E+02  0.00000000000E+00 0. -1.
         -2    1    1    2    0  502 -0.22150307203E+02 -0.32697166028E+01  0.83716880838E+02  0.86659352024E+02  0.00000000000E+00 0.  1.
<mgrwt>
<rscale>  2 0.22390336E+02</rscale>
<asrwt>0</asrwt>
<pdfrwt beam="1">  1       21 0.16038147E-01 0.22390336E+02</pdfrwt>
<pdfrwt beam="2">  1       21 0.12379900E-02 0.22390336E+02</pdfrwt>
<totfact> 0.64927083E+07</totfact>
</mgrwt>
</event>
<event>
 4    1  0.2812958E+004  0.2134961E+02  0.7546771E-02  0.1719749E+00
         21   -1    0    0  503  502  0.00000000000E+00  0.00000000000E+00  0.18559369219E+03  0.18559369219E+03  0.00000000000E+00 0.  1.
         21   -1    0    0  501  503 -0.00000000000E+00 -0.00000000000E+00 -0.24562283165E+01  0.24562283165E+01  0.00000000000E+00 0. -1.
          2    1    1    2  501    0  0.17965549716E+02  0.11534499950E+02  0.92599788867E+02  0.95029082727E+02  0.00000000000E+00 0.  1.
         -2    1    1    2    0  502 -0.17965549716E+02 -0.11534499950E+02  0.90537675008E+02  0.93020837781E+02  0.00000000000E+00 0. -1.
<mgrwt>
<rscale>  2 0.21349606E+02</rscale>
<asrwt>0</asrwt>
<pdfrwt beam="1">  1       21 0.28552865E-01 0.21349606E+02</pdfrwt>
<pdfrwt beam="2">  1       21 0.37788142E-03 0.21349606E+02</pdfrwt>
<totfact> 0.13569084E+08</totfact>
</mgrwt>
</event>
<event>
 4    1  0.2812958E+004  0.2212692E+02  0.7546771E-02  0.1706066E+00
         21   -1    0    0  501  502  0.00000000000E+00  0.00000000000E+00  0.16986968064E+03  0.16986968064E+03  0.00000000000E+00 0. -1.
         21   -1    0    0  502  503 -0.00000000000E+00 -0.00000000000E+00 -0.42762021030E+01  0.42762021030E+01  0.00000000000E+00 0.  1.
          2    1    1    2  501    0  0.19197528296E+02  0.11002515667E+02  0.13251133801E+03  0.13434602765E+03  0.00000000000E+00 0. -1.
         -2    1    1    2    0  503 -0.19197528296E+02 -0.11002515667E+02  0.33082140525E+02  0.39799855093E+02  0.00000000000E+00 0.  1.
<mgrwt>
<rscale>  2 0.22126917E+02</rscale>
<asrwt>0</asrwt>
<pdfrwt beam="1">  1       21 0.26133792E-01 0.22126917E+02</pdfrwt>
<pdfrwt beam="2">  1       21 0.65787738E-03 0.22126917E+02</pdfrwt>
<totfact> 0.71025148E+07</totfact>
</mgrwt>
</event>
<event>
 4    1  0.2812958E+004  0.2219939E+02  0.7546771E-02  0.1704826E+00
         21   -1    0    0  503  502  0.00000000000E+00  0.00000000000E+00  0.67362392311E+01  0.67362392311E+01  0.00000000000E+00 0.  1.
         21   -1    0    0  501  503 -0.00000000000E+00 -0.00000000000E+00 -0.19467720338E+03  0.19467720338E+03  0.00000000000E+00 0. -1.
          2    1    1    2  501    0 -0.53602403199E+01 -0.21542534221E+02 -0.17353556583E+03  0.17494972296E+03  0.00000000000E+00 0. -1.
         -2    1    1    2    0  502  0.53602403199E+01  0.21542534221E+02 -0.14405398322E+02  0.26463719651E+02  0.00000000000E+00 0.  1.
<mgrwt>
<rscale>  2 0.22199391E+02</rscale>
<asrwt>0</asrwt>
<pdfrwt beam="1">  1       21 0.10363444E-02 0.22199391E+02</pdfrwt>
<pdfrwt beam="2">  1       21 0.29950341E-01 0.22199391E+02</pdfrwt>
<totfact> 0.28222458E+07</totfact>
</mgrwt>
</event>
<event>
 4    1  0.2812958E+004  0.2212150E+02  0.7546771E-02  0.1706159E+00
         21   -1    0    0  501  502  0.00000000000E+00  0.00000000000E+00  0.82894259988E+03  0.82894259988E+03  0.00000000000E+00 0.  1.
         21   -1    0    0  502  503 -0.00000000000E+00 -0.00000000000E+00 -0.59290292643E+00  0.59290292643E+00  0.00000000000E+00 0. -1.
          2    1    1    2  501    0 -0.30478581083E+01 -0.21910525972E+02  0.38692186750E+03  0.38755372806E+03  0.00000000000E+00 0.  1.
         -2    1    1    2    0  503  0.30478581083E+01  0.21910525972E+02  0.44142782946E+03  0.44198177474E+03  0.00000000000E+00 0. -1.
<mgrwt>
<rscale>  2 0.22121496E+02</rscale>
<asrwt>0</asrwt>
<pdfrwt beam="1">  1       21 0.12752870E+00 0.22121496E+02</pdfrwt>
<pdfrwt beam="2">  1       21 0.91216499E-04 0.22121496E+02</pdfrwt>
<totfact> 0.52119688E+07</totfact>
</mgrwt>
</event>
<event>
 4    1  0.2812958E+004  0.2010692E+02  0.7546771E-02  0.1743210E+00
         21   -1    0    0  503  502  0.00000000000E+00  0.00000000000E+00  0.62314086908E+03  0.62314086908E+03  0.00000000000E+00 0.  1.
         21   -1    0    0  501  503 -0.00000000000E+00 -0.00000000000E+00 -0.19946071852E+01  0.19946071852E+01  0.00000000000E+00 0. -1.
          2    1    1    2  501    0 -0.19441903475E+02  0.51284314839E+01  0.53824418897E+02  0.57457431981E+02  0.00000000000E+00 0. -1.
         -2    1    1    2    0  502  0.19441903475E+02 -0.51284314839E+01  0.56732184300E+03  0.56767804429E+03  0.00000000000E+00 0.  1.
<mgrwt>
<rscale>  2 0.20106925E+02</rscale>
<asrwt>0</asrwt>
<pdfrwt beam="1">  1       21 0.95867671E-01 0.20106925E+02</pdfrwt>
<pdfrwt beam="2">  1       21 0.30686314E-03 0.20106925E+02</pdfrwt>
<totfact> 0.16896724E+07</totfact>
</mgrwt>
</event>
<event>
 4    1  0.2812958E+004  0.2313295E+02  0.7546771E-02  0.1689364E+00
         21   -1    0    0  501  502  0.00000000000E+00  0.00000000000E+00  0.52997255663E+03  0.52997255663E+03  0.00000000000E+00 0. -1.
         21   -1    0    0  502  503 -0.00000000000E+00 -0.00000000000E+00 -0.17209181920E+01  0.17209181920E+01  0.00000000000E+00 0.  1.
          2    1    1    2  501    0 -0.23042356904E+02  0.20452524413E+01  0.43502545624E+03  0.43564008177E+03  0.00000000000E+00 0. -1.
         -2    1    1    2    0  503  0.23042356904E+02 -0.20452524413E+01  0.93226182200E+02  0.96053393052E+02  0.00000000000E+00 0.  1.
<mgrwt>
<rscale>  2 0.23132948E+02</rscale>
<asrwt>0</asrwt>
<pdfrwt beam="1">  1       21 0.81534109E-01 0.23132948E+02</pdfrwt>
<pdfrwt beam="2">  1       21 0.26475707E-03 0.23132948E+02</pdfrwt>
<totfact> 0.30405190E+07</totfact>
</mgrwt>
</event>
<event>
 4    1  0.2812958E+004  0.2581242E+02  0.7546771E-02  0.1649600E+00
         21   -1    0    0  503  502  0.00000000000E+00  0.00000000000E+00  0.58749959099E+02  0.58749959099E+02  0.00000000000E+00 0.  1.
         21   -1    0    0  501  503 -0.00000000000E+00 -0.00000000000E+00 -0.33182040772E+02  0.33182040772E+02  0.00000000000E+00 0. -1.
          2    1    1    2  501    0 -0.12611964604E+02 -0.22521527865E+02 -0.24508604492E+02  0.35594277106E+02  0.00000000000E+00 0. -1.
         -2    1    1    2    0  502  0.12611964604E+02  0.22521527865E+02  0.50076522820E+02  0.56337722765E+02  0.00000000000E+00 0.  1.
<mgrwt>
<rscale>  2 0.25812417E+02</rscale>
<asrwt>0</asrwt>
<pdfrwt beam="1">  1       21 0.90384552E-02 0.25812417E+02</pdfrwt>
<pdfrwt beam="2">  1       21 0.51049294E-02 0.25812417E+02</pdfrwt>
<totfact> 0.19529419E+07</totfact>
</mgrwt>
</event>
<event>
 4    1  0.2812958E+004  0.2821262E+02  0.7546771E-02  0.1618730E+00
         21   -1    0    0  503  502  0.00000000000E+00  0.00000000000E+00  0.17821392585E+03  0.17821392585E+03  0.00000000000E+00 0.  1.
         21   -1    0    0  501  503 -0.00000000000E+00 -0.00000000000E+00 -0.20139507566E+02  0.20139507566E+02  0.00000000000E+00 0. -1.
          2    1    1    2  501    0 -0.15085163567E+02  0.23840928696E+02 -0.84540405714E+01  0.29452043102E+02  0.00000000000E+00 0. -1.
         -2    1    1    2    0  502  0.15085163567E+02 -0.23840928696E+02  0.16652845886E+03  0.16890139031E+03  0.00000000000E+00 0.  1.
<mgrwt>
<rscale>  2 0.28212622E+02</rscale>
<asrwt>0</asrwt>
<pdfrwt beam="1">  1       21 0.27417526E-01 0.28212622E+02</pdfrwt>
<pdfrwt beam="2">  1       21 0.30983859E-02 0.28212622E+02</pdfrwt>
<totfact> 0.64576804E+06</totfact>
</mgrwt>
</event>
<event>
 4    1  0.2812958E+004  0.2184282E+02  0.7546771E-02  0.1710985E+00
         21   -1    0    0  501  502  0.00000000000E+00  0.00000000000E+00  0.13853907655E+03  0.13853907655E+03  0.00000000000E+00 0.  1.
         21   -1    0    0  502  503 -0.00000000000E+00 -0.00000000000E+00 -0.36979390589E+01  0.36979390589E+01  0.00000000000E+00 0. -1.
          2    1    1    2  501    0 -0.90730032778E+01  0.19869306950E+02  0.86062456671E+02  0.88791076102E+02  0.00000000000E+00 0. -1.
         -2    1    1    2    0  503  0.90730032778E+01 -0.19869306950E+02  0.48778680817E+02  0.53445939504E+02  0.00000000000E+00 0.  1.
<mgrwt>
<rscale>  2 0.21842819E+02</rscale>
<asrwt>0</asrwt>
<pdfrwt beam="1">  1       21 0.21313700E-01 0.21842819E+02</pdfrwt>
<pdfrwt beam="2">  1       21 0.56891381E-03 0.21842819E+02</pdfrwt>
<totfact> 0.12586653E+08</totfact>
</mgrwt>
</event>
<event>
 4    1  0.2812958E+004  0.2024227E+02  0.7546771E-02  0.1740553E+00
         21   -1    0    0  503  502  0.00000000000E+00  0.00000000000E+00  0.62262365127E+02  0.62262365127E+02  0.00000000000E+00 0. -1.
         21   -1    0    0  501  503 -0.00000000000E+00 -0.00000000000E+00 -0.11332163881E+02  0.11332163881E+02  0.00000000000E+00 0.  1.
          2    1    1    2  501    0 -0.60934595976E+01 -0.19303343157E+02  0.16386903322E+01  0.20308486229E+02  0.00000000000E+00 0.  1.
         -2    1    1    2    0  502  0.60934595976E+01  0.19303343157E+02  0.49291510914E+02  0.53286042779E+02  0.00000000000E+00 0. -1.
<mgrwt>
<rscale>  2 0.20242265E+02</rscale>
<asrwt>0</asrwt>
<pdfrwt beam="1">  1       21 0.95788252E-02 0.20242265E+02</pdfrwt>
<pdfrwt beam="2">  1       21 0.17434099E-02 0.20242265E+02</pdfrwt>
<totfact> 0.89060196E+07</totfact>
</mgrwt>
</event>
<event>
 4    1  0.2812958E+004  0.2478496E+02  0.7546771E-02  0.1664110E+00
         21   -1    0    0  503  502  0.00000000000E+00  0.00000000000E+00  0.23137999438E+02  0.23137999438E+02  0.00000000000E+00 0.  1.
         21   -1    0    0  501  503 -0.00000000000E+00 -0.00000000000E+00 -0.59697912279E+02  0.59697912279E+02  0.00000000000E+00 0. -1.
          2    1    1    2  501    0  0.17814667876E+02 -0.17231713553E+02 -0.49143281425E+02  0.55039589867E+02  0.00000000000E+00 0. -1.
         -2    1    1    2    0  502 -0.17814667876E+02  0.17231713553E+02  0.12583368584E+02  0.27796321851E+02  0.00000000000E+00 0.  1.
<mgrwt>
<rscale>  2 0.24784962E+02</rscale>
<asrwt>0</asrwt>
<pdfrwt beam="1">  1       21 0.35596923E-02 0.24784962E+02</pdfrwt>
<pdfrwt beam="2">  1       21 0.91842941E-02 0.24784962E+02</pdfrwt>
<totfact> 0.33407083E+07</totfact>
</mgrwt>
</event>
<event>
 4    1  0.2812958E+004  0.2074285E+02  0.7546771E-02  0.1730947E+00
         21   -1    0    0  501  502  0.00000000000E+00  0.00000000000E+00  0.73403377887E+03  0.73403377887E+03  0.00000000000E+00 0. -1.
         21   -1    0    0  502  503 -0.00000000000E+00 -0.00000000000E+00 -0.10996455563E+01  0.10996455563E+01  0.00000000000E+00 0.  1.
          2    1    1    2  501    0  0.22635849102E+01  0.20618967402E+02  0.61763916667E+03  0.61798738323E+03  0.00000000000E+00 0. -1.
         -2    1    1    2    0  503 -0.22635849102E+01 -0.20618967402E+02  0.11529496665E+03  0.11714604120E+03  0.00000000000E+00 0.  1.
<mgrwt>
<rscale>  2 0.20742845E+02</rscale>
<asrwt>0</asrwt>
<pdfrwt beam="1">  1       21 0.11292788E+00 0.20742845E+02</pdfrwt>
<pdfrwt beam="2">  1       21 0.16917683E-03 0.20742845E+02</pdfrwt>
<totfact> 0.28028734E+07</totfact>
</mgrwt>
</event>
<event>
 4    1  0.2812958E+004  0.2247578E+02  0.7546771E-02  0.1700151E+00
         21   -1    0    0  503  502  0.00000000000E+00  0.00000000000E+00  0.36745716124E+01  0.36745716124E+01  0.00000000000E+00 0.  1.
         21   -1    0    0  501  503 -0.00000000000E+00 -0.00000000000E+00 -0.25653548476E+03  0.25653548476E+03  0.00000000000E+00 0. -1.
          2    1    1    2  501    0 -0.22178296905E+02 -0.36446765628E+01 -0.21506536134E+03  0.21623660692E+03  0.00000000000E+00 0. -1.
         -2    1    1    2    0  502  0.22178296905E+02  0.36446765628E+01 -0.37795551802E+02  0.43973449454E+02  0.00000000000E+00 0.  1.
<mgrwt>
<rscale>  2 0.22475776E+02</rscale>
<asrwt>0</asrwt>
<pdfrwt beam="1">  1       21 0.56531874E-03 0.22475776E+02</pdfrwt>
<pdfrwt beam="2">  1       21 0.39466996E-01 0.22475776E+02</pdfrwt>
<totfact> 0.41945638E+07</totfact>
</mgrwt>
</event>
<event>
 4    1  0.2812958E+004  0.2466532E+02  0.7546771E-02  0.1665856E+00
         21   -1    0    0  501  502  0.00000000000E+00  0.00000000000E+00  0.47982501775E+02  0.47982501775E+02  0.00000000000E+00 0.  1.
         21   -1    0    0  502  503 -0.00000000000E+00 -0.00000000000E+00 -0.13942628593E+02  0.13942628593E+02  0.00000000000E+00 0. -1.
          2    1    1    2  501    0  0.77334543289E+01  0.23421612445E+02  0.26340567197E+02  0.36086059990E+02  0.00000000000E+00 0.  1.
         -2    1    1    2    0  503 -0.77334543289E+01 -0.23421612445E+02  0.76993059849E+01  0.25839070378E+02  0.00000000000E+00 0. -1.
<mgrwt>
<rscale>  2 0.24665325E+02</rscale>
<asrwt>0</asrwt>
<pdfrwt beam="1">  1       21 0.73819233E-02 0.24665325E+02</pdfrwt>
<pdfrwt beam="2">  1       21 0.21450198E-02 0.24665325E+02</pdfrwt>
<totfact> 0.10503255E+08</totfact>
</mgrwt>
</event>
<event>
 4    1  0.2812958E+004  0.2509415E+02  0.7546771E-02  0.1659653E+00
         21   -1    0    0  503  502  0.00000000000E+00  0.00000000000E+00  0.25975337963E+03  0.25975337963E+03  0.00000000000E+00 0.  1.
         21   -1    0    0  501  503 -0.00000000000E+00 -0.00000000000E+00 -0.32203852116E+01  0.32203852116E+01  0.00000000000E+00 0. -1.
          2    1    1    2  501    0  0.21494907930E+02  0.12949345258E+02  0.62891455473E+02  0.67713010427E+02  0.00000000000E+00 0. -1.
         -2    1    1    2    0  502 -0.21494907930E+02 -0.12949345258E+02  0.19364153894E+03  0.19526075441E+03  0.00000000000E+00 0.  1.
<mgrwt>
<rscale>  2 0.25094155E+02</rscale>
<asrwt>0</asrwt>
<pdfrwt beam="1">  1       21 0.39962042E-01 0.25094155E+02</pdfrwt>
<pdfrwt beam="2">  1       21 0.49544408E-03 0.25094155E+02</pdfrwt>
<totfact> 0.51091812E+07</totfact>
</mgrwt>
</event>
<event>
 4    1  0.2812958E+004  0.2334672E+02  0.7546771E-02  0.1685951E+00
         21   -1    0    0  501  502  0.00000000000E+00  0.00000000000E+00  0.84777324185E+02  0.84777324185E+02  0.00000000000E+00 0.  1.
         21   -1    0    0  502  503 -0.00000000000E+00 -0.00000000000E+00 -0.82884736380E+01  0.82884736380E+01  0.00000000000E+00 0. -1.
          2    1    1    2  501    0  0.19420480782E+02  0.12958171300E+02  0.60282235539E+02  0.64645318460E+02  0.00000000000E+00 0.  1.
         -2    1    1    2    0  503 -0.19420480782E+02 -0.12958171300E+02  0.16206615009E+02  0.28420479364E+02  0.00000000000E+00 0. -1.
<mgrwt>
<rscale>  2 0.23346719E+02</rscale>
<asrwt>0</asrwt>
<pdfrwt beam="1">  1       21 0.13042665E-01 0.23346719E+02</pdfrwt>
<pdfrwt beam="2">  1       21 0.12751498E-02 0.23346719E+02</pdfrwt>
<totfact> 0.89199656E+07</totfact>
</mgrwt>
</event>
<event>
 4    1  0.2812958E+004  0.3895889E+02  0.7546771E-02  0.1516016E+00
         21   -1    0    0  501  502  0.00000000000E+00  0.00000000000E+00  0.15783630278E+02  0.15783630278E+02  0.00000000000E+00 0.  1.
         21   -1    0    0  502  503 -0.00000000000E+00 -0.00000000000E+00 -0.15947832918E+03  0.15947832918E+03  0.00000000000E+00 0. -1.
          2    1    1    2  501    0 -0.25681968914E+02 -0.29295584162E+02 -0.16631638701E+02  0.42360431828E+02  0.00000000000E+00 0.  1.
         -2    1    1    2    0  503  0.25681968914E+02  0.29295584162E+02 -0.12706306020E+03  0.13290152763E+03  0.00000000000E+00 0. -1.
<mgrwt>
<rscale>  2 0.38958886E+02</rscale>
<asrwt>0</asrwt>
<pdfrwt beam="1">  1       21 0.24282508E-02 0.38958886E+02</pdfrwt>
<pdfrwt beam="2">  1       21 0.24535127E-01 0.38958886E+02</pdfrwt>
<totfact> 0.12144226E+07</totfact>
</mgrwt>
</event>
<event>
 4    1  0.2812958E+004  0.2920823E+02  0.7546771E-02  0.1607009E+00
         21   -1    0    0  503  502  0.00000000000E+00  0.00000000000E+00  0.16140432314E+03  0.16140432314E+03  0.00000000000E+00 0.  1.
         21   -1    0    0  501  503 -0.00000000000E+00 -0.00000000000E+00 -0.16002810780E+02  0.16002810780E+02  0.00000000000E+00 0. -1.
          2    1    1    2  501    0 -0.28462157456E+01  0.29069220911E+02  0.10961866390E+00  0.29208433109E+02  0.00000000000E+00 0. -1.
         -2    1    1    2    0  502  0.28462157456E+01 -0.29069220911E+02  0.14529189370E+03  0.14819870081E+03  0.00000000000E+00 0.  1.
<mgrwt>
<rscale>  2 0.29208227E+02</rscale>
<asrwt>0</asrwt>
<pdfrwt beam="1">  1       21 0.24831433E-01 0.29208227E+02</pdfrwt>
<pdfrwt beam="2">  1       21 0.24619710E-02 0.29208227E+02</pdfrwt>
<totfact> 0.11131486E+07</totfact>
</mgrwt>
</event>
<event>
 4    1  0.2812958E+004  0.2525251E+02  0.7546771E-02  0.1657401E+00
         21   -1    0    0  503  502  0.00000000000E+00  0.00000000000E+00  0.41955736987E+01  0.41955736987E+01  0.00000000000E+00 0.  1.
         21   -1    0    0  501  503 -0.00000000000E+00 -0.00000000000E+00 -0.20849505799E+03  0.20849505799E+03  0.00000000000E+00 0. -1.
          2    1    1    2  501    0  0.23659663320E+02  0.88266314842E+01 -0.15751159582E+03  0.15952301373E+03  0.00000000000E+00 0. -1.
         -2    1    1    2    0  502 -0.23659663320E+02 -0.88266314842E+01 -0.46787888471E+02  0.53167617958E+02  0.00000000000E+00 0.  1.
<mgrwt>
<rscale>  2 0.25252507E+02</rscale>
<asrwt>0</asrwt>
<pdfrwt beam="1">  1       21 0.64547289E-03 0.25252507E+02</pdfrwt>
<pdfrwt beam="2">  1       21 0.32076162E-01 0.25252507E+02</pdfrwt>
<totfact> 0.52062733E+07</totfact>
</mgrwt>
</event>
<event>
 4    1  0.2812958E+004  0.2517198E+02  0.7546771E-02  0.1658544E+00
         21   -1    0    0  503  502  0.00000000000E+00  0.00000000000E+00  0.37195823459E+02  0.37195823459E+02  0.00000000000E+00 0.  1.
         21   -1    0    0  501  503 -0.00000000000E+00 -0.00000000000E+00 -0.34794960392E+02  0.34794960392E+02  0.00000000000E+00 0. -1.
          2    1    1    2  501    0  0.22703658895E+02 -0.10870719609E+02 -0.24515984711E+02  0.35137760008E+02  0.00000000000E+00 0. -1.
         -2    1    1    2    0  502 -0.22703658895E+02  0.10870719609E+02  0.26916847778E+02  0.36853023843E+02  0.00000000000E+00 0.  1.
<mgrwt>
<rscale>  2 0.25171982E+02</rscale>
<asrwt>0</asrwt>
<pdfrwt beam="1">  1       21 0.57224344E-02 0.25171982E+02</pdfrwt>
<pdfrwt beam="2">  1       21 0.53530708E-02 0.25171982E+02</pdfrwt>
<totfact> 0.37904888E+07</totfact>
</mgrwt>
</event>
<event>
 4    1  0.2812958E+004  0.2406308E+02  0.7546771E-02  0.1674836E+00
         21   -1    0    0  501  502  0.00000000000E+00  0.00000000000E+00  0.46397919840E+00  0.46397919840E+00  0.00000000000E+00 0. -1.
         21   -1    0    0  502  503 -0.00000000000E+00 -0.00000000000E+00 -0.12544718529E+04  0.12544718529E+04  0.00000000000E+00 0.  1.
          2    1    1    2  501    0  0.23822339980E+02 -0.33953094283E+01 -0.58183002555E+03  0.58232740845E+03  0.00000000000E+00 0. -1.
         -2    1    1    2    0  503 -0.23822339980E+02  0.33953094283E+01 -0.67217784816E+03  0.67260842365E+03  0.00000000000E+00 0.  1.
<mgrwt>
<rscale>  2 0.24063084E+02</rscale>
<asrwt>0</asrwt>
<pdfrwt beam="1">  1       21 0.71380977E-04 0.24063084E+02</pdfrwt>
<pdfrwt beam="2">  1       21 0.19299685E+00 0.24063084E+02</pdfrwt>
<totfact> 0.27672059E+07</totfact>
</mgrwt>
</event>
<event>
 4    1  0.2812958E+004  0.2651177E+02  0.7546771E-02  0.1640191E+00
         21   -1    0    0  503  502  0.00000000000E+00  0.00000000000E+00  0.99058568451E+03  0.99058568451E+03  0.00000000000E+00 0. -1.
         21   -1    0    0  501  503 -0.00000000000E+00 -0.00000000000E+00 -0.79059366963E+00  0.79059366963E+00  0.00000000000E+00 0.  1.
          2    1    1    2  501    0 -0.23516711472E+02 -0.12240833633E+02  0.33619586486E+03  0.33723957845E+03  0.00000000000E+00 0. -1.
         -2    1    1    2    0  502  0.23516711472E+02  0.12240833633E+02  0.65359922598E+03  0.65413669973E+03  0.00000000000E+00 0.  1.
<mgrwt>
<rscale>  2 0.26511766E+02</rscale>
<asrwt>0</asrwt>
<pdfrwt beam="1">  1       21 0.15239680E+00 0.26511766E+02</pdfrwt>
<pdfrwt beam="2">  1       21 0.12163059E-03 0.26511766E+02</pdfrwt>
<totfact> 0.23555266E+07</totfact>
</mgrwt>
</event>
<event>
 4    1  0.2812958E+004  0.2853947E+02  0.7546771E-02  0.1614818E+00
         21   -1    0    0  501  502  0.00000000000E+00  0.00000000000E+00  0.38556364348E+01  0.38556364348E+01  0.00000000000E+00 0. -1.
         21   -1    0    0  502  503 -0.00000000000E+00 -0.00000000000E+00 -0.21154752155E+03  0.21154752155E+03  0.00000000000E+00 0.  1.
          2    1    1    2  501    0  0.18678278815E+02  0.21578307675E+02 -0.10788802845E+03  0.11159896121E+03  0.00000000000E+00 0. -1.
         -2    1    1    2    0  503 -0.18678278815E+02 -0.21578307675E+02 -0.99803856668E+02  0.10380419677E+03  0.00000000000E+00 0.  1.
<mgrwt>
<rscale>  2 0.28539472E+02</rscale>
<asrwt>0</asrwt>
<pdfrwt beam="1">  1       21 0.59317490E-03 0.28539472E+02</pdfrwt>
<pdfrwt beam="2">  1       21 0.32545769E-01 0.28539472E+02</pdfrwt>
<totfact> 0.59094502E+07</totfact>
</mgrwt>
</event>
<event>
 4    1  0.2812958E+004  0.2091502E+02  0.7546771E-02  0.1727721E+00
         21   -1    0    0  503  502  0.00000000000E+00  0.00000000000E+00  0.13017443133E+03  0.13017443133E+03  0.00000000000E+00 0. -1.
         21   -1    0    0  501  503 -0.00000000000E+00 -0.00000000000E+00 -0.34076009216E+01  0.34076009216E+01  0.00000000000E+00 0.  1.
          2    1    1    2  501    0  0.11282689746E+02 -0.17610767905E+02  0.55522623796E+02  0.59331273266E+02  0.00000000000E+00 0.  1.
         -2    1    1    2    0  502 -0.11282689746E+02  0.17610767905E+02  0.71244206608E+02  0.74250758982E+02  0.00000000000E+00 0. -1.
<mgrwt>
<rscale>  2 0.20915024E+02</rscale>
<asrwt>0</asrwt>
<pdfrwt beam="1">  1       21 0.20026832E-01 0.20915024E+02</pdfrwt>
<pdfrwt beam="2">  1       21 0.52424639E-03 0.20915024E+02</pdfrwt>
<totfact> 0.15628796E+08</totfact>
</mgrwt>
</event>
<event>
 4    1  0.2812958E+004  0.2287779E+02  0.7546771E-02  0.1693499E+00
         21   -1    0    0  503  502  0.00000000000E+00  0.00000000000E+00  0.67699751941E+00  0.67699751941E+00  0.00000000000E+00 0. -1.
         21   -1    0    0  501  503 -0.00000000000E+00 -0.00000000000E+00 -0.10348888543E+04  0.10348888543E+04  0.00000000000E+00 0.  1.
          2    1    1    2  501    0  0.20873381542E+02  0.93645805879E+01 -0.77752231332E+03  0.77785881825E+03  0.00000000000E+00 0. -1.
         -2    1    1    2    0  502 -0.20873381542E+02 -0.93645805879E+01 -0.25668954347E+03  0.25770703357E+03  0.00000000000E+00 0.  1.
<mgrwt>
<rscale>  2 0.22877793E+02</rscale>
<asrwt>0</asrwt>
<pdfrwt beam="1">  1       21 0.10415349E-03 0.22877793E+02</pdfrwt>
<pdfrwt beam="2">  1       21 0.15921364E+00 0.22877793E+02</pdfrwt>
<totfact> 0.25834955E+07</totfact>
</mgrwt>
</event>
<event>
 4    1  0.2812958E+004  0.2112619E+02  0.7546771E-02  0.1723817E+00
         21   -1    0    0  503  502  0.00000000000E+00  0.00000000000E+00  0.80364279997E+01  0.80364279997E+01  0.00000000000E+00 0. -1.
         21   -1    0    0  501  503 -0.00000000000E+00 -0.00000000000E+00 -0.59152429282E+02  0.59152429282E+02  0.00000000000E+00 0.  1.
          2    1    1    2  501    0 -0.20982896060E+02 -0.24564514955E+01 -0.33863839047E+02  0.39913352102E+02  0.00000000000E+00 0.  1.
         -2    1    1    2    0  502  0.20982896060E+02  0.24564514955E+01 -0.17252162235E+02  0.27275505180E+02  0.00000000000E+00 0. -1.
<mgrwt>
<rscale>  2 0.21126194E+02</rscale>
<asrwt>0</asrwt>
<pdfrwt beam="1">  1       21 0.12363736E-02 0.21126194E+02</pdfrwt>
<pdfrwt beam="2">  1       21 0.91003735E-02 0.21126194E+02</pdfrwt>
<totfact> 0.16502678E+08</totfact>
</mgrwt>
</event>
<event>
 4    1  0.2812958E+004  0.2429753E+02  0.7546771E-02  0.1671302E+00
         21   -1    0    0  503  502  0.00000000000E+00  0.00000000000E+00  0.42367724630E+02  0.42367724630E+02  0.00000000000E+00 0. -1.
         21   -1    0    0  501  503 -0.00000000000E+00 -0.00000000000E+00 -0.14640482285E+02  0.14640482285E+02  0.00000000000E+00 0.  1.
          2    1    1    2  501    0 -0.22147947063E+02  0.99919187754E+01  0.76039891773E+01  0.25459588593E+02  0.00000000000E+00 0.  1.
         -2    1    1    2    0  502  0.22147947063E+02 -0.99919187754E+01  0.20123253168E+02  0.31548618322E+02  0.00000000000E+00 0. -1.
<mgrwt>
<rscale>  2 0.24297531E+02</rscale>
<asrwt>0</asrwt>
<pdfrwt beam="1">  1       21 0.65181114E-02 0.24297531E+02</pdfrwt>
<pdfrwt beam="2">  1       21 0.22523819E-02 0.24297531E+02</pdfrwt>
<totfact> 0.11871497E+08</totfact>
</mgrwt>
</event>
<event>
 4    1  0.2812958E+004  0.4164697E+02  0.7546771E-02  0.1496430E+00
         21   -1    0    0  501  502  0.00000000000E+00  0.00000000000E+00  0.37839346430E+02  0.37839346430E+02  0.00000000000E+00 0.  1.
         21   -1    0    0  502  503 -0.00000000000E+00 -0.00000000000E+00 -0.11906492501E+03  0.11906492501E+03  0.00000000000E+00 0. -1.
          2    1    1    2  501    0  0.73892193005E+01 -0.40986213203E+02  0.20911840705E+02  0.46602310203E+02  0.00000000000E+00 0.  1.
         -2    1    1    2    0  503 -0.73892193005E+01  0.40986213203E+02 -0.10213741929E+03  0.11030196124E+03  0.00000000000E+00 0. -1.
<mgrwt>
<rscale>  2 0.41646971E+02</rscale>
<asrwt>0</asrwt>
<pdfrwt beam="1">  1       21 0.58214379E-02 0.41646971E+02</pdfrwt>
<pdfrwt beam="2">  1       21 0.18317681E-01 0.41646971E+02</pdfrwt>
<totfact> 0.50875203E+06</totfact>
</mgrwt>
</event>
<event>
 4    1  0.2812958E+004  0.2022404E+02  0.7546771E-02  0.1740909E+00
         21   -1    0    0  503  502  0.00000000000E+00  0.00000000000E+00  0.10856787079E+04  0.10856787079E+04  0.00000000000E+00 0.  1.
         21   -1    0    0  501  503 -0.00000000000E+00 -0.00000000000E+00 -0.19530777837E+01  0.19530777837E+01  0.00000000000E+00 0. -1.
          2    1    1    2  501    0  0.19092071864E+02 -0.66711664667E+01  0.53303107395E+02  0.57010814132E+02  0.00000000000E+00 0. -1.
         -2    1    1    2    0  502 -0.19092071864E+02  0.66711664667E+01  0.10304225227E+04  0.10306209716E+04  0.00000000000E+00 0.  1.
<mgrwt>
<rscale>  2 0.20224037E+02</rscale>
<asrwt>0</asrwt>
<pdfrwt beam="1">  1       21 0.16702701E+00 0.20224037E+02</pdfrwt>
<pdfrwt beam="2">  1       21 0.30047437E-03 0.20224037E+02</pdfrwt>
<totfact> 0.49282230E+06</totfact>
</mgrwt>
</event>
<event>
 4    1  0.2812958E+004  0.2687883E+02  0.7546771E-02  0.1635395E+00
         21   -1    0    0  503  502  0.00000000000E+00  0.00000000000E+00  0.10234501265E+04  0.10234501265E+04  0.00000000000E+00 0.  1.
         21   -1    0    0  501  503 -0.00000000000E+00 -0.00000000000E+00 -0.31410545351E+01  0.31410545351E+01  0.00000000000E+00 0. -1.
          2    1    1    2  501    0 -0.24726945952E+02  0.10538009743E+02  0.58203397381E+02  0.64110115989E+02  0.00000000000E+00 0. -1.
         -2    1    1    2    0  502  0.24726945952E+02 -0.10538009743E+02  0.96210567462E+03  0.96248106509E+03  0.00000000000E+00 0.  1.
<mgrwt>
<rscale>  2 0.26878830E+02</rscale>
<asrwt>0</asrwt>
<pdfrwt beam="1">  1       21 0.15745360E+00 0.26878830E+02</pdfrwt>
<pdfrwt beam="2">  1       21 0.48323997E-03 0.26878830E+02</pdfrwt>
<totfact> 0.29203054E+06</totfact>
</mgrwt>
</event>
<event>
 4    1  0.2812958E+004  0.1089105E+03  0.7546771E-02  0.1262601E+00
         21   -1    0    0  501  502  0.00000000000E+00  0.00000000000E+00  0.22480725114E+03  0.22480725114E+03  0.00000000000E+00 0.  1.
         21   -1    0    0  502  503 -0.00000000000E+00 -0.00000000000E+00 -0.18464835642E+03  0.18464835642E+03  0.00000000000E+00 0. -1.
          2    1    1    2  501    0 -0.60577987579E+02 -0.90508612325E+02  0.19310188200E+03  0.22169762813E+03  0.00000000000E+00 0.  1.
         -2    1    1    2    0  503  0.60577987579E+02  0.90508612325E+02 -0.15294298728E+03  0.18775797944E+03  0.00000000000E+00 0. -1.
<mgrwt>
<rscale>  2 0.10891052E+03</rscale>
<asrwt>0</asrwt>
<pdfrwt beam="1">  1       21 0.34585731E-01 0.10891052E+03</pdfrwt>
<pdfrwt beam="2">  1       21 0.28407440E-01 0.10891052E+03</pdfrwt>
<totfact> 0.98718819E+04</totfact>
</mgrwt>
</event>
<event>
 4    1  0.2812958E+004  0.2114004E+02  0.7546771E-02  0.1723563E+00
         21   -1    0    0  503  502  0.00000000000E+00  0.00000000000E+00  0.27465224929E+02  0.27465224929E+02  0.00000000000E+00 0. -1.
         21   -1    0    0  501  503 -0.00000000000E+00 -0.00000000000E+00 -0.19139498440E+02  0.19139498440E+02  0.00000000000E+00 0.  1.
          2    1    1    2  501    0  0.17091856452E+01  0.21070833385E+02 -0.48574487770E+01  0.21690923073E+02  0.00000000000E+00 0. -1.
         -2    1    1    2    0  502 -0.17091856452E+01 -0.21070833385E+02  0.13183175266E+02  0.24913800296E+02  0.00000000000E+00 0.  1.
<mgrwt>
<rscale>  2 0.21140041E+02</rscale>
<asrwt>0</asrwt>
<pdfrwt beam="1">  1       21 0.42254192E-02 0.21140041E+02</pdfrwt>
<pdfrwt beam="2">  1       21 0.29445382E-02 0.21140041E+02</pdfrwt>
<totfact> 0.15015038E+08</totfact>
</mgrwt>
</event>
<event>
 4    1  0.2812958E+004  0.2186643E+02  0.7546771E-02  0.1710572E+00
         21   -1    0    0  501  502  0.00000000000E+00  0.00000000000E+00  0.44107186516E+01  0.44107186516E+01  0.00000000000E+00 0. -1.
         21   -1    0    0  502  503 -0.00000000000E+00 -0.00000000000E+00 -0.14472450085E+03  0.14472450085E+03  0.00000000000E+00 0.  1.
          2    1    1    2  501    0 -0.81383939962E+00  0.21851278439E+02 -0.32801478738E+02  0.39421792341E+02  0.00000000000E+00 0. -1.
         -2    1    1    2    0  503  0.81383939962E+00 -0.21851278439E+02 -0.10751230346E+03  0.10971342716E+03  0.00000000000E+00 0.  1.
<mgrwt>
<rscale>  2 0.21866429E+02</rscale>
<asrwt>0</asrwt>
<pdfrwt beam="1">  1       21 0.67857201E-03 0.21866429E+02</pdfrwt>
<pdfrwt beam="2">  1       21 0.22265311E-01 0.21866429E+02</pdfrwt>
<totfact> 0.89832727E+07</totfact>
</mgrwt>
</event>
<event>
 4    1  0.2812958E+004  0.5106925E+02  0.7546771E-02  0.1439658E+00
         21   -1    0    0  503  502  0.00000000000E+00  0.00000000000E+00  0.14255888731E+02  0.14255888731E+02  0.00000000000E+00 0.  1.
         21   -1    0    0  501  503 -0.00000000000E+00 -0.00000000000E+00 -0.26355816302E+03  0.26355816302E+03  0.00000000000E+00 0. -1.
          2    1    1    2  501    0  0.11687744632E+02 -0.49713827229E+02 -0.20147291292E+03  0.20784465986E+03  0.00000000000E+00 0. -1.
         -2    1    1    2    0  502 -0.11687744632E+02  0.49713827229E+02 -0.47829361367E+02  0.69969391888E+02  0.00000000000E+00 0.  1.
<mgrwt>
<rscale>  2 0.51069247E+02</rscale>
<asrwt>0</asrwt>
<pdfrwt beam="1">  1       21 0.21932136E-02 0.51069247E+02</pdfrwt>
<pdfrwt beam="2">  1       21 0.40547410E-01 0.51069247E+02</pdfrwt>
<totfact> 0.57281997E+06</totfact>
</mgrwt>
</event>
<event>
 4    1  0.2812958E+004  0.2387785E+02  0.7546771E-02  0.1677663E+00
         21   -1    0    0  501  502  0.00000000000E+00  0.00000000000E+00  0.47094362914E+02  0.47094362914E+02  0.00000000000E+00 0. -1.
         21   -1    0    0  502  503 -0.00000000000E+00 -0.00000000000E+00 -0.12489459486E+02  0.12489459486E+02  0.00000000000E+00 0.  1.
          2    1    1    2  501    0 -0.52912863251E+01 -0.23284202698E+02  0.22518672641E+02  0.32821371449E+02  0.00000000000E+00 0. -1.
         -2    1    1    2    0  503  0.52912863251E+01  0.23284202698E+02  0.12086230787E+02  0.26762450951E+02  0.00000000000E+00 0.  1.
<mgrwt>
<rscale>  2 0.23877852E+02</rscale>
<asrwt>0</asrwt>
<pdfrwt beam="1">  1       21 0.72452865E-02 0.23877852E+02</pdfrwt>
<pdfrwt beam="2">  1       21 0.19214553E-02 0.23877852E+02</pdfrwt>
<totfact> 0.12707199E+08</totfact>
</mgrwt>
</event>
<event>
 4    1  0.2812958E+004  0.3110144E+02  0.7546771E-02  0.1586223E+00
         21   -1    0    0  503  502  0.00000000000E+00  0.00000000000E+00  0.32012676047E+02  0.32012676047E+02  0.00000000000E+00 0.  1.
         21   -1    0    0  501  503 -0.00000000000E+00 -0.00000000000E+00 -0.96607242678E+02  0.96607242678E+02  0.00000000000E+00 0. -1.
          2    1    1    2  501    0  0.28724596575E+02 -0.11924634397E+02 -0.85609697286E+02  0.91084134861E+02  0.00000000000E+00 0. -1.
         -2    1    1    2    0  502 -0.28724596575E+02  0.11924634397E+02  0.21015130655E+02  0.37535783865E+02  0.00000000000E+00 0.  1.
<mgrwt>
<rscale>  2 0.31101437E+02</rscale>
<asrwt>0</asrwt>
<pdfrwt beam="1">  1       21 0.49250271E-02 0.31101437E+02</pdfrwt>
<pdfrwt beam="2">  1       21 0.14862653E-01 0.31101437E+02</pdfrwt>
<totfact> 0.92518523E+06</totfact>
</mgrwt>
</event>
<event>
 4    1  0.2812958E+004  0.2381101E+02  0.7546771E-02  0.1678691E+00
         21   -1    0    0  501  502  0.00000000000E+00  0.00000000000E+00  0.68509920099E+03  0.68509920099E+03  0.00000000000E+00 0. -1.
         21   -1    0    0  502  503 -0.00000000000E+00 -0.00000000000E+00 -0.10848286676E+01  0.10848286676E+01  0.00000000000E+00 0.  1.
          2    1    1    2  501    0  0.13725061801E+02 -0.19457310549E+02  0.50908511994E+03  0.50964166195E+03  0.00000000000E+00 0. -1.
         -2    1    1    2    0  503 -0.13725061801E+02  0.19457310549E+02  0.17492925239E+03  0.17654236771E+03  0.00000000000E+00 0.  1.
<mgrwt>
<rscale>  2 0.23811011E+02</rscale>
<asrwt>0</asrwt>
<pdfrwt beam="1">  1       21 0.10539953E+00 0.23811011E+02</pdfrwt>
<pdfrwt beam="2">  1       21 0.16689727E-03 0.23811011E+02</pdfrwt>
<totfact> 0.34259300E+07</totfact>
</mgrwt>
</event>
<event>
 4    1  0.2812958E+004  0.2432417E+02  0.7546771E-02  0.1670903E+00
         21   -1    0    0  503  502  0.00000000000E+00  0.00000000000E+00  0.51456390080E+02  0.51456390080E+02  0.00000000000E+00 0. -1.
         21   -1    0    0  501  503 -0.00000000000E+00 -0.00000000000E+00 -0.21082460797E+02  0.21082460797E+02  0.00000000000E+00 0.  1.
          2    1    1    2  501    0 -0.15651525524E+02  0.18619746608E+02 -0.92673344319E+01  0.26029765701E+02  0.00000000000E+00 0.  1.
         -2    1    1    2    0  502  0.15651525524E+02 -0.18619746608E+02  0.39641263715E+02  0.46509085176E+02  0.00000000000E+00 0. -1.
<mgrwt>
<rscale>  2 0.24324169E+02</rscale>
<asrwt>0</asrwt>
<pdfrwt beam="1">  1       21 0.79163677E-02 0.24324169E+02</pdfrwt>
<pdfrwt beam="2">  1       21 0.32434555E-02 0.24324169E+02</pdfrwt>
<totfact> 0.49121549E+07</totfact>
</mgrwt>
</event>
<event>
 4    1  0.2812958E+004  0.2072640E+02  0.7546771E-02  0.1731257E+00
         21   -1    0    0  501  502  0.00000000000E+00  0.00000000000E+00  0.13356525900E+02  0.13356525900E+02  0.00000000000E+00 0. -1.
         21   -1    0    0  502  503 -0.00000000000E+00 -0.00000000000E+00 -0.41508117940E+02  0.41508117940E+02  0.00000000000E+00 0.  1.
          2    1    1    2  501    0 -0.10660113896E+02  0.17774861101E+02 -0.10593531845E+01  0.20753456209E+02  0.00000000000E+00 0. -1.
         -2    1    1    2    0  503  0.10660113896E+02 -0.17774861101E+02 -0.27092238855E+02  0.34111187631E+02  0.00000000000E+00 0.  1.
<mgrwt>
<rscale>  2 0.20726401E+02</rscale>
<asrwt>0</asrwt>
<pdfrwt beam="1">  1       21 0.20548502E-02 0.20726401E+02</pdfrwt>
<pdfrwt beam="2">  1       21 0.63858642E-02 0.20726401E+02</pdfrwt>
<totfact> 0.13474728E+08</totfact>
</mgrwt>
</event>
<event>
 4    1  0.2812958E+004  0.2148747E+02  0.7546771E-02  0.1717270E+00
         21   -1    0    0  501  502  0.00000000000E+00  0.00000000000E+00  0.13910843385E+04  0.13910843385E+04  0.00000000000E+00 0. -1.
         21   -1    0    0  502  503 -0.00000000000E+00 -0.00000000000E+00 -0.33202126314E+00  0.33202126314E+00  0.00000000000E+00 0.  1.
          2    1    1    2  501    0  0.21469901732E+02  0.86872914590E+00  0.70825219949E+03  0.70857807576E+03  0.00000000000E+00 0. -1.
         -2    1    1    2    0  503 -0.21469901732E+02 -0.86872914590E+00  0.68250011775E+03  0.68283828400E+03  0.00000000000E+00 0.  1.
<mgrwt>
<rscale>  2 0.21487470E+02</rscale>
<asrwt>0</asrwt>
<pdfrwt beam="1">  1       21 0.21400831E+00 0.21487470E+02</pdfrwt>
<pdfrwt beam="2">  1       21 0.51081308E-04 0.21487470E+02</pdfrwt>
<totfact> 0.33383539E+07</totfact>
</mgrwt>
</event>
<event>
 4    1  0.2812958E+004  0.2153371E+02  0.7546771E-02  0.1716443E+00
         21   -1    0    0  503  502  0.00000000000E+00  0.00000000000E+00  0.84314615693E+02  0.84314615693E+02  0.00000000000E+00 0.  1.
         21   -1    0    0  501  503 -0.00000000000E+00 -0.00000000000E+00 -0.97851260307E+01  0.97851260307E+01  0.00000000000E+00 0. -1.
          2    1    1    2  501    0 -0.11510412832E+02  0.18199209062E+02  0.61278860862E+01  0.22388653419E+02  0.00000000000E+00 0. -1.
         -2    1    1    2    0  502  0.11510412832E+02 -0.18199209062E+02  0.68401603576E+02  0.71711088304E+02  0.00000000000E+00 0.  1.
<mgrwt>
<rscale>  2 0.21533713E+02</rscale>
<asrwt>0</asrwt>
<pdfrwt beam="1">  1       21 0.12971479E-01 0.21533713E+02</pdfrwt>
<pdfrwt beam="2">  1       21 0.15054041E-02 0.21533713E+02</pdfrwt>
<totfact> 0.68469831E+07</totfact>
</mgrwt>
</event>
<event>
 4    1  0.2812958E+004  0.3101512E+02  0.7546771E-02  0.1587132E+00
         21   -1    0    0  501  502  0.00000000000E+00  0.00000000000E+00  0.77511797198E+00  0.77511797198E+00  0.00000000000E+00 0.  1.
         21   -1    0    0  502  503 -0.00000000000E+00 -0.00000000000E+00 -0.15781068495E+04  0.15781068495E+04  0.00000000000E+00 0. -1.
          2    1    1    2  501    0  0.30995107794E+02  0.11139152346E+01 -0.42380955227E+03  0.42494290688E+03  0.00000000000E+00 0.  1.
         -2    1    1    2    0  503 -0.30995107794E+02 -0.11139152346E+01 -0.11535221792E+04  0.11539390606E+04  0.00000000000E+00 0. -1.
<mgrwt>
<rscale>  2 0.31015118E+02</rscale>
<asrwt>0</asrwt>
<pdfrwt beam="1">  1       21 0.11924956E-03 0.31015118E+02</pdfrwt>
<pdfrwt beam="2">  1       21 0.24278437E+00 0.31015118E+02</pdfrwt>
<totfact> 0.73264729E+06</totfact>
</mgrwt>
</event>
<event>
 4    1  0.2812958E+004  0.2271795E+02  0.7546771E-02  0.1696123E+00
         21   -1    0    0  501  502  0.00000000000E+00  0.00000000000E+00  0.51925467580E+02  0.51925467580E+02  0.00000000000E+00 0. -1.
         21   -1    0    0  502  503 -0.00000000000E+00 -0.00000000000E+00 -0.32869711824E+02  0.32869711824E+02  0.00000000000E+00 0.  1.
          2    1    1    2  501    0 -0.22195762340E+02 -0.48428828349E+01  0.44939732792E+02  0.50355585225E+02  0.00000000000E+00 0. -1.
         -2    1    1    2    0  503  0.22195762340E+02  0.48428828349E+01 -0.25883977036E+02  0.34439594179E+02  0.00000000000E+00 0.  1.
<mgrwt>
<rscale>  2 0.22717953E+02</rscale>
<asrwt>0</asrwt>
<pdfrwt beam="1">  1       21 0.79885335E-02 0.22717953E+02</pdfrwt>
<pdfrwt beam="2">  1       21 0.50568787E-02 0.22717953E+02</pdfrwt>
<totfact> 0.23614249E+07</totfact>
</mgrwt>
</event>
<event>
 4    1  0.2812958E+004  0.2673128E+02  0.7546771E-02  0.1637312E+00
         21   -1    0    0  503  502  0.00000000000E+00  0.00000000000E+00  0.19779812026E+03  0.19779812026E+03  0.00000000000E+00 0. -1.
         21   -1    0    0  501  503 -0.00000000000E+00 -0.00000000000E+00 -0.70867620944E+01  0.70867620944E+01  0.00000000000E+00 0.  1.
          2    1    1    2  501    0  0.25352229114E+02 -0.84750080019E+01  0.23628729645E+02  0.35677417877E+02  0.00000000000E+00 0.  1.
         -2    1    1    2    0  502 -0.25352229114E+02  0.84750080019E+01  0.16708262852E+03  0.16920746448E+03  0.00000000000E+00 0. -1.
<mgrwt>
<rscale>  2 0.26731279E+02</rscale>
<asrwt>0</asrwt>
<pdfrwt beam="1">  1       21 0.30430476E-01 0.26731279E+02</pdfrwt>
<pdfrwt beam="2">  1       21 0.10902712E-02 0.26731279E+02</pdfrwt>
<totfact> 0.26431478E+07</totfact>
</mgrwt>
</event>
<event>
 4    1  0.2812958E+004  0.2103716E+02  0.7546771E-02  0.1725456E+00
         21   -1    0    0  503  502  0.00000000000E+00  0.00000000000E+00  0.25202933338E+01  0.25202933338E+01  0.00000000000E+00 0.  1.
         21   -1    0    0  501  503 -0.00000000000E+00 -0.00000000000E+00 -0.19692279951E+03  0.19692279951E+03  0.00000000000E+00 0. -1.
          2    1    1    2  501    0 -0.15032842027E+02  0.14716511523E+02 -0.13001599625E+03  0.13170695248E+03  0.00000000000E+00 0. -1.
         -2    1    1    2    0  502  0.15032842027E+02 -0.14716511523E+02 -0.64386509927E+02  0.67736140364E+02  0.00000000000E+00 0.  1.
<mgrwt>
<rscale>  2 0.21037159E+02</rscale>
<asrwt>0</asrwt>
<pdfrwt beam="1">  1       21 0.38773736E-03 0.21037159E+02</pdfrwt>
<pdfrwt beam="2">  1       21 0.30295821E-01 0.21037159E+02</pdfrwt>
<totfact> 0.11690995E+08</totfact>
</mgrwt>
</event>
<event>
 4    1  0.2812958E+004  0.2234262E+02  0.7546771E-02  0.1702393E+00
         21   -1    0    0  503  502  0.00000000000E+00  0.00000000000E+00  0.33492605972E+03  0.33492605972E+03  0.00000000000E+00 0. -1.
         21   -1    0    0  501  503 -0.00000000000E+00 -0.00000000000E+00 -0.20686993013E+02  0.20686993013E+02  0.00000000000E+00 0.  1.
          2    1    1    2  501    0  0.18918967173E+02  0.11885516090E+02 -0.14161963792E+02  0.26452864308E+02  0.00000000000E+00 0.  1.
         -2    1    1    2    0  502 -0.18918967173E+02 -0.11885516090E+02  0.32840103050E+03  0.32916018843E+03  0.00000000000E+00 0. -1.
<mgrwt>
<rscale>  2 0.22342623E+02</rscale>
<asrwt>0</asrwt>
<pdfrwt beam="1">  1       21 0.51527082E-01 0.22342623E+02</pdfrwt>
<pdfrwt beam="2">  1       21 0.31826145E-02 0.22342623E+02</pdfrwt>
<totfact> 0.18345445E+06</totfact>
</mgrwt>
</event>
<event>
 4    1  0.2812958E+004  0.2395554E+02  0.7546771E-02  0.1676473E+00
         21   -1    0    0  503  502  0.00000000000E+00  0.00000000000E+00  0.59548487998E+01  0.59548487998E+01  0.00000000000E+00 0. -1.
         21   -1    0    0  501  503 -0.00000000000E+00 -0.00000000000E+00 -0.97293188648E+02  0.97293188648E+02  0.00000000000E+00 0.  1.
          2    1    1    2  501    0  0.23942593250E+02 -0.78751454961E+00 -0.50698249740E+02  0.56072992406E+02  0.00000000000E+00 0.  1.
         -2    1    1    2    0  502 -0.23942593250E+02  0.78751454961E+00 -0.40640090108E+02  0.47175045042E+02  0.00000000000E+00 0. -1.
<mgrwt>
<rscale>  2 0.23955541E+02</rscale>
<asrwt>0</asrwt>
<pdfrwt beam="1">  1       21 0.91613062E-03 0.23955541E+02</pdfrwt>
<pdfrwt beam="2">  1       21 0.14968182E-01 0.23955541E+02</pdfrwt>
<totfact> 0.11708018E+08</totfact>
</mgrwt>
</event>
<event>
 4    1  0.2812958E+004  0.2408625E+02  0.7546771E-02  0.1674484E+00
         21   -1    0    0  501  502  0.00000000000E+00  0.00000000000E+00  0.13453788075E+01  0.13453788075E+01  0.00000000000E+00 0. -1.
         21   -1    0    0  502  503 -0.00000000000E+00 -0.00000000000E+00 -0.49750942152E+03  0.49750942152E+03  0.00000000000E+00 0.  1.
          2    1    1    2  501    0  0.12926006834E+02  0.20324017698E+02 -0.15703150302E+03  0.15886799642E+03  0.00000000000E+00 0. -1.
         -2    1    1    2    0  503 -0.12926006834E+02 -0.20324017698E+02 -0.33913253970E+03  0.33998680390E+03  0.00000000000E+00 0.  1.
<mgrwt>
<rscale>  2 0.24086248E+02</rscale>
<asrwt>0</asrwt>
<pdfrwt beam="1">  1       21 0.20698126E-03 0.24086248E+02</pdfrwt>
<pdfrwt beam="2">  1       21 0.76539946E-01 0.24086248E+02</pdfrwt>
<totfact> 0.50036066E+07</totfact>
</mgrwt>
</event>
<event>
 4    1  0.2812958E+004  0.2456070E+02  0.7546771E-02  0.1667393E+00
         21   -1    0    0  501  502  0.00000000000E+00  0.00000000000E+00  0.13740794338E+01  0.13740794338E+01  0.00000000000E+00 0. -1.
         21   -1    0    0  502  503 -0.00000000000E+00 -0.00000000000E+00 -0.44188012509E+03  0.44188012509E+03  0.00000000000E+00 0.  1.
          2    1    1    2  501    0 -0.24302842301E+02  0.35496368900E+01 -0.20237657644E+03  0.20386148915E+03  0.00000000000E+00 0. -1.
         -2    1    1    2    0  503  0.24302842301E+02 -0.35496368900E+01 -0.23812946921E+03  0.23939271537E+03  0.00000000000E+00 0.  1.
<mgrwt>
<rscale>  2 0.24560702E+02</rscale>
<asrwt>0</asrwt>
<pdfrwt beam="1">  1       21 0.21139697E-03 0.24560702E+02</pdfrwt>
<pdfrwt beam="2">  1       21 0.67981513E-01 0.24560702E+02</pdfrwt>
<totfact> 0.62272311E+07</totfact>
</mgrwt>
</event>
<event>
 4    1  0.2812958E+004  0.2086557E+02  0.7546771E-02  0.1728643E+00
         21   -1    0    0  501  502  0.00000000000E+00  0.00000000000E+00  0.26279111977E+02  0.26279111977E+02  0.00000000000E+00 0. -1.
         21   -1    0    0  502  503 -0.00000000000E+00 -0.00000000000E+00 -0.48269642860E+02  0.48269642860E+02  0.00000000000E+00 0.  1.
          2    1    1    2  501    0 -0.20808107403E+02 -0.15475172165E+01  0.19212562642E+02  0.28363615892E+02  0.00000000000E+00 0. -1.
         -2    1    1    2    0  503  0.20808107403E+02  0.15475172165E+01 -0.41203093525E+02  0.46185138944E+02  0.00000000000E+00 0.  1.
<mgrwt>
<rscale>  2 0.20865573E+02</rscale>
<asrwt>0</asrwt>
<pdfrwt beam="1">  1       21 0.40429403E-02 0.20865573E+02</pdfrwt>
<pdfrwt beam="2">  1       21 0.74260988E-02 0.20865573E+02</pdfrwt>
<totfact> 0.37101536E+07</totfact>
</mgrwt>
</event>
<event>
 4    1  0.2812958E+004  0.3695237E+02  0.7546771E-02  0.1531916E+00
         21   -1    0    0  503  502  0.00000000000E+00  0.00000000000E+00  0.22664499463E+03  0.22664499463E+03  0.00000000000E+00 0. -1.
         21   -1    0    0  501  503 -0.00000000000E+00 -0.00000000000E+00 -0.88214286195E+01  0.88214286195E+01  0.00000000000E+00 0.  1.
          2    1    1    2  501    0 -0.12332745224E+02 -0.34833618276E+02  0.42621259467E+02  0.56409656314E+02  0.00000000000E+00 0.  1.
         -2    1    1    2    0  502  0.12332745224E+02  0.34833618276E+02  0.17520230655E+03  0.17905676694E+03  0.00000000000E+00 0. -1.
<mgrwt>
<rscale>  2 0.36952369E+02</rscale>
<asrwt>0</asrwt>
<pdfrwt beam="1">  1       21 0.34868456E-01 0.36952369E+02</pdfrwt>
<pdfrwt beam="2">  1       21 0.13571430E-02 0.36952369E+02</pdfrwt>
<totfact> 0.15548168E+07</totfact>
</mgrwt>
</event>
<event>
 4    1  0.2812958E+004  0.2067100E+02  0.7546771E-02  0.1732304E+00
         21   -1    0    0  503  502  0.00000000000E+00  0.00000000000E+00  0.13307950270E+01  0.13307950270E+01  0.00000000000E+00 0.  1.
         21   -1    0    0  501  503 -0.00000000000E+00 -0.00000000000E+00 -0.74049310609E+03  0.74049310609E+03  0.00000000000E+00 0. -1.
          2    1    1    2  501    0  0.89529252123E+01 -0.18631566672E+02 -0.64872747548E+03  0.64905672139E+03  0.00000000000E+00 0. -1.
         -2    1    1    2    0  502 -0.89529252123E+01  0.18631566672E+02 -0.90434835587E+02  0.92767179725E+02  0.00000000000E+00 0.  1.
<mgrwt>
<rscale>  2 0.20670998E+02</rscale>
<asrwt>0</asrwt>
<pdfrwt beam="1">  1       21 0.20473787E-03 0.20670998E+02</pdfrwt>
<pdfrwt beam="2">  1       21 0.11392192E+00 0.20670998E+02</pdfrwt>
<totfact> 0.20883881E+07</totfact>
</mgrwt>
</event>
<event>
 4    1  0.2812958E+004  0.2328580E+02  0.7546771E-02  0.1686919E+00
         21   -1    0    0  503  502  0.00000000000E+00  0.00000000000E+00  0.63445229968E+02  0.63445229968E+02  0.00000000000E+00 0.  1.
         21   -1    0    0  501  503 -0.00000000000E+00 -0.00000000000E+00 -0.85541587566E+01  0.85541587566E+01  0.00000000000E+00 0. -1.
          2    1    1    2  501    0  0.23033584647E+02  0.34179429018E+01  0.26361389774E+02  0.35173160595E+02  0.00000000000E+00 0.  1.
         -2    1    1    2    0  502 -0.23033584647E+02 -0.34179429018E+01  0.28529681437E+02  0.36826228130E+02  0.00000000000E+00 0. -1.
<mgrwt>
<rscale>  2 0.23285797E+02</rscale>
<asrwt>0</asrwt>
<pdfrwt beam="1">  1       21 0.97608043E-02 0.23285797E+02</pdfrwt>
<pdfrwt beam="2">  1       21 0.13160245E-02 0.23285797E+02</pdfrwt>
<totfact> 0.13782471E+08</totfact>
</mgrwt>
</event>
<event>
 4    1  0.2812958E+004  0.2344680E+02  0.7546771E-02  0.1684368E+00
         21   -1    0    0  503  502  0.00000000000E+00  0.00000000000E+00  0.82095443697E+01  0.82095443697E+01  0.00000000000E+00 0.  1.
         21   -1    0    0  501  503 -0.00000000000E+00 -0.00000000000E+00 -0.74244134550E+02  0.74244134550E+02  0.00000000000E+00 0. -1.
          2    1    1    2  501    0  0.13775775745E+02  0.18973154736E+02 -0.45926133727E+02  0.51565127335E+02  0.00000000000E+00 0. -1.
         -2    1    1    2    0  502 -0.13775775745E+02 -0.18973154736E+02 -0.20108456453E+02  0.30888551584E+02  0.00000000000E+00 0.  1.
<mgrwt>
<rscale>  2 0.23446804E+02</rscale>
<asrwt>0</asrwt>
<pdfrwt beam="1">  1       21 0.12630069E-02 0.23446804E+02</pdfrwt>
<pdfrwt beam="2">  1       21 0.11422174E-01 0.23446804E+02</pdfrwt>
<totfact> 0.11319755E+08</totfact>
</mgrwt>
</event>
<event>
 4    1  0.2812958E+004  0.2140865E+02  0.7546771E-02  0.1718684E+00
         21   -1    0    0  503  502  0.00000000000E+00  0.00000000000E+00  0.28879431743E+02  0.28879431743E+02  0.00000000000E+00 0.  1.
         21   -1    0    0  501  503 -0.00000000000E+00 -0.00000000000E+00 -0.20923542463E+02  0.20923542463E+02  0.00000000000E+00 0. -1.
          2    1    1    2  501    0 -0.21384680944E+02 -0.10127287011E+01 -0.82593488203E+01  0.22946612853E+02  0.00000000000E+00 0.  1.
         -2    1    1    2    0  502  0.21384680944E+02  0.10127287011E+01  0.16215238101E+02  0.26856361353E+02  0.00000000000E+00 0. -1.
<mgrwt>
<rscale>  2 0.21408648E+02</rscale>
<asrwt>0</asrwt>
<pdfrwt beam="1">  1       21 0.44429895E-02 0.21408648E+02</pdfrwt>
<pdfrwt beam="2">  1       21 0.32190065E-02 0.21408648E+02</pdfrwt>
<totfact> 0.12124555E+08</totfact>
</mgrwt>
</event>
<event>
 4    1  0.2812958E+004  0.2927203E+02  0.7546771E-02  0.1606278E+00
         21   -1    0    0  503  502  0.00000000000E+00  0.00000000000E+00  0.63993719237E+02  0.63993719237E+02  0.00000000000E+00 0.  1.
         21   -1    0    0  501  503 -0.00000000000E+00 -0.00000000000E+00 -0.15163980258E+02  0.15163980258E+02  0.00000000000E+00 0. -1.
          2    1    1    2  501    0  0.27965305585E+02 -0.86483077695E+01  0.10876151587E+02  0.31227267204E+02  0.00000000000E+00 0. -1.
         -2    1    1    2    0  502 -0.27965305585E+02  0.86483077695E+01  0.37953587392E+02  0.47930432291E+02  0.00000000000E+00 0.  1.
<mgrwt>
<rscale>  2 0.29272027E+02</rscale>
<asrwt>0</asrwt>
<pdfrwt beam="1">  1       21 0.98451874E-02 0.29272027E+02</pdfrwt>
<pdfrwt beam="2">  1       21 0.23329201E-02 0.29272027E+02</pdfrwt>
<totfact> 0.59907716E+07</totfact>
</mgrwt>
</event>
<event>
 4    1  0.2812958E+004  0.2650792E+02  0.7546771E-02  0.1640242E+00
         21   -1    0    0  503  502  0.00000000000E+00  0.00000000000E+00  0.10038226838E+01  0.10038226838E+01  0.00000000000E+00 0.  1.
         21   -1    0    0  501  503 -0.00000000000E+00 -0.00000000000E+00 -0.76708263331E+03  0.76708263331E+03  0.00000000000E+00 0. -1.
          2    1    1    2  501    0  0.21777309094E+02 -0.15113530320E+02 -0.49661449155E+03  0.49732144857E+03  0.00000000000E+00 0.  1.
         -2    1    1    2    0  502 -0.21777309094E+02  0.15113530320E+02 -0.26946431907E+03  0.27076500742E+03  0.00000000000E+00 0. -1.
<mgrwt>
<rscale>  2 0.26507923E+02</rscale>
<asrwt>0</asrwt>
<pdfrwt beam="1">  1       21 0.15443364E-03 0.26507923E+02</pdfrwt>
<pdfrwt beam="2">  1       21 0.11801319E+00 0.26507923E+02</pdfrwt>
<totfact> 0.30350440E+07</totfact>
</mgrwt>
</event>
<event>
 4    1  0.2812958E+004  0.3603670E+02  0.7546771E-02  0.1539582E+00
         21   -1    0    0  501  502  0.00000000000E+00  0.00000000000E+00  0.68221040753E+03  0.68221040753E+03  0.00000000000E+00 0. -1.
         21   -1    0    0  502  503 -0.00000000000E+00 -0.00000000000E+00 -0.54858043239E+01  0.54858043239E+01  0.00000000000E+00 0.  1.
          2    1    1    2  501    0  0.12329985054E+02 -0.33861707582E+02  0.61622018285E+03  0.61727300080E+03  0.00000000000E+00 0. -1.
         -2    1    1    2    0  503 -0.12329985054E+02  0.33861707582E+02  0.60504420358E+02  0.70423211050E+02  0.00000000000E+00 0.  1.
<mgrwt>
<rscale>  2 0.36036700E+02</rscale>
<asrwt>0</asrwt>
<pdfrwt beam="1">  1       21 0.10495538E+00 0.36036700E+02</pdfrwt>
<pdfrwt beam="2">  1       21 0.84397044E-03 0.36036700E+02</pdfrwt>
<totfact> 0.33471351E+06</totfact>
</mgrwt>
</event>
<event>
 4    1  0.2812958E+004  0.2487901E+02  0.7546771E-02  0.1662746E+00
         21   -1    0    0  501  502  0.00000000000E+00  0.00000000000E+00  0.10132806935E+02  0.10132806935E+02  0.00000000000E+00 0. -1.
         21   -1    0    0  502  503 -0.00000000000E+00 -0.00000000000E+00 -0.13427089835E+03  0.13427089835E+03  0.00000000000E+00 0.  1.
          2    1    1    2  501    0  0.24567467673E+02  0.39248741303E+01 -0.87637522227E+01  0.26377423260E+02  0.00000000000E+00 0. -1.
         -2    1    1    2    0  503 -0.24567467673E+02 -0.39248741303E+01 -0.11537433920E+03  0.11802628203E+03  0.00000000000E+00 0.  1.
<mgrwt>
<rscale>  2 0.24879009E+02</rscale>
<asrwt>0</asrwt>
<pdfrwt beam="1">  1       21 0.15588933E-02 0.24879009E+02</pdfrwt>
<pdfrwt beam="2">  1       21 0.20657062E-01 0.24879009E+02</pdfrwt>
<totfact> 0.30290277E+07</totfact>
</mgrwt>
</event>
<event>
 4    1  0.2812958E+004  0.2857532E+02  0.7546771E-02  0.1614392E+00
         21   -1    0    0  503  502  0.00000000000E+00  0.00000000000E+00  0.43496527328E+02  0.43496527328E+02  0.00000000000E+00 0.  1.
         21   -1    0    0  501  503 -0.00000000000E+00 -0.00000000000E+00 -0.19274214354E+02  0.19274214354E+02  0.00000000000E+00 0. -1.
          2    1    1    2  501    0  0.14341912036E+02  0.24715554659E+02  0.70486866929E+01  0.29431837643E+02  0.00000000000E+00 0.  1.
         -2    1    1    2    0  502 -0.14341912036E+02 -0.24715554659E+02  0.17173626281E+02  0.33338904040E+02  0.00000000000E+00 0. -1.
<mgrwt>
<rscale>  2 0.28575323E+02</rscale>
<asrwt>0</asrwt>
<pdfrwt beam="1">  1       21 0.66917734E-02 0.28575323E+02</pdfrwt>
<pdfrwt beam="2">  1       21 0.29652638E-02 0.28575323E+02</pdfrwt>
<totfact> 0.77368851E+07</totfact>
</mgrwt>
</event>
<event>
 4    1  0.2812958E+004  0.2121749E+02  0.7546771E-02  0.1722147E+00
         21   -1    0    0  501  502  0.00000000000E+00  0.00000000000E+00  0.11080648216E+02  0.11080648216E+02  0.00000000000E+00 0. -1.
         21   -1    0    0  502  503 -0.00000000000E+00 -0.00000000000E+00 -0.60217027428E+02  0.60217027428E+02  0.00000000000E+00 0.  1.
          2    1    1    2  501    0 -0.22769844716E+01 -0.21094957424E+02 -0.42354992683E+01  0.21636111967E+02  0.00000000000E+00 0. -1.
         -2    1    1    2    0  503  0.22769844716E+01  0.21094957424E+02 -0.44900879944E+02  0.49661563677E+02  0.00000000000E+00 0.  1.
<mgrwt>
<rscale>  2 0.21217490E+02</rscale>
<asrwt>0</asrwt>
<pdfrwt beam="1">  1       21 0.17047151E-02 0.21217490E+02</pdfrwt>
<pdfrwt beam="2">  1       21 0.92641581E-02 0.21217490E+02</pdfrwt>
<totfact> 0.98677136E+07</totfact>
</mgrwt>
</event>
<event>
 4    1  0.2812958E+004  0.3282734E+02  0.7546771E-02  0.1568786E+00
         21   -1    0    0  501  502  0.00000000000E+00  0.00000000000E+00  0.25851854466E+03  0.25851854466E+03  0.00000000000E+00 0. -1.
         21   -1    0    0  502  503 -0.00000000000E+00 -0.00000000000E+00 -0.87877742027E+01  0.87877742027E+01  0.00000000000E+00 0.  1.
          2    1    1    2  501    0  0.32756970295E+02  0.21483149921E+01  0.22176603549E+03  0.22418253468E+03  0.00000000000E+00 0. -1.
         -2    1    1    2    0  503 -0.32756970295E+02 -0.21483149921E+01  0.27964734970E+02  0.43123784182E+02  0.00000000000E+00 0.  1.
<mgrwt>
<rscale>  2 0.32827342E+02</rscale>
<asrwt>0</asrwt>
<pdfrwt beam="1">  1       21 0.39772078E-01 0.32827342E+02</pdfrwt>
<pdfrwt beam="2">  1       21 0.13519655E-02 0.32827342E+02</pdfrwt>
<totfact> 0.11966461E+07</totfact>
</mgrwt>
</event>
<event>
 4    1  0.2812958E+004  0.2033866E+02  0.7546771E-02  0.1738676E+00
         21   -1    0    0  501  502  0.00000000000E+00  0.00000000000E+00  0.10664744840E+03  0.10664744840E+03  0.00000000000E+00 0.  1.
         21   -1    0    0  502  503 -0.00000000000E+00 -0.00000000000E+00 -0.51718088899E+02  0.51718088899E+02  0.00000000000E+00 0. -1.
          2    1    1    2  501    0 -0.72227640170E+01  0.19012961156E+02  0.10362029637E+03  0.10559747550E+03  0.00000000000E+00 0.  1.
         -2    1    1    2    0  503  0.72227640170E+01 -0.19012961156E+02 -0.48690936874E+02  0.52768061795E+02  0.00000000000E+00 0. -1.
<mgrwt>
<rscale>  2 0.20338658E+02</rscale>
<asrwt>0</asrwt>
<pdfrwt beam="1">  1       21 0.16407300E-01 0.20338658E+02</pdfrwt>
<pdfrwt beam="2">  1       21 0.79566291E-02 0.20338658E+02</pdfrwt>
<totfact> 0.33652628E+06</totfact>
</mgrwt>
</event>
<event>
 4    1  0.2812958E+004  0.2813205E+02  0.7546771E-02  0.1619704E+00
         21   -1    0    0  503  502  0.00000000000E+00  0.00000000000E+00  0.75691909089E+02  0.75691909089E+02  0.00000000000E+00 0. -1.
         21   -1    0    0  501  503 -0.00000000000E+00 -0.00000000000E+00 -0.11333253958E+02  0.11333253958E+02  0.00000000000E+00 0.  1.
          2    1    1    2  501    0  0.83163004327E+01  0.26874738387E+02  0.20071318247E+02  0.34558215122E+02  0.00000000000E+00 0.  1.
         -2    1    1    2    0  502 -0.83163004327E+01 -0.26874738387E+02  0.44287336884E+02  0.52466947925E+02  0.00000000000E+00 0. -1.
<mgrwt>
<rscale>  2 0.28132053E+02</rscale>
<asrwt>0</asrwt>
<pdfrwt beam="1">  1       21 0.11644909E-01 0.28132053E+02</pdfrwt>
<pdfrwt beam="2">  1       21 0.17435776E-02 0.28132053E+02</pdfrwt>
<totfact> 0.70264802E+07</totfact>
</mgrwt>
</event>
<event>
 4    1  0.2812958E+004  0.3252896E+02  0.7546771E-02  0.1571707E+00
         21   -1    0    0  503  502  0.00000000000E+00  0.00000000000E+00  0.31004948307E+02  0.31004948307E+02  0.00000000000E+00 0. -1.
         21   -1    0    0  501  503 -0.00000000000E+00 -0.00000000000E+00 -0.34333014798E+02  0.34333014798E+02  0.00000000000E+00 0.  1.
          2    1    1    2  501    0  0.13902712054E+02  0.29408297839E+02  0.86114172006E+00  0.32540358777E+02  0.00000000000E+00 0.  1.
         -2    1    1    2    0  502 -0.13902712054E+02 -0.29408297839E+02 -0.41892082111E+01  0.32797604329E+02  0.00000000000E+00 0. -1.
<mgrwt>
<rscale>  2 0.32528962E+02</rscale>
<asrwt>0</asrwt>
<pdfrwt beam="1">  1       21 0.47699920E-02 0.32528962E+02</pdfrwt>
<pdfrwt beam="2">  1       21 0.52820023E-02 0.32528962E+02</pdfrwt>
<totfact> 0.54987807E+07</totfact>
</mgrwt>
</event>
<event>
 4    1  0.2812958E+004  0.2420258E+02  0.7546771E-02  0.1672727E+00
         21   -1    0    0  501  502  0.00000000000E+00  0.00000000000E+00  0.14434909060E+02  0.14434909060E+02  0.00000000000E+00 0.  1.
         21   -1    0    0  502  503 -0.00000000000E+00 -0.00000000000E+00 -0.70143173653E+02  0.70143173653E+02  0.00000000000E+00 0. -1.
          2    1    1    2  501    0  0.17403709426E+02 -0.16818908098E+02 -0.39969071197E+00  0.24205877882E+02  0.00000000000E+00 0.  1.
         -2    1    1    2    0  503 -0.17403709426E+02  0.16818908098E+02 -0.55308573881E+02  0.60372204831E+02  0.00000000000E+00 0. -1.
<mgrwt>
<rscale>  2 0.24202578E+02</rscale>
<asrwt>0</asrwt>
<pdfrwt beam="1">  1       21 0.22207553E-02 0.24202578E+02</pdfrwt>
<pdfrwt beam="2">  1       21 0.10791257E-01 0.24202578E+02</pdfrwt>
<totfact> 0.53010425E+07</totfact>
</mgrwt>
</event>
<event>
 4    1  0.2812958E+004  0.2147378E+02  0.7546771E-02  0.1717515E+00
         21   -1    0    0  503  502  0.00000000000E+00  0.00000000000E+00  0.88865136026E+00  0.88865136026E+00  0.00000000000E+00 0. -1.
         21   -1    0    0  501  503 -0.00000000000E+00 -0.00000000000E+00 -0.53843356400E+03  0.53843356400E+03  0.00000000000E+00 0.  1.
          2    1    1    2  501    0  0.20538688874E+02 -0.62678074164E+01 -0.21741322900E+03  0.21847113149E+03  0.00000000000E+00 0.  1.
         -2    1    1    2    0  502 -0.20538688874E+02  0.62678074164E+01 -0.32013168364E+03  0.32085108387E+03  0.00000000000E+00 0. -1.
<mgrwt>
<rscale>  2 0.21473778E+02</rscale>
<asrwt>0</asrwt>
<pdfrwt beam="1">  1       21 0.13671555E-03 0.21473778E+02</pdfrwt>
<pdfrwt beam="2">  1       21 0.82835959E-01 0.21473778E+02</pdfrwt>
<totfact> 0.74943641E+07</totfact>
</mgrwt>
</event>
<event>
 4    1  0.2812958E+004  0.2106469E+02  0.7546771E-02  0.1724948E+00
         21   -1    0    0  503  502  0.00000000000E+00  0.00000000000E+00  0.85301443267E+01  0.85301443267E+01  0.00000000000E+00 0. -1.
         21   -1    0    0  501  503 -0.00000000000E+00 -0.00000000000E+00 -0.15764144304E+03  0.15764144304E+03  0.00000000000E+00 0.  1.
          2    1    1    2  501    0 -0.11500266777E+02  0.17648370581E+02 -0.14256548333E+03  0.14411328237E+03  0.00000000000E+00 0.  1.
         -2    1    1    2    0  502  0.11500266777E+02 -0.17648370581E+02 -0.65458153863E+01  0.22058304993E+02  0.00000000000E+00 0. -1.
<mgrwt>
<rscale>  2 0.21064689E+02</rscale>
<asrwt>0</asrwt>
<pdfrwt beam="1">  1       21 0.13123299E-02 0.21064689E+02</pdfrwt>
<pdfrwt beam="2">  1       21 0.24252529E-01 0.21064689E+02</pdfrwt>
<totfact> 0.28528114E+07</totfact>
</mgrwt>
</event>
<event>
 4    1  0.2812958E+004  0.2156908E+02  0.7546771E-02  0.1715813E+00
         21   -1    0    0  503  502  0.00000000000E+00  0.00000000000E+00  0.12631894019E+04  0.12631894019E+04  0.00000000000E+00 0. -1.
         21   -1    0    0  501  503 -0.00000000000E+00 -0.00000000000E+00 -0.47043842049E+00  0.47043842049E+00  0.00000000000E+00 0.  1.
          2    1    1    2  501    0  0.19617707354E+02  0.89649755730E+01  0.33694723858E+03  0.33763688604E+03  0.00000000000E+00 0.  1.
         -2    1    1    2    0  502 -0.19617707354E+02 -0.89649755730E+01  0.92577172490E+03  0.92602295428E+03  0.00000000000E+00 0. -1.
<mgrwt>
<rscale>  2 0.21569080E+02</rscale>
<asrwt>0</asrwt>
<pdfrwt beam="1">  1       21 0.19433412E+00 0.21569080E+02</pdfrwt>
<pdfrwt beam="2">  1       21 0.72376153E-04 0.21569080E+02</pdfrwt>
<totfact> 0.26215623E+07</totfact>
</mgrwt>
</event>
<event>
 4    1  0.2812958E+004  0.3019378E+02  0.7546771E-02  0.1595957E+00
         21   -1    0    0  501  502  0.00000000000E+00  0.00000000000E+00  0.11653102075E+04  0.11653102075E+04  0.00000000000E+00 0. -1.
         21   -1    0    0  502  503 -0.00000000000E+00 -0.00000000000E+00 -0.15295733407E+01  0.15295733407E+01  0.00000000000E+00 0.  1.
          2    1    1    2  501    0  0.25794419032E+02 -0.15694331530E+02  0.98966979867E+03  0.99013028158E+03  0.00000000000E+00 0. -1.
         -2    1    1    2    0  503 -0.25794419032E+02  0.15694331530E+02  0.17411083549E+03  0.17670949927E+03  0.00000000000E+00 0.  1.
<mgrwt>
<rscale>  2 0.30193776E+02</rscale>
<asrwt>0</asrwt>
<pdfrwt beam="1">  1       21 0.17927778E+00 0.30193776E+02</pdfrwt>
<pdfrwt beam="2">  1       21 0.23531991E-03 0.30193776E+02</pdfrwt>
<totfact> 0.61656029E+06</totfact>
</mgrwt>
</event>
<event>
 4    1  0.2812958E+004  0.2409743E+02  0.7546771E-02  0.1674315E+00
         21   -1    0    0  501  502  0.00000000000E+00  0.00000000000E+00  0.31482840355E+01  0.31482840355E+01  0.00000000000E+00 0.  1.
         21   -1    0    0  502  503 -0.00000000000E+00 -0.00000000000E+00 -0.18546920856E+03  0.18546920856E+03  0.00000000000E+00 0. -1.
          2    1    1    2  501    0  0.61236579724E+01 -0.23306371467E+02 -0.84153167469E+02  0.87535374181E+02  0.00000000000E+00 0.  1.
         -2    1    1    2    0  503 -0.61236579724E+01  0.23306371467E+02 -0.98167757055E+02  0.10108211841E+03  0.00000000000E+00 0. -1.
<mgrwt>
<rscale>  2 0.24097430E+02</rscale>
<asrwt>0</asrwt>
<pdfrwt beam="1">  1       21 0.48435129E-03 0.24097430E+02</pdfrwt>
<pdfrwt beam="2">  1       21 0.28533730E-01 0.24097430E+02</pdfrwt>
<totfact> 0.97562175E+07</totfact>
</mgrwt>
</event>
<event>
 4    1  0.2812958E+004  0.3920239E+02  0.7546771E-02  0.1514164E+00
         21   -1    0    0  501  502  0.00000000000E+00  0.00000000000E+00  0.16565741702E+03  0.16565741702E+03  0.00000000000E+00 0.  1.
         21   -1    0    0  502  503 -0.00000000000E+00 -0.00000000000E+00 -0.92974692639E+01  0.92974692639E+01  0.00000000000E+00 0. -1.
          2    1    1    2  501    0 -0.38828890494E+02  0.53985640339E+01  0.82270346469E+02  0.91133073791E+02  0.00000000000E+00 0.  1.
         -2    1    1    2    0  503  0.38828890494E+02 -0.53985640339E+01  0.74089601289E+02  0.83821812494E+02  0.00000000000E+00 0. -1.
<mgrwt>
<rscale>  2 0.39202388E+02</rscale>
<asrwt>0</asrwt>
<pdfrwt beam="1">  1       21 0.25485754E-01 0.39202388E+02</pdfrwt>
<pdfrwt beam="2">  1       21 0.14303800E-02 0.39202388E+02</pdfrwt>
<totfact> 0.25883047E+07</totfact>
</mgrwt>
</event>
<event>
 4    1  0.2812958E+004  0.2134169E+02  0.7546771E-02  0.1719892E+00
         21   -1    0    0  501  502  0.00000000000E+00  0.00000000000E+00  0.19075362812E+01  0.19075362812E+01  0.00000000000E+00 0. -1.
         21   -1    0    0  502  503 -0.00000000000E+00 -0.00000000000E+00 -0.58266714993E+03  0.58266714993E+03  0.00000000000E+00 0.  1.
          2    1    1    2  501    0 -0.17631538670E+02 -0.12024823619E+02 -0.65830177551E+02  0.69203177784E+02  0.00000000000E+00 0. -1.
         -2    1    1    2    0  503  0.17631538670E+02  0.12024823619E+02 -0.51492943610E+03  0.51537150843E+03  0.00000000000E+00 0.  1.
<mgrwt>
<rscale>  2 0.21341685E+02</rscale>
<asrwt>0</asrwt>
<pdfrwt beam="1">  1       21 0.29346686E-03 0.21341685E+02</pdfrwt>
<pdfrwt beam="2">  1       21 0.89641181E-01 0.21341685E+02</pdfrwt>
<totfact> 0.21067784E+07</totfact>
</mgrwt>
</event>
<event>
 4    1  0.2812958E+004  0.2582807E+02  0.7546771E-02  0.1649385E+00
         21   -1    0    0  503  502  0.00000000000E+00  0.00000000000E+00  0.39436045438E+02  0.39436045438E+02  0.00000000000E+00 0.  1.
         21   -1    0    0  501  503 -0.00000000000E+00 -0.00000000000E+00 -0.21234756582E+02  0.21234756582E+02  0.00000000000E+00 0. -1.
          2    1    1    2  501    0 -0.24118498959E+02  0.92405146486E+01 -0.45804089552E+01  0.26231074115E+02  0.00000000000E+00 0. -1.
         -2    1    1    2    0  502  0.24118498959E+02 -0.92405146486E+01  0.22781697811E+02  0.34439727905E+02  0.00000000000E+00 0.  1.
<mgrwt>
<rscale>  2 0.25828068E+02</rscale>
<asrwt>0</asrwt>
<pdfrwt beam="1">  1       21 0.60670839E-02 0.25828068E+02</pdfrwt>
<pdfrwt beam="2">  1       21 0.32668856E-02 0.25828068E+02</pdfrwt>
<totfact> 0.75948250E+07</totfact>
</mgrwt>
</event>
<event>
 4    1  0.2812958E+004  0.2210465E+02  0.7546771E-02  0.1706448E+00
         21   -1    0    0  503  502  0.00000000000E+00  0.00000000000E+00  0.32280024701E+01  0.32280024701E+01  0.00000000000E+00 0. -1.
         21   -1    0    0  501  503 -0.00000000000E+00 -0.00000000000E+00 -0.22501166492E+03  0.22501166492E+03  0.00000000000E+00 0.  1.
          2    1    1    2  501    0  0.16760264003E+02  0.14412113660E+02 -0.17617888169E+03  0.17756016959E+03  0.00000000000E+00 0.  1.
         -2    1    1    2    0  502 -0.16760264003E+02 -0.14412113660E+02 -0.45604780761E+02  0.50679497806E+02  0.00000000000E+00 0. -1.
<mgrwt>
<rscale>  2 0.22104648E+02</rscale>
<asrwt>0</asrwt>
<pdfrwt beam="1">  1       21 0.49661561E-03 0.22104648E+02</pdfrwt>
<pdfrwt beam="2">  1       21 0.34617190E-01 0.22104648E+02</pdfrwt>
<totfact> 0.64562127E+07</totfact>
</mgrwt>
</event>
<event>
 4    1  0.2812958E+004  0.2048015E+02  0.7546771E-02  0.1735945E+00
         21   -1    0    0  501  502  0.00000000000E+00  0.00000000000E+00  0.26888528613E+01  0.26888528613E+01  0.00000000000E+00 0.  1.
         21   -1    0    0  502  503 -0.00000000000E+00 -0.00000000000E+00 -0.16795798647E+03  0.16795798647E+03  0.00000000000E+00 0. -1.
          2    1    1    2  501    0 -0.13640147614E+02  0.15276873508E+02 -0.59859339348E+02  0.63265922884E+02  0.00000000000E+00 0.  1.
         -2    1    1    2    0  503  0.13640147614E+02 -0.15276873508E+02 -0.10540979426E+03  0.10738091644E+03  0.00000000000E+00 0. -1.
<mgrwt>
<rscale>  2 0.20480149E+02</rscale>
<asrwt>0</asrwt>
<pdfrwt beam="1">  1       21 0.41366969E-03 0.20480149E+02</pdfrwt>
<pdfrwt beam="2">  1       21 0.25839689E-01 0.20480149E+02</pdfrwt>
<totfact> 0.14045697E+08</totfact>
</mgrwt>
</event>
<event>
 4    1  0.2812958E+004  0.2081326E+02  0.7546771E-02  0.1729623E+00
         21   -1    0    0  503  502  0.00000000000E+00  0.00000000000E+00  0.36494300028E+01  0.36494300028E+01  0.00000000000E+00 0. -1.
         21   -1    0    0  501  503 -0.00000000000E+00 -0.00000000000E+00 -0.29758459727E+03  0.29758459727E+03  0.00000000000E+00 0.  1.
          2    1    1    2  501    0  0.18142682533E+02  0.10199739621E+02 -0.26374365469E+03  0.26456361619E+03  0.00000000000E+00 0.  1.
         -2    1    1    2    0  502 -0.18142682533E+02 -0.10199739621E+02 -0.30191512574E+02  0.36670411088E+02  0.00000000000E+00 0. -1.
<mgrwt>
<rscale>  2 0.20813256E+02</rscale>
<asrwt>0</asrwt>
<pdfrwt beam="1">  1       21 0.56145093E-03 0.20813256E+02</pdfrwt>
<pdfrwt beam="2">  1       21 0.45782233E-01 0.20813256E+02</pdfrwt>
<totfact> 0.31416526E+07</totfact>
</mgrwt>
</event>
<event>
 4    1  0.2812958E+004  0.2051248E+02  0.7546771E-02  0.1735325E+00
         21   -1    0    0  501  502  0.00000000000E+00  0.00000000000E+00  0.52074984037E+01  0.52074984037E+01  0.00000000000E+00 0. -1.
         21   -1    0    0  502  503 -0.00000000000E+00 -0.00000000000E+00 -0.83164123364E+02  0.83164123364E+02  0.00000000000E+00 0.  1.
          2    1    1    2  501    0  0.20497883894E+02 -0.77367877241E+00 -0.31527197265E+02  0.37612843423E+02  0.00000000000E+00 0. -1.
         -2    1    1    2    0  503 -0.20497883894E+02  0.77367877241E+00 -0.46429427695E+02  0.50758778345E+02  0.00000000000E+00 0.  1.
<mgrwt>
<rscale>  2 0.20512480E+02</rscale>
<asrwt>0</asrwt>
<pdfrwt beam="1">  1       21 0.80115360E-03 0.20512480E+02</pdfrwt>
<pdfrwt beam="2">  1       21 0.12794481E-01 0.20512480E+02</pdfrwt>
<totfact> 0.17806749E+08</totfact>
</mgrwt>
</event>
<event>
 4    1  0.2812958E+004  0.2605928E+02  0.7546771E-02  0.1646237E+00
         21   -1    0    0  503  502  0.00000000000E+00  0.00000000000E+00  0.24653726582E+03  0.24653726582E+03  0.00000000000E+00 0. -1.
         21   -1    0    0  501  503 -0.00000000000E+00 -0.00000000000E+00 -0.12051964135E+02  0.12051964135E+02  0.00000000000E+00 0.  1.
          2    1    1    2  501    0  0.24386488643E+02  0.91861493326E+01  0.36804378569E+01  0.26317898675E+02  0.00000000000E+00 0.  1.
         -2    1    1    2    0  502 -0.24386488643E+02 -0.91861493326E+01  0.23080486382E+03  0.23227133128E+03  0.00000000000E+00 0. -1.
<mgrwt>
<rscale>  2 0.26059282E+02</rscale>
<asrwt>0</asrwt>
<pdfrwt beam="1">  1       21 0.37928807E-01 0.26059282E+02</pdfrwt>
<pdfrwt beam="2">  1       21 0.18541485E-02 0.26059282E+02</pdfrwt>
<totfact> 0.77770608E+06</totfact>
</mgrwt>
</event>
<event>
 4    1  0.2812958E+004  0.2187320E+02  0.7546771E-02  0.1710454E+00
         21   -1    0    0  501  502  0.00000000000E+00  0.00000000000E+00  0.51343588985E+03  0.51343588985E+03  0.00000000000E+00 0. -1.
         21   -1    0    0  502  503 -0.00000000000E+00 -0.00000000000E+00 -0.18235562771E+01  0.18235562771E+01  0.00000000000E+00 0.  1.
          2    1    1    2  501    0 -0.13362543576E+02 -0.17317026226E+02  0.43596319679E+03  0.43651156448E+03  0.00000000000E+00 0. -1.
         -2    1    1    2    0  503  0.13362543576E+02  0.17317026226E+02  0.75649136783E+02  0.78747881649E+02  0.00000000000E+00 0.  1.
<mgrwt>
<rscale>  2 0.21873202E+02</rscale>
<asrwt>0</asrwt>
<pdfrwt beam="1">  1       21 0.78990022E-01 0.21873202E+02</pdfrwt>
<pdfrwt beam="2">  1       21 0.28054753E-03 0.21873202E+02</pdfrwt>
<totfact> 0.29522178E+07</totfact>
</mgrwt>
</event>
<event>
 4    1  0.2812958E+004  0.3110277E+02  0.7546771E-02  0.1586209E+00
         21   -1    0    0  503  502  0.00000000000E+00  0.00000000000E+00  0.16693591560E+02  0.16693591560E+02  0.00000000000E+00 0. -1.
         21   -1    0    0  501  503 -0.00000000000E+00 -0.00000000000E+00 -0.59046030741E+02  0.59046030741E+02  0.00000000000E+00 0.  1.
          2    1    1    2  501    0  0.24848984510E+02 -0.18705880899E+02 -0.26337375882E+02  0.40755850865E+02  0.00000000000E+00 0.  1.
         -2    1    1    2    0  502 -0.24848984510E+02  0.18705880899E+02 -0.16015063298E+02  0.34983771435E+02  0.00000000000E+00 0. -1.
<mgrwt>
<rscale>  2 0.31102765E+02</rscale>
<asrwt>0</asrwt>
<pdfrwt beam="1">  1       21 0.25682448E-02 0.31102765E+02</pdfrwt>
<pdfrwt beam="2">  1       21 0.90840047E-02 0.31102765E+02</pdfrwt>
<totfact> 0.59766170E+07</totfact>
</mgrwt>
</event>
<event>
 4    1  0.2812958E+004  0.2128949E+02  0.7546771E-02  0.1720838E+00
         21   -1    0    0  503  502  0.00000000000E+00  0.00000000000E+00  0.13998463877E+02  0.13998463877E+02  0.00000000000E+00 0. -1.
         21   -1    0    0  501  503 -0.00000000000E+00 -0.00000000000E+00 -0.33802172610E+02  0.33802172610E+02  0.00000000000E+00 0.  1.
          2    1    1    2  501    0 -0.76013580022E+01 -0.19886214580E+02 -0.14807697606E+02  0.25932799351E+02  0.00000000000E+00 0.  1.
         -2    1    1    2    0  502  0.76013580022E+01  0.19886214580E+02 -0.49960111272E+01  0.21867837136E+02  0.00000000000E+00 0. -1.
<mgrwt>
<rscale>  2 0.21289485E+02</rscale>
<asrwt>0</asrwt>
<pdfrwt beam="1">  1       21 0.21536098E-02 0.21289485E+02</pdfrwt>
<pdfrwt beam="2">  1       21 0.52003343E-02 0.21289485E+02</pdfrwt>
<totfact> 0.17552710E+08</totfact>
</mgrwt>
</event>
<event>
 4    1  0.2812958E+004  0.2432067E+02  0.7546771E-02  0.1670955E+00
         21   -1    0    0  503  502  0.00000000000E+00  0.00000000000E+00  0.88037246681E+01  0.88037246681E+01  0.00000000000E+00 0.  1.
         21   -1    0    0  501  503 -0.00000000000E+00 -0.00000000000E+00 -0.88516812639E+02  0.88516812639E+02  0.00000000000E+00 0. -1.
          2    1    1    2  501    0 -0.81675819067E+00 -0.24306955240E+02 -0.63743231492E+02  0.68225323216E+02  0.00000000000E+00 0. -1.
         -2    1    1    2    0  502  0.81675819067E+00  0.24306955240E+02 -0.15969856479E+02  0.29095214090E+02  0.00000000000E+00 0.  1.
<mgrwt>
<rscale>  2 0.24320674E+02</rscale>
<asrwt>0</asrwt>
<pdfrwt beam="1">  1       21 0.13544191E-02 0.24320674E+02</pdfrwt>
<pdfrwt beam="2">  1       21 0.13617972E-01 0.24320674E+02</pdfrwt>
<totfact> 0.76529713E+07</totfact>
</mgrwt>
</event>
<event>
 4    1  0.2812958E+004  0.3346850E+02  0.7546771E-02  0.1562637E+00
         21   -1    0    0  501  502  0.00000000000E+00  0.00000000000E+00  0.38766248547E+02  0.38766248547E+02  0.00000000000E+00 0. -1.
         21   -1    0    0  502  503 -0.00000000000E+00 -0.00000000000E+00 -0.12034215621E+03  0.12034215621E+03  0.00000000000E+00 0.  1.
          2    1    1    2  501    0  0.31484828577E+02 -0.11351049834E+02  0.28561005064E+02  0.43998542852E+02  0.00000000000E+00 0. -1.
         -2    1    1    2    0  503 -0.31484828577E+02  0.11351049834E+02 -0.11013691273E+03  0.11510986191E+03  0.00000000000E+00 0.  1.
<mgrwt>
<rscale>  2 0.33468504E+02</rscale>
<asrwt>0</asrwt>
<pdfrwt beam="1">  1       21 0.59640383E-02 0.33468504E+02</pdfrwt>
<pdfrwt beam="2">  1       21 0.18514178E-01 0.33468504E+02</pdfrwt>
<totfact> 0.46780837E+06</totfact>
</mgrwt>
</event>
<event>
 4    1  0.2812958E+004  0.4861240E+02  0.7546771E-02  0.1452973E+00
         21   -1    0    0  503  502  0.00000000000E+00  0.00000000000E+00  0.17401468424E+02  0.17401468424E+02  0.00000000000E+00 0. -1.
         21   -1    0    0  501  503 -0.00000000000E+00 -0.00000000000E+00 -0.24711361459E+03  0.24711361459E+03  0.00000000000E+00 0.  1.
          2    1    1    2  501    0 -0.40936543579E+02 -0.26217642423E+02 -0.20362093850E+03  0.20934338291E+03  0.00000000000E+00 0.  1.
         -2    1    1    2    0  502  0.40936543579E+02  0.26217642423E+02 -0.26091207664E+02  0.55171700099E+02  0.00000000000E+00 0. -1.
<mgrwt>
<rscale>  2 0.48612399E+02</rscale>
<asrwt>0</asrwt>
<pdfrwt beam="1">  1       21 0.26771489E-02 0.48612399E+02</pdfrwt>
<pdfrwt beam="2">  1       21 0.38017480E-01 0.48612399E+02</pdfrwt>
<totfact> 0.47085401E+06</totfact>
</mgrwt>
</event>
<event>
 4    1  0.2812958E+004  0.3076579E+02  0.7546771E-02  0.1589775E+00
         21   -1    0    0  501  502  0.00000000000E+00  0.00000000000E+00  0.35384848551E+02  0.35384848551E+02  0.00000000000E+00 0.  1.
         21   -1    0    0  502  503 -0.00000000000E+00 -0.00000000000E+00 -0.13932532254E+03  0.13932532254E+03  0.00000000000E+00 0. -1.
          2    1    1    2  501    0  0.27083887352E+02  0.14594404142E+02  0.26552489426E+02  0.40639491644E+02  0.00000000000E+00 0.  1.
         -2    1    1    2    0  503 -0.27083887352E+02 -0.14594404142E+02 -0.13049296342E+03  0.13407067945E+03  0.00000000000E+00 0. -1.
<mgrwt>
<rscale>  2 0.30765786E+02</rscale>
<asrwt>0</asrwt>
<pdfrwt beam="1">  1       21 0.54438228E-02 0.30765786E+02</pdfrwt>
<pdfrwt beam="2">  1       21 0.21434665E-01 0.30765786E+02</pdfrwt>
<totfact> 0.41434348E+06</totfact>
</mgrwt>
</event>
<event>
 4    1  0.2812958E+004  0.2455441E+02  0.7546771E-02  0.1667486E+00
         21   -1    0    0  501  502  0.00000000000E+00  0.00000000000E+00  0.17543925484E+01  0.17543925484E+01  0.00000000000E+00 0. -1.
         21   -1    0    0  502  503 -0.00000000000E+00 -0.00000000000E+00 -0.38899704509E+03  0.38899704509E+03  0.00000000000E+00 0.  1.
          2    1    1    2  501    0 -0.23478446733E+02 -0.71889746726E+01 -0.12692339364E+03  0.12927670584E+03  0.00000000000E+00 0.  1.
         -2    1    1    2    0  503  0.23478446733E+02  0.71889746726E+01 -0.26031925890E+03  0.26147473181E+03  0.00000000000E+00 0. -1.
<mgrwt>
<rscale>  2 0.24554405E+02</rscale>
<asrwt>0</asrwt>
<pdfrwt beam="1">  1       21 0.26990667E-03 0.24554405E+02</pdfrwt>
<pdfrwt beam="2">  1       21 0.59845672E-01 0.24554405E+02</pdfrwt>
<totfact> 0.56521944E+07</totfact>
</mgrwt>
</event>
<event>
 4    1  0.2812958E+004  0.2525235E+02  0.7546771E-02  0.1657404E+00
         21   -1    0    0  503  502  0.00000000000E+00  0.00000000000E+00  0.14768553033E+03  0.14768553033E+03  0.00000000000E+00 0.  1.
         21   -1    0    0  501  503 -0.00000000000E+00 -0.00000000000E+00 -0.11252056889E+03  0.11252056889E+03  0.00000000000E+00 0. -1.
          2    1    1    2  501    0  0.15837566430E+02 -0.19668566402E+02 -0.10999988295E+03  0.11286122126E+03  0.00000000000E+00 0. -1.
         -2    1    1    2    0  502 -0.15837566430E+02  0.19668566402E+02  0.14516484439E+03  0.14734487796E+03  0.00000000000E+00 0.  1.
<mgrwt>
<rscale>  2 0.25252347E+02</rscale>
<asrwt>0</asrwt>
<pdfrwt beam="1">  1       21 0.22720851E-01 0.25252347E+02</pdfrwt>
<pdfrwt beam="2">  1       21 0.17310857E-01 0.25252347E+02</pdfrwt>
<totfact> 0.53315521E+05</totfact>
</mgrwt>
</event>
<event>
 4    1  0.2812958E+004  0.2070115E+02  0.7546771E-02  0.1731734E+00
         21   -1    0    0  503  502  0.00000000000E+00  0.00000000000E+00  0.43012126264E+02  0.43012126264E+02  0.00000000000E+00 0. -1.
         21   -1    0    0  501  503 -0.00000000000E+00 -0.00000000000E+00 -0.11415312993E+02  0.11415312993E+02  0.00000000000E+00 0.  1.
          2    1    1    2  501    0  0.17590268051E+02  0.10914219527E+02  0.60922649162E+01  0.21579003911E+02  0.00000000000E+00 0. -1.
         -2    1    1    2    0  502 -0.17590268051E+02 -0.10914219527E+02  0.25504548355E+02  0.32848435347E+02  0.00000000000E+00 0.  1.
<mgrwt>
<rscale>  2 0.20701153E+02</rscale>
<asrwt>0</asrwt>
<pdfrwt beam="1">  1       21 0.66172501E-02 0.20701153E+02</pdfrwt>
<pdfrwt beam="2">  1       21 0.17562020E-02 0.20701153E+02</pdfrwt>
<totfact> 0.16165271E+08</totfact>
</mgrwt>
</event>
<event>
 4    1  0.2812958E+004  0.2562518E+02  0.7546771E-02  0.1652181E+00
         21   -1    0    0  501  502  0.00000000000E+00  0.00000000000E+00  0.24085089092E+02  0.24085089092E+02  0.00000000000E+00 0.  1.
         21   -1    0    0  502  503 -0.00000000000E+00 -0.00000000000E+00 -0.30684580759E+02  0.30684580759E+02  0.00000000000E+00 0. -1.
          2    1    1    2  501    0  0.11785127019E+02 -0.22754357982E+02  0.58438149180E+01  0.26283078184E+02  0.00000000000E+00 0.  1.
         -2    1    1    2    0  503 -0.11785127019E+02  0.22754357982E+02 -0.12443306585E+02  0.28486591667E+02  0.00000000000E+00 0. -1.
<mgrwt>
<rscale>  2 0.25625183E+02</rscale>
<asrwt>0</asrwt>
<pdfrwt beam="1">  1       21 0.37053983E-02 0.25625183E+02</pdfrwt>
<pdfrwt beam="2">  1       21 0.47207048E-02 0.25625183E+02</pdfrwt>
<totfact> 0.92980859E+07</totfact>
</mgrwt>
</event>
<event>
 4    1  0.2812958E+004  0.2880584E+02  0.7546771E-02  0.1611676E+00
         21   -1    0    0  501  502  0.00000000000E+00  0.00000000000E+00  0.54812028703E+01  0.54812028703E+01  0.00000000000E+00 0.  1.
         21   -1    0    0  502  503 -0.00000000000E+00 -0.00000000000E+00 -0.15139339417E+03  0.15139339417E+03  0.00000000000E+00 0. -1.
          2    1    1    2  501    0 -0.60810835346E+01 -0.28156647131E+02 -0.73511139567E+02  0.78953555937E+02  0.00000000000E+00 0. -1.
         -2    1    1    2    0  503  0.60810835346E+01  0.28156647131E+02 -0.72401051731E+02  0.77921041102E+02  0.00000000000E+00 0.  1.
<mgrwt>
<rscale>  2 0.28805839E+02</rscale>
<asrwt>0</asrwt>
<pdfrwt beam="1">  1       21 0.84326209E-03 0.28805839E+02</pdfrwt>
<pdfrwt beam="2">  1       21 0.23291288E-01 0.28805839E+02</pdfrwt>
<totfact> 0.64228171E+07</totfact>
</mgrwt>
</event>
<event>
 4    1  0.2812958E+004  0.3078510E+02  0.7546771E-02  0.1589569E+00
         21   -1    0    0  503  502  0.00000000000E+00  0.00000000000E+00  0.10300708238E+02  0.10300708238E+02  0.00000000000E+00 0. -1.
         21   -1    0    0  501  503 -0.00000000000E+00 -0.00000000000E+00 -0.11481684693E+03  0.11481684693E+03  0.00000000000E+00 0.  1.
          2    1    1    2  501    0 -0.34102111194E+01  0.30595632323E+02 -0.80142417663E+02  0.85851787204E+02  0.00000000000E+00 0.  1.
         -2    1    1    2    0  502  0.34102111194E+01 -0.30595632323E+02 -0.24373721033E+02  0.39265767968E+02  0.00000000000E+00 0. -1.
<mgrwt>
<rscale>  2 0.30785098E+02</rscale>
<asrwt>0</asrwt>
<pdfrwt beam="1">  1       21 0.15847243E-02 0.30785098E+02</pdfrwt>
<pdfrwt beam="2">  1       21 0.17664131E-01 0.30785098E+02</pdfrwt>
<totfact> 0.40652956E+07</totfact>
</mgrwt>
</event>
<event>
 4    1  0.2812958E+004  0.2058462E+02  0.7546771E-02  0.1733946E+00
         21   -1    0    0  503  502  0.00000000000E+00  0.00000000000E+00  0.13884995674E+03  0.13884995674E+03  0.00000000000E+00 0.  1.
         21   -1    0    0  501  503 -0.00000000000E+00 -0.00000000000E+00 -0.32703621974E+01  0.32703621974E+01  0.00000000000E+00 0. -1.
          2    1    1    2  501    0 -0.58227355436E+01  0.19743914006E+02  0.49414702971E+02  0.53530731914E+02  0.00000000000E+00 0.  1.
         -2    1    1    2    0  502  0.58227355436E+01 -0.19743914006E+02  0.86164891568E+02  0.88589587020E+02  0.00000000000E+00 0. -1.
<mgrwt>
<rscale>  2 0.20584615E+02</rscale>
<asrwt>0</asrwt>
<pdfrwt beam="1">  1       21 0.21361527E-01 0.20584615E+02</pdfrwt>
<pdfrwt beam="2">  1       21 0.50313275E-03 0.20584615E+02</pdfrwt>
<totfact> 0.14766993E+08</totfact>
</mgrwt>
</event>
<event>
 4    1  0.2812958E+004  0.2575443E+02  0.7546771E-02  0.1650396E+00
         21   -1    0    0  503  502  0.00000000000E+00  0.00000000000E+00  0.62842339963E+02  0.62842339963E+02  0.00000000000E+00 0. -1.
         21   -1    0    0  501  503 -0.00000000000E+00 -0.00000000000E+00 -0.57357375708E+02  0.57357375708E+02  0.00000000000E+00 0.  1.
          2    1    1    2  501    0 -0.17182862355E+02  0.19184361291E+02 -0.51546728508E+02  0.57622527684E+02  0.00000000000E+00 0.  1.
         -2    1    1    2    0  502  0.17182862355E+02 -0.19184361291E+02  0.57031692763E+02  0.62577187986E+02  0.00000000000E+00 0. -1.
<mgrwt>
<rscale>  2 0.25754426E+02</rscale>
<asrwt>0</asrwt>
<pdfrwt beam="1">  1       21 0.96680523E-02 0.25754426E+02</pdfrwt>
<pdfrwt beam="2">  1       21 0.88242117E-02 0.25754426E+02</pdfrwt>
<totfact> 0.71811162E+06</totfact>
</mgrwt>
</event>
<event>
 4    1  0.2812958E+004  0.2182631E+02  0.7546771E-02  0.1711273E+00
         21   -1    0    0  501  502  0.00000000000E+00  0.00000000000E+00  0.13407846364E+03  0.13407846364E+03  0.00000000000E+00 0.  1.
         21   -1    0    0  502  503 -0.00000000000E+00 -0.00000000000E+00 -0.13349487101E+02  0.13349487101E+02  0.00000000000E+00 0. -1.
          2    1    1    2  501    0 -0.19281732578E+02 -0.10227533593E+02  0.12351132389E+03  0.12542501658E+03  0.00000000000E+00 0.  1.
         -2    1    1    2    0  503  0.19281732578E+02  0.10227533593E+02 -0.27823473590E+01  0.22002934155E+02  0.00000000000E+00 0. -1.
<mgrwt>
<rscale>  2 0.21826306E+02</rscale>
<asrwt>0</asrwt>
<pdfrwt beam="1">  1       21 0.20627455E-01 0.21826306E+02</pdfrwt>
<pdfrwt beam="2">  1       21 0.20537673E-02 0.21826306E+02</pdfrwt>
<totfact> 0.19347241E+07</totfact>
</mgrwt>
</event>
<event>
 4    1  0.2812958E+004  0.3769288E+02  0.7546771E-02  0.1525910E+00
         21   -1    0    0  503  502  0.00000000000E+00  0.00000000000E+00  0.10544299628E+03  0.10544299628E+03  0.00000000000E+00 0. -1.
         21   -1    0    0  501  503 -0.00000000000E+00 -0.00000000000E+00 -0.16205948051E+02  0.16205948051E+02  0.00000000000E+00 0.  1.
          2    1    1    2  501    0  0.15993773907E+02 -0.34131399994E+02  0.19645764428E+02  0.42505403530E+02  0.00000000000E+00 0.  1.
         -2    1    1    2    0  502 -0.15993773907E+02  0.34131399994E+02  0.69591283805E+02  0.79143540803E+02  0.00000000000E+00 0. -1.
<mgrwt>
<rscale>  2 0.37692881E+02</rscale>
<asrwt>0</asrwt>
<pdfrwt beam="1">  1       21 0.16221999E-01 0.37692881E+02</pdfrwt>
<pdfrwt beam="2">  1       21 0.24932228E-02 0.37692881E+02</pdfrwt>
<totfact> 0.24214431E+07</totfact>
</mgrwt>
</event>
<event>
 4    1  0.2812958E+004  0.2621413E+02  0.7546771E-02  0.1644151E+00
         21   -1    0    0  501  502  0.00000000000E+00  0.00000000000E+00  0.58021179802E+02  0.58021179802E+02  0.00000000000E+00 0. -1.
         21   -1    0    0  502  503 -0.00000000000E+00 -0.00000000000E+00 -0.26734483298E+02  0.26734483298E+02  0.00000000000E+00 0.  1.
          2    1    1    2  501    0  0.65965608010E+01  0.25370574663E+02  0.47270698243E+02  0.54052748177E+02  0.00000000000E+00 0. -1.
         -2    1    1    2    0  503 -0.65965608010E+01 -0.25370574663E+02 -0.15984001740E+02  0.30702914923E+02  0.00000000000E+00 0.  1.
<mgrwt>
<rscale>  2 0.26214131E+02</rscale>
<asrwt>0</asrwt>
<pdfrwt beam="1">  1       21 0.89263354E-02 0.26214131E+02</pdfrwt>
<pdfrwt beam="2">  1       21 0.41129974E-02 0.26214131E+02</pdfrwt>
<totfact> 0.28218146E+07</totfact>
</mgrwt>
</event>
<event>
 4    1  0.2812958E+004  0.2556230E+02  0.7546771E-02  0.1653054E+00
         21   -1    0    0  503  502  0.00000000000E+00  0.00000000000E+00  0.36734807345E+02  0.36734807345E+02  0.00000000000E+00 0. -1.
         21   -1    0    0  501  503 -0.00000000000E+00 -0.00000000000E+00 -0.18501761028E+02  0.18501761028E+02  0.00000000000E+00 0.  1.
          2    1    1    2  501    0 -0.22508800297E+02  0.12115495264E+02  0.36911682083E+01  0.25827428038E+02  0.00000000000E+00 0. -1.
         -2    1    1    2    0  502  0.22508800297E+02 -0.12115495264E+02  0.14541878109E+02  0.29409140335E+02  0.00000000000E+00 0.  1.
<mgrwt>
<rscale>  2 0.25562303E+02</rscale>
<asrwt>0</asrwt>
<pdfrwt beam="1">  1       21 0.56515088E-02 0.25562303E+02</pdfrwt>
<pdfrwt beam="2">  1       21 0.28464248E-02 0.25562303E+02</pdfrwt>
<totfact> 0.10534922E+08</totfact>
</mgrwt>
</event>
<event>
 4    1  0.2812958E+004  0.2046083E+02  0.7546771E-02  0.1736316E+00
         21   -1    0    0  503  502  0.00000000000E+00  0.00000000000E+00  0.16131554479E+02  0.16131554479E+02  0.00000000000E+00 0.  1.
         21   -1    0    0  501  503 -0.00000000000E+00 -0.00000000000E+00 -0.33785493924E+02  0.33785493924E+02  0.00000000000E+00 0. -1.
          2    1    1    2  501    0  0.18780135038E+02  0.81210885692E+01 -0.20844977111E+02  0.29208879170E+02  0.00000000000E+00 0. -1.
         -2    1    1    2    0  502 -0.18780135038E+02 -0.81210885692E+01  0.31910376660E+01  0.20708169233E+02  0.00000000000E+00 0.  1.
<mgrwt>
<rscale>  2 0.20460830E+02</rscale>
<asrwt>0</asrwt>
<pdfrwt beam="1">  1       21 0.24817776E-02 0.20460830E+02</pdfrwt>
<pdfrwt beam="2">  1       21 0.51977683E-02 0.20460830E+02</pdfrwt>
<totfact> 0.13953188E+08</totfact>
</mgrwt>
</event>
<event>
 4    1  0.2812958E+004  0.2006012E+02  0.7546771E-02  0.1744135E+00
         21   -1    0    0  501  502  0.00000000000E+00  0.00000000000E+00  0.12207282171E+01  0.12207282171E+01  0.00000000000E+00 0.  1.
         21   -1    0    0  502  503 -0.00000000000E+00 -0.00000000000E+00 -0.35361114213E+03  0.35361114213E+03  0.00000000000E+00 0. -1.
          2    1    1    2  501    0 -0.12126718132E+01  0.20023429740E+02 -0.13000832577E+03  0.13154684747E+03  0.00000000000E+00 0.  1.
         -2    1    1    2    0  503  0.12126718132E+01 -0.20023429740E+02 -0.22238208814E+03  0.22328502287E+03  0.00000000000E+00 0. -1.
<mgrwt>
<rscale>  2 0.20060117E+02</rscale>
<asrwt>0</asrwt>
<pdfrwt beam="1">  1       21 0.18780423E-03 0.20060117E+02</pdfrwt>
<pdfrwt beam="2">  1       21 0.54401746E-01 0.20060117E+02</pdfrwt>
<totfact> 0.10960390E+08</totfact>
</mgrwt>
</event>
<event>
 4    1  0.2812958E+004  0.2235722E+02  0.7546771E-02  0.1702146E+00
         21   -1    0    0  503  502  0.00000000000E+00  0.00000000000E+00  0.28106781554E+01  0.28106781554E+01  0.00000000000E+00 0. -1.
         21   -1    0    0  501  503 -0.00000000000E+00 -0.00000000000E+00 -0.17808233542E+03  0.17808233542E+03  0.00000000000E+00 0.  1.
          2    1    1    2  501    0  0.58825182609E+01  0.21569456295E+02 -0.90985853154E+02  0.93692427336E+02  0.00000000000E+00 0.  1.
         -2    1    1    2    0  502 -0.58825182609E+01 -0.21569456295E+02 -0.84285804109E+02  0.87200586238E+02  0.00000000000E+00 0. -1.
<mgrwt>
<rscale>  2 0.22357224E+02</rscale>
<asrwt>0</asrwt>
<pdfrwt beam="1">  1       21 0.43241176E-03 0.22357224E+02</pdfrwt>
<pdfrwt beam="2">  1       21 0.27397299E-01 0.22357224E+02</pdfrwt>
<totfact> 0.12155978E+08</totfact>
</mgrwt>
</event>
<event>
 4    1  0.2812958E+004  0.2032099E+02  0.7546771E-02  0.1739019E+00
         21   -1    0    0  501  502  0.00000000000E+00  0.00000000000E+00  0.21290203800E+03  0.21290203800E+03  0.00000000000E+00 0. -1.
         21   -1    0    0  502  503 -0.00000000000E+00 -0.00000000000E+00 -0.28005024320E+01  0.28005024320E+01  0.00000000000E+00 0.  1.
          2    1    1    2  501    0 -0.13781407524E+02 -0.14933708282E+02  0.16484875590E+03  0.16609652362E+03  0.00000000000E+00 0. -1.
         -2    1    1    2    0  503  0.13781407524E+02  0.14933708282E+02  0.45252779666E+02  0.49606016812E+02  0.00000000000E+00 0.  1.
<mgrwt>
<rscale>  2 0.20320995E+02</rscale>
<asrwt>0</asrwt>
<pdfrwt beam="1">  1       21 0.32754147E-01 0.20320995E+02</pdfrwt>
<pdfrwt beam="2">  1       21 0.43084669E-03 0.20320995E+02</pdfrwt>
<totfact> 0.86106543E+07</totfact>
</mgrwt>
</event>
<event>
 4    1  0.2812958E+004  0.2109569E+02  0.7546771E-02  0.1724378E+00
         21   -1    0    0  501  502  0.00000000000E+00  0.00000000000E+00  0.14735288820E+02  0.14735288820E+02  0.00000000000E+00 0.  1.
         21   -1    0    0  502  503 -0.00000000000E+00 -0.00000000000E+00 -0.34804135600E+02  0.34804135600E+02  0.00000000000E+00 0. -1.
          2    1    1    2  501    0 -0.12338595383E+01 -0.21059580195E+02 -0.10268621495E+01  0.21120671703E+02  0.00000000000E+00 0.  1.
         -2    1    1    2    0  503  0.12338595383E+01  0.21059580195E+02 -0.19041984630E+02  0.28418752717E+02  0.00000000000E+00 0. -1.
<mgrwt>
<rscale>  2 0.21095695E+02</rscale>
<asrwt>0</asrwt>
<pdfrwt beam="1">  1       21 0.22669675E-02 0.21095695E+02</pdfrwt>
<pdfrwt beam="2">  1       21 0.53544824E-02 0.21095695E+02</pdfrwt>
<totfact> 0.15442825E+08</totfact>
</mgrwt>
</event>
<event>
 4    1  0.2812958E+004  0.4056298E+02  0.7546771E-02  0.1504109E+00
         21   -1    0    0  501  502  0.00000000000E+00  0.00000000000E+00  0.60942621455E+03  0.60942621455E+03  0.00000000000E+00 0.  1.
         21   -1    0    0  502  503 -0.00000000000E+00 -0.00000000000E+00 -0.71645023336E+01  0.71645023336E+01  0.00000000000E+00 0. -1.
          2    1    1    2  501    0  0.40561970006E+02  0.28564188956E+00  0.54450147305E+03  0.54601026470E+03  0.00000000000E+00 0.  1.
         -2    1    1    2    0  503 -0.40561970006E+02 -0.28564188956E+00  0.57760239164E+02  0.70580452183E+02  0.00000000000E+00 0. -1.
<mgrwt>
<rscale>  2 0.40562976E+02</rscale>
<asrwt>0</asrwt>
<pdfrwt beam="1">  1       21 0.93757839E-01 0.40562976E+02</pdfrwt>
<pdfrwt beam="2">  1       21 0.11022316E-02 0.40562976E+02</pdfrwt>
<totfact> 0.28936315E+06</totfact>
</mgrwt>
</event>
<event>
 4    1  0.2812958E+004  0.2120765E+02  0.7546771E-02  0.1722327E+00
         21   -1    0    0  501  502  0.00000000000E+00  0.00000000000E+00  0.52202461201E+02  0.52202461201E+02  0.00000000000E+00 0. -1.
         21   -1    0    0  502  503 -0.00000000000E+00 -0.00000000000E+00 -0.87047207642E+01  0.87047207642E+01  0.00000000000E+00 0.  1.
          2    1    1    2  501    0 -0.21201197505E+02  0.52330430963E+00  0.24827273115E+02  0.32652076709E+02  0.00000000000E+00 0. -1.
         -2    1    1    2    0  503  0.21201197505E+02 -0.52330430963E+00  0.18670467322E+02  0.28255105257E+02  0.00000000000E+00 0.  1.
<mgrwt>
<rscale>  2 0.21207655E+02</rscale>
<asrwt>0</asrwt>
<pdfrwt beam="1">  1       21 0.80311477E-02 0.21207655E+02</pdfrwt>
<pdfrwt beam="2">  1       21 0.13391878E-02 0.21207655E+02</pdfrwt>
<totfact> 0.17962072E+08</totfact>
</mgrwt>
</event>
<event>
 4    1  0.2812958E+004  0.2042329E+02  0.7546771E-02  0.1737039E+00
         21   -1    0    0  503  502  0.00000000000E+00  0.00000000000E+00  0.13250402387E+02  0.13250402387E+02  0.00000000000E+00 0.  1.
         21   -1    0    0  501  503 -0.00000000000E+00 -0.00000000000E+00 -0.32581550246E+02  0.32581550246E+02  0.00000000000E+00 0. -1.
          2    1    1    2  501    0  0.86135286560E+01 -0.18518040955E+02 -0.13880911551E+02  0.24693934928E+02  0.00000000000E+00 0.  1.
         -2    1    1    2    0  502 -0.86135286560E+01  0.18518040955E+02 -0.54502363075E+01  0.21138017706E+02  0.00000000000E+00 0. -1.
<mgrwt>
<rscale>  2 0.20423289E+02</rscale>
<asrwt>0</asrwt>
<pdfrwt beam="1">  1       21 0.20385235E-02 0.20423289E+02</pdfrwt>
<pdfrwt beam="2">  1       21 0.50125461E-02 0.20423289E+02</pdfrwt>
<totfact> 0.19974087E+08</totfact>
</mgrwt>
</event>
<event>
 4    1  0.2812958E+004  0.2792310E+02  0.7546771E-02  0.1622250E+00
         21   -1    0    0  503  502  0.00000000000E+00  0.00000000000E+00  0.12210668472E+02  0.12210668472E+02  0.00000000000E+00 0.  1.
         21   -1    0    0  501  503 -0.00000000000E+00 -0.00000000000E+00 -0.70411513402E+02  0.70411513402E+02  0.00000000000E+00 0. -1.
          2    1    1    2  501    0 -0.26298788120E+02  0.93847214010E+01 -0.41707560619E+02  0.50191830661E+02  0.00000000000E+00 0.  1.
         -2    1    1    2    0  502  0.26298788120E+02 -0.93847214010E+01 -0.16493284312E+02  0.32430351212E+02  0.00000000000E+00 0. -1.
<mgrwt>
<rscale>  2 0.27923095E+02</rscale>
<asrwt>0</asrwt>
<pdfrwt beam="1">  1       21 0.18785644E-02 0.27923095E+02</pdfrwt>
<pdfrwt beam="2">  1       21 0.10832541E-01 0.27923095E+02</pdfrwt>
<totfact> 0.70606022E+07</totfact>
</mgrwt>
</event>
<event>
 4    1  0.2812958E+004  0.2063507E+02  0.7546771E-02  0.1732986E+00
         21   -1    0    0  501  502  0.00000000000E+00  0.00000000000E+00  0.97679602157E+01  0.97679602157E+01  0.00000000000E+00 0.  1.
         21   -1    0    0  502  503 -0.00000000000E+00 -0.00000000000E+00 -0.94852115241E+02  0.94852115241E+02  0.00000000000E+00 0. -1.
          2    1    1    2  501    0 -0.18728705453E+02  0.86626628611E+01 -0.40872572592E+01  0.21035964625E+02  0.00000000000E+00 0.  1.
         -2    1    1    2    0  503  0.18728705453E+02 -0.86626628611E+01 -0.80996897766E+02  0.83584110832E+02  0.00000000000E+00 0. -1.
<mgrwt>
<rscale>  2 0.20635071E+02</rscale>
<asrwt>0</asrwt>
<pdfrwt beam="1">  1       21 0.15027631E-02 0.20635071E+02</pdfrwt>
<pdfrwt beam="2">  1       21 0.14592633E-01 0.20635071E+02</pdfrwt>
<totfact> 0.55652962E+07</totfact>
</mgrwt>
</event>
<event>
 4    1  0.2812958E+004  0.2010846E+02  0.7546771E-02  0.1743180E+00
         21   -1    0    0  503  502  0.00000000000E+00  0.00000000000E+00  0.14067444198E+01  0.14067444198E+01  0.00000000000E+00 0. -1.
         21   -1    0    0  501  503 -0.00000000000E+00 -0.00000000000E+00 -0.41223070708E+03  0.41223070708E+03  0.00000000000E+00 0.  1.
          2    1    1    2  501    0 -0.11400455113E+02  0.16564416218E+02 -0.31920515175E+03  0.31983789514E+03  0.00000000000E+00 0.  1.
         -2    1    1    2    0  502  0.11400455113E+02 -0.16564416218E+02 -0.91618810908E+02  0.93799556361E+02  0.00000000000E+00 0. -1.
<mgrwt>
<rscale>  2 0.20108462E+02</rscale>
<asrwt>0</asrwt>
<pdfrwt beam="1">  1       21 0.21642201E-03 0.20108462E+02</pdfrwt>
<pdfrwt beam="2">  1       21 0.63420169E-01 0.20108462E+02</pdfrwt>
<totfact> 0.66015535E+07</totfact>
</mgrwt>
</event>
<event>
 4    1  0.2812958E+004  0.2244691E+02  0.7546771E-02  0.1700636E+00
         21   -1    0    0  501  502  0.00000000000E+00  0.00000000000E+00  0.65996519560E+01  0.65996519560E+01  0.00000000000E+00 0. -1.
         21   -1    0    0  502  503 -0.00000000000E+00 -0.00000000000E+00 -0.14471979194E+03  0.14471979194E+03  0.00000000000E+00 0.  1.
          2    1    1    2  501    0 -0.38463497891E+01  0.22114914410E+02 -0.17055401975E+02  0.28191321051E+02  0.00000000000E+00 0. -1.
         -2    1    1    2    0  503  0.38463497891E+01 -0.22114914410E+02 -0.12106473801E+03  0.12312812284E+03  0.00000000000E+00 0.  1.
<mgrwt>
<rscale>  2 0.22446912E+02</rscale>
<asrwt>0</asrwt>
<pdfrwt beam="1">  1       21 0.10153311E-02 0.22446912E+02</pdfrwt>
<pdfrwt beam="2">  1       21 0.22264582E-01 0.22446912E+02</pdfrwt>
<totfact> 0.49576405E+07</totfact>
</mgrwt>
</event>
<event>
 4    1  0.2812958E+004  0.3261424E+02  0.7546771E-02  0.1570868E+00
         21   -1    0    0  501  502  0.00000000000E+00  0.00000000000E+00  0.20830177987E+02  0.20830177987E+02  0.00000000000E+00 0. -1.
         21   -1    0    0  502  503 -0.00000000000E+00 -0.00000000000E+00 -0.38213961069E+03  0.38213961069E+03  0.00000000000E+00 0.  1.
          2    1    1    2  501    0 -0.16778778328E+02 -0.27967149057E+02  0.68855526396E+01  0.33333161622E+02  0.00000000000E+00 0. -1.
         -2    1    1    2    0  503  0.16778778328E+02  0.27967149057E+02 -0.36819498535E+03  0.36963662706E+03  0.00000000000E+00 0.  1.
<mgrwt>
<rscale>  2 0.32614243E+02</rscale>
<asrwt>0</asrwt>
<pdfrwt beam="1">  1       21 0.32046430E-02 0.32614243E+02</pdfrwt>
<pdfrwt beam="2">  1       21 0.58790706E-01 0.32614243E+02</pdfrwt>
<totfact> 0.14487487E+06</totfact>
</mgrwt>
</event>
<event>
 4    1  0.2812958E+004  0.5399315E+02  0.7546771E-02  0.1424921E+00
         21   -1    0    0  501  502  0.00000000000E+00  0.00000000000E+00  0.40354967702E+03  0.40354967702E+03  0.00000000000E+00 0. -1.
         21   -1    0    0  502  503 -0.00000000000E+00 -0.00000000000E+00 -0.58195850552E+02  0.58195850552E+02  0.00000000000E+00 0.  1.
          2    1    1    2  501    0 -0.52227639064E+02  0.13694314577E+02  0.38874553714E+03  0.39247720084E+03  0.00000000000E+00 0. -1.
         -2    1    1    2    0  503  0.52227639064E+02 -0.13694314577E+02 -0.43391710668E+02  0.69268326735E+02  0.00000000000E+00 0.  1.
<mgrwt>
<rscale>  2 0.53993153E+02</rscale>
<asrwt>0</asrwt>
<pdfrwt beam="1">  1       21 0.62084564E-01 0.53993153E+02</pdfrwt>
<pdfrwt beam="2">  1       21 0.89532080E-02 0.53993153E+02</pdfrwt>
<totfact> 0.24570461E+05</totfact>
</mgrwt>
</event>
<event>
 4    1  0.2812958E+004  0.2026062E+02  0.7546771E-02  0.1740194E+00
         21   -1    0    0  503  502  0.00000000000E+00  0.00000000000E+00  0.44193959633E+02  0.44193959633E+02  0.00000000000E+00 0. -1.
         21   -1    0    0  501  503 -0.00000000000E+00 -0.00000000000E+00 -0.20406218571E+02  0.20406218571E+02  0.00000000000E+00 0.  1.
          2    1    1    2  501    0 -0.15567409103E+02 -0.12967210275E+02 -0.11947517724E+02  0.23520968268E+02  0.00000000000E+00 0.  1.
         -2    1    1    2    0  502  0.15567409103E+02  0.12967210275E+02  0.35735258786E+02  0.41079209936E+02  0.00000000000E+00 0. -1.
<mgrwt>
<rscale>  2 0.20260621E+02</rscale>
<asrwt>0</asrwt>
<pdfrwt beam="1">  1       21 0.67990707E-02 0.20260621E+02</pdfrwt>
<pdfrwt beam="2">  1       21 0.31394183E-02 0.20260621E+02</pdfrwt>
<totfact> 0.62995713E+07</totfact>
</mgrwt>
</event>
<event>
 4    1  0.2812958E+004  0.2865694E+02  0.7546771E-02  0.1613427E+00
         21   -1    0    0  501  502  0.00000000000E+00  0.00000000000E+00  0.25016157166E+02  0.25016157166E+02  0.00000000000E+00 0.  1.
         21   -1    0    0  502  503 -0.00000000000E+00 -0.00000000000E+00 -0.65340715598E+02  0.65340715598E+02  0.00000000000E+00 0. -1.
          2    1    1    2  501    0 -0.27056369744E+02 -0.94431603505E+01  0.11706728507E+02  0.30955902724E+02  0.00000000000E+00 0.  1.
         -2    1    1    2    0  503  0.27056369744E+02  0.94431603505E+01 -0.52031286938E+02  0.59400970039E+02  0.00000000000E+00 0. -1.
<mgrwt>
<rscale>  2 0.28656944E+02</rscale>
<asrwt>0</asrwt>
<pdfrwt beam="1">  1       21 0.38486396E-02 0.28656944E+02</pdfrwt>
<pdfrwt beam="2">  1       21 0.10052418E-01 0.28656944E+02</pdfrwt>
<totfact> 0.26231830E+07</totfact>
</mgrwt>
</event>
<event>
 4    1  0.2812958E+004  0.3507092E+02  0.7546771E-02  0.1547972E+00
         21   -1    0    0  501  502  0.00000000000E+00  0.00000000000E+00  0.36174673767E+01  0.36174673767E+01  0.00000000000E+00 0. -1.
         21   -1    0    0  502  503 -0.00000000000E+00 -0.00000000000E+00 -0.46331826985E+03  0.46331826985E+03  0.00000000000E+00 0.  1.
          2    1    1    2  501    0 -0.24558037942E+02 -0.25037416488E+02 -0.10940610212E+03  0.11488979342E+03  0.00000000000E+00 0. -1.
         -2    1    1    2    0  503  0.24558037942E+02  0.25037416488E+02 -0.35029470035E+03  0.35204594380E+03  0.00000000000E+00 0.  1.
<mgrwt>
<rscale>  2 0.35070920E+02</rscale>
<asrwt>0</asrwt>
<pdfrwt beam="1">  1       21 0.55653348E-03 0.35070920E+02</pdfrwt>
<pdfrwt beam="2">  1       21 0.71279729E-01 0.35070920E+02</pdfrwt>
<totfact> 0.14473901E+07</totfact>
</mgrwt>
</event>
<event>
 4    1  0.2812958E+004  0.2381507E+02  0.7546771E-02  0.1678629E+00
         21   -1    0    0  501  502  0.00000000000E+00  0.00000000000E+00  0.81077322151E+02  0.81077322151E+02  0.00000000000E+00 0. -1.
         21   -1    0    0  502  503 -0.00000000000E+00 -0.00000000000E+00 -0.81581974644E+01  0.81581974644E+01  0.00000000000E+00 0.  1.
          2    1    1    2  501    0 -0.21518633377E+02 -0.10203237702E+02  0.53305191603E+02  0.58383226135E+02  0.00000000000E+00 0. -1.
         -2    1    1    2    0  503  0.21518633377E+02  0.10203237702E+02  0.19613933084E+02  0.30852293481E+02  0.00000000000E+00 0.  1.
<mgrwt>
<rscale>  2 0.23815072E+02</rscale>
<asrwt>0</asrwt>
<pdfrwt beam="1">  1       21 0.12473434E-01 0.23815072E+02</pdfrwt>
<pdfrwt beam="2">  1       21 0.12551074E-02 0.23815072E+02</pdfrwt>
<totfact> 0.99039273E+07</totfact>
</mgrwt>
</event>
<event>
 4    1  0.2812958E+004  0.2806377E+02  0.7546771E-02  0.1620533E+00
         21   -1    0    0  501  502  0.00000000000E+00  0.00000000000E+00  0.96817965073E+02  0.96817965073E+02  0.00000000000E+00 0.  1.
         21   -1    0    0  502  503 -0.00000000000E+00 -0.00000000000E+00 -0.81359736182E+01  0.81359736182E+01  0.00000000000E+00 0. -1.
          2    1    1    2  501    0 -0.61776286490E+01 -0.27375390306E+02  0.43658291230E+02  0.51900110629E+02  0.00000000000E+00 0.  1.
         -2    1    1    2    0  503  0.61776286490E+01  0.27375390306E+02  0.45023700225E+02  0.53053828063E+02  0.00000000000E+00 0. -1.
<mgrwt>
<rscale>  2 0.28063768E+02</rscale>
<asrwt>0</asrwt>
<pdfrwt beam="1">  1       21 0.14895071E-01 0.28063768E+02</pdfrwt>
<pdfrwt beam="2">  1       21 0.12516883E-02 0.28063768E+02</pdfrwt>
<totfact> 0.76738988E+07</totfact>
</mgrwt>
</event>
<event>
 4    1  0.2812958E+004  0.2112732E+02  0.7546771E-02  0.1723797E+00
         21   -1    0    0  503  502  0.00000000000E+00  0.00000000000E+00  0.87198692681E+01  0.87198692681E+01  0.00000000000E+00 0. -1.
         21   -1    0    0  501  503 -0.00000000000E+00 -0.00000000000E+00 -0.64402011004E+02  0.64402011004E+02  0.00000000000E+00 0.  1.
          2    1    1    2  501    0 -0.15167280824E+02  0.14707727361E+02 -0.44401221094E+02  0.49171456012E+02  0.00000000000E+00 0.  1.
         -2    1    1    2    0  502  0.15167280824E+02 -0.14707727361E+02 -0.11280920642E+02  0.23950424260E+02  0.00000000000E+00 0. -1.
<mgrwt>
<rscale>  2 0.21127320E+02</rscale>
<asrwt>0</asrwt>
<pdfrwt beam="1">  1       21 0.13415183E-02 0.21127320E+02</pdfrwt>
<pdfrwt beam="2">  1       21 0.99080018E-02 0.21127320E+02</pdfrwt>
<totfact> 0.12689110E+08</totfact>
</mgrwt>
</event>
<event>
 4    1  0.2812958E+004  0.2146722E+02  0.7546771E-02  0.1717632E+00
         21   -1    0    0  503  502  0.00000000000E+00  0.00000000000E+00  0.12527170418E+02  0.12527170418E+02  0.00000000000E+00 0.  1.
         21   -1    0    0  501  503 -0.00000000000E+00 -0.00000000000E+00 -0.57269906709E+02  0.57269906709E+02  0.00000000000E+00 0. -1.
          2    1    1    2  501    0 -0.15611924302E+02  0.14734632538E+02 -0.43242016394E+02  0.48277464290E+02  0.00000000000E+00 0. -1.
         -2    1    1    2    0  502  0.15611924302E+02 -0.14734632538E+02 -0.15007198973E+01  0.21519612837E+02  0.00000000000E+00 0.  1.
<mgrwt>
<rscale>  2 0.21467221E+02</rscale>
<asrwt>0</asrwt>
<pdfrwt beam="1">  1       21 0.19272570E-02 0.21467221E+02</pdfrwt>
<pdfrwt beam="2">  1       21 0.88107548E-02 0.21467221E+02</pdfrwt>
<totfact> 0.89150509E+07</totfact>
</mgrwt>
</event>
<event>
 4    1  0.2812958E+004  0.2124741E+02  0.7546771E-02  0.1721602E+00
         21   -1    0    0  503  502  0.00000000000E+00  0.00000000000E+00  0.41139007992E+03  0.41139007992E+03  0.00000000000E+00 0.  1.
         21   -1    0    0  501  503 -0.00000000000E+00 -0.00000000000E+00 -0.12652494881E+01  0.12652494881E+01  0.00000000000E+00 0. -1.
          2    1    1    2  501    0 -0.21036737983E+02  0.29846214629E+01  0.12990844750E+03  0.13163455869E+03  0.00000000000E+00 0. -1.
         -2    1    1    2    0  502  0.21036737983E+02 -0.29846214629E+01  0.28021638293E+03  0.28102077072E+03  0.00000000000E+00 0.  1.
<mgrwt>
<rscale>  2 0.21247407E+02</rscale>
<asrwt>0</asrwt>
<pdfrwt beam="1">  1       21 0.63290675E-01 0.21247407E+02</pdfrwt>
<pdfrwt beam="2">  1       21 0.19465409E-03 0.21247407E+02</pdfrwt>
<totfact> 0.78306135E+07</totfact>
</mgrwt>
</event>
<event>
 4    1  0.2812958E+004  0.2085562E+02  0.7546771E-02  0.1728830E+00
         21   -1    0    0  501  502  0.00000000000E+00  0.00000000000E+00  0.19411490381E+02  0.19411490381E+02  0.00000000000E+00 0.  1.
         21   -1    0    0  502  503 -0.00000000000E+00 -0.00000000000E+00 -0.22613184116E+02  0.22613184116E+02  0.00000000000E+00 0. -1.
          2    1    1    2  501    0  0.20393295388E+02  0.43669494880E+01  0.40469732108E+00  0.20859542769E+02  0.00000000000E+00 0. -1.
         -2    1    1    2    0  503 -0.20393295388E+02 -0.43669494880E+01 -0.36063910560E+01  0.21165131728E+02  0.00000000000E+00 0.  1.
<mgrwt>
<rscale>  2 0.20855617E+02</rscale>
<asrwt>0</asrwt>
<pdfrwt beam="1">  1       21 0.29863832E-02 0.20855617E+02</pdfrwt>
<pdfrwt beam="2">  1       21 0.34789514E-02 0.20855617E+02</pdfrwt>
<totfact> 0.19836782E+08</totfact>
</mgrwt>
</event>
<event>
 4    1  0.2812958E+004  0.2722979E+02  0.7546771E-02  0.1630897E+00
         21   -1    0    0  501  502  0.00000000000E+00  0.00000000000E+00  0.24200537273E+02  0.24200537273E+02  0.00000000000E+00 0.  1.
         21   -1    0    0  502  503 -0.00000000000E+00 -0.00000000000E+00 -0.36017151945E+02  0.36017151945E+02  0.00000000000E+00 0. -1.
          2    1    1    2  501    0 -0.10575872770E+02  0.25092078649E+02  0.57272514988E+01  0.27825580057E+02  0.00000000000E+00 0.  1.
         -2    1    1    2    0  503  0.10575872770E+02 -0.25092078649E+02 -0.17543866171E+02  0.32392109162E+02  0.00000000000E+00 0. -1.
<mgrwt>
<rscale>  2 0.27229791E+02</rscale>
<asrwt>0</asrwt>
<pdfrwt beam="1">  1       21 0.37231596E-02 0.27229791E+02</pdfrwt>
<pdfrwt beam="2">  1       21 0.55411003E-02 0.27229791E+02</pdfrwt>
<totfact> 0.72504879E+07</totfact>
</mgrwt>
</event>
<event>
 4    1  0.2812958E+004  0.2138875E+02  0.7546771E-02  0.1719043E+00
         21   -1    0    0  503  502  0.00000000000E+00  0.00000000000E+00  0.87437120292E+02  0.87437120292E+02  0.00000000000E+00 0. -1.
         21   -1    0    0  501  503 -0.00000000000E+00 -0.00000000000E+00 -0.14579337148E+02  0.14579337148E+02  0.00000000000E+00 0.  1.
          2    1    1    2  501    0 -0.11834406513E+02 -0.17816443440E+02 -0.44136941249E+01  0.21839403155E+02  0.00000000000E+00 0.  1.
         -2    1    1    2    0  502  0.11834406513E+02  0.17816443440E+02  0.77271477270E+02  0.80177054285E+02  0.00000000000E+00 0. -1.
<mgrwt>
<rscale>  2 0.21388755E+02</rscale>
<asrwt>0</asrwt>
<pdfrwt beam="1">  1       21 0.13451864E-01 0.21388755E+02</pdfrwt>
<pdfrwt beam="2">  1       21 0.22429750E-02 0.21388755E+02</pdfrwt>
<totfact> 0.34986306E+07</totfact>
</mgrwt>
</event>
<event>
 4    1  0.2812958E+004  0.2093150E+02  0.7546771E-02  0.1727414E+00
         21   -1    0    0  501  502  0.00000000000E+00  0.00000000000E+00  0.31224472218E+01  0.31224472218E+01  0.00000000000E+00 0.  1.
         21   -1    0    0  502  503 -0.00000000000E+00 -0.00000000000E+00 -0.19123306642E+03  0.19123306642E+03  0.00000000000E+00 0. -1.
          2    1    1    2  501    0  0.81116700517E+01  0.19295814123E+02 -0.43911266945E+02  0.48644907220E+02  0.00000000000E+00 0.  1.
         -2    1    1    2    0  503 -0.81116700517E+01 -0.19295814123E+02 -0.14419935225E+03  0.14571060642E+03  0.00000000000E+00 0. -1.
<mgrwt>
<rscale>  2 0.20931499E+02</rscale>
<asrwt>0</asrwt>
<pdfrwt beam="1">  1       21 0.48037647E-03 0.20931499E+02</pdfrwt>
<pdfrwt beam="2">  1       21 0.29420473E-01 0.20931499E+02</pdfrwt>
<totfact> 0.89948240E+07</totfact>
</mgrwt>
</event>
<event>
 4    1  0.2812958E+004  0.2680456E+02  0.7546771E-02  0.1636358E+00
         21   -1    0    0  501  502  0.00000000000E+00  0.00000000000E+00  0.48584666459E+01  0.48584666459E+01  0.00000000000E+00 0. -1.
         21   -1    0    0  502  503 -0.00000000000E+00 -0.00000000000E+00 -0.16072458954E+03  0.16072458954E+03  0.00000000000E+00 0.  1.
          2    1    1    2  501    0  0.15750634576E+01 -0.26758239680E+02 -0.54530922923E+02  0.60762700487E+02  0.00000000000E+00 0. -1.
         -2    1    1    2    0  503 -0.15750634576E+01  0.26758239680E+02 -0.10133519997E+03  0.10482035570E+03  0.00000000000E+00 0.  1.
<mgrwt>
<rscale>  2 0.26804556E+02</rscale>
<asrwt>0</asrwt>
<pdfrwt beam="1">  1       21 0.74745632E-03 0.26804556E+02</pdfrwt>
<pdfrwt beam="2">  1       21 0.24726863E-01 0.26804556E+02</pdfrwt>
<totfact> 0.68013892E+07</totfact>
</mgrwt>
</event>
<event>
 4    1  0.2812958E+004  0.4150249E+02  0.7546771E-02  0.1497437E+00
         21   -1    0    0  503  502  0.00000000000E+00  0.00000000000E+00  0.20157426222E+03  0.20157426222E+03  0.00000000000E+00 0.  1.
         21   -1    0    0  501  503 -0.00000000000E+00 -0.00000000000E+00 -0.29749133702E+02  0.29749133702E+02  0.00000000000E+00 0. -1.
          2    1    1    2  501    0  0.41331362613E+02  0.37650290835E+01 -0.11735225932E+02  0.43129717216E+02  0.00000000000E+00 0. -1.
         -2    1    1    2    0  502 -0.41331362613E+02 -0.37650290835E+01  0.18356035445E+03  0.18819367871E+03  0.00000000000E+00 0.  1.
<mgrwt>
<rscale>  2 0.41502494E+02</rscale>
<asrwt>0</asrwt>
<pdfrwt beam="1">  1       21 0.31011424E-01 0.41502494E+02</pdfrwt>
<pdfrwt beam="2">  1       21 0.45767899E-02 0.41502494E+02</pdfrwt>
<totfact> 0.28902345E+06</totfact>
</mgrwt>
</event>
<event>
 4    1  0.2812958E+004  0.2704867E+02  0.7546771E-02  0.1633208E+00
         21   -1    0    0  501  502  0.00000000000E+00  0.00000000000E+00  0.57521780138E+03  0.57521780138E+03  0.00000000000E+00 0. -1.
         21   -1    0    0  502  503 -0.00000000000E+00 -0.00000000000E+00 -0.17337321937E+02  0.17337321937E+02  0.00000000000E+00 0.  1.
          2    1    1    2  501    0 -0.92081567706E+01 -0.25433056420E+02  0.56414289520E+03  0.56479096727E+03  0.00000000000E+00 0. -1.
         -2    1    1    2    0  503  0.92081567706E+01  0.25433056420E+02 -0.62624157517E+01  0.27764156048E+02  0.00000000000E+00 0.  1.
<mgrwt>
<rscale>  2 0.27048669E+02</rscale>
<asrwt>0</asrwt>
<pdfrwt beam="1">  1       21 0.88495032E-01 0.27048669E+02</pdfrwt>
<pdfrwt beam="2">  1       21 0.26672807E-02 0.27048669E+02</pdfrwt>
<totfact> 0.81321653E+05</totfact>
</mgrwt>
</event>
<event>
 4    1  0.2812958E+004  0.3136015E+02  0.7546771E-02  0.1583523E+00
         21   -1    0    0  501  502  0.00000000000E+00  0.00000000000E+00  0.40590281205E+01  0.40590281205E+01  0.00000000000E+00 0.  1.
         21   -1    0    0  502  503 -0.00000000000E+00 -0.00000000000E+00 -0.25623703464E+03  0.25623703464E+03  0.00000000000E+00 0. -1.
          2    1    1    2  501    0  0.58263004536E+01 -0.30814172191E+02 -0.95724312361E+02  0.10073034777E+03  0.00000000000E+00 0.  1.
         -2    1    1    2    0  503 -0.58263004536E+01  0.30814172191E+02 -0.15645369416E+03  0.15956571500E+03  0.00000000000E+00 0. -1.
<mgrwt>
<rscale>  2 0.31360150E+02</rscale>
<asrwt>0</asrwt>
<pdfrwt beam="1">  1       21 0.62446567E-03 0.31360150E+02</pdfrwt>
<pdfrwt beam="2">  1       21 0.39421094E-01 0.31360150E+02</pdfrwt>
<totfact> 0.38927968E+07</totfact>
</mgrwt>
</event>
<event>
 4    1  0.2812958E+004  0.2631104E+02  0.7546771E-02  0.1642855E+00
         21   -1    0    0  503  502  0.00000000000E+00  0.00000000000E+00  0.63733655357E+01  0.63733655357E+01  0.00000000000E+00 0. -1.
         21   -1    0    0  501  503 -0.00000000000E+00 -0.00000000000E+00 -0.33569369486E+03  0.33569369486E+03  0.00000000000E+00 0.  1.
          2    1    1    2  501    0  0.15758403537E+02 -0.21069966127E+02 -0.30532764641E+03  0.30645920188E+03  0.00000000000E+00 0.  1.
         -2    1    1    2    0  502 -0.15758403537E+02  0.21069966127E+02 -0.23992682914E+02  0.35607858515E+02  0.00000000000E+00 0. -1.
<mgrwt>
<rscale>  2 0.26311039E+02</rscale>
<asrwt>0</asrwt>
<pdfrwt beam="1">  1       21 0.98051740E-03 0.26311039E+02</pdfrwt>
<pdfrwt beam="2">  1       21 0.51645203E-01 0.26311039E+02</pdfrwt>
<totfact> 0.11352664E+07</totfact>
</mgrwt>
</event>
<event>
 4    1  0.2812958E+004  0.2635218E+02  0.7546771E-02  0.1642307E+00
         21   -1    0    0  501  502  0.00000000000E+00  0.00000000000E+00  0.10208634044E+02  0.10208634044E+02  0.00000000000E+00 0.  1.
         21   -1    0    0  502  503 -0.00000000000E+00 -0.00000000000E+00 -0.68399657916E+02  0.68399657916E+02  0.00000000000E+00 0. -1.
          2    1    1    2  501    0 -0.22379087842E+01 -0.26256982055E+02 -0.32006308719E+02  0.41458909057E+02  0.00000000000E+00 0.  1.
         -2    1    1    2    0  503  0.22379087842E+01  0.26256982055E+02 -0.26184715154E+02  0.37149382903E+02  0.00000000000E+00 0. -1.
<mgrwt>
<rscale>  2 0.26352179E+02</rscale>
<asrwt>0</asrwt>
<pdfrwt beam="1">  1       21 0.15705591E-02 0.26352179E+02</pdfrwt>
<pdfrwt beam="2">  1       21 0.10523024E-01 0.26352179E+02</pdfrwt>
<totfact> 0.96160711E+07</totfact>
</mgrwt>
</event>
<event>
 4    1  0.2812958E+004  0.2469354E+02  0.7546771E-02  0.1665443E+00
         21   -1    0    0  501  502  0.00000000000E+00  0.00000000000E+00  0.38981881960E+02  0.38981881960E+02  0.00000000000E+00 0.  1.
         21   -1    0    0  502  503 -0.00000000000E+00 -0.00000000000E+00 -0.15670150688E+02  0.15670150688E+02  0.00000000000E+00 0. -1.
          2    1    1    2  501    0 -0.17014593755E+02 -0.17896217578E+02  0.10506354502E+02  0.26835694311E+02  0.00000000000E+00 0. -1.
         -2    1    1    2    0  503  0.17014593755E+02  0.17896217578E+02  0.12805376770E+02  0.27816338337E+02  0.00000000000E+00 0.  1.
<mgrwt>
<rscale>  2 0.24693542E+02</rscale>
<asrwt>0</asrwt>
<pdfrwt beam="1">  1       21 0.59972126E-02 0.24693542E+02</pdfrwt>
<pdfrwt beam="2">  1       21 0.24107924E-02 0.24693542E+02</pdfrwt>
<totfact> 0.12280102E+08</totfact>
</mgrwt>
</event>
<event>
 4    1  0.2812958E+004  0.3239604E+02  0.7546771E-02  0.1573020E+00
         21   -1    0    0  501  502  0.00000000000E+00  0.00000000000E+00  0.18094273787E+01  0.18094273787E+01  0.00000000000E+00 0. -1.
         21   -1    0    0  502  503 -0.00000000000E+00 -0.00000000000E+00 -0.73349581846E+03  0.73349581846E+03  0.00000000000E+00 0.  1.
          2    1    1    2  501    0  0.23980744835E+02  0.21781357746E+02 -0.19766908501E+03  0.20030619271E+03  0.00000000000E+00 0.  1.
         -2    1    1    2    0  503 -0.23980744835E+02 -0.21781357746E+02 -0.53401730607E+03  0.53499905313E+03  0.00000000000E+00 0. -1.
<mgrwt>
<rscale>  2 0.32396044E+02</rscale>
<asrwt>0</asrwt>
<pdfrwt beam="1">  1       21 0.27837329E-03 0.32396044E+02</pdfrwt>
<pdfrwt beam="2">  1       21 0.11284557E+00 0.32396044E+02</pdfrwt>
<totfact> 0.14700283E+07</totfact>
</mgrwt>
</event>
<event>
 4    1  0.2812958E+004  0.2397661E+02  0.7546771E-02  0.1676152E+00
         21   -1    0    0  503  502  0.00000000000E+00  0.00000000000E+00  0.26170162331E+03  0.26170162331E+03  0.00000000000E+00 0. -1.
         21   -1    0    0  501  503 -0.00000000000E+00 -0.00000000000E+00 -0.22219059057E+01  0.22219059057E+01  0.00000000000E+00 0.  1.
          2    1    1    2  501    0  0.57600053119E+01 -0.23274451706E+02  0.14379737513E+03  0.14578258763E+03  0.00000000000E+00 0.  1.
         -2    1    1    2    0  502 -0.57600053119E+01  0.23274451706E+02  0.11568234228E+03  0.11814094158E+03  0.00000000000E+00 0. -1.
<mgrwt>
<rscale>  2 0.23976609E+02</rscale>
<asrwt>0</asrwt>
<pdfrwt beam="1">  1       21 0.40261764E-01 0.23976609E+02</pdfrwt>
<pdfrwt beam="2">  1       21 0.34183188E-03 0.23976609E+02</pdfrwt>
<totfact> 0.86022253E+07</totfact>
</mgrwt>
</event>
<event>
 4    1  0.2812958E+004  0.3116207E+02  0.7546771E-02  0.1585588E+00
         21   -1    0    0  503  502  0.00000000000E+00  0.00000000000E+00  0.66514719210E+01  0.66514719210E+01  0.00000000000E+00 0.  1.
         21   -1    0    0  501  503 -0.00000000000E+00 -0.00000000000E+00 -0.14831246834E+03  0.14831246834E+03  0.00000000000E+00 0. -1.
          2    1    1    2  501    0 -0.19184734445E+02 -0.24556480756E+02 -0.80518079258E+02  0.86337916759E+02  0.00000000000E+00 0. -1.
         -2    1    1    2    0  502  0.19184734445E+02  0.24556480756E+02 -0.61142917163E+02  0.68626023505E+02  0.00000000000E+00 0.  1.
<mgrwt>
<rscale>  2 0.31162073E+02</rscale>
<asrwt>0</asrwt>
<pdfrwt beam="1">  1       21 0.10233035E-02 0.31162073E+02</pdfrwt>
<pdfrwt beam="2">  1       21 0.22817300E-01 0.31162073E+02</pdfrwt>
<totfact> 0.50581256E+07</totfact>
</mgrwt>
</event>
<event>
 4    1  0.2812958E+004  0.2541077E+02  0.7546771E-02  0.1655171E+00
         21   -1    0    0  503  502  0.00000000000E+00  0.00000000000E+00  0.54670587526E+01  0.54670587526E+01  0.00000000000E+00 0. -1.
         21   -1    0    0  501  503 -0.00000000000E+00 -0.00000000000E+00 -0.12345332132E+03  0.12345332132E+03  0.00000000000E+00 0.  1.
          2    1    1    2  501    0  0.10758856924E+02 -0.23020739881E+02 -0.72405228527E+02  0.76734767772E+02  0.00000000000E+00 0.  1.
         -2    1    1    2    0  502 -0.10758856924E+02  0.23020739881E+02 -0.45581034038E+02  0.52185612298E+02  0.00000000000E+00 0. -1.
<mgrwt>
<rscale>  2 0.25410775E+02</rscale>
<asrwt>0</asrwt>
<pdfrwt beam="1">  1       21 0.84108604E-03 0.25410775E+02</pdfrwt>
<pdfrwt beam="2">  1       21 0.18992817E-01 0.25410775E+02</pdfrwt>
<totfact> 0.89670452E+07</totfact>
</mgrwt>
</event>
<event>
 4    1  0.2812958E+004  0.2747348E+02  0.7546771E-02  0.1627822E+00
         21   -1    0    0  503  502  0.00000000000E+00  0.00000000000E+00  0.30538545709E+03  0.30538545709E+03  0.00000000000E+00 0.  1.
         21   -1    0    0  501  503 -0.00000000000E+00 -0.00000000000E+00 -0.25662708040E+01  0.25662708040E+01  0.00000000000E+00 0. -1.
          2    1    1    2  501    0  0.38841612208E+01  0.27197523257E+02  0.12183629261E+03  0.12489545298E+03  0.00000000000E+00 0. -1.
         -2    1    1    2    0  502 -0.38841612208E+01 -0.27197523257E+02  0.18098289368E+03  0.18305627491E+03  0.00000000000E+00 0.  1.
<mgrwt>
<rscale>  2 0.27473478E+02</rscale>
<asrwt>0</asrwt>
<pdfrwt beam="1">  1       21 0.46982349E-01 0.27473478E+02</pdfrwt>
<pdfrwt beam="2">  1       21 0.39481113E-03 0.27473478E+02</pdfrwt>
<totfact> 0.53455339E+07</totfact>
</mgrwt>
</event>
<event>
 4    1  0.2812958E+004  0.3397493E+02  0.7546771E-02  0.1557897E+00
         21   -1    0    0  501  502  0.00000000000E+00  0.00000000000E+00  0.60429399939E+03  0.60429399939E+03  0.00000000000E+00 0. -1.
         21   -1    0    0  502  503 -0.00000000000E+00 -0.00000000000E+00 -0.31079233221E+01  0.31079233221E+01  0.00000000000E+00 0.  1.
          2    1    1    2  501    0 -0.33399792823E+02 -0.62249004631E+01  0.48913035733E+03  0.49030888428E+03  0.00000000000E+00 0. -1.
         -2    1    1    2    0  503  0.33399792823E+02  0.62249004631E+01  0.11205571874E+03  0.11709303843E+03  0.00000000000E+00 0.  1.
<mgrwt>
<rscale>  2 0.33974925E+02</rscale>
<asrwt>0</asrwt>
<pdfrwt beam="1">  1       21 0.92968214E-01 0.33974925E+02</pdfrwt>
<pdfrwt beam="2">  1       21 0.47814253E-03 0.33974925E+02</pdfrwt>
<totfact> 0.10238619E+07</totfact>
</mgrwt>
</event>
<event>
 4    1  0.2812958E+004  0.2597338E+02  0.7546771E-02  0.1647402E+00
         21   -1    0    0  501  502  0.00000000000E+00  0.00000000000E+00  0.10143290800E+03  0.10143290800E+03  0.00000000000E+00 0.  1.
         21   -1    0    0  502  503 -0.00000000000E+00 -0.00000000000E+00 -0.49005933607E+02  0.49005933607E+02  0.00000000000E+00 0. -1.
          2    1    1    2  501    0  0.20012417222E+02  0.16556562495E+02  0.96142652559E+02  0.99589287806E+02  0.00000000000E+00 0.  1.
         -2    1    1    2    0  503 -0.20012417222E+02 -0.16556562495E+02 -0.43715678163E+02  0.50849553804E+02  0.00000000000E+00 0. -1.
<mgrwt>
<rscale>  2 0.25973383E+02</rscale>
<asrwt>0</asrwt>
<pdfrwt beam="1">  1       21 0.15605063E-01 0.25973383E+02</pdfrwt>
<pdfrwt beam="2">  1       21 0.75393744E-02 0.25973383E+02</pdfrwt>
<totfact> 0.41526546E+06</totfact>
</mgrwt>
</event>
<event>
 4    1  0.2812958E+004  0.4440111E+02  0.7546771E-02  0.1478115E+00
         21   -1    0    0  503  502  0.00000000000E+00  0.00000000000E+00  0.11288044570E+03  0.11288044570E+03  0.00000000000E+00 0. -1.
         21   -1    0    0  501  503 -0.00000000000E+00 -0.00000000000E+00 -0.38297407792E+02  0.38297407792E+02  0.00000000000E+00 0.  1.
          2    1    1    2  501    0 -0.24791595741E+02  0.36835249976E+02 -0.18458247234E+02  0.48084984674E+02  0.00000000000E+00 0.  1.
         -2    1    1    2    0  502  0.24791595741E+02 -0.36835249976E+02  0.93041285139E+02  0.10309286881E+03  0.00000000000E+00 0. -1.
<mgrwt>
<rscale>  2 0.44401113E+02</rscale>
<asrwt>0</asrwt>
<pdfrwt beam="1">  1       21 0.17366222E-01 0.44401113E+02</pdfrwt>
<pdfrwt beam="2">  1       21 0.58919089E-02 0.44401113E+02</pdfrwt>
<totfact> 0.55198330E+06</totfact>
</mgrwt>
</event>
<event>
 4    1  0.2812958E+004  0.2046546E+02  0.7546771E-02  0.1736227E+00
         21   -1    0    0  503  502  0.00000000000E+00  0.00000000000E+00  0.21518669636E+01  0.21518669636E+01  0.00000000000E+00 0.  1.
         21   -1    0    0  501  503 -0.00000000000E+00 -0.00000000000E+00 -0.47423864480E+03  0.47423864480E+03  0.00000000000E+00 0. -1.
          2    1    1    2  501    0 -0.20358567019E+02  0.20889868084E+01 -0.41893917889E+03  0.41943875682E+03  0.00000000000E+00 0. -1.
         -2    1    1    2    0  502  0.20358567019E+02 -0.20889868084E+01 -0.53147598947E+02  0.56951754941E+02  0.00000000000E+00 0.  1.
<mgrwt>
<rscale>  2 0.20465462E+02</rscale>
<asrwt>0</asrwt>
<pdfrwt beam="1">  1       21 0.33105639E-03 0.20465462E+02</pdfrwt>
<pdfrwt beam="2">  1       21 0.72959807E-01 0.20465462E+02</pdfrwt>
<totfact> 0.26967797E+07</totfact>
</mgrwt>
</event>
<event>
 4    1  0.2812958E+004  0.2670923E+02  0.7546771E-02  0.1637599E+00
         21   -1    0    0  501  502  0.00000000000E+00  0.00000000000E+00  0.43874073372E+03  0.43874073372E+03  0.00000000000E+00 0. -1.
         21   -1    0    0  502  503 -0.00000000000E+00 -0.00000000000E+00 -0.18764771623E+01  0.18764771623E+01  0.00000000000E+00 0.  1.
          2    1    1    2  501    0  0.43491371850E+01 -0.26352762471E+02  0.29892591512E+03  0.30011678696E+03  0.00000000000E+00 0. -1.
         -2    1    1    2    0  503 -0.43491371850E+01  0.26352762471E+02  0.13793834143E+03  0.14050042392E+03  0.00000000000E+00 0.  1.
<mgrwt>
<rscale>  2 0.26709232E+02</rscale>
<asrwt>0</asrwt>
<pdfrwt beam="1">  1       21 0.67498493E-01 0.26709232E+02</pdfrwt>
<pdfrwt beam="2">  1       21 0.28868914E-03 0.26709232E+02</pdfrwt>
<totfact> 0.40867915E+07</totfact>
</mgrwt>
</event>
<event>
 4    1  0.2812958E+004  0.2467536E+02  0.7546771E-02  0.1665709E+00
         21   -1    0    0  503  502  0.00000000000E+00  0.00000000000E+00  0.20516775959E+02  0.20516775959E+02  0.00000000000E+00 0.  1.
         21   -1    0    0  501  503 -0.00000000000E+00 -0.00000000000E+00 -0.11411892495E+03  0.11411892495E+03  0.00000000000E+00 0. -1.
          2    1    1    2  501    0 -0.16248359901E+02  0.18570523021E+02 -0.10470804196E+03  0.10757624076E+03  0.00000000000E+00 0. -1.
         -2    1    1    2    0  502  0.16248359901E+02 -0.18570523021E+02  0.11105892972E+02  0.27059460147E+02  0.00000000000E+00 0.  1.
<mgrwt>
<rscale>  2 0.24675363E+02</rscale>
<asrwt>0</asrwt>
<pdfrwt beam="1">  1       21 0.31564270E-02 0.24675363E+02</pdfrwt>
<pdfrwt beam="2">  1       21 0.17556758E-01 0.24675363E+02</pdfrwt>
<totfact> 0.13503558E+07</totfact>
</mgrwt>
</event>
<event>
 4    1  0.2812958E+004  0.3715770E+02  0.7546771E-02  0.1530234E+00
         21   -1    0    0  501  502  0.00000000000E+00  0.00000000000E+00  0.25446102746E+01  0.25446102746E+01  0.00000000000E+00 0. -1.
         21   -1    0    0  502  503 -0.00000000000E+00 -0.00000000000E+00 -0.56945883534E+03  0.56945883534E+03  0.00000000000E+00 0.  1.
          2    1    1    2  501    0 -0.36375821222E+02 -0.75825106980E+01 -0.22133945737E+03  0.22443673992E+03  0.00000000000E+00 0. -1.
         -2    1    1    2    0  503  0.36375821222E+02  0.75825106980E+01 -0.34557476769E+03  0.34756670569E+03  0.00000000000E+00 0.  1.
<mgrwt>
<rscale>  2 0.37157702E+02</rscale>
<asrwt>0</asrwt>
<pdfrwt beam="1">  1       21 0.39147821E-03 0.37157702E+02</pdfrwt>
<pdfrwt beam="2">  1       21 0.87609118E-01 0.37157702E+02</pdfrwt>
<totfact> 0.15888263E+07</totfact>
</mgrwt>
</event>
<event>
 4    1  0.2812958E+004  0.4517845E+02  0.7546771E-02  0.1473231E+00
         21   -1    0    0  503  502  0.00000000000E+00  0.00000000000E+00  0.68992067313E+01  0.68992067313E+01  0.00000000000E+00 0.  1.
         21   -1    0    0  501  503 -0.00000000000E+00 -0.00000000000E+00 -0.68022542891E+03  0.68022542891E+03  0.00000000000E+00 0. -1.
          2    1    1    2  501    0  0.37268182312E+02  0.25537711561E+02 -0.59492482462E+03  0.59663777879E+03  0.00000000000E+00 0. -1.
         -2    1    1    2    0  502 -0.37268182312E+02 -0.25537711561E+02 -0.78401397560E+02  0.90486856858E+02  0.00000000000E+00 0.  1.
<mgrwt>
<rscale>  2 0.45178448E+02</rscale>
<asrwt>0</asrwt>
<pdfrwt beam="1">  1       21 0.10614162E-02 0.45178448E+02</pdfrwt>
<pdfrwt beam="2">  1       21 0.10465009E+00 0.45178448E+02</pdfrwt>
<totfact> 0.24137734E+06</totfact>
</mgrwt>
</event>
<event>
 4    1  0.2812958E+004  0.2343420E+02  0.7546771E-02  0.1684567E+00
         21   -1    0    0  501  502  0.00000000000E+00  0.00000000000E+00  0.33539583325E+01  0.33539583325E+01  0.00000000000E+00 0.  1.
         21   -1    0    0  502  503 -0.00000000000E+00 -0.00000000000E+00 -0.16856086846E+03  0.16856086846E+03  0.00000000000E+00 0. -1.
          2    1    1    2  501    0  0.28081040759E+01 -0.23265347118E+02 -0.68059814116E+02  0.71981248409E+02  0.00000000000E+00 0. -1.
         -2    1    1    2    0  503 -0.28081040759E+01  0.23265347118E+02 -0.97147096015E+02  0.99933578387E+02  0.00000000000E+00 0.  1.
<mgrwt>
<rscale>  2 0.23434202E+02</rscale>
<asrwt>0</asrwt>
<pdfrwt beam="1">  1       21 0.51599364E-03 0.23434202E+02</pdfrwt>
<pdfrwt beam="2">  1       21 0.25932439E-01 0.23434202E+02</pdfrwt>
<totfact> 0.10477003E+08</totfact>
</mgrwt>
</event>
<event>
 4    1  0.2812958E+004  0.2121248E+02  0.7546771E-02  0.1722239E+00
         21   -1    0    0  503  502  0.00000000000E+00  0.00000000000E+00  0.26241296846E+01  0.26241296846E+01  0.00000000000E+00 0.  1.
         21   -1    0    0  501  503 -0.00000000000E+00 -0.00000000000E+00 -0.27683714468E+03  0.27683714468E+03  0.00000000000E+00 0. -1.
          2    1    1    2  501    0 -0.20922535436E+02  0.34952654265E+01 -0.22330989387E+03  0.22431513117E+03  0.00000000000E+00 0. -1.
         -2    1    1    2    0  502  0.20922535436E+02 -0.34952654265E+01 -0.50903121127E+02  0.55146143201E+02  0.00000000000E+00 0.  1.
<mgrwt>
<rscale>  2 0.21212481E+02</rscale>
<asrwt>0</asrwt>
<pdfrwt beam="1">  1       21 0.40371228E-03 0.21212481E+02</pdfrwt>
<pdfrwt beam="2">  1       21 0.42590328E-01 0.21212481E+02</pdfrwt>
<totfact> 0.58776111E+07</totfact>
</mgrwt>
</event>
<event>
 4    1  0.2812958E+004  0.2074511E+02  0.7546771E-02  0.1730904E+00
         21   -1    0    0  503  502  0.00000000000E+00  0.00000000000E+00  0.79026827479E+02  0.79026827479E+02  0.00000000000E+00 0.  1.
         21   -1    0    0  501  503 -0.00000000000E+00 -0.00000000000E+00 -0.60324767102E+01  0.60324767102E+01  0.00000000000E+00 0. -1.
          2    1    1    2  501    0 -0.74750340152E+01 -0.19351570061E+02  0.23233423953E+02  0.31147253264E+02  0.00000000000E+00 0. -1.
         -2    1    1    2    0  502  0.74750340152E+01  0.19351570061E+02  0.49760926817E+02  0.53912050925E+02  0.00000000000E+00 0.  1.
<mgrwt>
<rscale>  2 0.20745105E+02</rscale>
<asrwt>0</asrwt>
<pdfrwt beam="1">  1       21 0.12157973E-01 0.20745105E+02</pdfrwt>
<pdfrwt beam="2">  1       21 0.92807339E-03 0.20745105E+02</pdfrwt>
<totfact> 0.15630497E+08</totfact>
</mgrwt>
</event>
<event>
 4    1  0.2812958E+004  0.2030837E+02  0.7546771E-02  0.1739264E+00
         21   -1    0    0  503  502  0.00000000000E+00  0.00000000000E+00  0.20484341721E+02  0.20484341721E+02  0.00000000000E+00 0. -1.
         21   -1    0    0  501  503 -0.00000000000E+00 -0.00000000000E+00 -0.26289359044E+02  0.26289359044E+02  0.00000000000E+00 0.  1.
          2    1    1    2  501    0 -0.19670961892E+02  0.50480849817E+01 -0.14218994636E+02  0.24791323324E+02  0.00000000000E+00 0.  1.
         -2    1    1    2    0  502  0.19670961892E+02 -0.50480849817E+01  0.84139773127E+01  0.21982377441E+02  0.00000000000E+00 0. -1.
<mgrwt>
<rscale>  2 0.20308370E+02</rscale>
<asrwt>0</asrwt>
<pdfrwt beam="1">  1       21 0.31514372E-02 0.20308370E+02</pdfrwt>
<pdfrwt beam="2">  1       21 0.40445168E-02 0.20308370E+02</pdfrwt>
<totfact> 0.14296066E+08</totfact>
</mgrwt>
</event>
<event>
 4    1  0.2812958E+004  0.2200842E+02  0.7546771E-02  0.1708106E+00
         21   -1    0    0  503  502  0.00000000000E+00  0.00000000000E+00  0.32948837779E+02  0.32948837779E+02  0.00000000000E+00 0. -1.
         21   -1    0    0  501  503 -0.00000000000E+00 -0.00000000000E+00 -0.30694198316E+02  0.30694198316E+02  0.00000000000E+00 0.  1.
          2    1    1    2  501    0  0.10680202024E+01  0.21982493971E+02 -0.21842870543E+02  0.31007768412E+02  0.00000000000E+00 0.  1.
         -2    1    1    2    0  502 -0.10680202024E+01 -0.21982493971E+02  0.24097510006E+02  0.32635267684E+02  0.00000000000E+00 0. -1.
<mgrwt>
<rscale>  2 0.22008424E+02</rscale>
<asrwt>0</asrwt>
<pdfrwt beam="1">  1       21 0.50690519E-02 0.22008424E+02</pdfrwt>
<pdfrwt beam="2">  1       21 0.47221844E-02 0.22008424E+02</pdfrwt>
<totfact> 0.54320724E+07</totfact>
</mgrwt>
</event>
<event>
 4    1  0.2812958E+004  0.3485645E+02  0.7546771E-02  0.1549879E+00
         21   -1    0    0  503  502  0.00000000000E+00  0.00000000000E+00  0.91307989337E+02  0.91307989337E+02  0.00000000000E+00 0.  1.
         21   -1    0    0  501  503 -0.00000000000E+00 -0.00000000000E+00 -0.13580603627E+02  0.13580603627E+02  0.00000000000E+00 0. -1.
          2    1    1    2  501    0 -0.28972686445E+02 -0.19379263150E+02  0.31410425745E+02  0.46921074642E+02  0.00000000000E+00 0. -1.
         -2    1    1    2    0  502  0.28972686445E+02  0.19379263150E+02  0.46316959964E+02  0.57967518322E+02  0.00000000000E+00 0.  1.
<mgrwt>
<rscale>  2 0.34856454E+02</rscale>
<asrwt>0</asrwt>
<pdfrwt beam="1">  1       21 0.14047383E-01 0.34856454E+02</pdfrwt>
<pdfrwt beam="2">  1       21 0.20893237E-02 0.34856454E+02</pdfrwt>
<totfact> 0.40418477E+07</totfact>
</mgrwt>
</event>
<event>
 4    1  0.2812958E+004  0.3948296E+02  0.7546771E-02  0.1512051E+00
         21   -1    0    0  503  502  0.00000000000E+00  0.00000000000E+00  0.68055154624E+01  0.68055154624E+01  0.00000000000E+00 0. -1.
         21   -1    0    0  501  503 -0.00000000000E+00 -0.00000000000E+00 -0.28837925502E+03  0.28837925502E+03  0.00000000000E+00 0.  1.
          2    1    1    2  501    0 -0.39479144599E+02 -0.54852573369E+00 -0.20772327375E+03  0.21144233776E+03  0.00000000000E+00 0.  1.
         -2    1    1    2    0  502  0.39479144599E+02  0.54852573369E+00 -0.73850465807E+02  0.83742432725E+02  0.00000000000E+00 0. -1.
<mgrwt>
<rscale>  2 0.39482955E+02</rscale>
<asrwt>0</asrwt>
<pdfrwt beam="1">  1       21 0.10470023E-02 0.39482955E+02</pdfrwt>
<pdfrwt beam="2">  1       21 0.44366042E-01 0.39482955E+02</pdfrwt>
<totfact> 0.14723391E+07</totfact>
</mgrwt>
</event>
<event>
 4    1  0.2812958E+004  0.2807184E+02  0.7546771E-02  0.1620435E+00
         21   -1    0    0  501  502  0.00000000000E+00  0.00000000000E+00  0.70360050304E+01  0.70360050304E+01  0.00000000000E+00 0.  1.
         21   -1    0    0  502  503 -0.00000000000E+00 -0.00000000000E+00 -0.11265280932E+03  0.11265280932E+03  0.00000000000E+00 0. -1.
          2    1    1    2  501    0 -0.26479815607E+02 -0.93192022431E+01 -0.48250619968E+02  0.55822490918E+02  0.00000000000E+00 0. -1.
         -2    1    1    2    0  503  0.26479815607E+02  0.93192022431E+01 -0.57366184317E+02  0.63866323428E+02  0.00000000000E+00 0.  1.
<mgrwt>
<rscale>  2 0.28071839E+02</rscale>
<asrwt>0</asrwt>
<pdfrwt beam="1">  1       21 0.10824624E-02 0.28071839E+02</pdfrwt>
<pdfrwt beam="2">  1       21 0.17331200E-01 0.28071839E+02</pdfrwt>
<totfact> 0.73673241E+07</totfact>
</mgrwt>
</event>
<event>
 4    1  0.2812958E+004  0.4914643E+02  0.7546771E-02  0.1450001E+00
         21   -1    0    0  501  502  0.00000000000E+00  0.00000000000E+00  0.56290376318E+02  0.56290376318E+02  0.00000000000E+00 0.  1.
         21   -1    0    0  502  503 -0.00000000000E+00 -0.00000000000E+00 -0.86928531713E+02  0.86928531713E+02  0.00000000000E+00 0. -1.
          2    1    1    2  501    0  0.73413963004E+01  0.48595012054E+02  0.35638789052E+02  0.60708274405E+02  0.00000000000E+00 0.  1.
         -2    1    1    2    0  503 -0.73413963004E+01 -0.48595012054E+02 -0.66276944447E+02  0.82510633626E+02  0.00000000000E+00 0. -1.
<mgrwt>
<rscale>  2 0.49146427E+02</rscale>
<asrwt>0</asrwt>
<pdfrwt beam="1">  1       21 0.86600579E-02 0.49146427E+02</pdfrwt>
<pdfrwt beam="2">  1       21 0.13373620E-01 0.49146427E+02</pdfrwt>
<totfact> 0.46428315E+06</totfact>
</mgrwt>
</event>
<event>
 4    1  0.2812958E+004  0.3960590E+02  0.7546771E-02  0.1511132E+00
         21   -1    0    0  501  502  0.00000000000E+00  0.00000000000E+00  0.10611123802E+02  0.10611123802E+02  0.00000000000E+00 0. -1.
         21   -1    0    0  502  503 -0.00000000000E+00 -0.00000000000E+00 -0.14955011593E+03  0.14955011593E+03  0.00000000000E+00 0.  1.
          2    1    1    2  501    0  0.38320207993E+02  0.10009433964E+02 -0.60877479130E+02  0.72627092563E+02  0.00000000000E+00 0.  1.
         -2    1    1    2    0  503 -0.38320207993E+02 -0.10009433964E+02 -0.78061512993E+02  0.87534147164E+02  0.00000000000E+00 0. -1.
<mgrwt>
<rscale>  2 0.39605897E+02</rscale>
<asrwt>0</asrwt>
<pdfrwt beam="1">  1       21 0.16324805E-02 0.39605897E+02</pdfrwt>
<pdfrwt beam="2">  1       21 0.23007711E-01 0.39605897E+02</pdfrwt>
<totfact> 0.25439363E+07</totfact>
</mgrwt>
</event>
<event>
 4    1  0.2812958E+004  0.2593477E+02  0.7546771E-02  0.1647927E+00
         21   -1    0    0  501  502  0.00000000000E+00  0.00000000000E+00  0.30230062089E+02  0.30230062089E+02  0.00000000000E+00 0.  1.
         21   -1    0    0  502  503 -0.00000000000E+00 -0.00000000000E+00 -0.47361706128E+02  0.47361706128E+02  0.00000000000E+00 0. -1.
          2    1    1    2  501    0 -0.21086367889E+02 -0.15098914813E+02  0.19683759761E+02  0.32558601592E+02  0.00000000000E+00 0.  1.
         -2    1    1    2    0  503  0.21086367889E+02  0.15098914813E+02 -0.36815403800E+02  0.45033166625E+02  0.00000000000E+00 0. -1.
<mgrwt>
<rscale>  2 0.25934767E+02</rscale>
<asrwt>0</asrwt>
<pdfrwt beam="1">  1       21 0.46507788E-02 0.25934767E+02</pdfrwt>
<pdfrwt beam="2">  1       21 0.72864163E-02 0.25934767E+02</pdfrwt>
<totfact> 0.32308062E+07</totfact>
</mgrwt>
</event>
<event>
 4    1  0.2812958E+004  0.3487450E+02  0.7546771E-02  0.1549718E+00
         21   -1    0    0  501  502  0.00000000000E+00  0.00000000000E+00  0.52246070274E+02  0.52246070274E+02  0.00000000000E+00 0. -1.
         21   -1    0    0  502  503 -0.00000000000E+00 -0.00000000000E+00 -0.31543554335E+02  0.31543554335E+02  0.00000000000E+00 0.  1.
          2    1    1    2  501    0 -0.30365727338E+02 -0.17150894105E+02  0.31795836912E+02  0.47193281410E+02  0.00000000000E+00 0. -1.
         -2    1    1    2    0  503  0.30365727338E+02  0.17150894105E+02 -0.11093320973E+02  0.36596343199E+02  0.00000000000E+00 0.  1.
<mgrwt>
<rscale>  2 0.34874497E+02</rscale>
<asrwt>0</asrwt>
<pdfrwt beam="1">  1       21 0.80378570E-02 0.34874497E+02</pdfrwt>
<pdfrwt beam="2">  1       21 0.48528545E-02 0.34874497E+02</pdfrwt>
<totfact> 0.27280246E+07</totfact>
</mgrwt>
</event>
<event>
 4    1  0.2812958E+004  0.2130452E+02  0.7546771E-02  0.1720565E+00
         21   -1    0    0  501  502  0.00000000000E+00  0.00000000000E+00  0.54674269219E+02  0.54674269219E+02  0.00000000000E+00 0.  1.
         21   -1    0    0  502  503 -0.00000000000E+00 -0.00000000000E+00 -0.10933126823E+02  0.10933126823E+02  0.00000000000E+00 0. -1.
          2    1    1    2  501    0 -0.11810828264E+02 -0.17730955591E+02  0.37964301559E+02  0.43533557670E+02  0.00000000000E+00 0.  1.
         -2    1    1    2    0  503  0.11810828264E+02  0.17730955591E+02  0.57768408362E+01  0.22073838373E+02  0.00000000000E+00 0. -1.
<mgrwt>
<rscale>  2 0.21304517E+02</rscale>
<asrwt>0</asrwt>
<pdfrwt beam="1">  1       21 0.84114259E-02 0.21304517E+02</pdfrwt>
<pdfrwt beam="2">  1       21 0.16820195E-02 0.21304517E+02</pdfrwt>
<totfact> 0.11808524E+08</totfact>
</mgrwt>
</event>
<event>
 4    1  0.2812958E+004  0.2164934E+02  0.7546771E-02  0.1714388E+00
         21   -1    0    0  501  502  0.00000000000E+00  0.00000000000E+00  0.74590939585E+01  0.74590939585E+01  0.00000000000E+00 0.  1.
         21   -1    0    0  502  503 -0.00000000000E+00 -0.00000000000E+00 -0.65664775204E+02  0.65664775204E+02  0.00000000000E+00 0. -1.
          2    1    1    2  501    0 -0.15201579640E+02 -0.15414464903E+02 -0.21513175407E+02  0.30520656414E+02  0.00000000000E+00 0.  1.
         -2    1    1    2    0  503  0.15201579640E+02  0.15414464903E+02 -0.36692505838E+02  0.42603212748E+02  0.00000000000E+00 0. -1.
<mgrwt>
<rscale>  2 0.21649336E+02</rscale>
<asrwt>0</asrwt>
<pdfrwt beam="1">  1       21 0.11475529E-02 0.21649336E+02</pdfrwt>
<pdfrwt beam="2">  1       21 0.10102273E-01 0.21649336E+02</pdfrwt>
<totfact> 0.15665865E+08</totfact>
</mgrwt>
</event>
<event>
 4    1  0.2812958E+004  0.2267898E+02  0.7546771E-02  0.1696767E+00
         21   -1    0    0  501  502  0.00000000000E+00  0.00000000000E+00  0.13847433520E+03  0.13847433520E+03  0.00000000000E+00 0. -1.
         21   -1    0    0  502  503 -0.00000000000E+00 -0.00000000000E+00 -0.46621626168E+01  0.46621626168E+01  0.00000000000E+00 0.  1.
          2    1    1    2  501    0 -0.14465401509E+02  0.17466778878E+02  0.99175996394E+02  0.10173600378E+03  0.00000000000E+00 0.  1.
         -2    1    1    2    0  503  0.14465401509E+02 -0.17466778878E+02  0.34636176192E+02  0.41400494035E+02  0.00000000000E+00 0. -1.
<mgrwt>
<rscale>  2 0.22678982E+02</rscale>
<asrwt>0</asrwt>
<pdfrwt beam="1">  1       21 0.21303741E-01 0.22678982E+02</pdfrwt>
<pdfrwt beam="2">  1       21 0.71725589E-03 0.22678982E+02</pdfrwt>
<totfact> 0.90296622E+07</totfact>
</mgrwt>
</event>
<event>
 4    1  0.2812958E+004  0.2544614E+02  0.7546771E-02  0.1654675E+00
         21   -1    0    0  501  502  0.00000000000E+00  0.00000000000E+00  0.49079012815E+03  0.49079012815E+03  0.00000000000E+00 0. -1.
         21   -1    0    0  502  503 -0.00000000000E+00 -0.00000000000E+00 -0.13516575463E+01  0.13516575463E+01  0.00000000000E+00 0.  1.
          2    1    1    2  501    0 -0.20773121518E+02  0.14696377150E+02  0.28278403725E+03  0.28392660637E+03  0.00000000000E+00 0. -1.
         -2    1    1    2    0  503  0.20773121518E+02 -0.14696377150E+02  0.20665443336E+03  0.20821517934E+03  0.00000000000E+00 0.  1.
<mgrwt>
<rscale>  2 0.25446141E+02</rscale>
<asrwt>0</asrwt>
<pdfrwt beam="1">  1       21 0.75506031E-01 0.25446141E+02</pdfrwt>
<pdfrwt beam="2">  1       21 0.20794771E-03 0.25446141E+02</pdfrwt>
<totfact> 0.51738511E+07</totfact>
</mgrwt>
</event>
<event>
 4    1  0.2812958E+004  0.6156200E+02  0.7546771E-02  0.1391391E+00
         21   -1    0    0  503  502  0.00000000000E+00  0.00000000000E+00  0.19531983755E+02  0.19531983755E+02  0.00000000000E+00 0.  1.
         21   -1    0    0  501  503 -0.00000000000E+00 -0.00000000000E+00 -0.28902997636E+03  0.28902997636E+03  0.00000000000E+00 0. -1.
          2    1    1    2  501    0 -0.39476745086E+02  0.47238396720E+02 -0.22319787085E+03  0.23153222039E+03  0.00000000000E+00 0. -1.
         -2    1    1    2    0  502  0.39476745086E+02 -0.47238396720E+02 -0.46300121753E+02  0.77029739722E+02  0.00000000000E+00 0.  1.
<mgrwt>
<rscale>  2 0.61561997E+02</rscale>
<asrwt>0</asrwt>
<pdfrwt beam="1">  1       21 0.30049204E-02 0.61561997E+02</pdfrwt>
<pdfrwt beam="2">  1       21 0.44466153E-01 0.61561997E+02</pdfrwt>
<totfact> 0.29346964E+06</totfact>
</mgrwt>
</event>
<event>
 4    1  0.2812958E+004  0.2056999E+02  0.7546771E-02  0.1734225E+00
         21   -1    0    0  503  502  0.00000000000E+00  0.00000000000E+00  0.45976090888E+01  0.45976090888E+01  0.00000000000E+00 0. -1.
         21   -1    0    0  501  503 -0.00000000000E+00 -0.00000000000E+00 -0.92736654849E+02  0.92736654849E+02  0.00000000000E+00 0.  1.
          2    1    1    2  501    0  0.20194666816E+02 -0.39115029712E+01 -0.48313583641E+02  0.52510254118E+02  0.00000000000E+00 0.  1.
         -2    1    1    2    0  502 -0.20194666816E+02  0.39115029712E+01 -0.39825462119E+02  0.44824009820E+02  0.00000000000E+00 0. -1.
<mgrwt>
<rscale>  2 0.20569988E+02</rscale>
<asrwt>0</asrwt>
<pdfrwt beam="1">  1       21 0.70732449E-03 0.20569988E+02</pdfrwt>
<pdfrwt beam="2">  1       21 0.14267177E-01 0.20569988E+02</pdfrwt>
<totfact> 0.17853732E+08</totfact>
</mgrwt>
</event>
<event>
 4    1  0.2812958E+004  0.2214323E+02  0.7546771E-02  0.1705787E+00
         21   -1    0    0  503  502  0.00000000000E+00  0.00000000000E+00  0.68085836097E+00  0.68085836097E+00  0.00000000000E+00 0.  1.
         21   -1    0    0  501  503 -0.00000000000E+00 -0.00000000000E+00 -0.73330759649E+03  0.73330759649E+03  0.00000000000E+00 0. -1.
          2    1    1    2  501    0  0.16781962523E+02 -0.14446055060E+02 -0.31716141335E+03  0.31793345985E+03  0.00000000000E+00 0.  1.
         -2    1    1    2    0  502 -0.16781962523E+02  0.14446055060E+02 -0.41546532477E+03  0.41605499500E+03  0.00000000000E+00 0. -1.
<mgrwt>
<rscale>  2 0.22143233E+02</rscale>
<asrwt>0</asrwt>
<pdfrwt beam="1">  1       21 0.10474723E-03 0.22143233E+02</pdfrwt>
<pdfrwt beam="2">  1       21 0.11281678E+00 0.22143233E+02</pdfrwt>
<totfact> 0.56497077E+07</totfact>
</mgrwt>
</event>
<event>
 4    1  0.2812958E+004  0.2469549E+02  0.7546771E-02  0.1665415E+00
         21   -1    0    0  503  502  0.00000000000E+00  0.00000000000E+00  0.13341869067E+03  0.13341869067E+03  0.00000000000E+00 0. -1.
         21   -1    0    0  501  503 -0.00000000000E+00 -0.00000000000E+00 -0.88442018071E+01  0.88442018071E+01  0.00000000000E+00 0.  1.
          2    1    1    2  501    0  0.21150700789E+02 -0.12748134908E+02  0.12844210324E+02  0.27835962824E+02  0.00000000000E+00 0.  1.
         -2    1    1    2    0  502 -0.21150700789E+02  0.12748134908E+02  0.11173027854E+03  0.11442692965E+03  0.00000000000E+00 0. -1.
<mgrwt>
<rscale>  2 0.24695487E+02</rscale>
<asrwt>0</asrwt>
<pdfrwt beam="1">  1       21 0.20525951E-01 0.24695487E+02</pdfrwt>
<pdfrwt beam="2">  1       21 0.13606465E-02 0.24695487E+02</pdfrwt>
<totfact> 0.37619019E+07</totfact>
</mgrwt>
</event>
<event>
 4    1  0.2812958E+004  0.2108108E+02  0.7546771E-02  0.1724646E+00
         21   -1    0    0  501  502  0.00000000000E+00  0.00000000000E+00  0.68432563585E+02  0.68432563585E+02  0.00000000000E+00 0. -1.
         21   -1    0    0  502  503 -0.00000000000E+00 -0.00000000000E+00 -0.58997813396E+02  0.58997813396E+02  0.00000000000E+00 0.  1.
          2    1    1    2  501    0 -0.15185395105E+02 -0.14622440582E+02  0.64823645088E+02  0.68165364780E+02  0.00000000000E+00 0. -1.
         -2    1    1    2    0  503  0.15185395105E+02  0.14622440582E+02 -0.55388894899E+02  0.59265012201E+02  0.00000000000E+00 0.  1.
<mgrwt>
<rscale>  2 0.21081081E+02</rscale>
<asrwt>0</asrwt>
<pdfrwt beam="1">  1       21 0.10528087E-01 0.21081081E+02</pdfrwt>
<pdfrwt beam="2">  1       21 0.90765866E-02 0.21081081E+02</pdfrwt>
<totfact> 0.57511258E+06</totfact>
</mgrwt>
</event>
<event>
 4    1  0.2812958E+004  0.2537746E+02  0.7546771E-02  0.1655639E+00
         21   -1    0    0  503  502  0.00000000000E+00  0.00000000000E+00  0.30611212144E+03  0.30611212144E+03  0.00000000000E+00 0. -1.
         21   -1    0    0  501  503 -0.00000000000E+00 -0.00000000000E+00 -0.24166988915E+02  0.24166988915E+02  0.00000000000E+00 0.  1.
          2    1    1    2  501    0  0.11414449180E+02 -0.22665519368E+02 -0.16815241637E+02  0.30442860733E+02  0.00000000000E+00 0.  1.
         -2    1    1    2    0  502 -0.11414449180E+02  0.22665519368E+02  0.29876037416E+03  0.29983624962E+03  0.00000000000E+00 0. -1.
<mgrwt>
<rscale>  2 0.25377459E+02</rscale>
<asrwt>0</asrwt>
<pdfrwt beam="1">  1       21 0.47094170E-01 0.25377459E+02</pdfrwt>
<pdfrwt beam="2">  1       21 0.37179985E-02 0.25377459E+02</pdfrwt>
<totfact> 0.17368407E+06</totfact>
</mgrwt>
</event>
<event>
 4    1  0.2812958E+004  0.2615046E+02  0.7546771E-02  0.1645007E+00
         21   -1    0    0  503  502  0.00000000000E+00  0.00000000000E+00  0.86213810689E+02  0.86213810689E+02  0.00000000000E+00 0. -1.
         21   -1    0    0  501  503 -0.00000000000E+00 -0.00000000000E+00 -0.17364914367E+02  0.17364914367E+02  0.00000000000E+00 0.  1.
          2    1    1    2  501    0 -0.11517819823E+02  0.23477356348E+02 -0.37460292605E+01  0.26417402782E+02  0.00000000000E+00 0.  1.
         -2    1    1    2    0  502  0.11517819823E+02 -0.23477356348E+02  0.72594925583E+02  0.77161322273E+02  0.00000000000E+00 0. -1.
<mgrwt>
<rscale>  2 0.26150458E+02</rscale>
<asrwt>0</asrwt>
<pdfrwt beam="1">  1       21 0.13263663E-01 0.26150458E+02</pdfrwt>
<pdfrwt beam="2">  1       21 0.26715253E-02 0.26150458E+02</pdfrwt>
<totfact> 0.28648446E+07</totfact>
</mgrwt>
</event>
<event>
 4    1  0.2812958E+004  0.2357866E+02  0.7546771E-02  0.1682298E+00
         21   -1    0    0  503  502  0.00000000000E+00  0.00000000000E+00  0.30644292198E+03  0.30644292198E+03  0.00000000000E+00 0.  1.
         21   -1    0    0  501  503 -0.00000000000E+00 -0.00000000000E+00 -0.25325768101E+01  0.25325768101E+01  0.00000000000E+00 0. -1.
          2    1    1    2  501    0 -0.17879720381E+02  0.15371034861E+02  0.69677010789E+02  0.73558405000E+02  0.00000000000E+00 0. -1.
         -2    1    1    2    0  502  0.17879720381E+02 -0.15371034861E+02  0.23423333438E+03  0.23541709379E+03  0.00000000000E+00 0.  1.
<mgrwt>
<rscale>  2 0.23578658E+02</rscale>
<asrwt>0</asrwt>
<pdfrwt beam="1">  1       21 0.47145036E-01 0.23578658E+02</pdfrwt>
<pdfrwt beam="2">  1       21 0.38962744E-03 0.23578658E+02</pdfrwt>
<totfact> 0.52320589E+07</totfact>
</mgrwt>
</event>
<event>
 4    1  0.2812958E+004  0.2048743E+02  0.7546771E-02  0.1735805E+00
         21   -1    0    0  501  502  0.00000000000E+00  0.00000000000E+00  0.15396182320E+04  0.15396182320E+04  0.00000000000E+00 0. -1.
         21   -1    0    0  502  503 -0.00000000000E+00 -0.00000000000E+00 -0.10077080314E+01  0.10077080314E+01  0.00000000000E+00 0.  1.
          2    1    1    2  501    0 -0.81471726799E+00 -0.20471223592E+02  0.14272186917E+04  0.14273657306E+04  0.00000000000E+00 0. -1.
         -2    1    1    2    0  503  0.81471726799E+00  0.20471223592E+02  0.11139183224E+03  0.11326020947E+03  0.00000000000E+00 0.  1.
<mgrwt>
<rscale>  2 0.20487429E+02</rscale>
<asrwt>0</asrwt>
<pdfrwt beam="1">  1       21 0.23686246E+00 0.20487429E+02</pdfrwt>
<pdfrwt beam="2">  1       21 0.15503324E-03 0.20487429E+02</pdfrwt>
<totfact> 0.52461601E+06</totfact>
</mgrwt>
</event>
<event>
 4    1  0.2812958E+004  0.3137746E+02  0.7546771E-02  0.1583343E+00
         21   -1    0    0  503  502  0.00000000000E+00  0.00000000000E+00  0.15627494456E+04  0.15627494456E+04  0.00000000000E+00 0. -1.
         21   -1    0    0  501  503 -0.00000000000E+00 -0.00000000000E+00 -0.75994747440E+00  0.75994747440E+00  0.00000000000E+00 0.  1.
          2    1    1    2  501    0  0.30912360796E+02  0.53824466489E+01  0.45773686506E+03  0.45881105307E+03  0.00000000000E+00 0. -1.
         -2    1    1    2    0  502 -0.30912360796E+02 -0.53824466489E+01  0.11042526331E+04  0.11046983400E+04  0.00000000000E+00 0.  1.
<mgrwt>
<rscale>  2 0.31377457E+02</rscale>
<asrwt>0</asrwt>
<pdfrwt beam="1">  1       21 0.24042042E+00 0.31377457E+02</pdfrwt>
<pdfrwt beam="2">  1       21 0.11691625E-03 0.31377457E+02</pdfrwt>
<totfact> 0.77588262E+06</totfact>
</mgrwt>
</event>
<event>
 4    1  0.2812958E+004  0.2732837E+02  0.7546771E-02  0.1629648E+00
         21   -1    0    0  503  502  0.00000000000E+00  0.00000000000E+00  0.10649702878E+02  0.10649702878E+02  0.00000000000E+00 0. -1.
         21   -1    0    0  501  503 -0.00000000000E+00 -0.00000000000E+00 -0.85065838325E+02  0.85065838325E+02  0.00000000000E+00 0.  1.
          2    1    1    2  501    0  0.20254809571E+02 -0.18346191530E+02 -0.57263032314E+02  0.63449940301E+02  0.00000000000E+00 0.  1.
         -2    1    1    2    0  502 -0.20254809571E+02  0.18346191530E+02 -0.17153103133E+02  0.32265600901E+02  0.00000000000E+00 0. -1.
<mgrwt>
<rscale>  2 0.27328375E+02</rscale>
<asrwt>0</asrwt>
<pdfrwt beam="1">  1       21 0.16384158E-02 0.27328375E+02</pdfrwt>
<pdfrwt beam="2">  1       21 0.13087052E-01 0.27328375E+02</pdfrwt>
<totfact> 0.63017990E+07</totfact>
</mgrwt>
</event>
<event>
 4    1  0.2812958E+004  0.2320751E+02  0.7546771E-02  0.1688168E+00
         21   -1    0    0  503  502  0.00000000000E+00  0.00000000000E+00  0.10744037870E+02  0.10744037870E+02  0.00000000000E+00 0.  1.
         21   -1    0    0  501  503 -0.00000000000E+00 -0.00000000000E+00 -0.14185282370E+03  0.14185282370E+03  0.00000000000E+00 0. -1.
          2    1    1    2  501    0 -0.11577788240E+02  0.20113257438E+02 -0.12690764586E+03  0.12901216564E+03  0.00000000000E+00 0. -1.
         -2    1    1    2    0  502  0.11577788240E+02 -0.20113257438E+02 -0.42011399759E+01  0.23584695936E+02  0.00000000000E+00 0.  1.
<mgrwt>
<rscale>  2 0.23207505E+02</rscale>
<asrwt>0</asrwt>
<pdfrwt beam="1">  1       21 0.16529288E-02 0.23207505E+02</pdfrwt>
<pdfrwt beam="2">  1       21 0.21823513E-01 0.23207505E+02</pdfrwt>
<totfact> 0.24763185E+07</totfact>
</mgrwt>
</event>
<event>
 4    1  0.2812958E+004  0.2725928E+02  0.7546771E-02  0.1630522E+00
         21   -1    0    0  503  502  0.00000000000E+00  0.00000000000E+00  0.80940636099E+00  0.80940636099E+00  0.00000000000E+00 0.  1.
         21   -1    0    0  501  503 -0.00000000000E+00 -0.00000000000E+00 -0.96458911032E+03  0.96458911032E+03  0.00000000000E+00 0. -1.
          2    1    1    2  501    0  0.23858177962E+02  0.13185444237E+02 -0.58792609878E+03  0.58855770000E+03  0.00000000000E+00 0.  1.
         -2    1    1    2    0  502 -0.23858177962E+02 -0.13185444237E+02 -0.37585360518E+03  0.37684081669E+03  0.00000000000E+00 0. -1.
<mgrwt>
<rscale>  2 0.27259285E+02</rscale>
<asrwt>0</asrwt>
<pdfrwt beam="1">  1       21 0.12452406E-03 0.27259285E+02</pdfrwt>
<pdfrwt beam="2">  1       21 0.14839832E+00 0.27259285E+02</pdfrwt>
<totfact> 0.24374446E+07</totfact>
</mgrwt>
</event>
<event>
 4    1  0.2812958E+004  0.2188254E+02  0.7546771E-02  0.1710291E+00
         21   -1    0    0  501  502  0.00000000000E+00  0.00000000000E+00  0.47449964593E+02  0.47449964593E+02  0.00000000000E+00 0.  1.
         21   -1    0    0  502  503 -0.00000000000E+00 -0.00000000000E+00 -0.11323684245E+02  0.11323684245E+02  0.00000000000E+00 0. -1.
          2    1    1    2  501    0 -0.16872162546E+02  0.13934698223E+02  0.27756635230E+02  0.35345105501E+02  0.00000000000E+00 0.  1.
         -2    1    1    2    0  503  0.16872162546E+02 -0.13934698223E+02  0.83696451178E+01  0.23428543338E+02  0.00000000000E+00 0. -1.
<mgrwt>
<rscale>  2 0.21882543E+02</rscale>
<asrwt>0</asrwt>
<pdfrwt beam="1">  1       21 0.72999944E-02 0.21882543E+02</pdfrwt>
<pdfrwt beam="2">  1       21 0.17421053E-02 0.21882543E+02</pdfrwt>
<totfact> 0.14207393E+08</totfact>
</mgrwt>
</event>
<event>
 4    1  0.2812958E+004  0.2181659E+02  0.7546771E-02  0.1711443E+00
         21   -1    0    0  501  502  0.00000000000E+00  0.00000000000E+00  0.15989182684E+02  0.15989182684E+02  0.00000000000E+00 0. -1.
         21   -1    0    0  502  503 -0.00000000000E+00 -0.00000000000E+00 -0.36672504292E+02  0.36672504292E+02  0.00000000000E+00 0.  1.
          2    1    1    2  501    0  0.12138367549E+02  0.18127973429E+02  0.10835930680E+01  0.21843478691E+02  0.00000000000E+00 0. -1.
         -2    1    1    2    0  503 -0.12138367549E+02 -0.18127973429E+02 -0.21766914676E+02  0.30818208285E+02  0.00000000000E+00 0.  1.
<mgrwt>
<rscale>  2 0.21816585E+02</rscale>
<asrwt>0</asrwt>
<pdfrwt beam="1">  1       21 0.24598743E-02 0.21816585E+02</pdfrwt>
<pdfrwt beam="2">  1       21 0.56419237E-02 0.21816585E+02</pdfrwt>
<totfact> 0.12658304E+08</totfact>
</mgrwt>
</event>
<event>
 4    1  0.2812958E+004  0.4237956E+02  0.7546771E-02  0.1491397E+00
         21   -1    0    0  503  502  0.00000000000E+00  0.00000000000E+00  0.42277341228E+02  0.42277341228E+02  0.00000000000E+00 0. -1.
         21   -1    0    0  501  503 -0.00000000000E+00 -0.00000000000E+00 -0.54343745459E+02  0.54343745459E+02  0.00000000000E+00 0.  1.
          2    1    1    2  501    0  0.20008340324E+02  0.37358985294E+02 -0.28603682808E+02  0.51129229751E+02  0.00000000000E+00 0.  1.
         -2    1    1    2    0  502 -0.20008340324E+02 -0.37358985294E+02  0.16537278578E+02  0.45491856936E+02  0.00000000000E+00 0. -1.
<mgrwt>
<rscale>  2 0.42379564E+02</rscale>
<asrwt>0</asrwt>
<pdfrwt beam="1">  1       21 0.65042064E-02 0.42379564E+02</pdfrwt>
<pdfrwt beam="2">  1       21 0.83605762E-02 0.42379564E+02</pdfrwt>
<totfact> 0.16364221E+07</totfact>
</mgrwt>
</event>
<event>
 4    1  0.2812958E+004  0.2056742E+02  0.7546771E-02  0.1734274E+00
         21   -1    0    0  501  502  0.00000000000E+00  0.00000000000E+00  0.94703635049E+02  0.94703635049E+02  0.00000000000E+00 0.  1.
         21   -1    0    0  502  503 -0.00000000000E+00 -0.00000000000E+00 -0.44677790074E+01  0.44677790074E+01  0.00000000000E+00 0. -1.
          2    1    1    2  501    0  0.19920222656E+02 -0.51189303346E+01  0.44370272253E+02  0.48905416656E+02  0.00000000000E+00 0.  1.
         -2    1    1    2    0  503 -0.19920222656E+02  0.51189303346E+01  0.45865583788E+02  0.50265997401E+02  0.00000000000E+00 0. -1.
<mgrwt>
<rscale>  2 0.20567419E+02</rscale>
<asrwt>0</asrwt>
<pdfrwt beam="1">  1       21 0.14569789E-01 0.20567419E+02</pdfrwt>
<pdfrwt beam="2">  1       21 0.68735069E-03 0.20567419E+02</pdfrwt>
<totfact> 0.17978148E+08</totfact>
</mgrwt>
</event>
<event>
 4    1  0.2812958E+004  0.2333068E+02  0.7546771E-02  0.1686205E+00
         21   -1    0    0  503  502  0.00000000000E+00  0.00000000000E+00  0.56256489225E+02  0.56256489225E+02  0.00000000000E+00 0.  1.
         21   -1    0    0  501  503 -0.00000000000E+00 -0.00000000000E+00 -0.10089967829E+02  0.10089967829E+02  0.00000000000E+00 0. -1.
          2    1    1    2  501    0 -0.54008109412E+01 -0.22696962142E+02  0.16361484551E+02  0.28495947537E+02  0.00000000000E+00 0. -1.
         -2    1    1    2    0  502  0.54008109412E+01  0.22696962142E+02  0.29805036845E+02  0.37850509517E+02  0.00000000000E+00 0.  1.
<mgrwt>
<rscale>  2 0.23330685E+02</rscale>
<asrwt>0</asrwt>
<pdfrwt beam="1">  1       21 0.86548443E-02 0.23330685E+02</pdfrwt>
<pdfrwt beam="2">  1       21 0.15523028E-02 0.23330685E+02</pdfrwt>
<totfact> 0.13081533E+08</totfact>
</mgrwt>
</event>
<event>
 4    1  0.2812958E+004  0.3133526E+02  0.7546771E-02  0.1583781E+00
         21   -1    0    0  501  502  0.00000000000E+00  0.00000000000E+00  0.15681204376E+03  0.15681204376E+03  0.00000000000E+00 0. -1.
         21   -1    0    0  502  503 -0.00000000000E+00 -0.00000000000E+00 -0.90355452591E+01  0.90355452591E+01  0.00000000000E+00 0.  1.
          2    1    1    2  501    0  0.31285970231E+02  0.17567952665E+01  0.11983438015E+03  0.12386354156E+03  0.00000000000E+00 0. -1.
         -2    1    1    2    0  503 -0.31285970231E+02 -0.17567952665E+01  0.27942118357E+02  0.41984047461E+02  0.00000000000E+00 0.  1.
<mgrwt>
<rscale>  2 0.31335256E+02</rscale>
<asrwt>0</asrwt>
<pdfrwt beam="1">  1       21 0.24124928E-01 0.31335256E+02</pdfrwt>
<pdfrwt beam="2">  1       21 0.13900840E-02 0.31335256E+02</pdfrwt>
<totfact> 0.28714871E+07</totfact>
</mgrwt>
</event>
<event>
 4    1  0.2812958E+004  0.2456226E+02  0.7546771E-02  0.1667370E+00
         21   -1    0    0  501  502  0.00000000000E+00  0.00000000000E+00  0.29950954883E+01  0.29950954883E+01  0.00000000000E+00 0. -1.
         21   -1    0    0  502  503 -0.00000000000E+00 -0.00000000000E+00 -0.46049217386E+03  0.46049217386E+03  0.00000000000E+00 0.  1.
          2    1    1    2  501    0 -0.36428662607E+01 -0.24290619650E+02 -0.54929252121E+02  0.60170818643E+02  0.00000000000E+00 0. -1.
         -2    1    1    2    0  503  0.36428662607E+01  0.24290619650E+02 -0.40256782625E+03  0.40331645070E+03  0.00000000000E+00 0.  1.
<mgrwt>
<rscale>  2 0.24562261E+02</rscale>
<asrwt>0</asrwt>
<pdfrwt beam="1">  1       21 0.46078378E-03 0.24562261E+02</pdfrwt>
<pdfrwt beam="2">  1       21 0.70844971E-01 0.24562261E+02</pdfrwt>
<totfact> 0.18318063E+07</totfact>
</mgrwt>
</event>
<event>
 4    1  0.2812958E+004  0.3244579E+02  0.7546771E-02  0.1572527E+00
         21   -1    0    0  503  502  0.00000000000E+00  0.00000000000E+00  0.45445257639E+03  0.45445257639E+03  0.00000000000E+00 0.  1.
         21   -1    0    0  501  503 -0.00000000000E+00 -0.00000000000E+00 -0.57826091120E+01  0.57826091120E+01  0.00000000000E+00 0. -1.
          2    1    1    2  501    0  0.29925753115E+02 -0.12537081116E+02  0.46174887740E+02  0.56434469610E+02  0.00000000000E+00 0. -1.
         -2    1    1    2    0  502 -0.29925753115E+02  0.12537081116E+02  0.40249507954E+03  0.40380071589E+03  0.00000000000E+00 0.  1.
<mgrwt>
<rscale>  2 0.32445787E+02</rscale>
<asrwt>0</asrwt>
<pdfrwt beam="1">  1       21 0.69915753E-01 0.32445787E+02</pdfrwt>
<pdfrwt beam="2">  1       21 0.88963253E-03 0.32445787E+02</pdfrwt>
<totfact> 0.73550799E+06</totfact>
</mgrwt>
</event>
<event>
 4    1  0.2812958E+004  0.2439376E+02  0.7546771E-02  0.1669865E+00
         21   -1    0    0  503  502  0.00000000000E+00  0.00000000000E+00  0.11013516933E+03  0.11013516933E+03  0.00000000000E+00 0. -1.
         21   -1    0    0  501  503 -0.00000000000E+00 -0.00000000000E+00 -0.12849233166E+02  0.12849233166E+02  0.00000000000E+00 0.  1.
          2    1    1    2  501    0 -0.10653700330E+02  0.21944345931E+02  0.18316373503E+01  0.24462431286E+02  0.00000000000E+00 0.  1.
         -2    1    1    2    0  502  0.10653700330E+02 -0.21944345931E+02  0.95454298818E+02  0.98521971214E+02  0.00000000000E+00 0. -1.
<mgrwt>
<rscale>  2 0.24393763E+02</rscale>
<asrwt>0</asrwt>
<pdfrwt beam="1">  1       21 0.16943872E-01 0.24393763E+02</pdfrwt>
<pdfrwt beam="2">  1       21 0.19768052E-02 0.24393763E+02</pdfrwt>
<totfact> 0.29592233E+07</totfact>
</mgrwt>
</event>
<event>
 4    1  0.2812958E+004  0.2353612E+02  0.7546771E-02  0.1682964E+00
         21   -1    0    0  503  502  0.00000000000E+00  0.00000000000E+00  0.51496578878E+02  0.51496578878E+02  0.00000000000E+00 0.  1.
         21   -1    0    0  501  503 -0.00000000000E+00 -0.00000000000E+00 -0.23289920630E+02  0.23289920630E+02  0.00000000000E+00 0. -1.
          2    1    1    2  501    0 -0.59610262323E+01  0.22768734899E+02 -0.13327264618E+02  0.27047460229E+02  0.00000000000E+00 0. -1.
         -2    1    1    2    0  502  0.59610262323E+01 -0.22768734899E+02  0.41533922867E+02  0.47739039279E+02  0.00000000000E+00 0.  1.
<mgrwt>
<rscale>  2 0.23536124E+02</rscale>
<asrwt>0</asrwt>
<pdfrwt beam="1">  1       21 0.79225506E-02 0.23536124E+02</pdfrwt>
<pdfrwt beam="2">  1       21 0.35830647E-02 0.23536124E+02</pdfrwt>
<totfact> 0.41617655E+07</totfact>
</mgrwt>
</event>
<event>
 4    1  0.2812958E+004  0.2462109E+02  0.7546771E-02  0.1666505E+00
         21   -1    0    0  503  502  0.00000000000E+00  0.00000000000E+00  0.28453546058E+01  0.28453546058E+01  0.00000000000E+00 0. -1.
         21   -1    0    0  501  503 -0.00000000000E+00 -0.00000000000E+00 -0.63659389766E+03  0.63659389766E+03  0.00000000000E+00 0.  1.
          2    1    1    2  501    0  0.10975681077E+02  0.22039336861E+02 -0.57766259955E+03  0.57818706044E+03  0.00000000000E+00 0.  1.
         -2    1    1    2    0  502 -0.10975681077E+02 -0.22039336861E+02 -0.56085943503E+02  0.61252191822E+02  0.00000000000E+00 0. -1.
<mgrwt>
<rscale>  2 0.24621087E+02</rscale>
<asrwt>0</asrwt>
<pdfrwt beam="1">  1       21 0.43774682E-03 0.24621087E+02</pdfrwt>
<pdfrwt beam="2">  1       21 0.97937533E-01 0.24621087E+02</pdfrwt>
<totfact> 0.99487115E+06</totfact>
</mgrwt>
</event>
<event>
 4    1  0.2812958E+004  0.2353573E+02  0.7546771E-02  0.1682970E+00
         21   -1    0    0  501  502  0.00000000000E+00  0.00000000000E+00  0.36971200611E+01  0.36971200611E+01  0.00000000000E+00 0.  1.
         21   -1    0    0  502  503 -0.00000000000E+00 -0.00000000000E+00 -0.61626031701E+03  0.61626031701E+03  0.00000000000E+00 0. -1.
          2    1    1    2  501    0 -0.50150934253E+01  0.22995199800E+02 -0.36604348227E+02  0.43517912232E+02  0.00000000000E+00 0.  1.
         -2    1    1    2    0  503  0.50150934253E+01 -0.22995199800E+02 -0.57595884873E+03  0.57643952484E+03  0.00000000000E+00 0. -1.
<mgrwt>
<rscale>  2 0.23535726E+02</rscale>
<asrwt>0</asrwt>
<pdfrwt beam="1">  1       21 0.56878752E-03 0.23535726E+02</pdfrwt>
<pdfrwt beam="2">  1       21 0.94809310E-01 0.23535726E+02</pdfrwt>
<totfact> 0.72007660E+06</totfact>
</mgrwt>
</event>
<event>
 4    1  0.2812958E+004  0.2194907E+02  0.7546771E-02  0.1709134E+00
         21   -1    0    0  503  502  0.00000000000E+00  0.00000000000E+00  0.15117946938E+01  0.15117946938E+01  0.00000000000E+00 0. -1.
         21   -1    0    0  501  503 -0.00000000000E+00 -0.00000000000E+00 -0.31893713359E+03  0.31893713359E+03  0.00000000000E+00 0.  1.
          2    1    1    2  501    0 -0.16858264973E+02 -0.14055621053E+02 -0.15406397009E+03  0.15561962749E+03  0.00000000000E+00 0.  1.
         -2    1    1    2    0  502  0.16858264973E+02  0.14055621053E+02 -0.16336136881E+03  0.16482930079E+03  0.00000000000E+00 0. -1.
<mgrwt>
<rscale>  2 0.21949068E+02</rscale>
<asrwt>0</asrwt>
<pdfrwt beam="1">  1       21 0.23258384E-03 0.21949068E+02</pdfrwt>
<pdfrwt beam="2">  1       21 0.49067242E-01 0.21949068E+02</pdfrwt>
<totfact> 0.10087123E+08</totfact>
</mgrwt>
</event>
<event>
 4    1  0.2812958E+004  0.2002302E+02  0.7546771E-02  0.1744871E+00
         21   -1    0    0  503  502  0.00000000000E+00  0.00000000000E+00  0.41019544115E+03  0.41019544115E+03  0.00000000000E+00 0.  1.
         21   -1    0    0  501  503 -0.00000000000E+00 -0.00000000000E+00 -0.17132197654E+01  0.17132197654E+01  0.00000000000E+00 0. -1.
          2    1    1    2  501    0  0.18798408290E+02  0.68950117508E+01  0.69266288425E+02  0.72102288823E+02  0.00000000000E+00 0. -1.
         -2    1    1    2    0  502 -0.18798408290E+02 -0.68950117508E+01  0.33921593296E+03  0.33980637209E+03  0.00000000000E+00 0.  1.
<mgrwt>
<rscale>  2 0.20023020E+02</rscale>
<asrwt>0</asrwt>
<pdfrwt beam="1">  1       21 0.63106912E-01 0.20023020E+02</pdfrwt>
<pdfrwt beam="2">  1       21 0.26357260E-03 0.20023020E+02</pdfrwt>
<totfact> 0.50115636E+07</totfact>
</mgrwt>
</event>
<event>
 4    1  0.2812958E+004  0.3931489E+02  0.7546771E-02  0.1513314E+00
         21   -1    0    0  503  502  0.00000000000E+00  0.00000000000E+00  0.15740479962E+03  0.15740479962E+03  0.00000000000E+00 0. -1.
         21   -1    0    0  501  503 -0.00000000000E+00 -0.00000000000E+00 -0.28687753907E+02  0.28687753907E+02  0.00000000000E+00 0.  1.
          2    1    1    2  501    0  0.36051392745E+02  0.15683046193E+02 -0.11101128820E+02  0.40852122562E+02  0.00000000000E+00 0.  1.
         -2    1    1    2    0  502 -0.36051392745E+02 -0.15683046193E+02  0.13981817453E+03  0.14524043096E+03  0.00000000000E+00 0. -1.
<mgrwt>
<rscale>  2 0.39314894E+02</rscale>
<asrwt>0</asrwt>
<pdfrwt beam="1">  1       21 0.24216122E-01 0.39314894E+02</pdfrwt>
<pdfrwt beam="2">  1       21 0.44135007E-02 0.39314894E+02</pdfrwt>
<totfact> 0.48070137E+06</totfact>
</mgrwt>
</event>
<event>
 4    1  0.2812958E+004  0.2530514E+02  0.7546771E-02  0.1656657E+00
         21   -1    0    0  503  502  0.00000000000E+00  0.00000000000E+00  0.57492227195E+01  0.57492227195E+01  0.00000000000E+00 0.  1.
         21   -1    0    0  501  503 -0.00000000000E+00 -0.00000000000E+00 -0.18854972557E+04  0.18854972557E+04  0.00000000000E+00 0. -1.
          2    1    1    2  501    0 -0.17742372049E+02  0.18043241886E+02 -0.18571421447E+04  0.18573145388E+04  0.00000000000E+00 0. -1.
         -2    1    1    2    0  502  0.17742372049E+02 -0.18043241886E+02 -0.22605888322E+02  0.33931939681E+02  0.00000000000E+00 0.  1.
<mgrwt>
<rscale>  2 0.25305145E+02</rscale>
<asrwt>0</asrwt>
<pdfrwt beam="1">  1       21 0.88449561E-03 0.25305145E+02</pdfrwt>
<pdfrwt beam="2">  1       21 0.29007656E+00 0.25305145E+02</pdfrwt>
<totfact> 0.22425981E+05</totfact>
</mgrwt>
</event>
<event>
 4    1  0.2812958E+004  0.2625735E+02  0.7546771E-02  0.1643572E+00
         21   -1    0    0  503  502  0.00000000000E+00  0.00000000000E+00  0.64422983567E+01  0.64422983567E+01  0.00000000000E+00 0.  1.
         21   -1    0    0  501  503 -0.00000000000E+00 -0.00000000000E+00 -0.25794060871E+03  0.25794060871E+03  0.00000000000E+00 0. -1.
          2    1    1    2  501    0 -0.25736970399E+02 -0.52016358430E+01 -0.22686498640E+03  0.22837944460E+03  0.00000000000E+00 0. -1.
         -2    1    1    2    0  502  0.25736970399E+02  0.52016358430E+01 -0.24633323955E+02  0.36003462470E+02  0.00000000000E+00 0.  1.
<mgrwt>
<rscale>  2 0.26257354E+02</rscale>
<asrwt>0</asrwt>
<pdfrwt beam="1">  1       21 0.99112276E-03 0.26257354E+02</pdfrwt>
<pdfrwt beam="2">  1       21 0.39683173E-01 0.26257354E+02</pdfrwt>
<totfact> 0.18555602E+07</totfact>
</mgrwt>
</event>
<event>
 4    1  0.2812958E+004  0.3493992E+02  0.7546771E-02  0.1549135E+00
         21   -1    0    0  501  502  0.00000000000E+00  0.00000000000E+00  0.17754296662E+02  0.17754296662E+02  0.00000000000E+00 0.  1.
         21   -1    0    0  502  503 -0.00000000000E+00 -0.00000000000E+00 -0.10543785905E+03  0.10543785905E+03  0.00000000000E+00 0. -1.
          2    1    1    2  501    0 -0.34925982653E+02 -0.98682752018E+00 -0.75128568882E+01  0.35738510201E+02  0.00000000000E+00 0.  1.
         -2    1    1    2    0  503  0.34925982653E+02  0.98682752018E+00 -0.80170705503E+02  0.87453645514E+02  0.00000000000E+00 0. -1.
<mgrwt>
<rscale>  2 0.34939921E+02</rscale>
<asrwt>0</asrwt>
<pdfrwt beam="1">  1       21 0.27314303E-02 0.34939921E+02</pdfrwt>
<pdfrwt beam="2">  1       21 0.16221209E-01 0.34939921E+02</pdfrwt>
<totfact> 0.20709918E+07</totfact>
</mgrwt>
</event>
<event>
 4    1  0.2812958E+004  0.2341145E+02  0.7546771E-02  0.1684926E+00
         21   -1    0    0  503  502  0.00000000000E+00  0.00000000000E+00  0.16264039350E+03  0.16264039350E+03  0.00000000000E+00 0.  1.
         21   -1    0    0  501  503 -0.00000000000E+00 -0.00000000000E+00 -0.46117684488E+01  0.46117684488E+01  0.00000000000E+00 0. -1.
          2    1    1    2  501    0 -0.18051747400E+02 -0.14907400348E+02  0.35620239841E+02  0.42625082471E+02  0.00000000000E+00 0. -1.
         -2    1    1    2    0  502  0.18051747400E+02  0.14907400348E+02  0.12240838521E+03  0.12462707948E+03  0.00000000000E+00 0.  1.
<mgrwt>
<rscale>  2 0.23411454E+02</rscale>
<asrwt>0</asrwt>
<pdfrwt beam="1">  1       21 0.25021595E-01 0.23411454E+02</pdfrwt>
<pdfrwt beam="2">  1       21 0.70950296E-03 0.23411454E+02</pdfrwt>
<totfact> 0.69628701E+07</totfact>
</mgrwt>
</event>
<event>
 4    1  0.2812958E+004  0.3565575E+02  0.7546771E-02  0.1542853E+00
         21   -1    0    0  503  502  0.00000000000E+00  0.00000000000E+00  0.27797910921E+03  0.27797910921E+03  0.00000000000E+00 0. -1.
         21   -1    0    0  501  503 -0.00000000000E+00 -0.00000000000E+00 -0.67966633950E+01  0.67966633950E+01  0.00000000000E+00 0.  1.
          2    1    1    2  501    0 -0.92793932236E+01 -0.34427101812E+02  0.54155941241E+02  0.64839790634E+02  0.00000000000E+00 0.  1.
         -2    1    1    2    0  502  0.92793932236E+01  0.34427101812E+02  0.21702650457E+03  0.21993598197E+03  0.00000000000E+00 0. -1.
<mgrwt>
<rscale>  2 0.35655750E+02</rscale>
<asrwt>0</asrwt>
<pdfrwt beam="1">  1       21 0.42766008E-01 0.35655750E+02</pdfrwt>
<pdfrwt beam="2">  1       21 0.10456407E-02 0.35655750E+02</pdfrwt>
<totfact> 0.15615085E+07</totfact>
</mgrwt>
</event>
<event>
 4    1  0.2812958E+004  0.2538237E+02  0.7546771E-02  0.1655570E+00
         21   -1    0    0  503  502  0.00000000000E+00  0.00000000000E+00  0.49716383987E+01  0.49716383987E+01  0.00000000000E+00 0. -1.
         21   -1    0    0  501  503 -0.00000000000E+00 -0.00000000000E+00 -0.13253537147E+03  0.13253537147E+03  0.00000000000E+00 0.  1.
          2    1    1    2  501    0  0.60294834740E+01  0.24655835706E+02 -0.74034678547E+02  0.78264925304E+02  0.00000000000E+00 0. -1.
         -2    1    1    2    0  502 -0.60294834740E+01 -0.24655835706E+02 -0.53529054526E+02  0.59242084566E+02  0.00000000000E+00 0.  1.
<mgrwt>
<rscale>  2 0.25382374E+02</rscale>
<asrwt>0</asrwt>
<pdfrwt beam="1">  1       21 0.76486758E-03 0.25382374E+02</pdfrwt>
<pdfrwt beam="2">  1       21 0.20390054E-01 0.25382374E+02</pdfrwt>
<totfact> 0.91280916E+07</totfact>
</mgrwt>
</event>
<event>
 4    1  0.2812958E+004  0.2596923E+02  0.7546771E-02  0.1647458E+00
         21   -1    0    0  503  502  0.00000000000E+00  0.00000000000E+00  0.84682760742E+02  0.84682760742E+02  0.00000000000E+00 0. -1.
         21   -1    0    0  501  503 -0.00000000000E+00 -0.00000000000E+00 -0.81766031078E+01  0.81766031078E+01  0.00000000000E+00 0.  1.
          2    1    1    2  501    0  0.25786353772E+02 -0.30765083508E+01  0.30763704893E+02  0.40259240967E+02  0.00000000000E+00 0.  1.
         -2    1    1    2    0  502 -0.25786353772E+02  0.30765083508E+01  0.45742452742E+02  0.52600122883E+02  0.00000000000E+00 0. -1.
<mgrwt>
<rscale>  2 0.25969231E+02</rscale>
<asrwt>0</asrwt>
<pdfrwt beam="1">  1       21 0.13028116E-01 0.25969231E+02</pdfrwt>
<pdfrwt beam="2">  1       21 0.12579390E-02 0.25969231E+02</pdfrwt>
<totfact> 0.93844561E+07</totfact>
</mgrwt>
</event>
<event>
 4    1  0.2812958E+004  0.2353736E+02  0.7546771E-02  0.1682945E+00
         21   -1    0    0  501  502  0.00000000000E+00  0.00000000000E+00  0.83521534151E+03  0.83521534151E+03  0.00000000000E+00 0. -1.
         21   -1    0    0  502  503 -0.00000000000E+00 -0.00000000000E+00 -0.66558732035E+00  0.66558732035E+00  0.00000000000E+00 0.  1.
          2    1    1    2  501    0 -0.10910668467E+02 -0.20855809302E+02  0.44171677436E+03  0.44234343695E+03  0.00000000000E+00 0.  1.
         -2    1    1    2    0  503  0.10910668467E+02  0.20855809302E+02  0.39283297983E+03  0.39353749188E+03  0.00000000000E+00 0. -1.
<mgrwt>
<rscale>  2 0.23537363E+02</rscale>
<asrwt>0</asrwt>
<pdfrwt beam="1">  1       21 0.12849383E+00 0.23537363E+02</pdfrwt>
<pdfrwt beam="2">  1       21 0.10239872E-03 0.23537363E+02</pdfrwt>
<totfact> 0.44020532E+07</totfact>
</mgrwt>
</event>
<event>
 4    1  0.2812958E+004  0.2036873E+02  0.7546771E-02  0.1738093E+00
         21   -1    0    0  501  502  0.00000000000E+00  0.00000000000E+00  0.32305197303E+03  0.32305197303E+03  0.00000000000E+00 0.  1.
         21   -1    0    0  502  503 -0.00000000000E+00 -0.00000000000E+00 -0.22788920971E+01  0.22788920971E+01  0.00000000000E+00 0. -1.
          2    1    1    2  501    0  0.32303045199E+01  0.20110952902E+02  0.26785051317E+03  0.26862386844E+03  0.00000000000E+00 0.  1.
         -2    1    1    2    0  503 -0.32303045199E+01 -0.20110952902E+02  0.52922567766E+02  0.56706996684E+02  0.00000000000E+00 0. -1.
<mgrwt>
<rscale>  2 0.20368733E+02</rscale>
<asrwt>0</asrwt>
<pdfrwt beam="1">  1       21 0.49700267E-01 0.20368733E+02</pdfrwt>
<pdfrwt beam="2">  1       21 0.35059904E-03 0.20368733E+02</pdfrwt>
<totfact> 0.53210538E+07</totfact>
</mgrwt>
</event>
<event>
 4    1  0.2812958E+004  0.4462314E+02  0.7546771E-02  0.1476708E+00
         21   -1    0    0  501  502  0.00000000000E+00  0.00000000000E+00  0.11922913445E+02  0.11922913445E+02  0.00000000000E+00 0.  1.
         21   -1    0    0  502  503 -0.00000000000E+00 -0.00000000000E+00 -0.28402153960E+03  0.28402153960E+03  0.00000000000E+00 0. -1.
          2    1    1    2  501    0  0.15314852310E+02  0.41912767267E+02 -0.41071495188E+02  0.60647279232E+02  0.00000000000E+00 0.  1.
         -2    1    1    2    0  503 -0.15314852310E+02 -0.41912767267E+02 -0.23102713097E+03  0.23529717382E+03  0.00000000000E+00 0. -1.
<mgrwt>
<rscale>  2 0.44623142E+02</rscale>
<asrwt>0</asrwt>
<pdfrwt beam="1">  1       21 0.18342945E-02 0.44623142E+02</pdfrwt>
<pdfrwt beam="2">  1       21 0.43695618E-01 0.44623142E+02</pdfrwt>
<totfact> 0.64680255E+06</totfact>
</mgrwt>
</event>
<event>
 4    1  0.2812958E+004  0.2221647E+02  0.7546771E-02  0.1704535E+00
         21   -1    0    0  501  502  0.00000000000E+00  0.00000000000E+00  0.50521206382E+01  0.50521206382E+01  0.00000000000E+00 0. -1.
         21   -1    0    0  502  503 -0.00000000000E+00 -0.00000000000E+00 -0.40845207474E+03  0.40845207474E+03  0.00000000000E+00 0.  1.
          2    1    1    2  501    0  0.12978116266E+02 -0.18031639414E+02 -0.21361146946E+02  0.30819963021E+02  0.00000000000E+00 0. -1.
         -2    1    1    2    0  503 -0.12978116266E+02  0.18031639414E+02 -0.38203880716E+03  0.38268423236E+03  0.00000000000E+00 0.  1.
<mgrwt>
<rscale>  2 0.22216470E+02</rscale>
<asrwt>0</asrwt>
<pdfrwt beam="1">  1       21 0.77724921E-03 0.22216470E+02</pdfrwt>
<pdfrwt beam="2">  1       21 0.62838790E-01 0.22216470E+02</pdfrwt>
<totfact> 0.10573647E+07</totfact>
</mgrwt>
</event>
<event>
 4    1  0.2812958E+004  0.2261286E+02  0.7546771E-02  0.1697863E+00
         21   -1    0    0  503  502  0.00000000000E+00  0.00000000000E+00  0.22604429517E+01  0.22604429517E+01  0.00000000000E+00 0.  1.
         21   -1    0    0  501  503 -0.00000000000E+00 -0.00000000000E+00 -0.70967513422E+03  0.70967513422E+03  0.00000000000E+00 0. -1.
          2    1    1    2  501    0 -0.21176793746E+02 -0.79300088282E+01 -0.64751433866E+03  0.64790906801E+03  0.00000000000E+00 0. -1.
         -2    1    1    2    0  502  0.21176793746E+02  0.79300088282E+01 -0.59900352604E+02  0.64026509162E+02  0.00000000000E+00 0.  1.
<mgrwt>
<rscale>  2 0.22612864E+02</rscale>
<asrwt>0</asrwt>
<pdfrwt beam="1">  1       21 0.34776013E-03 0.22612864E+02</pdfrwt>
<pdfrwt beam="2">  1       21 0.10918089E+00 0.22612864E+02</pdfrwt>
<totfact> 0.10821097E+07</totfact>
</mgrwt>
</event>
<event>
 4    1  0.2812958E+004  0.3015725E+02  0.7546771E-02  0.1596357E+00
         21   -1    0    0  501  502  0.00000000000E+00  0.00000000000E+00  0.33620178029E+03  0.33620178029E+03  0.00000000000E+00 0. -1.
         21   -1    0    0  502  503 -0.00000000000E+00 -0.00000000000E+00 -0.73504687208E+01  0.73504687208E+01  0.00000000000E+00 0.  1.
          2    1    1    2  501    0  0.98665885539E+01  0.28497547768E+02  0.30098308383E+03  0.30249012637E+03  0.00000000000E+00 0. -1.
         -2    1    1    2    0  503 -0.98665885539E+01 -0.28497547768E+02  0.27868227734E+02  0.41062122638E+02  0.00000000000E+00 0.  1.
<mgrwt>
<rscale>  2 0.30157251E+02</rscale>
<asrwt>0</asrwt>
<pdfrwt beam="1">  1       21 0.51723339E-01 0.30157251E+02</pdfrwt>
<pdfrwt beam="2">  1       21 0.11308416E-02 0.30157251E+02</pdfrwt>
<totfact> 0.93185845E+06</totfact>
</mgrwt>
</event>
<event>
 4    1  0.2812958E+004  0.2426631E+02  0.7546771E-02  0.1671769E+00
         21   -1    0    0  501  502  0.00000000000E+00  0.00000000000E+00  0.63136266792E+03  0.63136266792E+03  0.00000000000E+00 0. -1.
         21   -1    0    0  502  503 -0.00000000000E+00 -0.00000000000E+00 -0.94142792454E+00  0.94142792454E+00  0.00000000000E+00 0.  1.
          2    1    1    2  501    0 -0.11575902182E+02  0.21327269283E+02  0.34570132331E+03  0.34655195695E+03  0.00000000000E+00 0.  1.
         -2    1    1    2    0  503  0.11575902182E+02 -0.21327269283E+02  0.28471991669E+03  0.28575213890E+03  0.00000000000E+00 0. -1.
<mgrwt>
<rscale>  2 0.24266313E+02</rscale>
<asrwt>0</asrwt>
<pdfrwt beam="1">  1       21 0.97132380E-01 0.24266313E+02</pdfrwt>
<pdfrwt beam="2">  1       21 0.14483557E-03 0.24266313E+02</pdfrwt>
<totfact> 0.50471331E+07</totfact>
</mgrwt>
</event>
<event>
 4    1  0.2812958E+004  0.2294539E+02  0.7546771E-02  0.1692397E+00
         21   -1    0    0  501  502  0.00000000000E+00  0.00000000000E+00  0.31839524235E+01  0.31839524235E+01  0.00000000000E+00 0. -1.
         21   -1    0    0  502  503 -0.00000000000E+00 -0.00000000000E+00 -0.21140151121E+03  0.21140151121E+03  0.00000000000E+00 0.  1.
          2    1    1    2  501    0  0.16879842250E+02  0.15542264225E+02 -0.54035978064E+02  0.58705859818E+02  0.00000000000E+00 0. -1.
         -2    1    1    2    0  503 -0.16879842250E+02 -0.15542264225E+02 -0.15418158072E+03  0.15587960381E+03  0.00000000000E+00 0.  1.
<mgrwt>
<rscale>  2 0.22945393E+02</rscale>
<asrwt>0</asrwt>
<pdfrwt beam="1">  1       21 0.48983877E-03 0.22945393E+02</pdfrwt>
<pdfrwt beam="2">  1       21 0.32523314E-01 0.22945393E+02</pdfrwt>
<totfact> 0.74613656E+07</totfact>
</mgrwt>
</event>
<event>
 4    1  0.2812958E+004  0.2005090E+02  0.7546771E-02  0.1744318E+00
         21   -1    0    0  501  502  0.00000000000E+00  0.00000000000E+00  0.10295012206E+03  0.10295012206E+03  0.00000000000E+00 0. -1.
         21   -1    0    0  502  503 -0.00000000000E+00 -0.00000000000E+00 -0.76691500206E+01  0.76691500206E+01  0.00000000000E+00 0.  1.
          2    1    1    2  501    0  0.20033525759E+02 -0.83460792587E+00  0.86388574281E+02  0.88684973310E+02  0.00000000000E+00 0. -1.
         -2    1    1    2    0  503 -0.20033525759E+02  0.83460792587E+00  0.88923977614E+01  0.21934298773E+02  0.00000000000E+00 0.  1.
<mgrwt>
<rscale>  2 0.20050903E+02</rscale>
<asrwt>0</asrwt>
<pdfrwt beam="1">  1       21 0.15838479E-01 0.20050903E+02</pdfrwt>
<pdfrwt beam="2">  1       21 0.11798693E-02 0.20050903E+02</pdfrwt>
<totfact> 0.69200886E+07</totfact>
</mgrwt>
</event>
<event>
 4    1  0.2812958E+004  0.2296824E+02  0.7546771E-02  0.1692026E+00
         21   -1    0    0  503  502  0.00000000000E+00  0.00000000000E+00  0.42840298906E+02  0.42840298906E+02  0.00000000000E+00 0.  1.
         21   -1    0    0  501  503 -0.00000000000E+00 -0.00000000000E+00 -0.15332311241E+02  0.15332311241E+02  0.00000000000E+00 0. -1.
          2    1    1    2  501    0  0.17713681516E+02 -0.14620717466E+02  0.84895615768E+00  0.22983920871E+02  0.00000000000E+00 0. -1.
         -2    1    1    2    0  502 -0.17713681516E+02  0.14620717466E+02  0.26659031507E+02  0.35188689276E+02  0.00000000000E+00 0.  1.
<mgrwt>
<rscale>  2 0.22968237E+02</rscale>
<asrwt>0</asrwt>
<pdfrwt beam="1">  1       21 0.65908152E-02 0.22968237E+02</pdfrwt>
<pdfrwt beam="2">  1       21 0.23588171E-02 0.22968237E+02</pdfrwt>
<totfact> 0.10682303E+08</totfact>
</mgrwt>
</event>
<event>
 4    1  0.2812958E+004  0.2092493E+02  0.7546771E-02  0.1727537E+00
         21   -1    0    0  503  502  0.00000000000E+00  0.00000000000E+00  0.43103888631E+01  0.43103888631E+01  0.00000000000E+00 0.  1.
         21   -1    0    0  501  503 -0.00000000000E+00 -0.00000000000E+00 -0.12064736922E+03  0.12064736922E+03  0.00000000000E+00 0. -1.
          2    1    1    2  501    0 -0.38353920855E+01  0.20570428535E+02 -0.83006142432E+02  0.85602993195E+02  0.00000000000E+00 0. -1.
         -2    1    1    2    0  502  0.38353920855E+01 -0.20570428535E+02 -0.33330837923E+02  0.39354764886E+02  0.00000000000E+00 0.  1.
<mgrwt>
<rscale>  2 0.20924932E+02</rscale>
<asrwt>0</asrwt>
<pdfrwt beam="1">  1       21 0.66313670E-03 0.20924932E+02</pdfrwt>
<pdfrwt beam="2">  1       21 0.18561135E-01 0.20924932E+02</pdfrwt>
<totfact> 0.12603659E+08</totfact>
</mgrwt>
</event>
<event>
 4    1  0.2812958E+004  0.2504170E+02  0.7546771E-02  0.1660404E+00
         21   -1    0    0  501  502  0.00000000000E+00  0.00000000000E+00  0.38610036110E+02  0.38610036110E+02  0.00000000000E+00 0. -1.
         21   -1    0    0  502  503 -0.00000000000E+00 -0.00000000000E+00 -0.16962340392E+02  0.16962340392E+02  0.00000000000E+00 0.  1.
          2    1    1    2  501    0  0.12083300879E+02 -0.21933553119E+02  0.16551675656E+02  0.30017409607E+02  0.00000000000E+00 0. -1.
         -2    1    1    2    0  503 -0.12083300879E+02  0.21933553119E+02  0.50960200622E+01  0.25554966895E+02  0.00000000000E+00 0.  1.
<mgrwt>
<rscale>  2 0.25041703E+02</rscale>
<asrwt>0</asrwt>
<pdfrwt beam="1">  1       21 0.59400055E-02 0.25041703E+02</pdfrwt>
<pdfrwt beam="2">  1       21 0.26095908E-02 0.25041703E+02</pdfrwt>
<totfact> 0.11070757E+08</totfact>
</mgrwt>
</event>
<event>
 4    1  0.2812958E+004  0.4519750E+02  0.7546771E-02  0.1473112E+00
         21   -1    0    0  503  502  0.00000000000E+00  0.00000000000E+00  0.29252672062E+02  0.29252672062E+02  0.00000000000E+00 0.  1.
         21   -1    0    0  501  503 -0.00000000000E+00 -0.00000000000E+00 -0.70582518480E+02  0.70582518480E+02  0.00000000000E+00 0. -1.
          2    1    1    2  501    0  0.43303615090E+02  0.12946479542E+02 -0.25807393387E+02  0.52046478900E+02  0.00000000000E+00 0. -1.
         -2    1    1    2    0  502 -0.43303615090E+02 -0.12946479542E+02 -0.15522453031E+02  0.47788711643E+02  0.00000000000E+00 0.  1.
<mgrwt>
<rscale>  2 0.45197504E+02</rscale>
<asrwt>0</asrwt>
<pdfrwt beam="1">  1       21 0.45004111E-02 0.45197504E+02</pdfrwt>
<pdfrwt beam="2">  1       21 0.10858849E-01 0.45197504E+02</pdfrwt>
<totfact> 0.19399094E+07</totfact>
</mgrwt>
</event>
<event>
 4    1  0.2812958E+004  0.3009003E+02  0.7546771E-02  0.1597096E+00
         21   -1    0    0  503  502  0.00000000000E+00  0.00000000000E+00  0.43752344879E+02  0.43752344879E+02  0.00000000000E+00 0. -1.
         21   -1    0    0  501  503 -0.00000000000E+00 -0.00000000000E+00 -0.24821636781E+02  0.24821636781E+02  0.00000000000E+00 0.  1.
          2    1    1    2  501    0 -0.28327029230E+02  0.10148364361E+02 -0.45165485247E+01  0.30427111180E+02  0.00000000000E+00 0.  1.
         -2    1    1    2    0  502  0.28327029230E+02 -0.10148364361E+02  0.23447256623E+02  0.38146870479E+02  0.00000000000E+00 0. -1.
<mgrwt>
<rscale>  2 0.30090030E+02</rscale>
<asrwt>0</asrwt>
<pdfrwt beam="1">  1       21 0.67311300E-02 0.30090030E+02</pdfrwt>
<pdfrwt beam="2">  1       21 0.38187133E-02 0.30090030E+02</pdfrwt>
<totfact> 0.52030892E+07</totfact>
</mgrwt>
</event>
<event>
 4    1  0.2812958E+004  0.2919057E+02  0.7546771E-02  0.1607212E+00
         21   -1    0    0  503  502  0.00000000000E+00  0.00000000000E+00  0.38816987659E+02  0.38816987659E+02  0.00000000000E+00 0.  1.
         21   -1    0    0  501  503 -0.00000000000E+00 -0.00000000000E+00 -0.45739996486E+02  0.45739996486E+02  0.00000000000E+00 0. -1.
          2    1    1    2  501    0  0.19165280553E+02 -0.22017755509E+02 -0.33951354672E+02  0.44774814577E+02  0.00000000000E+00 0. -1.
         -2    1    1    2    0  502 -0.19165280553E+02  0.22017755509E+02  0.27028345846E+02  0.39782169568E+02  0.00000000000E+00 0.  1.
<mgrwt>
<rscale>  2 0.29190573E+02</rscale>
<asrwt>0</asrwt>
<pdfrwt beam="1">  1       21 0.59718443E-02 0.29190573E+02</pdfrwt>
<pdfrwt beam="2">  1       21 0.70369225E-02 0.29190573E+02</pdfrwt>
<totfact> 0.23467492E+07</totfact>
</mgrwt>
</event>
<event>
 4    1  0.2812958E+004  0.3134906E+02  0.7546771E-02  0.1583638E+00
         21   -1    0    0  503  502  0.00000000000E+00  0.00000000000E+00  0.22172375616E+02  0.22172375616E+02  0.00000000000E+00 0. -1.
         21   -1    0    0  501  503 -0.00000000000E+00 -0.00000000000E+00 -0.53674704815E+02  0.53674704815E+02  0.00000000000E+00 0.  1.
          2    1    1    2  501    0 -0.31072233621E+02 -0.41569220285E+01 -0.31580078215E+02  0.44497921784E+02  0.00000000000E+00 0.  1.
         -2    1    1    2    0  502  0.31072233621E+02  0.41569220285E+01  0.77749016234E-01  0.31349158647E+02  0.00000000000E+00 0. -1.
<mgrwt>
<rscale>  2 0.31349062E+02</rscale>
<asrwt>0</asrwt>
<pdfrwt beam="1">  1       21 0.34111347E-02 0.31349062E+02</pdfrwt>
<pdfrwt beam="2">  1       21 0.82576469E-02 0.31349062E+02</pdfrwt>
<totfact> 0.44864391E+07</totfact>
</mgrwt>
</event>
<event>
 4    1  0.2812958E+004  0.2506291E+02  0.7546771E-02  0.1660100E+00
         21   -1    0    0  501  502  0.00000000000E+00  0.00000000000E+00  0.37026342532E+02  0.37026342532E+02  0.00000000000E+00 0. -1.
         21   -1    0    0  502  503 -0.00000000000E+00 -0.00000000000E+00 -0.46395340060E+02  0.46395340060E+02  0.00000000000E+00 0.  1.
          2    1    1    2  501    0 -0.11733636951E+02  0.22146588161E+02  0.28536284392E+02  0.37979851634E+02  0.00000000000E+00 0. -1.
         -2    1    1    2    0  503  0.11733636951E+02 -0.22146588161E+02 -0.37905281920E+02  0.45441830957E+02  0.00000000000E+00 0.  1.
<mgrwt>
<rscale>  2 0.25062913E+02</rscale>
<asrwt>0</asrwt>
<pdfrwt beam="1">  1       21 0.56963604E-02 0.25062913E+02</pdfrwt>
<pdfrwt beam="2">  1       21 0.71377446E-02 0.25062913E+02</pdfrwt>
<totfact> 0.23972561E+07</totfact>
</mgrwt>
</event>
<event>
 4    1  0.2812958E+004  0.2143931E+02  0.7546771E-02  0.1718133E+00
         21   -1    0    0  501  502  0.00000000000E+00  0.00000000000E+00  0.10052882331E+01  0.10052882331E+01  0.00000000000E+00 0.  1.
         21   -1    0    0  502  503 -0.00000000000E+00 -0.00000000000E+00 -0.45742303229E+03  0.45742303229E+03  0.00000000000E+00 0. -1.
          2    1    1    2  501    0 -0.21297402431E+02  0.24626830883E+01 -0.22345456548E+03  0.22448070517E+03  0.00000000000E+00 0. -1.
         -2    1    1    2    0  503  0.21297402431E+02 -0.24626830883E+01 -0.23296317858E+03  0.23394761536E+03  0.00000000000E+00 0.  1.
<mgrwt>
<rscale>  2 0.21439313E+02</rscale>
<asrwt>0</asrwt>
<pdfrwt beam="1">  1       21 0.15465910E-03 0.21439313E+02</pdfrwt>
<pdfrwt beam="2">  1       21 0.70373060E-01 0.21439313E+02</pdfrwt>
<totfact> 0.88069255E+07</totfact>
</mgrwt>
</event>
<event>
 4    1  0.2812958E+004  0.2906647E+02  0.7546771E-02  0.1608643E+00
         21   -1    0    0  501  502  0.00000000000E+00  0.00000000000E+00  0.16465110555E+03  0.16465110555E+03  0.00000000000E+00 0. -1.
         21   -1    0    0  502  503 -0.00000000000E+00 -0.00000000000E+00 -0.53865665405E+01  0.53865665405E+01  0.00000000000E+00 0.  1.
          2    1    1    2  501    0  0.11579896396E+02  0.26660188924E+02  0.98143326361E+02  0.10235708174E+03  0.00000000000E+00 0. -1.
         -2    1    1    2    0  503 -0.11579896396E+02 -0.26660188924E+02  0.61121212647E+02  0.67680590344E+02  0.00000000000E+00 0.  1.
<mgrwt>
<rscale>  2 0.29066470E+02</rscale>
<asrwt>0</asrwt>
<pdfrwt beam="1">  1       21 0.25330935E-01 0.29066470E+02</pdfrwt>
<pdfrwt beam="2">  1       21 0.82870267E-03 0.29066470E+02</pdfrwt>
<totfact> 0.56829909E+07</totfact>
</mgrwt>
</event>
<event>
 4    1  0.2812958E+004  0.2475292E+02  0.7546771E-02  0.1664576E+00
         21   -1    0    0  501  502  0.00000000000E+00  0.00000000000E+00  0.12587645072E+03  0.12587645072E+03  0.00000000000E+00 0. -1.
         21   -1    0    0  502  503 -0.00000000000E+00 -0.00000000000E+00 -0.25980263861E+02  0.25980263861E+02  0.00000000000E+00 0.  1.
          2    1    1    2  501    0 -0.12882995477E+02  0.21136122804E+02  0.11839510215E+03  0.12095498118E+03  0.00000000000E+00 0. -1.
         -2    1    1    2    0  503  0.12882995477E+02 -0.21136122804E+02 -0.18498915295E+02  0.30901733394E+02  0.00000000000E+00 0.  1.
<mgrwt>
<rscale>  2 0.24752924E+02</rscale>
<asrwt>0</asrwt>
<pdfrwt beam="1">  1       21 0.19365608E-01 0.24752924E+02</pdfrwt>
<pdfrwt beam="2">  1       21 0.39969637E-02 0.24752924E+02</pdfrwt>
<totfact> 0.78611791E+06</totfact>
</mgrwt>
</event>
<event>
 4    1  0.2812958E+004  0.2220539E+02  0.7546771E-02  0.1704724E+00
         21   -1    0    0  501  502  0.00000000000E+00  0.00000000000E+00  0.64692028286E+00  0.64692028286E+00  0.00000000000E+00 0. -1.
         21   -1    0    0  502  503 -0.00000000000E+00 -0.00000000000E+00 -0.80882476568E+03  0.80882476568E+03  0.00000000000E+00 0.  1.
          2    1    1    2  501    0  0.19563115422E+01  0.22119041388E+02 -0.30690869285E+03  0.30771094373E+03  0.00000000000E+00 0. -1.
         -2    1    1    2    0  503 -0.19563115422E+01 -0.22119041388E+02 -0.50126915255E+03  0.50176074223E+03  0.00000000000E+00 0.  1.
<mgrwt>
<rscale>  2 0.22205386E+02</rscale>
<asrwt>0</asrwt>
<pdfrwt beam="1">  1       21 0.99525370E-04 0.22205386E+02</pdfrwt>
<pdfrwt beam="2">  1       21 0.12443561E+00 0.22205386E+02</pdfrwt>
<totfact> 0.48743605E+07</totfact>
</mgrwt>
</event>
<event>
 4    1  0.2812958E+004  0.2554300E+02  0.7546771E-02  0.1653323E+00
         21   -1    0    0  503  502  0.00000000000E+00  0.00000000000E+00  0.22567115916E+02  0.22567115916E+02  0.00000000000E+00 0. -1.
         21   -1    0    0  501  503 -0.00000000000E+00 -0.00000000000E+00 -0.11161682356E+03  0.11161682356E+03  0.00000000000E+00 0.  1.
          2    1    1    2  501    0  0.18643969579E+02 -0.17459870219E+02 -0.10227764378E+03  0.10541897878E+03  0.00000000000E+00 0.  1.
         -2    1    1    2    0  502 -0.18643969579E+02  0.17459870219E+02  0.13227936132E+02  0.28764960700E+02  0.00000000000E+00 0. -1.
<mgrwt>
<rscale>  2 0.25542996E+02</rscale>
<asrwt>0</asrwt>
<pdfrwt beam="1">  1       21 0.34718640E-02 0.25542996E+02</pdfrwt>
<pdfrwt beam="2">  1       21 0.17171819E-01 0.25542996E+02</pdfrwt>
<totfact> 0.12160912E+07</totfact>
</mgrwt>
</event>
<event>
 4    1  0.2812958E+004  0.2247585E+02  0.7546771E-02  0.1700150E+00
         21   -1    0    0  501  502  0.00000000000E+00  0.00000000000E+00  0.25742640179E+01  0.25742640179E+01  0.00000000000E+00 0. -1.
         21   -1    0    0  502  503 -0.00000000000E+00 -0.00000000000E+00 -0.47990869072E+03  0.47990869072E+03  0.00000000000E+00 0.  1.
          2    1    1    2  501    0  0.21412430759E+02 -0.68316703054E+01 -0.53193978358E+02  0.57747408979E+02  0.00000000000E+00 0. -1.
         -2    1    1    2    0  503 -0.21412430759E+02  0.68316703054E+01 -0.42414044834E+03  0.42473554576E+03  0.00000000000E+00 0.  1.
<mgrwt>
<rscale>  2 0.22475852E+02</rscale>
<asrwt>0</asrwt>
<pdfrwt beam="1">  1       21 0.39604036E-03 0.22475852E+02</pdfrwt>
<pdfrwt beam="2">  1       21 0.73832155E-01 0.22475852E+02</pdfrwt>
<totfact> 0.20656844E+07</totfact>
</mgrwt>
</event>
<event>
 4    1  0.2812958E+004  0.4666946E+02  0.7546771E-02  0.1464181E+00
         21   -1    0    0  501  502  0.00000000000E+00  0.00000000000E+00  0.38070235096E+02  0.38070235096E+02  0.00000000000E+00 0.  1.
         21   -1    0    0  502  503 -0.00000000000E+00 -0.00000000000E+00 -0.15833965767E+03  0.15833965767E+03  0.00000000000E+00 0. -1.
          2    1    1    2  501    0 -0.46371398486E+02 -0.52660801017E+01  0.18348275399E+02  0.50146758692E+02  0.00000000000E+00 0.  1.
         -2    1    1    2    0  503  0.46371398486E+02  0.52660801017E+01 -0.13861769797E+03  0.14626313407E+03  0.00000000000E+00 0. -1.
<mgrwt>
<rscale>  2 0.46669457E+02</rscale>
<asrwt>0</asrwt>
<pdfrwt beam="1">  1       21 0.58569591E-02 0.46669457E+02</pdfrwt>
<pdfrwt beam="2">  1       21 0.24359948E-01 0.46669457E+02</pdfrwt>
<totfact> 0.30490333E+06</totfact>
</mgrwt>
</event>
<event>
 4    1  0.2812958E+004  0.2671417E+02  0.7546771E-02  0.1637535E+00
         21   -1    0    0  501  502  0.00000000000E+00  0.00000000000E+00  0.53759734031E+02  0.53759734031E+02  0.00000000000E+00 0. -1.
         21   -1    0    0  502  503 -0.00000000000E+00 -0.00000000000E+00 -0.14220901843E+02  0.14220901843E+02  0.00000000000E+00 0.  1.
          2    1    1    2  501    0  0.26124122955E+02  0.55836649498E+01  0.28536834118E+02  0.39089615193E+02  0.00000000000E+00 0. -1.
         -2    1    1    2    0  503 -0.26124122955E+02 -0.55836649498E+01  0.11001998071E+02  0.28891020681E+02  0.00000000000E+00 0.  1.
<mgrwt>
<rscale>  2 0.26714174E+02</rscale>
<asrwt>0</asrwt>
<pdfrwt beam="1">  1       21 0.82707282E-02 0.26714174E+02</pdfrwt>
<pdfrwt beam="2">  1       21 0.21878311E-02 0.26714174E+02</pdfrwt>
<totfact> 0.86361218E+07</totfact>
</mgrwt>
</event>
<event>
 4    1  0.2812958E+004  0.2403333E+02  0.7546771E-02  0.1675288E+00
         21   -1    0    0  503  502  0.00000000000E+00  0.00000000000E+00  0.52022166450E+01  0.52022166450E+01  0.00000000000E+00 0. -1.
         21   -1    0    0  501  503 -0.00000000000E+00 -0.00000000000E+00 -0.13454540504E+03  0.13454540504E+03  0.00000000000E+00 0.  1.
          2    1    1    2  501    0  0.92851799600E+01 -0.22167232768E+02 -0.35459775093E+02  0.42836858254E+02  0.00000000000E+00 0. -1.
         -2    1    1    2    0  502 -0.92851799600E+01  0.22167232768E+02 -0.93883413300E+02  0.96910763429E+02  0.00000000000E+00 0.  1.
<mgrwt>
<rscale>  2 0.24033326E+02</rscale>
<asrwt>0</asrwt>
<pdfrwt beam="1">  1       21 0.80034095E-03 0.24033326E+02</pdfrwt>
<pdfrwt beam="2">  1       21 0.20699295E-01 0.24033326E+02</pdfrwt>
<totfact> 0.81920347E+07</totfact>
</mgrwt>
</event>
<event>
 4    1  0.2812958E+004  0.2398179E+02  0.7546771E-02  0.1676073E+00
         21   -1    0    0  503  502  0.00000000000E+00  0.00000000000E+00  0.26664969855E+03  0.26664969855E+03  0.00000000000E+00 0. -1.
         21   -1    0    0  501  503 -0.00000000000E+00 -0.00000000000E+00 -0.84681683363E+01  0.84681683363E+01  0.00000000000E+00 0.  1.
          2    1    1    2  501    0 -0.92362781067E+01  0.22131823229E+02  0.10335271106E+02  0.26114062525E+02  0.00000000000E+00 0.  1.
         -2    1    1    2    0  502  0.92362781067E+01 -0.22131823229E+02  0.24784625911E+03  0.24900380437E+03  0.00000000000E+00 0. -1.
<mgrwt>
<rscale>  2 0.23981794E+02</rscale>
<asrwt>0</asrwt>
<pdfrwt beam="1">  1       21 0.41023024E-01 0.23981794E+02</pdfrwt>
<pdfrwt beam="2">  1       21 0.13027953E-02 0.23981794E+02</pdfrwt>
<totfact> 0.11334365E+07</totfact>
</mgrwt>
</event>
<event>
 4    1  0.2812958E+004  0.2956821E+02  0.7546771E-02  0.1602911E+00
         21   -1    0    0  503  502  0.00000000000E+00  0.00000000000E+00  0.20426223241E+02  0.20426223241E+02  0.00000000000E+00 0. -1.
         21   -1    0    0  501  503 -0.00000000000E+00 -0.00000000000E+00 -0.45572468878E+02  0.45572468878E+02  0.00000000000E+00 0.  1.
          2    1    1    2  501    0  0.74669919229E+01  0.28609839851E+02 -0.20709802173E+02  0.36099512611E+02  0.00000000000E+00 0. -1.
         -2    1    1    2    0  502 -0.74669919229E+01 -0.28609839851E+02 -0.44364434639E+01  0.29899179509E+02  0.00000000000E+00 0.  1.
<mgrwt>
<rscale>  2 0.29568208E+02</rscale>
<asrwt>0</asrwt>
<pdfrwt beam="1">  1       21 0.31424959E-02 0.29568208E+02</pdfrwt>
<pdfrwt beam="2">  1       21 0.70111489E-02 0.29568208E+02</pdfrwt>
<totfact> 0.65994770E+07</totfact>
</mgrwt>
</event>
<event>
 4    1  0.2812958E+004  0.2826571E+02  0.7546771E-02  0.1618090E+00
         21   -1    0    0  501  502  0.00000000000E+00  0.00000000000E+00  0.86488862977E+02  0.86488862977E+02  0.00000000000E+00 0.  1.
         21   -1    0    0  502  503 -0.00000000000E+00 -0.00000000000E+00 -0.16608190726E+02  0.16608190726E+02  0.00000000000E+00 0. -1.
          2    1    1    2  501    0 -0.25767606896E+02  0.11618130032E+02  0.69280780264E+02  0.74824975941E+02  0.00000000000E+00 0.  1.
         -2    1    1    2    0  503  0.25767606896E+02 -0.11618130032E+02  0.59989198715E+00  0.28272077762E+02  0.00000000000E+00 0. -1.
<mgrwt>
<rscale>  2 0.28265713E+02</rscale>
<asrwt>0</asrwt>
<pdfrwt beam="1">  1       21 0.13305979E-01 0.28265713E+02</pdfrwt>
<pdfrwt beam="2">  1       21 0.25551063E-02 0.28265713E+02</pdfrwt>
<totfact> 0.31055685E+07</totfact>
</mgrwt>
</event>
<event>
 4    1  0.2812958E+004  0.2407696E+02  0.7546771E-02  0.1674625E+00
         21   -1    0    0  501  502  0.00000000000E+00  0.00000000000E+00  0.26336503791E+03  0.26336503791E+03  0.00000000000E+00 0.  1.
         21   -1    0    0  502  503 -0.00000000000E+00 -0.00000000000E+00 -0.43106255804E+01  0.43106255804E+01  0.00000000000E+00 0. -1.
          2    1    1    2  501    0 -0.12818413324E+02  0.20381078799E+02  0.22315359713E+03  0.22444872021E+03  0.00000000000E+00 0.  1.
         -2    1    1    2    0  503  0.12818413324E+02 -0.20381078799E+02  0.35900815201E+02  0.43226943279E+02  0.00000000000E+00 0. -1.
<mgrwt>
<rscale>  2 0.24076962E+02</rscale>
<asrwt>0</asrwt>
<pdfrwt beam="1">  1       21 0.40517685E-01 0.24076962E+02</pdfrwt>
<pdfrwt beam="2">  1       21 0.66317337E-03 0.24076962E+02</pdfrwt>
<totfact> 0.32004302E+07</totfact>
</mgrwt>
</event>
<event>
 4    1  0.2812958E+004  0.2253217E+02  0.7546771E-02  0.1699208E+00
         21   -1    0    0  501  502  0.00000000000E+00  0.00000000000E+00  0.34865565077E+02  0.34865565077E+02  0.00000000000E+00 0.  1.
         21   -1    0    0  502  503 -0.00000000000E+00 -0.00000000000E+00 -0.28441201846E+02  0.28441201846E+02  0.00000000000E+00 0. -1.
          2    1    1    2  501    0  0.21357081972E+02  0.71815007784E+01  0.25324508723E+02  0.33897339805E+02  0.00000000000E+00 0.  1.
         -2    1    1    2    0  503 -0.21357081972E+02 -0.71815007784E+01 -0.18900145492E+02  0.29409427118E+02  0.00000000000E+00 0. -1.
<mgrwt>
<rscale>  2 0.22532175E+02</rscale>
<asrwt>0</asrwt>
<pdfrwt beam="1">  1       21 0.53639331E-02 0.22532175E+02</pdfrwt>
<pdfrwt beam="2">  1       21 0.43755695E-02 0.22532175E+02</pdfrwt>
<totfact> 0.56361281E+07</totfact>
</mgrwt>
</event>
<event>
 4    1  0.2812958E+004  0.2384131E+02  0.7546771E-02  0.1678225E+00
         21   -1    0    0  503  502  0.00000000000E+00  0.00000000000E+00  0.19460006646E+02  0.19460006646E+02  0.00000000000E+00 0.  1.
         21   -1    0    0  501  503 -0.00000000000E+00 -0.00000000000E+00 -0.21011741211E+03  0.21011741211E+03  0.00000000000E+00 0. -1.
          2    1    1    2  501    0 -0.17596741038E+02 -0.16086100928E+02 -0.20184044652E+03  0.20324363161E+03  0.00000000000E+00 0. -1.
         -2    1    1    2    0  502  0.17596741038E+02  0.16086100928E+02  0.11183041056E+02  0.26333787147E+02  0.00000000000E+00 0.  1.
<mgrwt>
<rscale>  2 0.23841307E+02</rscale>
<asrwt>0</asrwt>
<pdfrwt beam="1">  1       21 0.29938472E-02 0.23841307E+02</pdfrwt>
<pdfrwt beam="2">  1       21 0.32325756E-01 0.23841307E+02</pdfrwt>
<totfact> 0.49174699E+06</totfact>
</mgrwt>
</event>
<event>
 4    1  0.2812958E+004  0.2590081E+02  0.7546771E-02  0.1648390E+00
         21   -1    0    0  501  502  0.00000000000E+00  0.00000000000E+00  0.75390730239E+02  0.75390730239E+02  0.00000000000E+00 0. -1.
         21   -1    0    0  502  503 -0.00000000000E+00 -0.00000000000E+00 -0.90746911506E+01  0.90746911506E+01  0.00000000000E+00 0.  1.
          2    1    1    2  501    0  0.18959973105E+02  0.17645718126E+02  0.39045490104E+02  0.46855119739E+02  0.00000000000E+00 0. -1.
         -2    1    1    2    0  503 -0.18959973105E+02 -0.17645718126E+02  0.27270548985E+02  0.37610301650E+02  0.00000000000E+00 0.  1.
<mgrwt>
<rscale>  2 0.25900810E+02</rscale>
<asrwt>0</asrwt>
<pdfrwt beam="1">  1       21 0.11598573E-01 0.25900810E+02</pdfrwt>
<pdfrwt beam="2">  1       21 0.13961064E-02 0.25900810E+02</pdfrwt>
<totfact> 0.97358309E+07</totfact>
</mgrwt>
</event>
<event>
 4    1  0.2812958E+004  0.2220994E+02  0.7546771E-02  0.1704646E+00
         21   -1    0    0  501  502  0.00000000000E+00  0.00000000000E+00  0.68277563957E+02  0.68277563957E+02  0.00000000000E+00 0.  1.
         21   -1    0    0  502  503 -0.00000000000E+00 -0.00000000000E+00 -0.73441841415E+01  0.73441841415E+01  0.00000000000E+00 0. -1.
          2    1    1    2  501    0  0.12915751204E+02 -0.18068342146E+02  0.25642905694E+02  0.33924036161E+02  0.00000000000E+00 0.  1.
         -2    1    1    2    0  503 -0.12915751204E+02  0.18068342146E+02  0.35290474122E+02  0.41697711937E+02  0.00000000000E+00 0. -1.
<mgrwt>
<rscale>  2 0.22209944E+02</rscale>
<asrwt>0</asrwt>
<pdfrwt beam="1">  1       21 0.10504240E-01 0.22209944E+02</pdfrwt>
<pdfrwt beam="2">  1       21 0.11298745E-02 0.22209944E+02</pdfrwt>
<totfact> 0.15151005E+08</totfact>
</mgrwt>
</event>
<event>
 4    1  0.2812958E+004  0.2370410E+02  0.7546771E-02  0.1680345E+00
         21   -1    0    0  501  502  0.00000000000E+00  0.00000000000E+00  0.16382691886E+03  0.16382691886E+03  0.00000000000E+00 0. -1.
         21   -1    0    0  502  503 -0.00000000000E+00 -0.00000000000E+00 -0.42897102986E+01  0.42897102986E+01  0.00000000000E+00 0.  1.
          2    1    1    2  501    0  0.16463113548E+02 -0.17054335999E+02  0.11740493448E+03  0.11977396681E+03  0.00000000000E+00 0.  1.
         -2    1    1    2    0  503 -0.16463113548E+02  0.17054335999E+02  0.42132274076E+02  0.48342662347E+02  0.00000000000E+00 0. -1.
<mgrwt>
<rscale>  2 0.23704103E+02</rscale>
<asrwt>0</asrwt>
<pdfrwt beam="1">  1       21 0.25204137E-01 0.23704103E+02</pdfrwt>
<pdfrwt beam="2">  1       21 0.65995555E-03 0.23704103E+02</pdfrwt>
<totfact> 0.76795356E+07</totfact>
</mgrwt>
</event>
<event>
 4    1  0.2812958E+004  0.6424279E+02  0.7546771E-02  0.1380843E+00
         21   -1    0    0  501  502  0.00000000000E+00  0.00000000000E+00  0.30346778001E+02  0.30346778001E+02  0.00000000000E+00 0.  1.
         21   -1    0    0  502  503 -0.00000000000E+00 -0.00000000000E+00 -0.40365515237E+03  0.40365515237E+03  0.00000000000E+00 0. -1.
          2    1    1    2  501    0  0.40838501912E+00 -0.64241490222E+02 -0.99507841300E+01  0.65008875925E+02  0.00000000000E+00 0.  1.
         -2    1    1    2    0  503 -0.40838501912E+00  0.64241490222E+02 -0.36335759024E+03  0.36899305445E+03  0.00000000000E+00 0. -1.
<mgrwt>
<rscale>  2 0.64242788E+02</rscale>
<asrwt>0</asrwt>
<pdfrwt beam="1">  1       21 0.46687352E-02 0.64242788E+02</pdfrwt>
<pdfrwt beam="2">  1       21 0.62100791E-01 0.64242788E+02</pdfrwt>
<totfact> 0.72781388E+05</totfact>
</mgrwt>
</event>
<event>
 4    1  0.2812958E+004  0.2567339E+02  0.7546771E-02  0.1651514E+00
         21   -1    0    0  503  502  0.00000000000E+00  0.00000000000E+00  0.14416492847E+02  0.14416492847E+02  0.00000000000E+00 0. -1.
         21   -1    0    0  501  503 -0.00000000000E+00 -0.00000000000E+00 -0.92098556332E+02  0.92098556332E+02  0.00000000000E+00 0.  1.
          2    1    1    2  501    0  0.88047250247E+01 -0.24116382989E+02 -0.76634159404E+02  0.80820279007E+02  0.00000000000E+00 0.  1.
         -2    1    1    2    0  502 -0.88047250247E+01  0.24116382989E+02 -0.10479040815E+01  0.25694770172E+02  0.00000000000E+00 0. -1.
<mgrwt>
<rscale>  2 0.25673393E+02</rscale>
<asrwt>0</asrwt>
<pdfrwt beam="1">  1       21 0.22179220E-02 0.25673393E+02</pdfrwt>
<pdfrwt beam="2">  1       21 0.14169008E-01 0.25673393E+02</pdfrwt>
<totfact> 0.34044257E+07</totfact>
</mgrwt>
</event>
<event>
 4    1  0.2812958E+004  0.2522011E+02  0.7546771E-02  0.1657860E+00
         21   -1    0    0  501  502  0.00000000000E+00  0.00000000000E+00  0.76601633305E+01  0.76601633305E+01  0.00000000000E+00 0. -1.
         21   -1    0    0  502  503 -0.00000000000E+00 -0.00000000000E+00 -0.13433076449E+03  0.13433076449E+03  0.00000000000E+00 0.  1.
          2    1    1    2  501    0  0.49284575476E+01 -0.24733871476E+02 -0.19463264021E+02  0.31857067322E+02  0.00000000000E+00 0.  1.
         -2    1    1    2    0  503 -0.49284575476E+01  0.24733871476E+02 -0.10720733714E+03  0.11013386050E+03  0.00000000000E+00 0. -1.
<mgrwt>
<rscale>  2 0.25220113E+02</rscale>
<asrwt>0</asrwt>
<pdfrwt beam="1">  1       21 0.11784867E-02 0.25220113E+02</pdfrwt>
<pdfrwt beam="2">  1       21 0.20666271E-01 0.25220113E+02</pdfrwt>
<totfact> 0.46444867E+07</totfact>
</mgrwt>
</event>
<event>
 4    1  0.2812958E+004  0.2023238E+02  0.7546771E-02  0.1740746E+00
         21   -1    0    0  503  502  0.00000000000E+00  0.00000000000E+00  0.30378730938E+02  0.30378730938E+02  0.00000000000E+00 0.  1.
         21   -1    0    0  501  503 -0.00000000000E+00 -0.00000000000E+00 -0.22652926225E+02  0.22652926225E+02  0.00000000000E+00 0. -1.
          2    1    1    2  501    0 -0.12818004815E+02 -0.15654012910E+02 -0.13014999946E+02  0.24057007113E+02  0.00000000000E+00 0. -1.
         -2    1    1    2    0  502  0.12818004815E+02  0.15654012910E+02  0.20740804660E+02  0.28974650051E+02  0.00000000000E+00 0.  1.
<mgrwt>
<rscale>  2 0.20232384E+02</rscale>
<asrwt>0</asrwt>
<pdfrwt beam="1">  1       21 0.46736509E-02 0.20232384E+02</pdfrwt>
<pdfrwt beam="2">  1       21 0.34850656E-02 0.20232384E+02</pdfrwt>
<totfact> 0.97257822E+07</totfact>
</mgrwt>
</event>
<event>
 4    1  0.2812958E+004  0.2866288E+02  0.7546771E-02  0.1613357E+00
         21   -1    0    0  501  502  0.00000000000E+00  0.00000000000E+00  0.26308988803E+02  0.26308988803E+02  0.00000000000E+00 0. -1.
         21   -1    0    0  502  503 -0.00000000000E+00 -0.00000000000E+00 -0.31309425271E+02  0.31309425271E+02  0.00000000000E+00 0.  1.
          2    1    1    2  501    0  0.81400150004E+01 -0.27482735772E+02 -0.10253991603E+01  0.28681214290E+02  0.00000000000E+00 0.  1.
         -2    1    1    2    0  503 -0.81400150004E+01  0.27482735772E+02 -0.39750373075E+01  0.28937199784E+02  0.00000000000E+00 0. -1.
<mgrwt>
<rscale>  2 0.28662879E+02</rscale>
<asrwt>0</asrwt>
<pdfrwt beam="1">  1       21 0.40475368E-02 0.28662879E+02</pdfrwt>
<pdfrwt beam="2">  1       21 0.48168346E-02 0.28662879E+02</pdfrwt>
<totfact> 0.80570309E+07</totfact>
</mgrwt>
</event>
<event>
 4    1  0.2812958E+004  0.2246514E+02  0.7546771E-02  0.1700330E+00
         21   -1    0    0  501  502  0.00000000000E+00  0.00000000000E+00  0.11282214797E+01  0.11282214797E+01  0.00000000000E+00 0.  1.
         21   -1    0    0  502  503 -0.00000000000E+00 -0.00000000000E+00 -0.51260741090E+03  0.51260741090E+03  0.00000000000E+00 0. -1.
          2    1    1    2  501    0  0.60568656988E+01  0.21633238010E+02 -0.16407268564E+03  0.16560352889E+03  0.00000000000E+00 0.  1.
         -2    1    1    2    0  503 -0.60568656988E+01 -0.21633238010E+02 -0.34740650378E+03  0.34813210349E+03  0.00000000000E+00 0. -1.
<mgrwt>
<rscale>  2 0.22465142E+02</rscale>
<asrwt>0</asrwt>
<pdfrwt beam="1">  1       21 0.17357224E-03 0.22465142E+02</pdfrwt>
<pdfrwt beam="2">  1       21 0.78862815E-01 0.22465142E+02</pdfrwt>
<totfact> 0.59645864E+07</totfact>
</mgrwt>
</event>
<event>
 4    1  0.2812958E+004  0.2326028E+02  0.7546771E-02  0.1687325E+00
         21   -1    0    0  503  502  0.00000000000E+00  0.00000000000E+00  0.80381602511E+02  0.80381602511E+02  0.00000000000E+00 0.  1.
         21   -1    0    0  501  503 -0.00000000000E+00 -0.00000000000E+00 -0.90587422548E+01  0.90587422548E+01  0.00000000000E+00 0. -1.
          2    1    1    2  501    0  0.10332352964E+02 -0.20839461264E+02  0.12991711273E+02  0.26642545400E+02  0.00000000000E+00 0.  1.
         -2    1    1    2    0  502 -0.10332352964E+02  0.20839461264E+02  0.58331148982E+02  0.62797799366E+02  0.00000000000E+00 0. -1.
<mgrwt>
<rscale>  2 0.23260281E+02</rscale>
<asrwt>0</asrwt>
<pdfrwt beam="1">  1       21 0.12366400E-01 0.23260281E+02</pdfrwt>
<pdfrwt beam="2">  1       21 0.13936527E-02 0.23260281E+02</pdfrwt>
<totfact> 0.85179635E+07</totfact>
</mgrwt>
</event>
<event>
 4    1  0.2812958E+004  0.2076386E+02  0.7546771E-02  0.1730551E+00
         21   -1    0    0  503  502  0.00000000000E+00  0.00000000000E+00  0.77140434598E+02  0.77140434598E+02  0.00000000000E+00 0.  1.
         21   -1    0    0  501  503 -0.00000000000E+00 -0.00000000000E+00 -0.22799842952E+02  0.22799842952E+02  0.00000000000E+00 0. -1.
          2    1    1    2  501    0  0.19895256691E+02  0.59427888420E+01 -0.16245291856E+02  0.26363753251E+02  0.00000000000E+00 0. -1.
         -2    1    1    2    0  502 -0.19895256691E+02 -0.59427888420E+01  0.70585883502E+02  0.73576524298E+02  0.00000000000E+00 0.  1.
<mgrwt>
<rscale>  2 0.20763862E+02</rscale>
<asrwt>0</asrwt>
<pdfrwt beam="1">  1       21 0.11867759E-01 0.20763862E+02</pdfrwt>
<pdfrwt beam="2">  1       21 0.35076682E-02 0.20763862E+02</pdfrwt>
<totfact> 0.21443913E+07</totfact>
</mgrwt>
</event>
<event>
 4    1  0.2812958E+004  0.2382491E+02  0.7546771E-02  0.1678477E+00
         21   -1    0    0  503  502  0.00000000000E+00  0.00000000000E+00  0.20168269994E+04  0.20168269994E+04  0.00000000000E+00 0. -1.
         21   -1    0    0  501  503 -0.00000000000E+00 -0.00000000000E+00 -0.44437105218E+00  0.44437105218E+00  0.00000000000E+00 0.  1.
          2    1    1    2  501    0 -0.20666853224E+02  0.11853583101E+02  0.39745117221E+03  0.39816461489E+03  0.00000000000E+00 0.  1.
         -2    1    1    2    0  502  0.20666853224E+02 -0.11853583101E+02  0.16189314561E+04  0.16191067556E+04  0.00000000000E+00 0. -1.
<mgrwt>
<rscale>  2 0.23824908E+02</rscale>
<asrwt>0</asrwt>
<pdfrwt beam="1">  1       21 0.31027375E+00 0.23824908E+02</pdfrwt>
<pdfrwt beam="2">  1       21 0.68366392E-04 0.23824908E+02</pdfrwt>
<totfact> 0.74389166E+06</totfact>
</mgrwt>
</event>
<event>
 4    1  0.2812958E+004  0.3545181E+02  0.7546771E-02  0.1544625E+00
         21   -1    0    0  503  502  0.00000000000E+00  0.00000000000E+00  0.91985178090E+03  0.91985178090E+03  0.00000000000E+00 0. -1.
         21   -1    0    0  501  503 -0.00000000000E+00 -0.00000000000E+00 -0.84566033156E+01  0.84566033156E+01  0.00000000000E+00 0.  1.
          2    1    1    2  501    0  0.35007488843E+02  0.55952452481E+01  0.30691204033E+02  0.46891161741E+02  0.00000000000E+00 0.  1.
         -2    1    1    2    0  502 -0.35007488843E+02 -0.55952452481E+01  0.88070397355E+03  0.88141722248E+03  0.00000000000E+00 0. -1.
<mgrwt>
<rscale>  2 0.35451813E+02</rscale>
<asrwt>0</asrwt>
<pdfrwt beam="1">  1       21 0.14151558E+00 0.35451813E+02</pdfrwt>
<pdfrwt beam="2">  1       21 0.13010166E-02 0.35451813E+02</pdfrwt>
<totfact> 0.86280959E+05</totfact>
</mgrwt>
</event>
<event>
 4    1  0.2812958E+004  0.2180027E+02  0.7546771E-02  0.1711729E+00
         21   -1    0    0  503  502  0.00000000000E+00  0.00000000000E+00  0.13306203146E+03  0.13306203146E+03  0.00000000000E+00 0. -1.
         21   -1    0    0  501  503 -0.00000000000E+00 -0.00000000000E+00 -0.47429056881E+01  0.47429056881E+01  0.00000000000E+00 0.  1.
          2    1    1    2  501    0 -0.18160485437E+02  0.12060207624E+02  0.29919288922E+02  0.37019125987E+02  0.00000000000E+00 0.  1.
         -2    1    1    2    0  502  0.18160485437E+02 -0.12060207624E+02  0.98399836852E+02  0.10078581116E+03  0.00000000000E+00 0. -1.
<mgrwt>
<rscale>  2 0.21800272E+02</rscale>
<asrwt>0</asrwt>
<pdfrwt beam="1">  1       21 0.20471079E-01 0.21800272E+02</pdfrwt>
<pdfrwt beam="2">  1       21 0.72967790E-03 0.21800272E+02</pdfrwt>
<totfact> 0.93357815E+07</totfact>
</mgrwt>
</event>
<event>
 4    1  0.2812958E+004  0.2384472E+02  0.7546771E-02  0.1678172E+00
         21   -1    0    0  501  502  0.00000000000E+00  0.00000000000E+00  0.82193877062E+02  0.82193877062E+02  0.00000000000E+00 0.  1.
         21   -1    0    0  502  503 -0.00000000000E+00 -0.00000000000E+00 -0.70740168624E+01  0.70740168624E+01  0.00000000000E+00 0. -1.
          2    1    1    2  501    0 -0.14409963346E+02 -0.18997994229E+02  0.44200456841E+02  0.50222019208E+02  0.00000000000E+00 0. -1.
         -2    1    1    2    0  503  0.14409963346E+02  0.18997994229E+02  0.30919403359E+02  0.39045874717E+02  0.00000000000E+00 0.  1.
<mgrwt>
<rscale>  2 0.23844723E+02</rscale>
<asrwt>0</asrwt>
<pdfrwt beam="1">  1       21 0.12645211E-01 0.23844723E+02</pdfrwt>
<pdfrwt beam="2">  1       21 0.10883103E-02 0.23844723E+02</pdfrwt>
<totfact> 0.12009170E+08</totfact>
</mgrwt>
</event>
<event>
 4    1  0.2812958E+004  0.2002893E+02  0.7546771E-02  0.1744753E+00
         21   -1    0    0  503  502  0.00000000000E+00  0.00000000000E+00  0.18252077680E+02  0.18252077680E+02  0.00000000000E+00 0.  1.
         21   -1    0    0  501  503 -0.00000000000E+00 -0.00000000000E+00 -0.25793456980E+02  0.25793456980E+02  0.00000000000E+00 0. -1.
          2    1    1    2  501    0  0.10801035279E+02 -0.16866999861E+02 -0.12239981480E+02  0.23472860798E+02  0.00000000000E+00 0. -1.
         -2    1    1    2    0  502 -0.10801035279E+02  0.16866999861E+02  0.46986021789E+01  0.20572673862E+02  0.00000000000E+00 0.  1.
<mgrwt>
<rscale>  2 0.20028930E+02</rscale>
<asrwt>0</asrwt>
<pdfrwt beam="1">  1       21 0.28080120E-02 0.20028930E+02</pdfrwt>
<pdfrwt beam="2">  1       21 0.39682241E-02 0.20028930E+02</pdfrwt>
<totfact> 0.17530782E+08</totfact>
</mgrwt>
</event>
<event>
 4    1  0.2812958E+004  0.2535881E+02  0.7546771E-02  0.1655901E+00
         21   -1    0    0  503  502  0.00000000000E+00  0.00000000000E+00  0.98060316631E+03  0.98060316631E+03  0.00000000000E+00 0. -1.
         21   -1    0    0  501  503 -0.00000000000E+00 -0.00000000000E+00 -0.15958397313E+01  0.15958397313E+01  0.00000000000E+00 0.  1.
          2    1    1    2  501    0  0.25120920929E+02  0.34653172970E+01  0.11258258247E+03  0.11540323639E+03  0.00000000000E+00 0.  1.
         -2    1    1    2    0  502 -0.25120920929E+02 -0.34653172970E+01  0.86642474411E+03  0.86679576966E+03  0.00000000000E+00 0. -1.
<mgrwt>
<rscale>  2 0.25358807E+02</rscale>
<asrwt>0</asrwt>
<pdfrwt beam="1">  1       21 0.15086154E+00 0.25358807E+02</pdfrwt>
<pdfrwt beam="2">  1       21 0.24551459E-03 0.25358807E+02</pdfrwt>
<totfact> 0.86904869E+06</totfact>
</mgrwt>
</event>
<event>
 4    1  0.2812958E+004  0.3705822E+02  0.7546771E-02  0.1531047E+00
         21   -1    0    0  501  502  0.00000000000E+00  0.00000000000E+00  0.69561877842E+02  0.69561877842E+02  0.00000000000E+00 0. -1.
         21   -1    0    0  502  503 -0.00000000000E+00 -0.00000000000E+00 -0.36134109005E+02  0.36134109005E+02  0.00000000000E+00 0.  1.
          2    1    1    2  501    0  0.31480299942E+02  0.19552556522E+02  0.52308410457E+02  0.64105238129E+02  0.00000000000E+00 0. -1.
         -2    1    1    2    0  503 -0.31480299942E+02 -0.19552556522E+02 -0.18880641620E+02  0.41590748719E+02  0.00000000000E+00 0.  1.
<mgrwt>
<rscale>  2 0.37058221E+02</rscale>
<asrwt>0</asrwt>
<pdfrwt beam="1">  1       21 0.10701827E-01 0.37058221E+02</pdfrwt>
<pdfrwt beam="2">  1       21 0.55590937E-02 0.37058221E+02</pdfrwt>
<totfact> 0.13688216E+07</totfact>
</mgrwt>
</event>
<event>
 4    1  0.2812958E+004  0.2096585E+02  0.7546771E-02  0.1726776E+00
         21   -1    0    0  501  502  0.00000000000E+00  0.00000000000E+00  0.43647108963E+02  0.43647108963E+02  0.00000000000E+00 0. -1.
         21   -1    0    0  502  503 -0.00000000000E+00 -0.00000000000E+00 -0.49834743722E+02  0.49834743722E+02  0.00000000000E+00 0.  1.
          2    1    1    2  501    0  0.46975508545E+01  0.20432814431E+02  0.38657984898E+02  0.43977342871E+02  0.00000000000E+00 0. -1.
         -2    1    1    2    0  503 -0.46975508545E+01 -0.20432814431E+02 -0.44845619657E+02  0.49504509815E+02  0.00000000000E+00 0.  1.
<mgrwt>
<rscale>  2 0.20965851E+02</rscale>
<asrwt>0</asrwt>
<pdfrwt beam="1">  1       21 0.67149398E-02 0.20965851E+02</pdfrwt>
<pdfrwt beam="2">  1       21 0.76668837E-02 0.20965851E+02</pdfrwt>
<totfact> 0.15748454E+07</totfact>
</mgrwt>
</event>
<event>
 4    1  0.2812958E+004  0.3270139E+02  0.7546771E-02  0.1570014E+00
         21   -1    0    0  503  502  0.00000000000E+00  0.00000000000E+00  0.37301937034E+03  0.37301937034E+03  0.00000000000E+00 0. -1.
         21   -1    0    0  501  503 -0.00000000000E+00 -0.00000000000E+00 -0.30063724880E+01  0.30063724880E+01  0.00000000000E+00 0.  1.
          2    1    1    2  501    0  0.17527907469E+01 -0.32654384653E+02  0.22551328627E+03  0.22787194517E+03  0.00000000000E+00 0.  1.
         -2    1    1    2    0  502 -0.17527907469E+01  0.32654384653E+02  0.14449971159E+03  0.14815379766E+03  0.00000000000E+00 0. -1.
<mgrwt>
<rscale>  2 0.32701393E+02</rscale>
<asrwt>0</asrwt>
<pdfrwt beam="1">  1       21 0.57387559E-01 0.32701393E+02</pdfrwt>
<pdfrwt beam="2">  1       21 0.46251914E-03 0.32701393E+02</pdfrwt>
<totfact> 0.29449964E+07</totfact>
</mgrwt>
</event>
<event>
 4    1  0.2812958E+004  0.2419041E+02  0.7546771E-02  0.1672910E+00
         21   -1    0    0  501  502  0.00000000000E+00  0.00000000000E+00  0.50429485297E+02  0.50429485297E+02  0.00000000000E+00 0. -1.
         21   -1    0    0  502  503 -0.00000000000E+00 -0.00000000000E+00 -0.15449753155E+02  0.15449753155E+02  0.00000000000E+00 0.  1.
          2    1    1    2  501    0  0.17187287041E+01  0.24129271952E+02  0.33924400681E+02  0.41665822383E+02  0.00000000000E+00 0. -1.
         -2    1    1    2    0  503 -0.17187287041E+01 -0.24129271952E+02  0.10553314613E+01  0.24213416070E+02  0.00000000000E+00 0.  1.
<mgrwt>
<rscale>  2 0.24190407E+02</rscale>
<asrwt>0</asrwt>
<pdfrwt beam="1">  1       21 0.77583823E-02 0.24190407E+02</pdfrwt>
<pdfrwt beam="2">  1       21 0.23768851E-02 0.24190407E+02</pdfrwt>
<totfact> 0.82217497E+07</totfact>
</mgrwt>
</event>
<event>
 4    1  0.2812958E+004  0.2360547E+02  0.7546771E-02  0.1681880E+00
         21   -1    0    0  501  502  0.00000000000E+00  0.00000000000E+00  0.17769203395E+03  0.17769203395E+03  0.00000000000E+00 0. -1.
         21   -1    0    0  502  503 -0.00000000000E+00 -0.00000000000E+00 -0.40180228614E+01  0.40180228614E+01  0.00000000000E+00 0.  1.
          2    1    1    2  501    0  0.11364121891E+02  0.20689973435E+02  0.12940820335E+03  0.13154353409E+03  0.00000000000E+00 0.  1.
         -2    1    1    2    0  503 -0.11364121891E+02 -0.20689973435E+02  0.44265807745E+02  0.50166522725E+02  0.00000000000E+00 0. -1.
<mgrwt>
<rscale>  2 0.23605471E+02</rscale>
<asrwt>0</asrwt>
<pdfrwt beam="1">  1       21 0.27337230E-01 0.23605471E+02</pdfrwt>
<pdfrwt beam="2">  1       21 0.61815750E-03 0.23605471E+02</pdfrwt>
<totfact> 0.73074951E+07</totfact>
</mgrwt>
</event>
<event>
 4    1  0.2812958E+004  0.2117220E+02  0.7546771E-02  0.1722974E+00
         21   -1    0    0  503  502  0.00000000000E+00  0.00000000000E+00  0.17162430575E+03  0.17162430575E+03  0.00000000000E+00 0.  1.
         21   -1    0    0  501  503 -0.00000000000E+00 -0.00000000000E+00 -0.26152385419E+01  0.26152385419E+01  0.00000000000E+00 0. -1.
          2    1    1    2  501    0 -0.11442326193E+02 -0.17813905780E+02  0.81382443355E+02  0.84091403569E+02  0.00000000000E+00 0.  1.
         -2    1    1    2    0  502  0.11442326193E+02  0.17813905780E+02  0.87626623858E+02  0.90148140728E+02  0.00000000000E+00 0. -1.
<mgrwt>
<rscale>  2 0.21172200E+02</rscale>
<asrwt>0</asrwt>
<pdfrwt beam="1">  1       21 0.26403730E-01 0.21172200E+02</pdfrwt>
<pdfrwt beam="2">  1       21 0.40234453E-03 0.21172200E+02</pdfrwt>
<totfact> 0.14212413E+08</totfact>
</mgrwt>
</event>
<event>
 4    1  0.2812958E+004  0.3258698E+02  0.7546771E-02  0.1571136E+00
         21   -1    0    0  501  502  0.00000000000E+00  0.00000000000E+00  0.43733053956E+01  0.43733053956E+01  0.00000000000E+00 0. -1.
         21   -1    0    0  502  503 -0.00000000000E+00 -0.00000000000E+00 -0.24757041640E+03  0.24757041640E+03  0.00000000000E+00 0.  1.
          2    1    1    2  501    0  0.19991101397E+02  0.25734554304E+02 -0.10414264453E+03  0.10912195852E+03  0.00000000000E+00 0. -1.
         -2    1    1    2    0  503 -0.19991101397E+02 -0.25734554304E+02 -0.13905446647E+03  0.14282176327E+03  0.00000000000E+00 0.  1.
<mgrwt>
<rscale>  2 0.32586982E+02</rscale>
<asrwt>0</asrwt>
<pdfrwt beam="1">  1       21 0.67281627E-03 0.32586982E+02</pdfrwt>
<pdfrwt beam="2">  1       21 0.38087753E-01 0.32586982E+02</pdfrwt>
<totfact> 0.37432058E+07</totfact>
</mgrwt>
</event>
<event>
 4    1  0.2812958E+004  0.3158949E+02  0.7546771E-02  0.1581155E+00
         21   -1    0    0  503  502  0.00000000000E+00  0.00000000000E+00  0.25126680919E+02  0.25126680919E+02  0.00000000000E+00 0. -1.
         21   -1    0    0  501  503 -0.00000000000E+00 -0.00000000000E+00 -0.40190213070E+02  0.40190213070E+02  0.00000000000E+00 0.  1.
          2    1    1    2  501    0  0.30292077243E+02 -0.89602485307E+01 -0.39790229974E+01  0.31839105224E+02  0.00000000000E+00 0. -1.
         -2    1    1    2    0  502 -0.30292077243E+02  0.89602485307E+01 -0.11084509154E+02  0.33477788765E+02  0.00000000000E+00 0.  1.
<mgrwt>
<rscale>  2 0.31589492E+02</rscale>
<asrwt>0</asrwt>
<pdfrwt beam="1">  1       21 0.38656432E-02 0.31589492E+02</pdfrwt>
<pdfrwt beam="2">  1       21 0.61831097E-02 0.31589492E+02</pdfrwt>
<totfact> 0.59238207E+07</totfact>
</mgrwt>
</event>
<event>
 4    1  0.2812958E+004  0.3517439E+02  0.7546771E-02  0.1547057E+00
         21   -1    0    0  501  502  0.00000000000E+00  0.00000000000E+00  0.22618667033E+03  0.22618667033E+03  0.00000000000E+00 0.  1.
         21   -1    0    0  502  503 -0.00000000000E+00 -0.00000000000E+00 -0.21543917821E+02  0.21543917821E+02  0.00000000000E+00 0. -1.
          2    1    1    2  501    0  0.26930093587E+02 -0.22627595831E+02  0.20931264814E+03  0.21224755053E+03  0.00000000000E+00 0.  1.
         -2    1    1    2    0  503 -0.26930093587E+02  0.22627595831E+02 -0.46698956326E+01  0.35483037622E+02  0.00000000000E+00 0. -1.
<mgrwt>
<rscale>  2 0.35174395E+02</rscale>
<asrwt>0</asrwt>
<pdfrwt beam="1">  1       21 0.34797948E-01 0.35174395E+02</pdfrwt>
<pdfrwt beam="2">  1       21 0.33144491E-02 0.35174395E+02</pdfrwt>
<totfact> 0.38435329E+06</totfact>
</mgrwt>
</event>
<event>
 4    1  0.2812958E+004  0.2243343E+02  0.7546771E-02  0.1700862E+00
         21   -1    0    0  501  502  0.00000000000E+00  0.00000000000E+00  0.47568361592E+02  0.47568361592E+02  0.00000000000E+00 0.  1.
         21   -1    0    0  502  503 -0.00000000000E+00 -0.00000000000E+00 -0.11430374495E+02  0.11430374495E+02  0.00000000000E+00 0. -1.
          2    1    1    2  501    0 -0.20975044964E+02 -0.79565096605E+01  0.26116596449E+02  0.34428696858E+02  0.00000000000E+00 0.  1.
         -2    1    1    2    0  503  0.20975044964E+02  0.79565096605E+01  0.10021390647E+02  0.24570039230E+02  0.00000000000E+00 0. -1.
<mgrwt>
<rscale>  2 0.22433425E+02</rscale>
<asrwt>0</asrwt>
<pdfrwt beam="1">  1       21 0.73182093E-02 0.22433425E+02</pdfrwt>
<pdfrwt beam="2">  1       21 0.17585192E-02 0.22433425E+02</pdfrwt>
<totfact> 0.14054403E+08</totfact>
</mgrwt>
</event>
<event>
 4    1  0.2812958E+004  0.2045586E+02  0.7546771E-02  0.1736412E+00
         21   -1    0    0  501  502  0.00000000000E+00  0.00000000000E+00  0.50063255169E+01  0.50063255169E+01  0.00000000000E+00 0.  1.
         21   -1    0    0  502  503 -0.00000000000E+00 -0.00000000000E+00 -0.29936986613E+03  0.29936986613E+03  0.00000000000E+00 0. -1.
          2    1    1    2  501    0 -0.19814335389E+02 -0.50827524665E+01 -0.17973760763E+02  0.27230467045E+02  0.00000000000E+00 0.  1.
         -2    1    1    2    0  503  0.19814335389E+02  0.50827524665E+01 -0.27638977985E+03  0.27714572461E+03  0.00000000000E+00 0. -1.
<mgrwt>
<rscale>  2 0.20455861E+02</rscale>
<asrwt>0</asrwt>
<pdfrwt beam="1">  1       21 0.77020383E-03 0.20455861E+02</pdfrwt>
<pdfrwt beam="2">  1       21 0.46056908E-01 0.20455861E+02</pdfrwt>
<totfact> 0.19382411E+07</totfact>
</mgrwt>
</event>
<event>
 4    1  0.2812958E+004  0.2015522E+02  0.7546771E-02  0.1742259E+00
         21   -1    0    0  503  502  0.00000000000E+00  0.00000000000E+00  0.35746448081E+01  0.35746448081E+01  0.00000000000E+00 0.  1.
         21   -1    0    0  501  503 -0.00000000000E+00 -0.00000000000E+00 -0.11768662904E+03  0.11768662904E+03  0.00000000000E+00 0. -1.
          2    1    1    2  501    0 -0.13283857479E+02  0.15158227093E+02 -0.45817090644E+02  0.50054355586E+02  0.00000000000E+00 0.  1.
         -2    1    1    2    0  502  0.13283857479E+02 -0.15158227093E+02 -0.68294893587E+02  0.71206918260E+02  0.00000000000E+00 0. -1.
<mgrwt>
<rscale>  2 0.20155216E+02</rscale>
<asrwt>0</asrwt>
<pdfrwt beam="1">  1       21 0.54994540E-03 0.20155216E+02</pdfrwt>
<pdfrwt beam="2">  1       21 0.18105634E-01 0.20155216E+02</pdfrwt>
<totfact> 0.17145377E+08</totfact>
</mgrwt>
</event>
<event>
 4    1  0.2812958E+004  0.2171902E+02  0.7546771E-02  0.1713157E+00
         21   -1    0    0  503  502  0.00000000000E+00  0.00000000000E+00  0.18162582757E+02  0.18162582757E+02  0.00000000000E+00 0.  1.
         21   -1    0    0  501  503 -0.00000000000E+00 -0.00000000000E+00 -0.50963833796E+02  0.50963833796E+02  0.00000000000E+00 0. -1.
          2    1    1    2  501    0  0.95157567206E+01  0.19523482539E+02 -0.40604411844E+02  0.46048173228E+02  0.00000000000E+00 0. -1.
         -2    1    1    2    0  502 -0.95157567206E+01 -0.19523482539E+02  0.78031608050E+01  0.23078243325E+02  0.00000000000E+00 0.  1.
<mgrwt>
<rscale>  2 0.21719024E+02</rscale>
<asrwt>0</asrwt>
<pdfrwt beam="1">  1       21 0.27942435E-02 0.21719024E+02</pdfrwt>
<pdfrwt beam="2">  1       21 0.78405899E-02 0.21719024E+02</pdfrwt>
<totfact> 0.61083735E+07</totfact>
</mgrwt>
</event>
<event>
 4    1  0.2812958E+004  0.3781673E+02  0.7546771E-02  0.1524921E+00
         21   -1    0    0  503  502  0.00000000000E+00  0.00000000000E+00  0.27588866545E+03  0.27588866545E+03  0.00000000000E+00 0.  1.
         21   -1    0    0  501  503 -0.00000000000E+00 -0.00000000000E+00 -0.53643596948E+01  0.53643596948E+01  0.00000000000E+00 0. -1.
          2    1    1    2  501    0 -0.27217724648E+02 -0.26254531467E+02  0.10945012229E+03  0.11579911151E+03  0.00000000000E+00 0. -1.
         -2    1    1    2    0  502  0.27217724648E+02  0.26254531467E+02  0.16107418347E+03  0.16545391364E+03  0.00000000000E+00 0.  1.
<mgrwt>
<rscale>  2 0.37816729E+02</rscale>
<asrwt>0</asrwt>
<pdfrwt beam="1">  1       21 0.42444399E-01 0.37816729E+02</pdfrwt>
<pdfrwt beam="2">  1       21 0.82528632E-03 0.37816729E+02</pdfrwt>
<totfact> 0.22918263E+07</totfact>
</mgrwt>
</event>
<event>
 4    1  0.2812958E+004  0.2062093E+02  0.7546771E-02  0.1733255E+00
         21   -1    0    0  501  502  0.00000000000E+00  0.00000000000E+00  0.20362523128E+02  0.20362523128E+02  0.00000000000E+00 0.  1.
         21   -1    0    0  502  503 -0.00000000000E+00 -0.00000000000E+00 -0.31148185935E+02  0.31148185935E+02  0.00000000000E+00 0. -1.
          2    1    1    2  501    0 -0.10838213615E+02  0.17542972305E+02  0.93928956844E+01  0.22659418373E+02  0.00000000000E+00 0.  1.
         -2    1    1    2    0  503  0.10838213615E+02 -0.17542972305E+02 -0.20178558491E+02  0.28851290690E+02  0.00000000000E+00 0. -1.
<mgrwt>
<rscale>  2 0.20620930E+02</rscale>
<asrwt>0</asrwt>
<pdfrwt beam="1">  1       21 0.31326959E-02 0.20620930E+02</pdfrwt>
<pdfrwt beam="2">  1       21 0.47920286E-02 0.20620930E+02</pdfrwt>
<totfact> 0.11097927E+08</totfact>
</mgrwt>
</event>
<event>
 4    1  0.2812958E+004  0.2412070E+02  0.7546771E-02  0.1673963E+00
         21   -1    0    0  503  502  0.00000000000E+00  0.00000000000E+00  0.17085195385E+02  0.17085195385E+02  0.00000000000E+00 0. -1.
         21   -1    0    0  501  503 -0.00000000000E+00 -0.00000000000E+00 -0.34090699405E+02  0.34090699405E+02  0.00000000000E+00 0.  1.
          2    1    1    2  501    0 -0.23684695403E+02  0.45654436562E+01 -0.76557550565E+01  0.25306494376E+02  0.00000000000E+00 0.  1.
         -2    1    1    2    0  502  0.23684695403E+02 -0.45654436562E+01 -0.93497489631E+01  0.25869400414E+02  0.00000000000E+00 0. -1.
<mgrwt>
<rscale>  2 0.24120698E+02</rscale>
<asrwt>0</asrwt>
<pdfrwt beam="1">  1       21 0.26284916E-02 0.24120698E+02</pdfrwt>
<pdfrwt beam="2">  1       21 0.52447230E-02 0.24120698E+02</pdfrwt>
<totfact> 0.13228467E+08</totfact>
</mgrwt>
</event>
<event>
 4    1  0.2812958E+004  0.2542074E+02  0.7546771E-02  0.1655031E+00
         21   -1    0    0  501  502  0.00000000000E+00  0.00000000000E+00  0.16610844643E+02  0.16610844643E+02  0.00000000000E+00 0. -1.
         21   -1    0    0  502  503 -0.00000000000E+00 -0.00000000000E+00 -0.67035154407E+02  0.67035154407E+02  0.00000000000E+00 0.  1.
          2    1    1    2  501    0 -0.23946606517E+02  0.85307660739E+01  0.18812959243E+01  0.25490257116E+02  0.00000000000E+00 0. -1.
         -2    1    1    2    0  503  0.23946606517E+02 -0.85307660739E+01 -0.52305605689E+02  0.58155741934E+02  0.00000000000E+00 0.  1.
<mgrwt>
<rscale>  2 0.25420738E+02</rscale>
<asrwt>0</asrwt>
<pdfrwt beam="1">  1       21 0.25555146E-02 0.25420738E+02</pdfrwt>
<pdfrwt beam="2">  1       21 0.10313101E-01 0.25420738E+02</pdfrwt>
<totfact> 0.46544293E+07</totfact>
</mgrwt>
</event>
<event>
 4    1  0.2812958E+004  0.2533555E+02  0.7546771E-02  0.1656228E+00
         21   -1    0    0  501  502  0.00000000000E+00  0.00000000000E+00  0.19046988218E+03  0.19046988218E+03  0.00000000000E+00 0. -1.
         21   -1    0    0  502  503 -0.00000000000E+00 -0.00000000000E+00 -0.19300057206E+02  0.19300057206E+02  0.00000000000E+00 0.  1.
          2    1    1    2  501    0  0.22608083772E+02  0.11435243681E+02  0.18087377523E+03  0.18263957078E+03  0.00000000000E+00 0. -1.
         -2    1    1    2    0  503 -0.22608083772E+02 -0.11435243681E+02 -0.97039502571E+01  0.27130368602E+02  0.00000000000E+00 0.  1.
<mgrwt>
<rscale>  2 0.25335553E+02</rscale>
<asrwt>0</asrwt>
<pdfrwt beam="1">  1       21 0.29303057E-01 0.25335553E+02</pdfrwt>
<pdfrwt beam="2">  1       21 0.29692397E-02 0.25335553E+02</pdfrwt>
<totfact> 0.60174371E+06</totfact>
</mgrwt>
</event>
<event>
 4    1  0.2812958E+004  0.4415236E+02  0.7546771E-02  0.1479704E+00
         21   -1    0    0  501  502  0.00000000000E+00  0.00000000000E+00  0.23479313829E+02  0.23479313829E+02  0.00000000000E+00 0. -1.
         21   -1    0    0  502  503 -0.00000000000E+00 -0.00000000000E+00 -0.10258203862E+03  0.10258203862E+03  0.00000000000E+00 0.  1.
          2    1    1    2  501    0  0.31979995066E+02 -0.30441928784E+02 -0.12031962252E+02  0.45762421572E+02  0.00000000000E+00 0. -1.
         -2    1    1    2    0  503 -0.31979995066E+02  0.30441928784E+02 -0.67070762541E+02  0.80298930879E+02  0.00000000000E+00 0.  1.
<mgrwt>
<rscale>  2 0.44152362E+02</rscale>
<asrwt>0</asrwt>
<pdfrwt beam="1">  1       21 0.36122022E-02 0.44152362E+02</pdfrwt>
<pdfrwt beam="2">  1       21 0.15781852E-01 0.44152362E+02</pdfrwt>
<totfact> 0.14446957E+07</totfact>
</mgrwt>
</event>
<event>
 4    1  0.2812958E+004  0.2963056E+02  0.7546771E-02  0.1602209E+00
         21   -1    0    0  503  502  0.00000000000E+00  0.00000000000E+00  0.12266081250E+03  0.12266081250E+03  0.00000000000E+00 0. -1.
         21   -1    0    0  501  503 -0.00000000000E+00 -0.00000000000E+00 -0.28279438441E+02  0.28279438441E+02  0.00000000000E+00 0.  1.
          2    1    1    2  501    0 -0.21483543254E+02  0.20406549411E+02 -0.18032867320E+02  0.34686513133E+02  0.00000000000E+00 0.  1.
         -2    1    1    2    0  502  0.21483543254E+02 -0.20406549411E+02  0.11241424138E+03  0.11625373781E+03  0.00000000000E+00 0. -1.
<mgrwt>
<rscale>  2 0.29630557E+02</rscale>
<asrwt>0</asrwt>
<pdfrwt beam="1">  1       21 0.18870894E-01 0.29630557E+02</pdfrwt>
<pdfrwt beam="2">  1       21 0.43506829E-02 0.29630557E+02</pdfrwt>
<totfact> 0.74004710E+06</totfact>
</mgrwt>
</event>
<event>
 4    1  0.2812958E+004  0.4222546E+02  0.7546771E-02  0.1492445E+00
         21   -1    0    0  501  502  0.00000000000E+00  0.00000000000E+00  0.38475083118E+02  0.38475083118E+02  0.00000000000E+00 0. -1.
         21   -1    0    0  502  503 -0.00000000000E+00 -0.00000000000E+00 -0.71682300205E+02  0.71682300205E+02  0.00000000000E+00 0.  1.
          2    1    1    2  501    0  0.40122959238E+02 -0.13158163051E+02  0.16144686274E+02  0.45206636767E+02  0.00000000000E+00 0. -1.
         -2    1    1    2    0  503 -0.40122959238E+02  0.13158163051E+02 -0.49351903361E+02  0.64950746556E+02  0.00000000000E+00 0.  1.
<mgrwt>
<rscale>  2 0.42225456E+02</rscale>
<asrwt>0</asrwt>
<pdfrwt beam="1">  1       21 0.59192436E-02 0.42225456E+02</pdfrwt>
<pdfrwt beam="2">  1       21 0.11028046E-01 0.42225456E+02</pdfrwt>
<totfact> 0.11966269E+07</totfact>
</mgrwt>
</event>
<event>
 4    1  0.2812958E+004  0.4444222E+02  0.7546771E-02  0.1477854E+00
         21   -1    0    0  501  502  0.00000000000E+00  0.00000000000E+00  0.30951225754E+03  0.30951225754E+03  0.00000000000E+00 0.  1.
         21   -1    0    0  502  503 -0.00000000000E+00 -0.00000000000E+00 -0.64215151143E+01  0.64215151143E+01  0.00000000000E+00 0. -1.
          2    1    1    2  501    0 -0.44390663064E+02  0.21400241535E+01  0.13905455011E+03  0.14598382984E+03  0.00000000000E+00 0.  1.
         -2    1    1    2    0  503  0.44390663064E+02 -0.21400241535E+01  0.16403619232E+03  0.16994994281E+03  0.00000000000E+00 0. -1.
<mgrwt>
<rscale>  2 0.44442217E+02</rscale>
<asrwt>0</asrwt>
<pdfrwt beam="1">  1       21 0.47617259E-01 0.44442217E+02</pdfrwt>
<pdfrwt beam="2">  1       21 0.98792564E-03 0.44442217E+02</pdfrwt>
<totfact> 0.14228530E+07</totfact>
</mgrwt>
</event>
<event>
 4    1  0.2812958E+004  0.2302663E+02  0.7546771E-02  0.1691079E+00
         21   -1    0    0  501  502  0.00000000000E+00  0.00000000000E+00  0.13369575330E+02  0.13369575330E+02  0.00000000000E+00 0. -1.
         21   -1    0    0  502  503 -0.00000000000E+00 -0.00000000000E+00 -0.25095267540E+03  0.25095267540E+03  0.00000000000E+00 0.  1.
          2    1    1    2  501    0 -0.22927488163E+01  0.22912202119E+02  0.24777665218E+01  0.23159555911E+02  0.00000000000E+00 0. -1.
         -2    1    1    2    0  503  0.22927488163E+01 -0.22912202119E+02 -0.24006086659E+03  0.24116269482E+03  0.00000000000E+00 0.  1.
<mgrwt>
<rscale>  2 0.23026630E+02</rscale>
<asrwt>0</asrwt>
<pdfrwt beam="1">  1       21 0.20568578E-02 0.23026630E+02</pdfrwt>
<pdfrwt beam="2">  1       21 0.38608102E-01 0.23026630E+02</pdfrwt>
<totfact> 0.62859243E+06</totfact>
</mgrwt>
</event>
<event>
 4    1  0.2812958E+004  0.2130142E+02  0.7546771E-02  0.1720621E+00
         21   -1    0    0  503  502  0.00000000000E+00  0.00000000000E+00  0.42239005853E+03  0.42239005853E+03  0.00000000000E+00 0. -1.
         21   -1    0    0  501  503 -0.00000000000E+00 -0.00000000000E+00 -0.35637540260E+01  0.35637540260E+01  0.00000000000E+00 0.  1.
          2    1    1    2  501    0 -0.19219717236E+02 -0.91843923407E+01  0.31406813328E+02  0.37949156996E+02  0.00000000000E+00 0.  1.
         -2    1    1    2    0  502  0.19219717236E+02  0.91843923407E+01  0.38741949118E+03  0.38800465556E+03  0.00000000000E+00 0. -1.
<mgrwt>
<rscale>  2 0.21301422E+02</rscale>
<asrwt>0</asrwt>
<pdfrwt beam="1">  1       21 0.64983046E-01 0.21301422E+02</pdfrwt>
<pdfrwt beam="2">  1       21 0.54827019E-03 0.21301422E+02</pdfrwt>
<totfact> 0.16444328E+07</totfact>
</mgrwt>
</event>
<event>
 4    1  0.2812958E+004  0.2120159E+02  0.7546771E-02  0.1722437E+00
         21   -1    0    0  503  502  0.00000000000E+00  0.00000000000E+00  0.49323902166E+03  0.49323902166E+03  0.00000000000E+00 0. -1.
         21   -1    0    0  501  503 -0.00000000000E+00 -0.00000000000E+00 -0.17353092014E+01  0.17353092014E+01  0.00000000000E+00 0.  1.
          2    1    1    2  501    0  0.97415647484E+01 -0.18831070207E+02  0.75214173875E+02  0.78145244517E+02  0.00000000000E+00 0.  1.
         -2    1    1    2    0  502 -0.97415647484E+01  0.18831070207E+02  0.41628953858E+03  0.41682908634E+03  0.00000000000E+00 0. -1.
<mgrwt>
<rscale>  2 0.21201587E+02</rscale>
<asrwt>0</asrwt>
<pdfrwt beam="1">  1       21 0.75882814E-01 0.21201587E+02</pdfrwt>
<pdfrwt beam="2">  1       21 0.26697104E-03 0.21201587E+02</pdfrwt>
<totfact> 0.34253120E+07</totfact>
</mgrwt>
</event>
<event>
 4    1  0.2812958E+004  0.2146757E+02  0.7546771E-02  0.1717626E+00
         21   -1    0    0  501  502  0.00000000000E+00  0.00000000000E+00  0.14216053933E+03  0.14216053933E+03  0.00000000000E+00 0. -1.
         21   -1    0    0  502  503 -0.00000000000E+00 -0.00000000000E+00 -0.78244894691E+01  0.78244894691E+01  0.00000000000E+00 0.  1.
          2    1    1    2  501    0 -0.14791673011E-02 -0.21467566914E+02  0.12455984439E+03  0.12639624704E+03  0.00000000000E+00 0. -1.
         -2    1    1    2    0  503  0.14791673011E-02  0.21467566914E+02  0.97762054687E+01  0.23588781757E+02  0.00000000000E+00 0.  1.
<mgrwt>
<rscale>  2 0.21467567E+02</rscale>
<asrwt>0</asrwt>
<pdfrwt beam="1">  1       21 0.21870850E-01 0.21467567E+02</pdfrwt>
<pdfrwt beam="2">  1       21 0.12037677E-02 0.21467567E+02</pdfrwt>
<totfact> 0.39164467E+07</totfact>
</mgrwt>
</event>
<event>
 4    1  0.2812958E+004  0.2481120E+02  0.7546771E-02  0.1663729E+00
         21   -1    0    0  501  502  0.00000000000E+00  0.00000000000E+00  0.10628881561E+03  0.10628881561E+03  0.00000000000E+00 0. -1.
         21   -1    0    0  502  503 -0.00000000000E+00 -0.00000000000E+00 -0.50133562398E+02  0.50133562398E+02  0.00000000000E+00 0.  1.
          2    1    1    2  501    0 -0.23784274896E+02 -0.70642615695E+01  0.10163249977E+03  0.10461720955E+03  0.00000000000E+00 0. -1.
         -2    1    1    2    0  503  0.23784274896E+02  0.70642615695E+01 -0.45477246563E+02  0.51805168456E+02  0.00000000000E+00 0.  1.
<mgrwt>
<rscale>  2 0.24811198E+02</rscale>
<asrwt>0</asrwt>
<pdfrwt beam="1">  1       21 0.16352125E-01 0.24811198E+02</pdfrwt>
<pdfrwt beam="2">  1       21 0.77128558E-02 0.24811198E+02</pdfrwt>
<totfact> 0.36689681E+06</totfact>
</mgrwt>
</event>
<event>
 4    1  0.2812958E+004  0.2434123E+02  0.7546771E-02  0.1670648E+00
         21   -1    0    0  501  502  0.00000000000E+00  0.00000000000E+00  0.82758977527E+00  0.82758977527E+00  0.00000000000E+00 0. -1.
         21   -1    0    0  502  503 -0.00000000000E+00 -0.00000000000E+00 -0.12554128642E+04  0.12554128642E+04  0.00000000000E+00 0.  1.
          2    1    1    2  501    0  0.15456534147E+01  0.24292106648E+02 -0.21553777500E+03  0.21690787893E+03  0.00000000000E+00 0. -1.
         -2    1    1    2    0  503 -0.15456534147E+01 -0.24292106648E+02 -0.10390474995E+04  0.10393325751E+04  0.00000000000E+00 0.  1.
<mgrwt>
<rscale>  2 0.24341230E+02</rscale>
<asrwt>0</asrwt>
<pdfrwt beam="1">  1       21 0.12732169E-03 0.24341230E+02</pdfrwt>
<pdfrwt beam="2">  1       21 0.19314016E+00 0.24341230E+02</pdfrwt>
<totfact> 0.12127242E+07</totfact>
</mgrwt>
</event>
<event>
 4    1  0.2812958E+004  0.2485230E+02  0.7546771E-02  0.1663132E+00
         21   -1    0    0  503  502  0.00000000000E+00  0.00000000000E+00  0.38928990239E+02  0.38928990239E+02  0.00000000000E+00 0.  1.
         21   -1    0    0  501  503 -0.00000000000E+00 -0.00000000000E+00 -0.29027574105E+02  0.29027574105E+02  0.00000000000E+00 0. -1.
          2    1    1    2  501    0  0.23198712750E+02 -0.89138429973E+01 -0.17929207073E+02  0.30644629815E+02  0.00000000000E+00 0. -1.
         -2    1    1    2    0  502 -0.23198712750E+02  0.89138429973E+01  0.27830623206E+02  0.37311934529E+02  0.00000000000E+00 0.  1.
<mgrwt>
<rscale>  2 0.24852301E+02</rscale>
<asrwt>0</asrwt>
<pdfrwt beam="1">  1       21 0.59890754E-02 0.24852301E+02</pdfrwt>
<pdfrwt beam="2">  1       21 0.44657806E-02 0.24852301E+02</pdfrwt>
<totfact> 0.46897443E+07</totfact>
</mgrwt>
</event>
<event>
 4    1  0.2812958E+004  0.3213665E+02  0.7546771E-02  0.1575605E+00
         21   -1    0    0  501  502  0.00000000000E+00  0.00000000000E+00  0.31949281743E+03  0.31949281743E+03  0.00000000000E+00 0. -1.
         21   -1    0    0  502  503 -0.00000000000E+00 -0.00000000000E+00 -0.32523936786E+01  0.32523936786E+01  0.00000000000E+00 0.  1.
          2    1    1    2  501    0 -0.46931632132E+01 -0.31792110885E+02  0.17073744240E+03  0.17373554136E+03  0.00000000000E+00 0.  1.
         -2    1    1    2    0  503  0.46931632132E+01  0.31792110885E+02  0.14550298135E+03  0.14900966975E+03  0.00000000000E+00 0. -1.
<mgrwt>
<rscale>  2 0.32136647E+02</rscale>
<asrwt>0</asrwt>
<pdfrwt beam="1">  1       21 0.49152716E-01 0.32136647E+02</pdfrwt>
<pdfrwt beam="2">  1       21 0.50036851E-03 0.32136647E+02</pdfrwt>
<totfact> 0.35534926E+07</totfact>
</mgrwt>
</event>
<event>
 4    1  0.2812958E+004  0.3094193E+02  0.7546771E-02  0.1587904E+00
         21   -1    0    0  501  502  0.00000000000E+00  0.00000000000E+00  0.18873760204E+01  0.18873760204E+01  0.00000000000E+00 0. -1.
         21   -1    0    0  502  503 -0.00000000000E+00 -0.00000000000E+00 -0.69472096785E+03  0.69472096785E+03  0.00000000000E+00 0.  1.
          2    1    1    2  501    0  0.94866598593E+01 -0.29451767762E+02 -0.16549081567E+03  0.16835858579E+03  0.00000000000E+00 0. -1.
         -2    1    1    2    0  503 -0.94866598593E+01  0.29451767762E+02 -0.52734277616E+03  0.52824975808E+03  0.00000000000E+00 0.  1.
<mgrwt>
<rscale>  2 0.30941935E+02</rscale>
<asrwt>0</asrwt>
<pdfrwt beam="1">  1       21 0.29036532E-03 0.30941935E+02</pdfrwt>
<pdfrwt beam="2">  1       21 0.10688023E+00 0.30941935E+02</pdfrwt>
<totfact> 0.15519901E+07</totfact>
</mgrwt>
</event>
<event>
 4    1  0.2812958E+004  0.3045276E+02  0.7546771E-02  0.1593137E+00
         21   -1    0    0  503  502  0.00000000000E+00  0.00000000000E+00  0.27463034753E+01  0.27463034753E+01  0.00000000000E+00 0.  1.
         21   -1    0    0  501  503 -0.00000000000E+00 -0.00000000000E+00 -0.39355574052E+03  0.39355574052E+03  0.00000000000E+00 0. -1.
          2    1    1    2  501    0 -0.28814391204E+02 -0.98540191545E+01 -0.27006784017E+03  0.27177933904E+03  0.00000000000E+00 0. -1.
         -2    1    1    2    0  502  0.28814391204E+02  0.98540191545E+01 -0.12074159688E+03  0.12452270496E+03  0.00000000000E+00 0.  1.
<mgrwt>
<rscale>  2 0.30452764E+02</rscale>
<asrwt>0</asrwt>
<pdfrwt beam="1">  1       21 0.42250806E-03 0.30452764E+02</pdfrwt>
<pdfrwt beam="2">  1       21 0.60547061E-01 0.30452764E+02</pdfrwt>
<totfact> 0.29852704E+07</totfact>
</mgrwt>
</event>
<event>
 4    1  0.2812958E+004  0.2335468E+02  0.7546771E-02  0.1685825E+00
         21   -1    0    0  503  502  0.00000000000E+00  0.00000000000E+00  0.15771167865E+03  0.15771167865E+03  0.00000000000E+00 0. -1.
         21   -1    0    0  501  503 -0.00000000000E+00 -0.00000000000E+00 -0.64844871023E+01  0.64844871023E+01  0.00000000000E+00 0.  1.
          2    1    1    2  501    0 -0.22868844256E+02  0.47388763094E+01  0.19530633415E+02  0.30444812824E+02  0.00000000000E+00 0.  1.
         -2    1    1    2    0  502  0.22868844256E+02 -0.47388763094E+01  0.13169655813E+03  0.13375135292E+03  0.00000000000E+00 0. -1.
<mgrwt>
<rscale>  2 0.23354678E+02</rscale>
<asrwt>0</asrwt>
<pdfrwt beam="1">  1       21 0.24263332E-01 0.23354678E+02</pdfrwt>
<pdfrwt beam="2">  1       21 0.99761351E-03 0.23354678E+02</pdfrwt>
<totfact> 0.44152775E+07</totfact>
</mgrwt>
</event>
<event>
 4    1  0.2812958E+004  0.2139588E+02  0.7546771E-02  0.1718914E+00
         21   -1    0    0  503  502  0.00000000000E+00  0.00000000000E+00  0.59619656026E+01  0.59619656026E+01  0.00000000000E+00 0. -1.
         21   -1    0    0  501  503 -0.00000000000E+00 -0.00000000000E+00 -0.76796035721E+02  0.76796035721E+02  0.00000000000E+00 0.  1.
          2    1    1    2  501    0 -0.15321896848E+02 -0.14933962036E+02 -0.34899658913E+02  0.40936169061E+02  0.00000000000E+00 0. -1.
         -2    1    1    2    0  502  0.15321896848E+02  0.14933962036E+02 -0.35934411206E+02  0.41821832263E+02  0.00000000000E+00 0.  1.
<mgrwt>
<rscale>  2 0.21395881E+02</rscale>
<asrwt>0</asrwt>
<pdfrwt beam="1">  1       21 0.91722551E-03 0.21395881E+02</pdfrwt>
<pdfrwt beam="2">  1       21 0.11814774E-01 0.21395881E+02</pdfrwt>
<totfact> 0.16844325E+08</totfact>
</mgrwt>
</event>
<event>
 4    1  0.2812958E+004  0.2043185E+02  0.7546771E-02  0.1736874E+00
         21   -1    0    0  501  502  0.00000000000E+00  0.00000000000E+00  0.71653103647E+01  0.71653103647E+01  0.00000000000E+00 0.  1.
         21   -1    0    0  502  503 -0.00000000000E+00 -0.00000000000E+00 -0.84726436268E+02  0.84726436268E+02  0.00000000000E+00 0. -1.
          2    1    1    2  501    0 -0.20388403567E+02 -0.13317093613E+01 -0.13101809773E+02  0.24271750434E+02  0.00000000000E+00 0.  1.
         -2    1    1    2    0  503  0.20388403567E+02  0.13317093613E+01 -0.64459316131E+02  0.67619996198E+02  0.00000000000E+00 0. -1.
<mgrwt>
<rscale>  2 0.20431849E+02</rscale>
<asrwt>0</asrwt>
<pdfrwt beam="1">  1       21 0.11023555E-02 0.20431849E+02</pdfrwt>
<pdfrwt beam="2">  1       21 0.13034835E-01 0.20431849E+02</pdfrwt>
<totfact> 0.10704867E+08</totfact>
</mgrwt>
</event>
<event>
 4    1  0.2812958E+004  0.3099205E+02  0.7546771E-02  0.1587375E+00
         21   -1    0    0  501  502  0.00000000000E+00  0.00000000000E+00  0.12980465133E+04  0.12980465133E+04  0.00000000000E+00 0. -1.
         21   -1    0    0  502  503 -0.00000000000E+00 -0.00000000000E+00 -0.18985156659E+01  0.18985156659E+01  0.00000000000E+00 0.  1.
          2    1    1    2  501    0  0.22424973280E+02 -0.21392228833E+02  0.11558190735E+04  0.11562345080E+04  0.00000000000E+00 0. -1.
         -2    1    1    2    0  503 -0.22424973280E+02  0.21392228833E+02  0.14032892421E+03  0.14371052102E+03  0.00000000000E+00 0.  1.
<mgrwt>
<rscale>  2 0.30992045E+02</rscale>
<asrwt>0</asrwt>
<pdfrwt beam="1">  1       21 0.19969875E+00 0.30992045E+02</pdfrwt>
<pdfrwt beam="2">  1       21 0.29208037E-03 0.30992045E+02</pdfrwt>
<totfact> 0.34051930E+06</totfact>
</mgrwt>
</event>
<event>
 4    1  0.2812958E+004  0.2062591E+02  0.7546771E-02  0.1733160E+00
         21   -1    0    0  503  502  0.00000000000E+00  0.00000000000E+00  0.25639352546E+03  0.25639352546E+03  0.00000000000E+00 0. -1.
         21   -1    0    0  501  503 -0.00000000000E+00 -0.00000000000E+00 -0.66248454976E+01  0.66248454976E+01  0.00000000000E+00 0.  1.
          2    1    1    2  501    0 -0.20340986523E+02  0.34165148366E+01  0.11029203931E+02  0.23389562751E+02  0.00000000000E+00 0.  1.
         -2    1    1    2    0  502  0.20340986523E+02 -0.34165148366E+01  0.23873947603E+03  0.23962880820E+03  0.00000000000E+00 0. -1.
<mgrwt>
<rscale>  2 0.20625913E+02</rscale>
<asrwt>0</asrwt>
<pdfrwt beam="1">  1       21 0.39445150E-01 0.20625913E+02</pdfrwt>
<pdfrwt beam="2">  1       21 0.10192072E-02 0.20625913E+02</pdfrwt>
<totfact> 0.17142884E+07</totfact>
</mgrwt>
</event>
<event>
 4    1  0.2812958E+004  0.3534453E+02  0.7546771E-02  0.1545562E+00
         21   -1    0    0  501  502  0.00000000000E+00  0.00000000000E+00  0.90300558187E+01  0.90300558187E+01  0.00000000000E+00 0. -1.
         21   -1    0    0  502  503 -0.00000000000E+00 -0.00000000000E+00 -0.13837417173E+03  0.13837417173E+03  0.00000000000E+00 0.  1.
          2    1    1    2  501    0  0.87282456950E+01 -0.34249873639E+02 -0.63548517744E+02  0.72716230820E+02  0.00000000000E+00 0. -1.
         -2    1    1    2    0  503 -0.87282456950E+01  0.34249873639E+02 -0.65795598169E+02  0.74687996731E+02  0.00000000000E+00 0.  1.
<mgrwt>
<rscale>  2 0.35344534E+02</rscale>
<asrwt>0</asrwt>
<pdfrwt beam="1">  1       21 0.13892393E-02 0.35344534E+02</pdfrwt>
<pdfrwt beam="2">  1       21 0.21288335E-01 0.35344534E+02</pdfrwt>
<totfact> 0.36798525E+07</totfact>
</mgrwt>
</event>
<event>
 4    1  0.2812958E+004  0.2098326E+02  0.7546771E-02  0.1726453E+00
         21   -1    0    0  503  502  0.00000000000E+00  0.00000000000E+00  0.64704806655E+01  0.64704806655E+01  0.00000000000E+00 0. -1.
         21   -1    0    0  501  503 -0.00000000000E+00 -0.00000000000E+00 -0.12326002693E+03  0.12326002693E+03  0.00000000000E+00 0.  1.
          2    1    1    2  501    0  0.75360180680E+01 -0.19583300408E+02 -0.10180794449E+03  0.10394784647E+03  0.00000000000E+00 0.  1.
         -2    1    1    2    0  502 -0.75360180680E+01  0.19583300408E+02 -0.14981601768E+02  0.25782661126E+02  0.00000000000E+00 0. -1.
<mgrwt>
<rscale>  2 0.20983261E+02</rscale>
<asrwt>0</asrwt>
<pdfrwt beam="1">  1       21 0.99545857E-03 0.20983261E+02</pdfrwt>
<pdfrwt beam="2">  1       21 0.18963081E-01 0.20983261E+02</pdfrwt>
<totfact> 0.66398427E+07</totfact>
</mgrwt>
</event>
<event>
 4    1  0.2812958E+004  0.2600141E+02  0.7546771E-02  0.1647021E+00
         21   -1    0    0  501  502  0.00000000000E+00  0.00000000000E+00  0.13560116021E+02  0.13560116021E+02  0.00000000000E+00 0.  1.
         21   -1    0    0  502  503 -0.00000000000E+00 -0.00000000000E+00 -0.58468761615E+02  0.58468761615E+02  0.00000000000E+00 0. -1.
          2    1    1    2  501    0 -0.25226689041E+02  0.62997969061E+01 -0.86330361421E+01  0.27397127478E+02  0.00000000000E+00 0.  1.
         -2    1    1    2    0  503  0.25226689041E+02 -0.62997969061E+01 -0.36275609453E+02  0.44631750158E+02  0.00000000000E+00 0. -1.
<mgrwt>
<rscale>  2 0.26001409E+02</rscale>
<asrwt>0</asrwt>
<pdfrwt beam="1">  1       21 0.20861717E-02 0.26001409E+02</pdfrwt>
<pdfrwt beam="2">  1       21 0.89951942E-02 0.26001409E+02</pdfrwt>
<totfact> 0.80384109E+07</totfact>
</mgrwt>
</event>
<event>
 4    1  0.2812958E+004  0.2257840E+02  0.7546771E-02  0.1698437E+00
         21   -1    0    0  501  502  0.00000000000E+00  0.00000000000E+00  0.22790444331E+02  0.22790444331E+02  0.00000000000E+00 0.  1.
         21   -1    0    0  502  503 -0.00000000000E+00 -0.00000000000E+00 -0.71438876401E+02  0.71438876401E+02  0.00000000000E+00 0. -1.
          2    1    1    2  501    0 -0.12806191875E+02  0.18595312137E+02  0.14723820704E+02  0.26955056668E+02  0.00000000000E+00 0.  1.
         -2    1    1    2    0  503  0.12806191875E+02 -0.18595312137E+02 -0.63372252774E+02  0.67274264065E+02  0.00000000000E+00 0. -1.
<mgrwt>
<rscale>  2 0.22578401E+02</rscale>
<asrwt>0</asrwt>
<pdfrwt beam="1">  1       21 0.35062223E-02 0.22578401E+02</pdfrwt>
<pdfrwt beam="2">  1       21 0.10990596E-01 0.22578401E+02</pdfrwt>
<totfact> 0.24859571E+07</totfact>
</mgrwt>
</event>
<event>
 4    1  0.2812958E+004  0.2063978E+02  0.7546771E-02  0.1732897E+00
         21   -1    0    0  503  502  0.00000000000E+00  0.00000000000E+00  0.63578925645E+02  0.63578925645E+02  0.00000000000E+00 0. -1.
         21   -1    0    0  501  503 -0.00000000000E+00 -0.00000000000E+00 -0.74756409623E+01  0.74756409623E+01  0.00000000000E+00 0.  1.
          2    1    1    2  501    0  0.44626870026E+00 -0.20634955590E+02  0.16610421370E+02  0.26493520832E+02  0.00000000000E+00 0. -1.
         -2    1    1    2    0  502 -0.44626870026E+00  0.20634955590E+02  0.39492863313E+02  0.44561045776E+02  0.00000000000E+00 0.  1.
<mgrwt>
<rscale>  2 0.20639781E+02</rscale>
<asrwt>0</asrwt>
<pdfrwt beam="1">  1       21 0.97813728E-02 0.20639781E+02</pdfrwt>
<pdfrwt beam="2">  1       21 0.11500987E-02 0.20639781E+02</pdfrwt>
<totfact> 0.16226726E+08</totfact>
</mgrwt>
</event>
<event>
 4    1  0.2812958E+004  0.2261833E+02  0.7546771E-02  0.1697773E+00
         21   -1    0    0  503  502  0.00000000000E+00  0.00000000000E+00  0.48454730376E+01  0.48454730376E+01  0.00000000000E+00 0. -1.
         21   -1    0    0  501  503 -0.00000000000E+00 -0.00000000000E+00 -0.12444525696E+03  0.12444525696E+03  0.00000000000E+00 0.  1.
          2    1    1    2  501    0 -0.42037410718E+01  0.22224248216E+02 -0.84969185024E+02  0.87928101602E+02  0.00000000000E+00 0.  1.
         -2    1    1    2    0  502  0.42037410718E+01 -0.22224248216E+02 -0.34630598902E+02  0.41362628399E+02  0.00000000000E+00 0. -1.
<mgrwt>
<rscale>  2 0.22618325E+02</rscale>
<asrwt>0</asrwt>
<pdfrwt beam="1">  1       21 0.74545729E-03 0.22618325E+02</pdfrwt>
<pdfrwt beam="2">  1       21 0.19145427E-01 0.22618325E+02</pdfrwt>
<totfact> 0.10265748E+08</totfact>
</mgrwt>
</event>
<event>
 4    1  0.2812958E+004  0.2492378E+02  0.7546771E-02  0.1662099E+00
         21   -1    0    0  503  502  0.00000000000E+00  0.00000000000E+00  0.14433910305E+02  0.14433910305E+02  0.00000000000E+00 0. -1.
         21   -1    0    0  501  503 -0.00000000000E+00 -0.00000000000E+00 -0.69537032948E+02  0.69537032948E+02  0.00000000000E+00 0.  1.
          2    1    1    2  501    0 -0.51788731406E+01 -0.24379791917E+02 -0.53470223728E+02  0.58993726840E+02  0.00000000000E+00 0.  1.
         -2    1    1    2    0  502  0.51788731406E+01  0.24379791917E+02 -0.16328989146E+01  0.24977216413E+02  0.00000000000E+00 0. -1.
<mgrwt>
<rscale>  2 0.24923783E+02</rscale>
<asrwt>0</asrwt>
<pdfrwt beam="1">  1       21 0.22206016E-02 0.24923783E+02</pdfrwt>
<pdfrwt beam="2">  1       21 0.10698005E-01 0.24923783E+02</pdfrwt>
<totfact> 0.54178455E+07</totfact>
</mgrwt>
</event>
<event>
 4    1  0.2812958E+004  0.2324278E+02  0.7546771E-02  0.1687605E+00
         21   -1    0    0  501  502  0.00000000000E+00  0.00000000000E+00  0.96183843069E+02  0.96183843069E+02  0.00000000000E+00 0.  1.
         21   -1    0    0  502  503 -0.00000000000E+00 -0.00000000000E+00 -0.72875112964E+01  0.72875112964E+01  0.00000000000E+00 0. -1.
          2    1    1    2  501    0  0.33231651353E+01  0.23003982760E+02  0.69221050025E+02  0.73019041461E+02  0.00000000000E+00 0.  1.
         -2    1    1    2    0  503 -0.33231651353E+01 -0.23003982760E+02  0.19675281747E+02  0.30452312904E+02  0.00000000000E+00 0. -1.
<mgrwt>
<rscale>  2 0.23242776E+02</rscale>
<asrwt>0</asrwt>
<pdfrwt beam="1">  1       21 0.14797513E-01 0.23242776E+02</pdfrwt>
<pdfrwt beam="2">  1       21 0.11211557E-02 0.23242776E+02</pdfrwt>
<totfact> 0.87377318E+07</totfact>
</mgrwt>
</event>
<event>
 4    1  0.2812958E+004  0.2010102E+02  0.7546771E-02  0.1743327E+00
         21   -1    0    0  503  502  0.00000000000E+00  0.00000000000E+00  0.90338586414E+01  0.90338586414E+01  0.00000000000E+00 0.  1.
         21   -1    0    0  501  503 -0.00000000000E+00 -0.00000000000E+00 -0.51193905493E+02  0.51193905493E+02  0.00000000000E+00 0. -1.
          2    1    1    2  501    0  0.11831689347E+02 -0.16249993149E+02 -0.31783604016E+02  0.37606497236E+02  0.00000000000E+00 0.  1.
         -2    1    1    2    0  502 -0.11831689347E+02  0.16249993149E+02 -0.10376442835E+02  0.22621266898E+02  0.00000000000E+00 0. -1.
<mgrwt>
<rscale>  2 0.20101024E+02</rscale>
<asrwt>0</asrwt>
<pdfrwt beam="1">  1       21 0.13898244E-02 0.20101024E+02</pdfrwt>
<pdfrwt beam="2">  1       21 0.78759857E-02 0.20101024E+02</pdfrwt>
<totfact> 0.17234758E+08</totfact>
</mgrwt>
</event>
<event>
 4    1  0.2812958E+004  0.2241826E+02  0.7546771E-02  0.1701117E+00
         21   -1    0    0  503  502  0.00000000000E+00  0.00000000000E+00  0.99081396452E+01  0.99081396452E+01  0.00000000000E+00 0.  1.
         21   -1    0    0  501  503 -0.00000000000E+00 -0.00000000000E+00 -0.12996929323E+03  0.12996929323E+03  0.00000000000E+00 0. -1.
          2    1    1    2  501    0 -0.14005956296E+02 -0.17504612594E+02 -0.11464214229E+03  0.11681352260E+03  0.00000000000E+00 0. -1.
         -2    1    1    2    0  502  0.14005956296E+02  0.17504612594E+02 -0.54190113000E+01  0.23063910278E+02  0.00000000000E+00 0.  1.
<mgrwt>
<rscale>  2 0.22418258E+02</rscale>
<asrwt>0</asrwt>
<pdfrwt beam="1">  1       21 0.15243292E-02 0.22418258E+02</pdfrwt>
<pdfrwt beam="2">  1       21 0.19995276E-01 0.22418258E+02</pdfrwt>
<totfact> 0.32390917E+07</totfact>
</mgrwt>
</event>
<event>
 4    1  0.2812958E+004  0.3047241E+02  0.7546771E-02  0.1592925E+00
         21   -1    0    0  503  502  0.00000000000E+00  0.00000000000E+00  0.81370719045E+02  0.81370719045E+02  0.00000000000E+00 0. -1.
         21   -1    0    0  501  503 -0.00000000000E+00 -0.00000000000E+00 -0.52517173977E+02  0.52517173977E+02  0.00000000000E+00 0.  1.
          2    1    1    2  501    0 -0.20911361230E+01  0.30400572420E+02 -0.44799057309E+02  0.54180468709E+02  0.00000000000E+00 0.  1.
         -2    1    1    2    0  502  0.20911361230E+01 -0.30400572420E+02  0.73652602376E+02  0.79707424313E+02  0.00000000000E+00 0. -1.
<mgrwt>
<rscale>  2 0.30472408E+02</rscale>
<asrwt>0</asrwt>
<pdfrwt beam="1">  1       21 0.12518572E-01 0.30472408E+02</pdfrwt>
<pdfrwt beam="2">  1       21 0.80795652E-02 0.30472408E+02</pdfrwt>
<totfact> 0.55236457E+06</totfact>
</mgrwt>
</event>
<event>
 4    1  0.2812958E+004  0.2968777E+02  0.7546771E-02  0.1601566E+00
         21   -1    0    0  501  502  0.00000000000E+00  0.00000000000E+00  0.18720022651E+01  0.18720022651E+01  0.00000000000E+00 0.  1.
         21   -1    0    0  502  503 -0.00000000000E+00 -0.00000000000E+00 -0.49807985464E+03  0.49807985464E+03  0.00000000000E+00 0. -1.
          2    1    1    2  501    0 -0.32746799626E+01  0.29506608894E+02 -0.18961628347E+03  0.19192628391E+03  0.00000000000E+00 0.  1.
         -2    1    1    2    0  503  0.32746799626E+01 -0.29506608894E+02 -0.30659156890E+03  0.30802557299E+03  0.00000000000E+00 0. -1.
<mgrwt>
<rscale>  2 0.29687767E+02</rscale>
<asrwt>0</asrwt>
<pdfrwt beam="1">  1       21 0.28800028E-03 0.29687767E+02</pdfrwt>
<pdfrwt beam="2">  1       21 0.76627689E-01 0.29687767E+02</pdfrwt>
<totfact> 0.32157447E+07</totfact>
</mgrwt>
</event>
<event>
 4    1  0.2812958E+004  0.2478112E+02  0.7546771E-02  0.1664166E+00
         21   -1    0    0  501  502  0.00000000000E+00  0.00000000000E+00  0.96517905329E+02  0.96517905329E+02  0.00000000000E+00 0. -1.
         21   -1    0    0  502  503 -0.00000000000E+00 -0.00000000000E+00 -0.16629573042E+02  0.16629573042E+02  0.00000000000E+00 0.  1.
          2    1    1    2  501    0  0.23207359969E+02  0.86903494175E+01  0.84396624644E+02  0.87959615625E+02  0.00000000000E+00 0. -1.
         -2    1    1    2    0  503 -0.23207359969E+02 -0.86903494175E+01 -0.45082923559E+01  0.25187862746E+02  0.00000000000E+00 0.  1.
<mgrwt>
<rscale>  2 0.24781116E+02</rscale>
<asrwt>0</asrwt>
<pdfrwt beam="1">  1       21 0.14848908E-01 0.24781116E+02</pdfrwt>
<pdfrwt beam="2">  1       21 0.25583959E-02 0.24781116E+02</pdfrwt>
<totfact> 0.25000818E+07</totfact>
</mgrwt>
</event>
<event>
 4    1  0.2812958E+004  0.3159954E+02  0.7546771E-02  0.1581052E+00
         21   -1    0    0  501  502  0.00000000000E+00  0.00000000000E+00  0.21281784685E+02  0.21281784685E+02  0.00000000000E+00 0.  1.
         21   -1    0    0  502  503 -0.00000000000E+00 -0.00000000000E+00 -0.77125777984E+02  0.77125777984E+02  0.00000000000E+00 0. -1.
          2    1    1    2  501    0  0.20289817940E+02  0.24225075642E+02  0.28706632373E+01  0.31729666076E+02  0.00000000000E+00 0.  1.
         -2    1    1    2    0  503 -0.20289817940E+02 -0.24225075642E+02 -0.58714656536E+02  0.66677896593E+02  0.00000000000E+00 0. -1.
<mgrwt>
<rscale>  2 0.31599541E+02</rscale>
<asrwt>0</asrwt>
<pdfrwt beam="1">  1       21 0.32741207E-02 0.31599541E+02</pdfrwt>
<pdfrwt beam="2">  1       21 0.11865504E-01 0.31599541E+02</pdfrwt>
<totfact> 0.26135528E+07</totfact>
</mgrwt>
</event>
<event>
 4    1  0.2812958E+004  0.2153448E+02  0.7546771E-02  0.1716429E+00
         21   -1    0    0  501  502  0.00000000000E+00  0.00000000000E+00  0.26777968412E+00  0.26777968412E+00  0.00000000000E+00 0. -1.
         21   -1    0    0  502  503 -0.00000000000E+00 -0.00000000000E+00 -0.17468316659E+04  0.17468316659E+04  0.00000000000E+00 0.  1.
          2    1    1    2  501    0 -0.52751727817E+01  0.20878374888E+02 -0.79217911077E+03  0.79247175187E+03  0.00000000000E+00 0.  1.
         -2    1    1    2    0  503  0.52751727817E+01 -0.20878374888E+02 -0.95438477547E+03  0.95462769373E+03  0.00000000000E+00 0. -1.
<mgrwt>
<rscale>  2 0.21534484E+02</rscale>
<asrwt>0</asrwt>
<pdfrwt beam="1">  1       21 0.41195803E-04 0.21534484E+02</pdfrwt>
<pdfrwt beam="2">  1       21 0.26875032E+00 0.21534484E+02</pdfrwt>
<totfact> 0.23970715E+07</totfact>
</mgrwt>
</event>
<event>
 4    1  0.2812958E+004  0.2014431E+02  0.7546771E-02  0.1742473E+00
         21   -1    0    0  501  502  0.00000000000E+00  0.00000000000E+00  0.15272960010E+04  0.15272960010E+04  0.00000000000E+00 0.  1.
         21   -1    0    0  502  503 -0.00000000000E+00 -0.00000000000E+00 -0.90597993211E+00  0.90597993211E+00  0.00000000000E+00 0. -1.
          2    1    1    2  501    0  0.11174842118E+02  0.16760555660E+02  0.14055549777E+04  0.14056993237E+04  0.00000000000E+00 0.  1.
         -2    1    1    2    0  503 -0.11174842118E+02 -0.16760555660E+02  0.12083504336E+03  0.12250265722E+03  0.00000000000E+00 0. -1.
<mgrwt>
<rscale>  2 0.20144312E+02</rscale>
<asrwt>0</asrwt>
<pdfrwt beam="1">  1       21 0.23496656E+00 0.20144312E+02</pdfrwt>
<pdfrwt beam="2">  1       21 0.13938275E-03 0.20144312E+02</pdfrwt>
<totfact> 0.62334105E+06</totfact>
</mgrwt>
</event>
<event>
 4    1  0.2812958E+004  0.2980214E+02  0.7546771E-02  0.1600286E+00
         21   -1    0    0  501  502  0.00000000000E+00  0.00000000000E+00  0.72422523242E+03  0.72422523242E+03  0.00000000000E+00 0.  1.
         21   -1    0    0  502  503 -0.00000000000E+00 -0.00000000000E+00 -0.23769055877E+01  0.23769055877E+01  0.00000000000E+00 0. -1.
          2    1    1    2  501    0 -0.28313182950E+02  0.93022309874E+01  0.61368559598E+03  0.61440880409E+03  0.00000000000E+00 0.  1.
         -2    1    1    2    0  503  0.28313182950E+02 -0.93022309874E+01  0.10816273085E+03  0.11219333392E+03  0.00000000000E+00 0. -1.
<mgrwt>
<rscale>  2 0.29802145E+02</rscale>
<asrwt>0</asrwt>
<pdfrwt beam="1">  1       21 0.11141909E+00 0.29802145E+02</pdfrwt>
<pdfrwt beam="2">  1       21 0.36567836E-03 0.29802145E+02</pdfrwt>
<totfact> 0.10009584E+07</totfact>
</mgrwt>
</event>
<event>
 4    1  0.2812958E+004  0.2080911E+02  0.7546771E-02  0.1729701E+00
         21   -1    0    0  503  502  0.00000000000E+00  0.00000000000E+00  0.11099095899E+01  0.11099095899E+01  0.00000000000E+00 0.  1.
         21   -1    0    0  501  503 -0.00000000000E+00 -0.00000000000E+00 -0.41149299030E+03  0.41149299030E+03  0.00000000000E+00 0. -1.
          2    1    1    2  501    0  0.16586173410E+02  0.12566541364E+02 -0.25218741429E+03  0.25304448431E+03  0.00000000000E+00 0. -1.
         -2    1    1    2    0  502 -0.16586173410E+02 -0.12566541364E+02 -0.15819566641E+03  0.15955841558E+03  0.00000000000E+00 0.  1.
<mgrwt>
<rscale>  2 0.20809111E+02</rscale>
<asrwt>0</asrwt>
<pdfrwt beam="1">  1       21 0.17075535E-03 0.20809111E+02</pdfrwt>
<pdfrwt beam="2">  1       21 0.63306602E-01 0.20809111E+02</pdfrwt>
<totfact> 0.93964547E+07</totfact>
</mgrwt>
</event>
<event>
 4    1  0.2812958E+004  0.2059112E+02  0.7546771E-02  0.1733822E+00
         21   -1    0    0  503  502  0.00000000000E+00  0.00000000000E+00  0.40499729997E+01  0.40499729997E+01  0.00000000000E+00 0. -1.
         21   -1    0    0  501  503 -0.00000000000E+00 -0.00000000000E+00 -0.11458744740E+03  0.11458744740E+03  0.00000000000E+00 0.  1.
          2    1    1    2  501    0  0.10291014597E+02  0.17835059540E+02 -0.72701667123E+02  0.75561410341E+02  0.00000000000E+00 0. -1.
         -2    1    1    2    0  502 -0.10291014597E+02 -0.17835059540E+02 -0.37835807276E+02  0.43076010057E+02  0.00000000000E+00 0.  1.
<mgrwt>
<rscale>  2 0.20591123E+02</rscale>
<asrwt>0</asrwt>
<pdfrwt beam="1">  1       21 0.62307280E-03 0.20591123E+02</pdfrwt>
<pdfrwt beam="2">  1       21 0.17628837E-01 0.20591123E+02</pdfrwt>
<totfact> 0.15030392E+08</totfact>
</mgrwt>
</event>
<event>
 4    1  0.2812958E+004  0.2306794E+02  0.7546771E-02  0.1690411E+00
         21   -1    0    0  503  502  0.00000000000E+00  0.00000000000E+00  0.28391459730E+02  0.28391459730E+02  0.00000000000E+00 0. -1.
         21   -1    0    0  501  503 -0.00000000000E+00 -0.00000000000E+00 -0.18742686900E+02  0.18742686900E+02  0.00000000000E+00 0.  1.
          2    1    1    2  501    0 -0.16023193727E+02  0.16594788454E+02  0.47733117273E+01  0.23556617879E+02  0.00000000000E+00 0. -1.
         -2    1    1    2    0  502  0.16023193727E+02 -0.16594788454E+02  0.48754611019E+01  0.23577528751E+02  0.00000000000E+00 0.  1.
<mgrwt>
<rscale>  2 0.23067938E+02</rscale>
<asrwt>0</asrwt>
<pdfrwt beam="1">  1       21 0.43679169E-02 0.23067938E+02</pdfrwt>
<pdfrwt beam="2">  1       21 0.28834903E-02 0.23067938E+02</pdfrwt>
<totfact> 0.15120458E+08</totfact>
</mgrwt>
</event>
<event>
 4    1  0.2812958E+004  0.2082338E+02  0.7546771E-02  0.1729433E+00
         21   -1    0    0  501  502  0.00000000000E+00  0.00000000000E+00  0.72814833346E+02  0.72814833346E+02  0.00000000000E+00 0. -1.
         21   -1    0    0  502  503 -0.00000000000E+00 -0.00000000000E+00 -0.74035052439E+01  0.74035052439E+01  0.00000000000E+00 0.  1.
          2    1    1    2  501    0  0.12295346612E+02 -0.16805874765E+02  0.50446892433E+02  0.54575653281E+02  0.00000000000E+00 0. -1.
         -2    1    1    2    0  503 -0.12295346612E+02  0.16805874765E+02  0.14964435669E+02  0.25642685309E+02  0.00000000000E+00 0.  1.
<mgrwt>
<rscale>  2 0.20823376E+02</rscale>
<asrwt>0</asrwt>
<pdfrwt beam="1">  1       21 0.11202282E-01 0.20823376E+02</pdfrwt>
<pdfrwt beam="2">  1       21 0.11390009E-02 0.20823376E+02</pdfrwt>
<totfact> 0.13195523E+08</totfact>
</mgrwt>
</event>
<event>
 4    1  0.2812958E+004  0.2136463E+02  0.7546771E-02  0.1719478E+00
         21   -1    0    0  503  502  0.00000000000E+00  0.00000000000E+00  0.20787836030E+03  0.20787836030E+03  0.00000000000E+00 0. -1.
         21   -1    0    0  501  503 -0.00000000000E+00 -0.00000000000E+00 -0.10085870726E+02  0.10085870726E+02  0.00000000000E+00 0.  1.
          2    1    1    2  501    0  0.18570352198E+02 -0.10563596434E+02  0.25043450943E+01  0.21510911062E+02  0.00000000000E+00 0.  1.
         -2    1    1    2    0  502 -0.18570352198E+02  0.10563596434E+02  0.19528814448E+03  0.19645331997E+03  0.00000000000E+00 0. -1.
<mgrwt>
<rscale>  2 0.21364633E+02</rscale>
<asrwt>0</asrwt>
<pdfrwt beam="1">  1       21 0.31981283E-01 0.21364633E+02</pdfrwt>
<pdfrwt beam="2">  1       21 0.15516726E-02 0.21364633E+02</pdfrwt>
<totfact> 0.13506307E+07</totfact>
</mgrwt>
</event>
<event>
 4    1  0.2812958E+004  0.2725456E+02  0.7546771E-02  0.1630582E+00
         21   -1    0    0  503  502  0.00000000000E+00  0.00000000000E+00  0.11792513397E+03  0.11792513397E+03  0.00000000000E+00 0. -1.
         21   -1    0    0  501  503 -0.00000000000E+00 -0.00000000000E+00 -0.81397637409E+01  0.81397637409E+01  0.00000000000E+00 0.  1.
          2    1    1    2  501    0  0.26668721638E+02  0.56205066234E+01  0.24917842180E+02  0.36928439818E+02  0.00000000000E+00 0.  1.
         -2    1    1    2    0  502 -0.26668721638E+02 -0.56205066234E+01  0.84867528046E+02  0.89136457890E+02  0.00000000000E+00 0. -1.
<mgrwt>
<rscale>  2 0.27254556E+02</rscale>
<asrwt>0</asrwt>
<pdfrwt beam="1">  1       21 0.18142327E-01 0.27254556E+02</pdfrwt>
<pdfrwt beam="2">  1       21 0.12522714E-02 0.27254556E+02</pdfrwt>
<totfact> 0.54155895E+07</totfact>
</mgrwt>
</event>
<event>
 4    1  0.2812958E+004  0.2475259E+02  0.7546771E-02  0.1664581E+00
         21   -1    0    0  503  502  0.00000000000E+00  0.00000000000E+00  0.12434130650E+02  0.12434130650E+02  0.00000000000E+00 0. -1.
         21   -1    0    0  501  503 -0.00000000000E+00 -0.00000000000E+00 -0.59271643988E+02  0.59271643988E+02  0.00000000000E+00 0.  1.
          2    1    1    2  501    0  0.15848778681E+02 -0.19013333003E+02 -0.38142892217E+02  0.45470549197E+02  0.00000000000E+00 0.  1.
         -2    1    1    2    0  502 -0.15848778681E+02  0.19013333003E+02 -0.86946211203E+01  0.26235225442E+02  0.00000000000E+00 0. -1.
<mgrwt>
<rscale>  2 0.24752588E+02</rscale>
<asrwt>0</asrwt>
<pdfrwt beam="1">  1       21 0.19129432E-02 0.24752588E+02</pdfrwt>
<pdfrwt beam="2">  1       21 0.91187143E-02 0.24752588E+02</pdfrwt>
<totfact> 0.88689598E+07</totfact>
</mgrwt>
</event>
<event>
 4    1  0.2812958E+004  0.2327012E+02  0.7546771E-02  0.1687169E+00
         21   -1    0    0  501  502  0.00000000000E+00  0.00000000000E+00  0.31226581667E+01  0.31226581667E+01  0.00000000000E+00 0.  1.
         21   -1    0    0  502  503 -0.00000000000E+00 -0.00000000000E+00 -0.71009780341E+03  0.71009780341E+03  0.00000000000E+00 0. -1.
          2    1    1    2  501    0 -0.23169124544E+02  0.21656298169E+01 -0.43463213211E+02  0.49300600273E+02  0.00000000000E+00 0.  1.
         -2    1    1    2    0  503  0.23169124544E+02 -0.21656298169E+01 -0.66351193203E+03  0.66391986130E+03  0.00000000000E+00 0. -1.
<mgrwt>
<rscale>  2 0.23270116E+02</rscale>
<asrwt>0</asrwt>
<pdfrwt beam="1">  1       21 0.48040911E-03 0.23270116E+02</pdfrwt>
<pdfrwt beam="2">  1       21 0.10924578E+00 0.23270116E+02</pdfrwt>
<totfact> 0.67562547E+06</totfact>
</mgrwt>
</event>
<event>
 4    1  0.2812958E+004  0.2097232E+02  0.7546771E-02  0.1726656E+00
         21   -1    0    0  501  502  0.00000000000E+00  0.00000000000E+00  0.12574930124E+03  0.12574930124E+03  0.00000000000E+00 0.  1.
         21   -1    0    0  502  503 -0.00000000000E+00 -0.00000000000E+00 -0.69378561114E+01  0.69378561114E+01  0.00000000000E+00 0. -1.
          2    1    1    2  501    0  0.23737557668E+01 -0.20837545450E+02  0.10612251035E+03  0.10817497502E+03  0.00000000000E+00 0.  1.
         -2    1    1    2    0  503 -0.23737557668E+01  0.20837545450E+02  0.12688934772E+02  0.24512182328E+02  0.00000000000E+00 0. -1.
<mgrwt>
<rscale>  2 0.20972315E+02</rscale>
<asrwt>0</asrwt>
<pdfrwt beam="1">  1       21 0.19346045E-01 0.20972315E+02</pdfrwt>
<pdfrwt beam="2">  1       21 0.10673626E-02 0.20972315E+02</pdfrwt>
<totfact> 0.57767568E+07</totfact>
</mgrwt>
</event>
<event>
 4    1  0.2812958E+004  0.2720451E+02  0.7546771E-02  0.1631218E+00
         21   -1    0    0  503  502  0.00000000000E+00  0.00000000000E+00  0.21843042887E+03  0.21843042887E+03  0.00000000000E+00 0.  1.
         21   -1    0    0  501  503 -0.00000000000E+00 -0.00000000000E+00 -0.38358744657E+01  0.38358744657E+01  0.00000000000E+00 0. -1.
          2    1    1    2  501    0 -0.12387640221E+02  0.24220485259E+02  0.69331387399E+02  0.74477693406E+02  0.00000000000E+00 0. -1.
         -2    1    1    2    0  502  0.12387640221E+02 -0.24220485259E+02  0.14526316700E+03  0.14778860993E+03  0.00000000000E+00 0.  1.
<mgrwt>
<rscale>  2 0.27204513E+02</rscale>
<asrwt>0</asrwt>
<pdfrwt beam="1">  1       21 0.33604672E-01 0.27204513E+02</pdfrwt>
<pdfrwt beam="2">  1       21 0.59013470E-03 0.27204513E+02</pdfrwt>
<totfact> 0.55517184E+07</totfact>
</mgrwt>
</event>
<event>
 4    1  0.2812958E+004  0.2885516E+02  0.7546771E-02  0.1611099E+00
         21   -1    0    0  503  502  0.00000000000E+00  0.00000000000E+00  0.30571199827E+03  0.30571199827E+03  0.00000000000E+00 0. -1.
         21   -1    0    0  501  503 -0.00000000000E+00 -0.00000000000E+00 -0.33481734070E+01  0.33481734070E+01  0.00000000000E+00 0.  1.
          2    1    1    2  501    0 -0.22711735402E+02  0.17798800732E+02  0.84436701043E+02  0.89231030003E+02  0.00000000000E+00 0.  1.
         -2    1    1    2    0  502  0.22711735402E+02 -0.17798800732E+02  0.21792712382E+03  0.21982914167E+03  0.00000000000E+00 0. -1.
<mgrwt>
<rscale>  2 0.28855160E+02</rscale>
<asrwt>0</asrwt>
<pdfrwt beam="1">  1       21 0.47032593E-01 0.28855160E+02</pdfrwt>
<pdfrwt beam="2">  1       21 0.51510384E-03 0.28855160E+02</pdfrwt>
<totfact> 0.36347262E+07</totfact>
</mgrwt>
</event>
<event>
 4    1  0.2812958E+004  0.2012135E+02  0.7546771E-02  0.1742926E+00
         21   -1    0    0  503  502  0.00000000000E+00  0.00000000000E+00  0.12417675352E+02  0.12417675352E+02  0.00000000000E+00 0.  1.
         21   -1    0    0  501  503 -0.00000000000E+00 -0.00000000000E+00 -0.12367511257E+03  0.12367511257E+03  0.00000000000E+00 0. -1.
          2    1    1    2  501    0  0.13471696036E+02  0.14945968664E+02 -0.11402077410E+03  0.11578257856E+03  0.00000000000E+00 0. -1.
         -2    1    1    2    0  502 -0.13471696036E+02 -0.14945968664E+02  0.27633368802E+01  0.20310209356E+02  0.00000000000E+00 0.  1.
<mgrwt>
<rscale>  2 0.20121346E+02</rscale>
<asrwt>0</asrwt>
<pdfrwt beam="1">  1       21 0.19104117E-02 0.20121346E+02</pdfrwt>
<pdfrwt beam="2">  1       21 0.19026940E-01 0.20121346E+02</pdfrwt>
<totfact> 0.24407551E+07</totfact>
</mgrwt>
</event>
<event>
 4    1  0.2812958E+004  0.2350770E+02  0.7546771E-02  0.1683410E+00
         21   -1    0    0  503  502  0.00000000000E+00  0.00000000000E+00  0.50596878814E+01  0.50596878814E+01  0.00000000000E+00 0.  1.
         21   -1    0    0  501  503 -0.00000000000E+00 -0.00000000000E+00 -0.29133062681E+03  0.29133062681E+03  0.00000000000E+00 0. -1.
          2    1    1    2  501    0 -0.20052603387E+02  0.12268048177E+02 -0.26030381090E+03  0.26136313029E+03  0.00000000000E+00 0. -1.
         -2    1    1    2    0  502  0.20052603387E+02 -0.12268048177E+02 -0.25967128028E+02  0.35027184395E+02  0.00000000000E+00 0.  1.
<mgrwt>
<rscale>  2 0.23507699E+02</rscale>
<asrwt>0</asrwt>
<pdfrwt beam="1">  1       21 0.77841347E-03 0.23507699E+02</pdfrwt>
<pdfrwt beam="2">  1       21 0.44820099E-01 0.23507699E+02</pdfrwt>
<totfact> 0.20694554E+07</totfact>
</mgrwt>
</event>
<event>
 4    1  0.2812958E+004  0.3480793E+02  0.7546771E-02  0.1550313E+00
         21   -1    0    0  503  502  0.00000000000E+00  0.00000000000E+00  0.27454224469E+02  0.27454224469E+02  0.00000000000E+00 0. -1.
         21   -1    0    0  501  503 -0.00000000000E+00 -0.00000000000E+00 -0.80346023222E+02  0.80346023222E+02  0.00000000000E+00 0.  1.
          2    1    1    2  501    0 -0.30895250315E+02 -0.16033584361E+02 -0.62632666311E+02  0.71655029194E+02  0.00000000000E+00 0.  1.
         -2    1    1    2    0  502  0.30895250315E+02  0.16033584361E+02  0.97408675589E+01  0.36145218498E+02  0.00000000000E+00 0. -1.
<mgrwt>
<rscale>  2 0.34807935E+02</rscale>
<asrwt>0</asrwt>
<pdfrwt beam="1">  1       21 0.42237268E-02 0.34807935E+02</pdfrwt>
<pdfrwt beam="2">  1       21 0.12360927E-01 0.34807935E+02</pdfrwt>
<totfact> 0.16539274E+07</totfact>
</mgrwt>
</event>
<event>
 4    1  0.2812958E+004  0.2156545E+02  0.7546771E-02  0.1715878E+00
         21   -1    0    0  503  502  0.00000000000E+00  0.00000000000E+00  0.40027339999E+01  0.40027339999E+01  0.00000000000E+00 0. -1.
         21   -1    0    0  501  503 -0.00000000000E+00 -0.00000000000E+00 -0.84097272014E+03  0.84097272014E+03  0.00000000000E+00 0.  1.
          2    1    1    2  501    0 -0.20960899697E+01 -0.21463339251E+02 -0.81070319355E+03  0.81098997315E+03  0.00000000000E+00 0.  1.
         -2    1    1    2    0  502  0.20960899697E+01  0.21463339251E+02 -0.26266792599E+02  0.33985480994E+02  0.00000000000E+00 0. -1.
<mgrwt>
<rscale>  2 0.21565447E+02</rscale>
<asrwt>0</asrwt>
<pdfrwt beam="1">  1       21 0.61580482E-03 0.21565447E+02</pdfrwt>
<pdfrwt beam="2">  1       21 0.12938050E+00 0.21565447E+02</pdfrwt>
<totfact> 0.31636182E+06</totfact>
</mgrwt>
</event>
<event>
 4    1  0.2812958E+004  0.2992922E+02  0.7546771E-02  0.1598872E+00
         21   -1    0    0  503  502  0.00000000000E+00  0.00000000000E+00  0.60160769765E+03  0.60160769765E+03  0.00000000000E+00 0. -1.
         21   -1    0    0  501  503 -0.00000000000E+00 -0.00000000000E+00 -0.14902946939E+01  0.14902946939E+01  0.00000000000E+00 0.  1.
          2    1    1    2  501    0 -0.21740160949E+02  0.20569967412E+02  0.29096924520E+03  0.29250446118E+03  0.00000000000E+00 0. -1.
         -2    1    1    2    0  502  0.21740160949E+02 -0.20569967412E+02  0.30914815776E+03  0.31059353117E+03  0.00000000000E+00 0.  1.
<mgrwt>
<rscale>  2 0.29929219E+02</rscale>
<asrwt>0</asrwt>
<pdfrwt beam="1">  1       21 0.92554837E-01 0.29929219E+02</pdfrwt>
<pdfrwt beam="2">  1       21 0.22927659E-03 0.29929219E+02</pdfrwt>
<totfact> 0.30011176E+07</totfact>
</mgrwt>
</event>
<event>
 4    1  0.2812958E+004  0.3136583E+02  0.7546771E-02  0.1583464E+00
         21   -1    0    0  503  502  0.00000000000E+00  0.00000000000E+00  0.63216234713E+03  0.63216234713E+03  0.00000000000E+00 0. -1.
         21   -1    0    0  501  503 -0.00000000000E+00 -0.00000000000E+00 -0.64312066422E+01  0.64312066422E+01  0.00000000000E+00 0.  1.
          2    1    1    2  501    0  0.24558331084E+02 -0.19511630055E+02  0.34873256786E+02  0.46903724499E+02  0.00000000000E+00 0.  1.
         -2    1    1    2    0  502 -0.24558331084E+02  0.19511630055E+02  0.59085788370E+03  0.59168982927E+03  0.00000000000E+00 0. -1.
<mgrwt>
<rscale>  2 0.31365831E+02</rscale>
<asrwt>0</asrwt>
<pdfrwt beam="1">  1       21 0.97255697E-01 0.31365831E+02</pdfrwt>
<pdfrwt beam="2">  1       21 0.98941690E-03 0.31365831E+02</pdfrwt>
<totfact> 0.30778922E+06</totfact>
</mgrwt>
</event>
<event>
 4    1  0.2812958E+004  0.3911240E+02  0.7546771E-02  0.1514847E+00
         21   -1    0    0  501  502  0.00000000000E+00  0.00000000000E+00  0.18966292525E+03  0.18966292525E+03  0.00000000000E+00 0. -1.
         21   -1    0    0  502  503 -0.00000000000E+00 -0.00000000000E+00 -0.14457183282E+02  0.14457183282E+02  0.00000000000E+00 0.  1.
          2    1    1    2  501    0  0.27081479173E+02 -0.28220080844E+02  0.15546258946E+03  0.16030719322E+03  0.00000000000E+00 0. -1.
         -2    1    1    2    0  503 -0.27081479173E+02  0.28220080844E+02  0.19743152506E+02  0.43812915309E+02  0.00000000000E+00 0.  1.
<mgrwt>
<rscale>  2 0.39112395E+02</rscale>
<asrwt>0</asrwt>
<pdfrwt beam="1">  1       21 0.29178910E-01 0.39112395E+02</pdfrwt>
<pdfrwt beam="2">  1       21 0.22241822E-02 0.39112395E+02</pdfrwt>
<totfact> 0.10148805E+07</totfact>
</mgrwt>
</event>
<event>
 4    1  0.2812958E+004  0.2134566E+02  0.7546771E-02  0.1719821E+00
         21   -1    0    0  501  502  0.00000000000E+00  0.00000000000E+00  0.21774956431E+01  0.21774956431E+01  0.00000000000E+00 0.  1.
         21   -1    0    0  502  503 -0.00000000000E+00 -0.00000000000E+00 -0.24621904159E+03  0.24621904159E+03  0.00000000000E+00 0. -1.
          2    1    1    2  501    0  0.60592092132E+01  0.20467608962E+02 -0.73894257191E+02  0.76915526903E+02  0.00000000000E+00 0.  1.
         -2    1    1    2    0  503 -0.60592092132E+01 -0.20467608962E+02 -0.17014728876E+03  0.17148101033E+03  0.00000000000E+00 0. -1.
<mgrwt>
<rscale>  2 0.21345656E+02</rscale>
<asrwt>0</asrwt>
<pdfrwt beam="1">  1       21 0.33499943E-03 0.21345656E+02</pdfrwt>
<pdfrwt beam="2">  1       21 0.37879841E-01 0.21345656E+02</pdfrwt>
<totfact> 0.96353179E+07</totfact>
</mgrwt>
</event>
<event>
 4    1  0.2812958E+004  0.2245159E+02  0.7546771E-02  0.1700557E+00
         21   -1    0    0  501  502  0.00000000000E+00  0.00000000000E+00  0.39533483001E+03  0.39533483001E+03  0.00000000000E+00 0.  1.
         21   -1    0    0  502  503 -0.00000000000E+00 -0.00000000000E+00 -0.20416327875E+01  0.20416327875E+01  0.00000000000E+00 0. -1.
          2    1    1    2  501    0 -0.45463329975E+01 -0.21986468326E+02  0.31839443216E+03  0.31918503781E+03  0.00000000000E+00 0.  1.
         -2    1    1    2    0  503  0.45463329975E+01  0.21986468326E+02  0.74898765058E+02  0.78191424980E+02  0.00000000000E+00 0. -1.
<mgrwt>
<rscale>  2 0.22451591E+02</rscale>
<asrwt>0</asrwt>
<pdfrwt beam="1">  1       21 0.60820682E-01 0.22451591E+02</pdfrwt>
<pdfrwt beam="2">  1       21 0.31409767E-03 0.22451591E+02</pdfrwt>
<totfact> 0.42983611E+07</totfact>
</mgrwt>
</event>
<event>
 4    1  0.2812958E+004  0.2493126E+02  0.7546771E-02  0.1661991E+00
         21   -1    0    0  501  502  0.00000000000E+00  0.00000000000E+00  0.56224025285E+02  0.56224025285E+02  0.00000000000E+00 0. -1.
         21   -1    0    0  502  503 -0.00000000000E+00 -0.00000000000E+00 -0.19229971628E+02  0.19229971628E+02  0.00000000000E+00 0.  1.
          2    1    1    2  501    0  0.19068010449E+02  0.16061709186E+02  0.43095089187E+02  0.49787089055E+02  0.00000000000E+00 0. -1.
         -2    1    1    2    0  503 -0.19068010449E+02 -0.16061709186E+02 -0.61010355300E+01  0.25666907858E+02  0.00000000000E+00 0.  1.
<mgrwt>
<rscale>  2 0.24931256E+02</rscale>
<asrwt>0</asrwt>
<pdfrwt beam="1">  1       21 0.86498499E-02 0.24931256E+02</pdfrwt>
<pdfrwt beam="2">  1       21 0.29584572E-02 0.24931256E+02</pdfrwt>
<totfact> 0.49341850E+07</totfact>
</mgrwt>
</event>
<event>
 4    1  0.2812958E+004  0.2066106E+02  0.7546771E-02  0.1732493E+00
         21   -1    0    0  501  502  0.00000000000E+00  0.00000000000E+00  0.12784428596E+03  0.12784428596E+03  0.00000000000E+00 0.  1.
         21   -1    0    0  502  503 -0.00000000000E+00 -0.00000000000E+00 -0.36478442759E+01  0.36478442759E+01  0.00000000000E+00 0. -1.
          2    1    1    2  501    0 -0.87661256479E+01  0.18709203614E+02  0.81226762639E+02  0.83813281928E+02  0.00000000000E+00 0.  1.
         -2    1    1    2    0  503  0.87661256479E+01 -0.18709203614E+02  0.42969679049E+02  0.47678848312E+02  0.00000000000E+00 0. -1.
<mgrwt>
<rscale>  2 0.20661057E+02</rscale>
<asrwt>0</asrwt>
<pdfrwt beam="1">  1       21 0.19668348E-01 0.20661057E+02</pdfrwt>
<pdfrwt beam="2">  1       21 0.56120691E-03 0.20661057E+02</pdfrwt>
<totfact> 0.14534075E+08</totfact>
</mgrwt>
</event>
<event>
 4    1  0.2812958E+004  0.2015793E+02  0.7546771E-02  0.1742206E+00
         21   -1    0    0  501  502  0.00000000000E+00  0.00000000000E+00  0.47619503089E+03  0.47619503089E+03  0.00000000000E+00 0. -1.
         21   -1    0    0  502  503 -0.00000000000E+00 -0.00000000000E+00 -0.11407963126E+01  0.11407963126E+01  0.00000000000E+00 0.  1.
          2    1    1    2  501    0 -0.19932746872E+02 -0.30046181897E+01  0.35733857057E+03  0.35790668637E+03  0.00000000000E+00 0. -1.
         -2    1    1    2    0  503  0.19932746872E+02  0.30046181897E+01  0.11771566400E+03  0.11942914083E+03  0.00000000000E+00 0.  1.
<mgrwt>
<rscale>  2 0.20157930E+02</rscale>
<asrwt>0</asrwt>
<pdfrwt beam="1">  1       21 0.73260615E-01 0.20157930E+02</pdfrwt>
<pdfrwt beam="2">  1       21 0.17550751E-03 0.20157930E+02</pdfrwt>
<totfact> 0.66609541E+07</totfact>
</mgrwt>
</event>
<event>
 4    1  0.2812958E+004  0.2564469E+02  0.7546771E-02  0.1651911E+00
         21   -1    0    0  501  502  0.00000000000E+00  0.00000000000E+00  0.12571110471E+03  0.12571110471E+03  0.00000000000E+00 0. -1.
         21   -1    0    0  502  503 -0.00000000000E+00 -0.00000000000E+00 -0.56850958935E+01  0.56850958935E+01  0.00000000000E+00 0.  1.
          2    1    1    2  501    0  0.46953556114E+00 -0.25640387342E+02  0.78571717565E+02  0.82650860418E+02  0.00000000000E+00 0. -1.
         -2    1    1    2    0  503 -0.46953556114E+00  0.25640387342E+02  0.41454291252E+02  0.48745340186E+02  0.00000000000E+00 0.  1.
<mgrwt>
<rscale>  2 0.25644686E+02</rscale>
<asrwt>0</asrwt>
<pdfrwt beam="1">  1       21 0.19340168E-01 0.25644686E+02</pdfrwt>
<pdfrwt beam="2">  1       21 0.87463023E-03 0.25644686E+02</pdfrwt>
<totfact> 0.82113011E+07</totfact>
</mgrwt>
</event>
<event>
 4    1  0.2812958E+004  0.2212914E+02  0.7546771E-02  0.1706028E+00
         21   -1    0    0  501  502  0.00000000000E+00  0.00000000000E+00  0.12068737947E+01  0.12068737947E+01  0.00000000000E+00 0.  1.
         21   -1    0    0  502  503 -0.00000000000E+00 -0.00000000000E+00 -0.42474922917E+03  0.42474922917E+03  0.00000000000E+00 0. -1.
          2    1    1    2  501    0 -0.19931196128E+02 -0.96149046986E+01 -0.16673697391E+03  0.16819904113E+03  0.00000000000E+00 0. -1.
         -2    1    1    2    0  503  0.19931196128E+02  0.96149046986E+01 -0.25680538147E+03  0.25775706183E+03  0.00000000000E+00 0.  1.
<mgrwt>
<rscale>  2 0.22129143E+02</rscale>
<asrwt>0</asrwt>
<pdfrwt beam="1">  1       21 0.18567262E-03 0.22129143E+02</pdfrwt>
<pdfrwt beam="2">  1       21 0.65346132E-01 0.22129143E+02</pdfrwt>
<totfact> 0.79393458E+07</totfact>
</mgrwt>
</event>
<event>
 4    1  0.2812958E+004  0.6871578E+02  0.7546771E-02  0.1364515E+00
         21   -1    0    0  503  502  0.00000000000E+00  0.00000000000E+00  0.17009183304E+03  0.17009183304E+03  0.00000000000E+00 0. -1.
         21   -1    0    0  501  503 -0.00000000000E+00 -0.00000000000E+00 -0.53041308494E+02  0.53041308494E+02  0.00000000000E+00 0.  1.
          2    1    1    2  501    0 -0.58262593627E+02 -0.36432517223E+02 -0.18497882672E+02  0.71161996815E+02  0.00000000000E+00 0.  1.
         -2    1    1    2    0  502  0.58262593627E+02  0.36432517223E+02  0.13554840721E+03  0.15197114471E+03  0.00000000000E+00 0. -1.
<mgrwt>
<rscale>  2 0.68715778E+02</rscale>
<asrwt>0</asrwt>
<pdfrwt beam="1">  1       21 0.26167974E-01 0.68715778E+02</pdfrwt>
<pdfrwt beam="2">  1       21 0.81602014E-02 0.68715778E+02</pdfrwt>
<totfact> 0.15724887E+06</totfact>
</mgrwt>
</event>
<event>
 4    1  0.2812958E+004  0.2520043E+02  0.7546771E-02  0.1658140E+00
         21   -1    0    0  501  502  0.00000000000E+00  0.00000000000E+00  0.77296295686E+02  0.77296295686E+02  0.00000000000E+00 0.  1.
         21   -1    0    0  502  503 -0.00000000000E+00 -0.00000000000E+00 -0.89662500462E+01  0.89662500462E+01  0.00000000000E+00 0. -1.
          2    1    1    2  501    0 -0.36339839549E+01  0.24937038035E+02  0.46641940676E+02  0.53014454023E+02  0.00000000000E+00 0.  1.
         -2    1    1    2    0  503  0.36339839549E+01 -0.24937038035E+02  0.21688104963E+02  0.33248091708E+02  0.00000000000E+00 0. -1.
<mgrwt>
<rscale>  2 0.25200431E+02</rscale>
<asrwt>0</asrwt>
<pdfrwt beam="1">  1       21 0.11891737E-01 0.25200431E+02</pdfrwt>
<pdfrwt beam="2">  1       21 0.13794231E-02 0.25200431E+02</pdfrwt>
<totfact> 0.94412758E+07</totfact>
</mgrwt>
</event>
<event>
 4    1  0.2812958E+004  0.2696782E+02  0.7546771E-02  0.1634247E+00
         21   -1    0    0  501  502  0.00000000000E+00  0.00000000000E+00  0.15313952727E+02  0.15313952727E+02  0.00000000000E+00 0.  1.
         21   -1    0    0  502  503 -0.00000000000E+00 -0.00000000000E+00 -0.47713768945E+02  0.47713768945E+02  0.00000000000E+00 0. -1.
          2    1    1    2  501    0 -0.25065115374E+02  0.99500468634E+01 -0.14042973108E+02  0.30405074166E+02  0.00000000000E+00 0. -1.
         -2    1    1    2    0  503  0.25065115374E+02 -0.99500468634E+01 -0.18356843110E+02  0.32622647506E+02  0.00000000000E+00 0.  1.
<mgrwt>
<rscale>  2 0.26967822E+02</rscale>
<asrwt>0</asrwt>
<pdfrwt beam="1">  1       21 0.23559927E-02 0.26967822E+02</pdfrwt>
<pdfrwt beam="2">  1       21 0.73405800E-02 0.26967822E+02</pdfrwt>
<totfact> 0.93856606E+07</totfact>
</mgrwt>
</event>
<event>
 4    1  0.2812958E+004  0.2321823E+02  0.7546771E-02  0.1687997E+00
         21   -1    0    0  501  502  0.00000000000E+00  0.00000000000E+00  0.54977756021E+02  0.54977756021E+02  0.00000000000E+00 0.  1.
         21   -1    0    0  502  503 -0.00000000000E+00 -0.00000000000E+00 -0.18589961797E+02  0.18589961797E+02  0.00000000000E+00 0. -1.
          2    1    1    2  501    0  0.15207130681E+02 -0.17545068413E+02  0.43479585484E+02  0.49290573166E+02  0.00000000000E+00 0.  1.
         -2    1    1    2    0  503 -0.15207130681E+02  0.17545068413E+02 -0.70917912599E+01  0.24277144651E+02  0.00000000000E+00 0. -1.
<mgrwt>
<rscale>  2 0.23218231E+02</rscale>
<asrwt>0</asrwt>
<pdfrwt beam="1">  1       21 0.84581162E-02 0.23218231E+02</pdfrwt>
<pdfrwt beam="2">  1       21 0.28599941E-02 0.23218231E+02</pdfrwt>
<totfact> 0.52996798E+07</totfact>
</mgrwt>
</event>
<event>
 4    1  0.2812958E+004  0.2648102E+02  0.7546771E-02  0.1640598E+00
         21   -1    0    0  501  502  0.00000000000E+00  0.00000000000E+00  0.70209855073E+02  0.70209855073E+02  0.00000000000E+00 0. -1.
         21   -1    0    0  502  503 -0.00000000000E+00 -0.00000000000E+00 -0.14426622856E+02  0.14426622856E+02  0.00000000000E+00 0.  1.
          2    1    1    2  501    0 -0.25470225482E+02  0.72465358199E+01  0.51365085803E+02  0.57789416912E+02  0.00000000000E+00 0. -1.
         -2    1    1    2    0  503  0.25470225482E+02 -0.72465358199E+01  0.44181464145E+01  0.26847061017E+02  0.00000000000E+00 0.  1.
<mgrwt>
<rscale>  2 0.26481025E+02</rscale>
<asrwt>0</asrwt>
<pdfrwt beam="1">  1       21 0.10801516E-01 0.26481025E+02</pdfrwt>
<pdfrwt beam="2">  1       21 0.22194805E-02 0.26481025E+02</pdfrwt>
<totfact> 0.54135212E+07</totfact>
</mgrwt>
</event>
<event>
 4    1  0.2812958E+004  0.2205120E+02  0.7546771E-02  0.1707368E+00
         21   -1    0    0  501  502  0.00000000000E+00  0.00000000000E+00  0.11161884180E+03  0.11161884180E+03  0.00000000000E+00 0. -1.
         21   -1    0    0  502  503 -0.00000000000E+00 -0.00000000000E+00 -0.27867512970E+02  0.27867512970E+02  0.00000000000E+00 0.  1.
          2    1    1    2  501    0  0.28204533563E+01 -0.21870082776E+02  0.10593601149E+03  0.10820671887E+03  0.00000000000E+00 0. -1.
         -2    1    1    2    0  503 -0.28204533563E+01  0.21870082776E+02 -0.22184682657E+02  0.31279635905E+02  0.00000000000E+00 0.  1.
<mgrwt>
<rscale>  2 0.22051201E+02</rscale>
<asrwt>0</asrwt>
<pdfrwt beam="1">  1       21 0.17172129E-01 0.22051201E+02</pdfrwt>
<pdfrwt beam="2">  1       21 0.42873098E-02 0.22051201E+02</pdfrwt>
<totfact> 0.84843190E+06</totfact>
</mgrwt>
</event>
<event>
 4    1  0.2812958E+004  0.2048304E+02  0.7546771E-02  0.1735889E+00
         21   -1    0    0  503  502  0.00000000000E+00  0.00000000000E+00  0.30334756485E+03  0.30334756485E+03  0.00000000000E+00 0. -1.
         21   -1    0    0  501  503 -0.00000000000E+00 -0.00000000000E+00 -0.13891090291E+01  0.13891090291E+01  0.00000000000E+00 0.  1.
          2    1    1    2  501    0 -0.17095424789E+02  0.11282794231E+02  0.16101443200E+03  0.16231205225E+03  0.00000000000E+00 0. -1.
         -2    1    1    2    0  502  0.17095424789E+02 -0.11282794231E+02  0.14094402382E+03  0.14242462163E+03  0.00000000000E+00 0.  1.
<mgrwt>
<rscale>  2 0.20483042E+02</rscale>
<asrwt>0</asrwt>
<pdfrwt beam="1">  1       21 0.46668803E-01 0.20483042E+02</pdfrwt>
<pdfrwt beam="2">  1       21 0.21370932E-03 0.20483042E+02</pdfrwt>
<totfact> 0.12318199E+08</totfact>
</mgrwt>
</event>
<event>
 4    1  0.2812958E+004  0.3149158E+02  0.7546771E-02  0.1582163E+00
         21   -1    0    0  501  502  0.00000000000E+00  0.00000000000E+00  0.10072184622E+03  0.10072184622E+03  0.00000000000E+00 0. -1.
         21   -1    0    0  502  503 -0.00000000000E+00 -0.00000000000E+00 -0.22606364448E+02  0.22606364448E+02  0.00000000000E+00 0.  1.
          2    1    1    2  501    0  0.14552501286E+02 -0.27927480031E+02  0.85386061889E+02  0.91008235888E+02  0.00000000000E+00 0. -1.
         -2    1    1    2    0  503 -0.14552501286E+02  0.27927480031E+02 -0.72705801160E+01  0.32319974780E+02  0.00000000000E+00 0.  1.
<mgrwt>
<rscale>  2 0.31491577E+02</rscale>
<asrwt>0</asrwt>
<pdfrwt beam="1">  1       21 0.15495668E-01 0.31491577E+02</pdfrwt>
<pdfrwt beam="2">  1       21 0.34779023E-02 0.31491577E+02</pdfrwt>
<totfact> 0.15034176E+07</totfact>
</mgrwt>
</event>
<event>
 4    1  0.2812958E+004  0.2208525E+02  0.7546771E-02  0.1706782E+00
         21   -1    0    0  503  502  0.00000000000E+00  0.00000000000E+00  0.98843345953E+02  0.98843345953E+02  0.00000000000E+00 0.  1.
         21   -1    0    0  501  503 -0.00000000000E+00 -0.00000000000E+00 -0.41965280927E+02  0.41965280927E+02  0.00000000000E+00 0. -1.
          2    1    1    2  501    0  0.88276652640E+01 -0.20244275922E+02 -0.37696475370E+02  0.43689617038E+02  0.00000000000E+00 0. -1.
         -2    1    1    2    0  502 -0.88276652640E+01  0.20244275922E+02  0.94574540395E+02  0.97119009841E+02  0.00000000000E+00 0.  1.
<mgrwt>
<rscale>  2 0.22085253E+02</rscale>
<asrwt>0</asrwt>
<pdfrwt beam="1">  1       21 0.15206669E-01 0.22085253E+02</pdfrwt>
<pdfrwt beam="2">  1       21 0.64561971E-02 0.22085253E+02</pdfrwt>
<totfact> 0.54412016E+06</totfact>
</mgrwt>
</event>
<event>
 4    1  0.2812958E+004  0.3517763E+02  0.7546771E-02  0.1547029E+00
         21   -1    0    0  503  502  0.00000000000E+00  0.00000000000E+00  0.10657868945E+01  0.10657868945E+01  0.00000000000E+00 0. -1.
         21   -1    0    0  501  503 -0.00000000000E+00 -0.00000000000E+00 -0.19385774306E+04  0.19385774306E+04  0.00000000000E+00 0.  1.
          2    1    1    2  501    0  0.35054027891E+02  0.29463180622E+01 -0.15829409358E+04  0.15833317631E+04  0.00000000000E+00 0.  1.
         -2    1    1    2    0  502 -0.35054027891E+02 -0.29463180622E+01 -0.35457070789E+03  0.35631145443E+03  0.00000000000E+00 0. -1.
<mgrwt>
<rscale>  2 0.35177630E+02</rscale>
<asrwt>0</asrwt>
<pdfrwt beam="1">  1       21 0.16396817E-03 0.35177630E+02</pdfrwt>
<pdfrwt beam="2">  1       21 0.29824094E+00 0.35177630E+02</pdfrwt>
<totfact> 0.24155862E+06</totfact>
</mgrwt>
</event>
<event>
 4    1  0.2812958E+004  0.2110658E+02  0.7546771E-02  0.1724178E+00
         21   -1    0    0  503  502  0.00000000000E+00  0.00000000000E+00  0.20836598791E+01  0.20836598791E+01  0.00000000000E+00 0. -1.
         21   -1    0    0  501  503 -0.00000000000E+00 -0.00000000000E+00 -0.28571401054E+03  0.28571401054E+03  0.00000000000E+00 0.  1.
          2    1    1    2  501    0 -0.21022412520E+02 -0.18830339237E+01 -0.21400842303E+03  0.21504672231E+03  0.00000000000E+00 0.  1.
         -2    1    1    2    0  502  0.21022412520E+02  0.18830339237E+01 -0.69621927631E+02  0.72750948118E+02  0.00000000000E+00 0. -1.
<mgrwt>
<rscale>  2 0.21106578E+02</rscale>
<asrwt>0</asrwt>
<pdfrwt beam="1">  1       21 0.32056335E-03 0.21106578E+02</pdfrwt>
<pdfrwt beam="2">  1       21 0.43955961E-01 0.21106578E+02</pdfrwt>
<totfact> 0.77406597E+07</totfact>
</mgrwt>
</event>
<event>
 4    1  0.2812958E+004  0.2960470E+02  0.7546771E-02  0.1602500E+00
         21   -1    0    0  501  502  0.00000000000E+00  0.00000000000E+00  0.24783342721E+01  0.24783342721E+01  0.00000000000E+00 0.  1.
         21   -1    0    0  502  503 -0.00000000000E+00 -0.00000000000E+00 -0.10078593547E+04  0.10078593547E+04  0.00000000000E+00 0. -1.
          2    1    1    2  501    0  0.77492418702E+01  0.28572497066E+02 -0.95686902162E+02  0.10016197674E+03  0.00000000000E+00 0.  1.
         -2    1    1    2    0  503 -0.77492418702E+01 -0.28572497066E+02 -0.90969411823E+03  0.91017571220E+03  0.00000000000E+00 0. -1.
<mgrwt>
<rscale>  2 0.29604701E+02</rscale>
<asrwt>0</asrwt>
<pdfrwt beam="1">  1       21 0.38128151E-03 0.29604701E+02</pdfrwt>
<pdfrwt beam="2">  1       21 0.15505556E+00 0.29604701E+02</pdfrwt>
<totfact> 0.43410914E+06</totfact>
</mgrwt>
</event>
<event>
 4    1  0.2812958E+004  0.2044982E+02  0.7546771E-02  0.1736528E+00
         21   -1    0    0  501  502  0.00000000000E+00  0.00000000000E+00  0.80572379321E+00  0.80572379321E+00  0.00000000000E+00 0. -1.
         21   -1    0    0  502  503 -0.00000000000E+00 -0.00000000000E+00 -0.71752337016E+03  0.71752337016E+03  0.00000000000E+00 0.  1.
          2    1    1    2  501    0  0.19899004320E+02  0.47143262621E+01 -0.16945190553E+03  0.17068140945E+03  0.00000000000E+00 0. -1.
         -2    1    1    2    0  503 -0.19899004320E+02 -0.47143262621E+01 -0.54726574084E+03  0.54764768450E+03  0.00000000000E+00 0.  1.
<mgrwt>
<rscale>  2 0.20449823E+02</rscale>
<asrwt>0</asrwt>
<pdfrwt beam="1">  1       21 0.12395776E-03 0.20449823E+02</pdfrwt>
<pdfrwt beam="2">  1       21 0.11038799E+00 0.20449823E+02</pdfrwt>
<totfact> 0.45829722E+07</totfact>
</mgrwt>
</event>
<event>
 4    1  0.2812958E+004  0.2531829E+02  0.7546771E-02  0.1656472E+00
         21   -1    0    0  501  502  0.00000000000E+00  0.00000000000E+00  0.77141255505E+01  0.77141255505E+01  0.00000000000E+00 0. -1.
         21   -1    0    0  502  503 -0.00000000000E+00 -0.00000000000E+00 -0.16481763837E+03  0.16481763837E+03  0.00000000000E+00 0.  1.
          2    1    1    2  501    0 -0.11678536149E+02 -0.22463917161E+02 -0.17807560174E+02  0.30953593978E+02  0.00000000000E+00 0. -1.
         -2    1    1    2    0  503  0.11678536149E+02  0.22463917161E+02 -0.13929595265E+03  0.14157816994E+03  0.00000000000E+00 0.  1.
<mgrwt>
<rscale>  2 0.25318289E+02</rscale>
<asrwt>0</asrwt>
<pdfrwt beam="1">  1       21 0.11867886E-02 0.25318289E+02</pdfrwt>
<pdfrwt beam="2">  1       21 0.25356558E-01 0.25318289E+02</pdfrwt>
<totfact> 0.31993642E+07</totfact>
</mgrwt>
</event>
<event>
 4    1  0.2812958E+004  0.2487187E+02  0.7546771E-02  0.1662849E+00
         21   -1    0    0  503  502  0.00000000000E+00  0.00000000000E+00  0.30077225828E+00  0.30077225828E+00  0.00000000000E+00 0. -1.
         21   -1    0    0  501  503 -0.00000000000E+00 -0.00000000000E+00 -0.24244961374E+04  0.24244961374E+04  0.00000000000E+00 0.  1.
          2    1    1    2  501    0  0.12655660782E+02 -0.21411310686E+02 -0.16842860633E+04  0.16844696949E+04  0.00000000000E+00 0.  1.
         -2    1    1    2    0  502 -0.12655660782E+02  0.21411310686E+02 -0.73990930178E+03  0.74032721471E+03  0.00000000000E+00 0. -1.
<mgrwt>
<rscale>  2 0.24871871E+02</rscale>
<asrwt>0</asrwt>
<pdfrwt beam="1">  1       21 0.46273803E-04 0.24871871E+02</pdfrwt>
<pdfrwt beam="2">  1       21 0.37299015E+00 0.24871871E+02</pdfrwt>
<totfact> 0.62624849E+06</totfact>
</mgrwt>
</event>
<event>
 4    1  0.2812958E+004  0.2912198E+02  0.7546771E-02  0.1608002E+00
         21   -1    0    0  503  502  0.00000000000E+00  0.00000000000E+00  0.22750002596E+03  0.22750002596E+03  0.00000000000E+00 0. -1.
         21   -1    0    0  501  503 -0.00000000000E+00 -0.00000000000E+00 -0.15495729085E+02  0.15495729085E+02  0.00000000000E+00 0.  1.
          2    1    1    2  501    0 -0.24571376149E+02 -0.15631283397E+02  0.12274333881E+00  0.29122235704E+02  0.00000000000E+00 0.  1.
         -2    1    1    2    0  502  0.24571376149E+02  0.15631283397E+02  0.21188155353E+03  0.21387351934E+03  0.00000000000E+00 0. -1.
<mgrwt>
<rscale>  2 0.29121977E+02</rscale>
<asrwt>0</asrwt>
<pdfrwt beam="1">  1       21 0.35000002E-01 0.29121977E+02</pdfrwt>
<pdfrwt beam="2">  1       21 0.23839585E-02 0.29121977E+02</pdfrwt>
<totfact> 0.62337747E+06</totfact>
</mgrwt>
</event>
<event>
 4    1  0.2812958E+004  0.6004864E+02  0.7546771E-02  0.1397628E+00
         21   -1    0    0  501  502  0.00000000000E+00  0.00000000000E+00  0.29737445754E+03  0.29737445754E+03  0.00000000000E+00 0.  1.
         21   -1    0    0  502  503 -0.00000000000E+00 -0.00000000000E+00 -0.15761190607E+02  0.15761190607E+02  0.00000000000E+00 0. -1.
          2    1    1    2  501    0 -0.51807854104E+02 -0.30360915300E+02  0.21600293060E+03  0.22419434638E+03  0.00000000000E+00 0.  1.
         -2    1    1    2    0  503  0.51807854104E+02  0.30360915300E+02  0.65610336335E+02  0.88941301760E+02  0.00000000000E+00 0. -1.
<mgrwt>
<rscale>  2 0.60048638E+02</rscale>
<asrwt>0</asrwt>
<pdfrwt beam="1">  1       21 0.45749912E-01 0.60048638E+02</pdfrwt>
<pdfrwt beam="2">  1       21 0.24247988E-02 0.60048638E+02</pdfrwt>
<totfact> 0.39031150E+06</totfact>
</mgrwt>
</event>
<event>
 4    1  0.2812958E+004  0.2458155E+02  0.7546771E-02  0.1667086E+00
         21   -1    0    0  503  502  0.00000000000E+00  0.00000000000E+00  0.72486493435E+02  0.72486493435E+02  0.00000000000E+00 0. -1.
         21   -1    0    0  501  503 -0.00000000000E+00 -0.00000000000E+00 -0.12317698301E+02  0.12317698301E+02  0.00000000000E+00 0.  1.
          2    1    1    2  501    0  0.23606610320E+02 -0.68542284400E+01  0.59768579936E+01  0.25297733689E+02  0.00000000000E+00 0.  1.
         -2    1    1    2    0  502 -0.23606610320E+02  0.68542284400E+01  0.54191937140E+02  0.59506458047E+02  0.00000000000E+00 0. -1.
<mgrwt>
<rscale>  2 0.24581548E+02</rscale>
<asrwt>0</asrwt>
<pdfrwt beam="1">  1       21 0.11151768E-01 0.24581548E+02</pdfrwt>
<pdfrwt beam="2">  1       21 0.18950306E-02 0.24581548E+02</pdfrwt>
<totfact> 0.64310842E+07</totfact>
</mgrwt>
</event>
<event>
 4    1  0.2812958E+004  0.2994520E+02  0.7546771E-02  0.1598695E+00
         21   -1    0    0  501  502  0.00000000000E+00  0.00000000000E+00  0.45632812331E+02  0.45632812331E+02  0.00000000000E+00 0. -1.
         21   -1    0    0  502  503 -0.00000000000E+00 -0.00000000000E+00 -0.21458463064E+02  0.21458463064E+02  0.00000000000E+00 0.  1.
          2    1    1    2  501    0 -0.29921721604E+02 -0.11856396051E+01  0.23504798926E+01  0.30037308813E+02  0.00000000000E+00 0.  1.
         -2    1    1    2    0  503  0.29921721604E+02  0.11856396051E+01  0.21823869374E+02  0.37053966582E+02  0.00000000000E+00 0. -1.
<mgrwt>
<rscale>  2 0.29945203E+02</rscale>
<asrwt>0</asrwt>
<pdfrwt beam="1">  1       21 0.70204327E-02 0.29945203E+02</pdfrwt>
<pdfrwt beam="2">  1       21 0.33013020E-02 0.29945203E+02</pdfrwt>
<totfact> 0.61101071E+07</totfact>
</mgrwt>
</event>
<event>
 4    1  0.2812958E+004  0.2791938E+02  0.7546771E-02  0.1622295E+00
         21   -1    0    0  501  502  0.00000000000E+00  0.00000000000E+00  0.15014830288E+01  0.15014830288E+01  0.00000000000E+00 0. -1.
         21   -1    0    0  502  503 -0.00000000000E+00 -0.00000000000E+00 -0.96284593541E+03  0.96284593541E+03  0.00000000000E+00 0.  1.
          2    1    1    2  501    0 -0.26787409131E+02  0.78693527644E+01 -0.15335504635E+03  0.15587579107E+03  0.00000000000E+00 0. -1.
         -2    1    1    2    0  503  0.26787409131E+02 -0.78693527644E+01 -0.80798940603E+03  0.80847162737E+03  0.00000000000E+00 0.  1.
<mgrwt>
<rscale>  2 0.27919384E+02</rscale>
<asrwt>0</asrwt>
<pdfrwt beam="1">  1       21 0.23099735E-03 0.27919384E+02</pdfrwt>
<pdfrwt beam="2">  1       21 0.14813017E+00 0.27919384E+02</pdfrwt>
<totfact> 0.10044062E+07</totfact>
</mgrwt>
</event>
<event>
 4    1  0.2812958E+004  0.2294642E+02  0.7546771E-02  0.1692380E+00
         21   -1    0    0  501  502  0.00000000000E+00  0.00000000000E+00  0.17558136777E+03  0.17558136777E+03  0.00000000000E+00 0. -1.
         21   -1    0    0  502  503 -0.00000000000E+00 -0.00000000000E+00 -0.68672748862E+01  0.68672748862E+01  0.00000000000E+00 0.  1.
          2    1    1    2  501    0 -0.14599727724E+02  0.17702716307E+02  0.15282491035E+03  0.15453799351E+03  0.00000000000E+00 0. -1.
         -2    1    1    2    0  503  0.14599727724E+02 -0.17702716307E+02  0.15889182535E+02  0.27910649149E+02  0.00000000000E+00 0.  1.
<mgrwt>
<rscale>  2 0.22946421E+02</rscale>
<asrwt>0</asrwt>
<pdfrwt beam="1">  1       21 0.27012515E-01 0.22946421E+02</pdfrwt>
<pdfrwt beam="2">  1       21 0.10565040E-02 0.22946421E+02</pdfrwt>
<totfact> 0.33292353E+07</totfact>
</mgrwt>
</event>
<event>
 4    1  0.2812958E+004  0.2926088E+02  0.7546771E-02  0.1606405E+00
         21   -1    0    0  501  502  0.00000000000E+00  0.00000000000E+00  0.88714513047E+03  0.88714513047E+03  0.00000000000E+00 0.  1.
         21   -1    0    0  502  503 -0.00000000000E+00 -0.00000000000E+00 -0.28651394536E+01  0.28651394536E+01  0.00000000000E+00 0. -1.
          2    1    1    2  501    0 -0.44321638951E+01 -0.28923261502E+02  0.80452604423E+03  0.80505798237E+03  0.00000000000E+00 0.  1.
         -2    1    1    2    0  503  0.44321638951E+01  0.28923261502E+02  0.79753946791E+02  0.84952287558E+02  0.00000000000E+00 0. -1.
<mgrwt>
<rscale>  2 0.29260881E+02</rscale>
<asrwt>0</asrwt>
<pdfrwt beam="1">  1       21 0.13648365E+00 0.29260881E+02</pdfrwt>
<pdfrwt beam="2">  1       21 0.44079139E-03 0.29260881E+02</pdfrwt>
<totfact> 0.47461072E+06</totfact>
</mgrwt>
</event>
<event>
 4    1  0.2812958E+004  0.2097174E+02  0.7546771E-02  0.1726667E+00
         21   -1    0    0  503  502  0.00000000000E+00  0.00000000000E+00  0.62918195149E+03  0.62918195149E+03  0.00000000000E+00 0. -1.
         21   -1    0    0  501  503 -0.00000000000E+00 -0.00000000000E+00 -0.12020164831E+01  0.12020164831E+01  0.00000000000E+00 0.  1.
          2    1    1    2  501    0 -0.14841881040E+02  0.14816633421E+02  0.11009797570E+03  0.11207755490E+03  0.00000000000E+00 0.  1.
         -2    1    1    2    0  502  0.14841881040E+02 -0.14816633421E+02  0.51788195931E+03  0.51830641307E+03  0.00000000000E+00 0. -1.
<mgrwt>
<rscale>  2 0.20971744E+02</rscale>
<asrwt>0</asrwt>
<pdfrwt beam="1">  1       21 0.96796960E-01 0.20971744E+02</pdfrwt>
<pdfrwt beam="2">  1       21 0.18492612E-03 0.20971744E+02</pdfrwt>
<totfact> 0.34686829E+07</totfact>
</mgrwt>
</event>
<event>
 4    1  0.2812958E+004  0.2317004E+02  0.7546771E-02  0.1688769E+00
         21   -1    0    0  503  502  0.00000000000E+00  0.00000000000E+00  0.49287665431E+02  0.49287665431E+02  0.00000000000E+00 0. -1.
         21   -1    0    0  501  503 -0.00000000000E+00 -0.00000000000E+00 -0.11022844291E+02  0.11022844291E+02  0.00000000000E+00 0.  1.
          2    1    1    2  501    0 -0.22977580037E+02  0.29802156376E+01  0.15849421237E+02  0.28072317738E+02  0.00000000000E+00 0.  1.
         -2    1    1    2    0  502  0.22977580037E+02 -0.29802156376E+01  0.22415399903E+02  0.32238191984E+02  0.00000000000E+00 0. -1.
<mgrwt>
<rscale>  2 0.23170043E+02</rscale>
<asrwt>0</asrwt>
<pdfrwt beam="1">  1       21 0.75827177E-02 0.23170043E+02</pdfrwt>
<pdfrwt beam="2">  1       21 0.16958222E-02 0.23170043E+02</pdfrwt>
<totfact> 0.14159376E+08</totfact>
</mgrwt>
</event>
<event>
 4    1  0.2812958E+004  0.2249938E+02  0.7546771E-02  0.1699756E+00
         21   -1    0    0  501  502  0.00000000000E+00  0.00000000000E+00  0.14599612378E+03  0.14599612378E+03  0.00000000000E+00 0.  1.
         21   -1    0    0  502  503 -0.00000000000E+00 -0.00000000000E+00 -0.34806473442E+01  0.34806473442E+01  0.00000000000E+00 0. -1.
          2    1    1    2  501    0 -0.85476694665E+01 -0.20812481083E+02  0.66641037110E+02  0.70336689212E+02  0.00000000000E+00 0. -1.
         -2    1    1    2    0  503  0.85476694665E+01  0.20812481083E+02  0.75874439321E+02  0.79140081908E+02  0.00000000000E+00 0.  1.
<mgrwt>
<rscale>  2 0.22499378E+02</rscale>
<asrwt>0</asrwt>
<pdfrwt beam="1">  1       21 0.22460937E-01 0.22499378E+02</pdfrwt>
<pdfrwt beam="2">  1       21 0.53548432E-03 0.22499378E+02</pdfrwt>
<totfact> 0.12659599E+08</totfact>
</mgrwt>
</event>
<event>
 4    1  0.2812958E+004  0.3598795E+02  0.7546771E-02  0.1539998E+00
         21   -1    0    0  503  502  0.00000000000E+00  0.00000000000E+00  0.76021531825E+03  0.76021531825E+03  0.00000000000E+00 0. -1.
         21   -1    0    0  501  503 -0.00000000000E+00 -0.00000000000E+00 -0.24320255848E+01  0.24320255848E+01  0.00000000000E+00 0.  1.
          2    1    1    2  501    0 -0.35669930617E+02 -0.47737485222E+01  0.17020694941E+03  0.17396993491E+03  0.00000000000E+00 0.  1.
         -2    1    1    2    0  502  0.35669930617E+02  0.47737485222E+01  0.58757634326E+03  0.58867740893E+03  0.00000000000E+00 0. -1.
<mgrwt>
<rscale>  2 0.35987951E+02</rscale>
<asrwt>0</asrwt>
<pdfrwt beam="1">  1       21 0.11695601E+00 0.35987951E+02</pdfrwt>
<pdfrwt beam="2">  1       21 0.37415839E-03 0.35987951E+02</pdfrwt>
<totfact> 0.88667406E+06</totfact>
</mgrwt>
</event>
<event>
 4    1  0.2812958E+004  0.2435423E+02  0.7546771E-02  0.1670454E+00
         21   -1    0    0  503  502  0.00000000000E+00  0.00000000000E+00  0.15789156647E+02  0.15789156647E+02  0.00000000000E+00 0.  1.
         21   -1    0    0  501  503 -0.00000000000E+00 -0.00000000000E+00 -0.10711778511E+03  0.10711778511E+03  0.00000000000E+00 0. -1.
          2    1    1    2  501    0 -0.22198441681E+02 -0.10017872572E+02 -0.95183229715E+02  0.98249558792E+02  0.00000000000E+00 0. -1.
         -2    1    1    2    0  502  0.22198441681E+02  0.10017872572E+02  0.38546012508E+01  0.24657382966E+02  0.00000000000E+00 0.  1.
<mgrwt>
<rscale>  2 0.24354231E+02</rscale>
<asrwt>0</asrwt>
<pdfrwt beam="1">  1       21 0.24291010E-02 0.24354231E+02</pdfrwt>
<pdfrwt beam="2">  1       21 0.16479659E-01 0.24354231E+02</pdfrwt>
<totfact> 0.22581472E+07</totfact>
</mgrwt>
</event>
<event>
 4    1  0.2812958E+004  0.2075616E+02  0.7546771E-02  0.1730696E+00
         21   -1    0    0  501  502  0.00000000000E+00  0.00000000000E+00  0.54571430731E+03  0.54571430731E+03  0.00000000000E+00 0. -1.
         21   -1    0    0  502  503 -0.00000000000E+00 -0.00000000000E+00 -0.79003743143E+00  0.79003743143E+00  0.00000000000E+00 0.  1.
          2    1    1    2  501    0 -0.85536271279E+01 -0.18911729583E+02  0.27986782001E+03  0.28063644584E+03  0.00000000000E+00 0.  1.
         -2    1    1    2    0  503  0.85536271279E+01  0.18911729583E+02  0.26505644986E+03  0.26586789890E+03  0.00000000000E+00 0. -1.
<mgrwt>
<rscale>  2 0.20756157E+02</rscale>
<asrwt>0</asrwt>
<pdfrwt beam="1">  1       21 0.83955746E-01 0.20756157E+02</pdfrwt>
<pdfrwt beam="2">  1       21 0.12154466E-03 0.20756157E+02</pdfrwt>
<totfact> 0.85436884E+07</totfact>
</mgrwt>
</event>
<event>
 4    1  0.2812958E+004  0.2846407E+02  0.7546771E-02  0.1615714E+00
         21   -1    0    0  501  502  0.00000000000E+00  0.00000000000E+00  0.27518605650E+01  0.27518605650E+01  0.00000000000E+00 0. -1.
         21   -1    0    0  502  503 -0.00000000000E+00 -0.00000000000E+00 -0.84170172651E+03  0.84170172651E+03  0.00000000000E+00 0.  1.
          2    1    1    2  501    0  0.24972181733E+02  0.13659914112E+02 -0.79010219886E+02  0.83981057153E+02  0.00000000000E+00 0. -1.
         -2    1    1    2    0  503 -0.24972181733E+02 -0.13659914112E+02 -0.75993964606E+03  0.76047252993E+03  0.00000000000E+00 0.  1.
<mgrwt>
<rscale>  2 0.28464067E+02</rscale>
<asrwt>0</asrwt>
<pdfrwt beam="1">  1       21 0.42336291E-03 0.28464067E+02</pdfrwt>
<pdfrwt beam="2">  1       21 0.12949265E+00 0.28464067E+02</pdfrwt>
<totfact> 0.56794096E+06</totfact>
</mgrwt>
</event>
<event>
 4    1  0.2812958E+004  0.3967312E+02  0.7546771E-02  0.1510631E+00
         21   -1    0    0  501  502  0.00000000000E+00  0.00000000000E+00  0.90478848865E+02  0.90478848865E+02  0.00000000000E+00 0.  1.
         21   -1    0    0  502  503 -0.00000000000E+00 -0.00000000000E+00 -0.18928692561E+02  0.18928692561E+02  0.00000000000E+00 0. -1.
          2    1    1    2  501    0 -0.38701811770E+02 -0.87250192159E+01  0.51342123167E+02  0.64884280114E+02  0.00000000000E+00 0. -1.
         -2    1    1    2    0  503  0.38701811770E+02  0.87250192159E+01  0.20208033137E+02  0.44523261312E+02  0.00000000000E+00 0.  1.
<mgrwt>
<rscale>  2 0.39673117E+02</rscale>
<asrwt>0</asrwt>
<pdfrwt beam="1">  1       21 0.13919823E-01 0.39673117E+02</pdfrwt>
<pdfrwt beam="2">  1       21 0.29121066E-02 0.39673117E+02</pdfrwt>
<totfact> 0.24934570E+07</totfact>
</mgrwt>
</event>
<event>
 4    1  0.2812958E+004  0.2255831E+02  0.7546771E-02  0.1698771E+00
         21   -1    0    0  503  502  0.00000000000E+00  0.00000000000E+00  0.39327179555E+02  0.39327179555E+02  0.00000000000E+00 0. -1.
         21   -1    0    0  501  503 -0.00000000000E+00 -0.00000000000E+00 -0.52238950216E+02  0.52238950216E+02  0.00000000000E+00 0.  1.
          2    1    1    2  501    0  0.18659950343E+02  0.12676109907E+02 -0.46165931509E+02  0.51382591812E+02  0.00000000000E+00 0.  1.
         -2    1    1    2    0  502 -0.18659950343E+02 -0.12676109907E+02  0.33254160848E+02  0.40183537959E+02  0.00000000000E+00 0. -1.
<mgrwt>
<rscale>  2 0.22558314E+02</rscale>
<asrwt>0</asrwt>
<pdfrwt beam="1">  1       21 0.60503353E-02 0.22558314E+02</pdfrwt>
<pdfrwt beam="2">  1       21 0.80367615E-02 0.22558314E+02</pdfrwt>
<totfact> 0.17526203E+07</totfact>
</mgrwt>
</event>
<event>
 4    1  0.2812958E+004  0.3555111E+02  0.7546771E-02  0.1543760E+00
         21   -1    0    0  503  502  0.00000000000E+00  0.00000000000E+00  0.93616907138E+01  0.93616907138E+01  0.00000000000E+00 0. -1.
         21   -1    0    0  501  503 -0.00000000000E+00 -0.00000000000E+00 -0.20734390613E+03  0.20734390613E+03  0.00000000000E+00 0.  1.
          2    1    1    2  501    0  0.20358026875E+02  0.29145013687E+02 -0.16299089502E+03  0.16682299883E+03  0.00000000000E+00 0.  1.
         -2    1    1    2    0  502 -0.20358026875E+02 -0.29145013687E+02 -0.34991320399E+02  0.49882598011E+02  0.00000000000E+00 0. -1.
<mgrwt>
<rscale>  2 0.35551105E+02</rscale>
<asrwt>0</asrwt>
<pdfrwt beam="1">  1       21 0.14402602E-02 0.35551105E+02</pdfrwt>
<pdfrwt beam="2">  1       21 0.31899061E-01 0.35551105E+02</pdfrwt>
<totfact> 0.16669247E+07</totfact>
</mgrwt>
</event>
<event>
 4    1  0.2812958E+004  0.2635686E+02  0.7546771E-02  0.1642244E+00
         21   -1    0    0  503  502  0.00000000000E+00  0.00000000000E+00  0.75220070528E+03  0.75220070528E+03  0.00000000000E+00 0.  1.
         21   -1    0    0  501  503 -0.00000000000E+00 -0.00000000000E+00 -0.10411162139E+01  0.10411162139E+01  0.00000000000E+00 0. -1.
          2    1    1    2  501    0 -0.83366857000E+01  0.25003670578E+02  0.24901196830E+03  0.25040296370E+03  0.00000000000E+00 0. -1.
         -2    1    1    2    0  502  0.83366857000E+01 -0.25003670578E+02  0.50214762076E+03  0.50283885780E+03  0.00000000000E+00 0.  1.
<mgrwt>
<rscale>  2 0.26356856E+02</rscale>
<asrwt>0</asrwt>
<pdfrwt beam="1">  1       21 0.11572275E+00 0.26356856E+02</pdfrwt>
<pdfrwt beam="2">  1       21 0.16017233E-03 0.26356856E+02</pdfrwt>
<totfact> 0.30067767E+07</totfact>
</mgrwt>
</event>
<event>
 4    1  0.2812958E+004  0.2364545E+02  0.7546771E-02  0.1681256E+00
         21   -1    0    0  501  502  0.00000000000E+00  0.00000000000E+00  0.15524449313E+02  0.15524449313E+02  0.00000000000E+00 0. -1.
         21   -1    0    0  502  503 -0.00000000000E+00 -0.00000000000E+00 -0.50364826666E+02  0.50364826666E+02  0.00000000000E+00 0.  1.
          2    1    1    2  501    0 -0.13422415026E+02  0.19466540625E+02  0.16511476424E+00  0.23646029094E+02  0.00000000000E+00 0. -1.
         -2    1    1    2    0  503  0.13422415026E+02 -0.19466540625E+02 -0.35005492117E+02  0.42243246885E+02  0.00000000000E+00 0.  1.
<mgrwt>
<rscale>  2 0.23645453E+02</rscale>
<asrwt>0</asrwt>
<pdfrwt beam="1">  1       21 0.23883768E-02 0.23645453E+02</pdfrwt>
<pdfrwt beam="2">  1       21 0.77484349E-02 0.23645453E+02</pdfrwt>
<totfact> 0.81262590E+07</totfact>
</mgrwt>
</event>
<event>
 4    1  0.2812958E+004  0.2874055E+02  0.7546771E-02  0.1612443E+00
         21   -1    0    0  503  502  0.00000000000E+00  0.00000000000E+00  0.45529188861E+01  0.45529188861E+01  0.00000000000E+00 0.  1.
         21   -1    0    0  501  503 -0.00000000000E+00 -0.00000000000E+00 -0.21714220459E+03  0.21714220459E+03  0.00000000000E+00 0. -1.
          2    1    1    2  501    0 -0.26862891288E+02  0.10217829425E+02 -0.15125038784E+03  0.15395680819E+03  0.00000000000E+00 0. -1.
         -2    1    1    2    0  502  0.26862891288E+02 -0.10217829425E+02 -0.61338897861E+02  0.67738315282E+02  0.00000000000E+00 0.  1.
<mgrwt>
<rscale>  2 0.28740546E+02</rscale>
<asrwt>0</asrwt>
<pdfrwt beam="1">  1       21 0.70044907E-03 0.28740546E+02</pdfrwt>
<pdfrwt beam="2">  1       21 0.33406492E-01 0.28740546E+02</pdfrwt>
<totfact> 0.43977432E+07</totfact>
</mgrwt>
</event>
<event>
 4    1  0.2812958E+004  0.2724798E+02  0.7546771E-02  0.1630666E+00
         21   -1    0    0  501  502  0.00000000000E+00  0.00000000000E+00  0.12032355156E+02  0.12032355156E+02  0.00000000000E+00 0.  1.
         21   -1    0    0  502  503 -0.00000000000E+00 -0.00000000000E+00 -0.70787024216E+02  0.70787024216E+02  0.00000000000E+00 0. -1.
          2    1    1    2  501    0  0.59120866243E+00  0.27241565958E+02 -0.14544488568E+02  0.30886802865E+02  0.00000000000E+00 0.  1.
         -2    1    1    2    0  503 -0.59120866243E+00 -0.27241565958E+02 -0.44210180492E+02  0.51932576507E+02  0.00000000000E+00 0. -1.
<mgrwt>
<rscale>  2 0.27247981E+02</rscale>
<asrwt>0</asrwt>
<pdfrwt beam="1">  1       21 0.18511315E-02 0.27247981E+02</pdfrwt>
<pdfrwt beam="2">  1       21 0.10890312E-01 0.27247981E+02</pdfrwt>
<totfact> 0.71154758E+07</totfact>
</mgrwt>
</event>
<event>
 4    1  0.2812958E+004  0.2634044E+02  0.7546771E-02  0.1642463E+00
         21   -1    0    0  503  502  0.00000000000E+00  0.00000000000E+00  0.22398505325E+02  0.22398505325E+02  0.00000000000E+00 0. -1.
         21   -1    0    0  501  503 -0.00000000000E+00 -0.00000000000E+00 -0.33321222215E+02  0.33321222215E+02  0.00000000000E+00 0.  1.
          2    1    1    2  501    0 -0.21356414616E+02 -0.15418250653E+02 -0.12852286284E+02  0.29308704529E+02  0.00000000000E+00 0. -1.
         -2    1    1    2    0  502  0.21356414616E+02  0.15418250653E+02  0.19295693941E+01  0.26411023011E+02  0.00000000000E+00 0.  1.
<mgrwt>
<rscale>  2 0.26340442E+02</rscale>
<asrwt>0</asrwt>
<pdfrwt beam="1">  1       21 0.34459239E-02 0.26340442E+02</pdfrwt>
<pdfrwt beam="2">  1       21 0.51263419E-02 0.26340442E+02</pdfrwt>
<totfact> 0.92039361E+07</totfact>
</mgrwt>
</event>
<event>
 4    1  0.2812958E+004  0.2349362E+02  0.7546771E-02  0.1683631E+00
         21   -1    0    0  501  502  0.00000000000E+00  0.00000000000E+00  0.16941310869E+02  0.16941310869E+02  0.00000000000E+00 0. -1.
         21   -1    0    0  502  503 -0.00000000000E+00 -0.00000000000E+00 -0.43505048782E+02  0.43505048782E+02  0.00000000000E+00 0.  1.
          2    1    1    2  501    0  0.14231468746E+02  0.18692658757E+02  0.18634817968E+01  0.23567408819E+02  0.00000000000E+00 0. -1.
         -2    1    1    2    0  503 -0.14231468746E+02 -0.18692658757E+02 -0.28427219710E+02  0.36878950832E+02  0.00000000000E+00 0.  1.
<mgrwt>
<rscale>  2 0.23493620E+02</rscale>
<asrwt>0</asrwt>
<pdfrwt beam="1">  1       21 0.26063556E-02 0.23493620E+02</pdfrwt>
<pdfrwt beam="2">  1       21 0.66930843E-02 0.23493620E+02</pdfrwt>
<totfact> 0.89876253E+07</totfact>
</mgrwt>
</event>
<event>
 4    1  0.2812958E+004  0.2157839E+02  0.7546771E-02  0.1715647E+00
         21   -1    0    0  501  502  0.00000000000E+00  0.00000000000E+00  0.11253643242E+02  0.11253643242E+02  0.00000000000E+00 0.  1.
         21   -1    0    0  502  503 -0.00000000000E+00 -0.00000000000E+00 -0.42069886508E+02  0.42069886508E+02  0.00000000000E+00 0. -1.
          2    1    1    2  501    0  0.11823277360E+02  0.18050952257E+02 -0.18833101593E+02  0.28641097753E+02  0.00000000000E+00 0.  1.
         -2    1    1    2    0  503 -0.11823277360E+02 -0.18050952257E+02 -0.11983141673E+02  0.24682431997E+02  0.00000000000E+00 0. -1.
<mgrwt>
<rscale>  2 0.21578387E+02</rscale>
<asrwt>0</asrwt>
<pdfrwt beam="1">  1       21 0.17313297E-02 0.21578387E+02</pdfrwt>
<pdfrwt beam="2">  1       21 0.64722902E-02 0.21578387E+02</pdfrwt>
<totfact> 0.17342612E+08</totfact>
</mgrwt>
</event>
<event>
 4    1  0.2812958E+004  0.3795134E+02  0.7546771E-02  0.1523852E+00
         21   -1    0    0  501  502  0.00000000000E+00  0.00000000000E+00  0.23089545862E+03  0.23089545862E+03  0.00000000000E+00 0. -1.
         21   -1    0    0  502  503 -0.00000000000E+00 -0.00000000000E+00 -0.73478143659E+01  0.73478143659E+01  0.00000000000E+00 0.  1.
          2    1    1    2  501    0  0.18736763390E+02 -0.33003604894E+02  0.15807105824E+03  0.16256310680E+03  0.00000000000E+00 0. -1.
         -2    1    1    2    0  503 -0.18736763390E+02  0.33003604894E+02  0.65476586012E+02  0.75680166187E+02  0.00000000000E+00 0.  1.
<mgrwt>
<rscale>  2 0.37951340E+02</rscale>
<asrwt>0</asrwt>
<pdfrwt beam="1">  1       21 0.35522373E-01 0.37951340E+02</pdfrwt>
<pdfrwt beam="2">  1       21 0.11304332E-02 0.37951340E+02</pdfrwt>
<totfact> 0.19956817E+07</totfact>
</mgrwt>
</event>
<event>
 4    1  0.2812958E+004  0.2376813E+02  0.7546771E-02  0.1679353E+00
         21   -1    0    0  501  502  0.00000000000E+00  0.00000000000E+00  0.10768062140E+01  0.10768062140E+01  0.00000000000E+00 0.  1.
         21   -1    0    0  502  503 -0.00000000000E+00 -0.00000000000E+00 -0.53116926459E+03  0.53116926459E+03  0.00000000000E+00 0. -1.
          2    1    1    2  501    0  0.20769291620E+02  0.11556848533E+02 -0.29457528936E+03  0.29553261296E+03  0.00000000000E+00 0.  1.
         -2    1    1    2    0  503 -0.20769291620E+02 -0.11556848533E+02 -0.23551716902E+03  0.23671345784E+03  0.00000000000E+00 0. -1.
<mgrwt>
<rscale>  2 0.23768135E+02</rscale>
<asrwt>0</asrwt>
<pdfrwt beam="1">  1       21 0.16566271E-03 0.23768135E+02</pdfrwt>
<pdfrwt beam="2">  1       21 0.81718244E-01 0.23768135E+02</pdfrwt>
<totfact> 0.59970423E+07</totfact>
</mgrwt>
</event>
<event>
 4    1  0.2812958E+004  0.2704622E+02  0.7546771E-02  0.1633239E+00
         21   -1    0    0  503  502  0.00000000000E+00  0.00000000000E+00  0.97667163398E+01  0.97667163398E+01  0.00000000000E+00 0. -1.
         21   -1    0    0  501  503 -0.00000000000E+00 -0.00000000000E+00 -0.81040771214E+02  0.81040771214E+02  0.00000000000E+00 0.  1.
          2    1    1    2  501    0  0.25248872540E+02  0.96949670720E+01 -0.48138370826E+02  0.55215946038E+02  0.00000000000E+00 0.  1.
         -2    1    1    2    0  502 -0.25248872540E+02 -0.96949670720E+01 -0.23135684048E+02  0.35591541515E+02  0.00000000000E+00 0. -1.
<mgrwt>
<rscale>  2 0.27046219E+02</rscale>
<asrwt>0</asrwt>
<pdfrwt beam="1">  1       21 0.15025718E-02 0.27046219E+02</pdfrwt>
<pdfrwt beam="2">  1       21 0.12467811E-01 0.27046219E+02</pdfrwt>
<totfact> 0.77906619E+07</totfact>
</mgrwt>
</event>
<event>
 4    1  0.2812958E+004  0.2479605E+02  0.7546771E-02  0.1663949E+00
         21   -1    0    0  503  502  0.00000000000E+00  0.00000000000E+00  0.32017374386E+00  0.32017374386E+00  0.00000000000E+00 0.  1.
         21   -1    0    0  501  503 -0.00000000000E+00 -0.00000000000E+00 -0.19287008564E+04  0.19287008564E+04  0.00000000000E+00 0. -1.
          2    1    1    2  501    0  0.23146050950E+02 -0.88940573838E+01 -0.90070411761E+03  0.90104536591E+03  0.00000000000E+00 0.  1.
         -2    1    1    2    0  502 -0.23146050950E+02  0.88940573838E+01 -0.10276765651E+04  0.10279756643E+04  0.00000000000E+00 0. -1.
<mgrwt>
<rscale>  2 0.24796047E+02</rscale>
<asrwt>0</asrwt>
<pdfrwt beam="1">  1       21 0.49256790E-04 0.24796047E+02</pdfrwt>
<pdfrwt beam="2">  1       21 0.29672748E+00 0.24796047E+02</pdfrwt>
<totfact> 0.13771594E+07</totfact>
</mgrwt>
</event>
<event>
 4    1  0.2812958E+004  0.2189301E+02  0.7546771E-02  0.1710109E+00
         21   -1    0    0  503  502  0.00000000000E+00  0.00000000000E+00  0.61513015455E+01  0.61513015455E+01  0.00000000000E+00 0.  1.
         21   -1    0    0  501  503 -0.00000000000E+00 -0.00000000000E+00 -0.82881051032E+02  0.82881051032E+02  0.00000000000E+00 0. -1.
          2    1    1    2  501    0  0.21378665390E+02  0.47176774790E+01 -0.49257107981E+02  0.53903306961E+02  0.00000000000E+00 0.  1.
         -2    1    1    2    0  502 -0.21378665390E+02 -0.47176774790E+01 -0.27472641505E+02  0.35129045616E+02  0.00000000000E+00 0. -1.
<mgrwt>
<rscale>  2 0.21893008E+02</rscale>
<asrwt>0</asrwt>
<pdfrwt beam="1">  1       21 0.94635415E-03 0.21893008E+02</pdfrwt>
<pdfrwt beam="2">  1       21 0.12750930E-01 0.21893008E+02</pdfrwt>
<totfact> 0.14248588E+08</totfact>
</mgrwt>
</event>
<event>
 4    1  0.2812958E+004  0.2452088E+02  0.7546771E-02  0.1667981E+00
         21   -1    0    0  503  502  0.00000000000E+00  0.00000000000E+00  0.35117218295E+02  0.35117218295E+02  0.00000000000E+00 0. -1.
         21   -1    0    0  501  503 -0.00000000000E+00 -0.00000000000E+00 -0.18519475626E+02  0.18519475626E+02  0.00000000000E+00 0.  1.
          2    1    1    2  501    0 -0.14343343668E+02 -0.19888233417E+02  0.93161049529E+00  0.24538566261E+02  0.00000000000E+00 0.  1.
         -2    1    1    2    0  502  0.14343343668E+02  0.19888233417E+02  0.15666132173E+02  0.29098127660E+02  0.00000000000E+00 0. -1.
<mgrwt>
<rscale>  2 0.24520876E+02</rscale>
<asrwt>0</asrwt>
<pdfrwt beam="1">  1       21 0.54026490E-02 0.24520876E+02</pdfrwt>
<pdfrwt beam="2">  1       21 0.28491501E-02 0.24520876E+02</pdfrwt>
<totfact> 0.11181940E+08</totfact>
</mgrwt>
</event>
<event>
 4    1  0.2812958E+004  0.3547243E+02  0.7546771E-02  0.1544445E+00
         21   -1    0    0  501  502  0.00000000000E+00  0.00000000000E+00  0.36473663400E+01  0.36473663400E+01  0.00000000000E+00 0.  1.
         21   -1    0    0  502  503 -0.00000000000E+00 -0.00000000000E+00 -0.62500461859E+03  0.62500461859E+03  0.00000000000E+00 0. -1.
          2    1    1    2  501    0 -0.35436192143E+02  0.16029607974E+01 -0.10028551011E+03  0.10637422966E+03  0.00000000000E+00 0.  1.
         -2    1    1    2    0  503  0.35436192143E+02 -0.16029607974E+01 -0.52107174214E+03  0.52227775527E+03  0.00000000000E+00 0. -1.
<mgrwt>
<rscale>  2 0.35472429E+02</rscale>
<asrwt>0</asrwt>
<pdfrwt beam="1">  1       21 0.56113341E-03 0.35472429E+02</pdfrwt>
<pdfrwt beam="2">  1       21 0.96154535E-01 0.35472429E+02</pdfrwt>
<totfact> 0.75223675E+06</totfact>
</mgrwt>
</event>
<event>
 4    1  0.2812958E+004  0.2070276E+02  0.7546771E-02  0.1731704E+00
         21   -1    0    0  501  502  0.00000000000E+00  0.00000000000E+00  0.79159093695E+02  0.79159093695E+02  0.00000000000E+00 0. -1.
         21   -1    0    0  502  503 -0.00000000000E+00 -0.00000000000E+00 -0.65166503423E+01  0.65166503423E+01  0.00000000000E+00 0.  1.
          2    1    1    2  501    0  0.20325372771E+02  0.39348807825E+01  0.53938677337E+02  0.57775297298E+02  0.00000000000E+00 0. -1.
         -2    1    1    2    0  503 -0.20325372771E+02 -0.39348807825E+01  0.18703766017E+02  0.27900446740E+02  0.00000000000E+00 0.  1.
<mgrwt>
<rscale>  2 0.20702755E+02</rscale>
<asrwt>0</asrwt>
<pdfrwt beam="1">  1       21 0.12178321E-01 0.20702755E+02</pdfrwt>
<pdfrwt beam="2">  1       21 0.10025616E-02 0.20702755E+02</pdfrwt>
<totfact> 0.13879457E+08</totfact>
</mgrwt>
</event>
<event>
 4    1  0.2812958E+004  0.2374737E+02  0.7546771E-02  0.1679674E+00
         21   -1    0    0  503  502  0.00000000000E+00  0.00000000000E+00  0.96491560062E+02  0.96491560062E+02  0.00000000000E+00 0. -1.
         21   -1    0    0  501  503 -0.00000000000E+00 -0.00000000000E+00 -0.83317900807E+01  0.83317900807E+01  0.00000000000E+00 0.  1.
          2    1    1    2  501    0  0.12090783712E+02  0.20438946483E+02  0.15442804584E+02  0.28326980028E+02  0.00000000000E+00 0.  1.
         -2    1    1    2    0  502 -0.12090783712E+02 -0.20438946483E+02  0.72716965397E+02  0.76496370114E+02  0.00000000000E+00 0. -1.
<mgrwt>
<rscale>  2 0.23747370E+02</rscale>
<asrwt>0</asrwt>
<pdfrwt beam="1">  1       21 0.14844855E-01 0.23747370E+02</pdfrwt>
<pdfrwt beam="2">  1       21 0.12818139E-02 0.23747370E+02</pdfrwt>
<totfact> 0.71399096E+07</totfact>
</mgrwt>
</event>
<event>
 4    1  0.2812958E+004  0.2781660E+02  0.7546771E-02  0.1623558E+00
         21   -1    0    0  503  502  0.00000000000E+00  0.00000000000E+00  0.12836582858E+04  0.12836582858E+04  0.00000000000E+00 0. -1.
         21   -1    0    0  501  503 -0.00000000000E+00 -0.00000000000E+00 -0.12099775440E+01  0.12099775440E+01  0.00000000000E+00 0.  1.
          2    1    1    2  501    0 -0.59357243761E+01 -0.27175916249E+02  0.18612603968E+03  0.18819316112E+03  0.00000000000E+00 0.  1.
         -2    1    1    2    0  502  0.59357243761E+01  0.27175916249E+02  0.10963222685E+04  0.10966751022E+04  0.00000000000E+00 0. -1.
<mgrwt>
<rscale>  2 0.27816600E+02</rscale>
<asrwt>0</asrwt>
<pdfrwt beam="1">  1       21 0.19748480E+00 0.27816600E+02</pdfrwt>
<pdfrwt beam="2">  1       21 0.18615142E-03 0.27816600E+02</pdfrwt>
<totfact> 0.67163101E+06</totfact>
</mgrwt>
</event>
<event>
 4    1  0.2812958E+004  0.2300433E+02  0.7546771E-02  0.1691440E+00
         21   -1    0    0  501  502  0.00000000000E+00  0.00000000000E+00  0.24250142385E+03  0.24250142385E+03  0.00000000000E+00 0. -1.
         21   -1    0    0  502  503 -0.00000000000E+00 -0.00000000000E+00 -0.23184343584E+01  0.23184343584E+01  0.00000000000E+00 0.  1.
          2    1    1    2  501    0  0.37797806111E+01  0.22691679801E+02  0.14975897170E+03  0.15151550639E+03  0.00000000000E+00 0.  1.
         -2    1    1    2    0  503 -0.37797806111E+01 -0.22691679801E+02  0.90424017797E+02  0.93304351818E+02  0.00000000000E+00 0. -1.
<mgrwt>
<rscale>  2 0.23004327E+02</rscale>
<asrwt>0</asrwt>
<pdfrwt beam="1">  1       21 0.37307891E-01 0.23004327E+02</pdfrwt>
<pdfrwt beam="2">  1       21 0.35668240E-03 0.23004327E+02</pdfrwt>
<totfact> 0.92274065E+07</totfact>
</mgrwt>
</event>
<event>
 4    1  0.2812958E+004  0.3028902E+02  0.7546771E-02  0.1594916E+00
         21   -1    0    0  501  502  0.00000000000E+00  0.00000000000E+00  0.16866944843E+03  0.16866944843E+03  0.00000000000E+00 0.  1.
         21   -1    0    0  502  503 -0.00000000000E+00 -0.00000000000E+00 -0.13542032311E+02  0.13542032311E+02  0.00000000000E+00 0. -1.
          2    1    1    2  501    0 -0.30213735486E+02 -0.21341743547E+01  0.14803668511E+03  0.15110355605E+03  0.00000000000E+00 0.  1.
         -2    1    1    2    0  503  0.30213735486E+02  0.21341743547E+01  0.70907310023E+01  0.31107924687E+02  0.00000000000E+00 0. -1.
<mgrwt>
<rscale>  2 0.30289016E+02</rscale>
<asrwt>0</asrwt>
<pdfrwt beam="1">  1       21 0.25949145E-01 0.30289016E+02</pdfrwt>
<pdfrwt beam="2">  1       21 0.20833897E-02 0.30289016E+02</pdfrwt>
<totfact> 0.13409491E+07</totfact>
</mgrwt>
</event>
<event>
 4    1  0.2812958E+004  0.2146656E+02  0.7546771E-02  0.1717644E+00
         21   -1    0    0  503  502  0.00000000000E+00  0.00000000000E+00  0.21184670008E+01  0.21184670008E+01  0.00000000000E+00 0.  1.
         21   -1    0    0  501  503 -0.00000000000E+00 -0.00000000000E+00 -0.22465043117E+03  0.22465043117E+03  0.00000000000E+00 0. -1.
          2    1    1    2  501    0 -0.77765060403E+01 -0.20008481385E+02 -0.91068648038E+02  0.93564480594E+02  0.00000000000E+00 0.  1.
         -2    1    1    2    0  502  0.77765060403E+01  0.20008481385E+02 -0.13146331613E+03  0.13320441758E+03  0.00000000000E+00 0. -1.
<mgrwt>
<rscale>  2 0.21466564E+02</rscale>
<asrwt>0</asrwt>
<pdfrwt beam="1">  1       21 0.32591819E-03 0.21466564E+02</pdfrwt>
<pdfrwt beam="2">  1       21 0.34561585E-01 0.21466564E+02</pdfrwt>
<totfact> 0.11905325E+08</totfact>
</mgrwt>
</event>
<event>
 4    1  0.2812958E+004  0.2946552E+02  0.7546771E-02  0.1604073E+00
         21   -1    0    0  503  502  0.00000000000E+00  0.00000000000E+00  0.65517945706E+02  0.65517945706E+02  0.00000000000E+00 0.  1.
         21   -1    0    0  501  503 -0.00000000000E+00 -0.00000000000E+00 -0.13736467877E+02  0.13736467877E+02  0.00000000000E+00 0. -1.
          2    1    1    2  501    0 -0.26923675790E+02 -0.11972162248E+02  0.33335862039E+02  0.44491534979E+02  0.00000000000E+00 0. -1.
         -2    1    1    2    0  502  0.26923675790E+02  0.11972162248E+02  0.18445615790E+02  0.34762878604E+02  0.00000000000E+00 0.  1.
<mgrwt>
<rscale>  2 0.29465522E+02</rscale>
<asrwt>0</asrwt>
<pdfrwt beam="1">  1       21 0.10079684E-01 0.29465522E+02</pdfrwt>
<pdfrwt beam="2">  1       21 0.21133028E-02 0.29465522E+02</pdfrwt>
<totfact> 0.67267721E+07</totfact>
</mgrwt>
</event>
<event>
 4    1  0.2812958E+004  0.2131725E+02  0.7546771E-02  0.1720334E+00
         21   -1    0    0  501  502  0.00000000000E+00  0.00000000000E+00  0.37775573906E+03  0.37775573906E+03  0.00000000000E+00 0.  1.
         21   -1    0    0  502  503 -0.00000000000E+00 -0.00000000000E+00 -0.12153320635E+01  0.12153320635E+01  0.00000000000E+00 0. -1.
          2    1    1    2  501    0 -0.58488775792E+01 -0.20499168545E+02  0.20738803744E+03  0.20848075056E+03  0.00000000000E+00 0.  1.
         -2    1    1    2    0  503  0.58488775792E+01  0.20499168545E+02  0.16915236956E+03  0.17049032057E+03  0.00000000000E+00 0. -1.
<mgrwt>
<rscale>  2 0.21317253E+02</rscale>
<asrwt>0</asrwt>
<pdfrwt beam="1">  1       21 0.58116174E-01 0.21317253E+02</pdfrwt>
<pdfrwt beam="2">  1       21 0.18697446E-03 0.21317253E+02</pdfrwt>
<totfact> 0.98456394E+07</totfact>
</mgrwt>
</event>
<event>
 4    1  0.2812958E+004  0.2064643E+02  0.7546771E-02  0.1732770E+00
         21   -1    0    0  503  502  0.00000000000E+00  0.00000000000E+00  0.41666004384E+01  0.41666004384E+01  0.00000000000E+00 0. -1.
         21   -1    0    0  501  503 -0.00000000000E+00 -0.00000000000E+00 -0.11286715532E+03  0.11286715532E+03  0.00000000000E+00 0.  1.
          2    1    1    2  501    0 -0.13148781442E+02  0.15918053788E+02 -0.72248923400E+02  0.75141079460E+02  0.00000000000E+00 0.  1.
         -2    1    1    2    0  502  0.13148781442E+02 -0.15918053788E+02 -0.36451631478E+02  0.41892676296E+02  0.00000000000E+00 0. -1.
<mgrwt>
<rscale>  2 0.20646426E+02</rscale>
<asrwt>0</asrwt>
<pdfrwt beam="1">  1       21 0.64101545E-03 0.20646426E+02</pdfrwt>
<pdfrwt beam="2">  1       21 0.17364178E-01 0.20646426E+02</pdfrwt>
<totfact> 0.14803723E+08</totfact>
</mgrwt>
</event>
<event>
 4    1  0.2812958E+004  0.2503079E+02  0.7546771E-02  0.1660560E+00
         21   -1    0    0  501  502  0.00000000000E+00  0.00000000000E+00  0.56888233214E+02  0.56888233214E+02  0.00000000000E+00 0. -1.
         21   -1    0    0  502  503 -0.00000000000E+00 -0.00000000000E+00 -0.17556370947E+02  0.17556370947E+02  0.00000000000E+00 0.  1.
          2    1    1    2  501    0 -0.22283927782E+02 -0.11400311939E+02  0.42389098613E+02  0.49227799371E+02  0.00000000000E+00 0. -1.
         -2    1    1    2    0  503  0.22283927782E+02  0.11400311939E+02 -0.30572363464E+01  0.25216804789E+02  0.00000000000E+00 0.  1.
<mgrwt>
<rscale>  2 0.25030792E+02</rscale>
<asrwt>0</asrwt>
<pdfrwt beam="1">  1       21 0.87520358E-02 0.25030792E+02</pdfrwt>
<pdfrwt beam="2">  1       21 0.27009802E-02 0.25030792E+02</pdfrwt>
<totfact> 0.55829820E+07</totfact>
</mgrwt>
</event>
<event>
 4    1  0.2812958E+004  0.2103305E+02  0.7546771E-02  0.1725532E+00
         21   -1    0    0  501  502  0.00000000000E+00  0.00000000000E+00  0.81370476849E+01  0.81370476849E+01  0.00000000000E+00 0.  1.
         21   -1    0    0  502  503 -0.00000000000E+00 -0.00000000000E+00 -0.56988567088E+02  0.56988567088E+02  0.00000000000E+00 0. -1.
          2    1    1    2  501    0  0.31726477394E+01 -0.20792390046E+02 -0.17442069200E+02  0.27324255809E+02  0.00000000000E+00 0.  1.
         -2    1    1    2    0  503 -0.31726477394E+01  0.20792390046E+02 -0.31409450203E+02  0.37801358964E+02  0.00000000000E+00 0. -1.
<mgrwt>
<rscale>  2 0.21033050E+02</rscale>
<asrwt>0</asrwt>
<pdfrwt beam="1">  1       21 0.12518534E-02 0.21033050E+02</pdfrwt>
<pdfrwt beam="2">  1       21 0.87674722E-02 0.21033050E+02</pdfrwt>
<totfact> 0.17191079E+08</totfact>
</mgrwt>
</event>
<event>
 4    1  0.2812958E+004  0.4217231E+02  0.7546771E-02  0.1492808E+00
         21   -1    0    0  503  502  0.00000000000E+00  0.00000000000E+00  0.22631319321E+03  0.22631319321E+03  0.00000000000E+00 0.  1.
         21   -1    0    0  501  503 -0.00000000000E+00 -0.00000000000E+00 -0.24769905136E+02  0.24769905136E+02  0.00000000000E+00 0. -1.
          2    1    1    2  501    0  0.41094314862E+02  0.94742242622E+01 -0.29606408196E+01  0.42276104756E+02  0.00000000000E+00 0. -1.
         -2    1    1    2    0  502 -0.41094314862E+02 -0.94742242622E+01  0.20450392889E+03  0.20880699359E+03  0.00000000000E+00 0.  1.
<mgrwt>
<rscale>  2 0.42172309E+02</rscale>
<asrwt>0</asrwt>
<pdfrwt beam="1">  1       21 0.34817413E-01 0.42172309E+02</pdfrwt>
<pdfrwt beam="2">  1       21 0.38107548E-02 0.42172309E+02</pdfrwt>
<totfact> 0.31278956E+06</totfact>
</mgrwt>
</event>
<event>
 4    1  0.2812958E+004  0.2126163E+02  0.7546771E-02  0.1721344E+00
         21   -1    0    0  503  502  0.00000000000E+00  0.00000000000E+00  0.64116626045E+03  0.64116626045E+03  0.00000000000E+00 0.  1.
         21   -1    0    0  501  503 -0.00000000000E+00 -0.00000000000E+00 -0.20072221730E+01  0.20072221730E+01  0.00000000000E+00 0. -1.
          2    1    1    2  501    0  0.14336200211E+02  0.15701284784E+02  0.60559153086E+02  0.64183081905E+02  0.00000000000E+00 0. -1.
         -2    1    1    2    0  502 -0.14336200211E+02 -0.15701284784E+02  0.57859988519E+03  0.57899040072E+03  0.00000000000E+00 0.  1.
<mgrwt>
<rscale>  2 0.21261632E+02</rscale>
<asrwt>0</asrwt>
<pdfrwt beam="1">  1       21 0.98640800E-01 0.21261632E+02</pdfrwt>
<pdfrwt beam="2">  1       21 0.30880392E-03 0.21261632E+02</pdfrwt>
<totfact> 0.15912767E+07</totfact>
</mgrwt>
</event>
<event>
 4    1  0.2812958E+004  0.2270079E+02  0.7546771E-02  0.1696407E+00
         21   -1    0    0  501  502  0.00000000000E+00  0.00000000000E+00  0.42350595439E+01  0.42350595439E+01  0.00000000000E+00 0. -1.
         21   -1    0    0  502  503 -0.00000000000E+00 -0.00000000000E+00 -0.12531204861E+03  0.12531204861E+03  0.00000000000E+00 0.  1.
          2    1    1    2  501    0 -0.21166513966E+02 -0.82039258768E+01 -0.49512307594E+02  0.54468287255E+02  0.00000000000E+00 0.  1.
         -2    1    1    2    0  503  0.21166513966E+02  0.82039258768E+01 -0.71564681470E+02  0.75078820896E+02  0.00000000000E+00 0. -1.
<mgrwt>
<rscale>  2 0.22700787E+02</rscale>
<asrwt>0</asrwt>
<pdfrwt beam="1">  1       21 0.65154769E-03 0.22700787E+02</pdfrwt>
<pdfrwt beam="2">  1       21 0.19278775E-01 0.22700787E+02</pdfrwt>
<totfact> 0.12403132E+08</totfact>
</mgrwt>
</event>
<event>
 4    1  0.2812958E+004  0.5320626E+02  0.7546771E-02  0.1428777E+00
         21   -1    0    0  503  502  0.00000000000E+00  0.00000000000E+00  0.13862277333E+03  0.13862277333E+03  0.00000000000E+00 0. -1.
         21   -1    0    0  501  503 -0.00000000000E+00 -0.00000000000E+00 -0.37723493711E+02  0.37723493711E+02  0.00000000000E+00 0.  1.
          2    1    1    2  501    0  0.52905393598E+02 -0.56502143090E+01 -0.92644103643E+01  0.54006804135E+02  0.00000000000E+00 0.  1.
         -2    1    1    2    0  502 -0.52905393598E+02  0.56502143090E+01  0.11016368999E+03  0.12233946291E+03  0.00000000000E+00 0. -1.
<mgrwt>
<rscale>  2 0.53206255E+02</rscale>
<asrwt>0</asrwt>
<pdfrwt beam="1">  1       21 0.21326580E-01 0.53206255E+02</pdfrwt>
<pdfrwt beam="2">  1       21 0.58036145E-02 0.53206255E+02</pdfrwt>
<totfact> 0.39870146E+06</totfact>
</mgrwt>
</event>
<event>
 4    1  0.2812958E+004  0.2393584E+02  0.7546771E-02  0.1676775E+00
         21   -1    0    0  503  502  0.00000000000E+00  0.00000000000E+00  0.31622656132E+03  0.31622656132E+03  0.00000000000E+00 0. -1.
         21   -1    0    0  501  503 -0.00000000000E+00 -0.00000000000E+00 -0.31730140432E+01  0.31730140432E+01  0.00000000000E+00 0.  1.
          2    1    1    2  501    0 -0.13356867926E+02 -0.19862491177E+02  0.51925006467E+02  0.57176313043E+02  0.00000000000E+00 0.  1.
         -2    1    1    2    0  502  0.13356867926E+02  0.19862491177E+02  0.26112854081E+03  0.26222326232E+03  0.00000000000E+00 0. -1.
<mgrwt>
<rscale>  2 0.23935841E+02</rscale>
<asrwt>0</asrwt>
<pdfrwt beam="1">  1       21 0.48650216E-01 0.23935841E+02</pdfrwt>
<pdfrwt beam="2">  1       21 0.48815625E-03 0.23935841E+02</pdfrwt>
<totfact> 0.35455920E+07</totfact>
</mgrwt>
</event>
<event>
 4    1  0.2812958E+004  0.2351853E+02  0.7546771E-02  0.1683240E+00
         21   -1    0    0  503  502  0.00000000000E+00  0.00000000000E+00  0.22430954136E+02  0.22430954136E+02  0.00000000000E+00 0. -1.
         21   -1    0    0  501  503 -0.00000000000E+00 -0.00000000000E+00 -0.27170900806E+02  0.27170900806E+02  0.00000000000E+00 0.  1.
          2    1    1    2  501    0  0.11552012990E+02 -0.20485905511E+02 -0.99110073879E+01  0.25521547684E+02  0.00000000000E+00 0.  1.
         -2    1    1    2    0  502 -0.11552012990E+02  0.20485905511E+02  0.51710607182E+01  0.24080307259E+02  0.00000000000E+00 0. -1.
<mgrwt>
<rscale>  2 0.23518532E+02</rscale>
<asrwt>0</asrwt>
<pdfrwt beam="1">  1       21 0.34509160E-02 0.23518532E+02</pdfrwt>
<pdfrwt beam="2">  1       21 0.41801386E-02 0.23518532E+02</pdfrwt>
<totfact> 0.12315918E+08</totfact>
</mgrwt>
</event>
<event>
 4    1  0.2812958E+004  0.2141263E+02  0.7546771E-02  0.1718613E+00
         21   -1    0    0  503  502  0.00000000000E+00  0.00000000000E+00  0.79217035610E+02  0.79217035610E+02  0.00000000000E+00 0.  1.
         21   -1    0    0  501  503 -0.00000000000E+00 -0.00000000000E+00 -0.68562312454E+01  0.68562312454E+01  0.00000000000E+00 0. -1.
          2    1    1    2  501    0  0.14015969978E+02  0.16188061722E+02  0.19192204518E+02  0.28754851260E+02  0.00000000000E+00 0. -1.
         -2    1    1    2    0  502 -0.14015969978E+02 -0.16188061722E+02  0.53168599846E+02  0.57318415595E+02  0.00000000000E+00 0.  1.
<mgrwt>
<rscale>  2 0.21412631E+02</rscale>
<asrwt>0</asrwt>
<pdfrwt beam="1">  1       21 0.12187236E-01 0.21412631E+02</pdfrwt>
<pdfrwt beam="2">  1       21 0.10548049E-02 0.21412631E+02</pdfrwt>
<totfact> 0.12976848E+08</totfact>
</mgrwt>
</event>
<event>
 4    1  0.2812958E+004  0.2280908E+02  0.7546771E-02  0.1694624E+00
         21   -1    0    0  503  502  0.00000000000E+00  0.00000000000E+00  0.19508697800E+03  0.19508697800E+03  0.00000000000E+00 0.  1.
         21   -1    0    0  501  503 -0.00000000000E+00 -0.00000000000E+00 -0.28006075448E+01  0.28006075448E+01  0.00000000000E+00 0. -1.
          2    1    1    2  501    0  0.34749781343E+01  0.22542817373E+02  0.74514263207E+02  0.77927078153E+02  0.00000000000E+00 0. -1.
         -2    1    1    2    0  502 -0.34749781343E+01 -0.22542817373E+02  0.11777210725E+03  0.11996050739E+03  0.00000000000E+00 0.  1.
<mgrwt>
<rscale>  2 0.22809079E+02</rscale>
<asrwt>0</asrwt>
<pdfrwt beam="1">  1       21 0.30013370E-01 0.22809079E+02</pdfrwt>
<pdfrwt beam="2">  1       21 0.43086285E-03 0.22809079E+02</pdfrwt>
<totfact> 0.10419526E+08</totfact>
</mgrwt>
</event>
<event>
 4    1  0.2812958E+004  0.2963289E+02  0.7546771E-02  0.1602182E+00
         21   -1    0    0  501  502  0.00000000000E+00  0.00000000000E+00  0.61337024864E+01  0.61337024864E+01  0.00000000000E+00 0. -1.
         21   -1    0    0  502  503 -0.00000000000E+00 -0.00000000000E+00 -0.44451689276E+03  0.44451689276E+03  0.00000000000E+00 0.  1.
          2    1    1    2  501    0 -0.16719972309E+02  0.24465296971E+02 -0.33665281275E+02  0.44849296463E+02  0.00000000000E+00 0. -1.
         -2    1    1    2    0  503  0.16719972309E+02 -0.24465296971E+02 -0.40471790900E+03  0.40580129878E+03  0.00000000000E+00 0.  1.
<mgrwt>
<rscale>  2 0.29632891E+02</rscale>
<asrwt>0</asrwt>
<pdfrwt beam="1">  1       21 0.94364646E-03 0.29632891E+02</pdfrwt>
<pdfrwt beam="2">  1       21 0.68387220E-01 0.29632891E+02</pdfrwt>
<totfact> 0.69603823E+06</totfact>
</mgrwt>
</event>
<event>
 4    1  0.2812958E+004  0.2124435E+02  0.7546771E-02  0.1721658E+00
         21   -1    0    0  503  502  0.00000000000E+00  0.00000000000E+00  0.77489667199E+01  0.77489667199E+01  0.00000000000E+00 0.  1.
         21   -1    0    0  501  503 -0.00000000000E+00 -0.00000000000E+00 -0.14067096033E+03  0.14067096033E+03  0.00000000000E+00 0. -1.
          2    1    1    2  501    0 -0.20238893102E+02  0.64582933028E+01 -0.12326742907E+03  0.12508469697E+03  0.00000000000E+00 0. -1.
         -2    1    1    2    0  502  0.20238893102E+02 -0.64582933028E+01 -0.96545645371E+01  0.23335230078E+02  0.00000000000E+00 0.  1.
<mgrwt>
<rscale>  2 0.21244349E+02</rscale>
<asrwt>0</asrwt>
<pdfrwt beam="1">  1       21 0.11921488E-02 0.21244349E+02</pdfrwt>
<pdfrwt beam="2">  1       21 0.21641684E-01 0.21244349E+02</pdfrwt>
<totfact> 0.40376833E+07</totfact>
</mgrwt>
</event>
<event>
 4    1  0.2812958E+004  0.8301001E+02  0.7546771E-02  0.1320720E+00
         21   -1    0    0  501  502  0.00000000000E+00  0.00000000000E+00  0.94649300752E+02  0.94649300752E+02  0.00000000000E+00 0. -1.
         21   -1    0    0  502  503 -0.00000000000E+00 -0.00000000000E+00 -0.12291032080E+03  0.12291032080E+03  0.00000000000E+00 0.  1.
          2    1    1    2  501    0  0.53549023267E+02  0.63428413798E+02  0.55325351409E+02  0.99757486327E+02  0.00000000000E+00 0. -1.
         -2    1    1    2    0  503 -0.53549023267E+02 -0.63428413798E+02 -0.83586371454E+02  0.11780213522E+03  0.00000000000E+00 0.  1.
<mgrwt>
<rscale>  2 0.83010009E+02</rscale>
<asrwt>0</asrwt>
<pdfrwt beam="1">  1       21 0.14561431E-01 0.83010009E+02</pdfrwt>
<pdfrwt beam="2">  1       21 0.18909280E-01 0.83010009E+02</pdfrwt>
<totfact> 0.10534162E+06</totfact>
</mgrwt>
</event>
<event>
 4    1  0.2812958E+004  0.2239151E+02  0.7546771E-02  0.1701568E+00
         21   -1    0    0  503  502  0.00000000000E+00  0.00000000000E+00  0.10804842793E+03  0.10804842793E+03  0.00000000000E+00 0.  1.
         21   -1    0    0  501  503 -0.00000000000E+00 -0.00000000000E+00 -0.75429989906E+01  0.75429989906E+01  0.00000000000E+00 0. -1.
          2    1    1    2  501    0  0.21178582426E+02  0.72696167162E+01  0.14399934774E+02  0.26622129935E+02  0.00000000000E+00 0. -1.
         -2    1    1    2    0  502 -0.21178582426E+02 -0.72696167162E+01  0.86105494170E+02  0.88969296991E+02  0.00000000000E+00 0.  1.
<mgrwt>
<rscale>  2 0.22391509E+02</rscale>
<asrwt>0</asrwt>
<pdfrwt beam="1">  1       21 0.16622834E-01 0.22391509E+02</pdfrwt>
<pdfrwt beam="2">  1       21 0.11604615E-02 0.22391509E+02</pdfrwt>
<totfact> 0.67323813E+07</totfact>
</mgrwt>
</event>
<event>
 4    1  0.2812958E+004  0.2199519E+02  0.7546771E-02  0.1708335E+00
         21   -1    0    0  503  502  0.00000000000E+00  0.00000000000E+00  0.13190881189E+03  0.13190881189E+03  0.00000000000E+00 0.  1.
         21   -1    0    0  501  503 -0.00000000000E+00 -0.00000000000E+00 -0.45360606514E+01  0.45360606514E+01  0.00000000000E+00 0. -1.
          2    1    1    2  501    0  0.17281384496E+02 -0.13606695750E+02  0.33835057424E+02  0.40355910722E+02  0.00000000000E+00 0. -1.
         -2    1    1    2    0  502 -0.17281384496E+02  0.13606695750E+02  0.93537693813E+02  0.96088961817E+02  0.00000000000E+00 0.  1.
<mgrwt>
<rscale>  2 0.21995191E+02</rscale>
<asrwt>0</asrwt>
<pdfrwt beam="1">  1       21 0.20293660E-01 0.21995191E+02</pdfrwt>
<pdfrwt beam="2">  1       21 0.69785558E-03 0.21995191E+02</pdfrwt>
<totfact> 0.10152992E+08</totfact>
</mgrwt>
</event>
<event>
 4    1  0.2812958E+004  0.2414132E+02  0.7546771E-02  0.1673651E+00
         21   -1    0    0  503  502  0.00000000000E+00  0.00000000000E+00  0.10255658238E+02  0.10255658238E+02  0.00000000000E+00 0. -1.
         21   -1    0    0  501  503 -0.00000000000E+00 -0.00000000000E+00 -0.10649559030E+03  0.10649559030E+03  0.00000000000E+00 0.  1.
          2    1    1    2  501    0 -0.21404279029E+02 -0.11165138899E+02 -0.87986128006E+02  0.91237942814E+02  0.00000000000E+00 0.  1.
         -2    1    1    2    0  502  0.21404279029E+02  0.11165138899E+02 -0.82538040517E+01  0.25513305719E+02  0.00000000000E+00 0. -1.
<mgrwt>
<rscale>  2 0.24141323E+02</rscale>
<asrwt>0</asrwt>
<pdfrwt beam="1">  1       21 0.15777936E-02 0.24141323E+02</pdfrwt>
<pdfrwt beam="2">  1       21 0.16383937E-01 0.24141323E+02</pdfrwt>
<totfact> 0.44168653E+07</totfact>
</mgrwt>
</event>
<event>
 4    1  0.2812958E+004  0.4251826E+02  0.7546771E-02  0.1490457E+00
         21   -1    0    0  501  502  0.00000000000E+00  0.00000000000E+00  0.59410770983E+02  0.59410770983E+02  0.00000000000E+00 0.  1.
         21   -1    0    0  502  503 -0.00000000000E+00 -0.00000000000E+00 -0.55964544234E+02  0.55964544234E+02  0.00000000000E+00 0. -1.
          2    1    1    2  501    0  0.19245534218E+01  0.42474684015E+02  0.40690391847E+02  0.58851598761E+02  0.00000000000E+00 0.  1.
         -2    1    1    2    0  503 -0.19245534218E+01 -0.42474684015E+02 -0.37244165099E+02  0.56523716456E+02  0.00000000000E+00 0. -1.
<mgrwt>
<rscale>  2 0.42518263E+02</rscale>
<asrwt>0</asrwt>
<pdfrwt beam="1">  1       21 0.91401186E-02 0.42518263E+02</pdfrwt>
<pdfrwt beam="2">  1       21 0.86099299E-02 0.42518263E+02</pdfrwt>
<totfact> 0.88422326E+06</totfact>
</mgrwt>
</event>
<event>
 4    1  0.2812958E+004  0.2406757E+02  0.7546771E-02  0.1674768E+00
         21   -1    0    0  503  502  0.00000000000E+00  0.00000000000E+00  0.28863627224E+02  0.28863627224E+02  0.00000000000E+00 0.  1.
         21   -1    0    0  501  503 -0.00000000000E+00 -0.00000000000E+00 -0.99992811811E+02  0.99992811811E+02  0.00000000000E+00 0. -1.
          2    1    1    2  501    0  0.44113205441E-01 -0.24067528189E+02 -0.93165770329E+02  0.96224262118E+02  0.00000000000E+00 0. -1.
         -2    1    1    2    0  502 -0.44113205441E-01  0.24067528189E+02  0.22036585743E+02  0.32632176916E+02  0.00000000000E+00 0.  1.
<mgrwt>
<rscale>  2 0.24067569E+02</rscale>
<asrwt>0</asrwt>
<pdfrwt beam="1">  1       21 0.44405580E-02 0.24067569E+02</pdfrwt>
<pdfrwt beam="2">  1       21 0.15383509E-01 0.24067569E+02</pdfrwt>
<totfact> 0.98531187E+06</totfact>
</mgrwt>
</event>
<event>
 4    1  0.2812958E+004  0.2106897E+02  0.7546771E-02  0.1724870E+00
         21   -1    0    0  503  502  0.00000000000E+00  0.00000000000E+00  0.66847729033E+02  0.66847729033E+02  0.00000000000E+00 0. -1.
         21   -1    0    0  501  503 -0.00000000000E+00 -0.00000000000E+00 -0.71020925147E+01  0.71020925147E+01  0.00000000000E+00 0.  1.
          2    1    1    2  501    0 -0.89599922483E+01  0.19068818244E+02  0.20446311777E+02  0.29359035331E+02  0.00000000000E+00 0.  1.
         -2    1    1    2    0  502  0.89599922483E+01 -0.19068818244E+02  0.39299324741E+02  0.44590786216E+02  0.00000000000E+00 0. -1.
<mgrwt>
<rscale>  2 0.21068965E+02</rscale>
<asrwt>0</asrwt>
<pdfrwt beam="1">  1       21 0.10284266E-01 0.21068965E+02</pdfrwt>
<pdfrwt beam="2">  1       21 0.10926297E-02 0.21068965E+02</pdfrwt>
<totfact> 0.16238385E+08</totfact>
</mgrwt>
</event>
<event>
 4    1  0.2812958E+004  0.2273050E+02  0.7546771E-02  0.1695916E+00
         21   -1    0    0  503  502  0.00000000000E+00  0.00000000000E+00  0.57622705836E+02  0.57622705836E+02  0.00000000000E+00 0. -1.
         21   -1    0    0  501  503 -0.00000000000E+00 -0.00000000000E+00 -0.10321430633E+02  0.10321430633E+02  0.00000000000E+00 0.  1.
          2    1    1    2  501    0 -0.22368488710E+02 -0.40405703274E+01  0.11342101981E+02  0.25403125262E+02  0.00000000000E+00 0.  1.
         -2    1    1    2    0  502  0.22368488710E+02  0.40405703274E+01  0.35959173221E+02  0.42541011207E+02  0.00000000000E+00 0. -1.
<mgrwt>
<rscale>  2 0.22730497E+02</rscale>
<asrwt>0</asrwt>
<pdfrwt beam="1">  1       21 0.88650315E-02 0.22730497E+02</pdfrwt>
<pdfrwt beam="2">  1       21 0.15879124E-02 0.22730497E+02</pdfrwt>
<totfact> 0.12056949E+08</totfact>
</mgrwt>
</event>
<event>
 4    1  0.2812958E+004  0.3331354E+02  0.7546771E-02  0.1564108E+00
         21   -1    0    0  503  502  0.00000000000E+00  0.00000000000E+00  0.24190337914E+03  0.24190337914E+03  0.00000000000E+00 0. -1.
         21   -1    0    0  501  503 -0.00000000000E+00 -0.00000000000E+00 -0.46371201172E+01  0.46371201172E+01  0.00000000000E+00 0.  1.
          2    1    1    2  501    0 -0.27054948950E+02 -0.19437641401E+02  0.10591370963E+03  0.11102930268E+03  0.00000000000E+00 0. -1.
         -2    1    1    2    0  502  0.27054948950E+02  0.19437641401E+02  0.13135254939E+03  0.13551119658E+03  0.00000000000E+00 0.  1.
<mgrwt>
<rscale>  2 0.33313543E+02</rscale>
<asrwt>0</asrwt>
<pdfrwt beam="1">  1       21 0.37215895E-01 0.33313543E+02</pdfrwt>
<pdfrwt beam="2">  1       21 0.71340328E-03 0.33313543E+02</pdfrwt>
<totfact> 0.35961552E+07</totfact>
</mgrwt>
</event>
<event>
 4    1  0.2812958E+004  0.2148913E+02  0.7546771E-02  0.1717240E+00
         21   -1    0    0  503  502  0.00000000000E+00  0.00000000000E+00  0.11309934764E+02  0.11309934764E+02  0.00000000000E+00 0. -1.
         21   -1    0    0  501  503 -0.00000000000E+00 -0.00000000000E+00 -0.61742591049E+02  0.61742591049E+02  0.00000000000E+00 0.  1.
          2    1    1    2  501    0 -0.44350951647E+01  0.21026471108E+02 -0.46474144325E+02  0.51201842224E+02  0.00000000000E+00 0.  1.
         -2    1    1    2    0  502  0.44350951647E+01 -0.21026471108E+02 -0.39585119604E+01  0.21850683590E+02  0.00000000000E+00 0. -1.
<mgrwt>
<rscale>  2 0.21489126E+02</rscale>
<asrwt>0</asrwt>
<pdfrwt beam="1">  1       21 0.17399900E-02 0.21489126E+02</pdfrwt>
<pdfrwt beam="2">  1       21 0.94988599E-02 0.21489126E+02</pdfrwt>
<totfact> 0.92133864E+07</totfact>
</mgrwt>
</event>
<event>
 4    1  0.2812958E+004  0.2621333E+02  0.7546771E-02  0.1644162E+00
         21   -1    0    0  503  502  0.00000000000E+00  0.00000000000E+00  0.28320789082E+02  0.28320789082E+02  0.00000000000E+00 0. -1.
         21   -1    0    0  501  503 -0.00000000000E+00 -0.00000000000E+00 -0.24384218529E+02  0.24384218529E+02  0.00000000000E+00 0.  1.
          2    1    1    2  501    0 -0.24028706631E+02  0.10476637664E+02  0.10792555516E+00  0.26213552354E+02  0.00000000000E+00 0.  1.
         -2    1    1    2    0  502  0.24028706631E+02 -0.10476637664E+02  0.38286449978E+01  0.26491455257E+02  0.00000000000E+00 0. -1.
<mgrwt>
<rscale>  2 0.26213330E+02</rscale>
<asrwt>0</asrwt>
<pdfrwt beam="1">  1       21 0.43570445E-02 0.26213330E+02</pdfrwt>
<pdfrwt beam="2">  1       21 0.37514182E-02 0.26213330E+02</pdfrwt>
<totfact> 0.10422353E+08</totfact>
</mgrwt>
</event>
<event>
 4    1  0.2812958E+004  0.2238144E+02  0.7546771E-02  0.1701737E+00
         21   -1    0    0  503  502  0.00000000000E+00  0.00000000000E+00  0.44911827421E+01  0.44911827421E+01  0.00000000000E+00 0. -1.
         21   -1    0    0  501  503 -0.00000000000E+00 -0.00000000000E+00 -0.35307055897E+03  0.35307055897E+03  0.00000000000E+00 0.  1.
          2    1    1    2  501    0 -0.20779185139E+02  0.83159083442E+01 -0.32215962024E+03  0.32293613886E+03  0.00000000000E+00 0.  1.
         -2    1    1    2    0  502  0.20779185139E+02 -0.83159083442E+01 -0.26419755988E+02  0.34625602856E+02  0.00000000000E+00 0. -1.
<mgrwt>
<rscale>  2 0.22381440E+02</rscale>
<asrwt>0</asrwt>
<pdfrwt beam="1">  1       21 0.69095090E-03 0.22381440E+02</pdfrwt>
<pdfrwt beam="2">  1       21 0.54318571E-01 0.22381440E+02</pdfrwt>
<totfact> 0.16852914E+07</totfact>
</mgrwt>
</event>
<event>
 4    1  0.2812958E+004  0.3104588E+02  0.7546771E-02  0.1586807E+00
         21   -1    0    0  503  502  0.00000000000E+00  0.00000000000E+00  0.36625483012E+01  0.36625483012E+01  0.00000000000E+00 0.  1.
         21   -1    0    0  501  503 -0.00000000000E+00 -0.00000000000E+00 -0.28191630230E+03  0.28191630230E+03  0.00000000000E+00 0. -1.
          2    1    1    2  501    0  0.42705066638E+01 -0.30750765122E+02 -0.17595470808E+03  0.17867262263E+03  0.00000000000E+00 0. -1.
         -2    1    1    2    0  502 -0.42705066638E+01  0.30750765122E+02 -0.10229904593E+03  0.10690622798E+03  0.00000000000E+00 0.  1.
<mgrwt>
<rscale>  2 0.31045882E+02</rscale>
<asrwt>0</asrwt>
<pdfrwt beam="1">  1       21 0.56346900E-03 0.31045882E+02</pdfrwt>
<pdfrwt beam="2">  1       21 0.43371737E-01 0.31045882E+02</pdfrwt>
<totfact> 0.37730448E+07</totfact>
</mgrwt>
</event>
<event>
 4    1  0.2812958E+004  0.2143221E+02  0.7546771E-02  0.1718261E+00
         21   -1    0    0  503  502  0.00000000000E+00  0.00000000000E+00  0.25282002400E+03  0.25282002400E+03  0.00000000000E+00 0.  1.
         21   -1    0    0  501  503 -0.00000000000E+00 -0.00000000000E+00 -0.26909586059E+01  0.26909586059E+01  0.00000000000E+00 0. -1.
          2    1    1    2  501    0 -0.16118786621E+01 -0.21371506173E+02  0.52252114273E+02  0.56476746320E+02  0.00000000000E+00 0. -1.
         -2    1    1    2    0  502  0.16118786621E+01  0.21371506173E+02  0.19787695112E+03  0.19903423628E+03  0.00000000000E+00 0.  1.
<mgrwt>
<rscale>  2 0.21432205E+02</rscale>
<asrwt>0</asrwt>
<pdfrwt beam="1">  1       21 0.38895369E-01 0.21432205E+02</pdfrwt>
<pdfrwt beam="2">  1       21 0.41399383E-03 0.21432205E+02</pdfrwt>
<totfact> 0.67382306E+07</totfact>
</mgrwt>
</event>
<event>
 4    1  0.2812958E+004  0.3272826E+02  0.7546771E-02  0.1569752E+00
         21   -1    0    0  501  502  0.00000000000E+00  0.00000000000E+00  0.22079678027E+02  0.22079678027E+02  0.00000000000E+00 0. -1.
         21   -1    0    0  502  503 -0.00000000000E+00 -0.00000000000E+00 -0.13697263511E+03  0.13697263511E+03  0.00000000000E+00 0.  1.
          2    1    1    2  501    0  0.30183017107E+02  0.12654018324E+02  0.64632649186E+01  0.33360343146E+02  0.00000000000E+00 0. -1.
         -2    1    1    2    0  503 -0.30183017107E+02 -0.12654018324E+02 -0.12135622200E+03  0.12569196999E+03  0.00000000000E+00 0.  1.
<mgrwt>
<rscale>  2 0.32728255E+02</rscale>
<asrwt>0</asrwt>
<pdfrwt beam="1">  1       21 0.33968736E-02 0.32728255E+02</pdfrwt>
<pdfrwt beam="2">  1       21 0.21072713E-01 0.32728255E+02</pdfrwt>
<totfact> 0.91609600E+06</totfact>
</mgrwt>
</event>
<event>
 4    1  0.2812958E+004  0.5754367E+02  0.7546771E-02  0.1408439E+00
         21   -1    0    0  501  502  0.00000000000E+00  0.00000000000E+00  0.11267664345E+03  0.11267664345E+03  0.00000000000E+00 0.  1.
         21   -1    0    0  502  503 -0.00000000000E+00 -0.00000000000E+00 -0.16513940673E+03  0.16513940673E+03  0.00000000000E+00 0. -1.
          2    1    1    2  501    0  0.46154006631E+02  0.34366866218E+02  0.99711928228E+02  0.11512489936E+03  0.00000000000E+00 0.  1.
         -2    1    1    2    0  503 -0.46154006631E+02 -0.34366866218E+02 -0.15217469150E+03  0.16269115082E+03  0.00000000000E+00 0. -1.
<mgrwt>
<rscale>  2 0.57543669E+02</rscale>
<asrwt>0</asrwt>
<pdfrwt beam="1">  1       21 0.17334868E-01 0.57543669E+02</pdfrwt>
<pdfrwt beam="2">  1       21 0.25406063E-01 0.57543669E+02</pdfrwt>
<totfact> 0.44672779E+05</totfact>
</mgrwt>
</event>
<event>
 4    1  0.2812958E+004  0.2035052E+02  0.7546771E-02  0.1738446E+00
         21   -1    0    0  501  502  0.00000000000E+00  0.00000000000E+00  0.15958595393E+03  0.15958595393E+03  0.00000000000E+00 0. -1.
         21   -1    0    0  502  503 -0.00000000000E+00 -0.00000000000E+00 -0.33875256342E+01  0.33875256342E+01  0.00000000000E+00 0.  1.
          2    1    1    2  501    0  0.19114590320E+02 -0.69840021829E+01  0.11751052557E+03  0.11925966405E+03  0.00000000000E+00 0. -1.
         -2    1    1    2    0  503 -0.19114590320E+02  0.69840021829E+01  0.38687902735E+02  0.43713815523E+02  0.00000000000E+00 0.  1.
<mgrwt>
<rscale>  2 0.20350525E+02</rscale>
<asrwt>0</asrwt>
<pdfrwt beam="1">  1       21 0.24551679E-01 0.20350525E+02</pdfrwt>
<pdfrwt beam="2">  1       21 0.52115791E-03 0.20350525E+02</pdfrwt>
<totfact> 0.10941645E+08</totfact>
</mgrwt>
</event>
<event>
 4    1  0.2812958E+004  0.2098805E+02  0.7546771E-02  0.1726364E+00
         21   -1    0    0  503  502  0.00000000000E+00  0.00000000000E+00  0.75461306723E+01  0.75461306723E+01  0.00000000000E+00 0.  1.
         21   -1    0    0  501  503 -0.00000000000E+00 -0.00000000000E+00 -0.10998684321E+03  0.10998684321E+03  0.00000000000E+00 0. -1.
          2    1    1    2  501    0 -0.48408369642E+01 -0.20422159496E+02 -0.91477039570E+02  0.93853860173E+02  0.00000000000E+00 0. -1.
         -2    1    1    2    0  502  0.48408369642E+01  0.20422159496E+02 -0.10963672963E+02  0.23679113704E+02  0.00000000000E+00 0.  1.
<mgrwt>
<rscale>  2 0.20988051E+02</rscale>
<asrwt>0</asrwt>
<pdfrwt beam="1">  1       21 0.11609433E-02 0.20988051E+02</pdfrwt>
<pdfrwt beam="2">  1       21 0.16921052E-01 0.20988051E+02</pdfrwt>
<totfact> 0.64141621E+07</totfact>
</mgrwt>
</event>
<event>
 4    1  0.2812958E+004  0.2146244E+02  0.7546771E-02  0.1717718E+00
         21   -1    0    0  501  502  0.00000000000E+00  0.00000000000E+00  0.36326772122E+00  0.36326772122E+00  0.00000000000E+00 0. -1.
         21   -1    0    0  502  503 -0.00000000000E+00 -0.00000000000E+00 -0.18259836670E+04  0.18259836670E+04  0.00000000000E+00 0.  1.
          2    1    1    2  501    0  0.30237107033E+01  0.21248377265E+02 -0.40803062697E+03  0.40859470005E+03  0.00000000000E+00 0. -1.
         -2    1    1    2    0  503 -0.30237107033E+01 -0.21248377265E+02 -0.14175897723E+04  0.14177522347E+04  0.00000000000E+00 0.  1.
<mgrwt>
<rscale>  2 0.21462441E+02</rscale>
<asrwt>0</asrwt>
<pdfrwt beam="1">  1       21 0.55886457E-04 0.21462441E+02</pdfrwt>
<pdfrwt beam="2">  1       21 0.28092501E+00 0.21462441E+02</pdfrwt>
<totfact> 0.13642524E+07</totfact>
</mgrwt>
</event>
<event>
 4    1  0.2812958E+004  0.2310298E+02  0.7546771E-02  0.1689846E+00
         21   -1    0    0  503  502  0.00000000000E+00  0.00000000000E+00  0.14676611377E+01  0.14676611377E+01  0.00000000000E+00 0.  1.
         21   -1    0    0  501  503 -0.00000000000E+00 -0.00000000000E+00 -0.47470000196E+03  0.47470000196E+03  0.00000000000E+00 0. -1.
          2    1    1    2  501    0  0.28790299499E-01 -0.23102961641E+02 -0.35175876460E+03  0.35251663242E+03  0.00000000000E+00 0. -1.
         -2    1    1    2    0  502 -0.28790299499E-01  0.23102961641E+02 -0.12147357623E+03  0.12365103068E+03  0.00000000000E+00 0.  1.
<mgrwt>
<rscale>  2 0.23102980E+02</rscale>
<asrwt>0</asrwt>
<pdfrwt beam="1">  1       21 0.22579401E-03 0.23102980E+02</pdfrwt>
<pdfrwt beam="2">  1       21 0.73030774E-01 0.23102980E+02</pdfrwt>
<totfact> 0.48178329E+07</totfact>
</mgrwt>
</event>
<event>
 4    1  0.2812958E+004  0.2075389E+02  0.7546771E-02  0.1730739E+00
         21   -1    0    0  501  502  0.00000000000E+00  0.00000000000E+00  0.27335852543E+03  0.27335852543E+03  0.00000000000E+00 0. -1.
         21   -1    0    0  502  503 -0.00000000000E+00 -0.00000000000E+00 -0.23430169938E+01  0.23430169938E+01  0.00000000000E+00 0.  1.
          2    1    1    2  501    0  0.18436114797E+02 -0.95306676383E+01  0.21439671091E+03  0.21539887094E+03  0.00000000000E+00 0. -1.
         -2    1    1    2    0  503 -0.18436114797E+02  0.95306676383E+01  0.56618797532E+02  0.60302671486E+02  0.00000000000E+00 0.  1.
<mgrwt>
<rscale>  2 0.20753890E+02</rscale>
<asrwt>0</asrwt>
<pdfrwt beam="1">  1       21 0.42055133E-01 0.20753890E+02</pdfrwt>
<pdfrwt beam="2">  1       21 0.36046437E-03 0.20753890E+02</pdfrwt>
<totfact> 0.70637831E+07</totfact>
</mgrwt>
</event>
<event>
 4    1  0.2812958E+004  0.2137322E+02  0.7546771E-02  0.1719323E+00
         21   -1    0    0  501  502  0.00000000000E+00  0.00000000000E+00  0.50534842370E+03  0.50534842370E+03  0.00000000000E+00 0.  1.
         21   -1    0    0  502  503 -0.00000000000E+00 -0.00000000000E+00 -0.18883642250E+01  0.18883642250E+01  0.00000000000E+00 0. -1.
          2    1    1    2  501    0 -0.21358988473E+02 -0.77995901122E+00  0.43484532281E+03  0.43537026712E+03  0.00000000000E+00 0.  1.
         -2    1    1    2    0  503  0.21358988473E+02  0.77995901122E+00  0.68614736665E+02  0.71866520803E+02  0.00000000000E+00 0. -1.
<mgrwt>
<rscale>  2 0.21373224E+02</rscale>
<asrwt>0</asrwt>
<pdfrwt beam="1">  1       21 0.77745803E-01 0.21373224E+02</pdfrwt>
<pdfrwt beam="2">  1       21 0.29051798E-03 0.21373224E+02</pdfrwt>
<totfact> 0.28863196E+07</totfact>
</mgrwt>
</event>
<event>
 4    1  0.2812958E+004  0.2335215E+02  0.7546771E-02  0.1685865E+00
         21   -1    0    0  501  502  0.00000000000E+00  0.00000000000E+00  0.16358666646E+01  0.16358666646E+01  0.00000000000E+00 0. -1.
         21   -1    0    0  502  503 -0.00000000000E+00 -0.00000000000E+00 -0.36990675416E+03  0.36990675416E+03  0.00000000000E+00 0.  1.
          2    1    1    2  501    0  0.10686224703E+02  0.20763614862E+02 -0.12573836830E+03  0.12788846845E+03  0.00000000000E+00 0. -1.
         -2    1    1    2    0  503 -0.10686224703E+02 -0.20763614862E+02 -0.24253251919E+03  0.24365415237E+03  0.00000000000E+00 0.  1.
<mgrwt>
<rscale>  2 0.23352154E+02</rscale>
<asrwt>0</asrwt>
<pdfrwt beam="1">  1       21 0.25167144E-03 0.23352154E+02</pdfrwt>
<pdfrwt beam="2">  1       21 0.56908812E-01 0.23352154E+02</pdfrwt>
<totfact> 0.68366683E+07</totfact>
</mgrwt>
</event>
<event>
 4    1  0.2812958E+004  0.2240110E+02  0.7546771E-02  0.1701406E+00
         21   -1    0    0  501  502  0.00000000000E+00  0.00000000000E+00  0.53100660107E+01  0.53100660107E+01  0.00000000000E+00 0.  1.
         21   -1    0    0  502  503 -0.00000000000E+00 -0.00000000000E+00 -0.18790114144E+03  0.18790114144E+03  0.00000000000E+00 0. -1.
          2    1    1    2  501    0 -0.15864868548E+02 -0.15815035783E+02 -0.23185656430E+02  0.32239480066E+02  0.00000000000E+00 0.  1.
         -2    1    1    2    0  503  0.15864868548E+02  0.15815035783E+02 -0.15940541900E+03  0.16097172739E+03  0.00000000000E+00 0. -1.
<mgrwt>
<rscale>  2 0.22401103E+02</rscale>
<asrwt>0</asrwt>
<pdfrwt beam="1">  1       21 0.81693333E-03 0.22401103E+02</pdfrwt>
<pdfrwt beam="2">  1       21 0.28907865E-01 0.22401103E+02</pdfrwt>
<totfact> 0.43058290E+07</totfact>
</mgrwt>
</event>
<event>
 4    1  0.2812958E+004  0.2194244E+02  0.7546771E-02  0.1709249E+00
         21   -1    0    0  501  502  0.00000000000E+00  0.00000000000E+00  0.38410857297E+01  0.38410857297E+01  0.00000000000E+00 0.  1.
         21   -1    0    0  502  503 -0.00000000000E+00 -0.00000000000E+00 -0.14868982576E+03  0.14868982576E+03  0.00000000000E+00 0. -1.
          2    1    1    2  501    0  0.80203538084E+01 -0.20424114948E+02 -0.42206824999E+02  0.47569807894E+02  0.00000000000E+00 0.  1.
         -2    1    1    2    0  503 -0.80203538084E+01  0.20424114948E+02 -0.10264191503E+03  0.10496110360E+03  0.00000000000E+00 0. -1.
<mgrwt>
<rscale>  2 0.21942437E+02</rscale>
<asrwt>0</asrwt>
<pdfrwt beam="1">  1       21 0.59093634E-03 0.21942437E+02</pdfrwt>
<pdfrwt beam="2">  1       21 0.22875355E-01 0.21942437E+02</pdfrwt>
<totfact> 0.10522731E+08</totfact>
</mgrwt>
</event>
<event>
 4    1  0.2812958E+004  0.7427308E+02  0.7546771E-02  0.1346137E+00
         21   -1    0    0  501  502  0.00000000000E+00  0.00000000000E+00  0.32738209501E+03  0.32738209501E+03  0.00000000000E+00 0. -1.
         21   -1    0    0  502  503 -0.00000000000E+00 -0.00000000000E+00 -0.32764574804E+02  0.32764574804E+02  0.00000000000E+00 0.  1.
          2    1    1    2  501    0 -0.69285639735E+02  0.26757998640E+02  0.27280780065E+03  0.28273766367E+03  0.00000000000E+00 0. -1.
         -2    1    1    2    0  503  0.69285639735E+02 -0.26757998640E+02  0.21809719559E+02  0.77409006142E+02  0.00000000000E+00 0.  1.
<mgrwt>
<rscale>  2 0.74273080E+02</rscale>
<asrwt>0</asrwt>
<pdfrwt beam="1">  1       21 0.50366474E-01 0.74273080E+02</pdfrwt>
<pdfrwt beam="2">  1       21 0.50407041E-02 0.74273080E+02</pdfrwt>
<totfact> 0.99039771E+05</totfact>
</mgrwt>
</event>
<event>
 4    1  0.2812958E+004  0.2301398E+02  0.7546771E-02  0.1691284E+00
         21   -1    0    0  501  502  0.00000000000E+00  0.00000000000E+00  0.14745698197E+04  0.14745698197E+04  0.00000000000E+00 0. -1.
         21   -1    0    0  502  503 -0.00000000000E+00 -0.00000000000E+00 -0.55717922602E+00  0.55717922602E+00  0.00000000000E+00 0.  1.
          2    1    1    2  501    0 -0.19136142684E+02  0.12784816247E+02  0.11766776327E+04  0.11769026701E+04  0.00000000000E+00 0. -1.
         -2    1    1    2    0  503  0.19136142684E+02 -0.12784816247E+02  0.29733500775E+03  0.29822432885E+03  0.00000000000E+00 0.  1.
<mgrwt>
<rscale>  2 0.23013985E+02</rscale>
<asrwt>0</asrwt>
<pdfrwt beam="1">  1       21 0.22685377E+00 0.23013985E+02</pdfrwt>
<pdfrwt beam="2">  1       21 0.85721061E-04 0.23013985E+02</pdfrwt>
<totfact> 0.13881537E+07</totfact>
</mgrwt>
</event>
<event>
 4    1  0.2812958E+004  0.2458384E+02  0.7546771E-02  0.1667052E+00
         21   -1    0    0  503  502  0.00000000000E+00  0.00000000000E+00  0.72473057155E+02  0.72473057155E+02  0.00000000000E+00 0.  1.
         21   -1    0    0  501  503 -0.00000000000E+00 -0.00000000000E+00 -0.10357850067E+02  0.10357850067E+02  0.00000000000E+00 0. -1.
          2    1    1    2  501    0  0.16009812104E+02  0.18656126821E+02  0.12774018824E+02  0.27704525055E+02  0.00000000000E+00 0. -1.
         -2    1    1    2    0  502 -0.16009812104E+02 -0.18656126821E+02  0.49341188264E+02  0.55126382168E+02  0.00000000000E+00 0.  1.
<mgrwt>
<rscale>  2 0.24583839E+02</rscale>
<asrwt>0</asrwt>
<pdfrwt beam="1">  1       21 0.11149701E-01 0.24583839E+02</pdfrwt>
<pdfrwt beam="2">  1       21 0.15935154E-02 0.24583839E+02</pdfrwt>
<totfact> 0.83877083E+07</totfact>
</mgrwt>
</event>
<event>
 4    1  0.2812958E+004  0.9804187E+02  0.7546771E-02  0.1284468E+00
         21   -1    0    0  503  502  0.00000000000E+00  0.00000000000E+00  0.10708768600E+04  0.10708768600E+04  0.00000000000E+00 0.  1.
         21   -1    0    0  501  503 -0.00000000000E+00 -0.00000000000E+00 -0.89761813998E+01  0.89761813998E+01  0.00000000000E+00 0. -1.
          2    1    1    2  501    0  0.90034740515E+02  0.38806631286E+02  0.52864118067E+03  0.53765575142E+03  0.00000000000E+00 0.  1.
         -2    1    1    2    0  502 -0.90034740515E+02 -0.38806631286E+02  0.53325949789E+03  0.54219728994E+03  0.00000000000E+00 0. -1.
<mgrwt>
<rscale>  2 0.98041874E+02</rscale>
<asrwt>0</asrwt>
<pdfrwt beam="1">  1       21 0.16475019E+00 0.98041874E+02</pdfrwt>
<pdfrwt beam="2">  1       21 0.13809518E-02 0.98041874E+02</pdfrwt>
<totfact> 0.53573613E+05</totfact>
</mgrwt>
</event>
<event>
 4    1  0.2812958E+004  0.6070545E+02  0.7546771E-02  0.1394895E+00
         21   -1    0    0  503  502  0.00000000000E+00  0.00000000000E+00  0.31768428498E+03  0.31768428498E+03  0.00000000000E+00 0. -1.
         21   -1    0    0  501  503 -0.00000000000E+00 -0.00000000000E+00 -0.26365999438E+02  0.26365999438E+02  0.00000000000E+00 0.  1.
          2    1    1    2  501    0  0.60293315929E+02  0.70617015611E+01  0.16922971681E+02  0.63020143963E+02  0.00000000000E+00 0.  1.
         -2    1    1    2    0  502 -0.60293315929E+02 -0.70617015611E+01  0.27439531386E+03  0.28103014045E+03  0.00000000000E+00 0. -1.
<mgrwt>
<rscale>  2 0.60705449E+02</rscale>
<asrwt>0</asrwt>
<pdfrwt beam="1">  1       21 0.48874503E-01 0.60705449E+02</pdfrwt>
<pdfrwt beam="2">  1       21 0.40563078E-02 0.60705449E+02</pdfrwt>
<totfact> 0.14938489E+06</totfact>
</mgrwt>
</event>
<event>
 4    1  0.2812958E+004  0.2333619E+02  0.7546771E-02  0.1686118E+00
         21   -1    0    0  503  502  0.00000000000E+00  0.00000000000E+00  0.12369579332E+03  0.12369579332E+03  0.00000000000E+00 0. -1.
         21   -1    0    0  501  503 -0.00000000000E+00 -0.00000000000E+00 -0.53397680181E+01  0.53397680181E+01  0.00000000000E+00 0.  1.
          2    1    1    2  501    0 -0.18295852469E+01  0.23264359045E+02  0.32148581134E+02  0.39725420739E+02  0.00000000000E+00 0.  1.
         -2    1    1    2    0  502  0.18295852469E+01 -0.23264359045E+02  0.86207444170E+02  0.89310140601E+02  0.00000000000E+00 0. -1.
<mgrwt>
<rscale>  2 0.23336190E+02</rscale>
<asrwt>0</asrwt>
<pdfrwt beam="1">  1       21 0.19030120E-01 0.23336190E+02</pdfrwt>
<pdfrwt beam="2">  1       21 0.82150287E-03 0.23336190E+02</pdfrwt>
<totfact> 0.90522839E+07</totfact>
</mgrwt>
</event>
<event>
 4    1  0.2812958E+004  0.2560067E+02  0.7546771E-02  0.1652521E+00
         21   -1    0    0  501  502  0.00000000000E+00  0.00000000000E+00  0.45931850612E+02  0.45931850612E+02  0.00000000000E+00 0. -1.
         21   -1    0    0  502  503 -0.00000000000E+00 -0.00000000000E+00 -0.16048925696E+02  0.16048925696E+02  0.00000000000E+00 0.  1.
          2    1    1    2  501    0  0.21478415774E+02  0.13930972467E+02  0.25262519867E+02  0.35966501749E+02  0.00000000000E+00 0. -1.
         -2    1    1    2    0  503 -0.21478415774E+02 -0.13930972467E+02  0.46204050485E+01  0.26014274559E+02  0.00000000000E+00 0.  1.
<mgrwt>
<rscale>  2 0.25600671E+02</rscale>
<asrwt>0</asrwt>
<pdfrwt beam="1">  1       21 0.70664385E-02 0.25600671E+02</pdfrwt>
<pdfrwt beam="2">  1       21 0.24690655E-02 0.25600671E+02</pdfrwt>
<totfact> 0.91611375E+07</totfact>
</mgrwt>
</event>
<event>
 4    1  0.2812958E+004  0.2105773E+02  0.7546771E-02  0.1725077E+00
         21   -1    0    0  503  502  0.00000000000E+00  0.00000000000E+00  0.12223728481E+03  0.12223728481E+03  0.00000000000E+00 0.  1.
         21   -1    0    0  501  503 -0.00000000000E+00 -0.00000000000E+00 -0.67255658908E+01  0.67255658908E+01  0.00000000000E+00 0. -1.
          2    1    1    2  501    0 -0.11078982549E+00 -0.21057437197E+02  0.13992711797E+02  0.25282877983E+02  0.00000000000E+00 0. -1.
         -2    1    1    2    0  502  0.11078982549E+00  0.21057437197E+02  0.10151900713E+03  0.10367997272E+03  0.00000000000E+00 0.  1.
<mgrwt>
<rscale>  2 0.21057729E+02</rscale>
<asrwt>0</asrwt>
<pdfrwt beam="1">  1       21 0.18805735E-01 0.21057729E+02</pdfrwt>
<pdfrwt beam="2">  1       21 0.10347025E-02 0.21057729E+02</pdfrwt>
<totfact> 0.63632140E+07</totfact>
</mgrwt>
</event>
<event>
 4    1  0.2812958E+004  0.2785019E+02  0.7546771E-02  0.1623145E+00
         21   -1    0    0  503  502  0.00000000000E+00  0.00000000000E+00  0.47215801050E+01  0.47215801050E+01  0.00000000000E+00 0. -1.
         21   -1    0    0  501  503 -0.00000000000E+00 -0.00000000000E+00 -0.24929553789E+03  0.24929553789E+03  0.00000000000E+00 0.  1.
          2    1    1    2  501    0  0.17701265876E+02  0.21501126519E+02 -0.19645897983E+03  0.19842319424E+03  0.00000000000E+00 0.  1.
         -2    1    1    2    0  502 -0.17701265876E+02 -0.21501126519E+02 -0.48114977951E+02  0.55593923754E+02  0.00000000000E+00 0. -1.
<mgrwt>
<rscale>  2 0.27850193E+02</rscale>
<asrwt>0</asrwt>
<pdfrwt beam="1">  1       21 0.72639674E-03 0.27850193E+02</pdfrwt>
<pdfrwt beam="2">  1       21 0.38353170E-01 0.27850193E+02</pdfrwt>
<totfact> 0.31940949E+07</totfact>
</mgrwt>
</event>
<event>
 4    1  0.2812958E+004  0.2014059E+02  0.7546771E-02  0.1742547E+00
         21   -1    0    0  503  502  0.00000000000E+00  0.00000000000E+00  0.30794209734E+01  0.30794209734E+01  0.00000000000E+00 0.  1.
         21   -1    0    0  501  503 -0.00000000000E+00 -0.00000000000E+00 -0.15026573470E+03  0.15026573470E+03  0.00000000000E+00 0. -1.
          2    1    1    2  501    0 -0.12159826151E+02  0.16055587470E+02 -0.10052392284E+03  0.10252171635E+03  0.00000000000E+00 0. -1.
         -2    1    1    2    0  502  0.12159826151E+02 -0.16055587470E+02 -0.46662390889E+02  0.50823439322E+02  0.00000000000E+00 0.  1.
<mgrwt>
<rscale>  2 0.20140587E+02</rscale>
<asrwt>0</asrwt>
<pdfrwt beam="1">  1       21 0.47375708E-03 0.20140587E+02</pdfrwt>
<pdfrwt beam="2">  1       21 0.23117805E-01 0.20140587E+02</pdfrwt>
<totfact> 0.13952500E+08</totfact>
</mgrwt>
</event>
<event>
 4    1  0.2812958E+004  0.2391683E+02  0.7546771E-02  0.1677066E+00
         21   -1    0    0  503  502  0.00000000000E+00  0.00000000000E+00  0.12322889414E+03  0.12322889414E+03  0.00000000000E+00 0.  1.
         21   -1    0    0  501  503 -0.00000000000E+00 -0.00000000000E+00 -0.53709965428E+01  0.53709965428E+01  0.00000000000E+00 0. -1.
          2    1    1    2  501    0 -0.12618774612E+02  0.20317020793E+02  0.35238184964E+02  0.42588079155E+02  0.00000000000E+00 0.  1.
         -2    1    1    2    0  502  0.12618774612E+02 -0.20317020793E+02  0.82619712634E+02  0.86011811528E+02  0.00000000000E+00 0. -1.
<mgrwt>
<rscale>  2 0.23916831E+02</rscale>
<asrwt>0</asrwt>
<pdfrwt beam="1">  1       21 0.18958289E-01 0.23916831E+02</pdfrwt>
<pdfrwt beam="2">  1       21 0.82630725E-03 0.23916831E+02</pdfrwt>
<totfact> 0.90935012E+07</totfact>
</mgrwt>
</event>
<event>
 4    1  0.2812958E+004  0.2457810E+02  0.7546771E-02  0.1667137E+00
         21   -1    0    0  503  502  0.00000000000E+00  0.00000000000E+00  0.50995320645E+01  0.50995320645E+01  0.00000000000E+00 0.  1.
         21   -1    0    0  501  503 -0.00000000000E+00 -0.00000000000E+00 -0.13999375103E+03  0.13999375103E+03  0.00000000000E+00 0. -1.
          2    1    1    2  501    0  0.24568844810E+02 -0.67461167646E+00 -0.38993502457E+02  0.46093128230E+02  0.00000000000E+00 0.  1.
         -2    1    1    2    0  502 -0.24568844810E+02  0.67461167646E+00 -0.95900716508E+02  0.99000154863E+02  0.00000000000E+00 0. -1.
<mgrwt>
<rscale>  2 0.24578105E+02</rscale>
<asrwt>0</asrwt>
<pdfrwt beam="1">  1       21 0.78454341E-03 0.24578105E+02</pdfrwt>
<pdfrwt beam="2">  1       21 0.21537500E-01 0.24578105E+02</pdfrwt>
<totfact> 0.79170904E+07</totfact>
</mgrwt>
</event>
<event>
 4    1  0.2812958E+004  0.2352937E+02  0.7546771E-02  0.1683070E+00
         21   -1    0    0  503  502  0.00000000000E+00  0.00000000000E+00  0.89092554195E+01  0.89092554195E+01  0.00000000000E+00 0.  1.
         21   -1    0    0  501  503 -0.00000000000E+00 -0.00000000000E+00 -0.67854961890E+02  0.67854961890E+02  0.00000000000E+00 0. -1.
          2    1    1    2  501    0  0.18057960325E+02 -0.15084466413E+02 -0.40610728671E+02  0.46934660341E+02  0.00000000000E+00 0. -1.
         -2    1    1    2    0  502 -0.18057960325E+02  0.15084466413E+02 -0.18334977799E+02  0.29829556969E+02  0.00000000000E+00 0.  1.
<mgrwt>
<rscale>  2 0.23529366E+02</rscale>
<asrwt>0</asrwt>
<pdfrwt beam="1">  1       21 0.13706547E-02 0.23529366E+02</pdfrwt>
<pdfrwt beam="2">  1       21 0.10439225E-01 0.23529366E+02</pdfrwt>
<totfact> 0.11628801E+08</totfact>
</mgrwt>
</event>
<event>
 4    1  0.2812958E+004  0.2663056E+02  0.7546771E-02  0.1638629E+00
         21   -1    0    0  503  502  0.00000000000E+00  0.00000000000E+00  0.66080175562E+02  0.66080175562E+02  0.00000000000E+00 0. -1.
         21   -1    0    0  501  503 -0.00000000000E+00 -0.00000000000E+00 -0.10732519217E+02  0.10732519217E+02  0.00000000000E+00 0.  1.
          2    1    1    2  501    0 -0.39489112491E+01  0.26336153980E+02  0.27877003195E+02  0.38552745864E+02  0.00000000000E+00 0.  1.
         -2    1    1    2    0  502  0.39489112491E+01 -0.26336153980E+02  0.27470653150E+02  0.38259948915E+02  0.00000000000E+00 0. -1.
<mgrwt>
<rscale>  2 0.26630563E+02</rscale>
<asrwt>0</asrwt>
<pdfrwt beam="1">  1       21 0.10166181E-01 0.26630563E+02</pdfrwt>
<pdfrwt beam="2">  1       21 0.16511569E-02 0.26630563E+02</pdfrwt>
<totfact> 0.94597254E+07</totfact>
</mgrwt>
</event>
<event>
 4    1  0.2812958E+004  0.2221075E+02  0.7546771E-02  0.1704633E+00
         21   -1    0    0  503  502  0.00000000000E+00  0.00000000000E+00  0.13021102439E+02  0.13021102439E+02  0.00000000000E+00 0.  1.
         21   -1    0    0  501  503 -0.00000000000E+00 -0.00000000000E+00 -0.91425954169E+02  0.91425954169E+02  0.00000000000E+00 0. -1.
          2    1    1    2  501    0  0.13096653304E+02  0.17938644017E+02 -0.79166570521E+02  0.82223251973E+02  0.00000000000E+00 0. -1.
         -2    1    1    2    0  502 -0.13096653304E+02 -0.17938644017E+02  0.76171879140E+00  0.22223804635E+02  0.00000000000E+00 0.  1.
<mgrwt>
<rscale>  2 0.22210747E+02</rscale>
<asrwt>0</asrwt>
<pdfrwt beam="1">  1       21 0.20032465E-02 0.22210747E+02</pdfrwt>
<pdfrwt beam="2">  1       21 0.14065531E-01 0.22210747E+02</pdfrwt>
<totfact> 0.38957130E+07</totfact>
</mgrwt>
</event>
<event>
 4    1  0.2812958E+004  0.2427630E+02  0.7546771E-02  0.1671620E+00
         21   -1    0    0  501  502  0.00000000000E+00  0.00000000000E+00  0.15473429475E+02  0.15473429475E+02  0.00000000000E+00 0. -1.
         21   -1    0    0  502  503 -0.00000000000E+00 -0.00000000000E+00 -0.38097149310E+02  0.38097149310E+02  0.00000000000E+00 0.  1.
          2    1    1    2  501    0  0.24273410840E+02 -0.37482652505E+00 -0.10878109858E+02  0.26602109743E+02  0.00000000000E+00 0.  1.
         -2    1    1    2    0  503 -0.24273410840E+02  0.37482652505E+00 -0.11745609977E+02  0.26968469042E+02  0.00000000000E+00 0. -1.
<mgrwt>
<rscale>  2 0.24276305E+02</rscale>
<asrwt>0</asrwt>
<pdfrwt beam="1">  1       21 0.23805276E-02 0.24276305E+02</pdfrwt>
<pdfrwt beam="2">  1       21 0.58610999E-02 0.24276305E+02</pdfrwt>
<totfact> 0.12931653E+08</totfact>
</mgrwt>
</event>
<event>
 4    1  0.2812958E+004  0.2778451E+02  0.7546771E-02  0.1623954E+00
         21   -1    0    0  503  502  0.00000000000E+00  0.00000000000E+00  0.14642279346E+03  0.14642279346E+03  0.00000000000E+00 0. -1.
         21   -1    0    0  501  503 -0.00000000000E+00 -0.00000000000E+00 -0.48545994367E+02  0.48545994367E+02  0.00000000000E+00 0.  1.
          2    1    1    2  501    0  0.27764877161E+02  0.10442519385E+01 -0.43100324353E+02  0.51279789637E+02  0.00000000000E+00 0.  1.
         -2    1    1    2    0  502 -0.27764877161E+02 -0.10442519385E+01  0.14097712344E+03  0.14368899819E+03  0.00000000000E+00 0. -1.
<mgrwt>
<rscale>  2 0.27784508E+02</rscale>
<asrwt>0</asrwt>
<pdfrwt beam="1">  1       21 0.22526583E-01 0.27784508E+02</pdfrwt>
<pdfrwt beam="2">  1       21 0.74686146E-02 0.27784508E+02</pdfrwt>
<totfact> 0.22403284E+06</totfact>
</mgrwt>
</event>
<event>
 4    1  0.2812958E+004  0.4228327E+02  0.7546771E-02  0.1492051E+00
         21   -1    0    0  503  502  0.00000000000E+00  0.00000000000E+00  0.17496936511E+01  0.17496936511E+01  0.00000000000E+00 0.  1.
         21   -1    0    0  501  503 -0.00000000000E+00 -0.00000000000E+00 -0.10638480183E+04  0.10638480183E+04  0.00000000000E+00 0. -1.
          2    1    1    2  501    0 -0.18334196152E+02 -0.38101602870E+02 -0.63694632225E+03  0.63834825316E+03  0.00000000000E+00 0.  1.
         -2    1    1    2    0  502  0.18334196152E+02  0.38101602870E+02 -0.42515200236E+03  0.42724945874E+03  0.00000000000E+00 0. -1.
<mgrwt>
<rscale>  2 0.42283270E+02</rscale>
<asrwt>0</asrwt>
<pdfrwt beam="1">  1       21 0.26918429E-03 0.42283270E+02</pdfrwt>
<pdfrwt beam="2">  1       21 0.16366853E+00 0.42283270E+02</pdfrwt>
<totfact> 0.65421784E+06</totfact>
</mgrwt>
</event>
<event>
 4    1  0.2812958E+004  0.3609553E+02  0.7546771E-02  0.1539082E+00
         21   -1    0    0  501  502  0.00000000000E+00  0.00000000000E+00  0.58495185990E+02  0.58495185990E+02  0.00000000000E+00 0.  1.
         21   -1    0    0  502  503 -0.00000000000E+00 -0.00000000000E+00 -0.48033977456E+02  0.48033977456E+02  0.00000000000E+00 0. -1.
          2    1    1    2  501    0 -0.35735876356E+02 -0.50827724379E+01  0.44237548879E+02  0.57095080046E+02  0.00000000000E+00 0.  1.
         -2    1    1    2    0  503  0.35735876356E+02  0.50827724379E+01 -0.33776340345E+02  0.49434083400E+02  0.00000000000E+00 0. -1.
<mgrwt>
<rscale>  2 0.36095532E+02</rscale>
<asrwt>0</asrwt>
<pdfrwt beam="1">  1       21 0.89992593E-02 0.36095532E+02</pdfrwt>
<pdfrwt beam="2">  1       21 0.73898427E-02 0.36095532E+02</pdfrwt>
<totfact> 0.11440624E+07</totfact>
</mgrwt>
</event>
<event>
 4    1  0.2812958E+004  0.2306028E+02  0.7546771E-02  0.1690535E+00
         21   -1    0    0  503  502  0.00000000000E+00  0.00000000000E+00  0.48547342072E+02  0.48547342072E+02  0.00000000000E+00 0. -1.
         21   -1    0    0  501  503 -0.00000000000E+00 -0.00000000000E+00 -0.11086121426E+02  0.11086121426E+02  0.00000000000E+00 0.  1.
          2    1    1    2  501    0 -0.18533086350E+02  0.13722291581E+02  0.15472774171E+02  0.27770187548E+02  0.00000000000E+00 0.  1.
         -2    1    1    2    0  502  0.18533086350E+02 -0.13722291581E+02  0.21988446475E+02  0.31863275950E+02  0.00000000000E+00 0. -1.
<mgrwt>
<rscale>  2 0.23060281E+02</rscale>
<asrwt>0</asrwt>
<pdfrwt beam="1">  1       21 0.74688218E-02 0.23060281E+02</pdfrwt>
<pdfrwt beam="2">  1       21 0.17055572E-02 0.23060281E+02</pdfrwt>
<totfact> 0.14365493E+08</totfact>
</mgrwt>
</event>
<event>
 4    1  0.2812958E+004  0.2909810E+02  0.7546771E-02  0.1608277E+00
         21   -1    0    0  501  502  0.00000000000E+00  0.00000000000E+00  0.69324944736E+01  0.69324944736E+01  0.00000000000E+00 0.  1.
         21   -1    0    0  502  503 -0.00000000000E+00 -0.00000000000E+00 -0.18605699539E+03  0.18605699539E+03  0.00000000000E+00 0. -1.
          2    1    1    2  501    0 -0.10732488599E+02 -0.27046497870E+02 -0.33002661969E+02  0.43998580155E+02  0.00000000000E+00 0.  1.
         -2    1    1    2    0  503  0.10732488599E+02  0.27046497870E+02 -0.14612183895E+03  0.14899090971E+03  0.00000000000E+00 0. -1.
<mgrwt>
<rscale>  2 0.29098099E+02</rscale>
<asrwt>0</asrwt>
<pdfrwt beam="1">  1       21 0.10665377E-02 0.29098099E+02</pdfrwt>
<pdfrwt beam="2">  1       21 0.28624152E-01 0.29098099E+02</pdfrwt>
<totfact> 0.31098075E+07</totfact>
</mgrwt>
</event>
<event>
 4    1  0.2812958E+004  0.2033057E+02  0.7546771E-02  0.1738833E+00
         21   -1    0    0  503  502  0.00000000000E+00  0.00000000000E+00  0.29171449679E+03  0.29171449679E+03  0.00000000000E+00 0. -1.
         21   -1    0    0  501  503 -0.00000000000E+00 -0.00000000000E+00 -0.20442477279E+01  0.20442477279E+01  0.00000000000E+00 0.  1.
          2    1    1    2  501    0  0.37535391808E+01 -0.19981070266E+02  0.63468576588E+02  0.66645273197E+02  0.00000000000E+00 0.  1.
         -2    1    1    2    0  502 -0.37535391808E+01  0.19981070266E+02  0.22620167247E+03  0.22711347132E+03  0.00000000000E+00 0. -1.
<mgrwt>
<rscale>  2 0.20330574E+02</rscale>
<asrwt>0</asrwt>
<pdfrwt beam="1">  1       21 0.44879120E-01 0.20330574E+02</pdfrwt>
<pdfrwt beam="2">  1       21 0.31449988E-03 0.20330574E+02</pdfrwt>
<totfact> 0.75752096E+07</totfact>
</mgrwt>
</event>
<event>
 4    1  0.2812958E+004  0.2164721E+02  0.7546771E-02  0.1714426E+00
         21   -1    0    0  503  502  0.00000000000E+00  0.00000000000E+00  0.24251669165E+02  0.24251669165E+02  0.00000000000E+00 0. -1.
         21   -1    0    0  501  503 -0.00000000000E+00 -0.00000000000E+00 -0.75166992645E+02  0.75166992645E+02  0.00000000000E+00 0.  1.
          2    1    1    2  501    0 -0.17396659514E+02 -0.12882460929E+02 -0.68304099025E+02  0.71652295884E+02  0.00000000000E+00 0.  1.
         -2    1    1    2    0  502  0.17396659514E+02  0.12882460929E+02  0.17388775545E+02  0.27766365926E+02  0.00000000000E+00 0. -1.
<mgrwt>
<rscale>  2 0.21647207E+02</rscale>
<asrwt>0</asrwt>
<pdfrwt beam="1">  1       21 0.37310261E-02 0.21647207E+02</pdfrwt>
<pdfrwt beam="2">  1       21 0.11564153E-01 0.21647207E+02</pdfrwt>
<totfact> 0.20523181E+07</totfact>
</mgrwt>
</event>
<event>
 4    1  0.2812958E+004  0.2133360E+02  0.7546771E-02  0.1720038E+00
         21   -1    0    0  501  502  0.00000000000E+00  0.00000000000E+00  0.14319966023E+03  0.14319966023E+03  0.00000000000E+00 0. -1.
         21   -1    0    0  502  503 -0.00000000000E+00 -0.00000000000E+00 -0.35812925660E+01  0.35812925660E+01  0.00000000000E+00 0.  1.
          2    1    1    2  501    0  0.25477384911E+01 -0.21180924855E+02  0.94429970596E+02  0.96809823344E+02  0.00000000000E+00 0.  1.
         -2    1    1    2    0  503 -0.25477384911E+01  0.21180924855E+02  0.45188397070E+02  0.49971129454E+02  0.00000000000E+00 0. -1.
<mgrwt>
<rscale>  2 0.21333601E+02</rscale>
<asrwt>0</asrwt>
<pdfrwt beam="1">  1       21 0.22030713E-01 0.21333601E+02</pdfrwt>
<pdfrwt beam="2">  1       21 0.55096820E-03 0.21333601E+02</pdfrwt>
<totfact> 0.12368468E+08</totfact>
</mgrwt>
</event>
<event>
 4    1  0.2812958E+004  0.2196936E+02  0.7546771E-02  0.1708782E+00
         21   -1    0    0  503  502  0.00000000000E+00  0.00000000000E+00  0.45360781195E+01  0.45360781195E+01  0.00000000000E+00 0. -1.
         21   -1    0    0  501  503 -0.00000000000E+00 -0.00000000000E+00 -0.15861522376E+04  0.15861522376E+04  0.00000000000E+00 0.  1.
          2    1    1    2  501    0 -0.82042449146E+01  0.20379972541E+02 -0.15590123278E+04  0.15591671145E+04  0.00000000000E+00 0.  1.
         -2    1    1    2    0  502  0.82042449146E+01 -0.20379972541E+02 -0.22603831676E+02  0.31521201148E+02  0.00000000000E+00 0. -1.
<mgrwt>
<rscale>  2 0.21969363E+02</rscale>
<asrwt>0</asrwt>
<pdfrwt beam="1">  1       21 0.69785751E-03 0.21969363E+02</pdfrwt>
<pdfrwt beam="2">  1       21 0.24402365E+00 0.21969363E+02</pdfrwt>
<totfact> 0.54138862E+05</totfact>
</mgrwt>
</event>
<event>
 4    1  0.2812958E+004  0.2085527E+02  0.7546771E-02  0.1728836E+00
         21   -1    0    0  501  502  0.00000000000E+00  0.00000000000E+00  0.86081925980E+03  0.86081925980E+03  0.00000000000E+00 0. -1.
         21   -1    0    0  502  503 -0.00000000000E+00 -0.00000000000E+00 -0.51087770313E+00  0.51087770313E+00  0.00000000000E+00 0.  1.
          2    1    1    2  501    0 -0.19996400527E+02  0.59233657126E+01  0.38501571536E+03  0.38558013871E+03  0.00000000000E+00 0. -1.
         -2    1    1    2    0  503  0.19996400527E+02 -0.59233657126E+01  0.47529266674E+03  0.47574999879E+03  0.00000000000E+00 0.  1.
<mgrwt>
<rscale>  2 0.20855270E+02</rscale>
<asrwt>0</asrwt>
<pdfrwt beam="1">  1       21 0.13243257E+00 0.20855270E+02</pdfrwt>
<pdfrwt beam="2">  1       21 0.78597259E-04 0.20855270E+02</pdfrwt>
<totfact> 0.58266700E+07</totfact>
</mgrwt>
</event>
<event>
 4    1  0.2812958E+004  0.2570122E+02  0.7546771E-02  0.1651130E+00
         21   -1    0    0  503  502  0.00000000000E+00  0.00000000000E+00  0.62860725873E+01  0.62860725873E+01  0.00000000000E+00 0.  1.
         21   -1    0    0  501  503 -0.00000000000E+00 -0.00000000000E+00 -0.51513347712E+03  0.51513347712E+03  0.00000000000E+00 0. -1.
          2    1    1    2  501    0  0.16526271717E+02 -0.19683369089E+02 -0.48702741996E+03  0.48770509580E+03  0.00000000000E+00 0. -1.
         -2    1    1    2    0  502 -0.16526271717E+02  0.19683369089E+02 -0.21819984573E+02  0.33714453908E+02  0.00000000000E+00 0.  1.
<mgrwt>
<rscale>  2 0.25701219E+02</rscale>
<asrwt>0</asrwt>
<pdfrwt beam="1">  1       21 0.96708800E-03 0.25701219E+02</pdfrwt>
<pdfrwt beam="2">  1       21 0.79251312E-01 0.25701219E+02</pdfrwt>
<totfact> 0.48387166E+06</totfact>
</mgrwt>
</event>
<event>
 4    1  0.2812958E+004  0.2033360E+02  0.7546771E-02  0.1738774E+00
         21   -1    0    0  501  502  0.00000000000E+00  0.00000000000E+00  0.11968690688E+02  0.11968690688E+02  0.00000000000E+00 0.  1.
         21   -1    0    0  502  503 -0.00000000000E+00 -0.00000000000E+00 -0.49830309316E+02  0.49830309316E+02  0.00000000000E+00 0. -1.
          2    1    1    2  501    0  0.16619509656E+02  0.11715247937E+02 -0.18170399589E+01  0.20414621467E+02  0.00000000000E+00 0.  1.
         -2    1    1    2    0  503 -0.16619509656E+02 -0.11715247937E+02 -0.36044578669E+02  0.41384378537E+02  0.00000000000E+00 0. -1.
<mgrwt>
<rscale>  2 0.20333596E+02</rscale>
<asrwt>0</asrwt>
<pdfrwt beam="1">  1       21 0.18413370E-02 0.20333596E+02</pdfrwt>
<pdfrwt beam="2">  1       21 0.76662015E-02 0.20333596E+02</pdfrwt>
<totfact> 0.11797808E+08</totfact>
</mgrwt>
</event>
<event>
 4    1  0.2812958E+004  0.2442874E+02  0.7546771E-02  0.1669345E+00
         21   -1    0    0  501  502  0.00000000000E+00  0.00000000000E+00  0.48239634235E+03  0.48239634235E+03  0.00000000000E+00 0.  1.
         21   -1    0    0  502  503 -0.00000000000E+00 -0.00000000000E+00 -0.13233119280E+01  0.13233119280E+01  0.00000000000E+00 0. -1.
          2    1    1    2  501    0  0.23890290006E+02 -0.51007011908E+01  0.30227634240E+03  0.30326185102E+03  0.00000000000E+00 0. -1.
         -2    1    1    2    0  503 -0.23890290006E+02  0.51007011908E+01  0.17879668802E+03  0.18045780326E+03  0.00000000000E+00 0.  1.
<mgrwt>
<rscale>  2 0.24428735E+02</rscale>
<asrwt>0</asrwt>
<pdfrwt beam="1">  1       21 0.74214682E-01 0.24428735E+02</pdfrwt>
<pdfrwt beam="2">  1       21 0.20358683E-03 0.24428735E+02</pdfrwt>
<totfact> 0.54817928E+07</totfact>
</mgrwt>
</event>
<event>
 4    1  0.2812958E+004  0.2359108E+02  0.7546771E-02  0.1682104E+00
         21   -1    0    0  503  502  0.00000000000E+00  0.00000000000E+00  0.12633856179E+01  0.12633856179E+01  0.00000000000E+00 0.  1.
         21   -1    0    0  501  503 -0.00000000000E+00 -0.00000000000E+00 -0.81028556799E+03  0.81028556799E+03  0.00000000000E+00 0. -1.
          2    1    1    2  501    0 -0.13755156495E+02 -0.19165981190E+02 -0.67862582483E+03  0.67903574965E+03  0.00000000000E+00 0. -1.
         -2    1    1    2    0  502  0.13755156495E+02  0.19165981190E+02 -0.13039635754E+03  0.13251320396E+03  0.00000000000E+00 0.  1.
<mgrwt>
<rscale>  2 0.23591082E+02</rscale>
<asrwt>0</asrwt>
<pdfrwt beam="1">  1       21 0.19436760E-03 0.23591082E+02</pdfrwt>
<pdfrwt beam="2">  1       21 0.12465895E+00 0.23591082E+02</pdfrwt>
<totfact> 0.18825768E+07</totfact>
</mgrwt>
</event>
<event>
 4    1  0.2812958E+004  0.2082951E+02  0.7546771E-02  0.1729318E+00
         21   -1    0    0  501  502  0.00000000000E+00  0.00000000000E+00  0.10787129624E+03  0.10787129624E+03  0.00000000000E+00 0.  1.
         21   -1    0    0  502  503 -0.00000000000E+00 -0.00000000000E+00 -0.54274325722E+01  0.54274325722E+01  0.00000000000E+00 0. -1.
          2    1    1    2  501    0  0.10295652423E+02 -0.18107126512E+02  0.80048192685E+02  0.82713853988E+02  0.00000000000E+00 0.  1.
         -2    1    1    2    0  503 -0.10295652423E+02  0.18107126512E+02  0.22395670985E+02  0.30584874827E+02  0.00000000000E+00 0. -1.
<mgrwt>
<rscale>  2 0.20829510E+02</rscale>
<asrwt>0</asrwt>
<pdfrwt beam="1">  1       21 0.16595582E-01 0.20829510E+02</pdfrwt>
<pdfrwt beam="2">  1       21 0.83498971E-03 0.20829510E+02</pdfrwt>
<totfact> 0.10834246E+08</totfact>
</mgrwt>
</event>
<event>
 4    1  0.2812958E+004  0.2036690E+02  0.7546771E-02  0.1738129E+00
         21   -1    0    0  503  502  0.00000000000E+00  0.00000000000E+00  0.29658758897E+03  0.29658758897E+03  0.00000000000E+00 0. -1.
         21   -1    0    0  501  503 -0.00000000000E+00 -0.00000000000E+00 -0.16694246732E+01  0.16694246732E+01  0.00000000000E+00 0.  1.
          2    1    1    2  501    0 -0.18179497679E+02 -0.91824020727E+01  0.87395309735E+02  0.89737120565E+02  0.00000000000E+00 0.  1.
         -2    1    1    2    0  502  0.18179497679E+02  0.91824020727E+01  0.20752285456E+03  0.20851989307E+03  0.00000000000E+00 0. -1.
<mgrwt>
<rscale>  2 0.20366901E+02</rscale>
<asrwt>0</asrwt>
<pdfrwt beam="1">  1       21 0.45628818E-01 0.20366901E+02</pdfrwt>
<pdfrwt beam="2">  1       21 0.25683480E-03 0.20366901E+02</pdfrwt>
<totfact> 0.98484711E+07</totfact>
</mgrwt>
</event>
<event>
 4    1  0.2812958E+004  0.2455719E+02  0.7546771E-02  0.1667445E+00
         21   -1    0    0  501  502  0.00000000000E+00  0.00000000000E+00  0.23642673240E+03  0.23642673240E+03  0.00000000000E+00 0.  1.
         21   -1    0    0  502  503 -0.00000000000E+00 -0.00000000000E+00 -0.42873535241E+01  0.42873535241E+01  0.00000000000E+00 0. -1.
          2    1    1    2  501    0 -0.22287811483E+02 -0.10310634211E+02  0.19267032391E+03  0.19422901285E+03  0.00000000000E+00 0.  1.
         -2    1    1    2    0  503  0.22287811483E+02  0.10310634211E+02  0.39469054970E+02  0.46485073075E+02  0.00000000000E+00 0. -1.
<mgrwt>
<rscale>  2 0.24557193E+02</rscale>
<asrwt>0</asrwt>
<pdfrwt beam="1">  1       21 0.36373333E-01 0.24557193E+02</pdfrwt>
<pdfrwt beam="2">  1       21 0.65959303E-03 0.24557193E+02</pdfrwt>
<totfact> 0.39687155E+07</totfact>
</mgrwt>
</event>
<event>
 4    1  0.2812958E+004  0.2040111E+02  0.7546771E-02  0.1737467E+00
         21   -1    0    0  501  502  0.00000000000E+00  0.00000000000E+00  0.61551222144E+02  0.61551222144E+02  0.00000000000E+00 0. -1.
         21   -1    0    0  502  503 -0.00000000000E+00 -0.00000000000E+00 -0.10612891620E+02  0.10612891620E+02  0.00000000000E+00 0.  1.
          2    1    1    2  501    0 -0.14132407196E+02  0.14713273708E+02  0.47204120085E+02  0.51424063524E+02  0.00000000000E+00 0. -1.
         -2    1    1    2    0  503  0.14132407196E+02 -0.14713273708E+02  0.37342104389E+01  0.20740050240E+02  0.00000000000E+00 0.  1.
<mgrwt>
<rscale>  2 0.20401112E+02</rscale>
<asrwt>0</asrwt>
<pdfrwt beam="1">  1       21 0.94694185E-02 0.20401112E+02</pdfrwt>
<pdfrwt beam="2">  1       21 0.16327526E-02 0.20401112E+02</pdfrwt>
<totfact> 0.10048547E+08</totfact>
</mgrwt>
</event>
<event>
 4    1  0.2812958E+004  0.4051635E+02  0.7546771E-02  0.1504446E+00
         21   -1    0    0  503  502  0.00000000000E+00  0.00000000000E+00  0.95411296934E+01  0.95411296934E+01  0.00000000000E+00 0.  1.
         21   -1    0    0  501  503 -0.00000000000E+00 -0.00000000000E+00 -0.24406978023E+03  0.24406978023E+03  0.00000000000E+00 0. -1.
          2    1    1    2  501    0  0.39979535822E+02  0.65735516975E+01 -0.18614531840E+03  0.19050368613E+03  0.00000000000E+00 0. -1.
         -2    1    1    2    0  502 -0.39979535822E+02 -0.65735516975E+01 -0.48383332138E+02  0.63107223796E+02  0.00000000000E+00 0.  1.
<mgrwt>
<rscale>  2 0.40516353E+02</rscale>
<asrwt>0</asrwt>
<pdfrwt beam="1">  1       21 0.14678663E-02 0.40516353E+02</pdfrwt>
<pdfrwt beam="2">  1       21 0.37549191E-01 0.40516353E+02</pdfrwt>
<totfact> 0.12124406E+07</totfact>
</mgrwt>
</event>
<event>
 4    1  0.2812958E+004  0.2983991E+02  0.7546771E-02  0.1599865E+00
         21   -1    0    0  501  502  0.00000000000E+00  0.00000000000E+00  0.82242032722E+03  0.82242032722E+03  0.00000000000E+00 0.  1.
         21   -1    0    0  502  503 -0.00000000000E+00 -0.00000000000E+00 -0.18530321390E+01  0.18530321390E+01  0.00000000000E+00 0. -1.
          2    1    1    2  501    0  0.26074234907E+02 -0.14510492467E+02  0.67601556805E+03  0.67667382716E+03  0.00000000000E+00 0.  1.
         -2    1    1    2    0  503 -0.26074234907E+02  0.14510492467E+02  0.14455172702E+03  0.14759953219E+03  0.00000000000E+00 0. -1.
<mgrwt>
<rscale>  2 0.29839908E+02</rscale>
<asrwt>0</asrwt>
<pdfrwt beam="1">  1       21 0.12652591E+00 0.29839908E+02</pdfrwt>
<pdfrwt beam="2">  1       21 0.28508252E-03 0.29839908E+02</pdfrwt>
<totfact> 0.10795113E+07</totfact>
</mgrwt>
</event>
<event>
 4    1  0.2812958E+004  0.3251244E+02  0.7546771E-02  0.1571869E+00
         21   -1    0    0  503  502  0.00000000000E+00  0.00000000000E+00  0.84372968118E+02  0.84372968118E+02  0.00000000000E+00 0.  1.
         21   -1    0    0  501  503 -0.00000000000E+00 -0.00000000000E+00 -0.10194988675E+03  0.10194988675E+03  0.00000000000E+00 0. -1.
          2    1    1    2  501    0  0.28806471324E+02  0.15074673233E+02 -0.96038109787E+02  0.10139219445E+03  0.00000000000E+00 0. -1.
         -2    1    1    2    0  502 -0.28806471324E+02 -0.15074673233E+02  0.78461191152E+02  0.84930660425E+02  0.00000000000E+00 0.  1.
<mgrwt>
<rscale>  2 0.32512437E+02</rscale>
<asrwt>0</asrwt>
<pdfrwt beam="1">  1       21 0.12980457E-01 0.32512437E+02</pdfrwt>
<pdfrwt beam="2">  1       21 0.15684598E-01 0.32512437E+02</pdfrwt>
<totfact> 0.17058021E+06</totfact>
</mgrwt>
</event>
<event>
 4    1  0.2812958E+004  0.2728965E+02  0.7546771E-02  0.1630138E+00
         21   -1    0    0  501  502  0.00000000000E+00  0.00000000000E+00  0.28499785561E+03  0.28499785561E+03  0.00000000000E+00 0.  1.
         21   -1    0    0  502  503 -0.00000000000E+00 -0.00000000000E+00 -0.37044280017E+01  0.37044280017E+01  0.00000000000E+00 0. -1.
          2    1    1    2  501    0 -0.27180704369E+02  0.24360225402E+01  0.21899678376E+03  0.22069054396E+03  0.00000000000E+00 0.  1.
         -2    1    1    2    0  503  0.27180704369E+02 -0.24360225402E+01  0.62296643852E+02  0.68011739656E+02  0.00000000000E+00 0. -1.
<mgrwt>
<rscale>  2 0.27289648E+02</rscale>
<asrwt>0</asrwt>
<pdfrwt beam="1">  1       21 0.43845807E-01 0.27289648E+02</pdfrwt>
<pdfrwt beam="2">  1       21 0.56991223E-03 0.27289648E+02</pdfrwt>
<totfact> 0.35411729E+07</totfact>
</mgrwt>
</event>
<event>
 4    1  0.2812958E+004  0.2342885E+02  0.7546771E-02  0.1684651E+00
         21   -1    0    0  503  502  0.00000000000E+00  0.00000000000E+00  0.83655820291E+01  0.83655820291E+01  0.00000000000E+00 0.  1.
         21   -1    0    0  501  503 -0.00000000000E+00 -0.00000000000E+00 -0.29302775365E+03  0.29302775365E+03  0.00000000000E+00 0. -1.
          2    1    1    2  501    0  0.21185204687E+02  0.10004915996E+02 -0.27508773181E+03  0.27608363123E+03  0.00000000000E+00 0. -1.
         -2    1    1    2    0  502 -0.21185204687E+02 -0.10004915996E+02 -0.95744398172E+01  0.25309704454E+02  0.00000000000E+00 0.  1.
<mgrwt>
<rscale>  2 0.23428855E+02</rscale>
<asrwt>0</asrwt>
<pdfrwt beam="1">  1       21 0.12870129E-02 0.23428855E+02</pdfrwt>
<pdfrwt beam="2">  1       21 0.45081182E-01 0.23428855E+02</pdfrwt>
<totfact> 0.96049713E+06</totfact>
</mgrwt>
</event>
<event>
 4    1  0.2812958E+004  0.3567284E+02  0.7546771E-02  0.1542705E+00
         21   -1    0    0  503  502  0.00000000000E+00  0.00000000000E+00  0.37757588463E+03  0.37757588463E+03  0.00000000000E+00 0. -1.
         21   -1    0    0  501  503 -0.00000000000E+00 -0.00000000000E+00 -0.49601017303E+01  0.49601017303E+01  0.00000000000E+00 0.  1.
          2    1    1    2  501    0 -0.16300229428E+02  0.31730963000E+02  0.78023519237E+02  0.85791730641E+02  0.00000000000E+00 0.  1.
         -2    1    1    2    0  502  0.16300229428E+02 -0.31730963000E+02  0.29459226366E+03  0.29674425571E+03  0.00000000000E+00 0. -1.
<mgrwt>
<rscale>  2 0.35672840E+02</rscale>
<asrwt>0</asrwt>
<pdfrwt beam="1">  1       21 0.58088575E-01 0.35672840E+02</pdfrwt>
<pdfrwt beam="2">  1       21 0.76309287E-03 0.35672840E+02</pdfrwt>
<totfact> 0.13747610E+07</totfact>
</mgrwt>
</event>
<event>
 4    1  0.2812958E+004  0.2157885E+02  0.7546771E-02  0.1715639E+00
         21   -1    0    0  503  502  0.00000000000E+00  0.00000000000E+00  0.27683336678E+01  0.27683336678E+01  0.00000000000E+00 0.  1.
         21   -1    0    0  501  503 -0.00000000000E+00 -0.00000000000E+00 -0.20521120531E+03  0.20521120531E+03  0.00000000000E+00 0. -1.
          2    1    1    2  501    0 -0.19774627268E+02  0.86377479633E+01 -0.14538147578E+03  0.14697421568E+03  0.00000000000E+00 0. -1.
         -2    1    1    2    0  502  0.19774627268E+02 -0.86377479633E+01 -0.57061395858E+02  0.61005323298E+02  0.00000000000E+00 0.  1.
<mgrwt>
<rscale>  2 0.21578846E+02</rscale>
<asrwt>0</asrwt>
<pdfrwt beam="1">  1       21 0.42589730E-03 0.21578846E+02</pdfrwt>
<pdfrwt beam="2">  1       21 0.31570969E-01 0.21578846E+02</pdfrwt>
<totfact> 0.95207146E+07</totfact>
</mgrwt>
</event>
<event>
 4    1  0.2812958E+004  0.4814264E+02  0.7546771E-02  0.1455625E+00
         21   -1    0    0  501  502  0.00000000000E+00  0.00000000000E+00  0.29163630107E+03  0.29163630107E+03  0.00000000000E+00 0. -1.
         21   -1    0    0  502  503 -0.00000000000E+00 -0.00000000000E+00 -0.15017073859E+02  0.15017073859E+02  0.00000000000E+00 0.  1.
          2    1    1    2  501    0  0.32426471319E+02 -0.35584233170E+02  0.24351273944E+03  0.24822604207E+03  0.00000000000E+00 0. -1.
         -2    1    1    2    0  503 -0.32426471319E+02  0.35584233170E+02  0.33106487771E+02  0.58427332859E+02  0.00000000000E+00 0.  1.
<mgrwt>
<rscale>  2 0.48142639E+02</rscale>
<asrwt>0</asrwt>
<pdfrwt beam="1">  1       21 0.44867119E-01 0.48142639E+02</pdfrwt>
<pdfrwt beam="2">  1       21 0.23103193E-02 0.48142639E+02</pdfrwt>
<totfact> 0.43034518E+06</totfact>
</mgrwt>
</event>
<event>
 4    1  0.2812958E+004  0.2390705E+02  0.7546771E-02  0.1677215E+00
         21   -1    0    0  501  502  0.00000000000E+00  0.00000000000E+00  0.42020170412E+01  0.42020170412E+01  0.00000000000E+00 0. -1.
         21   -1    0    0  502  503 -0.00000000000E+00 -0.00000000000E+00 -0.19346620616E+03  0.19346620616E+03  0.00000000000E+00 0.  1.
          2    1    1    2  501    0 -0.22913797603E+02 -0.68194344103E+01 -0.40774695926E+02  0.47266506473E+02  0.00000000000E+00 0.  1.
         -2    1    1    2    0  503  0.22913797603E+02  0.68194344103E+01 -0.14848949319E+03  0.15040171673E+03  0.00000000000E+00 0. -1.
<mgrwt>
<rscale>  2 0.23907045E+02</rscale>
<asrwt>0</asrwt>
<pdfrwt beam="1">  1       21 0.64646420E-03 0.23907045E+02</pdfrwt>
<pdfrwt beam="2">  1       21 0.29764030E-01 0.23907045E+02</pdfrwt>
<totfact> 0.58800359E+07</totfact>
</mgrwt>
</event>
<event>
 4    1  0.2812958E+004  0.5484137E+02  0.7546771E-02  0.1420851E+00
         21   -1    0    0  503  502  0.00000000000E+00  0.00000000000E+00  0.11867944177E+02  0.11867944177E+02  0.00000000000E+00 0.  1.
         21   -1    0    0  501  503 -0.00000000000E+00 -0.00000000000E+00 -0.40251468988E+03  0.40251468988E+03  0.00000000000E+00 0. -1.
          2    1    1    2  501    0 -0.10152296583E+02 -0.53893471907E+02 -0.32142237378E+03  0.32606735164E+03  0.00000000000E+00 0. -1.
         -2    1    1    2    0  502  0.10152296583E+02  0.53893471907E+02 -0.69224371923E+02  0.88315282416E+02  0.00000000000E+00 0.  1.
<mgrwt>
<rscale>  2 0.54841366E+02</rscale>
<asrwt>0</asrwt>
<pdfrwt beam="1">  1       21 0.18258372E-02 0.54841366E+02</pdfrwt>
<pdfrwt beam="2">  1       21 0.61925349E-01 0.54841366E+02</pdfrwt>
<totfact> 0.32846582E+06</totfact>
</mgrwt>
</event>
<event>
 4    1  0.2812958E+004  0.2480405E+02  0.7546771E-02  0.1663832E+00
         21   -1    0    0  503  502  0.00000000000E+00  0.00000000000E+00  0.68109659987E+01  0.68109659987E+01  0.00000000000E+00 0. -1.
         21   -1    0    0  501  503 -0.00000000000E+00 -0.00000000000E+00 -0.11005494194E+03  0.11005494194E+03  0.00000000000E+00 0.  1.
          2    1    1    2  501    0  0.23715049187E+01  0.24690421915E+02 -0.76359189729E+02  0.80286778650E+02  0.00000000000E+00 0.  1.
         -2    1    1    2    0  502 -0.23715049187E+01 -0.24690421915E+02 -0.26884786216E+02  0.36579129293E+02  0.00000000000E+00 0. -1.
<mgrwt>
<rscale>  2 0.24804051E+02</rscale>
<asrwt>0</asrwt>
<pdfrwt beam="1">  1       21 0.10478410E-02 0.24804051E+02</pdfrwt>
<pdfrwt beam="2">  1       21 0.16931529E-01 0.24804051E+02</pdfrwt>
<totfact> 0.78159881E+07</totfact>
</mgrwt>
</event>
<event>
 4    1  0.2812958E+004  0.2049820E+02  0.7546771E-02  0.1735598E+00
         21   -1    0    0  501  502  0.00000000000E+00  0.00000000000E+00  0.15958555687E+02  0.15958555687E+02  0.00000000000E+00 0. -1.
         21   -1    0    0  502  503 -0.00000000000E+00 -0.00000000000E+00 -0.26928334315E+02  0.26928334315E+02  0.00000000000E+00 0.  1.
          2    1    1    2  501    0  0.20413588268E+02 -0.18605796919E+01 -0.86833736317E+01  0.22261565991E+02  0.00000000000E+00 0. -1.
         -2    1    1    2    0  503 -0.20413588268E+02  0.18605796919E+01 -0.22864049968E+01  0.20625324011E+02  0.00000000000E+00 0.  1.
<mgrwt>
<rscale>  2 0.20498203E+02</rscale>
<asrwt>0</asrwt>
<pdfrwt beam="1">  1       21 0.24551624E-02 0.20498203E+02</pdfrwt>
<pdfrwt beam="2">  1       21 0.41428206E-02 0.20498203E+02</pdfrwt>
<totfact> 0.20309540E+08</totfact>
</mgrwt>
</event>
<event>
 4    1  0.2812958E+004  0.2120408E+02  0.7546771E-02  0.1722392E+00
         21   -1    0    0  501  502  0.00000000000E+00  0.00000000000E+00  0.13028139856E+02  0.13028139856E+02  0.00000000000E+00 0.  1.
         21   -1    0    0  502  503 -0.00000000000E+00 -0.00000000000E+00 -0.48089701749E+02  0.48089701749E+02  0.00000000000E+00 0. -1.
          2    1    1    2  501    0  0.72527821505E+01 -0.19925114714E+02 -0.12924109454E+01  0.21243431252E+02  0.00000000000E+00 0.  1.
         -2    1    1    2    0  503 -0.72527821505E+01  0.19925114714E+02 -0.33769150948E+02  0.39874410353E+02  0.00000000000E+00 0. -1.
<mgrwt>
<rscale>  2 0.21204081E+02</rscale>
<asrwt>0</asrwt>
<pdfrwt beam="1">  1       21 0.20043292E-02 0.21204081E+02</pdfrwt>
<pdfrwt beam="2">  1       21 0.73984156E-02 0.21204081E+02</pdfrwt>
<totfact> 0.11117553E+08</totfact>
</mgrwt>
</event>
<event>
 4    1  0.2812958E+004  0.2883723E+02  0.7546771E-02  0.1611309E+00
         21   -1    0    0  503  502  0.00000000000E+00  0.00000000000E+00  0.18183695628E+02  0.18183695628E+02  0.00000000000E+00 0.  1.
         21   -1    0    0  501  503 -0.00000000000E+00 -0.00000000000E+00 -0.78876479359E+02  0.78876479359E+02  0.00000000000E+00 0. -1.
          2    1    1    2  501    0  0.16392985707E+02  0.23724585485E+02 -0.61805007906E+02  0.68201502469E+02  0.00000000000E+00 0. -1.
         -2    1    1    2    0  502 -0.16392985707E+02 -0.23724585485E+02  0.11122241746E+01  0.28858672517E+02  0.00000000000E+00 0.  1.
<mgrwt>
<rscale>  2 0.28837232E+02</rscale>
<asrwt>0</asrwt>
<pdfrwt beam="1">  1       21 0.27974917E-02 0.28837232E+02</pdfrwt>
<pdfrwt beam="2">  1       21 0.12134843E-01 0.28837232E+02</pdfrwt>
<totfact> 0.31649598E+07</totfact>
</mgrwt>
</event>
<event>
 4    1  0.2812958E+004  0.2357027E+02  0.7546771E-02  0.1682430E+00
         21   -1    0    0  503  502  0.00000000000E+00  0.00000000000E+00  0.18010668794E+03  0.18010668794E+03  0.00000000000E+00 0.  1.
         21   -1    0    0  501  503 -0.00000000000E+00 -0.00000000000E+00 -0.67977833403E+01  0.67977833403E+01  0.00000000000E+00 0. -1.
          2    1    1    2  501    0  0.50353851285E+01 -0.23026124914E+02  0.17586101028E+02  0.29407966290E+02  0.00000000000E+00 0. -1.
         -2    1    1    2    0  502 -0.50353851285E+01  0.23026124914E+02  0.15572280357E+03  0.15749650499E+03  0.00000000000E+00 0.  1.
<mgrwt>
<rscale>  2 0.23570268E+02</rscale>
<asrwt>0</asrwt>
<pdfrwt beam="1">  1       21 0.27708718E-01 0.23570268E+02</pdfrwt>
<pdfrwt beam="2">  1       21 0.10458130E-02 0.23570268E+02</pdfrwt>
<totfact> 0.32492886E+07</totfact>
</mgrwt>
</event>
<event>
 4    1  0.2812958E+004  0.2237837E+02  0.7546771E-02  0.1701789E+00
         21   -1    0    0  503  502  0.00000000000E+00  0.00000000000E+00  0.99093086175E+01  0.99093086175E+01  0.00000000000E+00 0.  1.
         21   -1    0    0  501  503 -0.00000000000E+00 -0.00000000000E+00 -0.71999248622E+02  0.71999248622E+02  0.00000000000E+00 0. -1.
          2    1    1    2  501    0  0.17063416671E+02  0.14478641214E+02 -0.53404790051E+02  0.57903910406E+02  0.00000000000E+00 0.  1.
         -2    1    1    2    0  502 -0.17063416671E+02 -0.14478641214E+02 -0.86851499540E+01  0.24004646834E+02  0.00000000000E+00 0. -1.
<mgrwt>
<rscale>  2 0.22378365E+02</rscale>
<asrwt>0</asrwt>
<pdfrwt beam="1">  1       21 0.15245090E-02 0.22378365E+02</pdfrwt>
<pdfrwt beam="2">  1       21 0.11076807E-01 0.22378365E+02</pdfrwt>
<totfact> 0.88388857E+07</totfact>
</mgrwt>
</event>
<event>
 4    1  0.2812958E+004  0.2011567E+02  0.7546771E-02  0.1743038E+00
         21   -1    0    0  503  502  0.00000000000E+00  0.00000000000E+00  0.55698280644E+02  0.55698280644E+02  0.00000000000E+00 0. -1.
         21   -1    0    0  501  503 -0.00000000000E+00 -0.00000000000E+00 -0.19360438455E+02  0.19360438455E+02  0.00000000000E+00 0.  1.
          2    1    1    2  501    0  0.14376744510E+02  0.14069446240E+02 -0.11494887894E+02  0.23168352291E+02  0.00000000000E+00 0.  1.
         -2    1    1    2    0  502 -0.14376744510E+02 -0.14069446240E+02  0.47832730083E+02  0.51890366807E+02  0.00000000000E+00 0. -1.
<mgrwt>
<rscale>  2 0.20115668E+02</rscale>
<asrwt>0</asrwt>
<pdfrwt beam="1">  1       21 0.85689662E-02 0.20115668E+02</pdfrwt>
<pdfrwt beam="2">  1       21 0.29785290E-02 0.20115668E+02</pdfrwt>
<totfact> 0.46904511E+07</totfact>
</mgrwt>
</event>
<event>
 4    1  0.2812958E+004  0.2935329E+02  0.7546771E-02  0.1605349E+00
         21   -1    0    0  501  502  0.00000000000E+00  0.00000000000E+00  0.42223872228E+03  0.42223872228E+03  0.00000000000E+00 0. -1.
         21   -1    0    0  502  503 -0.00000000000E+00 -0.00000000000E+00 -0.24773306432E+01  0.24773306432E+01  0.00000000000E+00 0.  1.
          2    1    1    2  501    0 -0.55420166678E+01 -0.28825365133E+02  0.29904459980E+03  0.30048176033E+03  0.00000000000E+00 0. -1.
         -2    1    1    2    0  503  0.55420166678E+01  0.28825365133E+02  0.12071679184E+03  0.12423429259E+03  0.00000000000E+00 0.  1.
<mgrwt>
<rscale>  2 0.29353290E+02</rscale>
<asrwt>0</asrwt>
<pdfrwt beam="1">  1       21 0.64959746E-01 0.29353290E+02</pdfrwt>
<pdfrwt beam="2">  1       21 0.38112813E-03 0.29353290E+02</pdfrwt>
<totfact> 0.29932220E+07</totfact>
</mgrwt>
</event>
<event>
 4    1  0.2812958E+004  0.2022890E+02  0.7546771E-02  0.1740814E+00
         21   -1    0    0  503  502  0.00000000000E+00  0.00000000000E+00  0.17490485391E+03  0.17490485391E+03  0.00000000000E+00 0. -1.
         21   -1    0    0  501  503 -0.00000000000E+00 -0.00000000000E+00 -0.13849677194E+02  0.13849677194E+02  0.00000000000E+00 0.  1.
          2    1    1    2  501    0 -0.19848530040E+02 -0.39043889375E+01 -0.55096723572E+01  0.20965802804E+02  0.00000000000E+00 0.  1.
         -2    1    1    2    0  502  0.19848530040E+02  0.39043889375E+01  0.16656484908E+03  0.16778872830E+03  0.00000000000E+00 0. -1.
<mgrwt>
<rscale>  2 0.20228900E+02</rscale>
<asrwt>0</asrwt>
<pdfrwt beam="1">  1       21 0.26908437E-01 0.20228900E+02</pdfrwt>
<pdfrwt beam="2">  1       21 0.21307197E-02 0.20228900E+02</pdfrwt>
<totfact> 0.11256845E+07</totfact>
</mgrwt>
</event>
<event>
 4    1  0.2812958E+004  0.3265299E+02  0.7546771E-02  0.1570488E+00
         21   -1    0    0  503  502  0.00000000000E+00  0.00000000000E+00  0.56431078907E+02  0.56431078907E+02  0.00000000000E+00 0. -1.
         21   -1    0    0  501  503 -0.00000000000E+00 -0.00000000000E+00 -0.22759283329E+02  0.22759283329E+02  0.00000000000E+00 0.  1.
          2    1    1    2  501    0  0.18495210696E+02  0.26909939925E+02  0.51872665395E+00  0.32657108917E+02  0.00000000000E+00 0.  1.
         -2    1    1    2    0  502 -0.18495210696E+02 -0.26909939925E+02  0.33153068924E+02  0.46533253320E+02  0.00000000000E+00 0. -1.
<mgrwt>
<rscale>  2 0.32652989E+02</rscale>
<asrwt>0</asrwt>
<pdfrwt beam="1">  1       21 0.86817044E-02 0.32652989E+02</pdfrwt>
<pdfrwt beam="2">  1       21 0.35014282E-02 0.32652989E+02</pdfrwt>
<totfact> 0.39950944E+07</totfact>
</mgrwt>
</event>
<event>
 4    1  0.2812958E+004  0.2319747E+02  0.7546771E-02  0.1688329E+00
         21   -1    0    0  501  502  0.00000000000E+00  0.00000000000E+00  0.37711611244E+01  0.37711611244E+01  0.00000000000E+00 0.  1.
         21   -1    0    0  502  503 -0.00000000000E+00 -0.00000000000E+00 -0.20094946657E+03  0.20094946657E+03  0.00000000000E+00 0. -1.
          2    1    1    2  501    0  0.57392799792E+01  0.22476283529E+02 -0.43475913269E+02  0.49277557676E+02  0.00000000000E+00 0.  1.
         -2    1    1    2    0  503 -0.57392799792E+01 -0.22476283529E+02 -0.15370239218E+03  0.15544307002E+03  0.00000000000E+00 0. -1.
<mgrwt>
<rscale>  2 0.23197471E+02</rscale>
<asrwt>0</asrwt>
<pdfrwt beam="1">  1       21 0.58017876E-03 0.23197471E+02</pdfrwt>
<pdfrwt beam="2">  1       21 0.30915296E-01 0.23197471E+02</pdfrwt>
<totfact> 0.63936271E+07</totfact>
</mgrwt>
</event>
<event>
 4    1  0.2812958E+004  0.2474228E+02  0.7546771E-02  0.1664732E+00
         21   -1    0    0  501  502  0.00000000000E+00  0.00000000000E+00  0.28023369046E+03  0.28023369046E+03  0.00000000000E+00 0.  1.
         21   -1    0    0  502  503 -0.00000000000E+00 -0.00000000000E+00 -0.41665208531E+01  0.41665208531E+01  0.00000000000E+00 0. -1.
          2    1    1    2  501    0  0.21548187931E+02 -0.12159596979E+02  0.23610974508E+03  0.23740259460E+03  0.00000000000E+00 0.  1.
         -2    1    1    2    0  503 -0.21548187931E+02  0.12159596979E+02  0.39957424531E+02  0.46997616715E+02  0.00000000000E+00 0. -1.
<mgrwt>
<rscale>  2 0.24742276E+02</rscale>
<asrwt>0</asrwt>
<pdfrwt beam="1">  1       21 0.43112861E-01 0.24742276E+02</pdfrwt>
<pdfrwt beam="2">  1       21 0.64100343E-03 0.24742276E+02</pdfrwt>
<totfact> 0.30093240E+07</totfact>
</mgrwt>
</event>
<event>
 4    1  0.2812958E+004  0.2183851E+02  0.7546771E-02  0.1711060E+00
         21   -1    0    0  501  502  0.00000000000E+00  0.00000000000E+00  0.17040041476E+01  0.17040041476E+01  0.00000000000E+00 0.  1.
         21   -1    0    0  502  503 -0.00000000000E+00 -0.00000000000E+00 -0.27990542784E+03  0.27990542784E+03  0.00000000000E+00 0. -1.
          2    1    1    2  501    0 -0.10746543609E+02  0.19011374072E+02 -0.14038153616E+03  0.14207003990E+03  0.00000000000E+00 0.  1.
         -2    1    1    2    0  503  0.10746543609E+02 -0.19011374072E+02 -0.13781988753E+03  0.13953939208E+03  0.00000000000E+00 0. -1.
<mgrwt>
<rscale>  2 0.21838511E+02</rscale>
<asrwt>0</asrwt>
<pdfrwt beam="1">  1       21 0.26215451E-03 0.21838511E+02</pdfrwt>
<pdfrwt beam="2">  1       21 0.43062370E-01 0.21838511E+02</pdfrwt>
<totfact> 0.10878001E+08</totfact>
</mgrwt>
</event>
<event>
 4    1  0.2812958E+004  0.2178728E+02  0.7546771E-02  0.1711957E+00
         21   -1    0    0  501  502  0.00000000000E+00  0.00000000000E+00  0.13954930165E+02  0.13954930165E+02  0.00000000000E+00 0.  1.
         21   -1    0    0  502  503 -0.00000000000E+00 -0.00000000000E+00 -0.38487080487E+02  0.38487080487E+02  0.00000000000E+00 0. -1.
          2    1    1    2  501    0 -0.21747312837E+02 -0.13190107604E+01 -0.33285508215E+01  0.22040069319E+02  0.00000000000E+00 0.  1.
         -2    1    1    2    0  503  0.21747312837E+02  0.13190107604E+01 -0.21203599500E+02  0.30401941333E+02  0.00000000000E+00 0. -1.
<mgrwt>
<rscale>  2 0.21787276E+02</rscale>
<asrwt>0</asrwt>
<pdfrwt beam="1">  1       21 0.21469124E-02 0.21787276E+02</pdfrwt>
<pdfrwt beam="2">  1       21 0.59210892E-02 0.21787276E+02</pdfrwt>
<totfact> 0.14440551E+08</totfact>
</mgrwt>
</event>
<event>
 4    1  0.2812958E+004  0.3843914E+02  0.7546771E-02  0.1520022E+00
         21   -1    0    0  503  502  0.00000000000E+00  0.00000000000E+00  0.72970407109E+01  0.72970407109E+01  0.00000000000E+00 0.  1.
         21   -1    0    0  501  503 -0.00000000000E+00 -0.00000000000E+00 -0.10684014543E+04  0.10684014543E+04  0.00000000000E+00 0. -1.
          2    1    1    2  501    0 -0.22439845738E+02  0.31209311474E+02 -0.10147584838E+04  0.10154862619E+04  0.00000000000E+00 0. -1.
         -2    1    1    2    0  502  0.22439845738E+02 -0.31209311474E+02 -0.46345929763E+02  0.60212233018E+02  0.00000000000E+00 0.  1.
<mgrwt>
<rscale>  2 0.38439144E+02</rscale>
<asrwt>0</asrwt>
<pdfrwt beam="1">  1       21 0.11226217E-02 0.38439144E+02</pdfrwt>
<pdfrwt beam="2">  1       21 0.16436945E+00 0.38439144E+02</pdfrwt>
<totfact> 0.75112413E+05</totfact>
</mgrwt>
</event>
<event>
 4    1  0.2812958E+004  0.2224044E+02  0.7546771E-02  0.1704127E+00
         21   -1    0    0  501  502  0.00000000000E+00  0.00000000000E+00  0.19048054024E+04  0.19048054024E+04  0.00000000000E+00 0. -1.
         21   -1    0    0  502  503 -0.00000000000E+00 -0.00000000000E+00 -0.27800125947E+00  0.27800125947E+00  0.00000000000E+00 0.  1.
          2    1    1    2  501    0 -0.16850596832E+02  0.14515326523E+02  0.11968060838E+04  0.11970127148E+04  0.00000000000E+00 0. -1.
         -2    1    1    2    0  503  0.16850596832E+02 -0.14515326523E+02  0.70772131740E+03  0.70807068886E+03  0.00000000000E+00 0.  1.
<mgrwt>
<rscale>  2 0.22240443E+02</rscale>
<asrwt>0</asrwt>
<pdfrwt beam="1">  1       21 0.29303653E+00 0.22240443E+02</pdfrwt>
<pdfrwt beam="2">  1       21 0.42770950E-04 0.22240443E+02</pdfrwt>
<totfact> 0.17420971E+07</totfact>
</mgrwt>
</event>
<event>
 4    1  0.2812958E+004  0.2038790E+02  0.7546771E-02  0.1737722E+00
         21   -1    0    0  503  502  0.00000000000E+00  0.00000000000E+00  0.15431526547E+02  0.15431526547E+02  0.00000000000E+00 0.  1.
         21   -1    0    0  501  503 -0.00000000000E+00 -0.00000000000E+00 -0.28177069300E+02  0.28177069300E+02  0.00000000000E+00 0. -1.
          2    1    1    2  501    0 -0.57956490599E+01 -0.19546789937E+02 -0.10948484736E+02  0.23141647800E+02  0.00000000000E+00 0. -1.
         -2    1    1    2    0  502  0.57956490599E+01  0.19546789937E+02 -0.17970580168E+01  0.20466948048E+02  0.00000000000E+00 0.  1.
<mgrwt>
<rscale>  2 0.20387902E+02</rscale>
<asrwt>0</asrwt>
<pdfrwt beam="1">  1       21 0.23740811E-02 0.20387902E+02</pdfrwt>
<pdfrwt beam="2">  1       21 0.43349337E-02 0.20387902E+02</pdfrwt>
<totfact> 0.19879810E+08</totfact>
</mgrwt>
</event>
<event>
 4    1  0.2812958E+004  0.2860357E+02  0.7546771E-02  0.1614058E+00
         21   -1    0    0  503  502  0.00000000000E+00  0.00000000000E+00  0.11438328975E+02  0.11438328975E+02  0.00000000000E+00 0. -1.
         21   -1    0    0  501  503 -0.00000000000E+00 -0.00000000000E+00 -0.12154625907E+03  0.12154625907E+03  0.00000000000E+00 0.  1.
          2    1    1    2  501    0 -0.13230596745E+02  0.25359718249E+02 -0.97708340523E+02  0.10180905563E+03  0.00000000000E+00 0.  1.
         -2    1    1    2    0  502  0.13230596745E+02 -0.25359718249E+02 -0.12399589570E+02  0.31175532416E+02  0.00000000000E+00 0. -1.
<mgrwt>
<rscale>  2 0.28603566E+02</rscale>
<asrwt>0</asrwt>
<pdfrwt beam="1">  1       21 0.17597430E-02 0.28603566E+02</pdfrwt>
<pdfrwt beam="2">  1       21 0.18699424E-01 0.28603566E+02</pdfrwt>
<totfact> 0.30852218E+07</totfact>
</mgrwt>
</event>
<event>
 4    1  0.2812958E+004  0.2245970E+02  0.7546771E-02  0.1700421E+00
         21   -1    0    0  503  502  0.00000000000E+00  0.00000000000E+00  0.35897835821E+03  0.35897835821E+03  0.00000000000E+00 0. -1.
         21   -1    0    0  501  503 -0.00000000000E+00 -0.00000000000E+00 -0.15810851591E+01  0.15810851591E+01  0.00000000000E+00 0.  1.
          2    1    1    2  501    0 -0.19027401271E+02  0.11932979130E+02  0.11857041764E+03  0.12067883796E+03  0.00000000000E+00 0.  1.
         -2    1    1    2    0  502  0.19027401271E+02 -0.11932979130E+02  0.23882685541E+03  0.23988060542E+03  0.00000000000E+00 0. -1.
<mgrwt>
<rscale>  2 0.22459697E+02</rscale>
<asrwt>0</asrwt>
<pdfrwt beam="1">  1       21 0.55227375E-01 0.22459697E+02</pdfrwt>
<pdfrwt beam="2">  1       21 0.24324416E-03 0.22459697E+02</pdfrwt>
<totfact> 0.75489267E+07</totfact>
</mgrwt>
</event>
<event>
 4    1  0.2812958E+004  0.2385074E+02  0.7546771E-02  0.1678080E+00
         21   -1    0    0  501  502  0.00000000000E+00  0.00000000000E+00  0.16651334370E+02  0.16651334370E+02  0.00000000000E+00 0.  1.
         21   -1    0    0  502  503 -0.00000000000E+00 -0.00000000000E+00 -0.64356998633E+02  0.64356998633E+02  0.00000000000E+00 0. -1.
          2    1    1    2  501    0 -0.92070018765E+01 -0.22002020061E+02  0.38907724983E+01  0.24166006723E+02  0.00000000000E+00 0.  1.
         -2    1    1    2    0  503  0.92070018765E+01  0.22002020061E+02 -0.51596436762E+02  0.56842326279E+02  0.00000000000E+00 0. -1.
<mgrwt>
<rscale>  2 0.23850739E+02</rscale>
<asrwt>0</asrwt>
<pdfrwt beam="1">  1       21 0.25617438E-02 0.23850739E+02</pdfrwt>
<pdfrwt beam="2">  1       21 0.99010767E-02 0.23850739E+02</pdfrwt>
<totfact> 0.48852458E+07</totfact>
</mgrwt>
</event>
<event>
 4    1  0.2812958E+004  0.2517351E+02  0.7546771E-02  0.1658522E+00
         21   -1    0    0  501  502  0.00000000000E+00  0.00000000000E+00  0.25385378018E+02  0.25385378018E+02  0.00000000000E+00 0.  1.
         21   -1    0    0  502  503 -0.00000000000E+00 -0.00000000000E+00 -0.47845506869E+02  0.47845506869E+02  0.00000000000E+00 0. -1.
          2    1    1    2  501    0 -0.23796884703E+02  0.82105845953E+01  0.14091567001E+02  0.28849223239E+02  0.00000000000E+00 0.  1.
         -2    1    1    2    0  503  0.23796884703E+02 -0.82105845953E+01 -0.36551695852E+02  0.44381661648E+02  0.00000000000E+00 0. -1.
<mgrwt>
<rscale>  2 0.25173506E+02</rscale>
<asrwt>0</asrwt>
<pdfrwt beam="1">  1       21 0.39054428E-02 0.25173506E+02</pdfrwt>
<pdfrwt beam="2">  1       21 0.73608472E-02 0.25173506E+02</pdfrwt>
<totfact> 0.41643536E+07</totfact>
</mgrwt>
</event>
<event>
 4    1  0.2812958E+004  0.2995863E+02  0.7546771E-02  0.1598546E+00
         21   -1    0    0  501  502  0.00000000000E+00  0.00000000000E+00  0.10990448971E+02  0.10990448971E+02  0.00000000000E+00 0. -1.
         21   -1    0    0  502  503 -0.00000000000E+00 -0.00000000000E+00 -0.13283639787E+03  0.13283639787E+03  0.00000000000E+00 0.  1.
          2    1    1    2  501    0  0.10117547241E+02  0.28198490982E+02 -0.16288442050E+02  0.34100337245E+02  0.00000000000E+00 0. -1.
         -2    1    1    2    0  503 -0.10117547241E+02 -0.28198490982E+02 -0.10555750685E+03  0.10972650960E+03  0.00000000000E+00 0.  1.
<mgrwt>
<rscale>  2 0.29958632E+02</rscale>
<asrwt>0</asrwt>
<pdfrwt beam="1">  1       21 0.16908384E-02 0.29958632E+02</pdfrwt>
<pdfrwt beam="2">  1       21 0.20436368E-01 0.29958632E+02</pdfrwt>
<totfact> 0.28328220E+07</totfact>
</mgrwt>
</event>
<event>
 4    1  0.2812958E+004  0.3839652E+02  0.7546771E-02  0.1520354E+00
         21   -1    0    0  501  502  0.00000000000E+00  0.00000000000E+00  0.11819436185E+02  0.11819436185E+02  0.00000000000E+00 0. -1.
         21   -1    0    0  502  503 -0.00000000000E+00 -0.00000000000E+00 -0.20536345677E+03  0.20536345677E+03  0.00000000000E+00 0.  1.
          2    1    1    2  501    0  0.38050155141E+02  0.51457264457E+01 -0.28729668963E+02  0.47955048594E+02  0.00000000000E+00 0. -1.
         -2    1    1    2    0  503 -0.38050155141E+02 -0.51457264457E+01 -0.16481435162E+03  0.16922784436E+03  0.00000000000E+00 0.  1.
<mgrwt>
<rscale>  2 0.38396521E+02</rscale>
<asrwt>0</asrwt>
<pdfrwt beam="1">  1       21 0.18183749E-02 0.38396521E+02</pdfrwt>
<pdfrwt beam="2">  1       21 0.31594376E-01 0.38396521E+02</pdfrwt>
<totfact> 0.11961054E+07</totfact>
</mgrwt>
</event>
<event>
 4    1  0.2812958E+004  0.3095709E+02  0.7546771E-02  0.1587744E+00
         21   -1    0    0  503  502  0.00000000000E+00  0.00000000000E+00  0.21120674049E+02  0.21120674049E+02  0.00000000000E+00 0.  1.
         21   -1    0    0  501  503 -0.00000000000E+00 -0.00000000000E+00 -0.83821296273E+02  0.83821296273E+02  0.00000000000E+00 0. -1.
          2    1    1    2  501    0 -0.92826763880E+01  0.29532577358E+02 -0.66886577279E+02  0.73703157507E+02  0.00000000000E+00 0. -1.
         -2    1    1    2    0  502  0.92826763880E+01 -0.29532577358E+02  0.41859550550E+01  0.31238812815E+02  0.00000000000E+00 0.  1.
<mgrwt>
<rscale>  2 0.30957087E+02</rscale>
<asrwt>0</asrwt>
<pdfrwt beam="1">  1       21 0.32493344E-02 0.30957087E+02</pdfrwt>
<pdfrwt beam="2">  1       21 0.12895584E-01 0.30957087E+02</pdfrwt>
<totfact> 0.22874769E+07</totfact>
</mgrwt>
</event>
<event>
 4    1  0.2812958E+004  0.6849882E+02  0.7546771E-02  0.1365274E+00
         21   -1    0    0  501  502  0.00000000000E+00  0.00000000000E+00  0.16320280573E+03  0.16320280573E+03  0.00000000000E+00 0.  1.
         21   -1    0    0  502  503 -0.00000000000E+00 -0.00000000000E+00 -0.37063451050E+02  0.37063451050E+02  0.00000000000E+00 0. -1.
          2    1    1    2  501    0 -0.48128295335E+02  0.48741729653E+02  0.11049324162E+03  0.13000325175E+03  0.00000000000E+00 0.  1.
         -2    1    1    2    0  503  0.48128295335E+02 -0.48741729653E+02  0.15646113052E+02  0.70263005024E+02  0.00000000000E+00 0. -1.
<mgrwt>
<rscale>  2 0.68498825E+02</rscale>
<asrwt>0</asrwt>
<pdfrwt beam="1">  1       21 0.25108123E-01 0.68498825E+02</pdfrwt>
<pdfrwt beam="2">  1       21 0.57020695E-02 0.68498825E+02</pdfrwt>
<totfact> 0.30998913E+06</totfact>
</mgrwt>
</event>
<event>
 4    1  0.2812958E+004  0.2179279E+02  0.7546771E-02  0.1711860E+00
         21   -1    0    0  501  502  0.00000000000E+00  0.00000000000E+00  0.87626191886E+00  0.87626191886E+00  0.00000000000E+00 0. -1.
         21   -1    0    0  502  503 -0.00000000000E+00 -0.00000000000E+00 -0.71730297131E+03  0.71730297131E+03  0.00000000000E+00 0.  1.
          2    1    1    2  501    0 -0.11789151491E+02  0.18328709833E+02 -0.53573767210E+03  0.53618073352E+03  0.00000000000E+00 0.  1.
         -2    1    1    2    0  503  0.11789151491E+02 -0.18328709833E+02 -0.18068903729E+03  0.18199849971E+03  0.00000000000E+00 0. -1.
<mgrwt>
<rscale>  2 0.21792790E+02</rscale>
<asrwt>0</asrwt>
<pdfrwt beam="1">  1       21 0.13481019E-03 0.21792790E+02</pdfrwt>
<pdfrwt beam="2">  1       21 0.11035376E+00 0.21792790E+02</pdfrwt>
<totfact> 0.41262651E+07</totfact>
</mgrwt>
</event>
<event>
 4    1  0.2812958E+004  0.2927439E+02  0.7546771E-02  0.1606251E+00
         21   -1    0    0  501  502  0.00000000000E+00  0.00000000000E+00  0.29046998793E+03  0.29046998793E+03  0.00000000000E+00 0. -1.
         21   -1    0    0  502  503 -0.00000000000E+00 -0.00000000000E+00 -0.36903306701E+01  0.36903306701E+01  0.00000000000E+00 0.  1.
          2    1    1    2  501    0 -0.29268622489E+02 -0.58103917044E+00  0.20925106512E+03  0.21128889730E+03  0.00000000000E+00 0. -1.
         -2    1    1    2    0  503  0.29268622489E+02  0.58103917044E+00  0.77528592141E+02  0.82871421300E+02  0.00000000000E+00 0.  1.
<mgrwt>
<rscale>  2 0.29274389E+02</rscale>
<asrwt>0</asrwt>
<pdfrwt beam="1">  1       21 0.44687672E-01 0.29274389E+02</pdfrwt>
<pdfrwt beam="2">  1       21 0.56774341E-03 0.29274389E+02</pdfrwt>
<totfact> 0.34822559E+07</totfact>
</mgrwt>
</event>
<event>
 4    1  0.2812958E+004  0.2333744E+02  0.7546771E-02  0.1686098E+00
         21   -1    0    0  503  502  0.00000000000E+00  0.00000000000E+00  0.78703898483E+01  0.78703898483E+01  0.00000000000E+00 0.  1.
         21   -1    0    0  501  503 -0.00000000000E+00 -0.00000000000E+00 -0.21270184003E+03  0.21270184003E+03  0.00000000000E+00 0. -1.
          2    1    1    2  501    0 -0.21856441553E+02 -0.81812113121E+01 -0.19300211131E+03  0.19440795053E+03  0.00000000000E+00 0. -1.
         -2    1    1    2    0  502  0.21856441553E+02  0.81812113121E+01 -0.11829338863E+02  0.26164279348E+02  0.00000000000E+00 0.  1.
<mgrwt>
<rscale>  2 0.23337443E+02</rscale>
<asrwt>0</asrwt>
<pdfrwt beam="1">  1       21 0.12108293E-02 0.23337443E+02</pdfrwt>
<pdfrwt beam="2">  1       21 0.32723358E-01 0.23337443E+02</pdfrwt>
<totfact> 0.19199807E+07</totfact>
</mgrwt>
</event>
<event>
 4    1  0.2812958E+004  0.2163518E+02  0.7546771E-02  0.1714639E+00
         21   -1    0    0  503  502  0.00000000000E+00  0.00000000000E+00  0.20573224736E+01  0.20573224736E+01  0.00000000000E+00 0.  1.
         21   -1    0    0  501  503 -0.00000000000E+00 -0.00000000000E+00 -0.27937268268E+03  0.27937268268E+03  0.00000000000E+00 0. -1.
          2    1    1    2  501    0  0.14485588851E+00  0.21634693219E+02 -0.19928051449E+03  0.20045150134E+03  0.00000000000E+00 0. -1.
         -2    1    1    2    0  502 -0.14485588851E+00 -0.21634693219E+02 -0.78034845708E+02  0.80978503806E+02  0.00000000000E+00 0.  1.
<mgrwt>
<rscale>  2 0.21635178E+02</rscale>
<asrwt>0</asrwt>
<pdfrwt beam="1">  1       21 0.31651118E-03 0.21635178E+02</pdfrwt>
<pdfrwt beam="2">  1       21 0.42980408E-01 0.21635178E+02</pdfrwt>
<totfact> 0.82821194E+07</totfact>
</mgrwt>
</event>
<event>
 4    1  0.2812958E+004  0.2804507E+02  0.7546771E-02  0.1620761E+00
         21   -1    0    0  501  502  0.00000000000E+00  0.00000000000E+00  0.16374354567E+02  0.16374354567E+02  0.00000000000E+00 0.  1.
         21   -1    0    0  502  503 -0.00000000000E+00 -0.00000000000E+00 -0.67285881671E+02  0.67285881671E+02  0.00000000000E+00 0. -1.
          2    1    1    2  501    0  0.18788624182E+02  0.20820985900E+02 -0.30807330236E+01  0.28213769129E+02  0.00000000000E+00 0.  1.
         -2    1    1    2    0  503 -0.18788624182E+02 -0.20820985900E+02 -0.47830794080E+02  0.55446467108E+02  0.00000000000E+00 0. -1.
<mgrwt>
<rscale>  2 0.28045068E+02</rscale>
<asrwt>0</asrwt>
<pdfrwt beam="1">  1       21 0.25191315E-02 0.28045068E+02</pdfrwt>
<pdfrwt beam="2">  1       21 0.10351674E-01 0.28045068E+02</pdfrwt>
<totfact> 0.48394659E+07</totfact>
</mgrwt>
</event>
<event>
 4    1  0.2812958E+004  0.4447061E+02  0.7546771E-02  0.1477674E+00
         21   -1    0    0  503  502  0.00000000000E+00  0.00000000000E+00  0.11462647134E+03  0.11462647134E+03  0.00000000000E+00 0. -1.
         21   -1    0    0  501  503 -0.00000000000E+00 -0.00000000000E+00 -0.64362621033E+02  0.64362621033E+02  0.00000000000E+00 0.  1.
          2    1    1    2  501    0  0.40158116846E+02  0.19103940731E+02 -0.51433930873E+02  0.67993265439E+02  0.00000000000E+00 0.  1.
         -2    1    1    2    0  502 -0.40158116846E+02 -0.19103940731E+02  0.10169778118E+03  0.11099582693E+03  0.00000000000E+00 0. -1.
<mgrwt>
<rscale>  2 0.44470607E+02</rscale>
<asrwt>0</asrwt>
<pdfrwt beam="1">  1       21 0.17634842E-01 0.44470607E+02</pdfrwt>
<pdfrwt beam="2">  1       21 0.99019417E-02 0.44470607E+02</pdfrwt>
<totfact> 0.22601691E+06</totfact>
</mgrwt>
</event>
<event>
 4    1  0.2812958E+004  0.2783188E+02  0.7546771E-02  0.1623370E+00
         21   -1    0    0  501  502  0.00000000000E+00  0.00000000000E+00  0.37316666143E+03  0.37316666143E+03  0.00000000000E+00 0. -1.
         21   -1    0    0  502  503 -0.00000000000E+00 -0.00000000000E+00 -0.26056978864E+01  0.26056978864E+01  0.00000000000E+00 0.  1.
          2    1    1    2  501    0 -0.16770743103E+02  0.22211611879E+02  0.27001010993E+03  0.27144073569E+03  0.00000000000E+00 0. -1.
         -2    1    1    2    0  503  0.16770743103E+02 -0.22211611879E+02  0.10055085361E+03  0.10433162363E+03  0.00000000000E+00 0.  1.
<mgrwt>
<rscale>  2 0.27831880E+02</rscale>
<asrwt>0</asrwt>
<pdfrwt beam="1">  1       21 0.57410213E-01 0.27831880E+02</pdfrwt>
<pdfrwt beam="2">  1       21 0.40087689E-03 0.27831880E+02</pdfrwt>
<totfact> 0.35308329E+07</totfact>
</mgrwt>
</event>
<event>
 4    1  0.2812958E+004  0.3922152E+02  0.7546771E-02  0.1514020E+00
         21   -1    0    0  501  502  0.00000000000E+00  0.00000000000E+00  0.10255202972E+03  0.10255202972E+03  0.00000000000E+00 0.  1.
         21   -1    0    0  502  503 -0.00000000000E+00 -0.00000000000E+00 -0.29015899928E+02  0.29015899928E+02  0.00000000000E+00 0. -1.
          2    1    1    2  501    0  0.19406090035E+01 -0.39173477255E+02  0.82487982665E+02  0.91337804701E+02  0.00000000000E+00 0.  1.
         -2    1    1    2    0  503 -0.19406090035E+01  0.39173477255E+02 -0.89518528719E+01  0.40230124949E+02  0.00000000000E+00 0. -1.
<mgrwt>
<rscale>  2 0.39221516E+02</rscale>
<asrwt>0</asrwt>
<pdfrwt beam="1">  1       21 0.15777235E-01 0.39221516E+02</pdfrwt>
<pdfrwt beam="2">  1       21 0.44639847E-02 0.39221516E+02</pdfrwt>
<totfact> 0.10110890E+07</totfact>
</mgrwt>
</event>
<event>
 4    1  0.2812958E+004  0.2633414E+02  0.7546771E-02  0.1642547E+00
         21   -1    0    0  501  502  0.00000000000E+00  0.00000000000E+00  0.49020342615E+02  0.49020342615E+02  0.00000000000E+00 0. -1.
         21   -1    0    0  502  503 -0.00000000000E+00 -0.00000000000E+00 -0.18997606899E+02  0.18997606899E+02  0.00000000000E+00 0.  1.
          2    1    1    2  501    0  0.23539035418E+02  0.11806809902E+02  0.32196213548E+02  0.41594267818E+02  0.00000000000E+00 0. -1.
         -2    1    1    2    0  503 -0.23539035418E+02 -0.11806809902E+02 -0.21734778323E+01  0.26423681696E+02  0.00000000000E+00 0.  1.
<mgrwt>
<rscale>  2 0.26334140E+02</rscale>
<asrwt>0</asrwt>
<pdfrwt beam="1">  1       21 0.75415911E-02 0.26334140E+02</pdfrwt>
<pdfrwt beam="2">  1       21 0.29227088E-02 0.26334140E+02</pdfrwt>
<totfact> 0.63805100E+07</totfact>
</mgrwt>
</event>
<event>
 4    1  0.2812958E+004  0.2099218E+02  0.7546771E-02  0.1726288E+00
         21   -1    0    0  501  502  0.00000000000E+00  0.00000000000E+00  0.28413413094E+01  0.28413413094E+01  0.00000000000E+00 0.  1.
         21   -1    0    0  502  503 -0.00000000000E+00 -0.00000000000E+00 -0.43218847454E+03  0.43218847454E+03  0.00000000000E+00 0. -1.
          2    1    1    2  501    0 -0.19171452698E+02  0.85514350860E+01 -0.40505996199E+02  0.45622443694E+02  0.00000000000E+00 0.  1.
         -2    1    1    2    0  503  0.19171452698E+02 -0.85514350860E+01 -0.38884113703E+03  0.38940737216E+03  0.00000000000E+00 0. -1.
<mgrwt>
<rscale>  2 0.20992180E+02</rscale>
<asrwt>0</asrwt>
<pdfrwt beam="1">  1       21 0.43712988E-03 0.20992180E+02</pdfrwt>
<pdfrwt beam="2">  1       21 0.66490467E-01 0.20992180E+02</pdfrwt>
<totfact> 0.21837299E+07</totfact>
</mgrwt>
</event>
<event>
 4    1  0.2812958E+004  0.2537790E+02  0.7546771E-02  0.1655633E+00
         21   -1    0    0  503  502  0.00000000000E+00  0.00000000000E+00  0.34587513079E+02  0.34587513079E+02  0.00000000000E+00 0.  1.
         21   -1    0    0  501  503 -0.00000000000E+00 -0.00000000000E+00 -0.21662350942E+02  0.21662350942E+02  0.00000000000E+00 0. -1.
          2    1    1    2  501    0  0.25282398577E+02  0.21996238773E+01 -0.40765571818E+01  0.25703236011E+02  0.00000000000E+00 0. -1.
         -2    1    1    2    0  502 -0.25282398577E+02 -0.21996238773E+01  0.17001719318E+02  0.30546628010E+02  0.00000000000E+00 0.  1.
<mgrwt>
<rscale>  2 0.25377904E+02</rscale>
<asrwt>0</asrwt>
<pdfrwt beam="1">  1       21 0.53211559E-02 0.25377904E+02</pdfrwt>
<pdfrwt beam="2">  1       21 0.33326694E-02 0.25377904E+02</pdfrwt>
<totfact> 0.90491588E+07</totfact>
</mgrwt>
</event>
<event>
 4    1  0.2812958E+004  0.2254839E+02  0.7546771E-02  0.1698937E+00
         21   -1    0    0  501  502  0.00000000000E+00  0.00000000000E+00  0.64684712504E+02  0.64684712504E+02  0.00000000000E+00 0.  1.
         21   -1    0    0  502  503 -0.00000000000E+00 -0.00000000000E+00 -0.11969694001E+02  0.11969694001E+02  0.00000000000E+00 0. -1.
          2    1    1    2  501    0 -0.15686089878E+01  0.22493760882E+02  0.48815134816E+02  0.53771248822E+02  0.00000000000E+00 0.  1.
         -2    1    1    2    0  503  0.15686089878E+01 -0.22493760882E+02  0.38998836859E+01  0.22883157683E+02  0.00000000000E+00 0. -1.
<mgrwt>
<rscale>  2 0.22548388E+02</rscale>
<asrwt>0</asrwt>
<pdfrwt beam="1">  1       21 0.99514941E-02 0.22548388E+02</pdfrwt>
<pdfrwt beam="2">  1       21 0.18414914E-02 0.22548388E+02</pdfrwt>
<totfact> 0.79324995E+07</totfact>
</mgrwt>
</event>
<event>
 4    1  0.2812958E+004  0.3750228E+02  0.7546771E-02  0.1527440E+00
         21   -1    0    0  501  502  0.00000000000E+00  0.00000000000E+00  0.26318003468E+02  0.26318003468E+02  0.00000000000E+00 0. -1.
         21   -1    0    0  502  503 -0.00000000000E+00 -0.00000000000E+00 -0.77868048859E+02  0.77868048859E+02  0.00000000000E+00 0.  1.
          2    1    1    2  501    0 -0.20317549830E+02 -0.31521713891E+02  0.34025166439E+01  0.37656319486E+02  0.00000000000E+00 0. -1.
         -2    1    1    2    0  503  0.20317549830E+02  0.31521713891E+02 -0.54952562035E+02  0.66529732841E+02  0.00000000000E+00 0.  1.
<mgrwt>
<rscale>  2 0.37502284E+02</rscale>
<asrwt>0</asrwt>
<pdfrwt beam="1">  1       21 0.40489237E-02 0.37502284E+02</pdfrwt>
<pdfrwt beam="2">  1       21 0.11979700E-01 0.37502284E+02</pdfrwt>
<totfact> 0.18899587E+07</totfact>
</mgrwt>
</event>
<event>
 4    1  0.2812958E+004  0.2534150E+02  0.7546771E-02  0.1656145E+00
         21   -1    0    0  503  502  0.00000000000E+00  0.00000000000E+00  0.72623327279E+01  0.72623327279E+01  0.00000000000E+00 0. -1.
         21   -1    0    0  501  503 -0.00000000000E+00 -0.00000000000E+00 -0.27179520843E+03  0.27179520843E+03  0.00000000000E+00 0.  1.
          2    1    1    2  501    0 -0.42695028554E+01 -0.24979248158E+02 -0.24687156385E+03  0.24816881458E+03  0.00000000000E+00 0.  1.
         -2    1    1    2    0  502  0.42695028554E+01  0.24979248158E+02 -0.17661311853E+02  0.30888726577E+02  0.00000000000E+00 0. -1.
<mgrwt>
<rscale>  2 0.25341497E+02</rscale>
<asrwt>0</asrwt>
<pdfrwt beam="1">  1       21 0.11172820E-02 0.25341497E+02</pdfrwt>
<pdfrwt beam="2">  1       21 0.41814647E-01 0.25341497E+02</pdfrwt>
<totfact> 0.13929590E+07</totfact>
</mgrwt>
</event>
<event>
 4    1  0.2812958E+004  0.2276748E+02  0.7546771E-02  0.1695307E+00
         21   -1    0    0  501  502  0.00000000000E+00  0.00000000000E+00  0.57984995632E+01  0.57984995632E+01  0.00000000000E+00 0.  1.
         21   -1    0    0  502  503 -0.00000000000E+00 -0.00000000000E+00 -0.97278074943E+02  0.97278074943E+02  0.00000000000E+00 0. -1.
          2    1    1    2  501    0  0.20703134698E+02 -0.94730289987E+01 -0.31068621303E+02  0.38517752978E+02  0.00000000000E+00 0.  1.
         -2    1    1    2    0  503 -0.20703134698E+02  0.94730289987E+01 -0.60410954077E+02  0.64558821529E+02  0.00000000000E+00 0. -1.
<mgrwt>
<rscale>  2 0.22767478E+02</rscale>
<asrwt>0</asrwt>
<pdfrwt beam="1">  1       21 0.89207695E-03 0.22767478E+02</pdfrwt>
<pdfrwt beam="2">  1       21 0.14965856E-01 0.22767478E+02</pdfrwt>
<totfact> 0.12011726E+08</totfact>
</mgrwt>
</event>
<event>
 4    1  0.2812958E+004  0.2367872E+02  0.7546771E-02  0.1680739E+00
         21   -1    0    0  501  502  0.00000000000E+00  0.00000000000E+00  0.17668231716E+03  0.17668231716E+03  0.00000000000E+00 0.  1.
         21   -1    0    0  502  503 -0.00000000000E+00 -0.00000000000E+00 -0.61133136039E+01  0.61133136039E+01  0.00000000000E+00 0. -1.
          2    1    1    2  501    0  0.70548948860E+01  0.22603321386E+02  0.14866645108E+03  0.15054034462E+03  0.00000000000E+00 0. -1.
         -2    1    1    2    0  503 -0.70548948860E+01 -0.22603321386E+02  0.21902552468E+02  0.32255286143E+02  0.00000000000E+00 0.  1.
<mgrwt>
<rscale>  2 0.23678718E+02</rscale>
<asrwt>0</asrwt>
<pdfrwt beam="1">  1       21 0.27181891E-01 0.23678718E+02</pdfrwt>
<pdfrwt beam="2">  1       21 0.94050992E-03 0.23678718E+02</pdfrwt>
<totfact> 0.39497037E+07</totfact>
</mgrwt>
</event>
<event>
 4    1  0.2812958E+004  0.2074576E+02  0.7546771E-02  0.1730892E+00
         21   -1    0    0  501  502  0.00000000000E+00  0.00000000000E+00  0.33146521760E+02  0.33146521760E+02  0.00000000000E+00 0.  1.
         21   -1    0    0  502  503 -0.00000000000E+00 -0.00000000000E+00 -0.14524429739E+02  0.14524429739E+02  0.00000000000E+00 0. -1.
          2    1    1    2  501    0  0.19835525059E+02  0.60777060117E+01  0.17072510064E+02  0.26867399663E+02  0.00000000000E+00 0.  1.
         -2    1    1    2    0  503 -0.19835525059E+02 -0.60777060117E+01  0.15495819569E+01  0.20803551836E+02  0.00000000000E+00 0. -1.
<mgrwt>
<rscale>  2 0.20745760E+02</rscale>
<asrwt>0</asrwt>
<pdfrwt beam="1">  1       21 0.50994649E-02 0.20745760E+02</pdfrwt>
<pdfrwt beam="2">  1       21 0.22345277E-02 0.20745760E+02</pdfrwt>
<totfact> 0.16972372E+08</totfact>
</mgrwt>
</event>
<event>
 4    1  0.2812958E+004  0.2506309E+02  0.7546771E-02  0.1660097E+00
         21   -1    0    0  501  502  0.00000000000E+00  0.00000000000E+00  0.48718870459E+01  0.48718870459E+01  0.00000000000E+00 0. -1.
         21   -1    0    0  502  503 -0.00000000000E+00 -0.00000000000E+00 -0.17660779170E+03  0.17660779170E+03  0.00000000000E+00 0.  1.
          2    1    1    2  501    0 -0.64954868062E+00  0.25054667890E+02 -0.38723898023E+02  0.46126983152E+02  0.00000000000E+00 0. -1.
         -2    1    1    2    0  503  0.64954868062E+00 -0.25054667890E+02 -0.13301200664E+03  0.13535269560E+03  0.00000000000E+00 0.  1.
<mgrwt>
<rscale>  2 0.25063086E+02</rscale>
<asrwt>0</asrwt>
<pdfrwt beam="1">  1       21 0.74952105E-03 0.25063086E+02</pdfrwt>
<pdfrwt beam="2">  1       21 0.27170431E-01 0.25063086E+02</pdfrwt>
<totfact> 0.56279312E+07</totfact>
</mgrwt>
</event>
<event>
 4    1  0.2812958E+004  0.2042470E+02  0.7546771E-02  0.1737012E+00
         21   -1    0    0  503  502  0.00000000000E+00  0.00000000000E+00  0.44200705128E+01  0.44200705128E+01  0.00000000000E+00 0. -1.
         21   -1    0    0  501  503 -0.00000000000E+00 -0.00000000000E+00 -0.27866970297E+03  0.27866970297E+03  0.00000000000E+00 0.  1.
          2    1    1    2  501    0  0.18638967309E+02 -0.83520832080E+01 -0.25223116341E+03  0.25305676871E+03  0.00000000000E+00 0.  1.
         -2    1    1    2    0  502 -0.18638967309E+02  0.83520832080E+01 -0.22018469043E+02  0.30033004765E+02  0.00000000000E+00 0. -1.
<mgrwt>
<rscale>  2 0.20424701E+02</rscale>
<asrwt>0</asrwt>
<pdfrwt beam="1">  1       21 0.68001089E-03 0.20424701E+02</pdfrwt>
<pdfrwt beam="2">  1       21 0.42872260E-01 0.20424701E+02</pdfrwt>
<totfact> 0.26707273E+07</totfact>
</mgrwt>
</event>
<event>
 4    1  0.2812958E+004  0.6457342E+02  0.7546771E-02  0.1379583E+00
         21   -1    0    0  501  502  0.00000000000E+00  0.00000000000E+00  0.20989309659E+02  0.20989309659E+02  0.00000000000E+00 0.  1.
         21   -1    0    0  502  503 -0.00000000000E+00 -0.00000000000E+00 -0.20324071341E+03  0.20324071341E+03  0.00000000000E+00 0. -1.
          2    1    1    2  501    0 -0.63994397742E+02  0.86280681096E+01 -0.10795813907E+03  0.12579620937E+03  0.00000000000E+00 0.  1.
         -2    1    1    2    0  503  0.63994397742E+02 -0.86280681096E+01 -0.74293264688E+02  0.98433813701E+02  0.00000000000E+00 0. -1.
<mgrwt>
<rscale>  2 0.64573419E+02</rscale>
<asrwt>0</asrwt>
<pdfrwt beam="1">  1       21 0.32291247E-02 0.64573419E+02</pdfrwt>
<pdfrwt beam="2">  1       21 0.31267801E-01 0.64573419E+02</pdfrwt>
<totfact> 0.51913300E+06</totfact>
</mgrwt>
</event>
<event>
 4    1  0.2812958E+004  0.2410203E+02  0.7546771E-02  0.1674245E+00
         21   -1    0    0  503  502  0.00000000000E+00  0.00000000000E+00  0.15020923003E+02  0.15020923003E+02  0.00000000000E+00 0.  1.
         21   -1    0    0  501  503 -0.00000000000E+00 -0.00000000000E+00 -0.46210240830E+02  0.46210240830E+02  0.00000000000E+00 0. -1.
          2    1    1    2  501    0 -0.24098553781E+02  0.40934373387E+00 -0.27959043340E+02  0.36913628393E+02  0.00000000000E+00 0. -1.
         -2    1    1    2    0  502  0.24098553781E+02 -0.40934373387E+00 -0.32302744868E+01  0.24317535441E+02  0.00000000000E+00 0.  1.
<mgrwt>
<rscale>  2 0.24102030E+02</rscale>
<asrwt>0</asrwt>
<pdfrwt beam="1">  1       21 0.23109112E-02 0.24102030E+02</pdfrwt>
<pdfrwt beam="2">  1       21 0.71092679E-02 0.24102030E+02</pdfrwt>
<totfact> 0.98899152E+07</totfact>
</mgrwt>
</event>
<event>
 4    1  0.2812958E+004  0.2955689E+02  0.7546771E-02  0.1603039E+00
         21   -1    0    0  501  502  0.00000000000E+00  0.00000000000E+00  0.88477523713E+01  0.88477523713E+01  0.00000000000E+00 0. -1.
         21   -1    0    0  502  503 -0.00000000000E+00 -0.00000000000E+00 -0.11582183933E+03  0.11582183933E+03  0.00000000000E+00 0.  1.
          2    1    1    2  501    0 -0.23358715875E+02  0.18110218367E+02 -0.29546847418E+02  0.41792652571E+02  0.00000000000E+00 0. -1.
         -2    1    1    2    0  503  0.23358715875E+02 -0.18110218367E+02 -0.77427239542E+02  0.82876939131E+02  0.00000000000E+00 0.  1.
<mgrwt>
<rscale>  2 0.29556888E+02</rscale>
<asrwt>0</asrwt>
<pdfrwt beam="1">  1       21 0.13611928E-02 0.29556888E+02</pdfrwt>
<pdfrwt beam="2">  1       21 0.17818743E-01 0.29556888E+02</pdfrwt>
<totfact> 0.50128675E+07</totfact>
</mgrwt>
</event>
<event>
 4    1  0.2812958E+004  0.4303918E+02  0.7546771E-02  0.1486967E+00
         21   -1    0    0  501  502  0.00000000000E+00  0.00000000000E+00  0.93813877992E+03  0.93813877992E+03  0.00000000000E+00 0. -1.
         21   -1    0    0  502  503 -0.00000000000E+00 -0.00000000000E+00 -0.29327791950E+01  0.29327791950E+01  0.00000000000E+00 0.  1.
          2    1    1    2  501    0  0.30721106722E+02  0.30142743997E+02  0.19863845256E+03  0.20324764759E+03  0.00000000000E+00 0.  1.
         -2    1    1    2    0  503 -0.30721106722E+02 -0.30142743997E+02  0.73656754816E+03  0.73782391153E+03  0.00000000000E+00 0. -1.
<mgrwt>
<rscale>  2 0.43039185E+02</rscale>
<asrwt>0</asrwt>
<pdfrwt beam="1">  1       21 0.14432880E+00 0.43039185E+02</pdfrwt>
<pdfrwt beam="2">  1       21 0.45119755E-03 0.43039185E+02</pdfrwt>
<totfact> 0.41417691E+06</totfact>
</mgrwt>
</event>
<event>
 4    1  0.2812958E+004  0.3482165E+02  0.7546771E-02  0.1550190E+00
         21   -1    0    0  503  502  0.00000000000E+00  0.00000000000E+00  0.60698318351E+03  0.60698318351E+03  0.00000000000E+00 0.  1.
         21   -1    0    0  501  503 -0.00000000000E+00 -0.00000000000E+00 -0.59699666857E+01  0.59699666857E+01  0.00000000000E+00 0. -1.
          2    1    1    2  501    0  0.13397390706E+02 -0.32141204044E+02  0.50510859869E+02  0.61350583044E+02  0.00000000000E+00 0. -1.
         -2    1    1    2    0  502 -0.13397390706E+02  0.32141204044E+02  0.55050235696E+03  0.55160256715E+03  0.00000000000E+00 0.  1.
<mgrwt>
<rscale>  2 0.34821647E+02</rscale>
<asrwt>0</asrwt>
<pdfrwt beam="1">  1       21 0.93381979E-01 0.34821647E+02</pdfrwt>
<pdfrwt beam="2">  1       21 0.91845690E-03 0.34821647E+02</pdfrwt>
<totfact> 0.38066576E+06</totfact>
</mgrwt>
</event>
<event>
 4    1  0.2812958E+004  0.3824275E+02  0.7546771E-02  0.1521556E+00
         21   -1    0    0  503  502  0.00000000000E+00  0.00000000000E+00  0.23063872815E+02  0.23063872815E+02  0.00000000000E+00 0.  1.
         21   -1    0    0  501  503 -0.00000000000E+00 -0.00000000000E+00 -0.70842676997E+02  0.70842676997E+02  0.00000000000E+00 0. -1.
          2    1    1    2  501    0  0.34943319162E+02  0.15539392795E+02 -0.39096818232E+02  0.54690670853E+02  0.00000000000E+00 0. -1.
         -2    1    1    2    0  502 -0.34943319162E+02 -0.15539392795E+02 -0.86819859488E+01  0.39215878959E+02  0.00000000000E+00 0.  1.
<mgrwt>
<rscale>  2 0.38242755E+02</rscale>
<asrwt>0</asrwt>
<pdfrwt beam="1">  1       21 0.35482881E-02 0.38242755E+02</pdfrwt>
<pdfrwt beam="2">  1       21 0.10898873E-01 0.38242755E+02</pdfrwt>
<totfact> 0.27509337E+07</totfact>
</mgrwt>
</event>
<event>
 4    1  0.2812958E+004  0.2772426E+02  0.7546771E-02  0.1624698E+00
         21   -1    0    0  503  502  0.00000000000E+00  0.00000000000E+00  0.98559372643E+02  0.98559372643E+02  0.00000000000E+00 0. -1.
         21   -1    0    0  501  503 -0.00000000000E+00 -0.00000000000E+00 -0.89330758021E+01  0.89330758021E+01  0.00000000000E+00 0.  1.
          2    1    1    2  501    0 -0.17068711709E+02 -0.21847056643E+02  0.25660613235E+02  0.37777001932E+02  0.00000000000E+00 0.  1.
         -2    1    1    2    0  502  0.17068711709E+02  0.21847056643E+02  0.63965683605E+02  0.69715446513E+02  0.00000000000E+00 0. -1.
<mgrwt>
<rscale>  2 0.27724264E+02</rscale>
<asrwt>0</asrwt>
<pdfrwt beam="1">  1       21 0.15162980E-01 0.27724264E+02</pdfrwt>
<pdfrwt beam="2">  1       21 0.13743194E-02 0.27724264E+02</pdfrwt>
<totfact> 0.64355917E+07</totfact>
</mgrwt>
</event>
<event>
 4    1  0.2812958E+004  0.2403686E+02  0.7546771E-02  0.1675234E+00
         21   -1    0    0  501  502  0.00000000000E+00  0.00000000000E+00  0.34622319909E+03  0.34622319909E+03  0.00000000000E+00 0.  1.
         21   -1    0    0  502  503 -0.00000000000E+00 -0.00000000000E+00 -0.21630906367E+01  0.21630906367E+01  0.00000000000E+00 0. -1.
          2    1    1    2  501    0  0.23483465677E+02  0.51281183245E+01  0.25530093571E+03  0.25642998759E+03  0.00000000000E+00 0.  1.
         -2    1    1    2    0  503 -0.23483465677E+02 -0.51281183245E+01  0.88759172739E+02  0.91956302139E+02  0.00000000000E+00 0. -1.
<mgrwt>
<rscale>  2 0.24036862E+02</rscale>
<asrwt>0</asrwt>
<pdfrwt beam="1">  1       21 0.53265064E-01 0.24036862E+02</pdfrwt>
<pdfrwt beam="2">  1       21 0.33278345E-03 0.24036862E+02</pdfrwt>
<totfact> 0.52208913E+07</totfact>
</mgrwt>
</event>
<event>
 4    1  0.2812958E+004  0.2073818E+02  0.7546771E-02  0.1731035E+00
         21   -1    0    0  501  502  0.00000000000E+00  0.00000000000E+00  0.12561380278E+03  0.12561380278E+03  0.00000000000E+00 0. -1.
         21   -1    0    0  502  503 -0.00000000000E+00 -0.00000000000E+00 -0.19983750488E+02  0.19983750488E+02  0.00000000000E+00 0.  1.
          2    1    1    2  501    0 -0.15966263714E+02 -0.13234441471E+02  0.11908481254E+03  0.12087706397E+03  0.00000000000E+00 0. -1.
         -2    1    1    2    0  503  0.15966263714E+02  0.13234441471E+02 -0.13454760240E+02  0.24720489298E+02  0.00000000000E+00 0.  1.
<mgrwt>
<rscale>  2 0.20738178E+02</rscale>
<asrwt>0</asrwt>
<pdfrwt beam="1">  1       21 0.19325200E-01 0.20738178E+02</pdfrwt>
<pdfrwt beam="2">  1       21 0.30744232E-02 0.20738178E+02</pdfrwt>
<totfact> 0.11506726E+07</totfact>
</mgrwt>
</event>
<event>
 4    1  0.2812958E+004  0.2198908E+02  0.7546771E-02  0.1708441E+00
         21   -1    0    0  503  502  0.00000000000E+00  0.00000000000E+00  0.60650271271E+00  0.60650271271E+00  0.00000000000E+00 0.  1.
         21   -1    0    0  501  503 -0.00000000000E+00 -0.00000000000E+00 -0.79867567428E+03  0.79867567428E+03  0.00000000000E+00 0. -1.
          2    1    1    2  501    0  0.17993567462E+02  0.12639265271E+02 -0.41606315509E+03  0.41664381493E+03  0.00000000000E+00 0.  1.
         -2    1    1    2    0  502 -0.17993567462E+02 -0.12639265271E+02 -0.38200601648E+03  0.38263836206E+03  0.00000000000E+00 0. -1.
<mgrwt>
<rscale>  2 0.21989077E+02</rscale>
<asrwt>0</asrwt>
<pdfrwt beam="1">  1       21 0.93308411E-04 0.21989077E+02</pdfrwt>
<pdfrwt beam="2">  1       21 0.12287278E+00 0.21989077E+02</pdfrwt>
<totfact> 0.54865334E+07</totfact>
</mgrwt>
</event>
<event>
 4    1  0.2812958E+004  0.6110993E+02  0.7546771E-02  0.1393232E+00
         21   -1    0    0  503  502  0.00000000000E+00  0.00000000000E+00  0.43217191797E+02  0.43217191797E+02  0.00000000000E+00 0.  1.
         21   -1    0    0  501  503 -0.00000000000E+00 -0.00000000000E+00 -0.99631422149E+02  0.99631422149E+02  0.00000000000E+00 0. -1.
          2    1    1    2  501    0  0.60280862530E+02  0.10032035201E+02 -0.21889385828E+01  0.61149125666E+02  0.00000000000E+00 0.  1.
         -2    1    1    2    0  502 -0.60280862530E+02 -0.10032035201E+02 -0.54225291769E+02  0.81699488279E+02  0.00000000000E+00 0. -1.
<mgrwt>
<rscale>  2 0.61109935E+02</rscale>
<asrwt>0</asrwt>
<pdfrwt beam="1">  1       21 0.66487988E-02 0.61109935E+02</pdfrwt>
<pdfrwt beam="2">  1       21 0.15327911E-01 0.61109935E+02</pdfrwt>
<totfact> 0.58127605E+06</totfact>
</mgrwt>
</event>
<event>
 4    1  0.2812958E+004  0.2695633E+02  0.7546771E-02  0.1634394E+00
         21   -1    0    0  503  502  0.00000000000E+00  0.00000000000E+00  0.22474554577E+01  0.22474554577E+01  0.00000000000E+00 0. -1.
         21   -1    0    0  501  503 -0.00000000000E+00 -0.00000000000E+00 -0.62338498699E+03  0.62338498699E+03  0.00000000000E+00 0.  1.
          2    1    1    2  501    0 -0.26935430219E+02 -0.10614000566E+01 -0.52759879498E+03  0.52828697924E+03  0.00000000000E+00 0.  1.
         -2    1    1    2    0  502  0.26935430219E+02  0.10614000566E+01 -0.93538736556E+02  0.97345463210E+02  0.00000000000E+00 0. -1.
<mgrwt>
<rscale>  2 0.26956335E+02</rscale>
<asrwt>0</asrwt>
<pdfrwt beam="1">  1       21 0.34576273E-03 0.26956335E+02</pdfrwt>
<pdfrwt beam="2">  1       21 0.95905284E-01 0.26956335E+02</pdfrwt>
<totfact> 0.14949056E+07</totfact>
</mgrwt>
</event>
<event>
 4    1  0.2812958E+004  0.3549506E+02  0.7546771E-02  0.1544248E+00
         21   -1    0    0  503  502  0.00000000000E+00  0.00000000000E+00  0.30069261196E+03  0.30069261196E+03  0.00000000000E+00 0. -1.
         21   -1    0    0  501  503 -0.00000000000E+00 -0.00000000000E+00 -0.53314287721E+01  0.53314287721E+01  0.00000000000E+00 0.  1.
          2    1    1    2  501    0  0.13680587662E+02 -0.32752721245E+02  0.21848004968E+03  0.22134459862E+03  0.00000000000E+00 0. -1.
         -2    1    1    2    0  502 -0.13680587662E+02  0.32752721245E+02  0.76881133501E+02  0.84679442111E+02  0.00000000000E+00 0.  1.
<mgrwt>
<rscale>  2 0.35495059E+02</rscale>
<asrwt>0</asrwt>
<pdfrwt beam="1">  1       21 0.46260389E-01 0.35495059E+02</pdfrwt>
<pdfrwt beam="2">  1       21 0.82022004E-03 0.35495059E+02</pdfrwt>
<totfact> 0.19372577E+07</totfact>
</mgrwt>
</event>
<event>
 4    1  0.2812958E+004  0.2123506E+02  0.7546771E-02  0.1721827E+00
         21   -1    0    0  501  502  0.00000000000E+00  0.00000000000E+00  0.25154063529E+03  0.25154063529E+03  0.00000000000E+00 0.  1.
         21   -1    0    0  502  503 -0.00000000000E+00 -0.00000000000E+00 -0.28490765124E+01  0.28490765124E+01  0.00000000000E+00 0. -1.
          2    1    1    2  501    0  0.47039674408E+01  0.20707493011E+02  0.20179810742E+03  0.20291230553E+03  0.00000000000E+00 0.  1.
         -2    1    1    2    0  503 -0.47039674408E+01 -0.20707493011E+02  0.46893451361E+02  0.51477406277E+02  0.00000000000E+00 0. -1.
<mgrwt>
<rscale>  2 0.21235055E+02</rscale>
<asrwt>0</asrwt>
<pdfrwt beam="1">  1       21 0.38698542E-01 0.21235055E+02</pdfrwt>
<pdfrwt beam="2">  1       21 0.43831966E-03 0.21235055E+02</pdfrwt>
<totfact> 0.62416942E+07</totfact>
</mgrwt>
</event>
<event>
 4    1  0.2812958E+004  0.2017684E+02  0.7546771E-02  0.1741834E+00
         21   -1    0    0  503  502  0.00000000000E+00  0.00000000000E+00  0.22828231887E+01  0.22828231887E+01  0.00000000000E+00 0. -1.
         21   -1    0    0  501  503 -0.00000000000E+00 -0.00000000000E+00 -0.49786641859E+03  0.49786641859E+03  0.00000000000E+00 0.  1.
          2    1    1    2  501    0 -0.12218442001E+02  0.16056603918E+02 -0.44813319850E+03  0.44858719158E+03  0.00000000000E+00 0.  1.
         -2    1    1    2    0  502  0.12218442001E+02 -0.16056603918E+02 -0.47450396899E+02  0.51562050194E+02  0.00000000000E+00 0. -1.
<mgrwt>
<rscale>  2 0.20176840E+02</rscale>
<asrwt>0</asrwt>
<pdfrwt beam="1">  1       21 0.35120349E-03 0.20176840E+02</pdfrwt>
<pdfrwt beam="2">  1       21 0.76594851E-01 0.20176840E+02</pdfrwt>
<totfact> 0.22317243E+07</totfact>
</mgrwt>
</event>
<event>
 4    1  0.2812958E+004  0.2354653E+02  0.7546771E-02  0.1682801E+00
         21   -1    0    0  501  502  0.00000000000E+00  0.00000000000E+00  0.59891075786E+02  0.59891075786E+02  0.00000000000E+00 0.  1.
         21   -1    0    0  502  503 -0.00000000000E+00 -0.00000000000E+00 -0.85470720209E+02  0.85470720209E+02  0.00000000000E+00 0. -1.
          2    1    1    2  501    0 -0.23090927731E+02 -0.46095649456E+01  0.55842213783E+02  0.60603563201E+02  0.00000000000E+00 0.  1.
         -2    1    1    2    0  503  0.23090927731E+02  0.46095649456E+01 -0.81421858206E+02  0.84758232793E+02  0.00000000000E+00 0. -1.
<mgrwt>
<rscale>  2 0.23546529E+02</rscale>
<asrwt>0</asrwt>
<pdfrwt beam="1">  1       21 0.92140116E-02 0.23546529E+02</pdfrwt>
<pdfrwt beam="2">  1       21 0.13149342E-01 0.23546529E+02</pdfrwt>
<totfact> 0.39422213E+06</totfact>
</mgrwt>
</event>
<event>
 4    1  0.2812958E+004  0.2029373E+02  0.7546771E-02  0.1739549E+00
         21   -1    0    0  501  502  0.00000000000E+00  0.00000000000E+00  0.40617675933E+01  0.40617675933E+01  0.00000000000E+00 0. -1.
         21   -1    0    0  502  503 -0.00000000000E+00 -0.00000000000E+00 -0.13006892907E+03  0.13006892907E+03  0.00000000000E+00 0.  1.
          2    1    1    2  501    0 -0.19196570078E+02  0.65823367400E+01 -0.31513851664E+02  0.37482773463E+02  0.00000000000E+00 0. -1.
         -2    1    1    2    0  503  0.19196570078E+02 -0.65823367400E+01 -0.94493309816E+02  0.96647923205E+02  0.00000000000E+00 0.  1.
<mgrwt>
<rscale>  2 0.20293730E+02</rscale>
<asrwt>0</asrwt>
<pdfrwt beam="1">  1       21 0.62488731E-03 0.20293730E+02</pdfrwt>
<pdfrwt beam="2">  1       21 0.20010605E-01 0.20293730E+02</pdfrwt>
<totfact> 0.11973971E+08</totfact>
</mgrwt>
</event>
<event>
 4    1  0.2812958E+004  0.3555580E+02  0.7546771E-02  0.1543720E+00
         21   -1    0    0  503  502  0.00000000000E+00  0.00000000000E+00  0.19461221282E+03  0.19461221282E+03  0.00000000000E+00 0.  1.
         21   -1    0    0  501  503 -0.00000000000E+00 -0.00000000000E+00 -0.65729676351E+01  0.65729676351E+01  0.00000000000E+00 0. -1.
          2    1    1    2  501    0  0.31688648428E+02 -0.16125902157E+02  0.83139519831E+02  0.90423420182E+02  0.00000000000E+00 0.  1.
         -2    1    1    2    0  502 -0.31688648428E+02  0.16125902157E+02  0.10489972535E+03  0.11076176027E+03  0.00000000000E+00 0. -1.
<mgrwt>
<rscale>  2 0.35555803E+02</rscale>
<asrwt>0</asrwt>
<pdfrwt beam="1">  1       21 0.29940336E-01 0.35555803E+02</pdfrwt>
<pdfrwt beam="2">  1       21 0.10112259E-02 0.35555803E+02</pdfrwt>
<totfact> 0.32240721E+07</totfact>
</mgrwt>
</event>
<event>
 4    1  0.2812958E+004  0.2025593E+02  0.7546771E-02  0.1740286E+00
         21   -1    0    0  503  502  0.00000000000E+00  0.00000000000E+00  0.11094869806E+03  0.11094869806E+03  0.00000000000E+00 0.  1.
         21   -1    0    0  501  503 -0.00000000000E+00 -0.00000000000E+00 -0.42552121291E+01  0.42552121291E+01  0.00000000000E+00 0. -1.
          2    1    1    2  501    0 -0.18409667070E+02 -0.84490838283E+01  0.32504920047E+02  0.38299773973E+02  0.00000000000E+00 0.  1.
         -2    1    1    2    0  502  0.18409667070E+02  0.84490838283E+01  0.74188565880E+02  0.76904136212E+02  0.00000000000E+00 0. -1.
<mgrwt>
<rscale>  2 0.20255934E+02</rscale>
<asrwt>0</asrwt>
<pdfrwt beam="1">  1       21 0.17069028E-01 0.20255934E+02</pdfrwt>
<pdfrwt beam="2">  1       21 0.65464810E-03 0.20255934E+02</pdfrwt>
<totfact> 0.14693243E+08</totfact>
</mgrwt>
</event>
<event>
 4    1  0.2812958E+004  0.2278814E+02  0.7546771E-02  0.1694968E+00
         21   -1    0    0  503  502  0.00000000000E+00  0.00000000000E+00  0.24489407121E+02  0.24489407121E+02  0.00000000000E+00 0. -1.
         21   -1    0    0  501  503 -0.00000000000E+00 -0.00000000000E+00 -0.22440827913E+02  0.22440827913E+02  0.00000000000E+00 0.  1.
          2    1    1    2  501    0 -0.25294867292E+01  0.22647315767E+02  0.65307523594E+01  0.23705483351E+02  0.00000000000E+00 0.  1.
         -2    1    1    2    0  502  0.25294867292E+01 -0.22647315767E+02 -0.44821731514E+01  0.23224751682E+02  0.00000000000E+00 0. -1.
<mgrwt>
<rscale>  2 0.22788138E+02</rscale>
<asrwt>0</asrwt>
<pdfrwt beam="1">  1       21 0.37676011E-02 0.22788138E+02</pdfrwt>
<pdfrwt beam="2">  1       21 0.34524351E-02 0.22788138E+02</pdfrwt>
<totfact> 0.14360221E+08</totfact>
</mgrwt>
</event>
<event>
 4    1  0.2812958E+004  0.2078018E+02  0.7546771E-02  0.1730244E+00
         21   -1    0    0  503  502  0.00000000000E+00  0.00000000000E+00  0.42792517371E+02  0.42792517371E+02  0.00000000000E+00 0.  1.
         21   -1    0    0  501  503 -0.00000000000E+00 -0.00000000000E+00 -0.31227750058E+02  0.31227750058E+02  0.00000000000E+00 0. -1.
          2    1    1    2  501    0  0.74903778204E+00 -0.20766675916E+02 -0.24666419781E+02  0.32252878182E+02  0.00000000000E+00 0. -1.
         -2    1    1    2    0  502 -0.74903778204E+00  0.20766675916E+02  0.36231187095E+02  0.41767389247E+02  0.00000000000E+00 0.  1.
<mgrwt>
<rscale>  2 0.20780180E+02</rscale>
<asrwt>0</asrwt>
<pdfrwt beam="1">  1       21 0.65834642E-02 0.20780180E+02</pdfrwt>
<pdfrwt beam="2">  1       21 0.48042692E-02 0.20780180E+02</pdfrwt>
<totfact> 0.34291268E+07</totfact>
</mgrwt>
</event>
<event>
 4    1  0.2812958E+004  0.2230835E+02  0.7546771E-02  0.1702973E+00
         21   -1    0    0  501  502  0.00000000000E+00  0.00000000000E+00  0.14929122918E+01  0.14929122918E+01  0.00000000000E+00 0.  1.
         21   -1    0    0  502  503 -0.00000000000E+00 -0.00000000000E+00 -0.78838772074E+03  0.78838772074E+03  0.00000000000E+00 0. -1.
          2    1    1    2  501    0 -0.20839908034E+02 -0.79599498557E+01 -0.93403255402E+02  0.96030363366E+02  0.00000000000E+00 0.  1.
         -2    1    1    2    0  503  0.20839908034E+02  0.79599498557E+01 -0.69349155305E+03  0.69385026967E+03  0.00000000000E+00 0. -1.
<mgrwt>
<rscale>  2 0.22308352E+02</rscale>
<asrwt>0</asrwt>
<pdfrwt beam="1">  1       21 0.22967866E-03 0.22308352E+02</pdfrwt>
<pdfrwt beam="2">  1       21 0.12129050E+00 0.22308352E+02</pdfrwt>
<totfact> 0.15588930E+07</totfact>
</mgrwt>
</event>
<event>
 4    1  0.2812958E+004  0.2890532E+02  0.7546771E-02  0.1610514E+00
         21   -1    0    0  501  502  0.00000000000E+00  0.00000000000E+00  0.95989188086E+03  0.95989188086E+03  0.00000000000E+00 0. -1.
         21   -1    0    0  502  503 -0.00000000000E+00 -0.00000000000E+00 -0.22188566406E+01  0.22188566406E+01  0.00000000000E+00 0.  1.
          2    1    1    2  501    0  0.20776171436E+02  0.20096476871E+02  0.85384774390E+03  0.85433687000E+03  0.00000000000E+00 0. -1.
         -2    1    1    2    0  503 -0.20776171436E+02 -0.20096476871E+02  0.10382528032E+03  0.10777386750E+03  0.00000000000E+00 0.  1.
<mgrwt>
<rscale>  2 0.28905323E+02</rscale>
<asrwt>0</asrwt>
<pdfrwt beam="1">  1       21 0.14767534E+00 0.28905323E+02</pdfrwt>
<pdfrwt beam="2">  1       21 0.34136333E-03 0.28905323E+02</pdfrwt>
<totfact> 0.57332747E+06</totfact>
</mgrwt>
</event>
<event>
 4    1  0.2812958E+004  0.2207195E+02  0.7546771E-02  0.1707011E+00
         21   -1    0    0  501  502  0.00000000000E+00  0.00000000000E+00  0.11700048581E+02  0.11700048581E+02  0.00000000000E+00 0.  1.
         21   -1    0    0  502  503 -0.00000000000E+00 -0.00000000000E+00 -0.99097021038E+02  0.99097021038E+02  0.00000000000E+00 0. -1.
          2    1    1    2  501    0  0.95573835151E+01 -0.19895414575E+02 -0.15146916252E+01  0.22123864750E+02  0.00000000000E+00 0.  1.
         -2    1    1    2    0  503 -0.95573835151E+01  0.19895414575E+02 -0.85882280832E+02  0.88673204869E+02  0.00000000000E+00 0. -1.
<mgrwt>
<rscale>  2 0.22071953E+02</rscale>
<asrwt>0</asrwt>
<pdfrwt beam="1">  1       21 0.18000074E-02 0.22071953E+02</pdfrwt>
<pdfrwt beam="2">  1       21 0.15245696E-01 0.22071953E+02</pdfrwt>
<totfact> 0.39957376E+07</totfact>
</mgrwt>
</event>
<event>
 4    1  0.2812958E+004  0.3458705E+02  0.7546771E-02  0.1552298E+00
         21   -1    0    0  501  502  0.00000000000E+00  0.00000000000E+00  0.91905459650E+01  0.91905459650E+01  0.00000000000E+00 0.  1.
         21   -1    0    0  502  503 -0.00000000000E+00 -0.00000000000E+00 -0.13915599498E+03  0.13915599498E+03  0.00000000000E+00 0. -1.
          2    1    1    2  501    0 -0.21039065898E+02  0.27452177690E+02 -0.46126230796E+02  0.57653217787E+02  0.00000000000E+00 0. -1.
         -2    1    1    2    0  503  0.21039065898E+02 -0.27452177690E+02 -0.83839218215E+02  0.90693323154E+02  0.00000000000E+00 0.  1.
<mgrwt>
<rscale>  2 0.34587055E+02</rscale>
<asrwt>0</asrwt>
<pdfrwt beam="1">  1       21 0.14139302E-02 0.34587055E+02</pdfrwt>
<pdfrwt beam="2">  1       21 0.21408613E-01 0.34587055E+02</pdfrwt>
<totfact> 0.35308437E+07</totfact>
</mgrwt>
</event>
<event>
 4    1  0.2812958E+004  0.2048388E+02  0.7546771E-02  0.1735873E+00
         21   -1    0    0  503  502  0.00000000000E+00  0.00000000000E+00  0.81740138793E+00  0.81740138793E+00  0.00000000000E+00 0. -1.
         21   -1    0    0  501  503 -0.00000000000E+00 -0.00000000000E+00 -0.52617231032E+03  0.52617231032E+03  0.00000000000E+00 0.  1.
          2    1    1    2  501    0 -0.10501241810E+02  0.17587307920E+02 -0.30385667273E+03  0.30454632988E+03  0.00000000000E+00 0.  1.
         -2    1    1    2    0  502  0.10501241810E+02 -0.17587307920E+02 -0.22149823621E+03  0.22244338183E+03  0.00000000000E+00 0. -1.
<mgrwt>
<rscale>  2 0.20483883E+02</rscale>
<asrwt>0</asrwt>
<pdfrwt beam="1">  1       21 0.12575437E-03 0.20483883E+02</pdfrwt>
<pdfrwt beam="2">  1       21 0.80949386E-01 0.20483883E+02</pdfrwt>
<totfact> 0.87567918E+07</totfact>
</mgrwt>
</event>
<event>
 4    1  0.2812958E+004  0.4053505E+02  0.7546771E-02  0.1504311E+00
         21   -1    0    0  503  502  0.00000000000E+00  0.00000000000E+00  0.11043900621E+02  0.11043900621E+02  0.00000000000E+00 0.  1.
         21   -1    0    0  501  503 -0.00000000000E+00 -0.00000000000E+00 -0.19531710963E+03  0.19531710963E+03  0.00000000000E+00 0. -1.
          2    1    1    2  501    0 -0.28718887359E+02 -0.28606223345E+02 -0.14250244585E+03  0.14815545073E+03  0.00000000000E+00 0. -1.
         -2    1    1    2    0  502  0.28718887359E+02  0.28606223345E+02 -0.41770763154E+02  0.58205559526E+02  0.00000000000E+00 0.  1.
<mgrwt>
<rscale>  2 0.40535053E+02</rscale>
<asrwt>0</asrwt>
<pdfrwt beam="1">  1       21 0.16990618E-02 0.40535053E+02</pdfrwt>
<pdfrwt beam="2">  1       21 0.30048784E-01 0.40535053E+02</pdfrwt>
<totfact> 0.14708435E+07</totfact>
</mgrwt>
</event>
<event>
 4    1  0.2812958E+004  0.2149160E+02  0.7546771E-02  0.1717196E+00
         21   -1    0    0  503  502  0.00000000000E+00  0.00000000000E+00  0.39046954653E+02  0.39046954653E+02  0.00000000000E+00 0. -1.
         21   -1    0    0  501  503 -0.00000000000E+00 -0.00000000000E+00 -0.60028209366E+02  0.60028209366E+02  0.00000000000E+00 0.  1.
          2    1    1    2  501    0 -0.21361874600E+02  0.23577808456E+01 -0.54879773527E+02  0.58937919536E+02  0.00000000000E+00 0.  1.
         -2    1    1    2    0  502  0.21361874600E+02 -0.23577808456E+01  0.33898518813E+02  0.40137244483E+02  0.00000000000E+00 0. -1.
<mgrwt>
<rscale>  2 0.21491599E+02</rscale>
<asrwt>0</asrwt>
<pdfrwt beam="1">  1       21 0.60072238E-02 0.21491599E+02</pdfrwt>
<pdfrwt beam="2">  1       21 0.92351091E-02 0.21491599E+02</pdfrwt>
<totfact> 0.13976239E+07</totfact>
</mgrwt>
</event>
<event>
 4    1  0.2812958E+004  0.3511703E+02  0.7546771E-02  0.1547564E+00
         21   -1    0    0  503  502  0.00000000000E+00  0.00000000000E+00  0.11154656344E+01  0.11154656344E+01  0.00000000000E+00 0. -1.
         21   -1    0    0  501  503 -0.00000000000E+00 -0.00000000000E+00 -0.13154800793E+04  0.13154800793E+04  0.00000000000E+00 0.  1.
          2    1    1    2  501    0 -0.34460725311E+02  0.67575118263E+01 -0.92015777863E+03  0.92082764029E+03  0.00000000000E+00 0.  1.
         -2    1    1    2    0  502  0.34460725311E+02 -0.67575118263E+01 -0.39420683501E+03  0.39576790462E+03  0.00000000000E+00 0. -1.
<mgrwt>
<rscale>  2 0.35117027E+02</rscale>
<asrwt>0</asrwt>
<pdfrwt beam="1">  1       21 0.17161036E-03 0.35117027E+02</pdfrwt>
<pdfrwt beam="2">  1       21 0.20238124E+00 0.35117027E+02</pdfrwt>
<totfact> 0.72138575E+06</totfact>
</mgrwt>
</event>
<event>
 4    1  0.2812958E+004  0.2182141E+02  0.7546771E-02  0.1711359E+00
         21   -1    0    0  503  502  0.00000000000E+00  0.00000000000E+00  0.15103613312E+02  0.15103613312E+02  0.00000000000E+00 0.  1.
         21   -1    0    0  501  503 -0.00000000000E+00 -0.00000000000E+00 -0.38234094875E+02  0.38234094875E+02  0.00000000000E+00 0. -1.
          2    1    1    2  501    0  0.18998558575E+02  0.10734464809E+02 -0.22734931425E+02  0.31512712824E+02  0.00000000000E+00 0. -1.
         -2    1    1    2    0  502 -0.18998558575E+02 -0.10734464809E+02 -0.39555013817E+00  0.21824995363E+02  0.00000000000E+00 0.  1.
<mgrwt>
<rscale>  2 0.21821411E+02</rscale>
<asrwt>0</asrwt>
<pdfrwt beam="1">  1       21 0.23236328E-02 0.21821411E+02</pdfrwt>
<pdfrwt beam="2">  1       21 0.58821684E-02 0.21821411E+02</pdfrwt>
<totfact> 0.12929109E+08</totfact>
</mgrwt>
</event>
<event>
 4    1  0.2812958E+004  0.2274869E+02  0.7546771E-02  0.1695616E+00
         21   -1    0    0  503  502  0.00000000000E+00  0.00000000000E+00  0.51800066674E+01  0.51800066674E+01  0.00000000000E+00 0.  1.
         21   -1    0    0  501  503 -0.00000000000E+00 -0.00000000000E+00 -0.12374961321E+03  0.12374961321E+03  0.00000000000E+00 0. -1.
          2    1    1    2  501    0 -0.45037042625E+01  0.22298419923E+02 -0.87582814417E+02  0.90488962113E+02  0.00000000000E+00 0.  1.
         -2    1    1    2    0  502  0.45037042625E+01 -0.22298419923E+02 -0.30986792128E+02  0.38440657766E+02  0.00000000000E+00 0. -1.
<mgrwt>
<rscale>  2 0.22748690E+02</rscale>
<asrwt>0</asrwt>
<pdfrwt beam="1">  1       21 0.79692425E-03 0.22748690E+02</pdfrwt>
<pdfrwt beam="2">  1       21 0.19038399E-01 0.22748690E+02</pdfrwt>
<totfact> 0.93992410E+07</totfact>
</mgrwt>
</event>
<event>
 4    1  0.2812958E+004  0.2184283E+02  0.7546771E-02  0.1710984E+00
         21   -1    0    0  503  502  0.00000000000E+00  0.00000000000E+00  0.96476654437E+02  0.96476654437E+02  0.00000000000E+00 0.  1.
         21   -1    0    0  501  503 -0.00000000000E+00 -0.00000000000E+00 -0.91023570605E+01  0.91023570605E+01  0.00000000000E+00 0. -1.
          2    1    1    2  501    0 -0.69241589535E+01 -0.20716303324E+02  0.80123179288E+01  0.23265993192E+02  0.00000000000E+00 0. -1.
         -2    1    1    2    0  502  0.69241589535E+01  0.20716303324E+02  0.79361979448E+02  0.82313018305E+02  0.00000000000E+00 0.  1.
<mgrwt>
<rscale>  2 0.21842830E+02</rscale>
<asrwt>0</asrwt>
<pdfrwt beam="1">  1       21 0.14842562E-01 0.21842830E+02</pdfrwt>
<pdfrwt beam="2">  1       21 0.14003627E-02 0.21842830E+02</pdfrwt>
<totfact> 0.61089526E+07</totfact>
</mgrwt>
</event>
<event>
 4    1  0.2812958E+004  0.2331208E+02  0.7546771E-02  0.1686501E+00
         21   -1    0    0  503  502  0.00000000000E+00  0.00000000000E+00  0.85968570756E+03  0.85968570756E+03  0.00000000000E+00 0. -1.
         21   -1    0    0  501  503 -0.00000000000E+00 -0.00000000000E+00 -0.67832647712E+00  0.67832647712E+00  0.00000000000E+00 0.  1.
          2    1    1    2  501    0 -0.61843810664E+01  0.22476800981E+02  0.54173855238E+03  0.54223990289E+03  0.00000000000E+00 0.  1.
         -2    1    1    2    0  502  0.61843810664E+01 -0.22476800981E+02  0.31726882870E+03  0.31812413115E+03  0.00000000000E+00 0. -1.
<mgrwt>
<rscale>  2 0.23312082E+02</rscale>
<asrwt>0</asrwt>
<pdfrwt beam="1">  1       21 0.13225847E+00 0.23312082E+02</pdfrwt>
<pdfrwt beam="2">  1       21 0.10435861E-03 0.23312082E+02</pdfrwt>
<totfact> 0.40013592E+07</totfact>
</mgrwt>
</event>
<event>
 4    1  0.2812958E+004  0.2263381E+02  0.7546771E-02  0.1697516E+00
         21   -1    0    0  503  502  0.00000000000E+00  0.00000000000E+00  0.28975848084E+03  0.28975848084E+03  0.00000000000E+00 0.  1.
         21   -1    0    0  501  503 -0.00000000000E+00 -0.00000000000E+00 -0.17982860966E+01  0.17982860966E+01  0.00000000000E+00 0. -1.
          2    1    1    2  501    0 -0.19327316791E+02  0.11778967668E+02  0.12505762309E+03  0.12708933216E+03  0.00000000000E+00 0. -1.
         -2    1    1    2    0  502  0.19327316791E+02 -0.11778967668E+02  0.16290257165E+03  0.16446743478E+03  0.00000000000E+00 0.  1.
<mgrwt>
<rscale>  2 0.22633808E+02</rscale>
<asrwt>0</asrwt>
<pdfrwt beam="1">  1       21 0.44578191E-01 0.22633808E+02</pdfrwt>
<pdfrwt beam="2">  1       21 0.27665963E-03 0.22633808E+02</pdfrwt>
<totfact> 0.95082054E+07</totfact>
</mgrwt>
</event>
<event>
 4    1  0.2812958E+004  0.2903181E+02  0.7546771E-02  0.1609044E+00
         21   -1    0    0  503  502  0.00000000000E+00  0.00000000000E+00  0.45297012545E+01  0.45297012545E+01  0.00000000000E+00 0.  1.
         21   -1    0    0  501  503 -0.00000000000E+00 -0.00000000000E+00 -0.22229464537E+03  0.22229464537E+03  0.00000000000E+00 0. -1.
          2    1    1    2  501    0 -0.10416234320E+02  0.27098860530E+02 -0.15466408265E+03  0.15736525869E+03  0.00000000000E+00 0. -1.
         -2    1    1    2    0  502  0.10416234320E+02 -0.27098860530E+02 -0.63100861460E+02  0.69459087932E+02  0.00000000000E+00 0.  1.
<mgrwt>
<rscale>  2 0.29031813E+02</rscale>
<asrwt>0</asrwt>
<pdfrwt beam="1">  1       21 0.69687710E-03 0.29031813E+02</pdfrwt>
<pdfrwt beam="2">  1       21 0.34199177E-01 0.29031813E+02</pdfrwt>
<totfact> 0.42513071E+07</totfact>
</mgrwt>
</event>
<event>
 4    1  0.2812958E+004  0.2138882E+02  0.7546771E-02  0.1719042E+00
         21   -1    0    0  501  502  0.00000000000E+00  0.00000000000E+00  0.40615595838E+02  0.40615595838E+02  0.00000000000E+00 0. -1.
         21   -1    0    0  502  503 -0.00000000000E+00 -0.00000000000E+00 -0.26000659312E+03  0.26000659312E+03  0.00000000000E+00 0.  1.
          2    1    1    2  501    0 -0.10690976214E+02 -0.18525240664E+02  0.37323752192E+02  0.43017949646E+02  0.00000000000E+00 0. -1.
         -2    1    1    2    0  503  0.10690976214E+02  0.18525240664E+02 -0.25671474947E+03  0.25760423931E+03  0.00000000000E+00 0.  1.
<mgrwt>
<rscale>  2 0.21388817E+02</rscale>
<asrwt>0</asrwt>
<pdfrwt beam="1">  1       21 0.62485530E-02 0.21388817E+02</pdfrwt>
<pdfrwt beam="2">  1       21 0.40001016E-01 0.21388817E+02</pdfrwt>
<totfact> 0.10201921E+06</totfact>
</mgrwt>
</event>
<event>
 4    1  0.2812958E+004  0.2714602E+02  0.7546771E-02  0.1631963E+00
         21   -1    0    0  501  502  0.00000000000E+00  0.00000000000E+00  0.20927005226E+02  0.20927005226E+02  0.00000000000E+00 0. -1.
         21   -1    0    0  502  503 -0.00000000000E+00 -0.00000000000E+00 -0.35452338700E+02  0.35452338700E+02  0.00000000000E+00 0.  1.
          2    1    1    2  501    0 -0.14164338730E+02 -0.23157673957E+02 -0.95779957509E+01  0.28786183445E+02  0.00000000000E+00 0.  1.
         -2    1    1    2    0  503  0.14164338730E+02  0.23157673957E+02 -0.49473377229E+01  0.27593160480E+02  0.00000000000E+00 0. -1.
<mgrwt>
<rscale>  2 0.27146019E+02</rscale>
<asrwt>0</asrwt>
<pdfrwt beam="1">  1       21 0.32195393E-02 0.27146019E+02</pdfrwt>
<pdfrwt beam="2">  1       21 0.54542059E-02 0.27146019E+02</pdfrwt>
<totfact> 0.93446199E+07</totfact>
</mgrwt>
</event>
<event>
 4    1  0.2812958E+004  0.2119574E+02  0.7546771E-02  0.1722544E+00
         21   -1    0    0  503  502  0.00000000000E+00  0.00000000000E+00  0.12779454695E+02  0.12779454695E+02  0.00000000000E+00 0.  1.
         21   -1    0    0  501  503 -0.00000000000E+00 -0.00000000000E+00 -0.61392961344E+02  0.61392961344E+02  0.00000000000E+00 0. -1.
          2    1    1    2  501    0 -0.70539519749E+01 -0.19987528729E+02 -0.48551608753E+02  0.52976582144E+02  0.00000000000E+00 0. -1.
         -2    1    1    2    0  502  0.70539519749E+01  0.19987528729E+02 -0.61897895898E-01  0.21195833895E+02  0.00000000000E+00 0.  1.
<mgrwt>
<rscale>  2 0.21195744E+02</rscale>
<asrwt>0</asrwt>
<pdfrwt beam="1">  1       21 0.19660700E-02 0.21195744E+02</pdfrwt>
<pdfrwt beam="2">  1       21 0.94450709E-02 0.21195744E+02</pdfrwt>
<totfact> 0.76882010E+07</totfact>
</mgrwt>
</event>
<event>
 4    1  0.2812958E+004  0.2173937E+02  0.7546771E-02  0.1712799E+00
         21   -1    0    0  503  502  0.00000000000E+00  0.00000000000E+00  0.23583848988E+03  0.23583848988E+03  0.00000000000E+00 0. -1.
         21   -1    0    0  501  503 -0.00000000000E+00 -0.00000000000E+00 -0.47340630094E+01  0.47340630094E+01  0.00000000000E+00 0.  1.
          2    1    1    2  501    0  0.18834801678E+02 -0.10855885345E+02  0.24205640844E+02  0.32534797518E+02  0.00000000000E+00 0.  1.
         -2    1    1    2    0  502 -0.18834801678E+02  0.10855885345E+02  0.20689878603E+03  0.20803775537E+03  0.00000000000E+00 0. -1.
<mgrwt>
<rscale>  2 0.21739365E+02</rscale>
<asrwt>0</asrwt>
<pdfrwt beam="1">  1       21 0.36282835E-01 0.21739365E+02</pdfrwt>
<pdfrwt beam="2">  1       21 0.72831757E-03 0.21739365E+02</pdfrwt>
<totfact> 0.33452315E+07</totfact>
</mgrwt>
</event>
<event>
 4    1  0.2812958E+004  0.2232346E+02  0.7546771E-02  0.1702717E+00
         21   -1    0    0  501  502  0.00000000000E+00  0.00000000000E+00  0.93948518049E+02  0.93948518049E+02  0.00000000000E+00 0.  1.
         21   -1    0    0  502  503 -0.00000000000E+00 -0.00000000000E+00 -0.20005563745E+02  0.20005563745E+02  0.00000000000E+00 0. -1.
          2    1    1    2  501    0  0.73242845588E+01  0.21087712915E+02  0.85814320558E+02  0.88670369308E+02  0.00000000000E+00 0.  1.
         -2    1    1    2    0  503 -0.73242845588E+01 -0.21087712915E+02 -0.11871366255E+02  0.25283712486E+02  0.00000000000E+00 0. -1.
<mgrwt>
<rscale>  2 0.22323458E+02</rscale>
<asrwt>0</asrwt>
<pdfrwt beam="1">  1       21 0.14453618E-01 0.22323458E+02</pdfrwt>
<pdfrwt beam="2">  1       21 0.30777791E-02 0.22323458E+02</pdfrwt>
<totfact> 0.19188866E+07</totfact>
</mgrwt>
</event>
<event>
 4    1  0.2812958E+004  0.2353008E+02  0.7546771E-02  0.1683059E+00
         21   -1    0    0  503  502  0.00000000000E+00  0.00000000000E+00  0.12995647351E+02  0.12995647351E+02  0.00000000000E+00 0.  1.
         21   -1    0    0  501  503 -0.00000000000E+00 -0.00000000000E+00 -0.42757569909E+02  0.42757569909E+02  0.00000000000E+00 0. -1.
          2    1    1    2  501    0 -0.82148577091E+01 -0.22049511928E+02 -0.16552325045E+02  0.28768808245E+02  0.00000000000E+00 0. -1.
         -2    1    1    2    0  502  0.82148577091E+01  0.22049511928E+02 -0.13209597513E+02  0.26984409015E+02  0.00000000000E+00 0.  1.
<mgrwt>
<rscale>  2 0.23530084E+02</rscale>
<asrwt>0</asrwt>
<pdfrwt beam="1">  1       21 0.19993303E-02 0.23530084E+02</pdfrwt>
<pdfrwt beam="2">  1       21 0.65780877E-02 0.23530084E+02</pdfrwt>
<totfact> 0.13920654E+08</totfact>
</mgrwt>
</event>
<event>
 4    1  0.2812958E+004  0.2402632E+02  0.7546771E-02  0.1675394E+00
         21   -1    0    0  503  502  0.00000000000E+00  0.00000000000E+00  0.89901815778E+02  0.89901815778E+02  0.00000000000E+00 0.  1.
         21   -1    0    0  501  503 -0.00000000000E+00 -0.00000000000E+00 -0.27143001729E+02  0.27143001729E+02  0.00000000000E+00 0. -1.
          2    1    1    2  501    0 -0.13278470060E+02  0.20023637776E+02 -0.19754456757E+02  0.31104700589E+02  0.00000000000E+00 0. -1.
         -2    1    1    2    0  502  0.13278470060E+02 -0.20023637776E+02  0.82513270806E+02  0.85940116919E+02  0.00000000000E+00 0.  1.
<mgrwt>
<rscale>  2 0.24026316E+02</rscale>
<asrwt>0</asrwt>
<pdfrwt beam="1">  1       21 0.13831048E-01 0.24026316E+02</pdfrwt>
<pdfrwt beam="2">  1       21 0.41758465E-02 0.24026316E+02</pdfrwt>
<totfact> 0.13012066E+07</totfact>
</mgrwt>
</event>
<event>
 4    1  0.2812958E+004  0.2587218E+02  0.7546771E-02  0.1648782E+00
         21   -1    0    0  503  502  0.00000000000E+00  0.00000000000E+00  0.18435451978E+03  0.18435451978E+03  0.00000000000E+00 0.  1.
         21   -1    0    0  501  503 -0.00000000000E+00 -0.00000000000E+00 -0.16913928774E+02  0.16913928774E+02  0.00000000000E+00 0. -1.
          2    1    1    2  501    0 -0.42936686680E+01  0.25513406466E+02 -0.54606979930E+01  0.26442176966E+02  0.00000000000E+00 0. -1.
         -2    1    1    2    0  502  0.42936686680E+01 -0.25513406466E+02  0.17290128900E+03  0.17482627159E+03  0.00000000000E+00 0.  1.
<mgrwt>
<rscale>  2 0.25872176E+02</rscale>
<asrwt>0</asrwt>
<pdfrwt beam="1">  1       21 0.28362232E-01 0.25872176E+02</pdfrwt>
<pdfrwt beam="2">  1       21 0.26021430E-02 0.25872176E+02</pdfrwt>
<totfact> 0.78698057E+06</totfact>
</mgrwt>
</event>
<event>
 4    1  0.2812958E+004  0.2956600E+02  0.7546771E-02  0.1602936E+00
         21   -1    0    0  503  502  0.00000000000E+00  0.00000000000E+00  0.10345522107E+02  0.10345522107E+02  0.00000000000E+00 0.  1.
         21   -1    0    0  501  503 -0.00000000000E+00 -0.00000000000E+00 -0.97904994316E+02  0.97904994316E+02  0.00000000000E+00 0. -1.
          2    1    1    2  501    0 -0.27412956263E+02 -0.11076006994E+02 -0.63810929682E+02  0.70327681953E+02  0.00000000000E+00 0.  1.
         -2    1    1    2    0  502  0.27412956263E+02  0.11076006994E+02 -0.23748542527E+02  0.37922834469E+02  0.00000000000E+00 0. -1.
<mgrwt>
<rscale>  2 0.29565996E+02</rscale>
<asrwt>0</asrwt>
<pdfrwt beam="1">  1       21 0.15916188E-02 0.29565996E+02</pdfrwt>
<pdfrwt beam="2">  1       21 0.15062307E-01 0.29565996E+02</pdfrwt>
<totfact> 0.52779725E+07</totfact>
</mgrwt>
</event>
<event>
 4    1  0.2812958E+004  0.4197866E+02  0.7546771E-02  0.1494136E+00
         21   -1    0    0  501  502  0.00000000000E+00  0.00000000000E+00  0.92433836093E+01  0.92433836093E+01  0.00000000000E+00 0.  1.
         21   -1    0    0  502  503 -0.00000000000E+00 -0.00000000000E+00 -0.19978621943E+03  0.19978621943E+03  0.00000000000E+00 0. -1.
          2    1    1    2  501    0  0.40314607432E+02 -0.11702155515E+02 -0.11762715599E+03  0.12489337790E+03  0.00000000000E+00 0. -1.
         -2    1    1    2    0  503 -0.40314607432E+02  0.11702155515E+02 -0.72915679829E+02  0.84136225142E+02  0.00000000000E+00 0.  1.
<mgrwt>
<rscale>  2 0.41978661E+02</rscale>
<asrwt>0</asrwt>
<pdfrwt beam="1">  1       21 0.14220592E-02 0.41978661E+02</pdfrwt>
<pdfrwt beam="2">  1       21 0.30736337E-01 0.41978661E+02</pdfrwt>
<totfact> 0.18682018E+07</totfact>
</mgrwt>
</event>
<event>
 4    1  0.2812958E+004  0.2244052E+02  0.7546771E-02  0.1700743E+00
         21   -1    0    0  503  502  0.00000000000E+00  0.00000000000E+00  0.33315397417E+01  0.33315397417E+01  0.00000000000E+00 0. -1.
         21   -1    0    0  501  503 -0.00000000000E+00 -0.00000000000E+00 -0.41163982869E+03  0.41163982869E+03  0.00000000000E+00 0.  1.
          2    1    1    2  501    0  0.16366448543E+02 -0.15353060038E+02 -0.36920626565E+03  0.36988760954E+03  0.00000000000E+00 0.  1.
         -2    1    1    2    0  502 -0.16366448543E+02  0.15353060038E+02 -0.39102023297E+02  0.45083758898E+02  0.00000000000E+00 0. -1.
<mgrwt>
<rscale>  2 0.22440523E+02</rscale>
<asrwt>0</asrwt>
<pdfrwt beam="1">  1       21 0.51254435E-03 0.22440523E+02</pdfrwt>
<pdfrwt beam="2">  1       21 0.63329232E-01 0.22440523E+02</pdfrwt>
<totfact> 0.19331414E+07</totfact>
</mgrwt>
</event>
<event>
 4    1  0.2812958E+004  0.3139757E+02  0.7546771E-02  0.1583135E+00
         21   -1    0    0  503  502  0.00000000000E+00  0.00000000000E+00  0.91810914540E+00  0.91810914540E+00  0.00000000000E+00 0.  1.
         21   -1    0    0  501  503 -0.00000000000E+00 -0.00000000000E+00 -0.14428791537E+04  0.14428791537E+04  0.00000000000E+00 0. -1.
          2    1    1    2  501    0 -0.29364619696E+01 -0.31259953324E+02 -0.10861195309E+04  0.10865732571E+04  0.00000000000E+00 0. -1.
         -2    1    1    2    0  502  0.29364619696E+01  0.31259953324E+02 -0.35584151366E+03  0.35722400582E+03  0.00000000000E+00 0.  1.
<mgrwt>
<rscale>  2 0.31397571E+02</rscale>
<asrwt>0</asrwt>
<pdfrwt beam="1">  1       21 0.14124736E-03 0.31397571E+02</pdfrwt>
<pdfrwt beam="2">  1       21 0.22198172E+00 0.31397571E+02</pdfrwt>
<totfact> 0.73931265E+06</totfact>
</mgrwt>
</event>
<event>
 4    1  0.2812958E+004  0.2507696E+02  0.7546771E-02  0.1659899E+00
         21   -1    0    0  503  502  0.00000000000E+00  0.00000000000E+00  0.44616144212E+02  0.44616144212E+02  0.00000000000E+00 0. -1.
         21   -1    0    0  501  503 -0.00000000000E+00 -0.00000000000E+00 -0.14153161910E+02  0.14153161910E+02  0.00000000000E+00 0.  1.
          2    1    1    2  501    0 -0.25040462944E+02 -0.13524046732E+01  0.13343880079E+02  0.28406212673E+02  0.00000000000E+00 0.  1.
         -2    1    1    2    0  502  0.25040462944E+02  0.13524046732E+01  0.17119102223E+02  0.30363093449E+02  0.00000000000E+00 0. -1.
<mgrwt>
<rscale>  2 0.25076957E+02</rscale>
<asrwt>0</asrwt>
<pdfrwt beam="1">  1       21 0.68640221E-02 0.25076957E+02</pdfrwt>
<pdfrwt beam="2">  1       21 0.21774096E-02 0.25076957E+02</pdfrwt>
<totfact> 0.11603389E+08</totfact>
</mgrwt>
</event>
<event>
 4    1  0.2812958E+004  0.2197527E+02  0.7546771E-02  0.1708680E+00
         21   -1    0    0  501  502  0.00000000000E+00  0.00000000000E+00  0.82211193167E+02  0.82211193167E+02  0.00000000000E+00 0. -1.
         21   -1    0    0  502  503 -0.00000000000E+00 -0.00000000000E+00 -0.10875168531E+02  0.10875168531E+02  0.00000000000E+00 0.  1.
          2    1    1    2  501    0  0.10292747219E+02  0.19415761930E+02  0.67230537608E+02  0.70730881824E+02  0.00000000000E+00 0. -1.
         -2    1    1    2    0  503 -0.10292747219E+02 -0.19415761930E+02  0.41054870281E+01  0.22355479873E+02  0.00000000000E+00 0.  1.
<mgrwt>
<rscale>  2 0.21975269E+02</rscale>
<asrwt>0</asrwt>
<pdfrwt beam="1">  1       21 0.12647875E-01 0.21975269E+02</pdfrwt>
<pdfrwt beam="2">  1       21 0.16731029E-02 0.21975269E+02</pdfrwt>
<totfact> 0.61176458E+07</totfact>
</mgrwt>
</event>
<event>
 4    1  0.2812958E+004  0.2582426E+02  0.7546771E-02  0.1649437E+00
         21   -1    0    0  501  502  0.00000000000E+00  0.00000000000E+00  0.39908207642E+03  0.39908207642E+03  0.00000000000E+00 0. -1.
         21   -1    0    0  502  503 -0.00000000000E+00 -0.00000000000E+00 -0.17389874102E+01  0.17389874102E+01  0.00000000000E+00 0.  1.
          2    1    1    2  501    0  0.13115600916E+02  0.22245753823E+02  0.15906425007E+03  0.16114691496E+03  0.00000000000E+00 0.  1.
         -2    1    1    2    0  503 -0.13115600916E+02 -0.22245753823E+02  0.23827883894E+03  0.23967414887E+03  0.00000000000E+00 0. -1.
<mgrwt>
<rscale>  2 0.25824263E+02</rscale>
<asrwt>0</asrwt>
<pdfrwt beam="1">  1       21 0.61397170E-01 0.25824263E+02</pdfrwt>
<pdfrwt beam="2">  1       21 0.26753684E-03 0.25824263E+02</pdfrwt>
<totfact> 0.54987815E+07</totfact>
</mgrwt>
</event>
<event>
 4    1  0.2812958E+004  0.2288568E+02  0.7546771E-02  0.1693370E+00
         21   -1    0    0  501  502  0.00000000000E+00  0.00000000000E+00  0.93510687161E+01  0.93510687161E+01  0.00000000000E+00 0. -1.
         21   -1    0    0  502  503 -0.00000000000E+00 -0.00000000000E+00 -0.17196294761E+03  0.17196294761E+03  0.00000000000E+00 0.  1.
          2    1    1    2  501    0 -0.44165011375E+01  0.22455482110E+02 -0.68628002800E+01  0.23892513195E+02  0.00000000000E+00 0. -1.
         -2    1    1    2    0  503  0.44165011375E+01 -0.22455482110E+02 -0.15574907861E+03  0.15742150313E+03  0.00000000000E+00 0.  1.
<mgrwt>
<rscale>  2 0.22885676E+02</rscale>
<asrwt>0</asrwt>
<pdfrwt beam="1">  1       21 0.14386260E-02 0.22885676E+02</pdfrwt>
<pdfrwt beam="2">  1       21 0.26455838E-01 0.22885676E+02</pdfrwt>
<totfact> 0.21664418E+07</totfact>
</mgrwt>
</event>
<event>
 4    1  0.2812958E+004  0.2515765E+02  0.7546771E-02  0.1658748E+00
         21   -1    0    0  503  502  0.00000000000E+00  0.00000000000E+00  0.24668010670E+03  0.24668010670E+03  0.00000000000E+00 0. -1.
         21   -1    0    0  501  503 -0.00000000000E+00 -0.00000000000E+00 -0.33333470426E+01  0.33333470426E+01  0.00000000000E+00 0.  1.
          2    1    1    2  501    0 -0.94926341858E+01 -0.23298012226E+02  0.61684115925E+02  0.66617097167E+02  0.00000000000E+00 0.  1.
         -2    1    1    2    0  502  0.94926341858E+01  0.23298012226E+02  0.18166264373E+03  0.18339635658E+03  0.00000000000E+00 0. -1.
<mgrwt>
<rscale>  2 0.25157652E+02</rscale>
<asrwt>0</asrwt>
<pdfrwt beam="1">  1       21 0.37950771E-01 0.25157652E+02</pdfrwt>
<pdfrwt beam="2">  1       21 0.51282281E-03 0.25157652E+02</pdfrwt>
<totfact> 0.53543907E+07</totfact>
</mgrwt>
</event>
<event>
 4    1  0.2812958E+004  0.2396857E+02  0.7546771E-02  0.1676274E+00
         21   -1    0    0  501  502  0.00000000000E+00  0.00000000000E+00  0.11756792964E+03  0.11756792964E+03  0.00000000000E+00 0.  1.
         21   -1    0    0  502  503 -0.00000000000E+00 -0.00000000000E+00 -0.48903790451E+01  0.48903790451E+01  0.00000000000E+00 0. -1.
          2    1    1    2  501    0  0.23245012936E+02  0.58447972268E+01  0.58069650241E+02  0.62821784121E+02  0.00000000000E+00 0.  1.
         -2    1    1    2    0  503 -0.23245012936E+02 -0.58447972268E+01  0.54607900357E+02  0.59636524567E+02  0.00000000000E+00 0. -1.
<mgrwt>
<rscale>  2 0.23968569E+02</rscale>
<asrwt>0</asrwt>
<pdfrwt beam="1">  1       21 0.18087372E-01 0.23968569E+02</pdfrwt>
<pdfrwt beam="2">  1       21 0.75236610E-03 0.23968569E+02</pdfrwt>
<totfact> 0.11357179E+08</totfact>
</mgrwt>
</event>
<event>
 4    1  0.2812958E+004  0.4437931E+02  0.7546771E-02  0.1478254E+00
         21   -1    0    0  503  502  0.00000000000E+00  0.00000000000E+00  0.12041969823E+02  0.12041969823E+02  0.00000000000E+00 0. -1.
         21   -1    0    0  501  503 -0.00000000000E+00 -0.00000000000E+00 -0.20453825103E+03  0.20453825103E+03  0.00000000000E+00 0.  1.
          2    1    1    2  501    0 -0.36914292326E+02 -0.24634494641E+02 -0.14472173243E+03  0.15137338981E+03  0.00000000000E+00 0.  1.
         -2    1    1    2    0  502  0.36914292326E+02  0.24634494641E+02 -0.47774548772E+02  0.65206831042E+02  0.00000000000E+00 0. -1.
<mgrwt>
<rscale>  2 0.44379312E+02</rscale>
<asrwt>0</asrwt>
<pdfrwt beam="1">  1       21 0.18526110E-02 0.44379312E+02</pdfrwt>
<pdfrwt beam="2">  1       21 0.31467420E-01 0.44379312E+02</pdfrwt>
<totfact> 0.11935936E+07</totfact>
</mgrwt>
</event>
<event>
 4    1  0.2812958E+004  0.2879567E+02  0.7546771E-02  0.1611796E+00
         21   -1    0    0  501  502  0.00000000000E+00  0.00000000000E+00  0.56274416342E+01  0.56274416342E+01  0.00000000000E+00 0.  1.
         21   -1    0    0  502  503 -0.00000000000E+00 -0.00000000000E+00 -0.88839188717E+03  0.88839188717E+03  0.00000000000E+00 0. -1.
          2    1    1    2  501    0 -0.73041335519E+01  0.27853911035E+02 -0.33122378370E+02  0.43889436950E+02  0.00000000000E+00 0.  1.
         -2    1    1    2    0  503  0.73041335519E+01 -0.27853911035E+02 -0.84964206716E+03  0.85012989185E+03  0.00000000000E+00 0. -1.
<mgrwt>
<rscale>  2 0.28795672E+02</rscale>
<asrwt>0</asrwt>
<pdfrwt beam="1">  1       21 0.86576036E-03 0.28795672E+02</pdfrwt>
<pdfrwt beam="2">  1       21 0.13667566E+00 0.28795672E+02</pdfrwt>
<totfact> 0.17226610E+06</totfact>
</mgrwt>
</event>
<event>
 4    1  0.2812958E+004  0.2028293E+02  0.7546771E-02  0.1739759E+00
         21   -1    0    0  503  502  0.00000000000E+00  0.00000000000E+00  0.17523036954E+03  0.17523036954E+03  0.00000000000E+00 0. -1.
         21   -1    0    0  501  503 -0.00000000000E+00 -0.00000000000E+00 -0.29157711707E+01  0.29157711707E+01  0.00000000000E+00 0.  1.
          2    1    1    2  501    0  0.11598221516E+01 -0.20249746258E+02  0.46842932223E+02  0.51045643401E+02  0.00000000000E+00 0.  1.
         -2    1    1    2    0  502 -0.11598221516E+01  0.20249746258E+02  0.12547166615E+03  0.12710049731E+03  0.00000000000E+00 0. -1.
<mgrwt>
<rscale>  2 0.20282934E+02</rscale>
<asrwt>0</asrwt>
<pdfrwt beam="1">  1       21 0.26958510E-01 0.20282934E+02</pdfrwt>
<pdfrwt beam="2">  1       21 0.44858032E-03 0.20282934E+02</pdfrwt>
<totfact> 0.11534655E+08</totfact>
</mgrwt>
</event>
<event>
 4    1  0.2812958E+004  0.3059171E+02  0.7546771E-02  0.1591639E+00
         21   -1    0    0  503  502  0.00000000000E+00  0.00000000000E+00  0.22955032823E+01  0.22955032823E+01  0.00000000000E+00 0. -1.
         21   -1    0    0  501  503 -0.00000000000E+00 -0.00000000000E+00 -0.83734408226E+03  0.83734408226E+03  0.00000000000E+00 0.  1.
          2    1    1    2  501    0  0.83378784335E+01  0.29433523506E+02 -0.71825007639E+03  0.71890126218E+03  0.00000000000E+00 0.  1.
         -2    1    1    2    0  502 -0.83378784335E+01 -0.29433523506E+02 -0.11679850259E+03  0.12073832337E+03  0.00000000000E+00 0. -1.
<mgrwt>
<rscale>  2 0.30591707E+02</rscale>
<asrwt>0</asrwt>
<pdfrwt beam="1">  1       21 0.35315384E-03 0.30591707E+02</pdfrwt>
<pdfrwt beam="2">  1       21 0.12882235E+00 0.30591707E+02</pdfrwt>
<totfact> 0.75774872E+06</totfact>
</mgrwt>
</event>
<event>
 4    1  0.2812958E+004  0.2617645E+02  0.7546771E-02  0.1644657E+00
         21   -1    0    0  503  502  0.00000000000E+00  0.00000000000E+00  0.32026927447E+03  0.32026927447E+03  0.00000000000E+00 0. -1.
         21   -1    0    0  501  503 -0.00000000000E+00 -0.00000000000E+00 -0.49075067237E+01  0.49075067237E+01  0.00000000000E+00 0.  1.
          2    1    1    2  501    0  0.25975103094E+02 -0.32404951482E+01  0.35572654295E+02  0.44165829814E+02  0.00000000000E+00 0.  1.
         -2    1    1    2    0  502 -0.25975103094E+02  0.32404951482E+01  0.27978911345E+03  0.28101095138E+03  0.00000000000E+00 0. -1.
<mgrwt>
<rscale>  2 0.26176455E+02</rscale>
<asrwt>0</asrwt>
<pdfrwt beam="1">  1       21 0.49272180E-01 0.26176455E+02</pdfrwt>
<pdfrwt beam="2">  1       21 0.75500129E-03 0.26176455E+02</pdfrwt>
<totfact> 0.18417612E+07</totfact>
</mgrwt>
</event>
<event>
 4    1  0.2812958E+004  0.2113490E+02  0.7546771E-02  0.1723658E+00
         21   -1    0    0  501  502  0.00000000000E+00  0.00000000000E+00  0.11591764500E+02  0.11591764500E+02  0.00000000000E+00 0. -1.
         21   -1    0    0  502  503 -0.00000000000E+00 -0.00000000000E+00 -0.54003895575E+02  0.54003895575E+02  0.00000000000E+00 0.  1.
          2    1    1    2  501    0 -0.10725287749E+02 -0.18211326192E+02 -0.36524086765E+01  0.21448176801E+02  0.00000000000E+00 0. -1.
         -2    1    1    2    0  503  0.10725287749E+02  0.18211326192E+02 -0.38759722399E+02  0.44147483274E+02  0.00000000000E+00 0.  1.
<mgrwt>
<rscale>  2 0.21134905E+02</rscale>
<asrwt>0</asrwt>
<pdfrwt beam="1">  1       21 0.17833484E-02 0.21134905E+02</pdfrwt>
<pdfrwt beam="2">  1       21 0.83082917E-02 0.21134905E+02</pdfrwt>
<totfact> 0.10995778E+08</totfact>
</mgrwt>
</event>
<event>
 4    1  0.2812958E+004  0.2226871E+02  0.7546771E-02  0.1703646E+00
         21   -1    0    0  503  502  0.00000000000E+00  0.00000000000E+00  0.72407028328E+02  0.72407028328E+02  0.00000000000E+00 0.  1.
         21   -1    0    0  501  503 -0.00000000000E+00 -0.00000000000E+00 -0.68769023260E+01  0.68769023260E+01  0.00000000000E+00 0. -1.
          2    1    1    2  501    0  0.13811494339E+02  0.17468203508E+02  0.35302774248E+02  0.41739446322E+02  0.00000000000E+00 0. -1.
         -2    1    1    2    0  502 -0.13811494339E+02 -0.17468203508E+02  0.30227351755E+02  0.37544484332E+02  0.00000000000E+00 0.  1.
<mgrwt>
<rscale>  2 0.22268711E+02</rscale>
<asrwt>0</asrwt>
<pdfrwt beam="1">  1       21 0.11139542E-01 0.22268711E+02</pdfrwt>
<pdfrwt beam="2">  1       21 0.10579850E-02 0.22268711E+02</pdfrwt>
<totfact> 0.15183938E+08</totfact>
</mgrwt>
</event>
<event>
 4    1  0.2812958E+004  0.2523902E+02  0.7546771E-02  0.1657592E+00
         21   -1    0    0  501  502  0.00000000000E+00  0.00000000000E+00  0.67168894929E+02  0.67168894929E+02  0.00000000000E+00 0.  1.
         21   -1    0    0  502  503 -0.00000000000E+00 -0.00000000000E+00 -0.29190496805E+02  0.29190496805E+02  0.00000000000E+00 0. -1.
          2    1    1    2  501    0  0.17059986254E+02  0.18600134309E+02  0.58576106888E+02  0.63782195207E+02  0.00000000000E+00 0.  1.
         -2    1    1    2    0  503 -0.17059986254E+02 -0.18600134309E+02 -0.20597708764E+02  0.32577196528E+02  0.00000000000E+00 0. -1.
<mgrwt>
<rscale>  2 0.25239020E+02</rscale>
<asrwt>0</asrwt>
<pdfrwt beam="1">  1       21 0.10333676E-01 0.25239020E+02</pdfrwt>
<pdfrwt beam="2">  1       21 0.44908457E-02 0.25239020E+02</pdfrwt>
<totfact> 0.19103104E+07</totfact>
</mgrwt>
</event>
<event>
 4    1  0.2812958E+004  0.2635195E+02  0.7546771E-02  0.1642310E+00
         21   -1    0    0  503  502  0.00000000000E+00  0.00000000000E+00  0.14062105998E+01  0.14062105998E+01  0.00000000000E+00 0.  1.
         21   -1    0    0  501  503 -0.00000000000E+00 -0.00000000000E+00 -0.78513020582E+03  0.78513020582E+03  0.00000000000E+00 0. -1.
          2    1    1    2  501    0  0.22297420609E+02 -0.14044589105E+02 -0.63140873728E+03  0.63195839971E+03  0.00000000000E+00 0. -1.
         -2    1    1    2    0  502 -0.22297420609E+02  0.14044589105E+02 -0.15231525794E+03  0.15457801671E+03  0.00000000000E+00 0.  1.
<mgrwt>
<rscale>  2 0.26351953E+02</rscale>
<asrwt>0</asrwt>
<pdfrwt beam="1">  1       21 0.21634013E-03 0.26351953E+02</pdfrwt>
<pdfrwt beam="2">  1       21 0.12078924E+00 0.26351953E+02</pdfrwt>
<totfact> 0.17651045E+07</totfact>
</mgrwt>
</event>
<event>
 4    1  0.2812958E+004  0.2162290E+02  0.7546771E-02  0.1714857E+00
         21   -1    0    0  503  502  0.00000000000E+00  0.00000000000E+00  0.12081194727E+02  0.12081194727E+02  0.00000000000E+00 0. -1.
         21   -1    0    0  501  503 -0.00000000000E+00 -0.00000000000E+00 -0.60218030489E+02  0.60218030489E+02  0.00000000000E+00 0.  1.
          2    1    1    2  501    0  0.15312543435E+02  0.15266820577E+02 -0.45677450121E+02  0.50536909745E+02  0.00000000000E+00 0.  1.
         -2    1    1    2    0  502 -0.15312543435E+02 -0.15266820577E+02 -0.24593856407E+01  0.21762315472E+02  0.00000000000E+00 0. -1.
<mgrwt>
<rscale>  2 0.21622900E+02</rscale>
<asrwt>0</asrwt>
<pdfrwt beam="1">  1       21 0.18586453E-02 0.21622900E+02</pdfrwt>
<pdfrwt beam="2">  1       21 0.92643124E-02 0.21622900E+02</pdfrwt>
<totfact> 0.86962728E+07</totfact>
</mgrwt>
</event>
<event>
 4    1  0.2812958E+004  0.2221891E+02  0.7546771E-02  0.1704493E+00
         21   -1    0    0  503  502  0.00000000000E+00  0.00000000000E+00  0.79160885552E+02  0.79160885552E+02  0.00000000000E+00 0. -1.
         21   -1    0    0  501  503 -0.00000000000E+00 -0.00000000000E+00 -0.72994249423E+02  0.72994249423E+02  0.00000000000E+00 0.  1.
          2    1    1    2  501    0  0.80144200816E+01  0.20723147824E+02 -0.69671779715E+02  0.73128904502E+02  0.00000000000E+00 0.  1.
         -2    1    1    2    0  502 -0.80144200816E+01 -0.20723147824E+02  0.75838415845E+02  0.79026230473E+02  0.00000000000E+00 0. -1.
<mgrwt>
<rscale>  2 0.22218906E+02</rscale>
<asrwt>0</asrwt>
<pdfrwt beam="1">  1       21 0.12178598E-01 0.22218906E+02</pdfrwt>
<pdfrwt beam="2">  1       21 0.11229885E-01 0.22218906E+02</pdfrwt>
<totfact> 0.32032502E+06</totfact>
</mgrwt>
</event>
<event>
 4    1  0.2812958E+004  0.2482682E+02  0.7546771E-02  0.1663502E+00
         21   -1    0    0  501  502  0.00000000000E+00  0.00000000000E+00  0.46139732095E+02  0.46139732095E+02  0.00000000000E+00 0.  1.
         21   -1    0    0  502  503 -0.00000000000E+00 -0.00000000000E+00 -0.32462852336E+02  0.32462852336E+02  0.00000000000E+00 0. -1.
          2    1    1    2  501    0  0.20789803417E+02 -0.13570371948E+02  0.36987680136E+02  0.44547271553E+02  0.00000000000E+00 0.  1.
         -2    1    1    2    0  503 -0.20789803417E+02  0.13570371948E+02 -0.23310800378E+02  0.34055312878E+02  0.00000000000E+00 0. -1.
<mgrwt>
<rscale>  2 0.24826819E+02</rscale>
<asrwt>0</asrwt>
<pdfrwt beam="1">  1       21 0.70984203E-02 0.24826819E+02</pdfrwt>
<pdfrwt beam="2">  1       21 0.49942850E-02 0.24826819E+02</pdfrwt>
<totfact> 0.29801977E+07</totfact>
</mgrwt>
</event>
<event>
 4    1  0.2812958E+004  0.2539486E+02  0.7546771E-02  0.1655394E+00
         21   -1    0    0  503  502  0.00000000000E+00  0.00000000000E+00  0.19131021873E+03  0.19131021873E+03  0.00000000000E+00 0.  1.
         21   -1    0    0  501  503 -0.00000000000E+00 -0.00000000000E+00 -0.33862922971E+01  0.33862922971E+01  0.00000000000E+00 0. -1.
          2    1    1    2  501    0 -0.24369254355E+02 -0.71441080848E+01  0.87411250210E+02  0.91025411295E+02  0.00000000000E+00 0.  1.
         -2    1    1    2    0  502  0.24369254355E+02  0.71441080848E+01  0.10051267622E+03  0.10367109973E+03  0.00000000000E+00 0. -1.
<mgrwt>
<rscale>  2 0.25394858E+02</rscale>
<asrwt>0</asrwt>
<pdfrwt beam="1">  1       21 0.29432333E-01 0.25394858E+02</pdfrwt>
<pdfrwt beam="2">  1       21 0.52096820E-03 0.25394858E+02</pdfrwt>
<totfact> 0.83896042E+07</totfact>
</mgrwt>
</event>
<event>
 4    1  0.2812958E+004  0.2046323E+02  0.7546771E-02  0.1736270E+00
         21   -1    0    0  503  502  0.00000000000E+00  0.00000000000E+00  0.12570432436E+01  0.12570432436E+01  0.00000000000E+00 0.  1.
         21   -1    0    0  501  503 -0.00000000000E+00 -0.00000000000E+00 -0.42810661662E+03  0.42810661662E+03  0.00000000000E+00 0. -1.
          2    1    1    2  501    0 -0.76912819830E+01 -0.18962806650E+02 -0.31454893466E+03  0.31521385780E+03  0.00000000000E+00 0. -1.
         -2    1    1    2    0  502  0.76912819830E+01  0.18962806650E+02 -0.11230063871E+03  0.11414980206E+03  0.00000000000E+00 0.  1.
<mgrwt>
<rscale>  2 0.20463232E+02</rscale>
<asrwt>0</asrwt>
<pdfrwt beam="1">  1       21 0.19339121E-03 0.20463232E+02</pdfrwt>
<pdfrwt beam="2">  1       21 0.65862575E-01 0.20463232E+02</pdfrwt>
<totfact> 0.72254005E+07</totfact>
</mgrwt>
</event>
<event>
 4    1  0.2812958E+004  0.2320307E+02  0.7546771E-02  0.1688239E+00
         21   -1    0    0  503  502  0.00000000000E+00  0.00000000000E+00  0.26464886685E+01  0.26464886685E+01  0.00000000000E+00 0. -1.
         21   -1    0    0  501  503 -0.00000000000E+00 -0.00000000000E+00 -0.21464941868E+03  0.21464941868E+03  0.00000000000E+00 0.  1.
          2    1    1    2  501    0  0.13175567892E+01 -0.23165633899E+02 -0.81165099783E+02  0.84416562194E+02  0.00000000000E+00 0. -1.
         -2    1    1    2    0  502 -0.13175567892E+01  0.23165633899E+02 -0.13083783023E+03  0.13287934516E+03  0.00000000000E+00 0.  1.
<mgrwt>
<rscale>  2 0.23203072E+02</rscale>
<asrwt>0</asrwt>
<pdfrwt beam="1">  1       21 0.40715194E-03 0.23203072E+02</pdfrwt>
<pdfrwt beam="2">  1       21 0.33023001E-01 0.23203072E+02</pdfrwt>
<totfact> 0.95506438E+07</totfact>
</mgrwt>
</event>
<event>
 4    1  0.2812958E+004  0.2907060E+02  0.7546771E-02  0.1608595E+00
         21   -1    0    0  501  502  0.00000000000E+00  0.00000000000E+00  0.53456528412E+02  0.53456528412E+02  0.00000000000E+00 0. -1.
         21   -1    0    0  502  503 -0.00000000000E+00 -0.00000000000E+00 -0.17631056358E+02  0.17631056358E+02  0.00000000000E+00 0.  1.
          2    1    1    2  501    0  0.23204421405E+02  0.17511554934E+02  0.29338711871E+02  0.41302054951E+02  0.00000000000E+00 0. -1.
         -2    1    1    2    0  503 -0.23204421405E+02 -0.17511554934E+02  0.64867601834E+01  0.29785529819E+02  0.00000000000E+00 0.  1.
<mgrwt>
<rscale>  2 0.29070599E+02</rscale>
<asrwt>0</asrwt>
<pdfrwt beam="1">  1       21 0.82240812E-02 0.29070599E+02</pdfrwt>
<pdfrwt beam="2">  1       21 0.27124702E-02 0.29070599E+02</pdfrwt>
<totfact> 0.63714564E+07</totfact>
</mgrwt>
</event>
<event>
 4    1  0.2812958E+004  0.3071061E+02  0.7546771E-02  0.1590364E+00
         21   -1    0    0  501  502  0.00000000000E+00  0.00000000000E+00  0.15359958133E+01  0.15359958133E+01  0.00000000000E+00 0.  1.
         21   -1    0    0  502  503 -0.00000000000E+00 -0.00000000000E+00 -0.76456272050E+03  0.76456272050E+03  0.00000000000E+00 0. -1.
          2    1    1    2  501    0 -0.83706981042E+01  0.29547804894E+02 -0.21154448367E+03  0.21376204044E+03  0.00000000000E+00 0.  1.
         -2    1    1    2    0  503  0.83706981042E+01 -0.29547804894E+02 -0.55148224101E+03  0.55233667587E+03  0.00000000000E+00 0. -1.
<mgrwt>
<rscale>  2 0.30710607E+02</rscale>
<asrwt>0</asrwt>
<pdfrwt beam="1">  1       21 0.23630642E-03 0.30710607E+02</pdfrwt>
<pdfrwt beam="2">  1       21 0.11762535E+00 0.30710607E+02</pdfrwt>
<totfact> 0.16881754E+07</totfact>
</mgrwt>
</event>
<event>
 4    1  0.2812958E+004  0.3206731E+02  0.7546771E-02  0.1576301E+00
         21   -1    0    0  501  502  0.00000000000E+00  0.00000000000E+00  0.69474583656E+02  0.69474583656E+02  0.00000000000E+00 0. -1.
         21   -1    0    0  502  503 -0.00000000000E+00 -0.00000000000E+00 -0.22147097999E+02  0.22147097999E+02  0.00000000000E+00 0.  1.
          2    1    1    2  501    0  0.23747549079E+02 -0.21549153661E+02  0.50047109300E+02  0.59439256894E+02  0.00000000000E+00 0. -1.
         -2    1    1    2    0  503 -0.23747549079E+02  0.21549153661E+02 -0.27196236433E+01  0.32182424761E+02  0.00000000000E+00 0.  1.
<mgrwt>
<rscale>  2 0.32067306E+02</rscale>
<asrwt>0</asrwt>
<pdfrwt beam="1">  1       21 0.10688397E-01 0.32067306E+02</pdfrwt>
<pdfrwt beam="2">  1       21 0.34072459E-02 0.32067306E+02</pdfrwt>
<totfact> 0.29355328E+07</totfact>
</mgrwt>
</event>
<event>
 4    1  0.2812958E+004  0.2359125E+02  0.7546771E-02  0.1682102E+00
         21   -1    0    0  501  502  0.00000000000E+00  0.00000000000E+00  0.12106797140E+03  0.12106797140E+03  0.00000000000E+00 0.  1.
         21   -1    0    0  502  503 -0.00000000000E+00 -0.00000000000E+00 -0.47597834463E+01  0.47597834463E+01  0.00000000000E+00 0. -1.
          2    1    1    2  501    0 -0.22218916834E+02  0.79288680542E+01  0.69789532897E+02  0.73669030914E+02  0.00000000000E+00 0.  1.
         -2    1    1    2    0  503  0.22218916834E+02 -0.79288680542E+01  0.46518655054E+02  0.52158723929E+02  0.00000000000E+00 0. -1.
<mgrwt>
<rscale>  2 0.23591253E+02</rscale>
<asrwt>0</asrwt>
<pdfrwt beam="1">  1       21 0.18625839E-01 0.23591253E+02</pdfrwt>
<pdfrwt beam="2">  1       21 0.73227447E-03 0.23591253E+02</pdfrwt>
<totfact> 0.11189002E+08</totfact>
</mgrwt>
</event>
<event>
 4    1  0.2812958E+004  0.3543777E+02  0.7546771E-02  0.1544747E+00
         21   -1    0    0  503  502  0.00000000000E+00  0.00000000000E+00  0.25129237234E+02  0.25129237234E+02  0.00000000000E+00 0. -1.
         21   -1    0    0  501  503 -0.00000000000E+00 -0.00000000000E+00 -0.53064488836E+02  0.53064488836E+02  0.00000000000E+00 0.  1.
          2    1    1    2  501    0  0.13779126398E+02 -0.32649218516E+02 -0.45340317232E+01  0.35726646045E+02  0.00000000000E+00 0. -1.
         -2    1    1    2    0  502 -0.13779126398E+02  0.32649218516E+02 -0.23401219879E+02  0.42467080024E+02  0.00000000000E+00 0.  1.
<mgrwt>
<rscale>  2 0.35437774E+02</rscale>
<asrwt>0</asrwt>
<pdfrwt beam="1">  1       21 0.38660365E-02 0.35437774E+02</pdfrwt>
<pdfrwt beam="2">  1       21 0.81637674E-02 0.35437774E+02</pdfrwt>
<totfact> 0.38424606E+07</totfact>
</mgrwt>
</event>
<event>
 4    1  0.2812958E+004  0.2459754E+02  0.7546771E-02  0.1666851E+00
         21   -1    0    0  503  502  0.00000000000E+00  0.00000000000E+00  0.17269909956E+03  0.17269909956E+03  0.00000000000E+00 0. -1.
         21   -1    0    0  501  503 -0.00000000000E+00 -0.00000000000E+00 -0.80570757962E+01  0.80570757962E+01  0.00000000000E+00 0.  1.
          2    1    1    2  501    0  0.23039638274E+02 -0.86147534090E+01  0.14376539798E+02  0.28490767008E+02  0.00000000000E+00 0.  1.
         -2    1    1    2    0  502 -0.23039638274E+02  0.86147534090E+01  0.15026548396E+03  0.15226540835E+03  0.00000000000E+00 0. -1.
<mgrwt>
<rscale>  2 0.24597539E+02</rscale>
<asrwt>0</asrwt>
<pdfrwt beam="1">  1       21 0.26569090E-01 0.24597539E+02</pdfrwt>
<pdfrwt beam="2">  1       21 0.12395502E-02 0.24597539E+02</pdfrwt>
<totfact> 0.27375848E+07</totfact>
</mgrwt>
</event>
<event>
 4    1  0.2812958E+004  0.2528133E+02  0.7546771E-02  0.1656994E+00
         21   -1    0    0  501  502  0.00000000000E+00  0.00000000000E+00  0.68376638470E+01  0.68376638470E+01  0.00000000000E+00 0.  1.
         21   -1    0    0  502  503 -0.00000000000E+00 -0.00000000000E+00 -0.24626604960E+03  0.24626604960E+03  0.00000000000E+00 0. -1.
          2    1    1    2  501    0  0.74040697568E+01  0.24172825065E+02 -0.20032311403E+02  0.32255840103E+02  0.00000000000E+00 0.  1.
         -2    1    1    2    0  503 -0.74040697568E+01 -0.24172825065E+02 -0.21939607435E+03  0.22084787334E+03  0.00000000000E+00 0. -1.
<mgrwt>
<rscale>  2 0.25281331E+02</rscale>
<asrwt>0</asrwt>
<pdfrwt beam="1">  1       21 0.10519482E-02 0.25281331E+02</pdfrwt>
<pdfrwt beam="2">  1       21 0.37887086E-01 0.25281331E+02</pdfrwt>
<totfact> 0.18376930E+07</totfact>
</mgrwt>
</event>
<event>
 4    1  0.2812958E+004  0.3255203E+02  0.7546771E-02  0.1571479E+00
         21   -1    0    0  501  502  0.00000000000E+00  0.00000000000E+00  0.38924771697E+02  0.38924771697E+02  0.00000000000E+00 0.  1.
         21   -1    0    0  502  503 -0.00000000000E+00 -0.00000000000E+00 -0.92093266196E+02  0.92093266196E+02  0.00000000000E+00 0. -1.
          2    1    1    2  501    0 -0.21130966097E+02  0.24761202247E+02  0.28396573453E+02  0.43197225013E+02  0.00000000000E+00 0.  1.
         -2    1    1    2    0  503  0.21130966097E+02 -0.24761202247E+02 -0.81565067952E+02  0.87820812880E+02  0.00000000000E+00 0. -1.
<mgrwt>
<rscale>  2 0.32552033E+02</rscale>
<asrwt>0</asrwt>
<pdfrwt beam="1">  1       21 0.59884265E-02 0.32552033E+02</pdfrwt>
<pdfrwt beam="2">  1       21 0.14168195E-01 0.32552033E+02</pdfrwt>
<totfact> 0.73711242E+06</totfact>
</mgrwt>
</event>
<event>
 4    1  0.2812958E+004  0.3464941E+02  0.7546771E-02  0.1551736E+00
         21   -1    0    0  503  502  0.00000000000E+00  0.00000000000E+00  0.12220941025E+04  0.12220941025E+04  0.00000000000E+00 0. -1.
         21   -1    0    0  501  503 -0.00000000000E+00 -0.00000000000E+00 -0.13490668569E+01  0.13490668569E+01  0.00000000000E+00 0.  1.
          2    1    1    2  501    0 -0.34637028874E+02 -0.92619108582E+00  0.92928731017E+03  0.92993305481E+03  0.00000000000E+00 0. -1.
         -2    1    1    2    0  502  0.34637028874E+02  0.92619108582E+00  0.29145772552E+03  0.29351011459E+03  0.00000000000E+00 0.  1.
<mgrwt>
<rscale>  2 0.34649410E+02</rscale>
<asrwt>0</asrwt>
<pdfrwt beam="1">  1       21 0.18801359E+00 0.34649410E+02</pdfrwt>
<pdfrwt beam="2">  1       21 0.20754972E-03 0.34649410E+02</pdfrwt>
<totfact> 0.66302631E+06</totfact>
</mgrwt>
</event>
<event>
 4    1  0.2812958E+004  0.2336263E+02  0.7546771E-02  0.1685699E+00
         21   -1    0    0  501  502  0.00000000000E+00  0.00000000000E+00  0.41970124867E+02  0.41970124867E+02  0.00000000000E+00 0.  1.
         21   -1    0    0  502  503 -0.00000000000E+00 -0.00000000000E+00 -0.14643520724E+02  0.14643520724E+02  0.00000000000E+00 0. -1.
          2    1    1    2  501    0 -0.22437363708E+02 -0.65097820376E+01  0.23132703151E+02  0.32877568453E+02  0.00000000000E+00 0.  1.
         -2    1    1    2    0  503  0.22437363708E+02  0.65097820376E+01  0.41939009924E+01  0.23736077137E+02  0.00000000000E+00 0. -1.
<mgrwt>
<rscale>  2 0.23362632E+02</rscale>
<asrwt>0</asrwt>
<pdfrwt beam="1">  1       21 0.64569422E-02 0.23362632E+02</pdfrwt>
<pdfrwt beam="2">  1       21 0.22528494E-02 0.23362632E+02</pdfrwt>
<totfact> 0.11912364E+08</totfact>
</mgrwt>
</event>
<event>
 4    1  0.2812958E+004  0.2361399E+02  0.7546771E-02  0.1681747E+00
         21   -1    0    0  503  502  0.00000000000E+00  0.00000000000E+00  0.11668030556E+03  0.11668030556E+03  0.00000000000E+00 0.  1.
         21   -1    0    0  501  503 -0.00000000000E+00 -0.00000000000E+00 -0.57025853382E+01  0.57025853382E+01  0.00000000000E+00 0. -1.
          2    1    1    2  501    0 -0.53093436518E+01  0.23009377024E+02  0.80114214427E+02  0.83521900806E+02  0.00000000000E+00 0.  1.
         -2    1    1    2    0  502  0.53093436518E+01 -0.23009377024E+02  0.30863505798E+02  0.38860990095E+02  0.00000000000E+00 0. -1.
<mgrwt>
<rscale>  2 0.23613991E+02</rscale>
<asrwt>0</asrwt>
<pdfrwt beam="1">  1       21 0.17950814E-01 0.23613991E+02</pdfrwt>
<pdfrwt beam="2">  1       21 0.87732091E-03 0.23613991E+02</pdfrwt>
<totfact> 0.91077328E+07</totfact>
</mgrwt>
</event>
<event>
 4    1  0.2812958E+004  0.2708440E+02  0.7546771E-02  0.1632750E+00
         21   -1    0    0  501  502  0.00000000000E+00  0.00000000000E+00  0.13452958028E+02  0.13452958028E+02  0.00000000000E+00 0. -1.
         21   -1    0    0  502  503 -0.00000000000E+00 -0.00000000000E+00 -0.61109909319E+02  0.61109909319E+02  0.00000000000E+00 0.  1.
          2    1    1    2  501    0 -0.15614790446E+02  0.22130132897E+02 -0.11593337177E+02  0.29461329393E+02  0.00000000000E+00 0. -1.
         -2    1    1    2    0  503  0.15614790446E+02 -0.22130132897E+02 -0.36063614115E+02  0.45101537953E+02  0.00000000000E+00 0.  1.
<mgrwt>
<rscale>  2 0.27084395E+02</rscale>
<asrwt>0</asrwt>
<pdfrwt beam="1">  1       21 0.20696859E-02 0.27084395E+02</pdfrwt>
<pdfrwt beam="2">  1       21 0.94015245E-02 0.27084395E+02</pdfrwt>
<totfact> 0.76419026E+07</totfact>
</mgrwt>
</event>
<event>
 4    1  0.2812958E+004  0.2028395E+02  0.7546771E-02  0.1739740E+00
         21   -1    0    0  503  502  0.00000000000E+00  0.00000000000E+00  0.44453595523E+02  0.44453595523E+02  0.00000000000E+00 0. -1.
         21   -1    0    0  501  503 -0.00000000000E+00 -0.00000000000E+00 -0.95835707429E+01  0.95835707429E+01  0.00000000000E+00 0.  1.
          2    1    1    2  501    0 -0.20119205516E+02  0.25799675094E+01  0.12435745477E+02  0.23792570868E+02  0.00000000000E+00 0.  1.
         -2    1    1    2    0  502  0.20119205516E+02 -0.25799675094E+01  0.22434279303E+02  0.30244595398E+02  0.00000000000E+00 0. -1.
<mgrwt>
<rscale>  2 0.20283951E+02</rscale>
<asrwt>0</asrwt>
<pdfrwt beam="1">  1       21 0.68390146E-02 0.20283951E+02</pdfrwt>
<pdfrwt beam="2">  1       21 0.14743955E-02 0.20283951E+02</pdfrwt>
<totfact> 0.19859970E+08</totfact>
</mgrwt>
</event>
<event>
 4    1  0.2812958E+004  0.3040642E+02  0.7546771E-02  0.1593639E+00
         21   -1    0    0  501  502  0.00000000000E+00  0.00000000000E+00  0.34549980177E+01  0.34549980177E+01  0.00000000000E+00 0. -1.
         21   -1    0    0  502  503 -0.00000000000E+00 -0.00000000000E+00 -0.37721524338E+03  0.37721524338E+03  0.00000000000E+00 0.  1.
          2    1    1    2  501    0 -0.28384788554E+02  0.10902020640E+02 -0.84276211561E+02  0.89593694591E+02  0.00000000000E+00 0. -1.
         -2    1    1    2    0  503  0.28384788554E+02 -0.10902020640E+02 -0.28948403380E+03  0.29107654681E+03  0.00000000000E+00 0.  1.
<mgrwt>
<rscale>  2 0.30406418E+02</rscale>
<asrwt>0</asrwt>
<pdfrwt beam="1">  1       21 0.53153816E-03 0.30406418E+02</pdfrwt>
<pdfrwt beam="2">  1       21 0.58033114E-01 0.30406418E+02</pdfrwt>
<totfact> 0.23113251E+07</totfact>
</mgrwt>
</event>
<event>
 4    1  0.2812958E+004  0.2091887E+02  0.7546771E-02  0.1727649E+00
         21   -1    0    0  501  502  0.00000000000E+00  0.00000000000E+00  0.10444480770E+02  0.10444480770E+02  0.00000000000E+00 0. -1.
         21   -1    0    0  502  503 -0.00000000000E+00 -0.00000000000E+00 -0.58798001619E+02  0.58798001619E+02  0.00000000000E+00 0.  1.
          2    1    1    2  501    0  0.37099544112E+01  0.20587257700E+02 -0.56154113384E+01  0.21659450267E+02  0.00000000000E+00 0.  1.
         -2    1    1    2    0  503 -0.37099544112E+01 -0.20587257700E+02 -0.42738109511E+02  0.47583032122E+02  0.00000000000E+00 0. -1.
<mgrwt>
<rscale>  2 0.20918866E+02</rscale>
<asrwt>0</asrwt>
<pdfrwt beam="1">  1       21 0.16068432E-02 0.20918866E+02</pdfrwt>
<pdfrwt beam="2">  1       21 0.90458464E-02 0.20918866E+02</pdfrwt>
<totfact> 0.11179338E+08</totfact>
</mgrwt>
</event>
<event>
 4    1  0.2812958E+004  0.2723789E+02  0.7546771E-02  0.1630794E+00
         21   -1    0    0  501  502  0.00000000000E+00  0.00000000000E+00  0.10701610525E+04  0.10701610525E+04  0.00000000000E+00 0. -1.
         21   -1    0    0  502  503 -0.00000000000E+00 -0.00000000000E+00 -0.32509990904E+01  0.32509990904E+01  0.00000000000E+00 0.  1.
          2    1    1    2  501    0 -0.22777606118E+02  0.14935973737E+02  0.10095087274E+04  0.10098761178E+04  0.00000000000E+00 0. -1.
         -2    1    1    2    0  503  0.22777606118E+02 -0.14935973737E+02  0.57401326000E+02  0.63535933758E+02  0.00000000000E+00 0.  1.
<mgrwt>
<rscale>  2 0.27237890E+02</rscale>
<asrwt>0</asrwt>
<pdfrwt beam="1">  1       21 0.16463988E+00 0.27237890E+02</pdfrwt>
<pdfrwt beam="2">  1       21 0.50015456E-03 0.27237890E+02</pdfrwt>
<totfact> 0.24914592E+06</totfact>
</mgrwt>
</event>
<event>
 4    1  0.2812958E+004  0.2407105E+02  0.7546771E-02  0.1674715E+00
         21   -1    0    0  501  502  0.00000000000E+00  0.00000000000E+00  0.11958295302E+03  0.11958295302E+03  0.00000000000E+00 0.  1.
         21   -1    0    0  502  503 -0.00000000000E+00 -0.00000000000E+00 -0.18327074669E+02  0.18327074669E+02  0.00000000000E+00 0. -1.
          2    1    1    2  501    0 -0.24030043409E+02 -0.14044808156E+01  0.10976949851E+03  0.11237774849E+03  0.00000000000E+00 0.  1.
         -2    1    1    2    0  503  0.24030043409E+02  0.14044808156E+01 -0.85136201631E+01  0.25532279195E+02  0.00000000000E+00 0. -1.
<mgrwt>
<rscale>  2 0.24071052E+02</rscale>
<asrwt>0</asrwt>
<pdfrwt beam="1">  1       21 0.18397377E-01 0.24071052E+02</pdfrwt>
<pdfrwt beam="2">  1       21 0.28195500E-02 0.24071052E+02</pdfrwt>
<totfact> 0.14778119E+07</totfact>
</mgrwt>
</event>
<event>
 4    1  0.2812958E+004  0.2410388E+02  0.7546771E-02  0.1674217E+00
         21   -1    0    0  503  502  0.00000000000E+00  0.00000000000E+00  0.42735033273E+03  0.42735033273E+03  0.00000000000E+00 0.  1.
         21   -1    0    0  501  503 -0.00000000000E+00 -0.00000000000E+00 -0.29680014588E+01  0.29680014588E+01  0.00000000000E+00 0. -1.
          2    1    1    2  501    0 -0.13931995136E+02  0.19669685979E+02  0.53798880333E+02  0.58951815579E+02  0.00000000000E+00 0. -1.
         -2    1    1    2    0  502  0.13931995136E+02 -0.19669685979E+02  0.37058345094E+03  0.37136651861E+03  0.00000000000E+00 0.  1.
<mgrwt>
<rscale>  2 0.24103880E+02</rscale>
<asrwt>0</asrwt>
<pdfrwt beam="1">  1       21 0.65746156E-01 0.24103880E+02</pdfrwt>
<pdfrwt beam="2">  1       21 0.45661595E-03 0.24103880E+02</pdfrwt>
<totfact> 0.21553851E+07</totfact>
</mgrwt>
</event>
<event>
 4    1  0.2812958E+004  0.2368130E+02  0.7546771E-02  0.1680699E+00
         21   -1    0    0  503  502  0.00000000000E+00  0.00000000000E+00  0.10873396011E+03  0.10873396011E+03  0.00000000000E+00 0.  1.
         21   -1    0    0  501  503 -0.00000000000E+00 -0.00000000000E+00 -0.11056178258E+02  0.11056178258E+02  0.00000000000E+00 0. -1.
          2    1    1    2  501    0 -0.21904499107E+02  0.89998192856E+01  0.50904021869E+01  0.24222221672E+02  0.00000000000E+00 0. -1.
         -2    1    1    2    0  502  0.21904499107E+02 -0.89998192856E+01  0.92587379665E+02  0.95567916695E+02  0.00000000000E+00 0.  1.
<mgrwt>
<rscale>  2 0.23681297E+02</rscale>
<asrwt>0</asrwt>
<pdfrwt beam="1">  1       21 0.16728301E-01 0.23681297E+02</pdfrwt>
<pdfrwt beam="2">  1       21 0.17009506E-02 0.23681297E+02</pdfrwt>
<totfact> 0.37819100E+07</totfact>
</mgrwt>
</event>
<event>
 4    1  0.2812958E+004  0.2310157E+02  0.7546771E-02  0.1689869E+00
         21   -1    0    0  501  502  0.00000000000E+00  0.00000000000E+00  0.12501084317E+02  0.12501084317E+02  0.00000000000E+00 0. -1.
         21   -1    0    0  502  503 -0.00000000000E+00 -0.00000000000E+00 -0.52927708278E+02  0.52927708278E+02  0.00000000000E+00 0.  1.
          2    1    1    2  501    0  0.21708478592E+01  0.22999347122E+02 -0.58260008103E+01  0.23824878465E+02  0.00000000000E+00 0. -1.
         -2    1    1    2    0  503 -0.21708478592E+01 -0.22999347122E+02 -0.34600623151E+02  0.41603914129E+02  0.00000000000E+00 0.  1.
<mgrwt>
<rscale>  2 0.23101570E+02</rscale>
<asrwt>0</asrwt>
<pdfrwt beam="1">  1       21 0.19232438E-02 0.23101570E+02</pdfrwt>
<pdfrwt beam="2">  1       21 0.81427241E-02 0.23101570E+02</pdfrwt>
<totfact> 0.10390278E+08</totfact>
</mgrwt>
</event>
<event>
 4    1  0.2812958E+004  0.2176743E+02  0.7546771E-02  0.1712305E+00
         21   -1    0    0  503  502  0.00000000000E+00  0.00000000000E+00  0.39887068385E+03  0.39887068385E+03  0.00000000000E+00 0. -1.
         21   -1    0    0  501  503 -0.00000000000E+00 -0.00000000000E+00 -0.12174253935E+01  0.12174253935E+01  0.00000000000E+00 0.  1.
          2    1    1    2  501    0 -0.11276505238E+02 -0.18618849387E+02  0.16767694274E+03  0.16908393847E+03  0.00000000000E+00 0.  1.
         -2    1    1    2    0  502  0.11276505238E+02  0.18618849387E+02  0.22997631572E+03  0.23100417077E+03  0.00000000000E+00 0. -1.
<mgrwt>
<rscale>  2 0.21767433E+02</rscale>
<asrwt>0</asrwt>
<pdfrwt beam="1">  1       21 0.61364616E-01 0.21767433E+02</pdfrwt>
<pdfrwt beam="2">  1       21 0.18729653E-03 0.21767433E+02</pdfrwt>
<totfact> 0.88608294E+07</totfact>
</mgrwt>
</event>
<event>
 4    1  0.2812958E+004  0.2924895E+02  0.7546771E-02  0.1606542E+00
         21   -1    0    0  503  502  0.00000000000E+00  0.00000000000E+00  0.67365666324E+02  0.67365666324E+02  0.00000000000E+00 0.  1.
         21   -1    0    0  501  503 -0.00000000000E+00 -0.00000000000E+00 -0.22599912161E+02  0.22599912161E+02  0.00000000000E+00 0. -1.
          2    1    1    2  501    0  0.24506181065E+02  0.15967095598E+02 -0.73901263376E+01  0.30168112628E+02  0.00000000000E+00 0. -1.
         -2    1    1    2    0  502 -0.24506181065E+02 -0.15967095598E+02  0.52155880500E+02  0.59797465858E+02  0.00000000000E+00 0.  1.
<mgrwt>
<rscale>  2 0.29248950E+02</rscale>
<asrwt>0</asrwt>
<pdfrwt beam="1">  1       21 0.10363949E-01 0.29248950E+02</pdfrwt>
<pdfrwt beam="2">  1       21 0.34769096E-02 0.29248950E+02</pdfrwt>
<totfact> 0.29403100E+07</totfact>
</mgrwt>
</event>
<event>
 4    1  0.2812958E+004  0.3005944E+02  0.7546771E-02  0.1597433E+00
         21   -1    0    0  501  502  0.00000000000E+00  0.00000000000E+00  0.23834814773E+02  0.23834814773E+02  0.00000000000E+00 0. -1.
         21   -1    0    0  502  503 -0.00000000000E+00 -0.00000000000E+00 -0.42855223915E+02  0.42855223915E+02  0.00000000000E+00 0.  1.
          2    1    1    2  501    0 -0.68777446791E+01  0.29262037571E+02  0.18173482317E+01  0.30114331626E+02  0.00000000000E+00 0. -1.
         -2    1    1    2    0  503  0.68777446791E+01 -0.29262037571E+02 -0.20837757374E+02  0.36575707062E+02  0.00000000000E+00 0.  1.
<mgrwt>
<rscale>  2 0.30059445E+02</rscale>
<asrwt>0</asrwt>
<pdfrwt beam="1">  1       21 0.36668946E-02 0.30059445E+02</pdfrwt>
<pdfrwt beam="2">  1       21 0.65931113E-02 0.30059445E+02</pdfrwt>
<totfact> 0.57386882E+07</totfact>
</mgrwt>
</event>
<event>
 4    1  0.2812958E+004  0.3185472E+02  0.7546771E-02  0.1578448E+00
         21   -1    0    0  501  502  0.00000000000E+00  0.00000000000E+00  0.11473886606E+02  0.11473886606E+02  0.00000000000E+00 0. -1.
         21   -1    0    0  502  503 -0.00000000000E+00 -0.00000000000E+00 -0.15665653256E+03  0.15665653256E+03  0.00000000000E+00 0.  1.
          2    1    1    2  501    0 -0.24719287131E+02  0.20091788192E+02 -0.17116685456E+02  0.36162190614E+02  0.00000000000E+00 0. -1.
         -2    1    1    2    0  503  0.24719287131E+02 -0.20091788192E+02 -0.12806596050E+03  0.13196822856E+03  0.00000000000E+00 0.  1.
<mgrwt>
<rscale>  2 0.31854719E+02</rscale>
<asrwt>0</asrwt>
<pdfrwt beam="1">  1       21 0.17652132E-02 0.31854719E+02</pdfrwt>
<pdfrwt beam="2">  1       21 0.24101006E-01 0.31854719E+02</pdfrwt>
<totfact> 0.19975077E+07</totfact>
</mgrwt>
</event>
<event>
 4    1  0.2812958E+004  0.2146174E+02  0.7546771E-02  0.1717731E+00
         21   -1    0    0  503  502  0.00000000000E+00  0.00000000000E+00  0.29515880716E+02  0.29515880716E+02  0.00000000000E+00 0.  1.
         21   -1    0    0  501  503 -0.00000000000E+00 -0.00000000000E+00 -0.38921450664E+02  0.38921450664E+02  0.00000000000E+00 0. -1.
          2    1    1    2  501    0 -0.12400321959E+02 -0.17516806310E+02 -0.31187558134E+02  0.37858556105E+02  0.00000000000E+00 0. -1.
         -2    1    1    2    0  502  0.12400321959E+02  0.17516806310E+02  0.21781988186E+02  0.30578775275E+02  0.00000000000E+00 0.  1.
<mgrwt>
<rscale>  2 0.21461745E+02</rscale>
<asrwt>0</asrwt>
<pdfrwt beam="1">  1       21 0.45409047E-02 0.21461745E+02</pdfrwt>
<pdfrwt beam="2">  1       21 0.59879155E-02 0.21461745E+02</pdfrwt>
<totfact> 0.44009897E+07</totfact>
</mgrwt>
</event>
<event>
 4    1  0.2812958E+004  0.4509977E+02  0.7546771E-02  0.1473720E+00
         21   -1    0    0  501  502  0.00000000000E+00  0.00000000000E+00  0.98088044357E+03  0.98088044357E+03  0.00000000000E+00 0.  1.
         21   -1    0    0  502  503 -0.00000000000E+00 -0.00000000000E+00 -0.15010623260E+02  0.15010623260E+02  0.00000000000E+00 0. -1.
          2    1    1    2  501    0  0.24207773729E+02  0.38052234963E+02  0.94520847138E+03  0.94628380694E+03  0.00000000000E+00 0.  1.
         -2    1    1    2    0  503 -0.24207773729E+02 -0.38052234963E+02  0.20661348927E+02  0.49607259893E+02  0.00000000000E+00 0. -1.
<mgrwt>
<rscale>  2 0.45099766E+02</rscale>
<asrwt>0</asrwt>
<pdfrwt beam="1">  1       21 0.15090463E+00 0.45099766E+02</pdfrwt>
<pdfrwt beam="2">  1       21 0.23093274E-02 0.45099766E+02</pdfrwt>
<totfact> 0.30282386E+05</totfact>
</mgrwt>
</event>
<event>
 4    1  0.2812958E+004  0.2787580E+02  0.7546771E-02  0.1622830E+00
         21   -1    0    0  503  502  0.00000000000E+00  0.00000000000E+00  0.94340189063E+02  0.94340189063E+02  0.00000000000E+00 0. -1.
         21   -1    0    0  501  503 -0.00000000000E+00 -0.00000000000E+00 -0.11580250942E+03  0.11580250942E+03  0.00000000000E+00 0.  1.
          2    1    1    2  501    0  0.27154354446E+02  0.63009131756E+01 -0.11199683563E+03  0.11541382787E+03  0.00000000000E+00 0.  1.
         -2    1    1    2    0  502 -0.27154354446E+02 -0.63009131756E+01  0.90534515272E+02  0.94728870614E+02  0.00000000000E+00 0. -1.
<mgrwt>
<rscale>  2 0.27875804E+02</rscale>
<asrwt>0</asrwt>
<pdfrwt beam="1">  1       21 0.14513875E-01 0.27875804E+02</pdfrwt>
<pdfrwt beam="2">  1       21 0.17815771E-01 0.27875804E+02</pdfrwt>
<totfact> 0.11146798E+06</totfact>
</mgrwt>
</event>
<event>
 4    1  0.2812958E+004  0.2677215E+02  0.7546771E-02  0.1636779E+00
         21   -1    0    0  501  502  0.00000000000E+00  0.00000000000E+00  0.87337840463E+01  0.87337840463E+01  0.00000000000E+00 0. -1.
         21   -1    0    0  502  503 -0.00000000000E+00 -0.00000000000E+00 -0.83014120167E+02  0.83014120167E+02  0.00000000000E+00 0.  1.
          2    1    1    2  501    0  0.23037951375E+02 -0.13638211292E+02 -0.42042334503E+02  0.49842811932E+02  0.00000000000E+00 0. -1.
         -2    1    1    2    0  503 -0.23037951375E+02  0.13638211292E+02 -0.32238001617E+02  0.41905092281E+02  0.00000000000E+00 0.  1.
<mgrwt>
<rscale>  2 0.26772150E+02</rscale>
<asrwt>0</asrwt>
<pdfrwt beam="1">  1       21 0.13436590E-02 0.26772150E+02</pdfrwt>
<pdfrwt beam="2">  1       21 0.12771404E-01 0.26772150E+02</pdfrwt>
<totfact> 0.88486238E+07</totfact>
</mgrwt>
</event>
<event>
 4    1  0.2812958E+004  0.2766023E+02  0.7546771E-02  0.1625492E+00
         21   -1    0    0  501  502  0.00000000000E+00  0.00000000000E+00  0.64003643796E+02  0.64003643796E+02  0.00000000000E+00 0. -1.
         21   -1    0    0  502  503 -0.00000000000E+00 -0.00000000000E+00 -0.33977274502E+02  0.33977274502E+02  0.00000000000E+00 0.  1.
          2    1    1    2  501    0 -0.17696383401E+02 -0.21258554760E+02  0.54455277022E+02  0.61077535408E+02  0.00000000000E+00 0. -1.
         -2    1    1    2    0  503  0.17696383401E+02  0.21258554760E+02 -0.24428907728E+02  0.36903382890E+02  0.00000000000E+00 0.  1.
<mgrwt>
<rscale>  2 0.27660227E+02</rscale>
<asrwt>0</asrwt>
<pdfrwt beam="1">  1       21 0.98467144E-02 0.27660227E+02</pdfrwt>
<pdfrwt beam="2">  1       21 0.52272730E-02 0.27660227E+02</pdfrwt>
<totfact> 0.16536459E+07</totfact>
</mgrwt>
</event>
<event>
 4    1  0.2812958E+004  0.3324121E+02  0.7546771E-02  0.1564798E+00
         21   -1    0    0  501  502  0.00000000000E+00  0.00000000000E+00  0.30503891404E+02  0.30503891404E+02  0.00000000000E+00 0. -1.
         21   -1    0    0  502  503 -0.00000000000E+00 -0.00000000000E+00 -0.39229259021E+02  0.39229259021E+02  0.00000000000E+00 0.  1.
          2    1    1    2  501    0 -0.39368123415E+01  0.33007270137E+02 -0.14012796279E+02  0.36074046527E+02  0.00000000000E+00 0.  1.
         -2    1    1    2    0  503  0.39368123415E+01 -0.33007270137E+02  0.52874286617E+01  0.33659103897E+02  0.00000000000E+00 0. -1.
<mgrwt>
<rscale>  2 0.33241215E+02</rscale>
<asrwt>0</asrwt>
<pdfrwt beam="1">  1       21 0.46929064E-02 0.33241215E+02</pdfrwt>
<pdfrwt beam="2">  1       21 0.60352706E-02 0.33241215E+02</pdfrwt>
<totfact> 0.45675921E+07</totfact>
</mgrwt>
</event>
<event>
 4    1  0.2812958E+004  0.4393807E+02  0.7546771E-02  0.1481082E+00
         21   -1    0    0  501  502  0.00000000000E+00  0.00000000000E+00  0.54163447978E+02  0.54163447978E+02  0.00000000000E+00 0. -1.
         21   -1    0    0  502  503 -0.00000000000E+00 -0.00000000000E+00 -0.53303149697E+02  0.53303149697E+02  0.00000000000E+00 0.  1.
          2    1    1    2  501    0 -0.36941005955E+02 -0.23788984471E+02  0.31358937911E+02  0.53980891898E+02  0.00000000000E+00 0. -1.
         -2    1    1    2    0  503  0.36941005955E+02  0.23788984471E+02 -0.30498639631E+02  0.53485705777E+02  0.00000000000E+00 0.  1.
<mgrwt>
<rscale>  2 0.43938067E+02</rscale>
<asrwt>0</asrwt>
<pdfrwt beam="1">  1       21 0.83328381E-02 0.43938067E+02</pdfrwt>
<pdfrwt beam="2">  1       21 0.82004846E-02 0.43938067E+02</pdfrwt>
<totfact> 0.11253120E+07</totfact>
</mgrwt>
</event>
<event>
 4    1  0.2812958E+004  0.2716552E+02  0.7546771E-02  0.1631714E+00
         21   -1    0    0  503  502  0.00000000000E+00  0.00000000000E+00  0.36359377504E+02  0.36359377504E+02  0.00000000000E+00 0.  1.
         21   -1    0    0  501  503 -0.00000000000E+00 -0.00000000000E+00 -0.83034054342E+02  0.83034054342E+02  0.00000000000E+00 0. -1.
          2    1    1    2  501    0  0.26530653323E+02  0.58386655017E+01 -0.75227658654E+02  0.79982286834E+02  0.00000000000E+00 0. -1.
         -2    1    1    2    0  502 -0.26530653323E+02 -0.58386655017E+01  0.28552981816E+02  0.39411145012E+02  0.00000000000E+00 0.  1.
<mgrwt>
<rscale>  2 0.27165522E+02</rscale>
<asrwt>0</asrwt>
<pdfrwt beam="1">  1       21 0.55937505E-02 0.27165522E+02</pdfrwt>
<pdfrwt beam="2">  1       21 0.12774470E-01 0.27165522E+02</pdfrwt>
<totfact> 0.95472497E+06</totfact>
</mgrwt>
</event>
<event>
 4    1  0.2812958E+004  0.2263175E+02  0.7546771E-02  0.1697550E+00
         21   -1    0    0  503  502  0.00000000000E+00  0.00000000000E+00  0.43729366708E+02  0.43729366708E+02  0.00000000000E+00 0.  1.
         21   -1    0    0  501  503 -0.00000000000E+00 -0.00000000000E+00 -0.14551845934E+02  0.14551845934E+02  0.00000000000E+00 0. -1.
          2    1    1    2  501    0  0.22353441527E+02  0.35383310702E+01  0.17175070871E+01  0.22696827211E+02  0.00000000000E+00 0. -1.
         -2    1    1    2    0  502 -0.22353441527E+02 -0.35383310702E+01  0.27460013687E+02  0.35584385432E+02  0.00000000000E+00 0.  1.
<mgrwt>
<rscale>  2 0.22631751E+02</rscale>
<asrwt>0</asrwt>
<pdfrwt beam="1">  1       21 0.67275948E-02 0.22631751E+02</pdfrwt>
<pdfrwt beam="2">  1       21 0.22387456E-02 0.22631751E+02</pdfrwt>
<totfact> 0.11152315E+08</totfact>
</mgrwt>
</event>
<event>
 4    1  0.2812958E+004  0.2063646E+02  0.7546771E-02  0.1732960E+00
         21   -1    0    0  501  502  0.00000000000E+00  0.00000000000E+00  0.50963770015E+03  0.50963770015E+03  0.00000000000E+00 0. -1.
         21   -1    0    0  502  503 -0.00000000000E+00 -0.00000000000E+00 -0.33768962608E+01  0.33768962608E+01  0.00000000000E+00 0.  1.
          2    1    1    2  501    0  0.17312782706E+02 -0.11230803145E+02  0.47564925784E+03  0.47609671272E+03  0.00000000000E+00 0. -1.
         -2    1    1    2    0  503 -0.17312782706E+02  0.11230803145E+02  0.30611546051E+02  0.36917883687E+02  0.00000000000E+00 0.  1.
<mgrwt>
<rscale>  2 0.20636458E+02</rscale>
<asrwt>0</asrwt>
<pdfrwt beam="1">  1       21 0.78405739E-01 0.20636458E+02</pdfrwt>
<pdfrwt beam="2">  1       21 0.51952291E-03 0.20636458E+02</pdfrwt>
<totfact> 0.12043001E+07</totfact>
</mgrwt>
</event>
<event>
 4    1  0.2812958E+004  0.2628585E+02  0.7546771E-02  0.1643191E+00
         21   -1    0    0  503  502  0.00000000000E+00  0.00000000000E+00  0.19581167436E+02  0.19581167436E+02  0.00000000000E+00 0.  1.
         21   -1    0    0  501  503 -0.00000000000E+00 -0.00000000000E+00 -0.40738718144E+02  0.40738718144E+02  0.00000000000E+00 0. -1.
          2    1    1    2  501    0 -0.14372337862E+02 -0.22008672708E+02 -0.21612542328E+02  0.34030100732E+02  0.00000000000E+00 0.  1.
         -2    1    1    2    0  502  0.14372337862E+02  0.22008672708E+02  0.45499161957E+00  0.26289784848E+02  0.00000000000E+00 0. -1.
<mgrwt>
<rscale>  2 0.26285847E+02</rscale>
<asrwt>0</asrwt>
<pdfrwt beam="1">  1       21 0.30124873E-02 0.26285847E+02</pdfrwt>
<pdfrwt beam="2">  1       21 0.62674951E-02 0.26285847E+02</pdfrwt>
<totfact> 0.82192953E+07</totfact>
</mgrwt>
</event>
<event>
 4    1  0.2812958E+004  0.2198108E+02  0.7546771E-02  0.1708579E+00
         21   -1    0    0  501  502  0.00000000000E+00  0.00000000000E+00  0.27377573853E+01  0.27377573853E+01  0.00000000000E+00 0. -1.
         21   -1    0    0  502  503 -0.00000000000E+00 -0.00000000000E+00 -0.24954053531E+03  0.24954053531E+03  0.00000000000E+00 0.  1.
          2    1    1    2  501    0  0.17357679414E+02  0.13486248116E+02 -0.55149993724E+02  0.59369097438E+02  0.00000000000E+00 0. -1.
         -2    1    1    2    0  503 -0.17357679414E+02 -0.13486248116E+02 -0.19165278421E+03  0.19290919526E+03  0.00000000000E+00 0.  1.
<mgrwt>
<rscale>  2 0.21981081E+02</rscale>
<asrwt>0</asrwt>
<pdfrwt beam="1">  1       21 0.42119348E-03 0.21981081E+02</pdfrwt>
<pdfrwt beam="2">  1       21 0.38390848E-01 0.21981081E+02</pdfrwt>
<totfact> 0.67762858E+07</totfact>
</mgrwt>
</event>
<event>
 4    1  0.2812958E+004  0.2435500E+02  0.7546771E-02  0.1670443E+00
         21   -1    0    0  501  502  0.00000000000E+00  0.00000000000E+00  0.17797011465E+03  0.17797011465E+03  0.00000000000E+00 0.  1.
         21   -1    0    0  502  503 -0.00000000000E+00 -0.00000000000E+00 -0.10118792193E+02  0.10118792193E+02  0.00000000000E+00 0. -1.
          2    1    1    2  501    0 -0.10612396876E+02 -0.21921292902E+02  0.16093982888E+03  0.16277221682E+03  0.00000000000E+00 0.  1.
         -2    1    1    2    0  503  0.10612396876E+02  0.21921292902E+02  0.69114935739E+01  0.25316690017E+02  0.00000000000E+00 0. -1.
<mgrwt>
<rscale>  2 0.24355001E+02</rscale>
<asrwt>0</asrwt>
<pdfrwt beam="1">  1       21 0.27380015E-01 0.24355001E+02</pdfrwt>
<pdfrwt beam="2">  1       21 0.15567374E-02 0.24355001E+02</pdfrwt>
<totfact> 0.18304673E+07</totfact>
</mgrwt>
</event>
<event>
 4    1  0.2812958E+004  0.2315363E+02  0.7546771E-02  0.1689032E+00
         21   -1    0    0  501  502  0.00000000000E+00  0.00000000000E+00  0.61642586486E+01  0.61642586486E+01  0.00000000000E+00 0.  1.
         21   -1    0    0  502  503 -0.00000000000E+00 -0.00000000000E+00 -0.95513434828E+02  0.95513434828E+02  0.00000000000E+00 0. -1.
          2    1    1    2  501    0 -0.13407269673E+02 -0.18876855593E+02 -0.29467655307E+02  0.37475769057E+02  0.00000000000E+00 0. -1.
         -2    1    1    2    0  503  0.13407269673E+02  0.18876855593E+02 -0.59881520873E+02  0.64201924420E+02  0.00000000000E+00 0.  1.
<mgrwt>
<rscale>  2 0.23153629E+02</rscale>
<asrwt>0</asrwt>
<pdfrwt beam="1">  1       21 0.94834764E-03 0.23153629E+02</pdfrwt>
<pdfrwt beam="2">  1       21 0.14694372E-01 0.23153629E+02</pdfrwt>
<totfact> 0.11361033E+08</totfact>
</mgrwt>
</event>
<event>
 4    1  0.2812958E+004  0.3345175E+02  0.7546771E-02  0.1562795E+00
         21   -1    0    0  503  502  0.00000000000E+00  0.00000000000E+00  0.55489737870E+02  0.55489737870E+02  0.00000000000E+00 0. -1.
         21   -1    0    0  501  503 -0.00000000000E+00 -0.00000000000E+00 -0.20926790508E+02  0.20926790508E+02  0.00000000000E+00 0.  1.
          2    1    1    2  501    0  0.29321126660E+02  0.16102523962E+02  0.99975045815E+01  0.34913748644E+02  0.00000000000E+00 0.  1.
         -2    1    1    2    0  502 -0.29321126660E+02 -0.16102523962E+02  0.24565442781E+02  0.41502779733E+02  0.00000000000E+00 0. -1.
<mgrwt>
<rscale>  2 0.33451753E+02</rscale>
<asrwt>0</asrwt>
<pdfrwt beam="1">  1       21 0.85368827E-02 0.33451753E+02</pdfrwt>
<pdfrwt beam="2">  1       21 0.32195063E-02 0.33451753E+02</pdfrwt>
<totfact> 0.47166614E+07</totfact>
</mgrwt>
</event>
<event>
 4    1  0.2812958E+004  0.2421978E+02  0.7546771E-02  0.1672468E+00
         21   -1    0    0  503  502  0.00000000000E+00  0.00000000000E+00  0.61931008959E+01  0.61931008959E+01  0.00000000000E+00 0.  1.
         21   -1    0    0  501  503 -0.00000000000E+00 -0.00000000000E+00 -0.12366388380E+03  0.12366388380E+03  0.00000000000E+00 0. -1.
          2    1    1    2  501    0  0.18197409146E+02  0.15982862818E+02 -0.90148283618E+02  0.93345115795E+02  0.00000000000E+00 0. -1.
         -2    1    1    2    0  502 -0.18197409146E+02 -0.15982862818E+02 -0.27322499289E+02  0.36511868904E+02  0.00000000000E+00 0.  1.
<mgrwt>
<rscale>  2 0.24219777E+02</rscale>
<asrwt>0</asrwt>
<pdfrwt beam="1">  1       21 0.95278492E-03 0.24219777E+02</pdfrwt>
<pdfrwt beam="2">  1       21 0.19025210E-01 0.24219777E+02</pdfrwt>
<totfact> 0.73247803E+07</totfact>
</mgrwt>
</event>
<event>
 4    1  0.2812958E+004  0.2132234E+02  0.7546771E-02  0.1720242E+00
         21   -1    0    0  501  502  0.00000000000E+00  0.00000000000E+00  0.63626065678E+02  0.63626065678E+02  0.00000000000E+00 0.  1.
         21   -1    0    0  502  503 -0.00000000000E+00 -0.00000000000E+00 -0.12514939886E+02  0.12514939886E+02  0.00000000000E+00 0. -1.
          2    1    1    2  501    0 -0.16399387970E+02 -0.13627257302E+02  0.50492174436E+02  0.54809686613E+02  0.00000000000E+00 0.  1.
         -2    1    1    2    0  503  0.16399387970E+02  0.13627257302E+02  0.61895135574E+00  0.21331318950E+02  0.00000000000E+00 0. -1.
<mgrwt>
<rscale>  2 0.21322337E+02</rscale>
<asrwt>0</asrwt>
<pdfrwt beam="1">  1       21 0.97886253E-02 0.21322337E+02</pdfrwt>
<pdfrwt beam="2">  1       21 0.19253754E-02 0.21322337E+02</pdfrwt>
<totfact> 0.74973959E+07</totfact>
</mgrwt>
</event>
<event>
 4    1  0.2812958E+004  0.2806624E+02  0.7546771E-02  0.1620503E+00
         21   -1    0    0  501  502  0.00000000000E+00  0.00000000000E+00  0.84576152904E+03  0.84576152904E+03  0.00000000000E+00 0. -1.
         21   -1    0    0  502  503 -0.00000000000E+00 -0.00000000000E+00 -0.14331678995E+01  0.14331678995E+01  0.00000000000E+00 0.  1.
          2    1    1    2  501    0 -0.20153185157E+01 -0.27993795203E+02  0.67281583055E+03  0.67340096222E+03  0.00000000000E+00 0. -1.
         -2    1    1    2    0  503  0.20153185157E+01  0.27993795203E+02  0.17151253059E+03  0.17379373472E+03  0.00000000000E+00 0.  1.
<mgrwt>
<rscale>  2 0.28066244E+02</rscale>
<asrwt>0</asrwt>
<pdfrwt beam="1">  1       21 0.13011676E+00 0.28066244E+02</pdfrwt>
<pdfrwt beam="2">  1       21 0.22048804E-03 0.28066244E+02</pdfrwt>
<totfact> 0.14603203E+07</totfact>
</mgrwt>
</event>
<event>
 4    1  0.2812958E+004  0.2076525E+02  0.7546771E-02  0.1730525E+00
         21   -1    0    0  503  502  0.00000000000E+00  0.00000000000E+00  0.11903123709E+01  0.11903123709E+01  0.00000000000E+00 0.  1.
         21   -1    0    0  501  503 -0.00000000000E+00 -0.00000000000E+00 -0.38357542060E+03  0.38357542060E+03  0.00000000000E+00 0. -1.
          2    1    1    2  501    0  0.11898355433E+02  0.17018360403E+02 -0.23655001908E+03  0.23745969549E+03  0.00000000000E+00 0. -1.
         -2    1    1    2    0  502 -0.11898355433E+02 -0.17018360403E+02 -0.14583508915E+03  0.14730603749E+03  0.00000000000E+00 0.  1.
<mgrwt>
<rscale>  2 0.20765246E+02</rscale>
<asrwt>0</asrwt>
<pdfrwt beam="1">  1       21 0.18312469E-03 0.20765246E+02</pdfrwt>
<pdfrwt beam="2">  1       21 0.59011696E-01 0.20765246E+02</pdfrwt>
<totfact> 0.97732771E+07</totfact>
</mgrwt>
</event>
<event>
 4    1  0.2812958E+004  0.2049080E+02  0.7546771E-02  0.1735740E+00
         21   -1    0    0  503  502  0.00000000000E+00  0.00000000000E+00  0.17668021462E+03  0.17668021462E+03  0.00000000000E+00 0. -1.
         21   -1    0    0  501  503 -0.00000000000E+00 -0.00000000000E+00 -0.25841572294E+01  0.25841572294E+01  0.00000000000E+00 0.  1.
          2    1    1    2  501    0  0.60361583562E+01  0.19581560974E+02  0.11245916949E+03  0.11431070615E+03  0.00000000000E+00 0. -1.
         -2    1    1    2    0  502 -0.60361583562E+01 -0.19581560974E+02  0.61636887904E+02  0.64953665704E+02  0.00000000000E+00 0.  1.
<mgrwt>
<rscale>  2 0.20490796E+02</rscale>
<asrwt>0</asrwt>
<pdfrwt beam="1">  1       21 0.27181562E-01 0.20490796E+02</pdfrwt>
<pdfrwt beam="2">  1       21 0.39756279E-03 0.20490796E+02</pdfrwt>
<totfact> 0.13601275E+08</totfact>
</mgrwt>
</event>
<event>
 4    1  0.2812958E+004  0.3099866E+02  0.7546771E-02  0.1587305E+00
         21   -1    0    0  501  502  0.00000000000E+00  0.00000000000E+00  0.23911919833E+03  0.23911919833E+03  0.00000000000E+00 0.  1.
         21   -1    0    0  502  503 -0.00000000000E+00 -0.00000000000E+00 -0.60723299824E+01  0.60723299824E+01  0.00000000000E+00 0. -1.
          2    1    1    2  501    0 -0.25319317361E+02  0.17884330333E+02  0.18782066887E+03  0.19036155273E+03  0.00000000000E+00 0.  1.
         -2    1    1    2    0  503  0.25319317361E+02 -0.17884330333E+02  0.45226199472E+02  0.54829975577E+02  0.00000000000E+00 0. -1.
<mgrwt>
<rscale>  2 0.30998663E+02</rscale>
<asrwt>0</asrwt>
<pdfrwt beam="1">  1       21 0.36787562E-01 0.30998663E+02</pdfrwt>
<pdfrwt beam="2">  1       21 0.93420480E-03 0.30998663E+02</pdfrwt>
<totfact> 0.24142609E+07</totfact>
</mgrwt>
</event>
<event>
 4    1  0.2812958E+004  0.2116504E+02  0.7546771E-02  0.1723105E+00
         21   -1    0    0  503  502  0.00000000000E+00  0.00000000000E+00  0.55032273986E+01  0.55032273986E+01  0.00000000000E+00 0. -1.
         21   -1    0    0  501  503 -0.00000000000E+00 -0.00000000000E+00 -0.86003304151E+02  0.86003304151E+02  0.00000000000E+00 0.  1.
          2    1    1    2  501    0 -0.13177923280E+02 -0.16562046310E+02 -0.29664064352E+02  0.36440578396E+02  0.00000000000E+00 0. -1.
         -2    1    1    2    0  502  0.13177923280E+02  0.16562046310E+02 -0.50836012400E+02  0.55065953153E+02  0.00000000000E+00 0.  1.
<mgrwt>
<rscale>  2 0.21165043E+02</rscale>
<asrwt>0</asrwt>
<pdfrwt beam="1">  1       21 0.84665033E-03 0.21165043E+02</pdfrwt>
<pdfrwt beam="2">  1       21 0.13231278E-01 0.21165043E+02</pdfrwt>
<totfact> 0.15653184E+08</totfact>
</mgrwt>
</event>
<event>
 4    1  0.2812958E+004  0.2123429E+02  0.7546771E-02  0.1721841E+00
         21   -1    0    0  501  502  0.00000000000E+00  0.00000000000E+00  0.20804936052E+02  0.20804936052E+02  0.00000000000E+00 0.  1.
         21   -1    0    0  502  503 -0.00000000000E+00 -0.00000000000E+00 -0.23986411660E+02  0.23986411660E+02  0.00000000000E+00 0. -1.
          2    1    1    2  501    0  0.20751132886E+02  0.45039481237E+01 -0.85466562654E+01  0.22889744386E+02  0.00000000000E+00 0. -1.
         -2    1    1    2    0  503 -0.20751132886E+02 -0.45039481237E+01  0.53651806578E+01  0.21901603326E+02  0.00000000000E+00 0.  1.
<mgrwt>
<rscale>  2 0.21234290E+02</rscale>
<asrwt>0</asrwt>
<pdfrwt beam="1">  1       21 0.32007594E-02 0.21234290E+02</pdfrwt>
<pdfrwt beam="2">  1       21 0.36902172E-02 0.21234290E+02</pdfrwt>
<totfact> 0.16336326E+08</totfact>
</mgrwt>
</event>
<event>
 4    1  0.2812958E+004  0.2404963E+02  0.7546771E-02  0.1675040E+00
         21   -1    0    0  503  502  0.00000000000E+00  0.00000000000E+00  0.17495620153E+03  0.17495620153E+03  0.00000000000E+00 0. -1.
         21   -1    0    0  501  503 -0.00000000000E+00 -0.00000000000E+00 -0.81964337038E+01  0.81964337038E+01  0.00000000000E+00 0.  1.
          2    1    1    2  501    0  0.23581367820E+02 -0.47226898237E+01  0.12642401309E+02  0.27170112592E+02  0.00000000000E+00 0.  1.
         -2    1    1    2    0  502 -0.23581367820E+02  0.47226898237E+01  0.15411736652E+03  0.15598252265E+03  0.00000000000E+00 0. -1.
<mgrwt>
<rscale>  2 0.24049630E+02</rscale>
<asrwt>0</asrwt>
<pdfrwt beam="1">  1       21 0.26916336E-01 0.24049630E+02</pdfrwt>
<pdfrwt beam="2">  1       21 0.12609899E-02 0.24049630E+02</pdfrwt>
<totfact> 0.25930157E+07</totfact>
</mgrwt>
</event>
<event>
 4    1  0.2812958E+004  0.2658934E+02  0.7546771E-02  0.1639170E+00
         21   -1    0    0  503  502  0.00000000000E+00  0.00000000000E+00  0.42883145072E+01  0.42883145072E+01  0.00000000000E+00 0. -1.
         21   -1    0    0  501  503 -0.00000000000E+00 -0.00000000000E+00 -0.20801600823E+03  0.20801600823E+03  0.00000000000E+00 0.  1.
          2    1    1    2  501    0 -0.22333422066E+02 -0.14429530492E+02 -0.15021154423E+03  0.15254671780E+03  0.00000000000E+00 0.  1.
         -2    1    1    2    0  502  0.22333422066E+02  0.14429530492E+02 -0.53516149494E+02  0.59757604939E+02  0.00000000000E+00 0. -1.
<mgrwt>
<rscale>  2 0.26589342E+02</rscale>
<asrwt>0</asrwt>
<pdfrwt beam="1">  1       21 0.65974069E-03 0.26589342E+02</pdfrwt>
<pdfrwt beam="2">  1       21 0.32002463E-01 0.26589342E+02</pdfrwt>
<totfact> 0.51199247E+07</totfact>
</mgrwt>
</event>
<event>
 4    1  0.2812958E+004  0.3929083E+02  0.7546771E-02  0.1513496E+00
         21   -1    0    0  503  502  0.00000000000E+00  0.00000000000E+00  0.10442323835E+03  0.10442323835E+03  0.00000000000E+00 0.  1.
         21   -1    0    0  501  503 -0.00000000000E+00 -0.00000000000E+00 -0.19398491054E+02  0.19398491054E+02  0.00000000000E+00 0. -1.
          2    1    1    2  501    0  0.10902760078E+02 -0.37747833399E+02  0.12315941070E+02  0.41175860745E+02  0.00000000000E+00 0. -1.
         -2    1    1    2    0  502 -0.10902760078E+02  0.37747833399E+02  0.72708806230E+02  0.82645868663E+02  0.00000000000E+00 0.  1.
<mgrwt>
<rscale>  2 0.39290827E+02</rscale>
<asrwt>0</asrwt>
<pdfrwt beam="1">  1       21 0.16065113E-01 0.39290827E+02</pdfrwt>
<pdfrwt beam="2">  1       21 0.29843833E-02 0.39290827E+02</pdfrwt>
<totfact> 0.18664039E+07</totfact>
</mgrwt>
</event>
<event>
 4    1  0.2812958E+004  0.2033213E+02  0.7546771E-02  0.1738803E+00
         21   -1    0    0  503  502  0.00000000000E+00  0.00000000000E+00  0.30083266040E+01  0.30083266040E+01  0.00000000000E+00 0. -1.
         21   -1    0    0  501  503 -0.00000000000E+00 -0.00000000000E+00 -0.13755010767E+03  0.13755010767E+03  0.00000000000E+00 0.  1.
          2    1    1    2  501    0  0.17446223294E+02  0.10441484563E+02 -0.69456885171E+02  0.72371639505E+02  0.00000000000E+00 0.  1.
         -2    1    1    2    0  502 -0.17446223294E+02 -0.10441484563E+02 -0.65084895891E+02  0.68186794764E+02  0.00000000000E+00 0. -1.
<mgrwt>
<rscale>  2 0.20332125E+02</rscale>
<asrwt>0</asrwt>
<pdfrwt beam="1">  1       21 0.46281957E-03 0.20332125E+02</pdfrwt>
<pdfrwt beam="2">  1       21 0.21161551E-01 0.20332125E+02</pdfrwt>
<totfact> 0.16906156E+08</totfact>
</mgrwt>
</event>
<event>
 4    1  0.2812958E+004  0.2083672E+02  0.7546771E-02  0.1729183E+00
         21   -1    0    0  503  502  0.00000000000E+00  0.00000000000E+00  0.54538207076E+02  0.54538207076E+02  0.00000000000E+00 0. -1.
         21   -1    0    0  501  503 -0.00000000000E+00 -0.00000000000E+00 -0.10326415095E+03  0.10326415095E+03  0.00000000000E+00 0.  1.
          2    1    1    2  501    0 -0.48189069861E+01 -0.20271826436E+02 -0.10016184436E+03  0.10230622600E+03  0.00000000000E+00 0.  1.
         -2    1    1    2    0  502  0.48189069861E+01  0.20271826436E+02  0.51435900486E+02  0.55496132031E+02  0.00000000000E+00 0. -1.
<mgrwt>
<rscale>  2 0.20836718E+02</rscale>
<asrwt>0</asrwt>
<pdfrwt beam="1">  1       21 0.83904935E-02 0.20836718E+02</pdfrwt>
<pdfrwt beam="2">  1       21 0.15886792E-01 0.20836718E+02</pdfrwt>
<totfact> 0.32732445E+06</totfact>
</mgrwt>
</event>
<event>
 4    1  0.2812958E+004  0.2481551E+02  0.7546771E-02  0.1663666E+00
         21   -1    0    0  503  502  0.00000000000E+00  0.00000000000E+00  0.26444161498E+02  0.26444161498E+02  0.00000000000E+00 0.  1.
         21   -1    0    0  501  503 -0.00000000000E+00 -0.00000000000E+00 -0.97923229222E+02  0.97923229222E+02  0.00000000000E+00 0. -1.
          2    1    1    2  501    0  0.22344222614E+02  0.10795606266E+02 -0.90028059263E+02  0.93385549490E+02  0.00000000000E+00 0. -1.
         -2    1    1    2    0  502 -0.22344222614E+02 -0.10795606266E+02  0.18548991539E+02  0.30981841230E+02  0.00000000000E+00 0.  1.
<mgrwt>
<rscale>  2 0.24815507E+02</rscale>
<asrwt>0</asrwt>
<pdfrwt beam="1">  1       21 0.40683326E-02 0.24815507E+02</pdfrwt>
<pdfrwt beam="2">  1       21 0.15065112E-01 0.24815507E+02</pdfrwt>
<totfact> 0.11797660E+07</totfact>
</mgrwt>
</event>
<event>
 4    1  0.2812958E+004  0.2067234E+02  0.7546771E-02  0.1732279E+00
         21   -1    0    0  501  502  0.00000000000E+00  0.00000000000E+00  0.14506140083E+03  0.14506140083E+03  0.00000000000E+00 0.  1.
         21   -1    0    0  502  503 -0.00000000000E+00 -0.00000000000E+00 -0.30090011211E+01  0.30090011211E+01  0.00000000000E+00 0. -1.
          2    1    1    2  501    0  0.60987989101E+01 -0.19752218789E+02  0.81742115652E+02  0.84315591480E+02  0.00000000000E+00 0.  1.
         -2    1    1    2    0  503 -0.60987989101E+01  0.19752218789E+02  0.60310284054E+02  0.63754810469E+02  0.00000000000E+00 0. -1.
<mgrwt>
<rscale>  2 0.20672336E+02</rscale>
<asrwt>0</asrwt>
<pdfrwt beam="1">  1       21 0.22317133E-01 0.20672336E+02</pdfrwt>
<pdfrwt beam="2">  1       21 0.46292336E-03 0.20672336E+02</pdfrwt>
<totfact> 0.15476409E+08</totfact>
</mgrwt>
</event>
<event>
 4    1  0.2812958E+004  0.2042357E+02  0.7546771E-02  0.1737034E+00
         21   -1    0    0  501  502  0.00000000000E+00  0.00000000000E+00  0.29241233038E+02  0.29241233038E+02  0.00000000000E+00 0. -1.
         21   -1    0    0  502  503 -0.00000000000E+00 -0.00000000000E+00 -0.18121812881E+02  0.18121812881E+02  0.00000000000E+00 0.  1.
          2    1    1    2  501    0  0.16352725858E+01 -0.20357996475E+02  0.16484947776E+02  0.26246440522E+02  0.00000000000E+00 0. -1.
         -2    1    1    2    0  503 -0.16352725858E+01  0.20357996475E+02 -0.53655276182E+01  0.21116605397E+02  0.00000000000E+00 0.  1.
<mgrwt>
<rscale>  2 0.20423568E+02</rscale>
<asrwt>0</asrwt>
<pdfrwt beam="1">  1       21 0.44986512E-02 0.20423568E+02</pdfrwt>
<pdfrwt beam="2">  1       21 0.27879712E-02 0.20423568E+02</pdfrwt>
<totfact> 0.14646858E+08</totfact>
</mgrwt>
</event>
<event>
 4    1  0.2812958E+004  0.2080269E+02  0.7546771E-02  0.1729821E+00
         21   -1    0    0  501  502  0.00000000000E+00  0.00000000000E+00  0.36016676711E+03  0.36016676711E+03  0.00000000000E+00 0. -1.
         21   -1    0    0  502  503 -0.00000000000E+00 -0.00000000000E+00 -0.12097763012E+01  0.12097763012E+01  0.00000000000E+00 0.  1.
          2    1    1    2  501    0  0.12801817489E+02  0.16397111175E+02  0.19439483992E+03  0.19550474566E+03  0.00000000000E+00 0. -1.
         -2    1    1    2    0  503 -0.12801817489E+02 -0.16397111175E+02  0.16456215088E+03  0.16587179775E+03  0.00000000000E+00 0.  1.
<mgrwt>
<rscale>  2 0.20802687E+02</rscale>
<asrwt>0</asrwt>
<pdfrwt beam="1">  1       21 0.55410186E-01 0.20802687E+02</pdfrwt>
<pdfrwt beam="2">  1       21 0.18611972E-03 0.20802687E+02</pdfrwt>
<totfact> 0.10817810E+08</totfact>
</mgrwt>
</event>
<event>
 4    1  0.2812958E+004  0.2187338E+02  0.7546771E-02  0.1710451E+00
         21   -1    0    0  503  502  0.00000000000E+00  0.00000000000E+00  0.50087499395E+02  0.50087499395E+02  0.00000000000E+00 0.  1.
         21   -1    0    0  501  503 -0.00000000000E+00 -0.00000000000E+00 -0.24671262169E+03  0.24671262169E+03  0.00000000000E+00 0. -1.
          2    1    1    2  501    0  0.11276981074E+02  0.18742312401E+02 -0.24381139866E+03  0.24479060990E+03  0.00000000000E+00 0. -1.
         -2    1    1    2    0  502 -0.11276981074E+02 -0.18742312401E+02  0.47186276369E+02  0.52009511186E+02  0.00000000000E+00 0.  1.
<mgrwt>
<rscale>  2 0.21873376E+02</rscale>
<asrwt>0</asrwt>
<pdfrwt beam="1">  1       21 0.77057694E-02 0.21873376E+02</pdfrwt>
<pdfrwt beam="2">  1       21 0.37955787E-01 0.21873376E+02</pdfrwt>
<totfact> 0.80401241E+05</totfact>
</mgrwt>
</event>
<event>
 4    1  0.2812958E+004  0.2390605E+02  0.7546771E-02  0.1677231E+00
         21   -1    0    0  503  502  0.00000000000E+00  0.00000000000E+00  0.63885715050E+02  0.63885715050E+02  0.00000000000E+00 0. -1.
         21   -1    0    0  501  503 -0.00000000000E+00 -0.00000000000E+00 -0.20240182865E+02  0.20240182865E+02  0.00000000000E+00 0.  1.
          2    1    1    2  501    0 -0.12242810060E+02  0.20533212733E+02 -0.95987144677E+01  0.25761105231E+02  0.00000000000E+00 0.  1.
         -2    1    1    2    0  502  0.12242810060E+02 -0.20533212733E+02  0.53244246653E+02  0.58364792683E+02  0.00000000000E+00 0. -1.
<mgrwt>
<rscale>  2 0.23906050E+02</rscale>
<asrwt>0</asrwt>
<pdfrwt beam="1">  1       21 0.98285715E-02 0.23906050E+02</pdfrwt>
<pdfrwt beam="2">  1       21 0.31138743E-02 0.23906050E+02</pdfrwt>
<totfact> 0.36521020E+07</totfact>
</mgrwt>
</event>
<event>
 4    1  0.2812958E+004  0.2066678E+02  0.7546771E-02  0.1732384E+00
         21   -1    0    0  503  502  0.00000000000E+00  0.00000000000E+00  0.54516544083E+02  0.54516544083E+02  0.00000000000E+00 0.  1.
         21   -1    0    0  501  503 -0.00000000000E+00 -0.00000000000E+00 -0.10331839269E+02  0.10331839269E+02  0.00000000000E+00 0. -1.
          2    1    1    2  501    0  0.56623400259E+01  0.19875953378E+02  0.61515589335E+01  0.21562868421E+02  0.00000000000E+00 0. -1.
         -2    1    1    2    0  502 -0.56623400259E+01 -0.19875953378E+02  0.38033145881E+02  0.43285514931E+02  0.00000000000E+00 0.  1.
<mgrwt>
<rscale>  2 0.20666776E+02</rscale>
<asrwt>0</asrwt>
<pdfrwt beam="1">  1       21 0.83871605E-02 0.20666776E+02</pdfrwt>
<pdfrwt beam="2">  1       21 0.15895138E-02 0.20666776E+02</pdfrwt>
<totfact> 0.12811621E+08</totfact>
</mgrwt>
</event>
<event>
 4    1  0.2812958E+004  0.2773740E+02  0.7546771E-02  0.1624535E+00
         21   -1    0    0  501  502  0.00000000000E+00  0.00000000000E+00  0.10318713374E+02  0.10318713374E+02  0.00000000000E+00 0.  1.
         21   -1    0    0  502  503 -0.00000000000E+00 -0.00000000000E+00 -0.91492831847E+02  0.91492831847E+02  0.00000000000E+00 0. -1.
          2    1    1    2  501    0 -0.27733542209E+02 -0.46277252859E+00 -0.18687368490E+02  0.33445197906E+02  0.00000000000E+00 0.  1.
         -2    1    1    2    0  503  0.27733542209E+02  0.46277252859E+00 -0.62486749982E+02  0.68366347315E+02  0.00000000000E+00 0. -1.
<mgrwt>
<rscale>  2 0.27737403E+02</rscale>
<asrwt>0</asrwt>
<pdfrwt beam="1">  1       21 0.15874943E-02 0.27737403E+02</pdfrwt>
<pdfrwt beam="2">  1       21 0.14075821E-01 0.27737403E+02</pdfrwt>
<totfact> 0.58638323E+07</totfact>
</mgrwt>
</event>
<event>
 4    1  0.2812958E+004  0.2121653E+02  0.7546771E-02  0.1722165E+00
         21   -1    0    0  501  502  0.00000000000E+00  0.00000000000E+00  0.57462436536E+03  0.57462436536E+03  0.00000000000E+00 0. -1.
         21   -1    0    0  502  503 -0.00000000000E+00 -0.00000000000E+00 -0.14488371644E+01  0.14488371644E+01  0.00000000000E+00 0.  1.
          2    1    1    2  501    0 -0.19140837222E+02  0.91525770322E+01  0.48179793366E+03  0.48226485482E+03  0.00000000000E+00 0. -1.
         -2    1    1    2    0  503  0.19140837222E+02 -0.91525770322E+01  0.91377594537E+02  0.93808347706E+02  0.00000000000E+00 0.  1.
<mgrwt>
<rscale>  2 0.21216534E+02</rscale>
<asrwt>0</asrwt>
<pdfrwt beam="1">  1       21 0.88403567E-01 0.21216534E+02</pdfrwt>
<pdfrwt beam="2">  1       21 0.22289848E-03 0.21216534E+02</pdfrwt>
<totfact> 0.32278620E+07</totfact>
</mgrwt>
</event>
<event>
 4    1  0.2812958E+004  0.2186364E+02  0.7546771E-02  0.1710621E+00
         21   -1    0    0  501  502  0.00000000000E+00  0.00000000000E+00  0.11174330565E+02  0.11174330565E+02  0.00000000000E+00 0.  1.
         21   -1    0    0  502  503 -0.00000000000E+00 -0.00000000000E+00 -0.55579256529E+02  0.55579256529E+02  0.00000000000E+00 0. -1.
          2    1    1    2  501    0  0.12751662552E+02 -0.17759899696E+02 -0.61844238138E+01  0.22721488353E+02  0.00000000000E+00 0.  1.
         -2    1    1    2    0  503 -0.12751662552E+02  0.17759899696E+02 -0.38220502150E+02  0.44032098742E+02  0.00000000000E+00 0. -1.
<mgrwt>
<rscale>  2 0.21863644E+02</rscale>
<asrwt>0</asrwt>
<pdfrwt beam="1">  1       21 0.17191277E-02 0.21863644E+02</pdfrwt>
<pdfrwt beam="2">  1       21 0.85506551E-02 0.21863644E+02</pdfrwt>
<totfact> 0.11205892E+08</totfact>
</mgrwt>
</event>
<event>
 4    1  0.2812958E+004  0.2207308E+02  0.7546771E-02  0.1706991E+00
         21   -1    0    0  503  502  0.00000000000E+00  0.00000000000E+00  0.14313044858E+03  0.14313044858E+03  0.00000000000E+00 0. -1.
         21   -1    0    0  501  503 -0.00000000000E+00 -0.00000000000E+00 -0.40114680512E+01  0.40114680512E+01  0.00000000000E+00 0.  1.
          2    1    1    2  501    0 -0.20547575367E+02  0.80633879463E+01  0.40930640570E+02  0.46503101145E+02  0.00000000000E+00 0.  1.
         -2    1    1    2    0  502  0.20547575367E+02 -0.80633879463E+01  0.98188339962E+02  0.10063881549E+03  0.00000000000E+00 0. -1.
<mgrwt>
<rscale>  2 0.22073085E+02</rscale>
<asrwt>0</asrwt>
<pdfrwt beam="1">  1       21 0.22020065E-01 0.22073085E+02</pdfrwt>
<pdfrwt beam="2">  1       21 0.61714904E-03 0.22073085E+02</pdfrwt>
<totfact> 0.10570491E+08</totfact>
</mgrwt>
</event>
<event>
 4    1  0.2812958E+004  0.2646654E+02  0.7546771E-02  0.1640789E+00
         21   -1    0    0  501  502  0.00000000000E+00  0.00000000000E+00  0.20651802429E+01  0.20651802429E+01  0.00000000000E+00 0.  1.
         21   -1    0    0  502  503 -0.00000000000E+00 -0.00000000000E+00 -0.35011463510E+03  0.35011463510E+03  0.00000000000E+00 0. -1.
          2    1    1    2  501    0  0.29520462854E+01  0.26301390728E+02 -0.14291212828E+03  0.14534219670E+03  0.00000000000E+00 0. -1.
         -2    1    1    2    0  503 -0.29520462854E+01 -0.26301390728E+02 -0.20513732658E+03  0.20683761865E+03  0.00000000000E+00 0.  1.
<mgrwt>
<rscale>  2 0.26466540E+02</rscale>
<asrwt>0</asrwt>
<pdfrwt beam="1">  1       21 0.31771985E-03 0.26466540E+02</pdfrwt>
<pdfrwt beam="2">  1       21 0.53863822E-01 0.26466540E+02</pdfrwt>
<totfact> 0.55837081E+07</totfact>
</mgrwt>
</event>
<event>
 4    1  0.2812958E+004  0.2264366E+02  0.7546771E-02  0.1697352E+00
         21   -1    0    0  503  502  0.00000000000E+00  0.00000000000E+00  0.38104882629E+01  0.38104882629E+01  0.00000000000E+00 0. -1.
         21   -1    0    0  501  503 -0.00000000000E+00 -0.00000000000E+00 -0.40432622610E+03  0.40432622610E+03  0.00000000000E+00 0.  1.
          2    1    1    2  501    0  0.13301050890E+02 -0.18325318109E+02 -0.36694587764E+03  0.36764386620E+03  0.00000000000E+00 0.  1.
         -2    1    1    2    0  502 -0.13301050890E+02  0.18325318109E+02 -0.33569860195E+02  0.40492848159E+02  0.00000000000E+00 0. -1.
<mgrwt>
<rscale>  2 0.22643658E+02</rscale>
<asrwt>0</asrwt>
<pdfrwt beam="1">  1       21 0.58622911E-03 0.22643658E+02</pdfrwt>
<pdfrwt beam="2">  1       21 0.62204019E-01 0.22643658E+02</pdfrwt>
<totfact> 0.16463688E+07</totfact>
</mgrwt>
</event>
<event>
 4    1  0.2812958E+004  0.2298541E+02  0.7546771E-02  0.1691747E+00
         21   -1    0    0  501  502  0.00000000000E+00  0.00000000000E+00  0.19596548980E+01  0.19596548980E+01  0.00000000000E+00 0.  1.
         21   -1    0    0  502  503 -0.00000000000E+00 -0.00000000000E+00 -0.10483798498E+04  0.10483798498E+04  0.00000000000E+00 0. -1.
          2    1    1    2  501    0  0.59162073115E+01  0.22210977651E+02 -0.70576423529E+02  0.74225067163E+02  0.00000000000E+00 0.  1.
         -2    1    1    2    0  503 -0.59162073115E+01 -0.22210977651E+02 -0.97584377135E+03  0.97611443751E+03  0.00000000000E+00 0. -1.
<mgrwt>
<rscale>  2 0.22985409E+02</rscale>
<asrwt>0</asrwt>
<pdfrwt beam="1">  1       21 0.30148485E-03 0.22985409E+02</pdfrwt>
<pdfrwt beam="2">  1       21 0.16128949E+00 0.22985409E+02</pdfrwt>
<totfact> 0.54216551E+06</totfact>
</mgrwt>
</event>
<event>
 4    1  0.2812958E+004  0.3260327E+02  0.7546771E-02  0.1570976E+00
         21   -1    0    0  503  502  0.00000000000E+00  0.00000000000E+00  0.38916230148E+02  0.38916230148E+02  0.00000000000E+00 0.  1.
         21   -1    0    0  501  503 -0.00000000000E+00 -0.00000000000E+00 -0.36256815592E+02  0.36256815592E+02  0.00000000000E+00 0. -1.
          2    1    1    2  501    0 -0.17468650912E+02 -0.27528518769E+02 -0.17336882162E+02  0.36926150536E+02  0.00000000000E+00 0. -1.
         -2    1    1    2    0  502  0.17468650912E+02  0.27528518769E+02  0.19996296718E+02  0.38246895204E+02  0.00000000000E+00 0.  1.
<mgrwt>
<rscale>  2 0.32603268E+02</rscale>
<asrwt>0</asrwt>
<pdfrwt beam="1">  1       21 0.59871123E-02 0.32603268E+02</pdfrwt>
<pdfrwt beam="2">  1       21 0.55779716E-02 0.32603268E+02</pdfrwt>
<totfact> 0.34867064E+07</totfact>
</mgrwt>
</event>
<event>
 4    1  0.2812958E+004  0.3637248E+02  0.7546771E-02  0.1536740E+00
         21   -1    0    0  503  502  0.00000000000E+00  0.00000000000E+00  0.18593343849E+03  0.18593343849E+03  0.00000000000E+00 0.  1.
         21   -1    0    0  501  503 -0.00000000000E+00 -0.00000000000E+00 -0.19183109141E+02  0.19183109141E+02  0.00000000000E+00 0. -1.
          2    1    1    2  501    0  0.10081290650E+02  0.34947456184E+02  0.20309108832E+01  0.36429132764E+02  0.00000000000E+00 0. -1.
         -2    1    1    2    0  502 -0.10081290650E+02 -0.34947456184E+02  0.16471941846E+03  0.16868741486E+03  0.00000000000E+00 0.  1.
<mgrwt>
<rscale>  2 0.36372477E+02</rscale>
<asrwt>0</asrwt>
<pdfrwt beam="1">  1       21 0.28605143E-01 0.36372477E+02</pdfrwt>
<pdfrwt beam="2">  1       21 0.29512477E-02 0.36372477E+02</pdfrwt>
<totfact> 0.66810719E+06</totfact>
</mgrwt>
</event>
<event>
 4    1  0.2812958E+004  0.2471016E+02  0.7546771E-02  0.1665200E+00
         21   -1    0    0  501  502  0.00000000000E+00  0.00000000000E+00  0.64969981050E+02  0.64969981050E+02  0.00000000000E+00 0. -1.
         21   -1    0    0  502  503 -0.00000000000E+00 -0.00000000000E+00 -0.41251426128E+02  0.41251426128E+02  0.00000000000E+00 0.  1.
          2    1    1    2  501    0 -0.24710106197E+02 -0.49145542874E-01  0.58529539529E+02  0.63531872009E+02  0.00000000000E+00 0. -1.
         -2    1    1    2    0  503  0.24710106197E+02  0.49145542874E-01 -0.34810984607E+02  0.42689535168E+02  0.00000000000E+00 0.  1.
<mgrwt>
<rscale>  2 0.24710155E+02</rscale>
<asrwt>0</asrwt>
<pdfrwt beam="1">  1       21 0.99953817E-02 0.24710155E+02</pdfrwt>
<pdfrwt beam="2">  1       21 0.63463733E-02 0.24710155E+02</pdfrwt>
<totfact> 0.11552943E+07</totfact>
</mgrwt>
</event>
<event>
 4    1  0.2812958E+004  0.3419797E+02  0.7546771E-02  0.1555840E+00
         21   -1    0    0  501  502  0.00000000000E+00  0.00000000000E+00  0.13728201372E+02  0.13728201372E+02  0.00000000000E+00 0.  1.
         21   -1    0    0  502  503 -0.00000000000E+00 -0.00000000000E+00 -0.22973931234E+03  0.22973931234E+03  0.00000000000E+00 0. -1.
          2    1    1    2  501    0 -0.29049364908E+02  0.18045375771E+02 -0.11444534136E+02  0.36062148437E+02  0.00000000000E+00 0.  1.
         -2    1    1    2    0  503  0.29049364908E+02 -0.18045375771E+02 -0.20456657683E+03  0.20740536527E+03  0.00000000000E+00 0. -1.
<mgrwt>
<rscale>  2 0.34197971E+02</rscale>
<asrwt>0</asrwt>
<pdfrwt beam="1">  1       21 0.21120310E-02 0.34197971E+02</pdfrwt>
<pdfrwt beam="2">  1       21 0.35344509E-01 0.34197971E+02</pdfrwt>
<totfact> 0.75555407E+06</totfact>
</mgrwt>
</event>
<event>
 4    1  0.2812958E+004  0.2208682E+02  0.7546771E-02  0.1706755E+00
         21   -1    0    0  501  502  0.00000000000E+00  0.00000000000E+00  0.76640396221E+02  0.76640396221E+02  0.00000000000E+00 0. -1.
         21   -1    0    0  502  503 -0.00000000000E+00 -0.00000000000E+00 -0.88396760268E+01  0.88396760268E+01  0.00000000000E+00 0.  1.
          2    1    1    2  501    0  0.19754392722E+02 -0.98788369489E+01  0.56513606478E+02  0.60676314724E+02  0.00000000000E+00 0. -1.
         -2    1    1    2    0  503 -0.19754392722E+02  0.98788369489E+01  0.11287113716E+02  0.24803757524E+02  0.00000000000E+00 0.  1.
<mgrwt>
<rscale>  2 0.22086816E+02</rscale>
<asrwt>0</asrwt>
<pdfrwt beam="1">  1       21 0.11790830E-01 0.22086816E+02</pdfrwt>
<pdfrwt beam="2">  1       21 0.13599502E-02 0.22086816E+02</pdfrwt>
<totfact> 0.94362610E+07</totfact>
</mgrwt>
</event>
<event>
 4    1  0.2812958E+004  0.2360898E+02  0.7546771E-02  0.1681825E+00
         21   -1    0    0  503  502  0.00000000000E+00  0.00000000000E+00  0.27269466084E+03  0.27269466084E+03  0.00000000000E+00 0. -1.
         21   -1    0    0  501  503 -0.00000000000E+00 -0.00000000000E+00 -0.56553689736E+01  0.56553689736E+01  0.00000000000E+00 0.  1.
          2    1    1    2  501    0 -0.42421221895E+01  0.23224739887E+02  0.22303571782E+02  0.32478199730E+02  0.00000000000E+00 0.  1.
         -2    1    1    2    0  502  0.42421221895E+01 -0.23224739887E+02  0.24473572008E+03  0.24587183008E+03  0.00000000000E+00 0. -1.
<mgrwt>
<rscale>  2 0.23608984E+02</rscale>
<asrwt>0</asrwt>
<pdfrwt beam="1">  1       21 0.41953015E-01 0.23608984E+02</pdfrwt>
<pdfrwt beam="2">  1       21 0.87005698E-03 0.23608984E+02</pdfrwt>
<totfact> 0.19894042E+07</totfact>
</mgrwt>
</event>
<event>
 4    1  0.2812958E+004  0.3230562E+02  0.7546771E-02  0.1573918E+00
         21   -1    0    0  503  502  0.00000000000E+00  0.00000000000E+00  0.81140552962E+01  0.81140552962E+01  0.00000000000E+00 0. -1.
         21   -1    0    0  501  503 -0.00000000000E+00 -0.00000000000E+00 -0.18843892813E+03  0.18843892813E+03  0.00000000000E+00 0.  1.
          2    1    1    2  501    0  0.18790330820E+02  0.26278819547E+02 -0.14553228195E+03  0.14907480666E+03  0.00000000000E+00 0.  1.
         -2    1    1    2    0  502 -0.18790330820E+02 -0.26278819547E+02 -0.34792590876E+02  0.47478176765E+02  0.00000000000E+00 0. -1.
<mgrwt>
<rscale>  2 0.32305617E+02</rscale>
<asrwt>0</asrwt>
<pdfrwt beam="1">  1       21 0.12483164E-02 0.32305617E+02</pdfrwt>
<pdfrwt beam="2">  1       21 0.28990601E-01 0.32305617E+02</pdfrwt>
<totfact> 0.24378588E+07</totfact>
</mgrwt>
</event>
<event>
 4    1  0.2812958E+004  0.2525481E+02  0.7546771E-02  0.1657369E+00
         21   -1    0    0  503  502  0.00000000000E+00  0.00000000000E+00  0.90928899118E+01  0.90928899118E+01  0.00000000000E+00 0.  1.
         21   -1    0    0  501  503 -0.00000000000E+00 -0.00000000000E+00 -0.14326418658E+03  0.14326418658E+03  0.00000000000E+00 0. -1.
          2    1    1    2  501    0  0.10182488419E+02  0.23111084360E+02 -0.12150890731E+03  0.12410568016E+03  0.00000000000E+00 0. -1.
         -2    1    1    2    0  502 -0.10182488419E+02 -0.23111084360E+02 -0.12662389354E+02  0.28251396334E+02  0.00000000000E+00 0.  1.
<mgrwt>
<rscale>  2 0.25254807E+02</rscale>
<asrwt>0</asrwt>
<pdfrwt beam="1">  1       21 0.13989063E-02 0.25254807E+02</pdfrwt>
<pdfrwt beam="2">  1       21 0.22040641E-01 0.25254807E+02</pdfrwt>
<totfact> 0.31971841E+07</totfact>
</mgrwt>
</event>
<event>
 4    1  0.2812958E+004  0.2072925E+02  0.7546771E-02  0.1731203E+00
         21   -1    0    0  501  502  0.00000000000E+00  0.00000000000E+00  0.17786802279E+02  0.17786802279E+02  0.00000000000E+00 0. -1.
         21   -1    0    0  502  503 -0.00000000000E+00 -0.00000000000E+00 -0.31816913977E+02  0.31816913977E+02  0.00000000000E+00 0.  1.
          2    1    1    2  501    0 -0.19952099500E+02 -0.56227638901E+01  0.51531276538E+01  0.21360160880E+02  0.00000000000E+00 0. -1.
         -2    1    1    2    0  503  0.19952099500E+02  0.56227638901E+01 -0.19183239353E+02  0.28243555376E+02  0.00000000000E+00 0.  1.
<mgrwt>
<rscale>  2 0.20729249E+02</rscale>
<asrwt>0</asrwt>
<pdfrwt beam="1">  1       21 0.27364312E-02 0.20729249E+02</pdfrwt>
<pdfrwt beam="2">  1       21 0.48949098E-02 0.20729249E+02</pdfrwt>
<totfact> 0.13253325E+08</totfact>
</mgrwt>
</event>
<event>
 4    1  0.2812958E+004  0.2847691E+02  0.7546771E-02  0.1615561E+00
         21   -1    0    0  501  502  0.00000000000E+00  0.00000000000E+00  0.52515842173E+02  0.52515842173E+02  0.00000000000E+00 0.  1.
         21   -1    0    0  502  503 -0.00000000000E+00 -0.00000000000E+00 -0.26020734664E+02  0.26020734664E+02  0.00000000000E+00 0. -1.
          2    1    1    2  501    0 -0.28110282615E+02 -0.45548299771E+01  0.38285862282E+02  0.47715214717E+02  0.00000000000E+00 0.  1.
         -2    1    1    2    0  503  0.28110282615E+02  0.45548299771E+01 -0.11790754773E+02  0.30821362120E+02  0.00000000000E+00 0. -1.
<mgrwt>
<rscale>  2 0.28476911E+02</rscale>
<asrwt>0</asrwt>
<pdfrwt beam="1">  1       21 0.80793603E-02 0.28476911E+02</pdfrwt>
<pdfrwt beam="2">  1       21 0.40031900E-02 0.28476911E+02</pdfrwt>
<totfact> 0.35351414E+07</totfact>
</mgrwt>
</event>
<event>
 4    1  0.2812958E+004  0.3829775E+02  0.7546771E-02  0.1521125E+00
         21   -1    0    0  503  502  0.00000000000E+00  0.00000000000E+00  0.36936025576E+01  0.36936025576E+01  0.00000000000E+00 0. -1.
         21   -1    0    0  501  503 -0.00000000000E+00 -0.00000000000E+00 -0.11554770669E+04  0.11554770669E+04  0.00000000000E+00 0.  1.
          2    1    1    2  501    0 -0.43655484933E+01  0.38048123595E+02 -0.10454399943E+04  0.10461412426E+04  0.00000000000E+00 0.  1.
         -2    1    1    2    0  502  0.43655484933E+01 -0.38048123595E+02 -0.10634347009E+03  0.11302942694E+03  0.00000000000E+00 0. -1.
<mgrwt>
<rscale>  2 0.38297751E+02</rscale>
<asrwt>0</asrwt>
<pdfrwt beam="1">  1       21 0.56824647E-03 0.38297751E+02</pdfrwt>
<pdfrwt beam="2">  1       21 0.17776573E+00 0.38297751E+02</pdfrwt>
<totfact> 0.17303501E+06</totfact>
</mgrwt>
</event>
<event>
 4    1  0.2812958E+004  0.2112316E+02  0.7546771E-02  0.1723873E+00
         21   -1    0    0  503  502  0.00000000000E+00  0.00000000000E+00  0.71647892221E+01  0.71647892221E+01  0.00000000000E+00 0. -1.
         21   -1    0    0  501  503 -0.00000000000E+00 -0.00000000000E+00 -0.96426001755E+02  0.96426001755E+02  0.00000000000E+00 0.  1.
          2    1    1    2  501    0 -0.18084964562E+02  0.10914291208E+02 -0.75455060852E+02  0.78355943642E+02  0.00000000000E+00 0.  1.
         -2    1    1    2    0  502  0.18084964562E+02 -0.10914291208E+02 -0.13806151681E+02  0.25234847335E+02  0.00000000000E+00 0. -1.
<mgrwt>
<rscale>  2 0.21123155E+02</rscale>
<asrwt>0</asrwt>
<pdfrwt beam="1">  1       21 0.11022753E-02 0.21123155E+02</pdfrwt>
<pdfrwt beam="2">  1       21 0.14834769E-01 0.21123155E+02</pdfrwt>
<totfact> 0.86914320E+07</totfact>
</mgrwt>
</event>
<event>
 4    1  0.2812958E+004  0.2172213E+02  0.7546771E-02  0.1713102E+00
         21   -1    0    0  503  502  0.00000000000E+00  0.00000000000E+00  0.15913670483E+02  0.15913670483E+02  0.00000000000E+00 0.  1.
         21   -1    0    0  501  503 -0.00000000000E+00 -0.00000000000E+00 -0.70536917870E+02  0.70536917870E+02  0.00000000000E+00 0. -1.
          2    1    1    2  501    0  0.20989422069E+02 -0.55942103756E+01 -0.60220900184E+02  0.64018808545E+02  0.00000000000E+00 0. -1.
         -2    1    1    2    0  502 -0.20989422069E+02  0.55942103756E+01  0.55976527965E+01  0.22431779808E+02  0.00000000000E+00 0.  1.
<mgrwt>
<rscale>  2 0.21722132E+02</rscale>
<asrwt>0</asrwt>
<pdfrwt beam="1">  1       21 0.24482570E-02 0.21722132E+02</pdfrwt>
<pdfrwt beam="2">  1       21 0.10851833E-01 0.21722132E+02</pdfrwt>
<totfact> 0.43943912E+07</totfact>
</mgrwt>
</event>
<event>
 4    1  0.2812958E+004  0.2688622E+02  0.7546771E-02  0.1635300E+00
         21   -1    0    0  503  502  0.00000000000E+00  0.00000000000E+00  0.75398576107E+02  0.75398576107E+02  0.00000000000E+00 0. -1.
         21   -1    0    0  501  503 -0.00000000000E+00 -0.00000000000E+00 -0.15005302984E+02  0.15005302984E+02  0.00000000000E+00 0.  1.
          2    1    1    2  501    0 -0.22592174895E+02 -0.14576092809E+02  0.30351044726E+01  0.27056989988E+02  0.00000000000E+00 0.  1.
         -2    1    1    2    0  502  0.22592174895E+02  0.14576092809E+02  0.57358168650E+02  0.63346889102E+02  0.00000000000E+00 0. -1.
<mgrwt>
<rscale>  2 0.26886220E+02</rscale>
<asrwt>0</asrwt>
<pdfrwt beam="1">  1       21 0.11599781E-01 0.26886220E+02</pdfrwt>
<pdfrwt beam="2">  1       21 0.23085082E-02 0.26886220E+02</pdfrwt>
<totfact> 0.45356920E+07</totfact>
</mgrwt>
</event>
<event>
 4    1  0.2812958E+004  0.2097863E+02  0.7546771E-02  0.1726539E+00
         21   -1    0    0  503  502  0.00000000000E+00  0.00000000000E+00  0.67434715599E+00  0.67434715599E+00  0.00000000000E+00 0. -1.
         21   -1    0    0  501  503 -0.00000000000E+00 -0.00000000000E+00 -0.67400711698E+03  0.67400711698E+03  0.00000000000E+00 0.  1.
          2    1    1    2  501    0 -0.84356246069E+01  0.19207896318E+02 -0.39673574016E+03  0.39729000813E+03  0.00000000000E+00 0.  1.
         -2    1    1    2    0  502  0.84356246069E+01 -0.19207896318E+02 -0.27659702967E+03  0.27739145601E+03  0.00000000000E+00 0. -1.
<mgrwt>
<rscale>  2 0.20978633E+02</rscale>
<asrwt>0</asrwt>
<pdfrwt beam="1">  1       21 0.10374573E-03 0.20978633E+02</pdfrwt>
<pdfrwt beam="2">  1       21 0.10369339E+00 0.20978633E+02</pdfrwt>
<totfact> 0.68172371E+07</totfact>
</mgrwt>
</event>
<event>
 4    1  0.2812958E+004  0.2663146E+02  0.7546771E-02  0.1638617E+00
         21   -1    0    0  501  502  0.00000000000E+00  0.00000000000E+00  0.33565901147E+03  0.33565901147E+03  0.00000000000E+00 0. -1.
         21   -1    0    0  502  503 -0.00000000000E+00 -0.00000000000E+00 -0.32621473737E+01  0.32621473737E+01  0.00000000000E+00 0.  1.
          2    1    1    2  501    0 -0.11687719178E+02 -0.23929725205E+02  0.26677853147E+03  0.26810449340E+03  0.00000000000E+00 0. -1.
         -2    1    1    2    0  503  0.11687719178E+02  0.23929725205E+02  0.65618332634E+02  0.70816665451E+02  0.00000000000E+00 0.  1.
<mgrwt>
<rscale>  2 0.26631457E+02</rscale>
<asrwt>0</asrwt>
<pdfrwt beam="1">  1       21 0.51639821E-01 0.26631457E+02</pdfrwt>
<pdfrwt beam="2">  1       21 0.50186909E-03 0.26631457E+02</pdfrwt>
<totfact> 0.30970281E+07</totfact>
</mgrwt>
</event>
<event>
 4    1  0.2812958E+004  0.3228417E+02  0.7546771E-02  0.1574131E+00
         21   -1    0    0  503  502  0.00000000000E+00  0.00000000000E+00  0.24282017237E+03  0.24282017237E+03  0.00000000000E+00 0. -1.
         21   -1    0    0  501  503 -0.00000000000E+00 -0.00000000000E+00 -0.33198749319E+02  0.33198749319E+02  0.00000000000E+00 0.  1.
          2    1    1    2  501    0  0.11791030629E+02 -0.30053938421E+02 -0.23968287342E+02  0.40208785309E+02  0.00000000000E+00 0.  1.
         -2    1    1    2    0  502 -0.11791030629E+02  0.30053938421E+02  0.23358971039E+03  0.23581013638E+03  0.00000000000E+00 0. -1.
<mgrwt>
<rscale>  2 0.32284170E+02</rscale>
<asrwt>0</asrwt>
<pdfrwt beam="1">  1       21 0.37356949E-01 0.32284170E+02</pdfrwt>
<pdfrwt beam="2">  1       21 0.51075000E-02 0.32284170E+02</pdfrwt>
<totfact> 0.16682521E+06</totfact>
</mgrwt>
</event>
<event>
 4    1  0.2812958E+004  0.2105016E+02  0.7546771E-02  0.1725216E+00
         21   -1    0    0  501  502  0.00000000000E+00  0.00000000000E+00  0.39036058096E+02  0.39036058096E+02  0.00000000000E+00 0. -1.
         21   -1    0    0  502  503 -0.00000000000E+00 -0.00000000000E+00 -0.12547680589E+02  0.12547680589E+02  0.00000000000E+00 0.  1.
          2    1    1    2  501    0 -0.13537323857E+02  0.16119861207E+02  0.21208352112E+02  0.29881486942E+02  0.00000000000E+00 0. -1.
         -2    1    1    2    0  503  0.13537323857E+02 -0.16119861207E+02  0.52800253956E+01  0.21702251744E+02  0.00000000000E+00 0.  1.
<mgrwt>
<rscale>  2 0.21050156E+02</rscale>
<asrwt>0</asrwt>
<pdfrwt beam="1">  1       21 0.60055473E-02 0.21050156E+02</pdfrwt>
<pdfrwt beam="2">  1       21 0.19304124E-02 0.21050156E+02</pdfrwt>
<totfact> 0.16436348E+08</totfact>
</mgrwt>
</event>
<event>
 4    1  0.2812958E+004  0.2109718E+02  0.7546771E-02  0.1724350E+00
         21   -1    0    0  503  502  0.00000000000E+00  0.00000000000E+00  0.12080298044E+04  0.12080298044E+04  0.00000000000E+00 0. -1.
         21   -1    0    0  501  503 -0.00000000000E+00 -0.00000000000E+00 -0.63076320216E+00  0.63076320216E+00  0.00000000000E+00 0.  1.
          2    1    1    2  501    0  0.14541447874E+02 -0.15285197794E+02  0.21397613369E+03  0.21501366647E+03  0.00000000000E+00 0.  1.
         -2    1    1    2    0  502 -0.14541447874E+02  0.15285197794E+02  0.99342290753E+03  0.99364690116E+03  0.00000000000E+00 0. -1.
<mgrwt>
<rscale>  2 0.21097179E+02</rscale>
<asrwt>0</asrwt>
<pdfrwt beam="1">  1       21 0.18584889E+00 0.21097179E+02</pdfrwt>
<pdfrwt beam="2">  1       21 0.97041460E-04 0.21097179E+02</pdfrwt>
<totfact> 0.19295818E+07</totfact>
</mgrwt>
</event>
<event>
 4    1  0.2812958E+004  0.2445246E+02  0.7546771E-02  0.1668993E+00
         21   -1    0    0  503  502  0.00000000000E+00  0.00000000000E+00  0.29111161765E+01  0.29111161765E+01  0.00000000000E+00 0. -1.
         21   -1    0    0  501  503 -0.00000000000E+00 -0.00000000000E+00 -0.20592181361E+03  0.20592181361E+03  0.00000000000E+00 0.  1.
          2    1    1    2  501    0 -0.21745672350E+02 -0.11182506270E+02 -0.10679702708E+03  0.10956061202E+03  0.00000000000E+00 0. -1.
         -2    1    1    2    0  502  0.21745672350E+02  0.11182506270E+02 -0.96213670354E+02  0.99272317770E+02  0.00000000000E+00 0.  1.
<mgrwt>
<rscale>  2 0.24452458E+02</rscale>
<asrwt>0</asrwt>
<pdfrwt beam="1">  1       21 0.44786385E-03 0.24452458E+02</pdfrwt>
<pdfrwt beam="2">  1       21 0.31680291E-01 0.24452458E+02</pdfrwt>
<totfact> 0.90836437E+07</totfact>
</mgrwt>
</event>
<event>
 4    1  0.2812958E+004  0.2067704E+02  0.7546771E-02  0.1732190E+00
         21   -1    0    0  503  502  0.00000000000E+00  0.00000000000E+00  0.15625132483E+02  0.15625132483E+02  0.00000000000E+00 0. -1.
         21   -1    0    0  501  503 -0.00000000000E+00 -0.00000000000E+00 -0.73344562096E+02  0.73344562096E+02  0.00000000000E+00 0.  1.
          2    1    1    2  501    0 -0.10445113468E+02  0.17844873743E+02 -0.64082460243E+02  0.67335738097E+02  0.00000000000E+00 0.  1.
         -2    1    1    2    0  502  0.10445113468E+02 -0.17844873743E+02  0.63630306296E+01  0.21633956482E+02  0.00000000000E+00 0. -1.
<mgrwt>
<rscale>  2 0.20677038E+02</rscale>
<asrwt>0</asrwt>
<pdfrwt beam="1">  1       21 0.24038665E-02 0.20677038E+02</pdfrwt>
<pdfrwt beam="2">  1       21 0.11283779E-01 0.20677038E+02</pdfrwt>
<totfact> 0.41832598E+07</totfact>
</mgrwt>
</event>
<event>
 4    1  0.2812958E+004  0.2132527E+02  0.7546771E-02  0.1720189E+00
         21   -1    0    0  501  502  0.00000000000E+00  0.00000000000E+00  0.25824569483E+01  0.25824569483E+01  0.00000000000E+00 0. -1.
         21   -1    0    0  502  503 -0.00000000000E+00 -0.00000000000E+00 -0.17620630583E+03  0.17620630583E+03  0.00000000000E+00 0.  1.
          2    1    1    2  501    0  0.16191021435E+02  0.13878687288E+02 -0.89021732071E+02  0.91540351304E+02  0.00000000000E+00 0.  1.
         -2    1    1    2    0  503 -0.16191021435E+02 -0.13878687288E+02 -0.84602116810E+02  0.87248411473E+02  0.00000000000E+00 0. -1.
<mgrwt>
<rscale>  2 0.21325270E+02</rscale>
<asrwt>0</asrwt>
<pdfrwt beam="1">  1       21 0.39730111E-03 0.21325270E+02</pdfrwt>
<pdfrwt beam="2">  1       21 0.27108660E-01 0.21325270E+02</pdfrwt>
<totfact> 0.13839307E+08</totfact>
</mgrwt>
</event>
<event>
 4    1  0.2812958E+004  0.2044274E+02  0.7546771E-02  0.1736664E+00
         21   -1    0    0  503  502  0.00000000000E+00  0.00000000000E+00  0.96401184943E+02  0.96401184943E+02  0.00000000000E+00 0. -1.
         21   -1    0    0  501  503 -0.00000000000E+00 -0.00000000000E+00 -0.14953553114E+02  0.14953553114E+02  0.00000000000E+00 0.  1.
          2    1    1    2  501    0  0.32730167732E+01  0.20179020033E+02 -0.61940047229E+01  0.21360505210E+02  0.00000000000E+00 0.  1.
         -2    1    1    2    0  502 -0.32730167732E+01 -0.20179020033E+02  0.87641636552E+02  0.89994232848E+02  0.00000000000E+00 0. -1.
<mgrwt>
<rscale>  2 0.20442737E+02</rscale>
<asrwt>0</asrwt>
<pdfrwt beam="1">  1       21 0.14830951E-01 0.20442737E+02</pdfrwt>
<pdfrwt beam="2">  1       21 0.23005467E-02 0.20442737E+02</pdfrwt>
<totfact> 0.28227547E+07</totfact>
</mgrwt>
</event>
<event>
 4    1  0.2812958E+004  0.2061024E+02  0.7546771E-02  0.1733458E+00
         21   -1    0    0  503  502  0.00000000000E+00  0.00000000000E+00  0.11428946539E+02  0.11428946539E+02  0.00000000000E+00 0.  1.
         21   -1    0    0  501  503 -0.00000000000E+00 -0.00000000000E+00 -0.45326329169E+02  0.45326329169E+02  0.00000000000E+00 0. -1.
          2    1    1    2  501    0 -0.41728070464E+01  0.20183397430E+02 -0.49087856291E+01  0.21186741769E+02  0.00000000000E+00 0.  1.
         -2    1    1    2    0  502  0.41728070464E+01 -0.20183397430E+02 -0.28988597001E+02  0.35568533939E+02  0.00000000000E+00 0. -1.
<mgrwt>
<rscale>  2 0.20610237E+02</rscale>
<asrwt>0</asrwt>
<pdfrwt beam="1">  1       21 0.17582995E-02 0.20610237E+02</pdfrwt>
<pdfrwt beam="2">  1       21 0.69732814E-02 0.20610237E+02</pdfrwt>
<totfact> 0.14810277E+08</totfact>
</mgrwt>
</event>
<event>
 4    1  0.2812958E+004  0.2461885E+02  0.7546771E-02  0.1666538E+00
         21   -1    0    0  503  502  0.00000000000E+00  0.00000000000E+00  0.10257644160E+03  0.10257644160E+03  0.00000000000E+00 0. -1.
         21   -1    0    0  501  503 -0.00000000000E+00 -0.00000000000E+00 -0.10194075261E+02  0.10194075261E+02  0.00000000000E+00 0.  1.
          2    1    1    2  501    0 -0.24720206718E+01 -0.24494427170E+02  0.96326435423E+01  0.26436256736E+02  0.00000000000E+00 0. -1.
         -2    1    1    2    0  502  0.24720206718E+01  0.24494427170E+02  0.82749722797E+02  0.86334260127E+02  0.00000000000E+00 0.  1.
<mgrwt>
<rscale>  2 0.24618851E+02</rscale>
<asrwt>0</asrwt>
<pdfrwt beam="1">  1       21 0.15780990E-01 0.24618851E+02</pdfrwt>
<pdfrwt beam="2">  1       21 0.15683193E-02 0.24618851E+02</pdfrwt>
<totfact> 0.47765243E+07</totfact>
</mgrwt>
</event>
<event>
 4    1  0.2812958E+004  0.2143032E+02  0.7546771E-02  0.1718295E+00
         21   -1    0    0  503  502  0.00000000000E+00  0.00000000000E+00  0.14934695865E+01  0.14934695865E+01  0.00000000000E+00 0. -1.
         21   -1    0    0  501  503 -0.00000000000E+00 -0.00000000000E+00 -0.61657159650E+03  0.61657159650E+03  0.00000000000E+00 0.  1.
          2    1    1    2  501    0 -0.37066001006E+01  0.21107341326E+02 -0.52633238831E+03  0.52676848968E+03  0.00000000000E+00 0.  1.
         -2    1    1    2    0  502  0.37066001006E+01 -0.21107341326E+02 -0.88745738611E+02  0.91296576407E+02  0.00000000000E+00 0. -1.
<mgrwt>
<rscale>  2 0.21430323E+02</rscale>
<asrwt>0</asrwt>
<pdfrwt beam="1">  1       21 0.22976454E-03 0.21430323E+02</pdfrwt>
<pdfrwt beam="2">  1       21 0.94857173E-01 0.21430323E+02</pdfrwt>
<totfact> 0.26624968E+07</totfact>
</mgrwt>
</event>
<event>
 4    1  0.2812958E+004  0.3577177E+02  0.7546771E-02  0.1541852E+00
         21   -1    0    0  503  502  0.00000000000E+00  0.00000000000E+00  0.32877631213E+03  0.32877631213E+03  0.00000000000E+00 0. -1.
         21   -1    0    0  501  503 -0.00000000000E+00 -0.00000000000E+00 -0.39714280538E+01  0.39714280538E+01  0.00000000000E+00 0.  1.
          2    1    1    2  501    0  0.21771146690E+02  0.28383743704E+02  0.13888375976E+03  0.14341659060E+03  0.00000000000E+00 0.  1.
         -2    1    1    2    0  502 -0.21771146690E+02 -0.28383743704E+02  0.18592112432E+03  0.18933114958E+03  0.00000000000E+00 0. -1.
<mgrwt>
<rscale>  2 0.35771773E+02</rscale>
<asrwt>0</asrwt>
<pdfrwt beam="1">  1       21 0.50580950E-01 0.35771773E+02</pdfrwt>
<pdfrwt beam="2">  1       21 0.61098919E-03 0.35771773E+02</pdfrwt>
<totfact> 0.25373038E+07</totfact>
</mgrwt>
</event>
<event>
 4    1  0.2812958E+004  0.2360941E+02  0.7546771E-02  0.1681818E+00
         21   -1    0    0  501  502  0.00000000000E+00  0.00000000000E+00  0.13213568829E+02  0.13213568829E+02  0.00000000000E+00 0.  1.
         21   -1    0    0  502  503 -0.00000000000E+00 -0.00000000000E+00 -0.42514791858E+02  0.42514791858E+02  0.00000000000E+00 0. -1.
          2    1    1    2  501    0  0.23528468754E+02 -0.19533122142E+01 -0.17107584776E+02  0.29156023862E+02  0.00000000000E+00 0. -1.
         -2    1    1    2    0  503 -0.23528468754E+02  0.19533122142E+01 -0.12193638253E+02  0.26572336826E+02  0.00000000000E+00 0.  1.
<mgrwt>
<rscale>  2 0.23609411E+02</rscale>
<asrwt>0</asrwt>
<pdfrwt beam="1">  1       21 0.20328567E-02 0.23609411E+02</pdfrwt>
<pdfrwt beam="2">  1       21 0.65407373E-02 0.23609411E+02</pdfrwt>
<totfact> 0.13708699E+08</totfact>
</mgrwt>
</event>
<event>
 4    1  0.2812958E+004  0.2335902E+02  0.7546771E-02  0.1685756E+00
         21   -1    0    0  503  502  0.00000000000E+00  0.00000000000E+00  0.31339795764E+02  0.31339795764E+02  0.00000000000E+00 0.  1.
         21   -1    0    0  501  503 -0.00000000000E+00 -0.00000000000E+00 -0.17709548537E+02  0.17709548537E+02  0.00000000000E+00 0. -1.
          2    1    1    2  501    0 -0.91530553951E+01 -0.21491053708E+02  0.10001646537E+02  0.25410170129E+02  0.00000000000E+00 0.  1.
         -2    1    1    2    0  502  0.91530553951E+01  0.21491053708E+02  0.36286006899E+01  0.23639174172E+02  0.00000000000E+00 0. -1.
<mgrwt>
<rscale>  2 0.23359020E+02</rscale>
<asrwt>0</asrwt>
<pdfrwt beam="1">  1       21 0.48215070E-02 0.23359020E+02</pdfrwt>
<pdfrwt beam="2">  1       21 0.27245459E-02 0.23359020E+02</pdfrwt>
<totfact> 0.14171219E+08</totfact>
</mgrwt>
</event>
<event>
 4    1  0.2812958E+004  0.3055562E+02  0.7546771E-02  0.1592027E+00
         21   -1    0    0  501  502  0.00000000000E+00  0.00000000000E+00  0.15790717643E+03  0.15790717643E+03  0.00000000000E+00 0. -1.
         21   -1    0    0  502  503 -0.00000000000E+00 -0.00000000000E+00 -0.26698827025E+02  0.26698827025E+02  0.00000000000E+00 0.  1.
          2    1    1    2  501    0  0.59137725903E+01 -0.29977877968E+02  0.14704783969E+03  0.15018892447E+03  0.00000000000E+00 0. -1.
         -2    1    1    2    0  503 -0.59137725903E+01  0.29977877968E+02 -0.15839490287E+02  0.34417078991E+02  0.00000000000E+00 0.  1.
<mgrwt>
<rscale>  2 0.30555619E+02</rscale>
<asrwt>0</asrwt>
<pdfrwt beam="1">  1       21 0.24293411E-01 0.30555619E+02</pdfrwt>
<pdfrwt beam="2">  1       21 0.41075119E-02 0.30555619E+02</pdfrwt>
<totfact> 0.52016672E+06</totfact>
</mgrwt>
</event>
<event>
 4    1  0.2812958E+004  0.2174167E+02  0.7546771E-02  0.1712758E+00
         21   -1    0    0  503  502  0.00000000000E+00  0.00000000000E+00  0.30242760837E+02  0.30242760837E+02  0.00000000000E+00 0.  1.
         21   -1    0    0  501  503 -0.00000000000E+00 -0.00000000000E+00 -0.65826687070E+02  0.65826687070E+02  0.00000000000E+00 0. -1.
          2    1    1    2  501    0 -0.21186368811E+02  0.48824360857E+01 -0.59738002633E+02  0.63571450857E+02  0.00000000000E+00 0. -1.
         -2    1    1    2    0  502  0.21186368811E+02 -0.48824360857E+01  0.24154076400E+02  0.32497997050E+02  0.00000000000E+00 0.  1.
<mgrwt>
<rscale>  2 0.21741674E+02</rscale>
<asrwt>0</asrwt>
<pdfrwt beam="1">  1       21 0.46527325E-02 0.21741674E+02</pdfrwt>
<pdfrwt beam="2">  1       21 0.10127183E-01 0.21741674E+02</pdfrwt>
<totfact> 0.18081372E+07</totfact>
</mgrwt>
</event>
<event>
 4    1  0.2812958E+004  0.2052509E+02  0.7546771E-02  0.1735083E+00
         21   -1    0    0  503  502  0.00000000000E+00  0.00000000000E+00  0.42039147630E+02  0.42039147630E+02  0.00000000000E+00 0. -1.
         21   -1    0    0  501  503 -0.00000000000E+00 -0.00000000000E+00 -0.11175240754E+02  0.11175240754E+02  0.00000000000E+00 0.  1.
          2    1    1    2  501    0 -0.11495606211E+02  0.17003838938E+02  0.68813738241E+01  0.21647928457E+02  0.00000000000E+00 0.  1.
         -2    1    1    2    0  502  0.11495606211E+02 -0.17003838938E+02  0.23982533052E+02  0.31566459928E+02  0.00000000000E+00 0. -1.
<mgrwt>
<rscale>  2 0.20525094E+02</rscale>
<asrwt>0</asrwt>
<pdfrwt beam="1">  1       21 0.64675611E-02 0.20525094E+02</pdfrwt>
<pdfrwt beam="2">  1       21 0.17192678E-02 0.20525094E+02</pdfrwt>
<totfact> 0.17275098E+08</totfact>
</mgrwt>
</event>
<event>
 4    1  0.2812958E+004  0.2217589E+02  0.7546771E-02  0.1705228E+00
         21   -1    0    0  501  502  0.00000000000E+00  0.00000000000E+00  0.94881629151E+01  0.94881629151E+01  0.00000000000E+00 0. -1.
         21   -1    0    0  502  503 -0.00000000000E+00 -0.00000000000E+00 -0.76594840260E+02  0.76594840260E+02  0.00000000000E+00 0.  1.
          2    1    1    2  501    0 -0.20993728424E+02  0.71437774142E+01 -0.90792449395E+01  0.23962530701E+02  0.00000000000E+00 0. -1.
         -2    1    1    2    0  503  0.20993728424E+02 -0.71437774142E+01 -0.58027432405E+02  0.62120472475E+02  0.00000000000E+00 0.  1.
<mgrwt>
<rscale>  2 0.22175892E+02</rscale>
<asrwt>0</asrwt>
<pdfrwt beam="1">  1       21 0.14597173E-02 0.22175892E+02</pdfrwt>
<pdfrwt beam="2">  1       21 0.11783822E-01 0.22175892E+02</pdfrwt>
<totfact> 0.84946004E+07</totfact>
</mgrwt>
</event>
<event>
 4    1  0.2812958E+004  0.3837110E+02  0.7546771E-02  0.1520552E+00
         21   -1    0    0  503  502  0.00000000000E+00  0.00000000000E+00  0.92492232814E+01  0.92492232814E+01  0.00000000000E+00 0. -1.
         21   -1    0    0  501  503 -0.00000000000E+00 -0.00000000000E+00 -0.24128002848E+03  0.24128002848E+03  0.00000000000E+00 0.  1.
          2    1    1    2  501    0 -0.12916766848E-01 -0.38371097458E+02 -0.18908305176E+03  0.19293714456E+03  0.00000000000E+00 0.  1.
         -2    1    1    2    0  502  0.12916766848E-01  0.38371097458E+02 -0.42947753444E+02  0.57592107210E+02  0.00000000000E+00 0. -1.
<mgrwt>
<rscale>  2 0.38371100E+02</rscale>
<asrwt>0</asrwt>
<pdfrwt beam="1">  1       21 0.14229574E-02 0.38371100E+02</pdfrwt>
<pdfrwt beam="2">  1       21 0.37120005E-01 0.38371100E+02</pdfrwt>
<totfact> 0.12906202E+07</totfact>
</mgrwt>
</event>
<event>
 4    1  0.2812958E+004  0.2688502E+02  0.7546771E-02  0.1635315E+00
         21   -1    0    0  501  502  0.00000000000E+00  0.00000000000E+00  0.54339369314E+00  0.54339369314E+00  0.00000000000E+00 0.  1.
         21   -1    0    0  502  503 -0.00000000000E+00 -0.00000000000E+00 -0.14998104396E+04  0.14998104396E+04  0.00000000000E+00 0. -1.
          2    1    1    2  501    0  0.25455468764E+02 -0.86500412474E+01 -0.49733503608E+03  0.49806118321E+03  0.00000000000E+00 0.  1.
         -2    1    1    2    0  503 -0.25455468764E+02  0.86500412474E+01 -0.10019320098E+04  0.10022926501E+04  0.00000000000E+00 0. -1.
<mgrwt>
<rscale>  2 0.26885016E+02</rscale>
<asrwt>0</asrwt>
<pdfrwt beam="1">  1       21 0.83598156E-04 0.26885016E+02</pdfrwt>
<pdfrwt beam="2">  1       21 0.23074248E+00 0.26885016E+02</pdfrwt>
<totfact> 0.13944946E+07</totfact>
</mgrwt>
</event>
<event>
 4    1  0.2812958E+004  0.2141791E+02  0.7546771E-02  0.1718518E+00
         21   -1    0    0  503  502  0.00000000000E+00  0.00000000000E+00  0.17555582221E+01  0.17555582221E+01  0.00000000000E+00 0. -1.
         21   -1    0    0  501  503 -0.00000000000E+00 -0.00000000000E+00 -0.26243138889E+03  0.26243138889E+03  0.00000000000E+00 0.  1.
          2    1    1    2  501    0 -0.87272730995E+01  0.19559178149E+02 -0.13901246540E+03  0.14065273649E+03  0.00000000000E+00 0.  1.
         -2    1    1    2    0  502  0.87272730995E+01 -0.19559178149E+02 -0.12166336526E+03  0.12353421062E+03  0.00000000000E+00 0. -1.
<mgrwt>
<rscale>  2 0.21417907E+02</rscale>
<asrwt>0</asrwt>
<pdfrwt beam="1">  1       21 0.27008590E-03 0.21417907E+02</pdfrwt>
<pdfrwt beam="2">  1       21 0.40374057E-01 0.21417907E+02</pdfrwt>
<totfact> 0.11705287E+08</totfact>
</mgrwt>
</event>
<event>
 4    1  0.2812958E+004  0.3095773E+02  0.7546771E-02  0.1587737E+00
         21   -1    0    0  501  502  0.00000000000E+00  0.00000000000E+00  0.72908086164E+02  0.72908086164E+02  0.00000000000E+00 0. -1.
         21   -1    0    0  502  503 -0.00000000000E+00 -0.00000000000E+00 -0.31597356626E+02  0.31597356626E+02  0.00000000000E+00 0.  1.
          2    1    1    2  501    0 -0.10248338525E+02  0.29212199274E+02  0.60586234910E+02  0.68037290434E+02  0.00000000000E+00 0. -1.
         -2    1    1    2    0  503  0.10248338525E+02 -0.29212199274E+02 -0.19275505372E+02  0.36468152357E+02  0.00000000000E+00 0.  1.
<mgrwt>
<rscale>  2 0.30957730E+02</rscale>
<asrwt>0</asrwt>
<pdfrwt beam="1">  1       21 0.11216629E-01 0.30957730E+02</pdfrwt>
<pdfrwt beam="2">  1       21 0.48611318E-02 0.30957730E+02</pdfrwt>
<totfact> 0.15251234E+07</totfact>
</mgrwt>
</event>
<event>
 4    1  0.2812958E+004  0.2037358E+02  0.7546771E-02  0.1737999E+00
         21   -1    0    0  501  502  0.00000000000E+00  0.00000000000E+00  0.26726396464E+01  0.26726396464E+01  0.00000000000E+00 0. -1.
         21   -1    0    0  502  503 -0.00000000000E+00 -0.00000000000E+00 -0.16193262545E+03  0.16193262545E+03  0.00000000000E+00 0.  1.
          2    1    1    2  501    0 -0.16768388754E+02  0.11571683867E+02 -0.62983522024E+02  0.66196727831E+02  0.00000000000E+00 0. -1.
         -2    1    1    2    0  503  0.16768388754E+02 -0.11571683867E+02 -0.96276463782E+02  0.98408537269E+02  0.00000000000E+00 0.  1.
<mgrwt>
<rscale>  2 0.20373579E+02</rscale>
<asrwt>0</asrwt>
<pdfrwt beam="1">  1       21 0.41117536E-03 0.20373579E+02</pdfrwt>
<pdfrwt beam="2">  1       21 0.24912710E-01 0.20373579E+02</pdfrwt>
<totfact> 0.15097228E+08</totfact>
</mgrwt>
</event>
<event>
 4    1  0.2812958E+004  0.2187627E+02  0.7546771E-02  0.1710401E+00
         21   -1    0    0  501  502  0.00000000000E+00  0.00000000000E+00  0.50133928704E+02  0.50133928704E+02  0.00000000000E+00 0. -1.
         21   -1    0    0  502  503 -0.00000000000E+00 -0.00000000000E+00 -0.95886803026E+01  0.95886803026E+01  0.00000000000E+00 0.  1.
          2    1    1    2  501    0 -0.53956538498E+01 -0.21200425550E+02  0.22268293976E+02  0.31216150317E+02  0.00000000000E+00 0. -1.
         -2    1    1    2    0  503  0.53956538498E+01  0.21200425550E+02  0.18276954426E+02  0.28506458690E+02  0.00000000000E+00 0.  1.
<mgrwt>
<rscale>  2 0.21876269E+02</rscale>
<asrwt>0</asrwt>
<pdfrwt beam="1">  1       21 0.77129120E-02 0.21876269E+02</pdfrwt>
<pdfrwt beam="2">  1       21 0.14751816E-02 0.21876269E+02</pdfrwt>
<totfact> 0.16731317E+08</totfact>
</mgrwt>
</event>
<event>
 4    1  0.2812958E+004  0.3441263E+02  0.7546771E-02  0.1553879E+00
         21   -1    0    0  501  502  0.00000000000E+00  0.00000000000E+00  0.19989307048E+03  0.19989307048E+03  0.00000000000E+00 0. -1.
         21   -1    0    0  502  503 -0.00000000000E+00 -0.00000000000E+00 -0.12432260571E+02  0.12432260571E+02  0.00000000000E+00 0.  1.
          2    1    1    2  501    0  0.33211375571E+01  0.34251994966E+02  0.17054058540E+03  0.17397793073E+03  0.00000000000E+00 0. -1.
         -2    1    1    2    0  503 -0.33211375571E+01 -0.34251994966E+02  0.16920224514E+02  0.38347400321E+02  0.00000000000E+00 0.  1.
<mgrwt>
<rscale>  2 0.34412630E+02</rscale>
<asrwt>0</asrwt>
<pdfrwt beam="1">  1       21 0.30752778E-01 0.34412630E+02</pdfrwt>
<pdfrwt beam="2">  1       21 0.19126556E-02 0.34412630E+02</pdfrwt>
<totfact> 0.11445922E+07</totfact>
</mgrwt>
</event>
<event>
 4    1  0.2812958E+004  0.2269298E+02  0.7546771E-02  0.1696536E+00
         21   -1    0    0  503  502  0.00000000000E+00  0.00000000000E+00  0.82906461039E+03  0.82906461039E+03  0.00000000000E+00 0.  1.
         21   -1    0    0  501  503 -0.00000000000E+00 -0.00000000000E+00 -0.10296600068E+01  0.10296600068E+01  0.00000000000E+00 0. -1.
          2    1    1    2  501    0  0.69327121647E+01 -0.21608077576E+02  0.15258886753E+03  0.15426708660E+03  0.00000000000E+00 0. -1.
         -2    1    1    2    0  502 -0.69327121647E+01  0.21608077576E+02  0.67544608285E+03  0.67582718379E+03  0.00000000000E+00 0.  1.
<mgrwt>
<rscale>  2 0.22692984E+02</rscale>
<asrwt>0</asrwt>
<pdfrwt beam="1">  1       21 0.12754787E+00 0.22692984E+02</pdfrwt>
<pdfrwt beam="2">  1       21 0.15840989E-03 0.22692984E+02</pdfrwt>
<totfact> 0.23816279E+07</totfact>
</mgrwt>
</event>
<event>
 4    1  0.2812958E+004  0.2091290E+02  0.7546771E-02  0.1727761E+00
         21   -1    0    0  501  502  0.00000000000E+00  0.00000000000E+00  0.50479472734E+01  0.50479472734E+01  0.00000000000E+00 0. -1.
         21   -1    0    0  502  503 -0.00000000000E+00 -0.00000000000E+00 -0.90743388879E+02  0.90743388879E+02  0.00000000000E+00 0.  1.
          2    1    1    2  501    0 -0.53595834876E+01 -0.20214455177E+02 -0.32661558667E+02  0.38783072954E+02  0.00000000000E+00 0. -1.
         -2    1    1    2    0  503  0.53595834876E+01  0.20214455177E+02 -0.53033882939E+02  0.57008263198E+02  0.00000000000E+00 0.  1.
<mgrwt>
<rscale>  2 0.20912899E+02</rscale>
<asrwt>0</asrwt>
<pdfrwt beam="1">  1       21 0.77660724E-03 0.20912899E+02</pdfrwt>
<pdfrwt beam="2">  1       21 0.13960522E-01 0.20912899E+02</pdfrwt>
<totfact> 0.16203906E+08</totfact>
</mgrwt>
</event>
<event>
 4    1  0.2812958E+004  0.2698074E+02  0.7546771E-02  0.1634080E+00
         21   -1    0    0  501  502  0.00000000000E+00  0.00000000000E+00  0.60228339262E+01  0.60228339262E+01  0.00000000000E+00 0. -1.
         21   -1    0    0  502  503 -0.00000000000E+00 -0.00000000000E+00 -0.41132103537E+03  0.41132103537E+03  0.00000000000E+00 0.  1.
          2    1    1    2  501    0 -0.25716781147E+02 -0.81613354607E+01 -0.27296386268E+02  0.38380371707E+02  0.00000000000E+00 0. -1.
         -2    1    1    2    0  503  0.25716781147E+02  0.81613354607E+01 -0.37800181518E+03  0.37896349759E+03  0.00000000000E+00 0.  1.
<mgrwt>
<rscale>  2 0.26980738E+02</rscale>
<asrwt>0</asrwt>
<pdfrwt beam="1">  1       21 0.92659010E-03 0.26980738E+02</pdfrwt>
<pdfrwt beam="2">  1       21 0.63280141E-01 0.26980738E+02</pdfrwt>
<totfact> 0.82738032E+06</totfact>
</mgrwt>
</event>
<event>
 4    1  0.2812958E+004  0.3048989E+02  0.7546771E-02  0.1592736E+00
         21   -1    0    0  503  502  0.00000000000E+00  0.00000000000E+00  0.25455970225E+02  0.25455970225E+02  0.00000000000E+00 0. -1.
         21   -1    0    0  501  503 -0.00000000000E+00 -0.00000000000E+00 -0.52117681157E+02  0.52117681157E+02  0.00000000000E+00 0.  1.
          2    1    1    2  501    0 -0.18854475948E+02  0.23961265553E+02 -0.34550194162E+02  0.46079815829E+02  0.00000000000E+00 0.  1.
         -2    1    1    2    0  502  0.18854475948E+02 -0.23961265553E+02  0.78884832307E+01  0.31493835553E+02  0.00000000000E+00 0. -1.
<mgrwt>
<rscale>  2 0.30489892E+02</rscale>
<asrwt>0</asrwt>
<pdfrwt beam="1">  1       21 0.39163032E-02 0.30489892E+02</pdfrwt>
<pdfrwt beam="2">  1       21 0.80181047E-02 0.30489892E+02</pdfrwt>
<totfact> 0.37612124E+07</totfact>
</mgrwt>
</event>
<event>
 4    1  0.2812958E+004  0.2026198E+02  0.7546771E-02  0.1740168E+00
         21   -1    0    0  501  502  0.00000000000E+00  0.00000000000E+00  0.14649149771E+03  0.14649149771E+03  0.00000000000E+00 0.  1.
         21   -1    0    0  502  503 -0.00000000000E+00 -0.00000000000E+00 -0.41971101494E+01  0.41971101494E+01  0.00000000000E+00 0. -1.
          2    1    1    2  501    0  0.12226525220E+02  0.16157347693E+02  0.11457780412E+03  0.11635558001E+03  0.00000000000E+00 0.  1.
         -2    1    1    2    0  503 -0.12226525220E+02 -0.16157347693E+02  0.27716583443E+02  0.34333027848E+02  0.00000000000E+00 0. -1.
<mgrwt>
<rscale>  2 0.20261979E+02</rscale>
<asrwt>0</asrwt>
<pdfrwt beam="1">  1       21 0.22537150E-01 0.20261979E+02</pdfrwt>
<pdfrwt beam="2">  1       21 0.64570937E-03 0.20261979E+02</pdfrwt>
<totfact> 0.92662571E+07</totfact>
</mgrwt>
</event>
<event>
 4    1  0.2812958E+004  0.2444488E+02  0.7546771E-02  0.1669106E+00
         21   -1    0    0  503  502  0.00000000000E+00  0.00000000000E+00  0.91616897530E+01  0.91616897530E+01  0.00000000000E+00 0. -1.
         21   -1    0    0  501  503 -0.00000000000E+00 -0.00000000000E+00 -0.21450398175E+03  0.21450398175E+03  0.00000000000E+00 0.  1.
          2    1    1    2  501    0 -0.24417353156E+02  0.11596866149E+01 -0.19596521599E+03  0.19748396869E+03  0.00000000000E+00 0.  1.
         -2    1    1    2    0  502  0.24417353156E+02 -0.11596866149E+01 -0.93770760071E+01  0.26181702822E+02  0.00000000000E+00 0. -1.
<mgrwt>
<rscale>  2 0.24444877E+02</rscale>
<asrwt>0</asrwt>
<pdfrwt beam="1">  1       21 0.14094908E-02 0.24444877E+02</pdfrwt>
<pdfrwt beam="2">  1       21 0.33000610E-01 0.24444877E+02</pdfrwt>
<totfact> 0.15158785E+07</totfact>
</mgrwt>
</event>
<event>
 4    1  0.2812958E+004  0.2358051E+02  0.7546771E-02  0.1682269E+00
         21   -1    0    0  503  502  0.00000000000E+00  0.00000000000E+00  0.51656977930E+03  0.51656977930E+03  0.00000000000E+00 0.  1.
         21   -1    0    0  501  503 -0.00000000000E+00 -0.00000000000E+00 -0.13675172632E+01  0.13675172632E+01  0.00000000000E+00 0. -1.
          2    1    1    2  501    0 -0.21491094949E+02  0.97042824340E+01  0.13811756053E+03  0.14011602616E+03  0.00000000000E+00 0. -1.
         -2    1    1    2    0  502  0.21491094949E+02 -0.97042824340E+01  0.37708470151E+03  0.37782127041E+03  0.00000000000E+00 0.  1.
<mgrwt>
<rscale>  2 0.23580506E+02</rscale>
<asrwt>0</asrwt>
<pdfrwt beam="1">  1       21 0.79472118E-01 0.23580506E+02</pdfrwt>
<pdfrwt beam="2">  1       21 0.21038768E-03 0.23580506E+02</pdfrwt>
<totfact> 0.44961921E+07</totfact>
</mgrwt>
</event>
<event>
 4    1  0.2812958E+004  0.2725188E+02  0.7546771E-02  0.1630616E+00
         21   -1    0    0  503  502  0.00000000000E+00  0.00000000000E+00  0.37240474543E+01  0.37240474543E+01  0.00000000000E+00 0. -1.
         21   -1    0    0  501  503 -0.00000000000E+00 -0.00000000000E+00 -0.28963206755E+03  0.28963206755E+03  0.00000000000E+00 0.  1.
          2    1    1    2  501    0 -0.24135178184E+02 -0.12655350257E+02 -0.22481261490E+03  0.22645833289E+03  0.00000000000E+00 0.  1.
         -2    1    1    2    0  502  0.24135178184E+02  0.12655350257E+02 -0.61095405195E+02  0.66897782116E+02  0.00000000000E+00 0. -1.
<mgrwt>
<rscale>  2 0.27251875E+02</rscale>
<asrwt>0</asrwt>
<pdfrwt beam="1">  1       21 0.57293012E-03 0.27251875E+02</pdfrwt>
<pdfrwt beam="2">  1       21 0.44558800E-01 0.27251875E+02</pdfrwt>
<totfact> 0.34051271E+07</totfact>
</mgrwt>
</event>
<event>
 4    1  0.2812958E+004  0.2925973E+02  0.7546771E-02  0.1606419E+00
         21   -1    0    0  503  502  0.00000000000E+00  0.00000000000E+00  0.24887595863E+02  0.24887595863E+02  0.00000000000E+00 0.  1.
         21   -1    0    0  501  503 -0.00000000000E+00 -0.00000000000E+00 -0.52711780863E+02  0.52711780863E+02  0.00000000000E+00 0. -1.
          2    1    1    2  501    0 -0.60096245160E+00  0.29253553894E+02 -0.36780741390E+02  0.46999516045E+02  0.00000000000E+00 0.  1.
         -2    1    1    2    0  502  0.60096245160E+00 -0.29253553894E+02  0.89565563893E+01  0.30599860680E+02  0.00000000000E+00 0. -1.
<mgrwt>
<rscale>  2 0.29259726E+02</rscale>
<asrwt>0</asrwt>
<pdfrwt beam="1">  1       21 0.38288609E-02 0.29259726E+02</pdfrwt>
<pdfrwt beam="2">  1       21 0.81095047E-02 0.29259726E+02</pdfrwt>
<totfact> 0.37936723E+07</totfact>
</mgrwt>
</event>
<event>
 4    1  0.2812958E+004  0.3796610E+02  0.7546771E-02  0.1523735E+00
         21   -1    0    0  503  502  0.00000000000E+00  0.00000000000E+00  0.27147526824E+02  0.27147526824E+02  0.00000000000E+00 0.  1.
         21   -1    0    0  501  503 -0.00000000000E+00 -0.00000000000E+00 -0.55867109612E+02  0.55867109612E+02  0.00000000000E+00 0. -1.
          2    1    1    2  501    0  0.21561266660E+02 -0.31249584078E+02 -0.23604100574E+02  0.44705461512E+02  0.00000000000E+00 0.  1.
         -2    1    1    2    0  502 -0.21561266660E+02  0.31249584078E+02 -0.51154822136E+01  0.38309174924E+02  0.00000000000E+00 0. -1.
<mgrwt>
<rscale>  2 0.37966100E+02</rscale>
<asrwt>0</asrwt>
<pdfrwt beam="1">  1       21 0.41765426E-02 0.37966100E+02</pdfrwt>
<pdfrwt beam="2">  1       21 0.85949398E-02 0.37966100E+02</pdfrwt>
<totfact> 0.31556868E+07</totfact>
</mgrwt>
</event>
<event>
 4    1  0.2812958E+004  0.2910390E+02  0.7546771E-02  0.1608210E+00
         21   -1    0    0  501  502  0.00000000000E+00  0.00000000000E+00  0.12609627908E+03  0.12609627908E+03  0.00000000000E+00 0. -1.
         21   -1    0    0  502  503 -0.00000000000E+00 -0.00000000000E+00 -0.11220450458E+02  0.11220450458E+02  0.00000000000E+00 0.  1.
          2    1    1    2  501    0 -0.39598138728E+01 -0.28833261864E+02  0.10093323050E+03  0.10504548602E+03  0.00000000000E+00 0. -1.
         -2    1    1    2    0  503  0.39598138728E+01  0.28833261864E+02  0.13942598129E+02  0.32271243518E+02  0.00000000000E+00 0.  1.
<mgrwt>
<rscale>  2 0.29103902E+02</rscale>
<asrwt>0</asrwt>
<pdfrwt beam="1">  1       21 0.19399427E-01 0.29103902E+02</pdfrwt>
<pdfrwt beam="2">  1       21 0.17262232E-02 0.29103902E+02</pdfrwt>
<totfact> 0.29904140E+07</totfact>
</mgrwt>
</event>
<event>
 4    1  0.2812958E+004  0.2087218E+02  0.7546771E-02  0.1728520E+00
         21   -1    0    0  501  502  0.00000000000E+00  0.00000000000E+00  0.57976316023E+02  0.57976316023E+02  0.00000000000E+00 0.  1.
         21   -1    0    0  502  503 -0.00000000000E+00 -0.00000000000E+00 -0.35440523089E+02  0.35440523089E+02  0.00000000000E+00 0. -1.
          2    1    1    2  501    0 -0.15436734644E+02 -0.14048312987E+02  0.52730034160E+02  0.56710707779E+02  0.00000000000E+00 0.  1.
         -2    1    1    2    0  503  0.15436734644E+02  0.14048312987E+02 -0.30194241226E+02  0.36706131334E+02  0.00000000000E+00 0. -1.
<mgrwt>
<rscale>  2 0.20872179E+02</rscale>
<asrwt>0</asrwt>
<pdfrwt beam="1">  1       21 0.89194332E-02 0.20872179E+02</pdfrwt>
<pdfrwt beam="2">  1       21 0.54523882E-02 0.20872179E+02</pdfrwt>
<totfact> 0.17163414E+07</totfact>
</mgrwt>
</event>
<event>
 4    1  0.2812958E+004  0.2254814E+02  0.7546771E-02  0.1698941E+00
         21   -1    0    0  501  502  0.00000000000E+00  0.00000000000E+00  0.11735009353E+04  0.11735009353E+04  0.00000000000E+00 0. -1.
         21   -1    0    0  502  503 -0.00000000000E+00 -0.00000000000E+00 -0.49517920599E+00  0.49517920599E+00  0.00000000000E+00 0.  1.
          2    1    1    2  501    0 -0.24267281225E+01  0.22417169647E+02  0.79409245237E+03  0.79441251338E+03  0.00000000000E+00 0. -1.
         -2    1    1    2    0  503  0.24267281225E+01 -0.22417169647E+02  0.37891330368E+03  0.37958360108E+03  0.00000000000E+00 0.  1.
<mgrwt>
<rscale>  2 0.22548137E+02</rscale>
<asrwt>0</asrwt>
<pdfrwt beam="1">  1       21 0.18053638E+00 0.22548137E+02</pdfrwt>
<pdfrwt beam="2">  1       21 0.76182356E-04 0.22548137E+02</pdfrwt>
<totfact> 0.29552105E+07</totfact>
</mgrwt>
</event>
<event>
 4    1  0.2812958E+004  0.6462479E+02  0.7546771E-02  0.1379388E+00
         21   -1    0    0  501  502  0.00000000000E+00  0.00000000000E+00  0.74210247831E+01  0.74210247831E+01  0.00000000000E+00 0.  1.
         21   -1    0    0  502  503 -0.00000000000E+00 -0.00000000000E+00 -0.57163490840E+03  0.57163490840E+03  0.00000000000E+00 0. -1.
          2    1    1    2  501    0  0.41184787824E+02  0.49801374907E+02 -0.31815297085E+03  0.32465008324E+03  0.00000000000E+00 0.  1.
         -2    1    1    2    0  503 -0.41184787824E+02 -0.49801374907E+02 -0.24606091277E+03  0.25440584994E+03  0.00000000000E+00 0. -1.
<mgrwt>
<rscale>  2 0.64624792E+02</rscale>
<asrwt>0</asrwt>
<pdfrwt beam="1">  1       21 0.11416962E-02 0.64624792E+02</pdfrwt>
<pdfrwt beam="2">  1       21 0.87943823E-01 0.64624792E+02</pdfrwt>
<totfact> 0.32555571E+06</totfact>
</mgrwt>
</event>
<event>
 4    1  0.2812958E+004  0.2518919E+02  0.7546771E-02  0.1658299E+00
         21   -1    0    0  501  502  0.00000000000E+00  0.00000000000E+00  0.71856512052E+01  0.71856512052E+01  0.00000000000E+00 0.  1.
         21   -1    0    0  502  503 -0.00000000000E+00 -0.00000000000E+00 -0.90967492017E+02  0.90967492017E+02  0.00000000000E+00 0. -1.
          2    1    1    2  501    0  0.20365391485E+02  0.14823836911E+02 -0.33487492043E+02  0.41903549186E+02  0.00000000000E+00 0.  1.
         -2    1    1    2    0  503 -0.20365391485E+02 -0.14823836911E+02 -0.50294348769E+02  0.56249594036E+02  0.00000000000E+00 0. -1.
<mgrwt>
<rscale>  2 0.25189190E+02</rscale>
<asrwt>0</asrwt>
<pdfrwt beam="1">  1       21 0.11054849E-02 0.25189190E+02</pdfrwt>
<pdfrwt beam="2">  1       21 0.13994997E-01 0.25189190E+02</pdfrwt>
<totfact> 0.10028191E+08</totfact>
</mgrwt>
</event>
<event>
 4    1  0.2812958E+004  0.2249902E+02  0.7546771E-02  0.1699762E+00
         21   -1    0    0  503  502  0.00000000000E+00  0.00000000000E+00  0.10204191840E+03  0.10204191840E+03  0.00000000000E+00 0.  1.
         21   -1    0    0  501  503 -0.00000000000E+00 -0.00000000000E+00 -0.88119256485E+01  0.88119256485E+01  0.00000000000E+00 0. -1.
          2    1    1    2  501    0 -0.22177431201E+02  0.37904691987E+01  0.99728341213E+01  0.24610232258E+02  0.00000000000E+00 0. -1.
         -2    1    1    2    0  502  0.22177431201E+02 -0.37904691987E+01  0.83257158631E+02  0.86243611791E+02  0.00000000000E+00 0.  1.
<mgrwt>
<rscale>  2 0.22499025E+02</rscale>
<asrwt>0</asrwt>
<pdfrwt beam="1">  1       21 0.15698756E-01 0.22499025E+02</pdfrwt>
<pdfrwt beam="2">  1       21 0.13556809E-02 0.22499025E+02</pdfrwt>
<totfact> 0.58779030E+07</totfact>
</mgrwt>
</event>
<event>
 4    1  0.2812958E+004  0.4993428E+02  0.7546771E-02  0.1445696E+00
         21   -1    0    0  501  502  0.00000000000E+00  0.00000000000E+00  0.28306154856E+02  0.28306154856E+02  0.00000000000E+00 0.  1.
         21   -1    0    0  502  503 -0.00000000000E+00 -0.00000000000E+00 -0.95990009639E+02  0.95990009639E+02  0.00000000000E+00 0. -1.
          2    1    1    2  501    0 -0.29983105134E+02 -0.39930505431E+02 -0.16010579121E+02  0.52438254178E+02  0.00000000000E+00 0. -1.
         -2    1    1    2    0  503  0.29983105134E+02  0.39930505431E+02 -0.51673275662E+02  0.71857910316E+02  0.00000000000E+00 0.  1.
<mgrwt>
<rscale>  2 0.49934275E+02</rscale>
<asrwt>0</asrwt>
<pdfrwt beam="1">  1       21 0.43547931E-02 0.49934275E+02</pdfrwt>
<pdfrwt beam="2">  1       21 0.14767694E-01 0.49934275E+02</pdfrwt>
<totfact> 0.12196021E+07</totfact>
</mgrwt>
</event>
<event>
 4    1  0.2812958E+004  0.2068069E+02  0.7546771E-02  0.1732121E+00
         21   -1    0    0  501  502  0.00000000000E+00  0.00000000000E+00  0.67261385659E+01  0.67261385659E+01  0.00000000000E+00 0.  1.
         21   -1    0    0  502  503 -0.00000000000E+00 -0.00000000000E+00 -0.15184136187E+03  0.15184136187E+03  0.00000000000E+00 0. -1.
          2    1    1    2  501    0 -0.20224905135E+02 -0.43178922156E+01 -0.12112847224E+02  0.23966894850E+02  0.00000000000E+00 0.  1.
         -2    1    1    2    0  503  0.20224905135E+02  0.43178922156E+01 -0.13300237608E+03  0.13460060559E+03  0.00000000000E+00 0. -1.
<mgrwt>
<rscale>  2 0.20680691E+02</rscale>
<asrwt>0</asrwt>
<pdfrwt beam="1">  1       21 0.10347907E-02 0.20680691E+02</pdfrwt>
<pdfrwt beam="2">  1       21 0.23360206E-01 0.20680691E+02</pdfrwt>
<totfact> 0.43372082E+07</totfact>
</mgrwt>
</event>
<event>
 4    1  0.2812958E+004  0.2120977E+02  0.7546771E-02  0.1722288E+00
         21   -1    0    0  501  502  0.00000000000E+00  0.00000000000E+00  0.14778051938E+03  0.14778051938E+03  0.00000000000E+00 0. -1.
         21   -1    0    0  502  503 -0.00000000000E+00 -0.00000000000E+00 -0.53314379120E+01  0.53314379120E+01  0.00000000000E+00 0.  1.
          2    1    1    2  501    0  0.59295818695E+01  0.20364051808E+02  0.12136920791E+03  0.12320851909E+03  0.00000000000E+00 0. -1.
         -2    1    1    2    0  503 -0.59295818695E+01 -0.20364051808E+02  0.21079873557E+02  0.29903438202E+02  0.00000000000E+00 0.  1.
<mgrwt>
<rscale>  2 0.21209775E+02</rscale>
<asrwt>0</asrwt>
<pdfrwt beam="1">  1       21 0.22735461E-01 0.21209775E+02</pdfrwt>
<pdfrwt beam="2">  1       21 0.82022133E-03 0.21209775E+02</pdfrwt>
<totfact> 0.64788815E+07</totfact>
</mgrwt>
</event>
<event>
 4    1  0.2812958E+004  0.2271073E+02  0.7546771E-02  0.1696242E+00
         21   -1    0    0  501  502  0.00000000000E+00  0.00000000000E+00  0.11931948034E+02  0.11931948034E+02  0.00000000000E+00 0. -1.
         21   -1    0    0  502  503 -0.00000000000E+00 -0.00000000000E+00 -0.83754782633E+02  0.83754782633E+02  0.00000000000E+00 0.  1.
          2    1    1    2  501    0  0.41622464691E+01 -0.22326064035E+02 -0.26304815593E+01  0.22862564690E+02  0.00000000000E+00 0. -1.
         -2    1    1    2    0  503 -0.41622464691E+01  0.22326064035E+02 -0.69192353040E+02  0.72824165976E+02  0.00000000000E+00 0.  1.
<mgrwt>
<rscale>  2 0.22710734E+02</rscale>
<asrwt>0</asrwt>
<pdfrwt beam="1">  1       21 0.18356842E-02 0.22710734E+02</pdfrwt>
<pdfrwt beam="2">  1       21 0.12885352E-01 0.22710734E+02</pdfrwt>
<totfact> 0.51918283E+07</totfact>
</mgrwt>
</event>
<event>
 4    1  0.2812958E+004  0.2127384E+02  0.7546771E-02  0.1721122E+00
         21   -1    0    0  501  502  0.00000000000E+00  0.00000000000E+00  0.63603217342E+02  0.63603217342E+02  0.00000000000E+00 0.  1.
         21   -1    0    0  502  503 -0.00000000000E+00 -0.00000000000E+00 -0.39408978725E+02  0.39408978725E+02  0.00000000000E+00 0. -1.
          2    1    1    2  501    0 -0.12458395034E+02 -0.17244259215E+02  0.58721995764E+02  0.62456776007E+02  0.00000000000E+00 0.  1.
         -2    1    1    2    0  503  0.12458395034E+02  0.17244259215E+02 -0.34527757147E+02  0.40555420060E+02  0.00000000000E+00 0. -1.
<mgrwt>
<rscale>  2 0.21273836E+02</rscale>
<asrwt>0</asrwt>
<pdfrwt beam="1">  1       21 0.97851104E-02 0.21273836E+02</pdfrwt>
<pdfrwt beam="2">  1       21 0.60629198E-02 0.21273836E+02</pdfrwt>
<totfact> 0.12495202E+07</totfact>
</mgrwt>
</event>
<event>
 4    1  0.2812958E+004  0.2425149E+02  0.7546771E-02  0.1671992E+00
         21   -1    0    0  501  502  0.00000000000E+00  0.00000000000E+00  0.67706593651E+03  0.67706593651E+03  0.00000000000E+00 0.  1.
         21   -1    0    0  502  503 -0.00000000000E+00 -0.00000000000E+00 -0.91763268293E+00  0.91763268293E+00  0.00000000000E+00 0. -1.
          2    1    1    2  501    0  0.60605256706E+01 -0.23482007012E+02  0.41639322087E+03  0.41709884801E+03  0.00000000000E+00 0. -1.
         -2    1    1    2    0  503 -0.60605256706E+01  0.23482007012E+02  0.25975508296E+03  0.26088472118E+03  0.00000000000E+00 0.  1.
<mgrwt>
<rscale>  2 0.24251487E+02</rscale>
<asrwt>0</asrwt>
<pdfrwt beam="1">  1       21 0.10416359E+00 0.24251487E+02</pdfrwt>
<pdfrwt beam="2">  1       21 0.14117480E-03 0.24251487E+02</pdfrwt>
<totfact> 0.44901421E+07</totfact>
</mgrwt>
</event>
<event>
 4    1  0.2812958E+004  0.2258190E+02  0.7546771E-02  0.1698378E+00
         21   -1    0    0  501  502  0.00000000000E+00  0.00000000000E+00  0.81140580379E+01  0.81140580379E+01  0.00000000000E+00 0. -1.
         21   -1    0    0  502  503 -0.00000000000E+00 -0.00000000000E+00 -0.86118383301E+02  0.86118383301E+02  0.00000000000E+00 0.  1.
          2    1    1    2  501    0  0.59468554723E+01 -0.21784786269E+02 -0.14509491800E+02  0.26841522965E+02  0.00000000000E+00 0. -1.
         -2    1    1    2    0  503 -0.59468554723E+01  0.21784786269E+02 -0.63494833464E+02  0.67390918374E+02  0.00000000000E+00 0.  1.
<mgrwt>
<rscale>  2 0.22581895E+02</rscale>
<asrwt>0</asrwt>
<pdfrwt beam="1">  1       21 0.12483166E-02 0.22581895E+02</pdfrwt>
<pdfrwt beam="2">  1       21 0.13248982E-01 0.22581895E+02</pdfrwt>
<totfact> 0.88882349E+07</totfact>
</mgrwt>
</event>
<event>
 4    1  0.2812958E+004  0.2371151E+02  0.7546771E-02  0.1680230E+00
         21   -1    0    0  503  502  0.00000000000E+00  0.00000000000E+00  0.80894018307E+02  0.80894018307E+02  0.00000000000E+00 0.  1.
         21   -1    0    0  501  503 -0.00000000000E+00 -0.00000000000E+00 -0.70821281883E+01  0.70821281883E+01  0.00000000000E+00 0. -1.
          2    1    1    2  501    0 -0.89765740620E+00 -0.23694508590E+02  0.42908019227E+02  0.49023806871E+02  0.00000000000E+00 0.  1.
         -2    1    1    2    0  502  0.89765740620E+00  0.23694508590E+02  0.30903870891E+02  0.38952339624E+02  0.00000000000E+00 0. -1.
<mgrwt>
<rscale>  2 0.23711506E+02</rscale>
<asrwt>0</asrwt>
<pdfrwt beam="1">  1       21 0.12445233E-01 0.23711506E+02</pdfrwt>
<pdfrwt beam="2">  1       21 0.10895582E-02 0.23711506E+02</pdfrwt>
<totfact> 0.12294404E+08</totfact>
</mgrwt>
</event>
<event>
 4    1  0.2812958E+004  0.2056986E+02  0.7546771E-02  0.1734228E+00
         21   -1    0    0  503  502  0.00000000000E+00  0.00000000000E+00  0.30955553756E+02  0.30955553756E+02  0.00000000000E+00 0. -1.
         21   -1    0    0  501  503 -0.00000000000E+00 -0.00000000000E+00 -0.20524566385E+02  0.20524566385E+02  0.00000000000E+00 0.  1.
          2    1    1    2  501    0  0.16295582389E+02  0.12552810509E+02 -0.96612173059E+01  0.22725716202E+02  0.00000000000E+00 0.  1.
         -2    1    1    2    0  502 -0.16295582389E+02 -0.12552810509E+02  0.20092204678E+02  0.28754403939E+02  0.00000000000E+00 0. -1.
<mgrwt>
<rscale>  2 0.20569858E+02</rscale>
<asrwt>0</asrwt>
<pdfrwt beam="1">  1       21 0.47623929E-02 0.20569858E+02</pdfrwt>
<pdfrwt beam="2">  1       21 0.31576256E-02 0.20569858E+02</pdfrwt>
<totfact> 0.11061986E+08</totfact>
</mgrwt>
</event>
<event>
 4    1  0.2812958E+004  0.2277251E+02  0.7546771E-02  0.1695224E+00
         21   -1    0    0  501  502  0.00000000000E+00  0.00000000000E+00  0.16289844166E+01  0.16289844166E+01  0.00000000000E+00 0. -1.
         21   -1    0    0  502  503 -0.00000000000E+00 -0.00000000000E+00 -0.32004733639E+03  0.32004733639E+03  0.00000000000E+00 0.  1.
          2    1    1    2  501    0 -0.22615204672E+02 -0.26720461197E+01 -0.14749649735E+03  0.14924410891E+03  0.00000000000E+00 0.  1.
         -2    1    1    2    0  503  0.22615204672E+02  0.26720461197E+01 -0.17092185462E+03  0.17243221190E+03  0.00000000000E+00 0. -1.
<mgrwt>
<rscale>  2 0.22772512E+02</rscale>
<asrwt>0</asrwt>
<pdfrwt beam="1">  1       21 0.25061293E-03 0.22772512E+02</pdfrwt>
<pdfrwt beam="2">  1       21 0.49238064E-01 0.22772512E+02</pdfrwt>
<totfact> 0.90791573E+07</totfact>
</mgrwt>
</event>
<event>
 4    1  0.2812958E+004  0.2072942E+02  0.7546771E-02  0.1731200E+00
         21   -1    0    0  503  502  0.00000000000E+00  0.00000000000E+00  0.12711158801E+02  0.12711158801E+02  0.00000000000E+00 0. -1.
         21   -1    0    0  501  503 -0.00000000000E+00 -0.00000000000E+00 -0.33870798320E+02  0.33870798320E+02  0.00000000000E+00 0.  1.
          2    1    1    2  501    0  0.19161420885E+02  0.79087822283E+01 -0.11601353097E+02  0.23755005375E+02  0.00000000000E+00 0.  1.
         -2    1    1    2    0  502 -0.19161420885E+02 -0.79087822283E+01 -0.95582864223E+01  0.22826951746E+02  0.00000000000E+00 0. -1.
<mgrwt>
<rscale>  2 0.20729421E+02</rscale>
<asrwt>0</asrwt>
<pdfrwt beam="1">  1       21 0.19555629E-02 0.20729421E+02</pdfrwt>
<pdfrwt beam="2">  1       21 0.52108919E-02 0.20729421E+02</pdfrwt>
<totfact> 0.20108477E+08</totfact>
</mgrwt>
</event>
<event>
 4    1  0.2812958E+004  0.2232866E+02  0.7546771E-02  0.1702629E+00
         21   -1    0    0  503  502  0.00000000000E+00  0.00000000000E+00  0.95857378780E+02  0.95857378780E+02  0.00000000000E+00 0.  1.
         21   -1    0    0  501  503 -0.00000000000E+00 -0.00000000000E+00 -0.62801861872E+01  0.62801861872E+01  0.00000000000E+00 0. -1.
          2    1    1    2  501    0  0.10042702186E+02  0.19942749236E+02  0.23620286566E+02  0.32503646746E+02  0.00000000000E+00 0.  1.
         -2    1    1    2    0  502 -0.10042702186E+02 -0.19942749236E+02  0.65956906026E+02  0.69633918221E+02  0.00000000000E+00 0. -1.
<mgrwt>
<rscale>  2 0.22328661E+02</rscale>
<asrwt>0</asrwt>
<pdfrwt beam="1">  1       21 0.14747288E-01 0.22328661E+02</pdfrwt>
<pdfrwt beam="2">  1       21 0.96618256E-03 0.22328661E+02</pdfrwt>
<totfact> 0.10867698E+08</totfact>
</mgrwt>
</event>
<event>
 4    1  0.2812958E+004  0.2002068E+02  0.7546771E-02  0.1744917E+00
         21   -1    0    0  503  502  0.00000000000E+00  0.00000000000E+00  0.21021887863E+03  0.21021887863E+03  0.00000000000E+00 0. -1.
         21   -1    0    0  501  503 -0.00000000000E+00 -0.00000000000E+00 -0.19796247691E+01  0.19796247691E+01  0.00000000000E+00 0.  1.
          2    1    1    2  501    0  0.16996048425E+02 -0.10581203058E+02  0.83757961243E+02  0.86117498755E+02  0.00000000000E+00 0.  1.
         -2    1    1    2    0  502 -0.16996048425E+02  0.10581203058E+02  0.12448129262E+03  0.12608100464E+03  0.00000000000E+00 0. -1.
<mgrwt>
<rscale>  2 0.20020677E+02</rscale>
<asrwt>0</asrwt>
<pdfrwt beam="1">  1       21 0.32341348E-01 0.20020677E+02</pdfrwt>
<pdfrwt beam="2">  1       21 0.30455782E-03 0.20020677E+02</pdfrwt>
<totfact> 0.14544131E+08</totfact>
</mgrwt>
</event>
<event>
 4    1  0.2812958E+004  0.2595441E+02  0.7546771E-02  0.1647660E+00
         21   -1    0    0  503  502  0.00000000000E+00  0.00000000000E+00  0.11547054558E+03  0.11547054558E+03  0.00000000000E+00 0.  1.
         21   -1    0    0  501  503 -0.00000000000E+00 -0.00000000000E+00 -0.58404530330E+01  0.58404530330E+01  0.00000000000E+00 0. -1.
          2    1    1    2  501    0 -0.18796937698E+02  0.17897105708E+02  0.56863307644E+02  0.62506535784E+02  0.00000000000E+00 0. -1.
         -2    1    1    2    0  502  0.18796937698E+02 -0.17897105708E+02  0.52766784903E+02  0.58804462829E+02  0.00000000000E+00 0.  1.
<mgrwt>
<rscale>  2 0.25954407E+02</rscale>
<asrwt>0</asrwt>
<pdfrwt beam="1">  1       21 0.17764698E-01 0.25954407E+02</pdfrwt>
<pdfrwt beam="2">  1       21 0.89853132E-03 0.25954407E+02</pdfrwt>
<totfact> 0.91701580E+07</totfact>
</mgrwt>
</event>
<event>
 4    1  0.2812958E+004  0.2101510E+02  0.7546771E-02  0.1725864E+00
         21   -1    0    0  501  502  0.00000000000E+00  0.00000000000E+00  0.26095556077E+02  0.26095556077E+02  0.00000000000E+00 0. -1.
         21   -1    0    0  502  503 -0.00000000000E+00 -0.00000000000E+00 -0.38017266789E+02  0.38017266789E+02  0.00000000000E+00 0.  1.
          2    1    1    2  501    0 -0.19826219060E+02  0.69681748893E+01  0.17917205286E+02  0.27616311643E+02  0.00000000000E+00 0. -1.
         -2    1    1    2    0  503  0.19826219060E+02 -0.69681748893E+01 -0.29838915998E+02  0.36496511223E+02  0.00000000000E+00 0.  1.
<mgrwt>
<rscale>  2 0.21015100E+02</rscale>
<asrwt>0</asrwt>
<pdfrwt beam="1">  1       21 0.40147009E-02 0.21015100E+02</pdfrwt>
<pdfrwt beam="2">  1       21 0.58488103E-02 0.21015100E+02</pdfrwt>
<totfact> 0.55173815E+07</totfact>
</mgrwt>
</event>
<event>
 4    1  0.2812958E+004  0.2116935E+02  0.7546771E-02  0.1723027E+00
         21   -1    0    0  501  502  0.00000000000E+00  0.00000000000E+00  0.73392506315E+03  0.73392506315E+03  0.00000000000E+00 0.  1.
         21   -1    0    0  502  503 -0.00000000000E+00 -0.00000000000E+00 -0.61060954729E+00  0.61060954729E+00  0.00000000000E+00 0. -1.
          2    1    1    2  501    0 -0.16156557375E+02  0.13678705889E+02  0.36696246545E+03  0.36757256752E+03  0.00000000000E+00 0. -1.
         -2    1    1    2    0  503  0.16156557375E+02 -0.13678705889E+02  0.36635198815E+03  0.36696310518E+03  0.00000000000E+00 0.  1.
<mgrwt>
<rscale>  2 0.21169349E+02</rscale>
<asrwt>0</asrwt>
<pdfrwt beam="1">  1       21 0.11291084E+00 0.21169349E+02</pdfrwt>
<pdfrwt beam="2">  1       21 0.93940518E-04 0.21169349E+02</pdfrwt>
<totfact> 0.65154595E+07</totfact>
</mgrwt>
</event>
<event>
 4    1  0.2812958E+004  0.2078964E+02  0.7546771E-02  0.1730066E+00
         21   -1    0    0  503  502  0.00000000000E+00  0.00000000000E+00  0.66668262322E+01  0.66668262322E+01  0.00000000000E+00 0.  1.
         21   -1    0    0  501  503 -0.00000000000E+00 -0.00000000000E+00 -0.78621613299E+02  0.78621613299E+02  0.00000000000E+00 0. -1.
          2    1    1    2  501    0 -0.53828358878E+01  0.20080694059E+02 -0.53838133409E+02  0.57712683225E+02  0.00000000000E+00 0. -1.
         -2    1    1    2    0  502  0.53828358878E+01 -0.20080694059E+02 -0.18116653658E+02  0.27575756306E+02  0.00000000000E+00 0.  1.
<mgrwt>
<rscale>  2 0.20789642E+02</rscale>
<asrwt>0</asrwt>
<pdfrwt beam="1">  1       21 0.10256655E-02 0.20789642E+02</pdfrwt>
<pdfrwt beam="2">  1       21 0.12095634E-01 0.20789642E+02</pdfrwt>
<totfact> 0.13584527E+08</totfact>
</mgrwt>
</event>
<event>
 4    1  0.2812958E+004  0.2083877E+02  0.7546771E-02  0.1729145E+00
         21   -1    0    0  503  502  0.00000000000E+00  0.00000000000E+00  0.25055338734E+02  0.25055338734E+02  0.00000000000E+00 0. -1.
         21   -1    0    0  501  503 -0.00000000000E+00 -0.00000000000E+00 -0.22021416850E+02  0.22021416850E+02  0.00000000000E+00 0.  1.
          2    1    1    2  501    0  0.13003511384E+02 -0.16283827211E+02 -0.93453487228E+01  0.22838342316E+02  0.00000000000E+00 0.  1.
         -2    1    1    2    0  502 -0.13003511384E+02  0.16283827211E+02  0.12379270607E+02  0.24238413268E+02  0.00000000000E+00 0. -1.
<mgrwt>
<rscale>  2 0.20838770E+02</rscale>
<asrwt>0</asrwt>
<pdfrwt beam="1">  1       21 0.38546675E-02 0.20838770E+02</pdfrwt>
<pdfrwt beam="2">  1       21 0.33879103E-02 0.20838770E+02</pdfrwt>
<totfact> 0.13884326E+08</totfact>
</mgrwt>
</event>
<event>
 4    1  0.2812958E+004  0.2117152E+02  0.7546771E-02  0.1722987E+00
         21   -1    0    0  503  502  0.00000000000E+00  0.00000000000E+00  0.45162048693E+03  0.45162048693E+03  0.00000000000E+00 0.  1.
         21   -1    0    0  501  503 -0.00000000000E+00 -0.00000000000E+00 -0.13285359064E+01  0.13285359064E+01  0.00000000000E+00 0. -1.
          2    1    1    2  501    0 -0.12150556992E+02 -0.17337735890E+02  0.11124542332E+03  0.11324211818E+03  0.00000000000E+00 0. -1.
         -2    1    1    2    0  502  0.12150556992E+02  0.17337735890E+02  0.33904652771E+03  0.33970690466E+03  0.00000000000E+00 0.  1.
<mgrwt>
<rscale>  2 0.21171517E+02</rscale>
<asrwt>0</asrwt>
<pdfrwt beam="1">  1       21 0.69479953E-01 0.21171517E+02</pdfrwt>
<pdfrwt beam="2">  1       21 0.20439050E-03 0.21171517E+02</pdfrwt>
<totfact> 0.60374512E+07</totfact>
</mgrwt>
</event>
<event>
 4    1  0.2812958E+004  0.2235521E+02  0.7546771E-02  0.1702180E+00
         21   -1    0    0  503  502  0.00000000000E+00  0.00000000000E+00  0.67945847126E+01  0.67945847126E+01  0.00000000000E+00 0.  1.
         21   -1    0    0  501  503 -0.00000000000E+00 -0.00000000000E+00 -0.18178792019E+03  0.18178792019E+03  0.00000000000E+00 0. -1.
          2    1    1    2  501    0  0.86254629267E+01  0.20624180281E+02 -0.16025363080E+03  0.16180538189E+03  0.00000000000E+00 0. -1.
         -2    1    1    2    0  502 -0.86254629267E+01 -0.20624180281E+02 -0.14739704676E+02  0.26777123014E+02  0.00000000000E+00 0.  1.
<mgrwt>
<rscale>  2 0.22355210E+02</rscale>
<asrwt>0</asrwt>
<pdfrwt beam="1">  1       21 0.10453207E-02 0.22355210E+02</pdfrwt>
<pdfrwt beam="2">  1       21 0.27967372E-01 0.22355210E+02</pdfrwt>
<totfact> 0.31585835E+07</totfact>
</mgrwt>
</event>
<event>
 4    1  0.2812958E+004  0.3178537E+02  0.7546771E-02  0.1579153E+00
         21   -1    0    0  501  502  0.00000000000E+00  0.00000000000E+00  0.23712590705E+03  0.23712590705E+03  0.00000000000E+00 0.  1.
         21   -1    0    0  502  503 -0.00000000000E+00 -0.00000000000E+00 -0.90503160267E+01  0.90503160267E+01  0.00000000000E+00 0. -1.
          2    1    1    2  501    0 -0.19405739704E+02 -0.25173936750E+02  0.20358189652E+03  0.20604829147E+03  0.00000000000E+00 0.  1.
         -2    1    1    2    0  503  0.19405739704E+02  0.25173936750E+02  0.24493694501E+02  0.40127931610E+02  0.00000000000E+00 0. -1.
<mgrwt>
<rscale>  2 0.31785371E+02</rscale>
<asrwt>0</asrwt>
<pdfrwt beam="1">  1       21 0.36480904E-01 0.31785371E+02</pdfrwt>
<pdfrwt beam="2">  1       21 0.13923565E-02 0.31785371E+02</pdfrwt>
<totfact> 0.13409196E+07</totfact>
</mgrwt>
</event>
<event>
 4    1  0.2812958E+004  0.2494467E+02  0.7546771E-02  0.1661798E+00
         21   -1    0    0  503  502  0.00000000000E+00  0.00000000000E+00  0.29336608876E+02  0.29336608876E+02  0.00000000000E+00 0.  1.
         21   -1    0    0  501  503 -0.00000000000E+00 -0.00000000000E+00 -0.83894292639E+02  0.83894292639E+02  0.00000000000E+00 0. -1.
          2    1    1    2  501    0  0.35345132420E+01  0.24692988839E+02 -0.76216963777E+02  0.80195149785E+02  0.00000000000E+00 0. -1.
         -2    1    1    2    0  502 -0.35345132420E+01 -0.24692988839E+02  0.21659280013E+02  0.33035751730E+02  0.00000000000E+00 0.  1.
<mgrwt>
<rscale>  2 0.24944668E+02</rscale>
<asrwt>0</asrwt>
<pdfrwt beam="1">  1       21 0.45133245E-02 0.24944668E+02</pdfrwt>
<pdfrwt beam="2">  1       21 0.12906814E-01 0.24944668E+02</pdfrwt>
<totfact> 0.13026165E+07</totfact>
</mgrwt>
</event>
<event>
 4    1  0.2812958E+004  0.2349030E+02  0.7546771E-02  0.1683684E+00
         21   -1    0    0  501  502  0.00000000000E+00  0.00000000000E+00  0.42698430689E+01  0.42698430689E+01  0.00000000000E+00 0. -1.
         21   -1    0    0  502  503 -0.00000000000E+00 -0.00000000000E+00 -0.17681095462E+03  0.17681095462E+03  0.00000000000E+00 0.  1.
          2    1    1    2  501    0  0.22463823361E+02 -0.68680984553E+01 -0.39302571897E+02  0.45787403225E+02  0.00000000000E+00 0. -1.
         -2    1    1    2    0  503 -0.22463823361E+02  0.68680984553E+01 -0.13323853966E+03  0.13529339447E+03  0.00000000000E+00 0.  1.
<mgrwt>
<rscale>  2 0.23490299E+02</rscale>
<asrwt>0</asrwt>
<pdfrwt beam="1">  1       21 0.65689894E-03 0.23490299E+02</pdfrwt>
<pdfrwt beam="2">  1       21 0.27201685E-01 0.23490299E+02</pdfrwt>
<totfact> 0.67283310E+07</totfact>
</mgrwt>
</event>
<event>
 4    1  0.2812958E+004  0.2294962E+02  0.7546771E-02  0.1692328E+00
         21   -1    0    0  503  502  0.00000000000E+00  0.00000000000E+00  0.74875930637E+02  0.74875930637E+02  0.00000000000E+00 0.  1.
         21   -1    0    0  501  503 -0.00000000000E+00 -0.00000000000E+00 -0.72659423548E+01  0.72659423548E+01  0.00000000000E+00 0. -1.
          2    1    1    2  501    0 -0.80498576805E+01  0.21491508337E+02  0.26468635174E+02  0.35032467616E+02  0.00000000000E+00 0.  1.
         -2    1    1    2    0  502  0.80498576805E+01 -0.21491508337E+02  0.41141353108E+02  0.47109405375E+02  0.00000000000E+00 0. -1.
<mgrwt>
<rscale>  2 0.22949622E+02</rscale>
<asrwt>0</asrwt>
<pdfrwt beam="1">  1       21 0.11519373E-01 0.22949622E+02</pdfrwt>
<pdfrwt beam="2">  1       21 0.11178373E-02 0.22949622E+02</pdfrwt>
<totfact> 0.13336741E+08</totfact>
</mgrwt>
</event>
<event>
 4    1  0.2812958E+004  0.2241084E+02  0.7546771E-02  0.1701242E+00
         21   -1    0    0  503  502  0.00000000000E+00  0.00000000000E+00  0.27552154248E+02  0.27552154248E+02  0.00000000000E+00 0. -1.
         21   -1    0    0  501  503 -0.00000000000E+00 -0.00000000000E+00 -0.22910508918E+02  0.22910508918E+02  0.00000000000E+00 0.  1.
          2    1    1    2  501    0  0.22130881769E+02 -0.35312936859E+01 -0.90848139202E+01  0.24182220885E+02  0.00000000000E+00 0.  1.
         -2    1    1    2    0  502 -0.22130881769E+02  0.35312936859E+01  0.13726459250E+02  0.26280442281E+02  0.00000000000E+00 0. -1.
<mgrwt>
<rscale>  2 0.22410845E+02</rscale>
<asrwt>0</asrwt>
<pdfrwt beam="1">  1       21 0.42387929E-02 0.22410845E+02</pdfrwt>
<pdfrwt beam="2">  1       21 0.35246937E-02 0.22410845E+02</pdfrwt>
<totfact> 0.11490019E+08</totfact>
</mgrwt>
</event>
<event>
 4    1  0.2812958E+004  0.2040390E+02  0.7546771E-02  0.1737413E+00
         21   -1    0    0  503  502  0.00000000000E+00  0.00000000000E+00  0.40027697355E+03  0.40027697355E+03  0.00000000000E+00 0.  1.
         21   -1    0    0  501  503 -0.00000000000E+00 -0.00000000000E+00 -0.10758375339E+01  0.10758375339E+01  0.00000000000E+00 0. -1.
          2    1    1    2  501    0 -0.64978122282E+01  0.19341605286E+02  0.16301421471E+03  0.16428619375E+03  0.00000000000E+00 0. -1.
         -2    1    1    2    0  502  0.64978122282E+01 -0.19341605286E+02  0.23618692130E+03  0.23706661733E+03  0.00000000000E+00 0.  1.
<mgrwt>
<rscale>  2 0.20403903E+02</rscale>
<asrwt>0</asrwt>
<pdfrwt beam="1">  1       21 0.61580954E-01 0.20403903E+02</pdfrwt>
<pdfrwt beam="2">  1       21 0.16551379E-03 0.20403903E+02</pdfrwt>
<totfact> 0.10330717E+08</totfact>
</mgrwt>
</event>
<event>
 4    1  0.2812958E+004  0.3008153E+02  0.7546771E-02  0.1597189E+00
         21   -1    0    0  501  502  0.00000000000E+00  0.00000000000E+00  0.51790265646E+01  0.51790265646E+01  0.00000000000E+00 0.  1.
         21   -1    0    0  502  503 -0.00000000000E+00 -0.00000000000E+00 -0.49716924550E+03  0.49716924550E+03  0.00000000000E+00 0. -1.
          2    1    1    2  501    0 -0.29420818229E+02 -0.62700658415E+01 -0.43715999644E+02  0.53065873175E+02  0.00000000000E+00 0.  1.
         -2    1    1    2    0  503  0.29420818229E+02  0.62700658415E+01 -0.44827421930E+03  0.44928239889E+03  0.00000000000E+00 0. -1.
<mgrwt>
<rscale>  2 0.30081527E+02</rscale>
<asrwt>0</asrwt>
<pdfrwt beam="1">  1       21 0.79677356E-03 0.30081527E+02</pdfrwt>
<pdfrwt beam="2">  1       21 0.76487552E-01 0.30081527E+02</pdfrwt>
<totfact> 0.71286878E+06</totfact>
</mgrwt>
</event>
<event>
 4    1  0.2812958E+004  0.3047844E+02  0.7546771E-02  0.1592860E+00
         21   -1    0    0  501  502  0.00000000000E+00  0.00000000000E+00  0.18259705965E+02  0.18259705965E+02  0.00000000000E+00 0.  1.
         21   -1    0    0  502  503 -0.00000000000E+00 -0.00000000000E+00 -0.78242449500E+02  0.78242449500E+02  0.00000000000E+00 0. -1.
          2    1    1    2  501    0  0.36838853765E+01 -0.30254990827E+02 -0.14539509302E+01  0.30513103000E+02  0.00000000000E+00 0.  1.
         -2    1    1    2    0  503 -0.36838853765E+01  0.30254990827E+02 -0.58528792605E+02  0.65989052465E+02  0.00000000000E+00 0. -1.
<mgrwt>
<rscale>  2 0.30478443E+02</rscale>
<asrwt>0</asrwt>
<pdfrwt beam="1">  1       21 0.28091856E-02 0.30478443E+02</pdfrwt>
<pdfrwt beam="2">  1       21 0.12037300E-01 0.30478443E+02</pdfrwt>
<totfact> 0.32239080E+07</totfact>
</mgrwt>
</event>
<event>
 4    1  0.2812958E+004  0.2188341E+02  0.7546771E-02  0.1710276E+00
         21   -1    0    0  503  502  0.00000000000E+00  0.00000000000E+00  0.52484011978E+01  0.52484011978E+01  0.00000000000E+00 0. -1.
         21   -1    0    0  501  503 -0.00000000000E+00 -0.00000000000E+00 -0.97939802914E+02  0.97939802914E+02  0.00000000000E+00 0.  1.
          2    1    1    2  501    0 -0.14430735771E+02  0.16451068659E+02 -0.59836260223E+02  0.63712336579E+02  0.00000000000E+00 0.  1.
         -2    1    1    2    0  502  0.14430735771E+02 -0.16451068659E+02 -0.32855141493E+02  0.39475867532E+02  0.00000000000E+00 0. -1.
<mgrwt>
<rscale>  2 0.21883414E+02</rscale>
<asrwt>0</asrwt>
<pdfrwt beam="1">  1       21 0.80744636E-03 0.21883414E+02</pdfrwt>
<pdfrwt beam="2">  1       21 0.15067662E-01 0.21883414E+02</pdfrwt>
<totfact> 0.13622090E+08</totfact>
</mgrwt>
</event>
<event>
 4    1  0.2812958E+004  0.2554997E+02  0.7546771E-02  0.1653226E+00
         21   -1    0    0  503  502  0.00000000000E+00  0.00000000000E+00  0.27041622745E+02  0.27041622745E+02  0.00000000000E+00 0. -1.
         21   -1    0    0  501  503 -0.00000000000E+00 -0.00000000000E+00 -0.45438665942E+02  0.45438665942E+02  0.00000000000E+00 0.  1.
          2    1    1    2  501    0  0.24141331778E+02 -0.83664206783E+01 -0.34009692215E+02  0.42537748642E+02  0.00000000000E+00 0.  1.
         -2    1    1    2    0  502 -0.24141331778E+02  0.83664206783E+01  0.15612649019E+02  0.29942540045E+02  0.00000000000E+00 0. -1.
<mgrwt>
<rscale>  2 0.25549969E+02</rscale>
<asrwt>0</asrwt>
<pdfrwt beam="1">  1       21 0.41602496E-02 0.25549969E+02</pdfrwt>
<pdfrwt beam="2">  1       21 0.69905640E-02 0.25549969E+02</pdfrwt>
<totfact> 0.41124804E+07</totfact>
</mgrwt>
</event>
<event>
 4    1  0.2812958E+004  0.2336076E+02  0.7546771E-02  0.1685728E+00
         21   -1    0    0  503  502  0.00000000000E+00  0.00000000000E+00  0.40483307920E+02  0.40483307920E+02  0.00000000000E+00 0. -1.
         21   -1    0    0  501  503 -0.00000000000E+00 -0.00000000000E+00 -0.54425337647E+02  0.54425337647E+02  0.00000000000E+00 0.  1.
          2    1    1    2  501    0  0.31741677365E+01  0.23144110059E+02 -0.48131085247E+02  0.53500715306E+02  0.00000000000E+00 0.  1.
         -2    1    1    2    0  502 -0.31741677365E+01 -0.23144110059E+02  0.34189055519E+02  0.41407930261E+02  0.00000000000E+00 0. -1.
<mgrwt>
<rscale>  2 0.23360761E+02</rscale>
<asrwt>0</asrwt>
<pdfrwt beam="1">  1       21 0.62282012E-02 0.23360761E+02</pdfrwt>
<pdfrwt beam="2">  1       21 0.83731288E-02 0.23360761E+02</pdfrwt>
<totfact> 0.15763449E+07</totfact>
</mgrwt>
</event>
<event>
 4    1  0.2812958E+004  0.2735395E+02  0.7546771E-02  0.1629325E+00
         21   -1    0    0  503  502  0.00000000000E+00  0.00000000000E+00  0.53590108897E+02  0.53590108897E+02  0.00000000000E+00 0.  1.
         21   -1    0    0  501  503 -0.00000000000E+00 -0.00000000000E+00 -0.20140023264E+02  0.20140023264E+02  0.00000000000E+00 0. -1.
          2    1    1    2  501    0  0.10638109432E+02 -0.25200584320E+02 -0.36923743532E+01  0.27602037076E+02  0.00000000000E+00 0. -1.
         -2    1    1    2    0  502 -0.10638109432E+02  0.25200584320E+02  0.37142459986E+02  0.46128095085E+02  0.00000000000E+00 0.  1.
<mgrwt>
<rscale>  2 0.27353954E+02</rscale>
<asrwt>0</asrwt>
<pdfrwt beam="1">  1       21 0.82446321E-02 0.27353954E+02</pdfrwt>
<pdfrwt beam="2">  1       21 0.30984651E-02 0.27353954E+02</pdfrwt>
<totfact> 0.50769504E+07</totfact>
</mgrwt>
</event>
<event>
 4    1  0.2812958E+004  0.2182613E+02  0.7546771E-02  0.1711276E+00
         21   -1    0    0  501  502  0.00000000000E+00  0.00000000000E+00  0.16227935081E+03  0.16227935081E+03  0.00000000000E+00 0.  1.
         21   -1    0    0  502  503 -0.00000000000E+00 -0.00000000000E+00 -0.88594571311E+01  0.88594571311E+01  0.00000000000E+00 0. -1.
          2    1    1    2  501    0  0.80134139605E+01 -0.20301852717E+02  0.14668107459E+03  0.14829604738E+03  0.00000000000E+00 0.  1.
         -2    1    1    2    0  503 -0.80134139605E+01  0.20301852717E+02  0.67388190862E+01  0.22842760554E+02  0.00000000000E+00 0. -1.
<mgrwt>
<rscale>  2 0.21826132E+02</rscale>
<asrwt>0</asrwt>
<pdfrwt beam="1">  1       21 0.24966052E-01 0.21826132E+02</pdfrwt>
<pdfrwt beam="2">  1       21 0.13629935E-02 0.21826132E+02</pdfrwt>
<totfact> 0.25801091E+07</totfact>
</mgrwt>
</event>
<event>
 4    1  0.2812958E+004  0.2003533E+02  0.7546771E-02  0.1744626E+00
         21   -1    0    0  501  502  0.00000000000E+00  0.00000000000E+00  0.27472503081E+00  0.27472503081E+00  0.00000000000E+00 0. -1.
         21   -1    0    0  502  503 -0.00000000000E+00 -0.00000000000E+00 -0.14611516194E+04  0.14611516194E+04  0.00000000000E+00 0.  1.
          2    1    1    2  501    0 -0.14512045198E+02 -0.13813583384E+02 -0.73115121900E+03  0.73142567605E+03  0.00000000000E+00 0.  1.
         -2    1    1    2    0  503  0.14512045198E+02  0.13813583384E+02 -0.72972567539E+03  0.73000066840E+03  0.00000000000E+00 0. -1.
<mgrwt>
<rscale>  2 0.20035332E+02</rscale>
<asrwt>0</asrwt>
<pdfrwt beam="1">  1       21 0.42265329E-04 0.20035332E+02</pdfrwt>
<pdfrwt beam="2">  1       21 0.22479288E+00 0.20035332E+02</pdfrwt>
<totfact> 0.37815156E+07</totfact>
</mgrwt>
</event>
<event>
 4    1  0.2812958E+004  0.2212838E+02  0.7546771E-02  0.1706041E+00
         21   -1    0    0  503  502  0.00000000000E+00  0.00000000000E+00  0.33049830974E+01  0.33049830974E+01  0.00000000000E+00 0.  1.
         21   -1    0    0  501  503 -0.00000000000E+00 -0.00000000000E+00 -0.30150443303E+03  0.30150443303E+03  0.00000000000E+00 0. -1.
          2    1    1    2  501    0 -0.16297062172E+02 -0.14969003128E+02 -0.25778881939E+03  0.25873681742E+03  0.00000000000E+00 0. -1.
         -2    1    1    2    0  502  0.16297062172E+02  0.14969003128E+02 -0.40410630542E+02  0.46072598699E+02  0.00000000000E+00 0.  1.
<mgrwt>
<rscale>  2 0.22128382E+02</rscale>
<asrwt>0</asrwt>
<pdfrwt beam="1">  1       21 0.50845889E-03 0.22128382E+02</pdfrwt>
<pdfrwt beam="2">  1       21 0.46385302E-01 0.22128382E+02</pdfrwt>
<totfact> 0.35961531E+07</totfact>
</mgrwt>
</event>
<event>
 4    1  0.2812958E+004  0.2165402E+02  0.7546771E-02  0.1714305E+00
         21   -1    0    0  503  502  0.00000000000E+00  0.00000000000E+00  0.12333403733E+02  0.12333403733E+02  0.00000000000E+00 0. -1.
         21   -1    0    0  501  503 -0.00000000000E+00 -0.00000000000E+00 -0.48434301757E+03  0.48434301757E+03  0.00000000000E+00 0.  1.
          2    1    1    2  501    0  0.16558853191E+02 -0.13953534363E+02 -0.47439721931E+03  0.47489116482E+03  0.00000000000E+00 0.  1.
         -2    1    1    2    0  502 -0.16558853191E+02  0.13953534363E+02  0.23876054668E+01  0.21785256484E+02  0.00000000000E+00 0. -1.
<mgrwt>
<rscale>  2 0.21654024E+02</rscale>
<asrwt>0</asrwt>
<pdfrwt beam="1">  1       21 0.18974469E-02 0.21654024E+02</pdfrwt>
<pdfrwt beam="2">  1       21 0.74514302E-01 0.21654024E+02</pdfrwt>
<totfact> 0.19369625E+06</totfact>
</mgrwt>
</event>
<event>
 4    1  0.2812958E+004  0.4047564E+02  0.7546771E-02  0.1504740E+00
         21   -1    0    0  501  502  0.00000000000E+00  0.00000000000E+00  0.74123099057E+02  0.74123099057E+02  0.00000000000E+00 0. -1.
         21   -1    0    0  502  503 -0.00000000000E+00 -0.00000000000E+00 -0.26331343252E+02  0.26331343252E+02  0.00000000000E+00 0.  1.
          2    1    1    2  501    0 -0.37790454131E+02  0.14496857492E+02  0.44025386727E+02  0.59803946166E+02  0.00000000000E+00 0. -1.
         -2    1    1    2    0  503  0.37790454131E+02 -0.14496857492E+02  0.37663690782E+01  0.40650496143E+02  0.00000000000E+00 0.  1.
<mgrwt>
<rscale>  2 0.40475638E+02</rscale>
<asrwt>0</asrwt>
<pdfrwt beam="1">  1       21 0.11403554E-01 0.40475638E+02</pdfrwt>
<pdfrwt beam="2">  1       21 0.40509759E-02 0.40475638E+02</pdfrwt>
<totfact> 0.20795099E+07</totfact>
</mgrwt>
</event>
<event>
 4    1  0.2812958E+004  0.2090565E+02  0.7546771E-02  0.1727896E+00
         21   -1    0    0  501  502  0.00000000000E+00  0.00000000000E+00  0.26717270981E+02  0.26717270981E+02  0.00000000000E+00 0. -1.
         21   -1    0    0  502  503 -0.00000000000E+00 -0.00000000000E+00 -0.18312874176E+02  0.18312874176E+02  0.00000000000E+00 0.  1.
          2    1    1    2  501    0 -0.16123700265E+02 -0.13306853806E+02  0.11558066285E+02  0.23887966944E+02  0.00000000000E+00 0. -1.
         -2    1    1    2    0  503  0.16123700265E+02  0.13306853806E+02 -0.31536694800E+01  0.21142178214E+02  0.00000000000E+00 0.  1.
<mgrwt>
<rscale>  2 0.20905647E+02</rscale>
<asrwt>0</asrwt>
<pdfrwt beam="1">  1       21 0.41103494E-02 0.20905647E+02</pdfrwt>
<pdfrwt beam="2">  1       21 0.28173653E-02 0.20905647E+02</pdfrwt>
<totfact> 0.16733262E+08</totfact>
</mgrwt>
</event>
<event>
 4    1  0.2812958E+004  0.3628769E+02  0.7546771E-02  0.1537454E+00
         21   -1    0    0  503  502  0.00000000000E+00  0.00000000000E+00  0.33308872475E+02  0.33308872475E+02  0.00000000000E+00 0. -1.
         21   -1    0    0  501  503 -0.00000000000E+00 -0.00000000000E+00 -0.92075626637E+02  0.92075626637E+02  0.00000000000E+00 0.  1.
          2    1    1    2  501    0 -0.20478175320E+02 -0.29957317048E+02 -0.76741861150E+02  0.84888808225E+02  0.00000000000E+00 0.  1.
         -2    1    1    2    0  502  0.20478175320E+02  0.29957317048E+02  0.17975106987E+02  0.40495690886E+02  0.00000000000E+00 0. -1.
<mgrwt>
<rscale>  2 0.36287691E+02</rscale>
<asrwt>0</asrwt>
<pdfrwt beam="1">  1       21 0.51244419E-02 0.36287691E+02</pdfrwt>
<pdfrwt beam="2">  1       21 0.14165481E-01 0.36287691E+02</pdfrwt>
<totfact> 0.96475473E+06</totfact>
</mgrwt>
</event>
<event>
 4    1  0.2812958E+004  0.2005866E+02  0.7546771E-02  0.1744164E+00
         21   -1    0    0  501  502  0.00000000000E+00  0.00000000000E+00  0.81699678051E+02  0.81699678051E+02  0.00000000000E+00 0. -1.
         21   -1    0    0  502  503 -0.00000000000E+00 -0.00000000000E+00 -0.53727198528E+01  0.53727198528E+01  0.00000000000E+00 0.  1.
          2    1    1    2  501    0 -0.19339825184E+02  0.53217435280E+01  0.50734829783E+02  0.54556143058E+02  0.00000000000E+00 0.  1.
         -2    1    1    2    0  503  0.19339825184E+02 -0.53217435280E+01  0.25592128416E+02  0.32516254846E+02  0.00000000000E+00 0. -1.
<mgrwt>
<rscale>  2 0.20058659E+02</rscale>
<asrwt>0</asrwt>
<pdfrwt beam="1">  1       21 0.12569180E-01 0.20058659E+02</pdfrwt>
<pdfrwt beam="2">  1       21 0.82657235E-03 0.20058659E+02</pdfrwt>
<totfact> 0.17386862E+08</totfact>
</mgrwt>
</event>
<event>
 4    1  0.2812958E+004  0.3387411E+02  0.7546771E-02  0.1558832E+00
         21   -1    0    0  501  502  0.00000000000E+00  0.00000000000E+00  0.11699890831E+01  0.11699890831E+01  0.00000000000E+00 0. -1.
         21   -1    0    0  502  503 -0.00000000000E+00 -0.00000000000E+00 -0.11580232567E+04  0.11580232567E+04  0.00000000000E+00 0.  1.
          2    1    1    2  501    0  0.33765597132E+02  0.27091897669E+01 -0.35164864841E+03  0.35327641754E+03  0.00000000000E+00 0. -1.
         -2    1    1    2    0  503 -0.33765597132E+02 -0.27091897669E+01 -0.80520461917E+03  0.80591682821E+03  0.00000000000E+00 0.  1.
<mgrwt>
<rscale>  2 0.33874109E+02</rscale>
<asrwt>0</asrwt>
<pdfrwt beam="1">  1       21 0.17999825E-03 0.33874109E+02</pdfrwt>
<pdfrwt beam="2">  1       21 0.17815749E+00 0.33874109E+02</pdfrwt>
<totfact> 0.93608581E+06</totfact>
</mgrwt>
</event>
<event>
 4    1  0.2812958E+004  0.2007148E+02  0.7546771E-02  0.1743910E+00
         21   -1    0    0  501  502  0.00000000000E+00  0.00000000000E+00  0.70681295731E+00  0.70681295731E+00  0.00000000000E+00 0.  1.
         21   -1    0    0  502  503 -0.00000000000E+00 -0.00000000000E+00 -0.79596724151E+03  0.79596724151E+03  0.00000000000E+00 0. -1.
          2    1    1    2  501    0 -0.12990265985E+02  0.15300889033E+02 -0.18537816873E+03  0.18646160370E+03  0.00000000000E+00 0.  1.
         -2    1    1    2    0  503  0.12990265985E+02 -0.15300889033E+02 -0.60988225983E+03  0.61021245076E+03  0.00000000000E+00 0. -1.
<mgrwt>
<rscale>  2 0.20071478E+02</rscale>
<asrwt>0</asrwt>
<pdfrwt beam="1">  1       21 0.10874045E-03 0.20071478E+02</pdfrwt>
<pdfrwt beam="2">  1       21 0.12245651E+00 0.20071478E+02</pdfrwt>
<totfact> 0.43599184E+07</totfact>
</mgrwt>
</event>
<event>
 4    1  0.2812958E+004  0.4256021E+02  0.7546771E-02  0.1490174E+00
         21   -1    0    0  503  502  0.00000000000E+00  0.00000000000E+00  0.14157549854E+03  0.14157549854E+03  0.00000000000E+00 0. -1.
         21   -1    0    0  501  503 -0.00000000000E+00 -0.00000000000E+00 -0.14910186211E+02  0.14910186211E+02  0.00000000000E+00 0.  1.
          2    1    1    2  501    0 -0.42014901350E+02  0.67911318418E+01  0.33858557289E+02  0.54385414486E+02  0.00000000000E+00 0. -1.
         -2    1    1    2    0  502  0.42014901350E+02 -0.67911318418E+01  0.92806755035E+02  0.10210027026E+03  0.00000000000E+00 0.  1.
<mgrwt>
<rscale>  2 0.42560209E+02</rscale>
<asrwt>0</asrwt>
<pdfrwt beam="1">  1       21 0.21780845E-01 0.42560209E+02</pdfrwt>
<pdfrwt beam="2">  1       21 0.22938749E-02 0.42560209E+02</pdfrwt>
<totfact> 0.16689423E+07</totfact>
</mgrwt>
</event>
<event>
 4    1  0.2812958E+004  0.3249870E+02  0.7546771E-02  0.1572005E+00
         21   -1    0    0  501  502  0.00000000000E+00  0.00000000000E+00  0.16273458465E+03  0.16273458465E+03  0.00000000000E+00 0.  1.
         21   -1    0    0  502  503 -0.00000000000E+00 -0.00000000000E+00 -0.73621105828E+01  0.73621105828E+01  0.00000000000E+00 0. -1.
          2    1    1    2  501    0 -0.15761081050E+02 -0.28421009080E+02  0.10695625443E+03  0.11178464025E+03  0.00000000000E+00 0.  1.
         -2    1    1    2    0  503  0.15761081050E+02  0.28421009080E+02  0.48416219640E+02  0.58312054991E+02  0.00000000000E+00 0. -1.
<mgrwt>
<rscale>  2 0.32498699E+02</rscale>
<asrwt>0</asrwt>
<pdfrwt beam="1">  1       21 0.25036087E-01 0.32498699E+02</pdfrwt>
<pdfrwt beam="2">  1       21 0.11326325E-02 0.32498699E+02</pdfrwt>
<totfact> 0.36989421E+07</totfact>
</mgrwt>
</event>
<event>
 4    1  0.2812958E+004  0.2027738E+02  0.7546771E-02  0.1739868E+00
         21   -1    0    0  501  502  0.00000000000E+00  0.00000000000E+00  0.24586363219E+02  0.24586363219E+02  0.00000000000E+00 0.  1.
         21   -1    0    0  502  503 -0.00000000000E+00 -0.00000000000E+00 -0.16725541511E+02  0.16725541511E+02  0.00000000000E+00 0. -1.
          2    1    1    2  501    0 -0.19529000335E+02 -0.54580357276E+01  0.41541124309E+01  0.20698518260E+02  0.00000000000E+00 0.  1.
         -2    1    1    2    0  503  0.19529000335E+02  0.54580357276E+01  0.37067092777E+01  0.20613386470E+02  0.00000000000E+00 0. -1.
<mgrwt>
<rscale>  2 0.20277377E+02</rscale>
<asrwt>0</asrwt>
<pdfrwt beam="1">  1       21 0.37825174E-02 0.20277377E+02</pdfrwt>
<pdfrwt beam="2">  1       21 0.25731602E-02 0.20277377E+02</pdfrwt>
<totfact> 0.21713025E+08</totfact>
</mgrwt>
</event>
<event>
 4    1  0.2812958E+004  0.2262248E+02  0.7546771E-02  0.1697704E+00
         21   -1    0    0  501  502  0.00000000000E+00  0.00000000000E+00  0.48443538222E+02  0.48443538222E+02  0.00000000000E+00 0.  1.
         21   -1    0    0  502  503 -0.00000000000E+00 -0.00000000000E+00 -0.15252387536E+02  0.15252387536E+02  0.00000000000E+00 0. -1.
          2    1    1    2  501    0  0.25194155509E+01  0.22481752778E+02  0.34252139967E+02  0.41048577990E+02  0.00000000000E+00 0.  1.
         -2    1    1    2    0  503 -0.25194155509E+01 -0.22481752778E+02 -0.10609892802E+01  0.22647347768E+02  0.00000000000E+00 0. -1.
<mgrwt>
<rscale>  2 0.22622481E+02</rscale>
<asrwt>0</asrwt>
<pdfrwt beam="1">  1       21 0.74528520E-02 0.22622481E+02</pdfrwt>
<pdfrwt beam="2">  1       21 0.23465212E-02 0.22622481E+02</pdfrwt>
<totfact> 0.87870940E+07</totfact>
</mgrwt>
</event>
<event>
 4    1  0.2812958E+004  0.2020445E+02  0.7546771E-02  0.1741293E+00
         21   -1    0    0  501  502  0.00000000000E+00  0.00000000000E+00  0.57980589391E+01  0.57980589391E+01  0.00000000000E+00 0. -1.
         21   -1    0    0  502  503 -0.00000000000E+00 -0.00000000000E+00 -0.88737794891E+02  0.88737794891E+02  0.00000000000E+00 0.  1.
          2    1    1    2  501    0 -0.20173778603E+02 -0.11128853217E+01 -0.19986061998E+02  0.28419404129E+02  0.00000000000E+00 0. -1.
         -2    1    1    2    0  503  0.20173778603E+02  0.11128853217E+01 -0.62953673954E+02  0.66116449701E+02  0.00000000000E+00 0.  1.
<mgrwt>
<rscale>  2 0.20204451E+02</rscale>
<asrwt>0</asrwt>
<pdfrwt beam="1">  1       21 0.89200904E-03 0.20204451E+02</pdfrwt>
<pdfrwt beam="2">  1       21 0.13651969E-01 0.20204451E+02</pdfrwt>
<totfact> 0.13547538E+08</totfact>
</mgrwt>
</event>
<event>
 4    1  0.2812958E+004  0.4243250E+02  0.7546771E-02  0.1491038E+00
         21   -1    0    0  501  502  0.00000000000E+00  0.00000000000E+00  0.43048575688E+02  0.43048575688E+02  0.00000000000E+00 0.  1.
         21   -1    0    0  502  503 -0.00000000000E+00 -0.00000000000E+00 -0.46968952836E+02  0.46968952836E+02  0.00000000000E+00 0. -1.
          2    1    1    2  501    0 -0.33572937121E+02  0.25949466776E+02  0.12934453906E+02  0.44360083755E+02  0.00000000000E+00 0.  1.
         -2    1    1    2    0  503  0.33572937121E+02 -0.25949466776E+02 -0.16854831054E+02  0.45657444768E+02  0.00000000000E+00 0. -1.
<mgrwt>
<rscale>  2 0.42432499E+02</rscale>
<asrwt>0</asrwt>
<pdfrwt beam="1">  1       21 0.66228578E-02 0.42432499E+02</pdfrwt>
<pdfrwt beam="2">  1       21 0.72259927E-02 0.42432499E+02</pdfrwt>
<totfact> 0.20256820E+07</totfact>
</mgrwt>
</event>
<event>
 4    1  0.2812958E+004  0.2001923E+02  0.7546771E-02  0.1744946E+00
         21   -1    0    0  503  502  0.00000000000E+00  0.00000000000E+00  0.29195016528E+02  0.29195016528E+02  0.00000000000E+00 0. -1.
         21   -1    0    0  501  503 -0.00000000000E+00 -0.00000000000E+00 -0.42056807602E+02  0.42056807602E+02  0.00000000000E+00 0.  1.
          2    1    1    2  501    0 -0.17655945570E+02 -0.94359440138E+01 -0.35670208798E+02  0.40903951510E+02  0.00000000000E+00 0.  1.
         -2    1    1    2    0  502  0.17655945570E+02  0.94359440138E+01  0.22808417725E+02  0.30347872620E+02  0.00000000000E+00 0. -1.
<mgrwt>
<rscale>  2 0.20019227E+02</rscale>
<asrwt>0</asrwt>
<pdfrwt beam="1">  1       21 0.44915410E-02 0.20019227E+02</pdfrwt>
<pdfrwt beam="2">  1       21 0.64702781E-02 0.20019227E+02</pdfrwt>
<totfact> 0.38834882E+07</totfact>
</mgrwt>
</event>
<event>
 4    1  0.2812958E+004  0.4653324E+02  0.7546771E-02  0.1464991E+00
         21   -1    0    0  503  502  0.00000000000E+00  0.00000000000E+00  0.79082798849E+02  0.79082798849E+02  0.00000000000E+00 0. -1.
         21   -1    0    0  501  503 -0.00000000000E+00 -0.00000000000E+00 -0.27385356345E+02  0.27385356345E+02  0.00000000000E+00 0.  1.
          2    1    1    2  501    0  0.22069941277E+02 -0.40966568436E+02  0.26543203566E+02  0.53571295419E+02  0.00000000000E+00 0.  1.
         -2    1    1    2    0  502 -0.22069941277E+02  0.40966568436E+02  0.25154238939E+02  0.52896859774E+02  0.00000000000E+00 0. -1.
<mgrwt>
<rscale>  2 0.46533236E+02</rscale>
<asrwt>0</asrwt>
<pdfrwt beam="1">  1       21 0.12166584E-01 0.46533236E+02</pdfrwt>
<pdfrwt beam="2">  1       21 0.42131318E-02 0.46533236E+02</pdfrwt>
<totfact> 0.17841422E+07</totfact>
</mgrwt>
</event>
<event>
 4    1  0.2812958E+004  0.2098848E+02  0.7546771E-02  0.1726357E+00
         21   -1    0    0  501  502  0.00000000000E+00  0.00000000000E+00  0.36452909909E+01  0.36452909909E+01  0.00000000000E+00 0.  1.
         21   -1    0    0  502  503 -0.00000000000E+00 -0.00000000000E+00 -0.18924546981E+03  0.18924546981E+03  0.00000000000E+00 0. -1.
          2    1    1    2  501    0  0.10423747613E+02 -0.18217072906E+02 -0.34817541563E+02  0.40654365818E+02  0.00000000000E+00 0.  1.
         -2    1    1    2    0  503 -0.10423747613E+02  0.18217072906E+02 -0.15078263726E+03  0.15223639499E+03  0.00000000000E+00 0. -1.
<mgrwt>
<rscale>  2 0.20988479E+02</rscale>
<asrwt>0</asrwt>
<pdfrwt beam="1">  1       21 0.56081419E-03 0.20988479E+02</pdfrwt>
<pdfrwt beam="2">  1       21 0.29114678E-01 0.20988479E+02</pdfrwt>
<totfact> 0.73041262E+07</totfact>
</mgrwt>
</event>
<event>
 4    1  0.2812958E+004  0.2761339E+02  0.7546771E-02  0.1626074E+00
         21   -1    0    0  503  502  0.00000000000E+00  0.00000000000E+00  0.70076498895E+03  0.70076498895E+03  0.00000000000E+00 0.  1.
         21   -1    0    0  501  503 -0.00000000000E+00 -0.00000000000E+00 -0.15216709780E+01  0.15216709780E+01  0.00000000000E+00 0. -1.
          2    1    1    2  501    0  0.27280463310E+02  0.42750076826E+01  0.16218423731E+03  0.16451816374E+03  0.00000000000E+00 0. -1.
         -2    1    1    2    0  502 -0.27280463310E+02 -0.42750076826E+01  0.53705908067E+03  0.53776849619E+03  0.00000000000E+00 0.  1.
<mgrwt>
<rscale>  2 0.27613391E+02</rscale>
<asrwt>0</asrwt>
<pdfrwt beam="1">  1       21 0.10780974E+00 0.27613391E+02</pdfrwt>
<pdfrwt beam="2">  1       21 0.23410379E-03 0.27613391E+02</pdfrwt>
<totfact> 0.20497431E+07</totfact>
</mgrwt>
</event>
<event>
 4    1  0.2812958E+004  0.7003436E+02  0.7546771E-02  0.1359976E+00
         21   -1    0    0  503  502  0.00000000000E+00  0.00000000000E+00  0.10706353398E+03  0.10706353398E+03  0.00000000000E+00 0.  1.
         21   -1    0    0  501  503 -0.00000000000E+00 -0.00000000000E+00 -0.18099258525E+03  0.18099258525E+03  0.00000000000E+00 0. -1.
          2    1    1    2  501    0 -0.56142671431E+02 -0.41866597377E+02 -0.16143708673E+03  0.17597370401E+03  0.00000000000E+00 0. -1.
         -2    1    1    2    0  502  0.56142671431E+02  0.41866597377E+02  0.87508035458E+02  0.11208241522E+03  0.00000000000E+00 0.  1.
<mgrwt>
<rscale>  2 0.70034360E+02</rscale>
<asrwt>0</asrwt>
<pdfrwt beam="1">  1       21 0.16471313E-01 0.70034360E+02</pdfrwt>
<pdfrwt beam="2">  1       21 0.27845013E-01 0.70034360E+02</pdfrwt>
<totfact> 0.41302842E+05</totfact>
</mgrwt>
</event>
<event>
 4    1  0.2812958E+004  0.2027997E+02  0.7546771E-02  0.1739817E+00
         21   -1    0    0  503  502  0.00000000000E+00  0.00000000000E+00  0.51073228608E+02  0.51073228608E+02  0.00000000000E+00 0. -1.
         21   -1    0    0  501  503 -0.00000000000E+00 -0.00000000000E+00 -0.20195427160E+02  0.20195427160E+02  0.00000000000E+00 0.  1.
          2    1    1    2  501    0 -0.16584117945E+02  0.11672367670E+02 -0.12192331764E+02  0.23662841944E+02  0.00000000000E+00 0.  1.
         -2    1    1    2    0  502  0.16584117945E+02 -0.11672367670E+02  0.43070133212E+02  0.47605813825E+02  0.00000000000E+00 0. -1.
<mgrwt>
<rscale>  2 0.20279969E+02</rscale>
<asrwt>0</asrwt>
<pdfrwt beam="1">  1       21 0.78574198E-02 0.20279969E+02</pdfrwt>
<pdfrwt beam="2">  1       21 0.31069888E-02 0.20279969E+02</pdfrwt>
<totfact> 0.50694355E+07</totfact>
</mgrwt>
</event>
<event>
 4    1  0.2812958E+004  0.2402727E+02  0.7546771E-02  0.1675380E+00
         21   -1    0    0  501  502  0.00000000000E+00  0.00000000000E+00  0.58724919106E+01  0.58724919106E+01  0.00000000000E+00 0. -1.
         21   -1    0    0  502  503 -0.00000000000E+00 -0.00000000000E+00 -0.98465511292E+02  0.98465511292E+02  0.00000000000E+00 0.  1.
          2    1    1    2  501    0 -0.23316221158E+02  0.58020401606E+01 -0.48386536275E+02  0.54023760808E+02  0.00000000000E+00 0. -1.
         -2    1    1    2    0  503  0.23316221158E+02 -0.58020401606E+01 -0.44206483106E+02  0.50314242394E+02  0.00000000000E+00 0.  1.
<mgrwt>
<rscale>  2 0.24027273E+02</rscale>
<asrwt>0</asrwt>
<pdfrwt beam="1">  1       21 0.90346028E-03 0.24027273E+02</pdfrwt>
<pdfrwt beam="2">  1       21 0.15148540E-01 0.24027273E+02</pdfrwt>
<totfact> 0.11723280E+08</totfact>
</mgrwt>
</event>
<event>
 4    1  0.2812958E+004  0.2129020E+02  0.7546771E-02  0.1720825E+00
         21   -1    0    0  501  502  0.00000000000E+00  0.00000000000E+00  0.16133410038E+02  0.16133410038E+02  0.00000000000E+00 0.  1.
         21   -1    0    0  502  503 -0.00000000000E+00 -0.00000000000E+00 -0.29344274630E+02  0.29344274630E+02  0.00000000000E+00 0. -1.
          2    1    1    2  501    0  0.16923625632E+02 -0.12917568728E+02 -0.19142015423E+01  0.21376081352E+02  0.00000000000E+00 0. -1.
         -2    1    1    2    0  503 -0.16923625632E+02  0.12917568728E+02 -0.11296663049E+02  0.24101603317E+02  0.00000000000E+00 0.  1.
<mgrwt>
<rscale>  2 0.21290202E+02</rscale>
<asrwt>0</asrwt>
<pdfrwt beam="1">  1       21 0.24820631E-02 0.21290202E+02</pdfrwt>
<pdfrwt beam="2">  1       21 0.45145038E-02 0.21290202E+02</pdfrwt>
<totfact> 0.17656052E+08</totfact>
</mgrwt>
</event>
<event>
 4    1  0.2812958E+004  0.2398956E+02  0.7546771E-02  0.1675954E+00
         21   -1    0    0  503  502  0.00000000000E+00  0.00000000000E+00  0.71557424649E+02  0.71557424649E+02  0.00000000000E+00 0.  1.
         21   -1    0    0  501  503 -0.00000000000E+00 -0.00000000000E+00 -0.80746295341E+01  0.80746295341E+01  0.00000000000E+00 0. -1.
          2    1    1    2  501    0 -0.13204973664E+02  0.20028171233E+02  0.34253870229E+02  0.41818974139E+02  0.00000000000E+00 0. -1.
         -2    1    1    2    0  502  0.13204973664E+02 -0.20028171233E+02  0.29228924887E+02  0.37813080044E+02  0.00000000000E+00 0.  1.
<mgrwt>
<rscale>  2 0.23989560E+02</rscale>
<asrwt>0</asrwt>
<pdfrwt beam="1">  1       21 0.11008834E-01 0.23989560E+02</pdfrwt>
<pdfrwt beam="2">  1       21 0.12422507E-02 0.23989560E+02</pdfrwt>
<totfact> 0.12425221E+08</totfact>
</mgrwt>
</event>
<event>
 4    1  0.2812958E+004  0.2451071E+02  0.7546771E-02  0.1668131E+00
         21   -1    0    0  501  502  0.00000000000E+00  0.00000000000E+00  0.26051953219E+03  0.26051953219E+03  0.00000000000E+00 0. -1.
         21   -1    0    0  502  503 -0.00000000000E+00 -0.00000000000E+00 -0.11223908493E+02  0.11223908493E+02  0.00000000000E+00 0.  1.
          2    1    1    2  501    0  0.22357327190E+02  0.10046128223E+02  0.24575975100E+03  0.24697900717E+03  0.00000000000E+00 0. -1.
         -2    1    1    2    0  503 -0.22357327190E+02 -0.10046128223E+02  0.35358726937E+01  0.24764433510E+02  0.00000000000E+00 0.  1.
<mgrwt>
<rscale>  2 0.24510707E+02</rscale>
<asrwt>0</asrwt>
<pdfrwt beam="1">  1       21 0.40079924E-01 0.24510707E+02</pdfrwt>
<pdfrwt beam="2">  1       21 0.17267553E-02 0.24510707E+02</pdfrwt>
<totfact> 0.77418413E+06</totfact>
</mgrwt>
</event>
<event>
 4    1  0.2812958E+004  0.3495678E+02  0.7546771E-02  0.1548985E+00
         21   -1    0    0  503  502  0.00000000000E+00  0.00000000000E+00  0.18837211322E+03  0.18837211322E+03  0.00000000000E+00 0.  1.
         21   -1    0    0  501  503 -0.00000000000E+00 -0.00000000000E+00 -0.61001366608E+02  0.61001366608E+02  0.00000000000E+00 0. -1.
          2    1    1    2  501    0 -0.20700863672E+02 -0.28168252028E+02 -0.54185320554E+02  0.64482750737E+02  0.00000000000E+00 0. -1.
         -2    1    1    2    0  502  0.20700863672E+02  0.28168252028E+02  0.18155606716E+03  0.18489072909E+03  0.00000000000E+00 0.  1.
<mgrwt>
<rscale>  2 0.34956776E+02</rscale>
<asrwt>0</asrwt>
<pdfrwt beam="1">  1       21 0.28980325E-01 0.34956776E+02</pdfrwt>
<pdfrwt beam="2">  1       21 0.93848257E-02 0.34956776E+02</pdfrwt>
<totfact> 0.99263190E+05</totfact>
</mgrwt>
</event>
<event>
 4    1  0.2812958E+004  0.2113030E+02  0.7546771E-02  0.1723742E+00
         21   -1    0    0  501  502  0.00000000000E+00  0.00000000000E+00  0.36457203229E+03  0.36457203229E+03  0.00000000000E+00 0. -1.
         21   -1    0    0  502  503 -0.00000000000E+00 -0.00000000000E+00 -0.56326070144E+01  0.56326070144E+01  0.00000000000E+00 0.  1.
          2    1    1    2  501    0  0.17879344253E+02 -0.11261368381E+02  0.34321681282E+03  0.34386664562E+03  0.00000000000E+00 0. -1.
         -2    1    1    2    0  503 -0.17879344253E+02  0.11261368381E+02  0.15722612452E+02  0.26337993679E+02  0.00000000000E+00 0.  1.
<mgrwt>
<rscale>  2 0.21130295E+02</rscale>
<asrwt>0</asrwt>
<pdfrwt beam="1">  1       21 0.56087986E-01 0.21130295E+02</pdfrwt>
<pdfrwt beam="2">  1       21 0.86655521E-03 0.21130295E+02</pdfrwt>
<totfact> 0.11169767E+07</totfact>
</mgrwt>
</event>
<event>
 4    1  0.2812958E+004  0.2201112E+02  0.7546771E-02  0.1708060E+00
         21   -1    0    0  501  502  0.00000000000E+00  0.00000000000E+00  0.31312943642E+01  0.31312943642E+01  0.00000000000E+00 0. -1.
         21   -1    0    0  502  503 -0.00000000000E+00 -0.00000000000E+00 -0.33459543193E+03  0.33459543193E+03  0.00000000000E+00 0.  1.
          2    1    1    2  501    0  0.21969725212E+02 -0.13493668893E+01 -0.41922194538E+02  0.47349340141E+02  0.00000000000E+00 0. -1.
         -2    1    1    2    0  503 -0.21969725212E+02  0.13493668893E+01 -0.28954194303E+03  0.29037738616E+03  0.00000000000E+00 0.  1.
<mgrwt>
<rscale>  2 0.22011125E+02</rscale>
<asrwt>0</asrwt>
<pdfrwt beam="1">  1       21 0.48173785E-03 0.22011125E+02</pdfrwt>
<pdfrwt beam="2">  1       21 0.51476193E-01 0.22011125E+02</pdfrwt>
<totfact> 0.31796727E+07</totfact>
</mgrwt>
</event>
<event>
 4    1  0.2812958E+004  0.2122612E+02  0.7546771E-02  0.1721990E+00
         21   -1    0    0  503  502  0.00000000000E+00  0.00000000000E+00  0.93176892730E+01  0.93176892730E+01  0.00000000000E+00 0.  1.
         21   -1    0    0  501  503 -0.00000000000E+00 -0.00000000000E+00 -0.66585619706E+02  0.66585619706E+02  0.00000000000E+00 0. -1.
          2    1    1    2  501    0  0.13492318990E+00  0.21225689809E+02 -0.48492737458E+02  0.52934806113E+02  0.00000000000E+00 0. -1.
         -2    1    1    2    0  502 -0.13492318990E+00 -0.21225689809E+02 -0.87751929756E+01  0.22968502866E+02  0.00000000000E+00 0.  1.
<mgrwt>
<rscale>  2 0.21226119E+02</rscale>
<asrwt>0</asrwt>
<pdfrwt beam="1">  1       21 0.14334907E-02 0.21226119E+02</pdfrwt>
<pdfrwt beam="2">  1       21 0.10243941E-01 0.21226119E+02</pdfrwt>
<totfact> 0.10879575E+08</totfact>
</mgrwt>
</event>
<event>
 4    1  0.2812958E+004  0.2331730E+02  0.7546771E-02  0.1686418E+00
         21   -1    0    0  503  502  0.00000000000E+00  0.00000000000E+00  0.53365721578E+01  0.53365721578E+01  0.00000000000E+00 0. -1.
         21   -1    0    0  501  503 -0.00000000000E+00 -0.00000000000E+00 -0.10555457950E+03  0.10555457950E+03  0.00000000000E+00 0.  1.
          2    1    1    2  501    0  0.80478370419E+01  0.21884440898E+02 -0.60452338937E+02  0.64793377111E+02  0.00000000000E+00 0. -1.
         -2    1    1    2    0  502 -0.80478370419E+01 -0.21884440898E+02 -0.39765668406E+02  0.46097774547E+02  0.00000000000E+00 0.  1.
<mgrwt>
<rscale>  2 0.23317299E+02</rscale>
<asrwt>0</asrwt>
<pdfrwt beam="1">  1       21 0.82101108E-03 0.23317299E+02</pdfrwt>
<pdfrwt beam="2">  1       21 0.16239167E-01 0.23317299E+02</pdfrwt>
<totfact> 0.11910308E+08</totfact>
</mgrwt>
</event>
<event>
 4    1  0.2812958E+004  0.2518888E+02  0.7546771E-02  0.1658304E+00
         21   -1    0    0  503  502  0.00000000000E+00  0.00000000000E+00  0.36930305770E+02  0.36930305770E+02  0.00000000000E+00 0. -1.
         21   -1    0    0  501  503 -0.00000000000E+00 -0.00000000000E+00 -0.20346070012E+02  0.20346070012E+02  0.00000000000E+00 0.  1.
          2    1    1    2  501    0 -0.23187046581E+02 -0.98407467986E+01 -0.30041340739E+01  0.25367385522E+02  0.00000000000E+00 0.  1.
         -2    1    1    2    0  502  0.23187046581E+02  0.98407467986E+01  0.19588369832E+02  0.31908990260E+02  0.00000000000E+00 0. -1.
<mgrwt>
<rscale>  2 0.25188875E+02</rscale>
<asrwt>0</asrwt>
<pdfrwt beam="1">  1       21 0.56815855E-02 0.25188875E+02</pdfrwt>
<pdfrwt beam="2">  1       21 0.31301646E-02 0.25188875E+02</pdfrwt>
<totfact> 0.89690346E+07</totfact>
</mgrwt>
</event>
<event>
 4    1  0.2812958E+004  0.3374705E+02  0.7546771E-02  0.1560017E+00
         21   -1    0    0  503  502  0.00000000000E+00  0.00000000000E+00  0.12546087259E+03  0.12546087259E+03  0.00000000000E+00 0.  1.
         21   -1    0    0  501  503 -0.00000000000E+00 -0.00000000000E+00 -0.10734176114E+02  0.10734176114E+02  0.00000000000E+00 0. -1.
          2    1    1    2  501    0  0.29020924771E+02  0.17223509972E+02  0.30610266540E+02  0.45561516524E+02  0.00000000000E+00 0. -1.
         -2    1    1    2    0  502 -0.29020924771E+02 -0.17223509972E+02  0.84116429933E+02  0.90633532177E+02  0.00000000000E+00 0.  1.
<mgrwt>
<rscale>  2 0.33747050E+02</rscale>
<asrwt>0</asrwt>
<pdfrwt beam="1">  1       21 0.19301672E-01 0.33747050E+02</pdfrwt>
<pdfrwt beam="2">  1       21 0.16514118E-02 0.33747050E+02</pdfrwt>
<totfact> 0.33248038E+07</totfact>
</mgrwt>
</event>
<event>
 4    1  0.2812958E+004  0.2467206E+02  0.7546771E-02  0.1665757E+00
         21   -1    0    0  503  502  0.00000000000E+00  0.00000000000E+00  0.10673011293E+04  0.10673011293E+04  0.00000000000E+00 0. -1.
         21   -1    0    0  501  503 -0.00000000000E+00 -0.00000000000E+00 -0.91383958319E+00  0.91383958319E+00  0.00000000000E+00 0.  1.
          2    1    1    2  501    0 -0.11701421183E+02 -0.21720667638E+02  0.20572856044E+03  0.20720268155E+03  0.00000000000E+00 0.  1.
         -2    1    1    2    0  502  0.11701421183E+02  0.21720667638E+02  0.86065872929E+03  0.86101228734E+03  0.00000000000E+00 0. -1.
<mgrwt>
<rscale>  2 0.24672062E+02</rscale>
<asrwt>0</asrwt>
<pdfrwt beam="1">  1       21 0.16419918E+00 0.24672062E+02</pdfrwt>
<pdfrwt beam="2">  1       21 0.14059156E-03 0.24672062E+02</pdfrwt>
<totfact> 0.15799068E+07</totfact>
</mgrwt>
</event>
<event>
 4    1  0.2812958E+004  0.2033732E+02  0.7546771E-02  0.1738702E+00
         21   -1    0    0  501  502  0.00000000000E+00  0.00000000000E+00  0.38799563111E+01  0.38799563111E+01  0.00000000000E+00 0.  1.
         21   -1    0    0  502  503 -0.00000000000E+00 -0.00000000000E+00 -0.17286571315E+03  0.17286571315E+03  0.00000000000E+00 0. -1.
          2    1    1    2  501    0 -0.19732380050E+02  0.49233881794E+01 -0.29777921155E+02  0.36060104851E+02  0.00000000000E+00 0.  1.
         -2    1    1    2    0  503  0.19732380050E+02 -0.49233881794E+01 -0.13920783568E+03  0.14068556461E+03  0.00000000000E+00 0. -1.
<mgrwt>
<rscale>  2 0.20337320E+02</rscale>
<asrwt>0</asrwt>
<pdfrwt beam="1">  1       21 0.59691632E-03 0.20337320E+02</pdfrwt>
<pdfrwt beam="2">  1       21 0.26594727E-01 0.20337320E+02</pdfrwt>
<totfact> 0.77715944E+07</totfact>
</mgrwt>
</event>
<event>
 4    1  0.2812958E+004  0.2871350E+02  0.7546771E-02  0.1612761E+00
         21   -1    0    0  503  502  0.00000000000E+00  0.00000000000E+00  0.61144506169E+02  0.61144506169E+02  0.00000000000E+00 0.  1.
         21   -1    0    0  501  503 -0.00000000000E+00 -0.00000000000E+00 -0.18760346841E+02  0.18760346841E+02  0.00000000000E+00 0. -1.
          2    1    1    2  501    0 -0.11852194273E+02 -0.26153215650E+02  0.38668302132E-02  0.28713502275E+02  0.00000000000E+00 0. -1.
         -2    1    1    2    0  502  0.11852194273E+02  0.26153215650E+02  0.42380292498E+02  0.51191350736E+02  0.00000000000E+00 0.  1.
<mgrwt>
<rscale>  2 0.28713502E+02</rscale>
<asrwt>0</asrwt>
<pdfrwt beam="1">  1       21 0.94068470E-02 0.28713502E+02</pdfrwt>
<pdfrwt beam="2">  1       21 0.28862072E-02 0.28713502E+02</pdfrwt>
<totfact> 0.46144260E+07</totfact>
</mgrwt>
</event>
<event>
 4    1  0.2812958E+004  0.2205965E+02  0.7546771E-02  0.1707222E+00
         21   -1    0    0  501  502  0.00000000000E+00  0.00000000000E+00  0.17717587133E+02  0.17717587133E+02  0.00000000000E+00 0. -1.
         21   -1    0    0  502  503 -0.00000000000E+00 -0.00000000000E+00 -0.44682481951E+02  0.44682481951E+02  0.00000000000E+00 0.  1.
          2    1    1    2  501    0  0.75397032053E+01  0.20731162248E+02  0.58844832365E+01  0.22831017401E+02  0.00000000000E+00 0. -1.
         -2    1    1    2    0  503 -0.75397032053E+01 -0.20731162248E+02 -0.32849378055E+02  0.39569051684E+02  0.00000000000E+00 0.  1.
<mgrwt>
<rscale>  2 0.22059651E+02</rscale>
<asrwt>0</asrwt>
<pdfrwt beam="1">  1       21 0.27257827E-02 0.22059651E+02</pdfrwt>
<pdfrwt beam="2">  1       21 0.68742279E-02 0.22059651E+02</pdfrwt>
<totfact> 0.78894812E+07</totfact>
</mgrwt>
</event>
<event>
 4    1  0.2812958E+004  0.3382208E+02  0.7546771E-02  0.1559317E+00
         21   -1    0    0  503  502  0.00000000000E+00  0.00000000000E+00  0.54204327838E+02  0.54204327838E+02  0.00000000000E+00 0.  1.
         21   -1    0    0  501  503 -0.00000000000E+00 -0.00000000000E+00 -0.28093596838E+02  0.28093596838E+02  0.00000000000E+00 0. -1.
          2    1    1    2  501    0 -0.29276277486E+02 -0.16936125852E+02 -0.74694194034E+01  0.34637046764E+02  0.00000000000E+00 0. -1.
         -2    1    1    2    0  502  0.29276277486E+02  0.16936125852E+02  0.33580150403E+02  0.47660877912E+02  0.00000000000E+00 0.  1.
<mgrwt>
<rscale>  2 0.33822075E+02</rscale>
<asrwt>0</asrwt>
<pdfrwt beam="1">  1       21 0.83391273E-02 0.33822075E+02</pdfrwt>
<pdfrwt beam="2">  1       21 0.43220919E-02 0.33822075E+02</pdfrwt>
<totfact> 0.30741455E+07</totfact>
</mgrwt>
</event>
<event>
 4    1  0.2812958E+004  0.2149739E+02  0.7546771E-02  0.1717092E+00
         21   -1    0    0  503  502  0.00000000000E+00  0.00000000000E+00  0.22455460871E+03  0.22455460871E+03  0.00000000000E+00 0. -1.
         21   -1    0    0  501  503 -0.00000000000E+00 -0.00000000000E+00 -0.84273410973E+01  0.84273410973E+01  0.00000000000E+00 0.  1.
          2    1    1    2  501    0  0.21186229372E+02 -0.36443981496E+01  0.67906621330E+01  0.22544423813E+02  0.00000000000E+00 0.  1.
         -2    1    1    2    0  502 -0.21186229372E+02  0.36443981496E+01  0.20933660548E+03  0.21043752600E+03  0.00000000000E+00 0. -1.
<mgrwt>
<rscale>  2 0.21497394E+02</rscale>
<asrwt>0</asrwt>
<pdfrwt beam="1">  1       21 0.34546858E-01 0.21497394E+02</pdfrwt>
<pdfrwt beam="2">  1       21 0.12965142E-02 0.21497394E+02</pdfrwt>
<totfact> 0.15405530E+07</totfact>
</mgrwt>
</event>
<event>
 4    1  0.2812958E+004  0.3271925E+02  0.7546771E-02  0.1569840E+00
         21   -1    0    0  503  502  0.00000000000E+00  0.00000000000E+00  0.62714230691E+01  0.62714230691E+01  0.00000000000E+00 0. -1.
         21   -1    0    0  501  503 -0.00000000000E+00 -0.00000000000E+00 -0.74851512906E+03  0.74851512906E+03  0.00000000000E+00 0.  1.
          2    1    1    2  501    0  0.26472938161E+02 -0.19228441417E+02 -0.70270104794E+03  0.70346237440E+03  0.00000000000E+00 0.  1.
         -2    1    1    2    0  502 -0.26472938161E+02  0.19228441417E+02 -0.39542658048E+02  0.51324177731E+02  0.00000000000E+00 0. -1.
<mgrwt>
<rscale>  2 0.32719251E+02</rscale>
<asrwt>0</asrwt>
<pdfrwt beam="1">  1       21 0.96483420E-03 0.32719251E+02</pdfrwt>
<pdfrwt beam="2">  1       21 0.11515619E+00 0.32719251E+02</pdfrwt>
<totfact> 0.21960380E+06</totfact>
</mgrwt>
</event>
<event>
 4    1  0.2812958E+004  0.2379507E+02  0.7546771E-02  0.1678937E+00
         21   -1    0    0  503  502  0.00000000000E+00  0.00000000000E+00  0.23868074141E+02  0.23868074141E+02  0.00000000000E+00 0.  1.
         21   -1    0    0  501  503 -0.00000000000E+00 -0.00000000000E+00 -0.29080460210E+02  0.29080460210E+02  0.00000000000E+00 0. -1.
          2    1    1    2  501    0 -0.20520019159E+01 -0.23706429860E+02 -0.13970195111E+02  0.27592967945E+02  0.00000000000E+00 0. -1.
         -2    1    1    2    0  502  0.20520019159E+01  0.23706429860E+02  0.87578090418E+01  0.25355566406E+02  0.00000000000E+00 0.  1.
<mgrwt>
<rscale>  2 0.23795074E+02</rscale>
<asrwt>0</asrwt>
<pdfrwt beam="1">  1       21 0.36720114E-02 0.23795074E+02</pdfrwt>
<pdfrwt beam="2">  1       21 0.44739169E-02 0.23795074E+02</pdfrwt>
<totfact> 0.10067320E+08</totfact>
</mgrwt>
</event>
<event>
 4    1  0.2812958E+004  0.2024121E+02  0.7546771E-02  0.1740573E+00
         21   -1    0    0  501  502  0.00000000000E+00  0.00000000000E+00  0.58092600146E+03  0.58092600146E+03  0.00000000000E+00 0.  1.
         21   -1    0    0  502  503 -0.00000000000E+00 -0.00000000000E+00 -0.72989612386E+00  0.72989612386E+00  0.00000000000E+00 0. -1.
          2    1    1    2  501    0  0.20214144402E+02 -0.10464028047E+01  0.23667231672E+03  0.23753629637E+03  0.00000000000E+00 0. -1.
         -2    1    1    2    0  503 -0.20214144402E+02  0.10464028047E+01  0.34352378862E+03  0.34411960121E+03  0.00000000000E+00 0.  1.
<mgrwt>
<rscale>  2 0.20241210E+02</rscale>
<asrwt>0</asrwt>
<pdfrwt beam="1">  1       21 0.89372861E-01 0.20241210E+02</pdfrwt>
<pdfrwt beam="2">  1       21 0.11229218E-03 0.20241210E+02</pdfrwt>
<totfact> 0.83239571E+07</totfact>
</mgrwt>
</event>
<event>
 4    1  0.2812958E+004  0.6087806E+02  0.7546771E-02  0.1394183E+00
         21   -1    0    0  501  502  0.00000000000E+00  0.00000000000E+00  0.26824206455E+03  0.26824206455E+03  0.00000000000E+00 0. -1.
         21   -1    0    0  502  503 -0.00000000000E+00 -0.00000000000E+00 -0.48967100588E+02  0.48967100588E+02  0.00000000000E+00 0.  1.
          2    1    1    2  501    0 -0.57295056627E+02  0.20577045229E+02  0.24401622067E+03  0.25149563466E+03  0.00000000000E+00 0. -1.
         -2    1    1    2    0  503  0.57295056627E+02 -0.20577045229E+02 -0.24741256707E+02  0.65713530476E+02  0.00000000000E+00 0.  1.
<mgrwt>
<rscale>  2 0.60878061E+02</rscale>
<asrwt>0</asrwt>
<pdfrwt beam="1">  1       21 0.41268009E-01 0.60878061E+02</pdfrwt>
<pdfrwt beam="2">  1       21 0.75334002E-02 0.60878061E+02</pdfrwt>
<totfact> 0.75047414E+05</totfact>
</mgrwt>
</event>
<event>
 4    1  0.2812958E+004  0.2123722E+02  0.7546771E-02  0.1721788E+00
         21   -1    0    0  503  502  0.00000000000E+00  0.00000000000E+00  0.21340914228E+01  0.21340914228E+01  0.00000000000E+00 0. -1.
         21   -1    0    0  501  503 -0.00000000000E+00 -0.00000000000E+00 -0.38264201715E+03  0.38264201715E+03  0.00000000000E+00 0.  1.
          2    1    1    2  501    0 -0.53882276037E+01 -0.20542313197E+02 -0.31897886449E+03  0.31968505692E+03  0.00000000000E+00 0.  1.
         -2    1    1    2    0  502  0.53882276037E+01  0.20542313197E+02 -0.61529061234E+02  0.65091051647E+02  0.00000000000E+00 0. -1.
<mgrwt>
<rscale>  2 0.21237223E+02</rscale>
<asrwt>0</asrwt>
<pdfrwt beam="1">  1       21 0.32832213E-03 0.21237223E+02</pdfrwt>
<pdfrwt beam="2">  1       21 0.58867935E-01 0.21237223E+02</pdfrwt>
<totfact> 0.42456210E+07</totfact>
</mgrwt>
</event>
<event>
 4    1  0.2812958E+004  0.2301030E+02  0.7546771E-02  0.1691343E+00
         21   -1    0    0  503  502  0.00000000000E+00  0.00000000000E+00  0.97469464893E+03  0.97469464893E+03  0.00000000000E+00 0. -1.
         21   -1    0    0  501  503 -0.00000000000E+00 -0.00000000000E+00 -0.59640209711E+00  0.59640209711E+00  0.00000000000E+00 0.  1.
          2    1    1    2  501    0 -0.19445936398E+02  0.12301599273E+02  0.34143056666E+03  0.34220506372E+03  0.00000000000E+00 0. -1.
         -2    1    1    2    0  502  0.19445936398E+02 -0.12301599273E+02  0.63266768017E+03  0.63308598731E+03  0.00000000000E+00 0.  1.
<mgrwt>
<rscale>  2 0.23010297E+02</rscale>
<asrwt>0</asrwt>
<pdfrwt beam="1">  1       21 0.14995175E+00 0.23010297E+02</pdfrwt>
<pdfrwt beam="2">  1       21 0.91754949E-04 0.23010297E+02</pdfrwt>
<totfact> 0.35736028E+07</totfact>
</mgrwt>
</event>
<event>
 4    1  0.2812958E+004  0.2216804E+02  0.7546771E-02  0.1705362E+00
         21   -1    0    0  501  502  0.00000000000E+00  0.00000000000E+00  0.41377111929E+01  0.41377111929E+01  0.00000000000E+00 0.  1.
         21   -1    0    0  502  503 -0.00000000000E+00 -0.00000000000E+00 -0.11904584400E+03  0.11904584400E+03  0.00000000000E+00 0. -1.
          2    1    1    2  501    0  0.59625043889E+01 -0.21351122178E+02 -0.60437113093E+02  0.64374424393E+02  0.00000000000E+00 0.  1.
         -2    1    1    2    0  503 -0.59625043889E+01  0.21351122178E+02 -0.54471019714E+02  0.58809130801E+02  0.00000000000E+00 0. -1.
<mgrwt>
<rscale>  2 0.22168037E+02</rscale>
<asrwt>0</asrwt>
<pdfrwt beam="1">  1       21 0.63657089E-03 0.22168037E+02</pdfrwt>
<pdfrwt beam="2">  1       21 0.18314747E-01 0.22168037E+02</pdfrwt>
<totfact> 0.13936131E+08</totfact>
</mgrwt>
</event>
<event>
 4    1  0.2812958E+004  0.2645002E+02  0.7546771E-02  0.1641008E+00
         21   -1    0    0  503  502  0.00000000000E+00  0.00000000000E+00  0.12844745906E+03  0.12844745906E+03  0.00000000000E+00 0. -1.
         21   -1    0    0  501  503 -0.00000000000E+00 -0.00000000000E+00 -0.65945772745E+01  0.65945772745E+01  0.00000000000E+00 0.  1.
          2    1    1    2  501    0  0.25512963258E+02 -0.69780024580E+01  0.32754979565E+02  0.42100979785E+02  0.00000000000E+00 0. -1.
         -2    1    1    2    0  502 -0.25512963258E+02  0.69780024580E+01  0.89097902223E+02  0.92941056553E+02  0.00000000000E+00 0.  1.
<mgrwt>
<rscale>  2 0.26450025E+02</rscale>
<asrwt>0</asrwt>
<pdfrwt beam="1">  1       21 0.19761146E-01 0.26450025E+02</pdfrwt>
<pdfrwt beam="2">  1       21 0.10145504E-02 0.26450025E+02</pdfrwt>
<totfact> 0.63716907E+07</totfact>
</mgrwt>
</event>
<event>
 4    1  0.2812958E+004  0.3097006E+02  0.7546771E-02  0.1587607E+00
         21   -1    0    0  501  502  0.00000000000E+00  0.00000000000E+00  0.22591808889E+03  0.22591808889E+03  0.00000000000E+00 0. -1.
         21   -1    0    0  502  503 -0.00000000000E+00 -0.00000000000E+00 -0.11183623785E+02  0.11183623785E+02  0.00000000000E+00 0.  1.
          2    1    1    2  501    0  0.30478001916E+02  0.54987451636E+01  0.20074277105E+03  0.20311771200E+03  0.00000000000E+00 0. -1.
         -2    1    1    2    0  503 -0.30478001916E+02 -0.54987451636E+01  0.13991694051E+02  0.33984000671E+02  0.00000000000E+00 0.  1.
<mgrwt>
<rscale>  2 0.30970063E+02</rscale>
<asrwt>0</asrwt>
<pdfrwt beam="1">  1       21 0.34756626E-01 0.30970063E+02</pdfrwt>
<pdfrwt beam="2">  1       21 0.17205577E-02 0.30970063E+02</pdfrwt>
<totfact> 0.10563551E+07</totfact>
</mgrwt>
</event>
<event>
 4    1  0.2812958E+004  0.2133420E+02  0.7546771E-02  0.1720028E+00
         21   -1    0    0  501  502  0.00000000000E+00  0.00000000000E+00  0.19064612096E+02  0.19064612096E+02  0.00000000000E+00 0.  1.
         21   -1    0    0  502  503 -0.00000000000E+00 -0.00000000000E+00 -0.83219008424E+02  0.83219008424E+02  0.00000000000E+00 0. -1.
          2    1    1    2  501    0  0.18940882113E+02  0.98178950017E+01  0.11110197617E+02  0.24053784912E+02  0.00000000000E+00 0.  1.
         -2    1    1    2    0  503 -0.18940882113E+02 -0.98178950017E+01 -0.75264593945E+02  0.78229835608E+02  0.00000000000E+00 0. -1.
<mgrwt>
<rscale>  2 0.21334200E+02</rscale>
<asrwt>0</asrwt>
<pdfrwt beam="1">  1       21 0.29330173E-02 0.21334200E+02</pdfrwt>
<pdfrwt beam="2">  1       21 0.12802924E-01 0.21334200E+02</pdfrwt>
<totfact> 0.25112779E+07</totfact>
</mgrwt>
</event>
<event>
 4    1  0.2812958E+004  0.2318341E+02  0.7546771E-02  0.1688554E+00
         21   -1    0    0  503  502  0.00000000000E+00  0.00000000000E+00  0.71329544338E+01  0.71329544338E+01  0.00000000000E+00 0. -1.
         21   -1    0    0  501  503 -0.00000000000E+00 -0.00000000000E+00 -0.20447826987E+03  0.20447826987E+03  0.00000000000E+00 0.  1.
          2    1    1    2  501    0  0.22521656825E+02  0.54995925914E+01 -0.18275314441E+03  0.18421775793E+03  0.00000000000E+00 0.  1.
         -2    1    1    2    0  502 -0.22521656825E+02 -0.54995925914E+01 -0.14592171029E+02  0.27393466377E+02  0.00000000000E+00 0. -1.
<mgrwt>
<rscale>  2 0.23183411E+02</rscale>
<asrwt>0</asrwt>
<pdfrwt beam="1">  1       21 0.10973777E-02 0.23183411E+02</pdfrwt>
<pdfrwt beam="2">  1       21 0.31458193E-01 0.23183411E+02</pdfrwt>
<totfact> 0.23908108E+07</totfact>
</mgrwt>
</event>
<event>
 4    1  0.2812958E+004  0.4203515E+02  0.7546771E-02  0.1493748E+00
         21   -1    0    0  501  502  0.00000000000E+00  0.00000000000E+00  0.23945811555E+03  0.23945811555E+03  0.00000000000E+00 0. -1.
         21   -1    0    0  502  503 -0.00000000000E+00 -0.00000000000E+00 -0.19091140428E+02  0.19091140428E+02  0.00000000000E+00 0.  1.
          2    1    1    2  501    0 -0.40460264262E+02  0.11398270851E+02  0.21143840073E+03  0.21557632260E+03  0.00000000000E+00 0. -1.
         -2    1    1    2    0  503  0.40460264262E+02 -0.11398270851E+02  0.89285743942E+01  0.42972933380E+02  0.00000000000E+00 0.  1.
<mgrwt>
<rscale>  2 0.42035147E+02</rscale>
<asrwt>0</asrwt>
<pdfrwt beam="1">  1       21 0.36839708E-01 0.42035147E+02</pdfrwt>
<pdfrwt beam="2">  1       21 0.29370987E-02 0.42035147E+02</pdfrwt>
<totfact> 0.42575881E+06</totfact>
</mgrwt>
</event>
<event>
 4    1  0.2812958E+004  0.2439885E+02  0.7546771E-02  0.1669790E+00
         21   -1    0    0  503  502  0.00000000000E+00  0.00000000000E+00  0.32800265399E+02  0.32800265399E+02  0.00000000000E+00 0. -1.
         21   -1    0    0  501  503 -0.00000000000E+00 -0.00000000000E+00 -0.29078446915E+02  0.29078446915E+02  0.00000000000E+00 0.  1.
          2    1    1    2  501    0  0.24392711178E+02 -0.54737902709E+00 -0.17106914824E+02  0.29798498573E+02  0.00000000000E+00 0.  1.
         -2    1    1    2    0  502 -0.24392711178E+02  0.54737902709E+00  0.20828733309E+02  0.32080213741E+02  0.00000000000E+00 0. -1.
<mgrwt>
<rscale>  2 0.24398852E+02</rscale>
<asrwt>0</asrwt>
<pdfrwt beam="1">  1       21 0.50461947E-02 0.24398852E+02</pdfrwt>
<pdfrwt beam="2">  1       21 0.44736072E-02 0.24398852E+02</pdfrwt>
<totfact> 0.61276237E+07</totfact>
</mgrwt>
</event>
<event>
 4    1  0.2812958E+004  0.2611081E+02  0.7546771E-02  0.1645541E+00
         21   -1    0    0  501  502  0.00000000000E+00  0.00000000000E+00  0.67658558425E+02  0.67658558425E+02  0.00000000000E+00 0. -1.
         21   -1    0    0  502  503 -0.00000000000E+00 -0.00000000000E+00 -0.20891867486E+02  0.20891867486E+02  0.00000000000E+00 0.  1.
          2    1    1    2  501    0 -0.76558477407E+01  0.24963217993E+02  0.55239171529E+02  0.61099429854E+02  0.00000000000E+00 0. -1.
         -2    1    1    2    0  503  0.76558477407E+01 -0.24963217993E+02 -0.84724805901E+01  0.27450996058E+02  0.00000000000E+00 0.  1.
<mgrwt>
<rscale>  2 0.26110807E+02</rscale>
<asrwt>0</asrwt>
<pdfrwt beam="1">  1       21 0.10409009E-01 0.26110807E+02</pdfrwt>
<pdfrwt beam="2">  1       21 0.32141335E-02 0.26110807E+02</pdfrwt>
<totfact> 0.32236062E+07</totfact>
</mgrwt>
</event>
<event>
 4    1  0.2812958E+004  0.3170407E+02  0.7546771E-02  0.1579982E+00
         21   -1    0    0  501  502  0.00000000000E+00  0.00000000000E+00  0.11562788343E+03  0.11562788343E+03  0.00000000000E+00 0.  1.
         21   -1    0    0  502  503 -0.00000000000E+00 -0.00000000000E+00 -0.86944755702E+01  0.86944755702E+01  0.00000000000E+00 0. -1.
          2    1    1    2  501    0  0.37094613245E+01  0.31486311949E+02  0.52644546492E+02  0.61454017109E+02  0.00000000000E+00 0.  1.
         -2    1    1    2    0  503 -0.37094613245E+01 -0.31486311949E+02  0.54288861365E+02  0.62868341888E+02  0.00000000000E+00 0. -1.
<mgrwt>
<rscale>  2 0.31704068E+02</rscale>
<asrwt>0</asrwt>
<pdfrwt beam="1">  1       21 0.17788904E-01 0.31704068E+02</pdfrwt>
<pdfrwt beam="2">  1       21 0.13376117E-02 0.31704068E+02</pdfrwt>
<totfact> 0.52407643E+07</totfact>
</mgrwt>
</event>
<event>
 4    1  0.2812958E+004  0.2029881E+02  0.7546771E-02  0.1739450E+00
         21   -1    0    0  501  502  0.00000000000E+00  0.00000000000E+00  0.63801153586E+01  0.63801153586E+01  0.00000000000E+00 0. -1.
         21   -1    0    0  502  503 -0.00000000000E+00 -0.00000000000E+00 -0.92128049429E+02  0.92128049429E+02  0.00000000000E+00 0.  1.
          2    1    1    2  501    0  0.19682392870E+02  0.49643814384E+01 -0.15941592621E+02  0.25810386426E+02  0.00000000000E+00 0. -1.
         -2    1    1    2    0  503 -0.19682392870E+02 -0.49643814384E+01 -0.69806341450E+02  0.72697778362E+02  0.00000000000E+00 0.  1.
<mgrwt>
<rscale>  2 0.20298810E+02</rscale>
<asrwt>0</asrwt>
<pdfrwt beam="1">  1       21 0.98155621E-03 0.20298810E+02</pdfrwt>
<pdfrwt beam="2">  1       21 0.14173546E-01 0.20298810E+02</pdfrwt>
<totfact> 0.11042408E+08</totfact>
</mgrwt>
</event>
<event>
 4    1  0.2812958E+004  0.2101851E+02  0.7546771E-02  0.1725801E+00
         21   -1    0    0  503  502  0.00000000000E+00  0.00000000000E+00  0.14006933735E+03  0.14006933735E+03  0.00000000000E+00 0.  1.
         21   -1    0    0  501  503 -0.00000000000E+00 -0.00000000000E+00 -0.24252299123E+02  0.24252299123E+02  0.00000000000E+00 0. -1.
          2    1    1    2  501    0 -0.21018275102E+02 -0.99734765953E-01 -0.18723820183E+02  0.28148877021E+02  0.00000000000E+00 0. -1.
         -2    1    1    2    0  502  0.21018275102E+02  0.99734765953E-01  0.13454085841E+03  0.13617275945E+03  0.00000000000E+00 0.  1.
<mgrwt>
<rscale>  2 0.21018512E+02</rscale>
<asrwt>0</asrwt>
<pdfrwt beam="1">  1       21 0.21549128E-01 0.21018512E+02</pdfrwt>
<pdfrwt beam="2">  1       21 0.37311230E-02 0.21018512E+02</pdfrwt>
<totfact> 0.70574676E+06</totfact>
</mgrwt>
</event>
<event>
 4    1  0.2812958E+004  0.2113989E+02  0.7546771E-02  0.1723566E+00
         21   -1    0    0  501  502  0.00000000000E+00  0.00000000000E+00  0.38327976650E+01  0.38327976650E+01  0.00000000000E+00 0.  1.
         21   -1    0    0  502  503 -0.00000000000E+00 -0.00000000000E+00 -0.20606131202E+03  0.20606131202E+03  0.00000000000E+00 0. -1.
          2    1    1    2  501    0  0.20912278813E+02 -0.30937689541E+01 -0.31963712216E+02  0.38321974246E+02  0.00000000000E+00 0.  1.
         -2    1    1    2    0  503 -0.20912278813E+02  0.30937689541E+01 -0.17026480214E+03  0.17157213544E+03  0.00000000000E+00 0. -1.
<mgrwt>
<rscale>  2 0.21139887E+02</rscale>
<asrwt>0</asrwt>
<pdfrwt beam="1">  1       21 0.58966131E-03 0.21139887E+02</pdfrwt>
<pdfrwt beam="2">  1       21 0.31701733E-01 0.21139887E+02</pdfrwt>
<totfact> 0.58231077E+07</totfact>
</mgrwt>
</event>
<event>
 4    1  0.2812958E+004  0.2861421E+02  0.7546771E-02  0.1613932E+00
         21   -1    0    0  503  502  0.00000000000E+00  0.00000000000E+00  0.18718488634E+03  0.18718488634E+03  0.00000000000E+00 0. -1.
         21   -1    0    0  501  503 -0.00000000000E+00 -0.00000000000E+00 -0.45236621399E+01  0.45236621399E+01  0.00000000000E+00 0.  1.
          2    1    1    2  501    0  0.12349426377E+02 -0.25812104987E+02  0.73903812930E+02  0.79249900071E+02  0.00000000000E+00 0.  1.
         -2    1    1    2    0  502 -0.12349426377E+02  0.25812104987E+02  0.10875741127E+03  0.11245864840E+03  0.00000000000E+00 0. -1.
<mgrwt>
<rscale>  2 0.28614211E+02</rscale>
<asrwt>0</asrwt>
<pdfrwt beam="1">  1       21 0.28797669E-01 0.28614211E+02</pdfrwt>
<pdfrwt beam="2">  1       21 0.69594817E-03 0.28614211E+02</pdfrwt>
<totfact> 0.58322055E+07</totfact>
</mgrwt>
</event>
<event>
 4    1  0.2812958E+004  0.2324264E+02  0.7546771E-02  0.1687607E+00
         21   -1    0    0  503  502  0.00000000000E+00  0.00000000000E+00  0.51682564793E+02  0.51682564793E+02  0.00000000000E+00 0.  1.
         21   -1    0    0  501  503 -0.00000000000E+00 -0.00000000000E+00 -0.34268740337E+02  0.34268740337E+02  0.00000000000E+00 0. -1.
          2    1    1    2  501    0  0.23223661029E+02 -0.93899710956E+00 -0.27119933689E+02  0.35717096053E+02  0.00000000000E+00 0. -1.
         -2    1    1    2    0  502 -0.23223661029E+02  0.93899710956E+00  0.44533758145E+02  0.50234209078E+02  0.00000000000E+00 0.  1.
<mgrwt>
<rscale>  2 0.23242636E+02</rscale>
<asrwt>0</asrwt>
<pdfrwt beam="1">  1       21 0.79511638E-02 0.23242636E+02</pdfrwt>
<pdfrwt beam="2">  1       21 0.52721139E-02 0.23242636E+02</pdfrwt>
<totfact> 0.22382832E+07</totfact>
</mgrwt>
</event>
<event>
 4    1  0.2812958E+004  0.2252520E+02  0.7546771E-02  0.1699324E+00
         21   -1    0    0  501  502  0.00000000000E+00  0.00000000000E+00  0.44105174430E+03  0.44105174430E+03  0.00000000000E+00 0.  1.
         21   -1    0    0  502  503 -0.00000000000E+00 -0.00000000000E+00 -0.21376223497E+01  0.21376223497E+01  0.00000000000E+00 0. -1.
          2    1    1    2  501    0  0.15282113423E+02 -0.16548156503E+02  0.37004911576E+03  0.37073404558E+03  0.00000000000E+00 0.  1.
         -2    1    1    2    0  503 -0.15282113423E+02  0.16548156503E+02  0.68865006188E+02  0.72455321071E+02  0.00000000000E+00 0. -1.
<mgrwt>
<rscale>  2 0.22525196E+02</rscale>
<asrwt>0</asrwt>
<pdfrwt beam="1">  1       21 0.67854042E-01 0.22525196E+02</pdfrwt>
<pdfrwt beam="2">  1       21 0.32886533E-03 0.22525196E+02</pdfrwt>
<totfact> 0.32251526E+07</totfact>
</mgrwt>
</event>
<event>
 4    1  0.2812958E+004  0.5518378E+02  0.7546771E-02  0.1419232E+00
         21   -1    0    0  503  502  0.00000000000E+00  0.00000000000E+00  0.22505243939E+02  0.22505243939E+02  0.00000000000E+00 0.  1.
         21   -1    0    0  501  503 -0.00000000000E+00 -0.00000000000E+00 -0.13605532387E+03  0.13605532387E+03  0.00000000000E+00 0. -1.
          2    1    1    2  501    0 -0.30860814081E+02  0.45747786086E+02 -0.50918596223E+02  0.75086305135E+02  0.00000000000E+00 0. -1.
         -2    1    1    2    0  502  0.30860814081E+02 -0.45747786086E+02 -0.62631483709E+02  0.83474262674E+02  0.00000000000E+00 0.  1.
<mgrwt>
<rscale>  2 0.55183782E+02</rscale>
<asrwt>0</asrwt>
<pdfrwt beam="1">  1       21 0.34623452E-02 0.55183782E+02</pdfrwt>
<pdfrwt beam="2">  1       21 0.20931588E-01 0.55183782E+02</pdfrwt>
<totfact> 0.96143604E+06</totfact>
</mgrwt>
</event>
<event>
 4    1  0.2812958E+004  0.2009989E+02  0.7546771E-02  0.1743349E+00
         21   -1    0    0  503  502  0.00000000000E+00  0.00000000000E+00  0.30186743354E+02  0.30186743354E+02  0.00000000000E+00 0. -1.
         21   -1    0    0  501  503 -0.00000000000E+00 -0.00000000000E+00 -0.45443014520E+02  0.45443014520E+02  0.00000000000E+00 0.  1.
          2    1    1    2  501    0  0.14875738132E+02 -0.13517315954E+02 -0.39390100643E+02  0.44222001812E+02  0.00000000000E+00 0.  1.
         -2    1    1    2    0  502 -0.14875738132E+02  0.13517315954E+02  0.24133829478E+02  0.31407756062E+02  0.00000000000E+00 0. -1.
<mgrwt>
<rscale>  2 0.20099886E+02</rscale>
<asrwt>0</asrwt>
<pdfrwt beam="1">  1       21 0.46441144E-02 0.20099886E+02</pdfrwt>
<pdfrwt beam="2">  1       21 0.69912330E-02 0.20099886E+02</pdfrwt>
<totfact> 0.32567656E+07</totfact>
</mgrwt>
</event>
<event>
 4    1  0.2812958E+004  0.2670565E+02  0.7546771E-02  0.1637646E+00
         21   -1    0    0  501  502  0.00000000000E+00  0.00000000000E+00  0.50014677120E+02  0.50014677120E+02  0.00000000000E+00 0. -1.
         21   -1    0    0  502  503 -0.00000000000E+00 -0.00000000000E+00 -0.19354569247E+02  0.19354569247E+02  0.00000000000E+00 0.  1.
          2    1    1    2  501    0 -0.26701404583E+02 -0.47609748067E+00  0.33125708875E+02  0.42550020728E+02  0.00000000000E+00 0. -1.
         -2    1    1    2    0  503  0.26701404583E+02  0.47609748067E+00 -0.24656010021E+01  0.26819225638E+02  0.00000000000E+00 0.  1.
<mgrwt>
<rscale>  2 0.26705649E+02</rscale>
<asrwt>0</asrwt>
<pdfrwt beam="1">  1       21 0.76945657E-02 0.26705649E+02</pdfrwt>
<pdfrwt beam="2">  1       21 0.29776261E-02 0.26705649E+02</pdfrwt>
<totfact> 0.60175865E+07</totfact>
</mgrwt>
</event>
<event>
 4    1  0.2812958E+004  0.3502231E+02  0.7546771E-02  0.1548403E+00
         21   -1    0    0  503  502  0.00000000000E+00  0.00000000000E+00  0.53216574273E+00  0.53216574273E+00  0.00000000000E+00 0. -1.
         21   -1    0    0  501  503 -0.00000000000E+00 -0.00000000000E+00 -0.26815832186E+04  0.26815832186E+04  0.00000000000E+00 0.  1.
          2    1    1    2  501    0 -0.10816311794E+02 -0.33310198378E+02 -0.18431794766E+04  0.18435121765E+04  0.00000000000E+00 0.  1.
         -2    1    1    2    0  502  0.10816311794E+02  0.33310198378E+02 -0.83787157624E+03  0.83860320783E+03  0.00000000000E+00 0. -1.
<mgrwt>
<rscale>  2 0.35022306E+02</rscale>
<asrwt>0</asrwt>
<pdfrwt beam="1">  1       21 0.81872973E-04 0.35022306E+02</pdfrwt>
<pdfrwt beam="2">  1       21 0.41254461E+00 0.35022306E+02</pdfrwt>
<totfact> 0.16301223E+06</totfact>
</mgrwt>
</event>
<event>
 4    1  0.2812958E+004  0.2953819E+02  0.7546771E-02  0.1603250E+00
         21   -1    0    0  501  502  0.00000000000E+00  0.00000000000E+00  0.68415685670E+01  0.68415685670E+01  0.00000000000E+00 0.  1.
         21   -1    0    0  502  503 -0.00000000000E+00 -0.00000000000E+00 -0.14198155898E+03  0.14198155898E+03  0.00000000000E+00 0. -1.
          2    1    1    2  501    0  0.20686012678E+02 -0.21085393604E+02 -0.91310090600E+02  0.95968940754E+02  0.00000000000E+00 0. -1.
         -2    1    1    2    0  503 -0.20686012678E+02  0.21085393604E+02 -0.43829899809E+02  0.52854186790E+02  0.00000000000E+00 0.  1.
<mgrwt>
<rscale>  2 0.29538195E+02</rscale>
<asrwt>0</asrwt>
<pdfrwt beam="1">  1       21 0.10525491E-02 0.29538195E+02</pdfrwt>
<pdfrwt beam="2">  1       21 0.21843316E-01 0.29538195E+02</pdfrwt>
<totfact> 0.51801627E+07</totfact>
</mgrwt>
</event>
<event>
 4    1  0.2812958E+004  0.2932272E+02  0.7546771E-02  0.1605698E+00
         21   -1    0    0  501  502  0.00000000000E+00  0.00000000000E+00  0.24133679586E+03  0.24133679586E+03  0.00000000000E+00 0. -1.
         21   -1    0    0  502  503 -0.00000000000E+00 -0.00000000000E+00 -0.89049149035E+01  0.89049149035E+01  0.00000000000E+00 0.  1.
          2    1    1    2  501    0 -0.18125318117E+02  0.23049836438E+02  0.21312704781E+03  0.21513474993E+03  0.00000000000E+00 0. -1.
         -2    1    1    2    0  503  0.18125318117E+02 -0.23049836438E+02  0.19304833149E+02  0.35106960842E+02  0.00000000000E+00 0.  1.
<mgrwt>
<rscale>  2 0.29322724E+02</rscale>
<asrwt>0</asrwt>
<pdfrwt beam="1">  1       21 0.37128733E-01 0.29322724E+02</pdfrwt>
<pdfrwt beam="2">  1       21 0.13699871E-02 0.29322724E+02</pdfrwt>
<totfact> 0.13127129E+07</totfact>
</mgrwt>
</event>
<event>
 4    1  0.2812958E+004  0.2373386E+02  0.7546771E-02  0.1679883E+00
         21   -1    0    0  501  502  0.00000000000E+00  0.00000000000E+00  0.25985188101E+02  0.25985188101E+02  0.00000000000E+00 0. -1.
         21   -1    0    0  502  503 -0.00000000000E+00 -0.00000000000E+00 -0.73813405122E+02  0.73813405122E+02  0.00000000000E+00 0.  1.
          2    1    1    2  501    0  0.16449240208E+02 -0.17109019512E+02  0.18022655900E+02  0.29801211012E+02  0.00000000000E+00 0. -1.
         -2    1    1    2    0  503 -0.16449240208E+02  0.17109019512E+02 -0.65850872921E+02  0.69997382212E+02  0.00000000000E+00 0.  1.
<mgrwt>
<rscale>  2 0.23733859E+02</rscale>
<asrwt>0</asrwt>
<pdfrwt beam="1">  1       21 0.39977212E-02 0.23733859E+02</pdfrwt>
<pdfrwt beam="2">  1       21 0.11355909E-01 0.23733859E+02</pdfrwt>
<totfact> 0.19372788E+07</totfact>
</mgrwt>
</event>
<event>
 4    1  0.2812958E+004  0.2703989E+02  0.7546771E-02  0.1633320E+00
         21   -1    0    0  501  502  0.00000000000E+00  0.00000000000E+00  0.65673057679E+02  0.65673057679E+02  0.00000000000E+00 0.  1.
         21   -1    0    0  502  503 -0.00000000000E+00 -0.00000000000E+00 -0.11579232932E+02  0.11579232932E+02  0.00000000000E+00 0. -1.
          2    1    1    2  501    0 -0.26989272288E+02 -0.16537902325E+01  0.34627295697E+02  0.43934103474E+02  0.00000000000E+00 0. -1.
         -2    1    1    2    0  503  0.26989272288E+02  0.16537902325E+01  0.19466529050E+02  0.33318187136E+02  0.00000000000E+00 0.  1.
<mgrwt>
<rscale>  2 0.27039894E+02</rscale>
<asrwt>0</asrwt>
<pdfrwt beam="1">  1       21 0.10103547E-01 0.27039894E+02</pdfrwt>
<pdfrwt beam="2">  1       21 0.17814205E-02 0.27039894E+02</pdfrwt>
<totfact> 0.85393039E+07</totfact>
</mgrwt>
</event>
<event>
 4    1  0.2812958E+004  0.2824413E+02  0.7546771E-02  0.1618350E+00
         21   -1    0    0  501  502  0.00000000000E+00  0.00000000000E+00  0.21344893138E+03  0.21344893138E+03  0.00000000000E+00 0. -1.
         21   -1    0    0  502  503 -0.00000000000E+00 -0.00000000000E+00 -0.88803667609E+01  0.88803667609E+01  0.00000000000E+00 0.  1.
          2    1    1    2  501    0 -0.11327396610E+02  0.25873171389E+02  0.18688240094E+03  0.18900466315E+03  0.00000000000E+00 0. -1.
         -2    1    1    2    0  503  0.11327396610E+02 -0.25873171389E+02  0.17686163683E+02  0.33324634994E+02  0.00000000000E+00 0.  1.
<mgrwt>
<rscale>  2 0.28244131E+02</rscale>
<asrwt>0</asrwt>
<pdfrwt beam="1">  1       21 0.32838293E-01 0.28244131E+02</pdfrwt>
<pdfrwt beam="2">  1       21 0.13662104E-02 0.28244131E+02</pdfrwt>
<totfact> 0.16474375E+07</totfact>
</mgrwt>
</event>
<event>
 4    1  0.2812958E+004  0.3287830E+02  0.7546771E-02  0.1568291E+00
         21   -1    0    0  501  502  0.00000000000E+00  0.00000000000E+00  0.20607913000E+02  0.20607913000E+02  0.00000000000E+00 0.  1.
         21   -1    0    0  502  503 -0.00000000000E+00 -0.00000000000E+00 -0.18567590355E+03  0.18567590355E+03  0.00000000000E+00 0. -1.
          2    1    1    2  501    0  0.19434023482E+02 -0.26519827542E+02  0.48323193042E+01  0.33231518645E+02  0.00000000000E+00 0.  1.
         -2    1    1    2    0  503 -0.19434023482E+02  0.26519827542E+02 -0.16990030986E+03  0.17305229791E+03  0.00000000000E+00 0. -1.
<mgrwt>
<rscale>  2 0.32878299E+02</rscale>
<asrwt>0</asrwt>
<pdfrwt beam="1">  1       21 0.31704481E-02 0.32878299E+02</pdfrwt>
<pdfrwt beam="2">  1       21 0.28565524E-01 0.32878299E+02</pdfrwt>
<totfact> 0.59025247E+06</totfact>
</mgrwt>
</event>
<event>
 4    1  0.2812958E+004  0.3046322E+02  0.7546771E-02  0.1593024E+00
         21   -1    0    0  503  502  0.00000000000E+00  0.00000000000E+00  0.66146055567E+02  0.66146055567E+02  0.00000000000E+00 0.  1.
         21   -1    0    0  501  503 -0.00000000000E+00 -0.00000000000E+00 -0.14146011622E+02  0.14146011622E+02  0.00000000000E+00 0. -1.
          2    1    1    2  501    0  0.79519684108E+01  0.29407037984E+02  0.22359335923E+02  0.37788193758E+02  0.00000000000E+00 0. -1.
         -2    1    1    2    0  502 -0.79519684108E+01 -0.29407037984E+02  0.29640708022E+02  0.42503873431E+02  0.00000000000E+00 0.  1.
<mgrwt>
<rscale>  2 0.30463219E+02</rscale>
<asrwt>0</asrwt>
<pdfrwt beam="1">  1       21 0.10176316E-01 0.30463219E+02</pdfrwt>
<pdfrwt beam="2">  1       21 0.21763095E-02 0.30463219E+02</pdfrwt>
<totfact> 0.63724300E+07</totfact>
</mgrwt>
</event>
