<event>
 5    1  0.3845386E+001  0.9139109E+02  0.7546771E-02  0.1299518E+00
          2   -1    0    0  501    0  0.00000000000E+00  0.00000000000E+00  0.41762012792E+03  0.41762012792E+03  0.00000000000E+00 0. -1.
         -2   -1    0    0    0  501 -0.00000000000E+00 -0.00000000000E+00 -0.49999578656E+01  0.49999578656E+01  0.00000000000E+00 0.  1.
         23    2    1    2    0    0  0.00000000000E+00  0.00000000000E+00  0.41262017006E+03  0.42262008579E+03  0.91391094609E+02 0.  0.
          2    1    3    3  502    0  0.18382624976E+02  0.31161872711E+02  0.77234884007E+02  0.85288982404E+02  0.00000000000E+00 0.  1.
         -2    1    3    3    0  502 -0.18382624976E+02 -0.31161872711E+02  0.33538528605E+03  0.33733110338E+03  0.00000000000E+00 0. -1.
<mgrwt>
<rscale>  0 0.91391095E+02</rscale>
<asrwt>0</asrwt>
<pdfrwt beam="1">  1        2 0.64249223E-01 0.91391095E+02</pdfrwt>
<pdfrwt beam="2">  1       -2 0.76922462E-03 0.91391095E+02</pdfrwt>
<totfact> 0.20144551E+05</totfact>
</mgrwt>
</event>
<event>
 5    1  0.3845386E+001  0.9270535E+02  0.7546771E-02  0.1296429E+00
         -3   -1    0    0    0  501 -0.00000000000E+00  0.00000000000E+00  0.11077785442E+02  0.11077785442E+02  0.00000000000E+00 0.  1.
          3   -1    0    0  501    0  0.00000000000E+00 -0.00000000000E+00 -0.19395307554E+03  0.19395307554E+03  0.00000000000E+00 0. -1.
         23    2    1    2    0    0  0.00000000000E+00  0.00000000000E+00 -0.18287529010E+03  0.20503086098E+03  0.92705351661E+02 0.  0.
          2    1    3    3  502    0  0.37428743888E+02  0.27280244316E+02 -0.95544367888E+02  0.10617838214E+03  0.00000000000E+00 0. -1.
         -2    1    3    3    0  502 -0.37428743888E+02 -0.27280244316E+02 -0.87330922209E+02  0.98852478840E+02  0.00000000000E+00 0.  1.
<mgrwt>
<rscale>  0 0.92705352E+02</rscale>
<asrwt>0</asrwt>
<pdfrwt beam="2">  1        3 0.29838934E-01 0.92705352E+02</pdfrwt>
<pdfrwt beam="1">  1       -3 0.17042747E-02 0.92705352E+02</pdfrwt>
<totfact> 0.26999297E+04</totfact>
</mgrwt>
</event>
<event>
 5    1  0.3845386E+001  0.9130786E+02  0.7546771E-02  0.1299715E+00
          2   -1    0    0  501    0  0.00000000000E+00  0.00000000000E+00  0.11187245003E+04  0.11187245003E+04  0.00000000000E+00 0.  1.
         -2   -1    0    0    0  501 -0.00000000000E+00 -0.00000000000E+00 -0.18630870844E+01  0.18630870844E+01  0.00000000000E+00 0. -1.
         23    2    1    2    0    0  0.00000000000E+00  0.00000000000E+00  0.11168614132E+04  0.11205875874E+04  0.91307856563E+02 0.  0.
          2    1    3    3  502    0  0.35880659146E+02  0.41626980754E+01  0.21577776098E+03  0.21878023652E+03  0.00000000000E+00 0. -1.
         -2    1    3    3    0  502 -0.35880659146E+02 -0.41626980754E+01  0.90108365222E+03  0.90180735085E+03  0.00000000000E+00 0.  1.
<mgrwt>
<rscale>  0 0.91307857E+02</rscale>
<asrwt>0</asrwt>
<pdfrwt beam="1">  1        2 0.17211092E+00 0.91307857E+02</pdfrwt>
<pdfrwt beam="2">  1       -2 0.28662968E-03 0.91307857E+02</pdfrwt>
<totfact> 0.24908611E+05</totfact>
</mgrwt>
</event>
<event>
 5    1  0.3845386E+001  0.9247221E+02  0.7546771E-02  0.1296973E+00
          1   -1    0    0  501    0  0.00000000000E+00  0.00000000000E+00  0.76634818751E+01  0.76634818751E+01  0.00000000000E+00 0. -1.
         -1   -1    0    0    0  501 -0.00000000000E+00 -0.00000000000E+00 -0.27895638299E+03  0.27895638299E+03  0.00000000000E+00 0.  1.
         23    2    1    2    0    0  0.00000000000E+00  0.00000000000E+00 -0.27129290112E+03  0.28661986487E+03  0.92472205230E+02 0.  0.
          2    1    3    3  502    0  0.39966401520E+02 -0.15598570023E+02 -0.82216856025E+02  0.92737479218E+02  0.00000000000E+00 0. -1.
         -2    1    3    3    0  502 -0.39966401520E+02  0.15598570023E+02 -0.18907604509E+03  0.19388238565E+03  0.00000000000E+00 0.  1.
<mgrwt>
<rscale>  0 0.92472205E+02</rscale>
<asrwt>0</asrwt>
<pdfrwt beam="1">  1        1 0.11789971E-02 0.92472205E+02</pdfrwt>
<pdfrwt beam="2">  1       -1 0.42916369E-01 0.92472205E+02</pdfrwt>
<totfact> 0.60036485E+04</totfact>
</mgrwt>
</event>
<event>
 5    1  0.3845386E+001  0.9507067E+02  0.7546771E-02  0.1291017E+00
          2   -1    0    0  501    0  0.00000000000E+00  0.00000000000E+00  0.50349835555E+02  0.50349835555E+02  0.00000000000E+00 0. -1.
         -2   -1    0    0    0  501 -0.00000000000E+00 -0.00000000000E+00 -0.44878165355E+02  0.44878165355E+02  0.00000000000E+00 0.  1.
         23    2    1    2    0    0  0.00000000000E+00  0.00000000000E+00  0.54716702005E+01  0.95228000910E+02  0.95070673620E+02 0.  0.
          2    1    3    3  502    0  0.78090193935E+01 -0.28216420560E+02 -0.34775584846E+02  0.45458645762E+02  0.00000000000E+00 0.  1.
         -2    1    3    3    0  502 -0.78090193935E+01  0.28216420560E+02  0.40247255047E+02  0.49769355149E+02  0.00000000000E+00 0. -1.
<mgrwt>
<rscale>  0 0.95070674E+02</rscale>
<asrwt>0</asrwt>
<pdfrwt beam="1">  1        2 0.77461285E-02 0.95070674E+02</pdfrwt>
<pdfrwt beam="2">  1       -2 0.69043331E-02 0.95070674E+02</pdfrwt>
<totfact> 0.89826863E+04</totfact>
</mgrwt>
</event>
<event>
 5    1  0.3845386E+001  0.8928954E+02  0.7546771E-02  0.1304581E+00
          2   -1    0    0  501    0  0.00000000000E+00  0.00000000000E+00  0.47756965907E+03  0.47756965907E+03  0.00000000000E+00 0. -1.
         -2   -1    0    0    0  501 -0.00000000000E+00 -0.00000000000E+00 -0.41735391040E+01  0.41735391040E+01  0.00000000000E+00 0.  1.
         23    2    1    2    0    0  0.00000000000E+00  0.00000000000E+00  0.47339611997E+03  0.48174319817E+03  0.89289543553E+02 0.  0.
          2    1    3    3  502    0 -0.36245652228E+02 -0.18943318774E+02  0.33329624940E+03  0.33579604896E+03  0.00000000000E+00 0. -1.
         -2    1    3    3    0  502  0.36245652228E+02  0.18943318774E+02  0.14009987056E+03  0.14594714921E+03  0.00000000000E+00 0.  1.
<mgrwt>
<rscale>  0 0.89289544E+02</rscale>
<asrwt>0</asrwt>
<pdfrwt beam="1">  1        2 0.73472212E-01 0.89289544E+02</pdfrwt>
<pdfrwt beam="2">  1       -2 0.64208332E-03 0.89289544E+02</pdfrwt>
<totfact> 0.22433635E+05</totfact>
</mgrwt>
</event>
<event>
 5    1  0.3845386E+001  0.9054787E+02  0.7546771E-02  0.1301530E+00
          1   -1    0    0  501    0  0.00000000000E+00  0.00000000000E+00  0.18503062741E+03  0.18503062741E+03  0.00000000000E+00 0. -1.
         -1   -1    0    0    0  501 -0.00000000000E+00 -0.00000000000E+00 -0.11077783781E+02  0.11077783781E+02  0.00000000000E+00 0.  1.
         23    2    1    2    0    0  0.00000000000E+00  0.00000000000E+00  0.17395284363E+03  0.19610841119E+03  0.90547872051E+02 0.  0.
          2    1    3    3  502    0 -0.41065108064E+02 -0.16256517226E+02  0.65414834897E+02  0.78928563127E+02  0.00000000000E+00 0.  1.
         -2    1    3    3    0  502  0.41065108064E+02  0.16256517226E+02  0.10853800873E+03  0.11717984807E+03  0.00000000000E+00 0. -1.
<mgrwt>
<rscale>  0 0.90547872E+02</rscale>
<asrwt>0</asrwt>
<pdfrwt beam="1">  1        1 0.28466248E-01 0.90547872E+02</pdfrwt>
<pdfrwt beam="2">  1       -1 0.17042746E-02 0.90547872E+02</pdfrwt>
<totfact> 0.11882778E+05</totfact>
</mgrwt>
</event>
<event>
 5    1  0.3845386E+001  0.9081357E+02  0.7546771E-02  0.1300893E+00
         -3   -1    0    0    0  501 -0.00000000000E+00  0.00000000000E+00  0.12891899945E+03  0.12891899945E+03  0.00000000000E+00 0.  1.
          3   -1    0    0  501    0  0.00000000000E+00 -0.00000000000E+00 -0.15992803460E+02  0.15992803460E+02  0.00000000000E+00 0. -1.
         23    2    1    2    0    0  0.00000000000E+00  0.00000000000E+00  0.11292619599E+03  0.14491180291E+03  0.90813572124E+02 0.  0.
          2    1    3    3  502    0  0.41518707584E+02  0.18133667948E+02  0.51638037424E+02  0.68695850688E+02  0.00000000000E+00 0. -1.
         -2    1    3    3    0  502 -0.41518707584E+02 -0.18133667948E+02  0.61288158565E+02  0.76215952222E+02  0.00000000000E+00 0.  1.
<mgrwt>
<rscale>  0 0.90813572E+02</rscale>
<asrwt>0</asrwt>
<pdfrwt beam="2">  1        3 0.24604314E-02 0.90813572E+02</pdfrwt>
<pdfrwt beam="1">  1       -3 0.19833692E-01 0.90813572E+02</pdfrwt>
<totfact> 0.31966121E+04</totfact>
</mgrwt>
</event>
<event>
 5    1  0.3845386E+001  0.8640243E+02  0.7546771E-02  0.1311805E+00
         -2   -1    0    0    0  501 -0.00000000000E+00  0.00000000000E+00  0.15355683156E+01  0.15355683156E+01  0.00000000000E+00 0.  1.
          2   -1    0    0  501    0  0.00000000000E+00 -0.00000000000E+00 -0.12154098140E+04  0.12154098140E+04  0.00000000000E+00 0. -1.
         23    2    1    2    0    0  0.00000000000E+00  0.00000000000E+00 -0.12138742457E+04  0.12169453823E+04  0.86402425913E+02 0.  0.
          2    1    3    3  502    0 -0.10924625544E+02  0.33861011828E+02 -0.95206184182E+03  0.95272643829E+03  0.00000000000E+00 0. -1.
         -2    1    3    3    0  502  0.10924625544E+02 -0.33861011828E+02 -0.26181240387E+03  0.26421894403E+03  0.00000000000E+00 0.  1.
<mgrwt>
<rscale>  0 0.86402426E+02</rscale>
<asrwt>0</asrwt>
<pdfrwt beam="2">  1        2 0.18698714E+00 0.86402426E+02</pdfrwt>
<pdfrwt beam="1">  1       -2 0.23624000E-03 0.86402426E+02</pdfrwt>
<totfact> 0.28598846E+05</totfact>
</mgrwt>
</event>
<event>
 5    1  0.3845386E+001  0.9141666E+02  0.7546771E-02  0.1299457E+00
          2   -1    0    0  501    0  0.00000000000E+00  0.00000000000E+00  0.17918710992E+04  0.17918710992E+04  0.00000000000E+00 0. -1.
         -2   -1    0    0    0  501 -0.00000000000E+00 -0.00000000000E+00 -0.11659607633E+01  0.11659607633E+01  0.00000000000E+00 0.  1.
         23    2    1    2    0    0  0.00000000000E+00  0.00000000000E+00  0.17907051384E+04  0.17930370599E+04  0.91416659193E+02 0.  0.
          2    1    3    3  502    0  0.27179732209E+02  0.19944759259E+02  0.15007583878E+04  0.15011369923E+04  0.00000000000E+00 0. -1.
         -2    1    3    3    0  502 -0.27179732209E+02 -0.19944759259E+02  0.28994675063E+03  0.29190006760E+03  0.00000000000E+00 0.  1.
<mgrwt>
<rscale>  0 0.91416659E+02</rscale>
<asrwt>0</asrwt>
<pdfrwt beam="1">  1        2 0.27567027E+00 0.91416659E+02</pdfrwt>
<pdfrwt beam="2">  1       -2 0.17938001E-03 0.91416659E+02</pdfrwt>
<totfact> 0.21351634E+05</totfact>
</mgrwt>
</event>
<event>
 5    1  0.3845386E+001  0.9189475E+02  0.7546771E-02  0.1298327E+00
         -1   -1    0    0    0  501 -0.00000000000E+00  0.00000000000E+00  0.26423341634E+02  0.26423341634E+02  0.00000000000E+00 0.  1.
          1   -1    0    0  501    0  0.00000000000E+00 -0.00000000000E+00 -0.79897593517E+02  0.79897593517E+02  0.00000000000E+00 0. -1.
         23    2    1    2    0    0  0.00000000000E+00  0.00000000000E+00 -0.53474251884E+02  0.10632093515E+03  0.91894753043E+02 0.  0.
          2    1    3    3  502    0  0.19134195808E+02  0.25096043545E+02 -0.65374783829E+02  0.72593327596E+02  0.00000000000E+00 0. -1.
         -2    1    3    3    0  502 -0.19134195808E+02 -0.25096043545E+02  0.11900531945E+02  0.33727607555E+02  0.00000000000E+00 0.  1.
<mgrwt>
<rscale>  0 0.91894753E+02</rscale>
<asrwt>0</asrwt>
<pdfrwt beam="2">  1        1 0.12291937E-01 0.91894753E+02</pdfrwt>
<pdfrwt beam="1">  1       -1 0.40651295E-02 0.91894753E+02</pdfrwt>
<totfact> 0.98575362E+04</totfact>
</mgrwt>
</event>
<event>
 5    1  0.3845386E+001  0.9233873E+02  0.7546771E-02  0.1297285E+00
         -3   -1    0    0    0  501 -0.00000000000E+00  0.00000000000E+00  0.21973012462E+02  0.21973012462E+02  0.00000000000E+00 0.  1.
          3   -1    0    0  501    0  0.00000000000E+00 -0.00000000000E+00 -0.97010387984E+02  0.97010387984E+02  0.00000000000E+00 0. -1.
         23    2    1    2    0    0  0.00000000000E+00  0.00000000000E+00 -0.75037375522E+02  0.11898340045E+03  0.92338734323E+02 0.  0.
          2    1    3    3  502    0  0.31912989062E+02  0.27641688679E+02 -0.61594600346E+02  0.74675274460E+02  0.00000000000E+00 0. -1.
         -2    1    3    3    0  502 -0.31912989062E+02 -0.27641688679E+02 -0.13442775176E+02  0.44308125986E+02  0.00000000000E+00 0.  1.
<mgrwt>
<rscale>  0 0.92338734E+02</rscale>
<asrwt>0</asrwt>
<pdfrwt beam="2">  1        3 0.14924675E-01 0.92338734E+02</pdfrwt>
<pdfrwt beam="1">  1       -3 0.33804634E-02 0.92338734E+02</pdfrwt>
<totfact> 0.32186979E+04</totfact>
</mgrwt>
</event>
<event>
 5    1  0.3845386E+001  0.9069338E+02  0.7546771E-02  0.1301181E+00
         -1   -1    0    0    0  501 -0.00000000000E+00  0.00000000000E+00  0.13761550738E+01  0.13761550738E+01  0.00000000000E+00 0.  1.
          1   -1    0    0  501    0  0.00000000000E+00 -0.00000000000E+00 -0.14942518431E+04  0.14942518431E+04  0.00000000000E+00 0. -1.
         23    2    1    2    0    0  0.00000000000E+00  0.00000000000E+00 -0.14928756880E+04  0.14956279982E+04  0.90693379152E+02 0.  0.
          2    1    3    3  502    0  0.30778323984E+02 -0.29142909540E+02 -0.10121984118E+04  0.10130855044E+04  0.00000000000E+00 0. -1.
         -2    1    3    3    0  502 -0.30778323984E+02  0.29142909540E+02 -0.48067727628E+03  0.48254249381E+03  0.00000000000E+00 0.  1.
<mgrwt>
<rscale>  0 0.90693379E+02</rscale>
<asrwt>0</asrwt>
<pdfrwt beam="2">  1        1 0.22988470E+00 0.90693379E+02</pdfrwt>
<pdfrwt beam="1">  1       -1 0.21171635E-03 0.90693379E+02</pdfrwt>
<totfact> 0.11242788E+05</totfact>
</mgrwt>
</event>
<event>
 5    1  0.3845386E+001  0.9090407E+02  0.7546771E-02  0.1300677E+00
          2   -1    0    0  501    0  0.00000000000E+00  0.00000000000E+00  0.15476818447E+04  0.15476818447E+04  0.00000000000E+00 0. -1.
         -2   -1    0    0    0  501 -0.00000000000E+00 -0.00000000000E+00 -0.13348270217E+01  0.13348270217E+01  0.00000000000E+00 0.  1.
         23    2    1    2    0    0  0.00000000000E+00  0.00000000000E+00  0.15463470177E+04  0.15490166717E+04  0.90904071357E+02 0.  0.
          2    1    3    3  502    0  0.65259187308E+01  0.24826005333E+02  0.13400542308E+03  0.13644182486E+03  0.00000000000E+00 0.  1.
         -2    1    3    3    0  502 -0.65259187308E+01 -0.24826005333E+02  0.14123415946E+04  0.14125748469E+04  0.00000000000E+00 0. -1.
<mgrwt>
<rscale>  0 0.90904071E+02</rscale>
<asrwt>0</asrwt>
<pdfrwt beam="1">  1        2 0.23810346E+00 0.90904071E+02</pdfrwt>
<pdfrwt beam="2">  1       -2 0.20535924E-03 0.90904071E+02</pdfrwt>
<totfact> 0.23486531E+05</totfact>
</mgrwt>
</event>
<event>
 5    1  0.3845386E+001  0.9174285E+02  0.7546771E-02  0.1298685E+00
          1   -1    0    0  501    0  0.00000000000E+00  0.00000000000E+00  0.21182613030E+03  0.21182613030E+03  0.00000000000E+00 0. -1.
         -1   -1    0    0    0  501 -0.00000000000E+00 -0.00000000000E+00 -0.99335591881E+01  0.99335591881E+01  0.00000000000E+00 0.  1.
         23    2    1    2    0    0  0.00000000000E+00  0.00000000000E+00  0.20189257111E+03  0.22175968948E+03  0.91742845015E+02 0.  0.
          2    1    3    3  502    0  0.28071242380E+02 -0.35926582111E+02  0.11314613022E+03  0.12198672360E+03  0.00000000000E+00 0. -1.
         -2    1    3    3    0  502 -0.28071242380E+02  0.35926582111E+02  0.88746440889E+02  0.99772965885E+02  0.00000000000E+00 0.  1.
<mgrwt>
<rscale>  0 0.91742845E+02</rscale>
<asrwt>0</asrwt>
<pdfrwt beam="1">  1        1 0.32588632E-01 0.91742845E+02</pdfrwt>
<pdfrwt beam="2">  1       -1 0.15282400E-02 0.91742845E+02</pdfrwt>
<totfact> 0.11776491E+05</totfact>
</mgrwt>
</event>
<event>
 5    1  0.3845386E+001  0.9795274E+02  0.7546771E-02  0.1284661E+00
         -4   -1    0    0    0  501 -0.00000000000E+00  0.00000000000E+00  0.15685190247E+02  0.15685190247E+02  0.00000000000E+00 0.  1.
          4   -1    0    0  501    0  0.00000000000E+00 -0.00000000000E+00 -0.15292672465E+03  0.15292672465E+03  0.00000000000E+00 0. -1.
         23    2    1    2    0    0  0.00000000000E+00  0.00000000000E+00 -0.13724153440E+03  0.16861191489E+03  0.97952739011E+02 0.  0.
          2    1    3    3  502    0  0.34600372431E+02 -0.76650680467E+01 -0.12681051563E+03  0.13166945703E+03  0.00000000000E+00 0. -1.
         -2    1    3    3    0  502 -0.34600372431E+02  0.76650680467E+01 -0.10431018773E+02  0.36942457866E+02  0.00000000000E+00 0.  1.
<mgrwt>
<rscale>  0 0.97952739E+02</rscale>
<asrwt>0</asrwt>
<pdfrwt beam="2">  1        4 0.23527188E-01 0.97952739E+02</pdfrwt>
<pdfrwt beam="1">  1       -4 0.24131062E-02 0.97952739E+02</pdfrwt>
<totfact> 0.18761663E+04</totfact>
</mgrwt>
</event>
<event>
 5    1  0.3845386E+001  0.9210600E+02  0.7546771E-02  0.1297830E+00
          2   -1    0    0  501    0  0.00000000000E+00  0.00000000000E+00  0.10009757085E+04  0.10009757085E+04  0.00000000000E+00 0. -1.
         -2   -1    0    0    0  501 -0.00000000000E+00 -0.00000000000E+00 -0.21188113295E+01  0.21188113295E+01  0.00000000000E+00 0.  1.
         23    2    1    2    0    0  0.00000000000E+00  0.00000000000E+00  0.99885689719E+03  0.10030945198E+04  0.92105997019E+02 0.  0.
          2    1    3    3  502    0  0.23335458921E+02  0.28964095671E+02  0.79516859537E+03  0.79603803775E+03  0.00000000000E+00 0. -1.
         -2    1    3    3    0  502 -0.23335458921E+02 -0.28964095671E+02  0.20368830181E+03  0.20705648209E+03  0.00000000000E+00 0.  1.
<mgrwt>
<rscale>  0 0.92105997E+02</rscale>
<asrwt>0</asrwt>
<pdfrwt beam="1">  1        2 0.15399589E+00 0.92105997E+02</pdfrwt>
<pdfrwt beam="2">  1       -2 0.32597177E-03 0.92105997E+02</pdfrwt>
<totfact> 0.24343452E+05</totfact>
</mgrwt>
</event>
<event>
 5    1  0.3845386E+001  0.9022158E+02  0.7546771E-02  0.1302316E+00
         -2   -1    0    0    0  501 -0.00000000000E+00  0.00000000000E+00  0.85049975252E+02  0.85049975252E+02  0.00000000000E+00 0.  1.
          2   -1    0    0  501    0  0.00000000000E+00 -0.00000000000E+00 -0.23926914163E+02  0.23926914163E+02  0.00000000000E+00 0. -1.
         23    2    1    2    0    0  0.00000000000E+00  0.00000000000E+00  0.61123061089E+02  0.10897688941E+03  0.90221581839E+02 0.  0.
          2    1    3    3  502    0 -0.21309639716E+02  0.37611290135E+02  0.14986260798E+02  0.45752572640E+02  0.00000000000E+00 0. -1.
         -2    1    3    3    0  502  0.21309639716E+02 -0.37611290135E+02  0.46136800291E+02  0.63224316774E+02  0.00000000000E+00 0.  1.
<mgrwt>
<rscale>  0 0.90221582E+02</rscale>
<asrwt>0</asrwt>
<pdfrwt beam="2">  1        2 0.36810638E-02 0.90221582E+02</pdfrwt>
<pdfrwt beam="1">  1       -2 0.13084611E-01 0.90221582E+02</pdfrwt>
<totfact> 0.85838769E+04</totfact>
</mgrwt>
</event>
<event>
 5    1  0.3845386E+001  0.9028400E+02  0.7546771E-02  0.1302165E+00
         -1   -1    0    0    0  501 -0.00000000000E+00  0.00000000000E+00  0.18913209710E+01  0.18913209710E+01  0.00000000000E+00 0.  1.
          1   -1    0    0  501    0  0.00000000000E+00 -0.00000000000E+00 -0.10774481075E+04  0.10774481075E+04  0.00000000000E+00 0. -1.
         23    2    1    2    0    0  0.00000000000E+00  0.00000000000E+00 -0.10755567865E+04  0.10793394285E+04  0.90284000817E+02 0.  0.
          2    1    3    3  502    0  0.29111240070E+02  0.71905803191E+01 -0.94118112533E+03  0.94165868521E+03  0.00000000000E+00 0. -1.
         -2    1    3    3    0  502 -0.29111240070E+02 -0.71905803191E+01 -0.13437566120E+03  0.13768074327E+03  0.00000000000E+00 0.  1.
<mgrwt>
<rscale>  0 0.90284001E+02</rscale>
<asrwt>0</asrwt>
<pdfrwt beam="2">  1        1 0.16576186E+00 0.90284001E+02</pdfrwt>
<pdfrwt beam="1">  1       -1 0.29097139E-03 0.90284001E+02</pdfrwt>
<totfact> 0.13647503E+05</totfact>
</mgrwt>
</event>
<event>
 5    1  0.3845386E+001  0.9514477E+02  0.7546771E-02  0.1290850E+00
         -2   -1    0    0    0  501 -0.00000000000E+00  0.00000000000E+00  0.40491256686E+01  0.40491256686E+01  0.00000000000E+00 0.  1.
          2   -1    0    0  501    0  0.00000000000E+00 -0.00000000000E+00 -0.55891861767E+03  0.55891861767E+03  0.00000000000E+00 0. -1.
         23    2    1    2    0    0  0.00000000000E+00  0.00000000000E+00 -0.55486949200E+03  0.56296774334E+03  0.95144768043E+02 0.  0.
          2    1    3    3  502    0  0.32638351670E+01  0.38617273517E+02 -0.44068121363E+03  0.44238205036E+03  0.00000000000E+00 0. -1.
         -2    1    3    3    0  502 -0.32638351670E+01 -0.38617273517E+02 -0.11418827837E+03  0.12058569298E+03  0.00000000000E+00 0.  1.
<mgrwt>
<rscale>  0 0.95144768E+02</rscale>
<asrwt>0</asrwt>
<pdfrwt beam="2">  1        2 0.85987374E-01 0.95144768E+02</pdfrwt>
<pdfrwt beam="1">  1       -2 0.62294318E-03 0.95144768E+02</pdfrwt>
<totfact> 0.19934310E+05</totfact>
</mgrwt>
</event>
<event>
 5    1  0.3845386E+001  0.9242188E+02  0.7546771E-02  0.1297091E+00
          2   -1    0    0  501    0  0.00000000000E+00  0.00000000000E+00  0.44955360049E+03  0.44955360049E+03  0.00000000000E+00 0.  1.
         -2   -1    0    0    0  501 -0.00000000000E+00 -0.00000000000E+00 -0.47501588638E+01  0.47501588638E+01  0.00000000000E+00 0. -1.
         23    2    1    2    0    0  0.00000000000E+00  0.00000000000E+00  0.44480344163E+03  0.45430375936E+03  0.92421880961E+02 0.  0.
          2    1    3    3  502    0 -0.28478432190E+02 -0.33007281341E+02  0.14705599792E+03  0.15338177286E+03  0.00000000000E+00 0. -1.
         -2    1    3    3    0  502  0.28478432190E+02  0.33007281341E+02  0.29774744371E+03  0.30092198649E+03  0.00000000000E+00 0.  1.
<mgrwt>
<rscale>  0 0.92421881E+02</rscale>
<asrwt>0</asrwt>
<pdfrwt beam="1">  1        2 0.69162059E-01 0.92421881E+02</pdfrwt>
<pdfrwt beam="2">  1       -2 0.73079403E-03 0.92421881E+02</pdfrwt>
<totfact> 0.20061761E+05</totfact>
</mgrwt>
</event>
<event>
 5    1  0.3845386E+001  0.9194782E+02  0.7546771E-02  0.1298202E+00
          3   -1    0    0  501    0  0.00000000000E+00  0.00000000000E+00  0.10251395553E+03  0.10251395553E+03  0.00000000000E+00 0. -1.
         -3   -1    0    0    0  501 -0.00000000000E+00 -0.00000000000E+00 -0.20617685529E+02  0.20617685529E+02  0.00000000000E+00 0.  1.
         23    2    1    2    0    0  0.00000000000E+00  0.00000000000E+00  0.81896269999E+02  0.12313164106E+03  0.91947822103E+02 0.  0.
          2    1    3    3  502    0  0.30518052912E+02  0.56657021839E+01  0.86363753073E+02  0.91772270211E+02  0.00000000000E+00 0. -1.
         -2    1    3    3    0  502 -0.30518052912E+02 -0.56657021839E+01 -0.44674830740E+01  0.31359370845E+02  0.00000000000E+00 0.  1.
<mgrwt>
<rscale>  0 0.91947822E+02</rscale>
<asrwt>0</asrwt>
<pdfrwt beam="1">  1        3 0.15771377E-01 0.91947822E+02</pdfrwt>
<pdfrwt beam="2">  1       -3 0.31719517E-02 0.91947822E+02</pdfrwt>
<totfact> 0.32285255E+04</totfact>
</mgrwt>
</event>
<event>
 5    1  0.3845386E+001  0.8932067E+02  0.7546771E-02  0.1304505E+00
          2   -1    0    0  501    0  0.00000000000E+00  0.00000000000E+00  0.95835489787E+02  0.95835489787E+02  0.00000000000E+00 0. -1.
         -2   -1    0    0    0  501 -0.00000000000E+00 -0.00000000000E+00 -0.20812179443E+02  0.20812179443E+02  0.00000000000E+00 0.  1.
         23    2    1    2    0    0  0.00000000000E+00  0.00000000000E+00  0.75023310343E+02  0.11664766923E+03  0.89320667496E+02 0.  0.
          2    1    3    3  502    0 -0.33198530131E+02 -0.12897129902E+02  0.23222059762E+01  0.35691329523E+02  0.00000000000E+00 0.  1.
         -2    1    3    3    0  502  0.33198530131E+02  0.12897129902E+02  0.72701104367E+02  0.80956339707E+02  0.00000000000E+00 0. -1.
<mgrwt>
<rscale>  0 0.89320667E+02</rscale>
<asrwt>0</asrwt>
<pdfrwt beam="1">  1        2 0.14743921E-01 0.89320667E+02</pdfrwt>
<pdfrwt beam="2">  1       -2 0.32018738E-02 0.89320667E+02</pdfrwt>
<totfact> 0.12815768E+05</totfact>
</mgrwt>
</event>
<event>
 5    1  0.3845386E+001  0.9170180E+02  0.7546771E-02  0.1298782E+00
          2   -1    0    0  501    0  0.00000000000E+00  0.00000000000E+00  0.23746055951E+03  0.23746055951E+03  0.00000000000E+00 0. -1.
         -2   -1    0    0    0  501 -0.00000000000E+00 -0.00000000000E+00 -0.88532805452E+01  0.88532805452E+01  0.00000000000E+00 0.  1.
         23    2    1    2    0    0  0.00000000000E+00  0.00000000000E+00  0.22860727896E+03  0.24631384005E+03  0.91701798275E+02 0.  0.
          2    1    3    3  502    0 -0.23599951393E+02 -0.28195024902E+02  0.18788263418E+03  0.19144660185E+03  0.00000000000E+00 0. -1.
         -2    1    3    3    0  502  0.23599951393E+02  0.28195024902E+02  0.40724644785E+02  0.54867238202E+02  0.00000000000E+00 0.  1.
<mgrwt>
<rscale>  0 0.91701798E+02</rscale>
<asrwt>0</asrwt>
<pdfrwt beam="1">  1        2 0.36532389E-01 0.91701798E+02</pdfrwt>
<pdfrwt beam="2">  1       -2 0.13620433E-02 0.91701798E+02</pdfrwt>
<totfact> 0.16218097E+05</totfact>
</mgrwt>
</event>
<event>
 5    1  0.3845386E+001  0.9153953E+02  0.7546771E-02  0.1299166E+00
         -2   -1    0    0    0  501 -0.00000000000E+00  0.00000000000E+00  0.52855286562E+01  0.52855286562E+01  0.00000000000E+00 0.  1.
          2   -1    0    0  501    0  0.00000000000E+00 -0.00000000000E+00 -0.39634095909E+03  0.39634095909E+03  0.00000000000E+00 0. -1.
         23    2    1    2    0    0  0.00000000000E+00  0.00000000000E+00 -0.39105543043E+03  0.40162648774E+03  0.91539532375E+02 0.  0.
          2    1    3    3  502    0 -0.76334243407E+01 -0.42578328175E+02 -0.12990785637E+03  0.13692054026E+03  0.00000000000E+00 0. -1.
         -2    1    3    3    0  502  0.76334243407E+01  0.42578328175E+02 -0.26114757406E+03  0.26470594749E+03  0.00000000000E+00 0.  1.
<mgrwt>
<rscale>  0 0.91539532E+02</rscale>
<asrwt>0</asrwt>
<pdfrwt beam="2">  1        2 0.60975519E-01 0.91539532E+02</pdfrwt>
<pdfrwt beam="1">  1       -2 0.81315843E-03 0.91539532E+02</pdfrwt>
<totfact> 0.19688135E+05</totfact>
</mgrwt>
</event>
<event>
 5    1  0.3845386E+001  0.9272749E+02  0.7546771E-02  0.1296378E+00
          2   -1    0    0  501    0  0.00000000000E+00  0.00000000000E+00  0.33075541033E+03  0.33075541033E+03  0.00000000000E+00 0. -1.
         -2   -1    0    0    0  501 -0.00000000000E+00 -0.00000000000E+00 -0.64990533064E+01  0.64990533064E+01  0.00000000000E+00 0.  1.
         23    2    1    2    0    0  0.00000000000E+00  0.00000000000E+00  0.32425635702E+03  0.33725446364E+03  0.92727494156E+02 0.  0.
          2    1    3    3  502    0  0.18518864804E+02 -0.36203425722E+02  0.81130458282E+02  0.90751240480E+02  0.00000000000E+00 0. -1.
         -2    1    3    3    0  502 -0.18518864804E+02  0.36203425722E+02  0.24312589874E+03  0.24650322316E+03  0.00000000000E+00 0.  1.
<mgrwt>
<rscale>  0 0.92727494E+02</rscale>
<asrwt>0</asrwt>
<pdfrwt beam="1">  1        2 0.50885435E-01 0.92727494E+02</pdfrwt>
<pdfrwt beam="2">  1       -2 0.99985461E-03 0.92727494E+02</pdfrwt>
<totfact> 0.17808961E+05</totfact>
</mgrwt>
</event>
<event>
 5    1  0.3845386E+001  0.9247872E+02  0.7546771E-02  0.1296958E+00
         -2   -1    0    0    0  501 -0.00000000000E+00  0.00000000000E+00  0.26397943644E+01  0.26397943644E+01  0.00000000000E+00 0.  1.
          2   -1    0    0  501    0  0.00000000000E+00 -0.00000000000E+00 -0.80994124830E+03  0.80994124830E+03  0.00000000000E+00 0. -1.
         23    2    1    2    0    0  0.00000000000E+00  0.00000000000E+00 -0.80730145393E+03  0.81258104266E+03  0.92478718477E+02 0.  0.
          2    1    3    3  502    0  0.26140206030E+02 -0.91300107297E+01 -0.72904408050E+03  0.72956969426E+03  0.00000000000E+00 0. -1.
         -2    1    3    3    0  502 -0.26140206030E+02  0.91300107297E+01 -0.78257373430E+02  0.83011348401E+02  0.00000000000E+00 0.  1.
<mgrwt>
<rscale>  0 0.92478718E+02</rscale>
<asrwt>0</asrwt>
<pdfrwt beam="2">  1        2 0.12460618E+00 0.92478718E+02</pdfrwt>
<pdfrwt beam="1">  1       -2 0.40612274E-03 0.92478718E+02</pdfrwt>
<totfact> 0.23529493E+05</totfact>
</mgrwt>
</event>
<event>
 5    1  0.3845386E+001  0.9270900E+02  0.7546771E-02  0.1296421E+00
         -1   -1    0    0    0  501 -0.00000000000E+00  0.00000000000E+00  0.35944206268E+01  0.35944206268E+01  0.00000000000E+00 0.  1.
          1   -1    0    0  501    0  0.00000000000E+00 -0.00000000000E+00 -0.59779856583E+03  0.59779856583E+03  0.00000000000E+00 0. -1.
         23    2    1    2    0    0  0.00000000000E+00  0.00000000000E+00 -0.59420414521E+03  0.60139298646E+03  0.92708996234E+02 0.  0.
          2    1    3    3  502    0  0.11245429909E+02  0.44968889737E+02 -0.29892254038E+03  0.30249519978E+03  0.00000000000E+00 0. -1.
         -2    1    3    3    0  502 -0.11245429909E+02 -0.44968889737E+02 -0.29528160482E+03  0.29889778669E+03  0.00000000000E+00 0.  1.
<mgrwt>
<rscale>  0 0.92708996E+02</rscale>
<asrwt>0</asrwt>
<pdfrwt beam="2">  1        1 0.91969065E-01 0.92708996E+02</pdfrwt>
<pdfrwt beam="1">  1       -1 0.55298746E-03 0.92708996E+02</pdfrwt>
<totfact> 0.13544136E+05</totfact>
</mgrwt>
</event>
<event>
 5    1  0.3845386E+001  0.9121979E+02  0.7546771E-02  0.1299924E+00
          2   -1    0    0  501    0  0.00000000000E+00  0.00000000000E+00  0.84994397796E+03  0.84994397796E+03  0.00000000000E+00 0. -1.
         -2   -1    0    0    0  501 -0.00000000000E+00 -0.00000000000E+00 -0.24475291852E+01  0.24475291852E+01  0.00000000000E+00 0.  1.
         23    2    1    2    0    0  0.00000000000E+00  0.00000000000E+00  0.84749644877E+03  0.85239150714E+03  0.91219793726E+02 0.  0.
          2    1    3    3  502    0 -0.52256811295E+01  0.34730427499E+02  0.15183631187E+03  0.15584535906E+03  0.00000000000E+00 0.  1.
         -2    1    3    3    0  502  0.52256811295E+01 -0.34730427499E+02  0.69566013690E+03  0.69654614808E+03  0.00000000000E+00 0. -1.
<mgrwt>
<rscale>  0 0.91219794E+02</rscale>
<asrwt>0</asrwt>
<pdfrwt beam="1">  1        2 0.13076038E+00 0.91219794E+02</pdfrwt>
<pdfrwt beam="2">  1       -2 0.37654363E-03 0.91219794E+02</pdfrwt>
<totfact> 0.24581468E+05</totfact>
</mgrwt>
</event>
<event>
 5    1  0.3845386E+001  0.8450337E+02  0.7546771E-02  0.1316736E+00
          2   -1    0    0  501    0  0.00000000000E+00  0.00000000000E+00  0.20738310289E+02  0.20738310289E+02  0.00000000000E+00 0. -1.
         -2   -1    0    0    0  501 -0.00000000000E+00 -0.00000000000E+00 -0.86082475331E+02  0.86082475331E+02  0.00000000000E+00 0.  1.
         23    2    1    2    0    0  0.00000000000E+00  0.00000000000E+00 -0.65344165041E+02  0.10682078562E+03  0.84503374699E+02 0.  0.
          2    1    3    3  502    0  0.32709100175E+02 -0.18884164730E+02 -0.56613637279E+02  0.68055865565E+02  0.00000000000E+00 0. -1.
         -2    1    3    3    0  502 -0.32709100175E+02  0.18884164730E+02 -0.87305277622E+01  0.38764920055E+02  0.00000000000E+00 0.  1.
<mgrwt>
<rscale>  0 0.84503375E+02</rscale>
<asrwt>0</asrwt>
<pdfrwt beam="1">  1        2 0.31905093E-02 0.84503375E+02</pdfrwt>
<pdfrwt beam="2">  1       -2 0.13243458E-01 0.84503375E+02</pdfrwt>
<totfact> 0.10055949E+05</totfact>
</mgrwt>
</event>
<event>
 5    1  0.3845386E+001  0.9193694E+02  0.7546771E-02  0.1298228E+00
          2   -1    0    0  501    0  0.00000000000E+00  0.00000000000E+00  0.14046466006E+04  0.14046466006E+04  0.00000000000E+00 0.  1.
         -2   -1    0    0    0  501 -0.00000000000E+00 -0.00000000000E+00 -0.15043643512E+01  0.15043643512E+01  0.00000000000E+00 0. -1.
         23    2    1    2    0    0  0.00000000000E+00  0.00000000000E+00  0.14031422362E+04  0.14061509649E+04  0.91936940821E+02 0.  0.
          2    1    3    3  502    0  0.16046351030E+02  0.26782243544E+02  0.18554071524E+03  0.18814922525E+03  0.00000000000E+00 0. -1.
         -2    1    3    3    0  502 -0.16046351030E+02 -0.26782243544E+02  0.12176015210E+04  0.12180017397E+04  0.00000000000E+00 0.  1.
<mgrwt>
<rscale>  0 0.91936941E+02</rscale>
<asrwt>0</asrwt>
<pdfrwt beam="1">  1        2 0.21609843E+00 0.91936941E+02</pdfrwt>
<pdfrwt beam="2">  1       -2 0.23144179E-03 0.91936941E+02</pdfrwt>
<totfact> 0.23595339E+05</totfact>
</mgrwt>
</event>
<event>
 5    1  0.3845386E+001  0.8725953E+02  0.7546771E-02  0.1309627E+00
         -2   -1    0    0    0  501 -0.00000000000E+00  0.00000000000E+00  0.19488320358E+01  0.19488320358E+01  0.00000000000E+00 0.  1.
          2   -1    0    0  501    0  0.00000000000E+00 -0.00000000000E+00 -0.97676769820E+03  0.97676769820E+03  0.00000000000E+00 0. -1.
         23    2    1    2    0    0  0.00000000000E+00  0.00000000000E+00 -0.97481886616E+03  0.97871653024E+03  0.87259525137E+02 0.  0.
          2    1    3    3  502    0 -0.37803552770E+02  0.17929233411E+02 -0.62614117537E+03  0.62753751880E+03  0.00000000000E+00 0. -1.
         -2    1    3    3    0  502  0.37803552770E+02 -0.17929233411E+02 -0.34867769079E+03  0.35117901143E+03  0.00000000000E+00 0.  1.
<mgrwt>
<rscale>  0 0.87259525E+02</rscale>
<asrwt>0</asrwt>
<pdfrwt beam="2">  1        2 0.15027156E+00 0.87259525E+02</pdfrwt>
<pdfrwt beam="1">  1       -2 0.29982109E-03 0.87259525E+02</pdfrwt>
<totfact> 0.28024820E+05</totfact>
</mgrwt>
</event>
<event>
 5    1  0.3845386E+001  0.7932381E+02  0.7546771E-02  0.1330981E+00
          1   -1    0    0  501    0  0.00000000000E+00  0.00000000000E+00  0.73158165419E+02  0.73158165419E+02  0.00000000000E+00 0. -1.
         -1   -1    0    0    0  501 -0.00000000000E+00 -0.00000000000E+00 -0.21502269725E+02  0.21502269725E+02  0.00000000000E+00 0.  1.
         23    2    1    2    0    0  0.00000000000E+00  0.00000000000E+00  0.51655895694E+02  0.94660435144E+02  0.79323807407E+02 0.  0.
          2    1    3    3  502    0 -0.29813275080E+02  0.18005754889E+02  0.48470902631E+02  0.59686405336E+02  0.00000000000E+00 0. -1.
         -2    1    3    3    0  502  0.29813275080E+02 -0.18005754889E+02  0.31849930634E+01  0.34974029807E+02  0.00000000000E+00 0.  1.
<mgrwt>
<rscale>  0 0.79323807E+02</rscale>
<asrwt>0</asrwt>
<pdfrwt beam="1">  1        1 0.11255102E-01 0.79323807E+02</pdfrwt>
<pdfrwt beam="2">  1       -1 0.33080415E-02 0.79323807E+02</pdfrwt>
<totfact> 0.14519807E+05</totfact>
</mgrwt>
</event>
<event>
 5    1  0.3845386E+001  0.9128074E+02  0.7546771E-02  0.1299780E+00
          2   -1    0    0  501    0  0.00000000000E+00  0.00000000000E+00  0.13966976153E+04  0.13966976153E+04  0.00000000000E+00 0. -1.
         -2   -1    0    0    0  501 -0.00000000000E+00 -0.00000000000E+00 -0.14914060021E+01  0.14914060021E+01  0.00000000000E+00 0.  1.
         23    2    1    2    0    0  0.00000000000E+00  0.00000000000E+00  0.13952062093E+04  0.13981890213E+04  0.91280736338E+02 0.  0.
          2    1    3    3  502    0 -0.20309768302E+02 -0.10333499817E+02  0.13033259133E+04  0.13035251069E+04  0.00000000000E+00 0. -1.
         -2    1    3    3    0  502  0.20309768302E+02  0.10333499817E+02  0.91880296013E+02  0.94663914468E+02  0.00000000000E+00 0.  1.
<mgrwt>
<rscale>  0 0.91280736E+02</rscale>
<asrwt>0</asrwt>
<pdfrwt beam="1">  1        2 0.21487551E+00 0.91280736E+02</pdfrwt>
<pdfrwt beam="2">  1       -2 0.22944819E-03 0.91280736E+02</pdfrwt>
<totfact> 0.24083671E+05</totfact>
</mgrwt>
</event>
<event>
 5    1  0.3845386E+001  0.8862215E+02  0.7546771E-02  0.1306223E+00
          2   -1    0    0  501    0  0.00000000000E+00  0.00000000000E+00  0.36821429653E+02  0.36821429653E+02  0.00000000000E+00 0. -1.
         -2   -1    0    0    0  501 -0.00000000000E+00 -0.00000000000E+00 -0.53324142509E+02  0.53324142509E+02  0.00000000000E+00 0.  1.
         23    2    1    2    0    0  0.00000000000E+00  0.00000000000E+00 -0.16502712856E+02  0.90145572162E+02  0.88622145364E+02 0.  0.
          2    1    3    3  502    0 -0.42081015486E+02  0.13077065394E+02 -0.35184527471E+01  0.44206345850E+02  0.00000000000E+00 0. -1.
         -2    1    3    3    0  502  0.42081015486E+02 -0.13077065394E+02 -0.12984260109E+02  0.45939226313E+02  0.00000000000E+00 0.  1.
<mgrwt>
<rscale>  0 0.88622145E+02</rscale>
<asrwt>0</asrwt>
<pdfrwt beam="1">  1        2 0.56648353E-02 0.88622145E+02</pdfrwt>
<pdfrwt beam="2">  1       -2 0.82037142E-02 0.88622145E+02</pdfrwt>
<totfact> 0.10139395E+05</totfact>
</mgrwt>
</event>
<event>
 5    1  0.3845386E+001  0.9116426E+02  0.7546771E-02  0.1300057E+00
         -2   -1    0    0    0  501 -0.00000000000E+00  0.00000000000E+00  0.51582107512E+03  0.51582107512E+03  0.00000000000E+00 0. -1.
          2   -1    0    0  501    0  0.00000000000E+00 -0.00000000000E+00 -0.40280063850E+01  0.40280063850E+01  0.00000000000E+00 0.  1.
         23    2    1    2    0    0  0.00000000000E+00  0.00000000000E+00  0.51179306873E+03  0.51984908150E+03  0.91164260192E+02 0.  0.
          2    1    3    3  502    0 -0.36571092612E+02  0.15459722355E+02  0.38356806078E+03  0.38561756324E+03  0.00000000000E+00 0. -1.
         -2    1    3    3    0  502  0.36571092612E+02 -0.15459722355E+02  0.12822500795E+03  0.13423151826E+03  0.00000000000E+00 0.  1.
<mgrwt>
<rscale>  0 0.91164260E+02</rscale>
<asrwt>0</asrwt>
<pdfrwt beam="2">  1        2 0.61969370E-03 0.91164260E+02</pdfrwt>
<pdfrwt beam="1">  1       -2 0.79357036E-01 0.91164260E+02</pdfrwt>
<totfact> 0.35440103E+04</totfact>
</mgrwt>
</event>
<event>
 5    1  0.3845386E+001  0.9046743E+02  0.7546771E-02  0.1301724E+00
          1   -1    0    0  501    0  0.00000000000E+00  0.00000000000E+00  0.44163627867E+03  0.44163627867E+03  0.00000000000E+00 0. -1.
         -1   -1    0    0    0  501 -0.00000000000E+00 -0.00000000000E+00 -0.46329730163E+01  0.46329730163E+01  0.00000000000E+00 0.  1.
         23    2    1    2    0    0  0.00000000000E+00  0.00000000000E+00  0.43700330565E+03  0.44626925169E+03  0.90467429766E+02 0.  0.
          2    1    3    3  502    0 -0.85186434136E+01  0.26695509823E+02  0.39366374147E+03  0.39465980145E+03  0.00000000000E+00 0. -1.
         -2    1    3    3    0  502  0.85186434136E+01 -0.26695509823E+02  0.43339564182E+02  0.51609450238E+02  0.00000000000E+00 0.  1.
<mgrwt>
<rscale>  0 0.90467430E+02</rscale>
<asrwt>0</asrwt>
<pdfrwt beam="1">  1        1 0.67944010E-01 0.90467430E+02</pdfrwt>
<pdfrwt beam="2">  1       -1 0.71276543E-03 0.90467430E+02</pdfrwt>
<totfact> 0.13985127E+05</totfact>
</mgrwt>
</event>
<event>
 5    1  0.3845386E+001  0.9164590E+02  0.7546771E-02  0.1298914E+00
         -2   -1    0    0    0  501 -0.00000000000E+00  0.00000000000E+00  0.19184921003E+01  0.19184921003E+01  0.00000000000E+00 0.  1.
          2   -1    0    0  501    0  0.00000000000E+00 -0.00000000000E+00 -0.10944755114E+04  0.10944755114E+04  0.00000000000E+00 0. -1.
         23    2    1    2    0    0  0.00000000000E+00  0.00000000000E+00 -0.10925570193E+04  0.10963940035E+04  0.91645897293E+02 0.  0.
          2    1    3    3  502    0 -0.32226852396E+02 -0.18066990419E+02 -0.87056236812E+03  0.87134598349E+03  0.00000000000E+00 0. -1.
         -2    1    3    3    0  502  0.32226852396E+02  0.18066990419E+02 -0.22199465120E+03  0.22504802003E+03  0.00000000000E+00 0.  1.
<mgrwt>
<rscale>  0 0.91645897E+02</rscale>
<asrwt>0</asrwt>
<pdfrwt beam="2">  1        2 0.16838084E+00 0.91645897E+02</pdfrwt>
<pdfrwt beam="1">  1       -2 0.29515265E-03 0.91645897E+02</pdfrwt>
<totfact> 0.24686775E+05</totfact>
</mgrwt>
</event>
<event>
 5    1  0.3845386E+001  0.9074586E+02  0.7546771E-02  0.1301055E+00
         -2   -1    0    0    0  501 -0.00000000000E+00  0.00000000000E+00  0.28197232478E+01  0.28197232478E+01  0.00000000000E+00 0.  1.
          2   -1    0    0  501    0  0.00000000000E+00 -0.00000000000E+00 -0.73010808350E+03  0.73010808350E+03  0.00000000000E+00 0. -1.
         23    2    1    2    0    0  0.00000000000E+00  0.00000000000E+00 -0.72728836025E+03  0.73292780674E+03  0.90745859112E+02 0.  0.
          2    1    3    3  502    0 -0.29993244786E+02 -0.10282418169E+02 -0.62578031510E+03  0.62658305565E+03  0.00000000000E+00 0. -1.
         -2    1    3    3    0  502  0.29993244786E+02  0.10282418169E+02 -0.10150804514E+03  0.10634475109E+03  0.00000000000E+00 0.  1.
<mgrwt>
<rscale>  0 0.90745859E+02</rscale>
<asrwt>0</asrwt>
<pdfrwt beam="2">  1        2 0.11232427E+00 0.90745859E+02</pdfrwt>
<pdfrwt beam="1">  1       -2 0.43380375E-03 0.90745859E+02</pdfrwt>
<totfact> 0.24240693E+05</totfact>
</mgrwt>
</event>
<event>
 5    1  0.3845386E+001  0.8631274E+02  0.7546771E-02  0.1312035E+00
         -1   -1    0    0    0  501 -0.00000000000E+00  0.00000000000E+00  0.31440603807E+02  0.31440603807E+02  0.00000000000E+00 0.  1.
          1   -1    0    0  501    0  0.00000000000E+00 -0.00000000000E+00 -0.59237807348E+02  0.59237807348E+02  0.00000000000E+00 0. -1.
         23    2    1    2    0    0  0.00000000000E+00  0.00000000000E+00 -0.27797203541E+02  0.90678411155E+02  0.86312743699E+02 0.  0.
          2    1    3    3  502    0  0.48879891153E+01  0.21800443136E+02 -0.52689335097E+02  0.57230392201E+02  0.00000000000E+00 0. -1.
         -2    1    3    3    0  502 -0.48879891153E+01 -0.21800443136E+02  0.24892131556E+02  0.33448018954E+02  0.00000000000E+00 0.  1.
<mgrwt>
<rscale>  0 0.86312744E+02</rscale>
<asrwt>0</asrwt>
<pdfrwt beam="2">  1        1 0.91135087E-02 0.86312744E+02</pdfrwt>
<pdfrwt beam="1">  1       -1 0.48370160E-02 0.86312744E+02</pdfrwt>
<totfact> 0.11190777E+05</totfact>
</mgrwt>
</event>
<event>
 5    1  0.3845386E+001  0.9080121E+02  0.7546771E-02  0.1300923E+00
          1   -1    0    0  501    0  0.00000000000E+00  0.00000000000E+00  0.10763860703E+04  0.10763860703E+04  0.00000000000E+00 0. -1.
         -1   -1    0    0    0  501 -0.00000000000E+00 -0.00000000000E+00 -0.19149400748E+01  0.19149400748E+01  0.00000000000E+00 0.  1.
         23    2    1    2    0    0  0.00000000000E+00  0.00000000000E+00  0.10744711302E+04  0.10783010104E+04  0.90801207524E+02 0.  0.
          2    1    3    3  502    0 -0.13395575706E+02  0.25935611699E+02  0.95017145146E+03  0.95061973711E+03  0.00000000000E+00 0. -1.
         -2    1    3    3    0  502  0.13395575706E+02 -0.25935611699E+02  0.12429967874E+03  0.12768127325E+03  0.00000000000E+00 0.  1.
<mgrwt>
<rscale>  0 0.90801208E+02</rscale>
<asrwt>0</asrwt>
<pdfrwt beam="1">  1        1 0.16559737E+00 0.90801208E+02</pdfrwt>
<pdfrwt beam="2">  1       -1 0.29460703E-03 0.90801208E+02</pdfrwt>
<totfact> 0.13447604E+05</totfact>
</mgrwt>
</event>
<event>
 5    1  0.3845386E+001  0.9125115E+02  0.7546771E-02  0.1299850E+00
          2   -1    0    0  501    0  0.00000000000E+00  0.00000000000E+00  0.57253361846E+03  0.57253361846E+03  0.00000000000E+00 0. -1.
         -2   -1    0    0    0  501 -0.00000000000E+00 -0.00000000000E+00 -0.36359319689E+01  0.36359319689E+01  0.00000000000E+00 0.  1.
         23    2    1    2    0    0  0.00000000000E+00  0.00000000000E+00  0.56889768649E+03  0.57616955042E+03  0.91251154220E+02 0.  0.
          2    1    3    3  502    0  0.10740377195E+02  0.18792423536E+02  0.53805142716E+03  0.53848662858E+03  0.00000000000E+00 0. -1.
         -2    1    3    3    0  502 -0.10740377195E+02 -0.18792423536E+02  0.30846259323E+02  0.37682921846E+02  0.00000000000E+00 0.  1.
<mgrwt>
<rscale>  0 0.91251154E+02</rscale>
<asrwt>0</asrwt>
<pdfrwt beam="1">  1        2 0.88082024E-01 0.91251154E+02</pdfrwt>
<pdfrwt beam="2">  1       -2 0.55937460E-03 0.91251154E+02</pdfrwt>
<totfact> 0.22429271E+05</totfact>
</mgrwt>
</event>
<event>
 5    1  0.3845386E+001  0.8982541E+02  0.7546771E-02  0.1303275E+00
          1   -1    0    0  501    0  0.00000000000E+00  0.00000000000E+00  0.35520743418E+03  0.35520743418E+03  0.00000000000E+00 0. -1.
         -1   -1    0    0    0  501 -0.00000000000E+00 -0.00000000000E+00 -0.56787976475E+01  0.56787976475E+01  0.00000000000E+00 0.  1.
         23    2    1    2    0    0  0.00000000000E+00  0.00000000000E+00  0.34952863653E+03  0.36088623183E+03  0.89825411585E+02 0.  0.
          2    1    3    3  502    0 -0.30643635240E+02 -0.22266848431E+02  0.27171409494E+03  0.27434174729E+03  0.00000000000E+00 0. -1.
         -2    1    3    3    0  502  0.30643635240E+02  0.22266848431E+02  0.77814541595E+02  0.86544484535E+02  0.00000000000E+00 0.  1.
<mgrwt>
<rscale>  0 0.89825412E+02</rscale>
<asrwt>0</asrwt>
<pdfrwt beam="1">  1        1 0.54647280E-01 0.89825412E+02</pdfrwt>
<pdfrwt beam="2">  1       -1 0.87366146E-03 0.89825412E+02</pdfrwt>
<totfact> 0.13752602E+05</totfact>
</mgrwt>
</event>
<event>
 5    1  0.3845386E+001  0.9007407E+02  0.7546771E-02  0.1302672E+00
         -2   -1    0    0    0  501 -0.00000000000E+00  0.00000000000E+00  0.33865389600E+02  0.33865389600E+02  0.00000000000E+00 0.  1.
          2   -1    0    0  501    0  0.00000000000E+00 -0.00000000000E+00 -0.59894027737E+02  0.59894027737E+02  0.00000000000E+00 0. -1.
         23    2    1    2    0    0  0.00000000000E+00  0.00000000000E+00 -0.26028638137E+02  0.93759417337E+02  0.90074071387E+02 0.  0.
          2    1    3    3  502    0 -0.23998678315E+02 -0.32593731021E+01 -0.52538581831E+02  0.57852075630E+02  0.00000000000E+00 0. -1.
         -2    1    3    3    0  502  0.23998678315E+02  0.32593731021E+01  0.26509943694E+02  0.35907341708E+02  0.00000000000E+00 0.  1.
<mgrwt>
<rscale>  0 0.90074071E+02</rscale>
<asrwt>0</asrwt>
<pdfrwt beam="2">  1        2 0.92144658E-02 0.90074071E+02</pdfrwt>
<pdfrwt beam="1">  1       -2 0.52100599E-02 0.90074071E+02</pdfrwt>
<totfact> 0.10971465E+05</totfact>
</mgrwt>
</event>
<event>
 5    1  0.3845386E+001  0.8491111E+02  0.7546771E-02  0.1315665E+00
         -2   -1    0    0    0  501 -0.00000000000E+00  0.00000000000E+00  0.26804176817E+01  0.26804176817E+01  0.00000000000E+00 0.  1.
          2   -1    0    0  501    0  0.00000000000E+00 -0.00000000000E+00 -0.67246009970E+03  0.67246009970E+03  0.00000000000E+00 0. -1.
         23    2    1    2    0    0  0.00000000000E+00  0.00000000000E+00 -0.66977968202E+03  0.67514051739E+03  0.84911105080E+02 0.  0.
          2    1    3    3  502    0 -0.75735059058E+00  0.40378873528E+02 -0.23077933894E+03  0.23428642788E+03  0.00000000000E+00 0. -1.
         -2    1    3    3    0  502  0.75735059058E+00 -0.40378873528E+02 -0.43900034308E+03  0.44085408950E+03  0.00000000000E+00 0.  1.
<mgrwt>
<rscale>  0 0.84911105E+02</rscale>
<asrwt>0</asrwt>
<pdfrwt beam="2">  1        2 0.10345540E+00 0.84911105E+02</pdfrwt>
<pdfrwt beam="1">  1       -2 0.41237196E-03 0.84911105E+02</pdfrwt>
<totfact> 0.28320142E+05</totfact>
</mgrwt>
</event>
<event>
 5    1  0.3845386E+001  0.8991527E+02  0.7546771E-02  0.1303057E+00
          2   -1    0    0  501    0  0.00000000000E+00  0.00000000000E+00  0.37506254397E+02  0.37506254397E+02  0.00000000000E+00 0. -1.
         -2   -1    0    0    0  501 -0.00000000000E+00 -0.00000000000E+00 -0.53889381398E+02  0.53889381398E+02  0.00000000000E+00 0.  1.
         23    2    1    2    0    0  0.00000000000E+00  0.00000000000E+00 -0.16383127001E+02  0.91395635795E+02  0.89915267848E+02 0.  0.
          2    1    3    3  502    0  0.87783690129E+01  0.43568824250E+02 -0.15077058070E+02  0.46932077401E+02  0.00000000000E+00 0.  1.
         -2    1    3    3    0  502 -0.87783690129E+01 -0.43568824250E+02 -0.13060689303E+01  0.44463558395E+02  0.00000000000E+00 0. -1.
<mgrwt>
<rscale>  0 0.89915268E+02</rscale>
<asrwt>0</asrwt>
<pdfrwt beam="1">  1        2 0.57701930E-02 0.89915268E+02</pdfrwt>
<pdfrwt beam="2">  1       -2 0.82906740E-02 0.89915268E+02</pdfrwt>
<totfact> 0.97684769E+04</totfact>
</mgrwt>
</event>
<event>
 5    1  0.3845386E+001  0.9100476E+02  0.7546771E-02  0.1300437E+00
         -1   -1    0    0    0  501 -0.00000000000E+00  0.00000000000E+00  0.19320520096E+01  0.19320520096E+01  0.00000000000E+00 0.  1.
          1   -1    0    0  501    0  0.00000000000E+00 -0.00000000000E+00 -0.10716412373E+04  0.10716412373E+04  0.00000000000E+00 0. -1.
         23    2    1    2    0    0  0.00000000000E+00  0.00000000000E+00 -0.10697091853E+04  0.10735732893E+04  0.91004760451E+02 0.  0.
          2    1    3    3  502    0  0.20645596576E+02  0.32755753674E+02 -0.81681919218E+03  0.81773637119E+03  0.00000000000E+00 0. -1.
         -2    1    3    3    0  502 -0.20645596576E+02 -0.32755753674E+02 -0.25288999314E+03  0.25583691815E+03  0.00000000000E+00 0.  1.
<mgrwt>
<rscale>  0 0.91004760E+02</rscale>
<asrwt>0</asrwt>
<pdfrwt beam="2">  1        1 0.16486815E+00 0.91004760E+02</pdfrwt>
<pdfrwt beam="1">  1       -1 0.29723829E-03 0.91004760E+02</pdfrwt>
<totfact> 0.13388246E+05</totfact>
</mgrwt>
</event>
<event>
 5    1  0.3845386E+001  0.9248832E+02  0.7546771E-02  0.1296935E+00
          1   -1    0    0  501    0  0.00000000000E+00  0.00000000000E+00  0.17680901693E+03  0.17680901693E+03  0.00000000000E+00 0. -1.
         -1   -1    0    0    0  501 -0.00000000000E+00 -0.00000000000E+00 -0.12095097779E+02  0.12095097779E+02  0.00000000000E+00 0.  1.
         23    2    1    2    0    0  0.00000000000E+00  0.00000000000E+00  0.16471391915E+03  0.18890411471E+03  0.92488320299E+02 0.  0.
          2    1    3    3  502    0 -0.37418699412E+02  0.48397579888E+01  0.13696911671E+03  0.14207083183E+03  0.00000000000E+00 0. -1.
         -2    1    3    3    0  502  0.37418699412E+02 -0.48397579888E+01  0.27744802437E+02  0.46833282880E+02  0.00000000000E+00 0.  1.
<mgrwt>
<rscale>  0 0.92488320E+02</rscale>
<asrwt>0</asrwt>
<pdfrwt beam="1">  1        1 0.27201385E-01 0.92488320E+02</pdfrwt>
<pdfrwt beam="2">  1       -1 0.18607844E-02 0.92488320E+02</pdfrwt>
<totfact> 0.11126866E+05</totfact>
</mgrwt>
</event>
<event>
 5    1  0.3845386E+001  0.8900429E+02  0.7546771E-02  0.1305281E+00
          1   -1    0    0  501    0  0.00000000000E+00  0.00000000000E+00  0.32335441025E+02  0.32335441025E+02  0.00000000000E+00 0. -1.
         -1   -1    0    0    0  501 -0.00000000000E+00 -0.00000000000E+00 -0.61246750611E+02  0.61246750611E+02  0.00000000000E+00 0.  1.
         23    2    1    2    0    0  0.00000000000E+00  0.00000000000E+00 -0.28911309586E+02  0.93582191636E+02  0.89004285119E+02 0.  0.
          2    1    3    3  502    0  0.12047269336E+02 -0.33808869418E+02  0.13208555468E+02  0.38244506630E+02  0.00000000000E+00 0. -1.
         -2    1    3    3    0  502 -0.12047269336E+02  0.33808869418E+02 -0.42119865054E+02  0.55337685007E+02  0.00000000000E+00 0.  1.
<mgrwt>
<rscale>  0 0.89004285E+02</rscale>
<asrwt>0</asrwt>
<pdfrwt beam="1">  1        1 0.49746833E-02 0.89004285E+02</pdfrwt>
<pdfrwt beam="2">  1       -1 0.94225769E-02 0.89004285E+02</pdfrwt>
<totfact> 0.93968554E+04</totfact>
</mgrwt>
</event>
<event>
 5    1  0.3845386E+001  0.9141148E+02  0.7546771E-02  0.1299469E+00
          1   -1    0    0  501    0  0.00000000000E+00  0.00000000000E+00  0.71383672817E+03  0.71383672817E+03  0.00000000000E+00 0. -1.
         -1   -1    0    0    0  501 -0.00000000000E+00 -0.00000000000E+00 -0.29264601447E+01  0.29264601447E+01  0.00000000000E+00 0.  1.
         23    2    1    2    0    0  0.00000000000E+00  0.00000000000E+00  0.71091026802E+03  0.71676318831E+03  0.91411481441E+02 0.  0.
          2    1    3    3  502    0  0.40782764996E+02  0.12356467039E+02  0.48503413629E+03  0.48690248465E+03  0.00000000000E+00 0. -1.
         -2    1    3    3    0  502 -0.40782764996E+02 -0.12356467039E+02  0.22587613174E+03  0.22986070366E+03  0.00000000000E+00 0.  1.
<mgrwt>
<rscale>  0 0.91411481E+02</rscale>
<asrwt>0</asrwt>
<pdfrwt beam="1">  1        1 0.10982090E+00 0.91411481E+02</pdfrwt>
<pdfrwt beam="2">  1       -1 0.45022521E-03 0.91411481E+02</pdfrwt>
<totfact> 0.14117273E+05</totfact>
</mgrwt>
</event>
<event>
 5    1  0.3845386E+001  0.7569276E+02  0.7546771E-02  0.1341739E+00
         -1   -1    0    0    0  501 -0.00000000000E+00  0.00000000000E+00  0.97195718250E+02  0.97195718250E+02  0.00000000000E+00 0.  1.
          1   -1    0    0  501    0  0.00000000000E+00 -0.00000000000E+00 -0.14736743272E+02  0.14736743272E+02  0.00000000000E+00 0. -1.
         23    2    1    2    0    0  0.00000000000E+00  0.00000000000E+00  0.82458974978E+02  0.11193246152E+03  0.75692756509E+02 0.  0.
          2    1    3    3  502    0 -0.14045591599E+02 -0.25329585220E+02  0.52043670206E+01  0.29427061811E+02  0.00000000000E+00 0. -1.
         -2    1    3    3    0  502  0.14045591599E+02  0.25329585220E+02  0.77254607957E+02  0.82505399711E+02  0.00000000000E+00 0.  1.
<mgrwt>
<rscale>  0 0.75692757E+02</rscale>
<asrwt>0</asrwt>
<pdfrwt beam="2">  1        1 0.22671913E-02 0.75692757E+02</pdfrwt>
<pdfrwt beam="1">  1       -1 0.14953187E-01 0.75692757E+02</pdfrwt>
<totfact> 0.13180528E+05</totfact>
</mgrwt>
</event>
<event>
 5    1  0.3845386E+001  0.1067009E+03  0.7546771E-02  0.1266804E+00
          2   -1    0    0  501    0  0.00000000000E+00  0.00000000000E+00  0.15259778196E+04  0.15259778196E+04  0.00000000000E+00 0. -1.
         -2   -1    0    0    0  501 -0.00000000000E+00 -0.00000000000E+00 -0.18652125747E+01  0.18652125747E+01  0.00000000000E+00 0.  1.
         23    2    1    2    0    0  0.00000000000E+00  0.00000000000E+00  0.15241126070E+04  0.15278430322E+04  0.10670094691E+03 0.  0.
          2    1    3    3  502    0  0.85134118416E+01 -0.42507135527E+02  0.31680024441E+03  0.31975260689E+03  0.00000000000E+00 0. -1.
         -2    1    3    3    0  502 -0.85134118416E+01  0.42507135527E+02  0.12073123626E+04  0.12080904253E+04  0.00000000000E+00 0.  1.
<mgrwt>
<rscale>  0 0.10670095E+03</rscale>
<asrwt>0</asrwt>
<pdfrwt beam="1">  1        2 0.23476482E+00 0.10670095E+03</pdfrwt>
<pdfrwt beam="2">  1       -2 0.28695700E-03 0.10670095E+03</pdfrwt>
<totfact> 0.15439053E+05</totfact>
</mgrwt>
</event>
<event>
 5    1  0.3845386E+001  0.8832570E+02  0.7546771E-02  0.1306958E+00
         -1   -1    0    0    0  501 -0.00000000000E+00  0.00000000000E+00  0.81993906534E+02  0.81993906534E+02  0.00000000000E+00 0.  1.
          1   -1    0    0  501    0  0.00000000000E+00 -0.00000000000E+00 -0.23786613054E+02  0.23786613054E+02  0.00000000000E+00 0. -1.
         23    2    1    2    0    0  0.00000000000E+00  0.00000000000E+00  0.58207293479E+02  0.10578051959E+03  0.88325700168E+02 0.  0.
          2    1    3    3  502    0  0.41337983166E+01  0.43899609225E+02  0.26147359488E+02  0.51263519064E+02  0.00000000000E+00 0.  1.
         -2    1    3    3    0  502 -0.41337983166E+01 -0.43899609225E+02  0.32059933992E+02  0.54517000524E+02  0.00000000000E+00 0. -1.
<mgrwt>
<rscale>  0 0.88325700E+02</rscale>
<asrwt>0</asrwt>
<pdfrwt beam="2">  1        1 0.36594790E-02 0.88325700E+02</pdfrwt>
<pdfrwt beam="1">  1       -1 0.12614447E-01 0.88325700E+02</pdfrwt>
<totfact> 0.91435224E+04</totfact>
</mgrwt>
</event>
<event>
 5    1  0.3845386E+001  0.9314101E+02  0.7546771E-02  0.1295419E+00
         -2   -1    0    0    0  501 -0.00000000000E+00  0.00000000000E+00  0.36086528351E+01  0.36086528351E+01  0.00000000000E+00 0.  1.
          2   -1    0    0  501    0  0.00000000000E+00 -0.00000000000E+00 -0.60100326571E+03  0.60100326571E+03  0.00000000000E+00 0. -1.
         23    2    1    2    0    0  0.00000000000E+00  0.00000000000E+00 -0.59739461287E+03  0.60461191854E+03  0.93141014353E+02 0.  0.
          2    1    3    3  502    0 -0.15086309767E+02  0.26208620117E+02 -0.52859813811E+03  0.52946244449E+03  0.00000000000E+00 0. -1.
         -2    1    3    3    0  502  0.15086309767E+02 -0.26208620117E+02 -0.68796474764E+02  0.75149474055E+02  0.00000000000E+00 0.  1.
<mgrwt>
<rscale>  0 0.93141014E+02</rscale>
<asrwt>0</asrwt>
<pdfrwt beam="2">  1        2 0.92462095E-01 0.93141014E+02</pdfrwt>
<pdfrwt beam="1">  1       -2 0.55517704E-03 0.93141014E+02</pdfrwt>
<totfact> 0.21546218E+05</totfact>
</mgrwt>
</event>
<event>
 5    1  0.3845386E+001  0.9038001E+02  0.7546771E-02  0.1301934E+00
         -2   -1    0    0    0  501 -0.00000000000E+00  0.00000000000E+00  0.28111729320E+02  0.28111729320E+02  0.00000000000E+00 0.  1.
          2   -1    0    0  501    0  0.00000000000E+00 -0.00000000000E+00 -0.72643579266E+02  0.72643579266E+02  0.00000000000E+00 0. -1.
         23    2    1    2    0    0  0.00000000000E+00  0.00000000000E+00 -0.44531849946E+02  0.10075530859E+03  0.90380011888E+02 0.  0.
          2    1    3    3  502    0 -0.23707867979E+02  0.20557606505E+02 -0.58517526605E+02  0.66400143895E+02  0.00000000000E+00 0. -1.
         -2    1    3    3    0  502  0.23707867979E+02 -0.20557606505E+02  0.13985676659E+02  0.34355164691E+02  0.00000000000E+00 0.  1.
<mgrwt>
<rscale>  0 0.90380012E+02</rscale>
<asrwt>0</asrwt>
<pdfrwt beam="2">  1        2 0.11175935E-01 0.90380012E+02</pdfrwt>
<pdfrwt beam="1">  1       -2 0.43248815E-02 0.90380012E+02</pdfrwt>
<totfact> 0.11453601E+05</totfact>
</mgrwt>
</event>
<event>
 5    1  0.3845386E+001  0.9490233E+02  0.7546771E-02  0.1291396E+00
          2   -1    0    0  501    0  0.00000000000E+00  0.00000000000E+00  0.27698827156E+04  0.27698827156E+04  0.00000000000E+00 0.  1.
         -2   -1    0    0    0  501 -0.00000000000E+00 -0.00000000000E+00 -0.81289107518E+00  0.81289107518E+00  0.00000000000E+00 0. -1.
         23    2    1    2    0    0  0.00000000000E+00  0.00000000000E+00  0.27690698245E+04  0.27706956067E+04  0.94902327449E+02 0.  0.
          2    1    3    3  502    0  0.11462919317E+02  0.32856744864E+02  0.44272331661E+03  0.44408884164E+03  0.00000000000E+00 0. -1.
         -2    1    3    3    0  502 -0.11462919317E+02 -0.32856744864E+02  0.23263465079E+04  0.23266067650E+04  0.00000000000E+00 0.  1.
<mgrwt>
<rscale>  0 0.94902327E+02</rscale>
<asrwt>0</asrwt>
<pdfrwt beam="1">  1        2 0.42612825E+00 0.94902327E+02</pdfrwt>
<pdfrwt beam="2">  1       -2 0.12506238E-03 0.94902327E+02</pdfrwt>
<totfact> 0.11027269E+05</totfact>
</mgrwt>
</event>
<event>
 5    1  0.3845386E+001  0.9198917E+02  0.7546771E-02  0.1298105E+00
         -1   -1    0    0    0  501 -0.00000000000E+00  0.00000000000E+00  0.19172801893E+03  0.19172801893E+03  0.00000000000E+00 0.  1.
          1   -1    0    0  501    0  0.00000000000E+00 -0.00000000000E+00 -0.11033869686E+02  0.11033869686E+02  0.00000000000E+00 0. -1.
         23    2    1    2    0    0  0.00000000000E+00  0.00000000000E+00  0.18069414925E+03  0.20276188862E+03  0.91989172757E+02 0.  0.
          2    1    3    3  502    0  0.31009694627E+02 -0.20372959845E+02  0.30433422874E+02  0.47988038942E+02  0.00000000000E+00 0. -1.
         -2    1    3    3    0  502 -0.31009694627E+02  0.20372959845E+02  0.15026072637E+03  0.15477384968E+03  0.00000000000E+00 0.  1.
<mgrwt>
<rscale>  0 0.91989173E+02</rscale>
<asrwt>0</asrwt>
<pdfrwt beam="2">  1        1 0.16975186E-02 0.91989173E+02</pdfrwt>
<pdfrwt beam="1">  1       -1 0.29496616E-01 0.91989173E+02</pdfrwt>
<totfact> 0.68649747E+04</totfact>
</mgrwt>
</event>
<event>
 5    1  0.3845386E+001  0.9103162E+02  0.7546771E-02  0.1300373E+00
          1   -1    0    0  501    0  0.00000000000E+00  0.00000000000E+00  0.54019796952E+03  0.54019796952E+03  0.00000000000E+00 0. -1.
         -1   -1    0    0    0  501 -0.00000000000E+00 -0.00000000000E+00 -0.38350549684E+01  0.38350549684E+01  0.00000000000E+00 0.  1.
         23    2    1    2    0    0  0.00000000000E+00  0.00000000000E+00  0.53636291455E+03  0.54403302449E+03  0.91031618835E+02 0.  0.
          2    1    3    3  502    0  0.28512001514E+02 -0.34829208975E+02  0.22778900482E+03  0.23219353726E+03  0.00000000000E+00 0.  1.
         -2    1    3    3    0  502 -0.28512001514E+02  0.34829208975E+02  0.30857390973E+03  0.31183948723E+03  0.00000000000E+00 0. -1.
<mgrwt>
<rscale>  0 0.91031619E+02</rscale>
<asrwt>0</asrwt>
<pdfrwt beam="1">  1        1 0.83107320E-01 0.91031619E+02</pdfrwt>
<pdfrwt beam="2">  1       -1 0.59000888E-03 0.91031619E+02</pdfrwt>
<totfact> 0.14101933E+05</totfact>
</mgrwt>
</event>
<event>
 5    1  0.3845386E+001  0.8264800E+02  0.7546771E-02  0.1321700E+00
         -2   -1    0    0    0  501 -0.00000000000E+00  0.00000000000E+00  0.10286781402E+02  0.10286781402E+02  0.00000000000E+00 0.  1.
          2   -1    0    0  501    0  0.00000000000E+00 -0.00000000000E+00 -0.16600655066E+03  0.16600655066E+03  0.00000000000E+00 0. -1.
         23    2    1    2    0    0  0.00000000000E+00  0.00000000000E+00 -0.15571976926E+03  0.17629333206E+03  0.82648002950E+02 0.  0.
          2    1    3    3  502    0 -0.86963614185E+01  0.33531935021E+02 -0.12592037176E+03  0.13059845861E+03  0.00000000000E+00 0. -1.
         -2    1    3    3    0  502  0.86963614185E+01 -0.33531935021E+02 -0.29799397499E+02  0.45694873448E+02  0.00000000000E+00 0.  1.
<mgrwt>
<rscale>  0 0.82648003E+02</rscale>
<asrwt>0</asrwt>
<pdfrwt beam="2">  1        2 0.25539467E-01 0.82648003E+02</pdfrwt>
<pdfrwt beam="1">  1       -2 0.15825819E-02 0.82648003E+02</pdfrwt>
<totfact> 0.18850701E+05</totfact>
</mgrwt>
</event>
<event>
 5    1  0.3845386E+001  0.8978926E+02  0.7546771E-02  0.1303363E+00
         -1   -1    0    0    0  501 -0.00000000000E+00  0.00000000000E+00  0.12412790022E+02  0.12412790022E+02  0.00000000000E+00 0.  1.
          1   -1    0    0  501    0  0.00000000000E+00 -0.00000000000E+00 -0.16237506735E+03  0.16237506735E+03  0.00000000000E+00 0. -1.
         23    2    1    2    0    0  0.00000000000E+00  0.00000000000E+00 -0.14996227733E+03  0.17478785737E+03  0.89789255833E+02 0.  0.
          2    1    3    3  502    0 -0.78637558998E+01 -0.41781235284E+02 -0.10305723039E+03  0.11148229911E+03  0.00000000000E+00 0. -1.
         -2    1    3    3    0  502  0.78637558998E+01  0.41781235284E+02 -0.46905046936E+02  0.63305558261E+02  0.00000000000E+00 0.  1.
<mgrwt>
<rscale>  0 0.89789256E+02</rscale>
<asrwt>0</asrwt>
<pdfrwt beam="2">  1        1 0.24980779E-01 0.89789256E+02</pdfrwt>
<pdfrwt beam="1">  1       -1 0.19096601E-02 0.89789256E+02</pdfrwt>
<totfact> 0.11858213E+05</totfact>
</mgrwt>
</event>
<event>
 5    1  0.3845386E+001  0.8995919E+02  0.7546771E-02  0.1302951E+00
          3   -1    0    0  501    0  0.00000000000E+00  0.00000000000E+00  0.35514386695E+02  0.35514386695E+02  0.00000000000E+00 0. -1.
         -3   -1    0    0    0  501 -0.00000000000E+00 -0.00000000000E+00 -0.56967447385E+02  0.56967447385E+02  0.00000000000E+00 0.  1.
         23    2    1    2    0    0  0.00000000000E+00  0.00000000000E+00 -0.21453060690E+02  0.92481834079E+02  0.89959189757E+02 0.  0.
          2    1    3    3  502    0  0.59723741106E+01 -0.39141296482E+02  0.11213285321E+02  0.41151526224E+02  0.00000000000E+00 0. -1.
         -2    1    3    3    0  502 -0.59723741106E+01  0.39141296482E+02 -0.32666346011E+02  0.51330307856E+02  0.00000000000E+00 0.  1.
<mgrwt>
<rscale>  0 0.89959190E+02</rscale>
<asrwt>0</asrwt>
<pdfrwt beam="1">  1        3 0.54637519E-02 0.89959190E+02</pdfrwt>
<pdfrwt beam="2">  1       -3 0.87642225E-02 0.89959190E+02</pdfrwt>
<totfact> 0.36551088E+04</totfact>
</mgrwt>
</event>
<event>
 5    1  0.3845386E+001  0.9115349E+02  0.7546771E-02  0.1300082E+00
         -2   -1    0    0    0  501 -0.00000000000E+00  0.00000000000E+00  0.11592872783E+02  0.11592872783E+02  0.00000000000E+00 0.  1.
          2   -1    0    0  501    0  0.00000000000E+00 -0.00000000000E+00 -0.17918249397E+03  0.17918249397E+03  0.00000000000E+00 0. -1.
         23    2    1    2    0    0  0.00000000000E+00  0.00000000000E+00 -0.16758962118E+03  0.19077536675E+03  0.91153493790E+02 0.  0.
          2    1    3    3  502    0 -0.23343900140E+02 -0.12434015335E+02 -0.16147779549E+03  0.16362952316E+03  0.00000000000E+00 0. -1.
         -2    1    3    3    0  502  0.23343900140E+02  0.12434015335E+02 -0.61118256898E+01  0.27145843593E+02  0.00000000000E+00 0.  1.
<mgrwt>
<rscale>  0 0.91153494E+02</rscale>
<asrwt>0</asrwt>
<pdfrwt beam="2">  1        2 0.27566535E-01 0.91153494E+02</pdfrwt>
<pdfrwt beam="1">  1       -2 0.17835191E-02 0.91153494E+02</pdfrwt>
<totfact> 0.14880901E+05</totfact>
</mgrwt>
</event>
<event>
 5    1  0.3845386E+001  0.9202700E+02  0.7546771E-02  0.1298016E+00
          1   -1    0    0  501    0  0.00000000000E+00  0.00000000000E+00  0.71813121140E+03  0.71813121140E+03  0.00000000000E+00 0. -1.
         -1   -1    0    0    0  501 -0.00000000000E+00 -0.00000000000E+00 -0.29482664411E+01  0.29482664411E+01  0.00000000000E+00 0.  1.
         23    2    1    2    0    0  0.00000000000E+00  0.00000000000E+00  0.71518294496E+03  0.72107947785E+03  0.92026999319E+02 0.  0.
          2    1    3    3  502    0  0.29328117058E+02  0.38335197748E+01  0.63377639347E+03  0.63446619394E+03  0.00000000000E+00 0. -1.
         -2    1    3    3    0  502 -0.29328117058E+02 -0.38335197748E+01  0.81406551490E+02  0.86613283909E+02  0.00000000000E+00 0.  1.
<mgrwt>
<rscale>  0 0.92026999E+02</rscale>
<asrwt>0</asrwt>
<pdfrwt beam="1">  1        1 0.11048159E+00 0.92026999E+02</pdfrwt>
<pdfrwt beam="2">  1       -1 0.45358002E-03 0.92026999E+02</pdfrwt>
<totfact> 0.13867031E+05</totfact>
</mgrwt>
</event>
<event>
 4    1  0.3845386E+001  0.3576312E+03  0.7546771E-02  0.1059526E+00
          2   -1    0    0  501    0  0.00000000000E+00  0.00000000000E+00  0.66851479576E+03  0.66851479576E+03  0.00000000000E+00 0. -1.
         -2   -1    0    0    0  501 -0.00000000000E+00 -0.00000000000E+00 -0.47829938155E+02  0.47829938155E+02  0.00000000000E+00 0.  1.
          2    1    1    2  502    0 -0.12507352885E+03 -0.35682749607E+02  0.55613893813E+03  0.57114548474E+03  0.00000000000E+00 0. -1.
         -2    1    1    2    0  502  0.12507352885E+03  0.35682749607E+02  0.64545919474E+02  0.14519924917E+03  0.00000000000E+00 0.  1.
<mgrwt>
<rscale>  0 0.35763121E+03</rscale>
<asrwt>0</asrwt>
<pdfrwt beam="1">  1        2 0.10284842E+00 0.35763121E+03</pdfrwt>
<pdfrwt beam="2">  1       -2 0.73584525E-02 0.35763121E+03</pdfrwt>
<totfact> 0.48031100E+03</totfact>
</mgrwt>
</event>
<event>
 5    1  0.3845386E+001  0.9030051E+02  0.7546771E-02  0.1302126E+00
          2   -1    0    0  501    0  0.00000000000E+00  0.00000000000E+00  0.23816634622E+03  0.23816634622E+03  0.00000000000E+00 0. -1.
         -2   -1    0    0    0  501 -0.00000000000E+00 -0.00000000000E+00 -0.85593342090E+01  0.85593342090E+01  0.00000000000E+00 0.  1.
         23    2    1    2    0    0  0.00000000000E+00  0.00000000000E+00  0.22960701201E+03  0.24672568043E+03  0.90300506193E+02 0.  0.
          2    1    3    3  502    0  0.27421359098E+02  0.56698981837E+01  0.21157640134E+03  0.21342130232E+03  0.00000000000E+00 0. -1.
         -2    1    3    3    0  502 -0.27421359098E+02 -0.56698981837E+01  0.18030610676E+02  0.33304378113E+02  0.00000000000E+00 0.  1.
<mgrwt>
<rscale>  0 0.90300506E+02</rscale>
<asrwt>0</asrwt>
<pdfrwt beam="1">  1        2 0.36640971E-01 0.90300506E+02</pdfrwt>
<pdfrwt beam="2">  1       -2 0.13168208E-02 0.90300506E+02</pdfrwt>
<totfact> 0.16919984E+05</totfact>
</mgrwt>
</event>
<event>
 5    1  0.3845386E+001  0.9121273E+02  0.7546771E-02  0.1299941E+00
         -2   -1    0    0    0  501 -0.00000000000E+00  0.00000000000E+00  0.26227026505E+01  0.26227026505E+01  0.00000000000E+00 0.  1.
          2   -1    0    0  501    0  0.00000000000E+00 -0.00000000000E+00 -0.79305231247E+03  0.79305231247E+03  0.00000000000E+00 0. -1.
         23    2    1    2    0    0  0.00000000000E+00  0.00000000000E+00 -0.79042960982E+03  0.79567501512E+03  0.91212727223E+02 0.  0.
          2    1    3    3  502    0 -0.46718884752E+01  0.44116763281E+02 -0.30296831598E+03  0.30619914407E+03  0.00000000000E+00 0. -1.
         -2    1    3    3    0  502  0.46718884752E+01 -0.44116763281E+02 -0.48746129384E+03  0.48947587105E+03  0.00000000000E+00 0.  1.
<mgrwt>
<rscale>  0 0.91212727E+02</rscale>
<asrwt>0</asrwt>
<pdfrwt beam="2">  1        2 0.12200810E+00 0.91212727E+02</pdfrwt>
<pdfrwt beam="1">  1       -2 0.40349254E-03 0.91212727E+02</pdfrwt>
<totfact> 0.24310971E+05</totfact>
</mgrwt>
</event>
<event>
 5    1  0.3845386E+001  0.9077932E+02  0.7546771E-02  0.1300975E+00
         -2   -1    0    0    0  501 -0.00000000000E+00  0.00000000000E+00  0.25154398850E+02  0.25154398850E+02  0.00000000000E+00 0.  1.
          2   -1    0    0  501    0  0.00000000000E+00 -0.00000000000E+00 -0.81903014009E+02  0.81903014009E+02  0.00000000000E+00 0. -1.
         23    2    1    2    0    0  0.00000000000E+00  0.00000000000E+00 -0.56748615159E+02  0.10705741286E+03  0.90779316617E+02 0.  0.
          2    1    3    3  502    0 -0.62492839843E+01 -0.41970406846E+02 -0.47377478419E+02  0.63601840087E+02  0.00000000000E+00 0. -1.
         -2    1    3    3    0  502  0.62492839843E+01  0.41970406846E+02 -0.93711367396E+01  0.43455572771E+02  0.00000000000E+00 0.  1.
<mgrwt>
<rscale>  0 0.90779317E+02</rscale>
<asrwt>0</asrwt>
<pdfrwt beam="2">  1        2 0.12600464E-01 0.90779317E+02</pdfrwt>
<pdfrwt beam="1">  1       -2 0.38699076E-02 0.90779317E+02</pdfrwt>
<totfact> 0.11704345E+05</totfact>
</mgrwt>
</event>
<event>
 5    1  0.3845386E+001  0.9449134E+02  0.7546771E-02  0.1292326E+00
          1   -1    0    0  501    0  0.00000000000E+00  0.00000000000E+00  0.10369465675E+03  0.10369465675E+03  0.00000000000E+00 0. -1.
         -1   -1    0    0    0  501 -0.00000000000E+00 -0.00000000000E+00 -0.21526211955E+02  0.21526211955E+02  0.00000000000E+00 0.  1.
         23    2    1    2    0    0  0.00000000000E+00  0.00000000000E+00  0.82168444795E+02  0.12522086870E+03  0.94491336318E+02 0.  0.
          2    1    3    3  502    0 -0.48117520447E+01 -0.42074140105E+02  0.13325359736E+02  0.44395398809E+02  0.00000000000E+00 0.  1.
         -2    1    3    3    0  502  0.48117520447E+01  0.42074140105E+02  0.68843085060E+02  0.80825469896E+02  0.00000000000E+00 0. -1.
<mgrwt>
<rscale>  0 0.94491336E+02</rscale>
<asrwt>0</asrwt>
<pdfrwt beam="1">  1        1 0.15953024E-01 0.94491336E+02</pdfrwt>
<pdfrwt beam="2">  1       -1 0.33117250E-02 0.94491336E+02</pdfrwt>
<totfact> 0.95319812E+04</totfact>
</mgrwt>
</event>
<event>
 5    1  0.3845386E+001  0.8842102E+02  0.7546771E-02  0.1306721E+00
          2   -1    0    0  501    0  0.00000000000E+00  0.00000000000E+00  0.19868820788E+01  0.19868820788E+01  0.00000000000E+00 0. -1.
         -2   -1    0    0    0  501 -0.00000000000E+00 -0.00000000000E+00 -0.98373687460E+03  0.98373687460E+03  0.00000000000E+00 0.  1.
         23    2    1    2    0    0  0.00000000000E+00  0.00000000000E+00 -0.98174999252E+03  0.98572375668E+03  0.88421019365E+02 0.  0.
          2    1    3    3  502    0  0.40037484560E+02 -0.42794743480E+01 -0.28736389445E+03  0.29017119413E+03  0.00000000000E+00 0. -1.
         -2    1    3    3    0  502 -0.40037484560E+02  0.42794743480E+01 -0.69438609807E+03  0.69555256255E+03  0.00000000000E+00 0.  1.
<mgrwt>
<rscale>  0 0.88421019E+02</rscale>
<asrwt>0</asrwt>
<pdfrwt beam="1">  1        2 0.30567459E-03 0.88421019E+02</pdfrwt>
<pdfrwt beam="2">  1       -2 0.15134392E+00 0.88421019E+02</pdfrwt>
<totfact> 0.20625467E+04</totfact>
</mgrwt>
</event>
<event>
 5    1  0.3845386E+001  0.9232879E+02  0.7546771E-02  0.1297308E+00
         -2   -1    0    0    0  501 -0.00000000000E+00  0.00000000000E+00  0.75088975676E+01  0.75088975676E+01  0.00000000000E+00 0.  1.
          2   -1    0    0  501    0  0.00000000000E+00 -0.00000000000E+00 -0.28381682505E+03  0.28381682505E+03  0.00000000000E+00 0. -1.
         23    2    1    2    0    0  0.00000000000E+00  0.00000000000E+00 -0.27630792748E+03  0.29132572262E+03  0.92328792199E+02 0.  0.
          2    1    3    3  502    0 -0.44877270720E+02 -0.10789983183E+02 -0.14090162394E+03  0.14826888006E+03  0.00000000000E+00 0. -1.
         -2    1    3    3    0  502  0.44877270720E+02  0.10789983183E+02 -0.13540630354E+03  0.14305684256E+03  0.00000000000E+00 0.  1.
<mgrwt>
<rscale>  0 0.92328792E+02</rscale>
<asrwt>0</asrwt>
<pdfrwt beam="2">  1        2 0.43664136E-01 0.92328792E+02</pdfrwt>
<pdfrwt beam="1">  1       -2 0.11552148E-02 0.92328792E+02</pdfrwt>
<totfact> 0.17017240E+05</totfact>
</mgrwt>
</event>
<event>
 5    1  0.3845386E+001  0.9123729E+02  0.7546771E-02  0.1299883E+00
         -1   -1    0    0    0  501 -0.00000000000E+00  0.00000000000E+00  0.11464131338E+01  0.11464131338E+01  0.00000000000E+00 0.  1.
          1   -1    0    0  501    0  0.00000000000E+00 -0.00000000000E+00 -0.18152801013E+04  0.18152801013E+04  0.00000000000E+00 0. -1.
         23    2    1    2    0    0  0.00000000000E+00  0.00000000000E+00 -0.18141336882E+04  0.18164265145E+04  0.91237293905E+02 0.  0.
          2    1    3    3  502    0  0.28727209241E+02  0.12391902596E+02 -0.15680422849E+04  0.15683543666E+04  0.00000000000E+00 0. -1.
         -2    1    3    3    0  502 -0.28727209241E+02 -0.12391902596E+02 -0.24609140326E+03  0.24807214790E+03  0.00000000000E+00 0.  1.
<mgrwt>
<rscale>  0 0.91237294E+02</rscale>
<asrwt>0</asrwt>
<pdfrwt beam="2">  1        1 0.27927563E+00 0.91237294E+02</pdfrwt>
<pdfrwt beam="1">  1       -1 0.17637013E-03 0.91237294E+02</pdfrwt>
<totfact> 0.90869151E+04</totfact>
</mgrwt>
</event>
<event>
 5    1  0.3845386E+001  0.8976655E+02  0.7546771E-02  0.1303418E+00
          1   -1    0    0  501    0  0.00000000000E+00  0.00000000000E+00  0.34049012555E+02  0.34049012555E+02  0.00000000000E+00 0. -1.
         -1   -1    0    0    0  501 -0.00000000000E+00 -0.00000000000E+00 -0.59164952314E+02  0.59164952314E+02  0.00000000000E+00 0.  1.
         23    2    1    2    0    0  0.00000000000E+00  0.00000000000E+00 -0.25115939758E+02  0.93213964869E+02  0.89766546200E+02 0.  0.
          2    1    3    3  502    0  0.43907836453E+02  0.92758154403E+01 -0.11774438883E+02  0.46395864741E+02  0.00000000000E+00 0. -1.
         -2    1    3    3    0  502 -0.43907836453E+02 -0.92758154403E+01 -0.13341500875E+02  0.46818100128E+02  0.00000000000E+00 0.  1.
<mgrwt>
<rscale>  0 0.89766546E+02</rscale>
<asrwt>0</asrwt>
<pdfrwt beam="1">  1        1 0.52383097E-02 0.89766546E+02</pdfrwt>
<pdfrwt beam="2">  1       -1 0.91023003E-02 0.89766546E+02</pdfrwt>
<totfact> 0.92451656E+04</totfact>
</mgrwt>
</event>
<event>
 5    1  0.3845386E+001  0.8704363E+02  0.7546771E-02  0.1310173E+00
          1   -1    0    0  501    0  0.00000000000E+00  0.00000000000E+00  0.39655197405E+02  0.39655197405E+02  0.00000000000E+00 0. -1.
         -1   -1    0    0    0  501 -0.00000000000E+00 -0.00000000000E+00 -0.47765450377E+02  0.47765450377E+02  0.00000000000E+00 0.  1.
         23    2    1    2    0    0  0.00000000000E+00  0.00000000000E+00 -0.81102529722E+01  0.87420647782E+02  0.87043629608E+02 0.  0.
          2    1    3    3  502    0 -0.13733110274E+01  0.31003598702E+02  0.26589972083E+02  0.40867294148E+02  0.00000000000E+00 0. -1.
         -2    1    3    3    0  502  0.13733110274E+01 -0.31003598702E+02 -0.34700225056E+02  0.46553353634E+02  0.00000000000E+00 0.  1.
<mgrwt>
<rscale>  0 0.87043630E+02</rscale>
<asrwt>0</asrwt>
<pdfrwt beam="1">  1        1 0.61007996E-02 0.87043630E+02</pdfrwt>
<pdfrwt beam="2">  1       -1 0.73485308E-02 0.87043630E+02</pdfrwt>
<totfact> 0.10316343E+05</totfact>
</mgrwt>
</event>
<event>
 5    1  0.3845386E+001  0.9119254E+02  0.7546771E-02  0.1299989E+00
          1   -1    0    0  501    0  0.00000000000E+00  0.00000000000E+00  0.80814901960E+02  0.80814901960E+02  0.00000000000E+00 0. -1.
         -1   -1    0    0    0  501 -0.00000000000E+00 -0.00000000000E+00 -0.25725700326E+02  0.25725700326E+02  0.00000000000E+00 0.  1.
         23    2    1    2    0    0  0.00000000000E+00  0.00000000000E+00  0.55089201633E+02  0.10654060229E+03  0.91192542452E+02 0.  0.
          2    1    3    3  502    0  0.15738792683E+02 -0.33176383896E+02 -0.40350209125E+01  0.36941351319E+02  0.00000000000E+00 0.  1.
         -2    1    3    3    0  502 -0.15738792683E+02  0.33176383896E+02  0.59124222546E+02  0.69599250967E+02  0.00000000000E+00 0. -1.
<mgrwt>
<rscale>  0 0.91192542E+02</rscale>
<asrwt>0</asrwt>
<pdfrwt beam="1">  1        1 0.12433062E-01 0.91192542E+02</pdfrwt>
<pdfrwt beam="2">  1       -1 0.39578001E-02 0.91192542E+02</pdfrwt>
<totfact> 0.10085790E+05</totfact>
</mgrwt>
</event>
<event>
 5    1  0.3845386E+001  0.8181990E+02  0.7546771E-02  0.1323965E+00
         -3   -1    0    0    0  501 -0.00000000000E+00  0.00000000000E+00  0.15490131873E+03  0.15490131873E+03  0.00000000000E+00 0.  1.
          3   -1    0    0  501    0  0.00000000000E+00 -0.00000000000E+00 -0.10804453344E+02  0.10804453344E+02  0.00000000000E+00 0. -1.
         23    2    1    2    0    0  0.00000000000E+00  0.00000000000E+00  0.14409686539E+03  0.16570577208E+03  0.81819901518E+02 0.  0.
          2    1    3    3  502    0 -0.13846511586E+02 -0.24344424346E+02  0.11654969392E+02  0.30335048894E+02  0.00000000000E+00 0. -1.
         -2    1    3    3    0  502  0.13846511586E+02  0.24344424346E+02  0.13244189600E+03  0.13537072318E+03  0.00000000000E+00 0.  1.
<mgrwt>
<rscale>  0 0.81819902E+02</rscale>
<asrwt>0</asrwt>
<pdfrwt beam="2">  1        3 0.16622237E-02 0.81819902E+02</pdfrwt>
<pdfrwt beam="1">  1       -3 0.23830970E-01 0.81819902E+02</pdfrwt>
<totfact> 0.40618309E+04</totfact>
</mgrwt>
</event>
<event>
 5    1  0.3845386E+001  0.9212977E+02  0.7546771E-02  0.1297775E+00
          2   -1    0    0  501    0  0.00000000000E+00  0.00000000000E+00  0.73366924380E+02  0.73366924380E+02  0.00000000000E+00 0.  1.
         -2   -1    0    0    0  501 -0.00000000000E+00 -0.00000000000E+00 -0.28922758826E+02  0.28922758826E+02  0.00000000000E+00 0. -1.
         23    2    1    2    0    0  0.00000000000E+00  0.00000000000E+00  0.44444165554E+02  0.10228968321E+03  0.92129774984E+02 0.  0.
          2    1    3    3  502    0  0.13589849786E+02 -0.15627210203E+02 -0.23462596603E+02  0.31295161851E+02  0.00000000000E+00 0. -1.
         -2    1    3    3    0  502 -0.13589849786E+02  0.15627210203E+02  0.67906762156E+02  0.70994521355E+02  0.00000000000E+00 0.  1.
<mgrwt>
<rscale>  0 0.92129775E+02</rscale>
<asrwt>0</asrwt>
<pdfrwt beam="1">  1        2 0.11287219E-01 0.92129775E+02</pdfrwt>
<pdfrwt beam="2">  1       -2 0.44496552E-02 0.92129775E+02</pdfrwt>
<totfact> 0.10886514E+05</totfact>
</mgrwt>
</event>
<event>
 5    1  0.3845386E+001  0.9135221E+02  0.7546771E-02  0.1299610E+00
          1   -1    0    0  501    0  0.00000000000E+00  0.00000000000E+00  0.28775692609E+03  0.28775692609E+03  0.00000000000E+00 0. -1.
         -1   -1    0    0    0  501 -0.00000000000E+00 -0.00000000000E+00 -0.72502398168E+01  0.72502398168E+01  0.00000000000E+00 0.  1.
         23    2    1    2    0    0  0.00000000000E+00  0.00000000000E+00  0.28050668627E+03  0.29500716590E+03  0.91352213396E+02 0.  0.
          2    1    3    3  502    0  0.37685887575E+02 -0.14153816514E+02  0.70560214762E+02  0.81236079124E+02  0.00000000000E+00 0.  1.
         -2    1    3    3    0  502 -0.37685887575E+02  0.14153816514E+02  0.20994647151E+03  0.21377108678E+03  0.00000000000E+00 0. -1.
<mgrwt>
<rscale>  0 0.91352213E+02</rscale>
<asrwt>0</asrwt>
<pdfrwt beam="1">  1        1 0.44270287E-01 0.91352213E+02</pdfrwt>
<pdfrwt beam="2">  1       -1 0.11154217E-02 0.91352213E+02</pdfrwt>
<totfact> 0.12645260E+05</totfact>
</mgrwt>
</event>
<event>
 5    1  0.3845386E+001  0.9024665E+02  0.7546771E-02  0.1302255E+00
         -2   -1    0    0    0  501 -0.00000000000E+00  0.00000000000E+00  0.52970949926E+01  0.52970949926E+01  0.00000000000E+00 0.  1.
          2   -1    0    0  501    0  0.00000000000E+00 -0.00000000000E+00 -0.38438321625E+03  0.38438321625E+03  0.00000000000E+00 0. -1.
         23    2    1    2    0    0  0.00000000000E+00  0.00000000000E+00 -0.37908612126E+03  0.38968031124E+03  0.90246648914E+02 0.  0.
          2    1    3    3  502    0 -0.62605997788E+01  0.23990743418E+02 -0.35233390024E+03  0.35320522099E+03  0.00000000000E+00 0. -1.
         -2    1    3    3    0  502  0.62605997788E+01 -0.23990743418E+02 -0.26752221022E+02  0.36475090253E+02  0.00000000000E+00 0.  1.
<mgrwt>
<rscale>  0 0.90246649E+02</rscale>
<asrwt>0</asrwt>
<pdfrwt beam="2">  1        2 0.59135910E-01 0.90246649E+02</pdfrwt>
<pdfrwt beam="1">  1       -2 0.81493727E-03 0.90246649E+02</pdfrwt>
<totfact> 0.20221683E+05</totfact>
</mgrwt>
</event>
<event>
 5    1  0.3845386E+001  0.9102728E+02  0.7546771E-02  0.1300383E+00
         -2   -1    0    0    0  501 -0.00000000000E+00  0.00000000000E+00  0.92594056223E+01  0.92594056223E+01  0.00000000000E+00 0.  1.
          2   -1    0    0  501    0  0.00000000000E+00 -0.00000000000E+00 -0.22371755977E+03  0.22371755977E+03  0.00000000000E+00 0. -1.
         23    2    1    2    0    0  0.00000000000E+00  0.00000000000E+00 -0.21445815415E+03  0.23297696539E+03  0.91027284497E+02 0.  0.
          2    1    3    3  502    0  0.18811541403E+02  0.36991908565E+02 -0.15505778116E+03  0.16051539143E+03  0.00000000000E+00 0. -1.
         -2    1    3    3    0  502 -0.18811541403E+02 -0.36991908565E+02 -0.59400372987E+02  0.72461573957E+02  0.00000000000E+00 0.  1.
<mgrwt>
<rscale>  0 0.91027284E+02</rscale>
<asrwt>0</asrwt>
<pdfrwt beam="2">  1        2 0.34418082E-01 0.91027284E+02</pdfrwt>
<pdfrwt beam="1">  1       -2 0.14245241E-02 0.91027284E+02</pdfrwt>
<totfact> 0.16183906E+05</totfact>
</mgrwt>
</event>
<event>
 5    1  0.3845386E+001  0.9237573E+02  0.7546771E-02  0.1297198E+00
         -1   -1    0    0    0  501 -0.00000000000E+00  0.00000000000E+00  0.14095790564E+03  0.14095790564E+03  0.00000000000E+00 0. -1.
          1   -1    0    0  501    0  0.00000000000E+00 -0.00000000000E+00 -0.15134437829E+02  0.15134437829E+02  0.00000000000E+00 0.  1.
         23    2    1    2    0    0  0.00000000000E+00  0.00000000000E+00  0.12582346782E+03  0.15609234347E+03  0.92375725373E+02 0.  0.
          2    1    3    3  502    0  0.17513591756E+01 -0.23781588640E+02  0.12975190267E+03  0.13192493117E+03  0.00000000000E+00 0. -1.
         -2    1    3    3    0  502 -0.17513591756E+01  0.23781588640E+02 -0.39284348538E+01  0.24167412307E+02  0.00000000000E+00 0.  1.
<mgrwt>
<rscale>  0 0.92375725E+02</rscale>
<asrwt>0</asrwt>
<pdfrwt beam="2">  1        1 0.23283752E-02 0.92375725E+02</pdfrwt>
<pdfrwt beam="1">  1       -1 0.21685831E-01 0.92375725E+02</pdfrwt>
<totfact> 0.73334105E+04</totfact>
</mgrwt>
</event>
<event>
 5    1  0.3845386E+001  0.9300252E+02  0.7546771E-02  0.1295739E+00
          2   -1    0    0  501    0  0.00000000000E+00  0.00000000000E+00  0.12454478782E+03  0.12454478782E+03  0.00000000000E+00 0. -1.
         -2   -1    0    0    0  501 -0.00000000000E+00 -0.00000000000E+00 -0.17362164041E+02  0.17362164041E+02  0.00000000000E+00 0.  1.
         23    2    1    2    0    0  0.00000000000E+00  0.00000000000E+00  0.10718262378E+03  0.14190695187E+03  0.93002516884E+02 0.  0.
          2    1    3    3  502    0  0.20258744078E+01 -0.44847700185E+02  0.72087780768E+02  0.84923898374E+02  0.00000000000E+00 0. -1.
         -2    1    3    3    0  502 -0.20258744078E+01  0.44847700185E+02  0.35094843015E+02  0.56983053492E+02  0.00000000000E+00 0.  1.
<mgrwt>
<rscale>  0 0.93002517E+02</rscale>
<asrwt>0</asrwt>
<pdfrwt beam="1">  1        2 0.19160736E-01 0.93002517E+02</pdfrwt>
<pdfrwt beam="2">  1       -2 0.26711022E-02 0.93002517E+02</pdfrwt>
<totfact> 0.12448924E+05</totfact>
</mgrwt>
</event>
<event>
 5    1  0.3845386E+001  0.9113709E+02  0.7546771E-02  0.1300121E+00
          1   -1    0    0  501    0  0.00000000000E+00  0.00000000000E+00  0.13316382553E+04  0.13316382553E+04  0.00000000000E+00 0. -1.
         -1   -1    0    0    0  501 -0.00000000000E+00 -0.00000000000E+00 -0.15593517608E+01  0.15593517608E+01  0.00000000000E+00 0.  1.
         23    2    1    2    0    0  0.00000000000E+00  0.00000000000E+00  0.13300789036E+04  0.13331976071E+04  0.91137093617E+02 0.  0.
          2    1    3    3  502    0 -0.71820932966E+01  0.30883779262E+02  0.11437960813E+04  0.11442354941E+04  0.00000000000E+00 0. -1.
         -2    1    3    3    0  502  0.71820932966E+01 -0.30883779262E+02  0.18628282222E+03  0.18896211298E+03  0.00000000000E+00 0.  1.
<mgrwt>
<rscale>  0 0.91137094E+02</rscale>
<asrwt>0</asrwt>
<pdfrwt beam="1">  1        1 0.20486651E+00 0.91137094E+02</pdfrwt>
<pdfrwt beam="2">  1       -1 0.23990134E-03 0.91137094E+02</pdfrwt>
<totfact> 0.12046189E+05</totfact>
</mgrwt>
</event>
<event>
 5    1  0.3845386E+001  0.8297606E+02  0.7546771E-02  0.1320812E+00
          1   -1    0    0  501    0  0.00000000000E+00  0.00000000000E+00  0.39170788558E+03  0.39170788558E+03  0.00000000000E+00 0. -1.
         -1   -1    0    0    0  501 -0.00000000000E+00 -0.00000000000E+00 -0.43942351874E+01  0.43942351874E+01  0.00000000000E+00 0.  1.
         23    2    1    2    0    0  0.00000000000E+00  0.00000000000E+00  0.38731365039E+03  0.39610212077E+03  0.82976058571E+02 0.  0.
          2    1    3    3  502    0 -0.12710048807E+02 -0.39470198734E+02  0.20008740649E+03  0.20433896389E+03  0.00000000000E+00 0. -1.
         -2    1    3    3    0  502  0.12710048807E+02  0.39470198734E+02  0.18722624390E+03  0.19176315687E+03  0.00000000000E+00 0.  1.
<mgrwt>
<rscale>  0 0.82976059E+02</rscale>
<asrwt>0</asrwt>
<pdfrwt beam="1">  1        1 0.60262724E-01 0.82976059E+02</pdfrwt>
<pdfrwt beam="2">  1       -1 0.67603649E-03 0.82976059E+02</pdfrwt>
<totfact> 0.17244189E+05</totfact>
</mgrwt>
</event>
<event>
 5    1  0.3845386E+001  0.8893431E+02  0.7546771E-02  0.1305453E+00
          1   -1    0    0  501    0  0.00000000000E+00  0.00000000000E+00  0.55179043443E+01  0.55179043443E+01  0.00000000000E+00 0. -1.
         -1   -1    0    0    0  501 -0.00000000000E+00 -0.00000000000E+00 -0.35834761218E+03  0.35834761218E+03  0.00000000000E+00 0.  1.
         23    2    1    2    0    0  0.00000000000E+00  0.00000000000E+00 -0.35282970784E+03  0.36386551653E+03  0.88934309376E+02 0.  0.
          2    1    3    3  502    0  0.42243237163E+02  0.53646474595E+01 -0.22881944855E+03  0.23274795502E+03  0.00000000000E+00 0. -1.
         -2    1    3    3    0  502 -0.42243237163E+02 -0.53646474595E+01 -0.12401025929E+03  0.13111756151E+03  0.00000000000E+00 0.  1.
<mgrwt>
<rscale>  0 0.88934309E+02</rscale>
<asrwt>0</asrwt>
<pdfrwt beam="1">  1        1 0.84890816E-03 0.88934309E+02</pdfrwt>
<pdfrwt beam="2">  1       -1 0.55130415E-01 0.88934309E+02</pdfrwt>
<totfact> 0.59964322E+04</totfact>
</mgrwt>
</event>
<event>
 5    1  0.3845386E+001  0.9173592E+02  0.7546771E-02  0.1298702E+00
          4   -1    0    0  501    0  0.00000000000E+00  0.00000000000E+00  0.32941550336E+02  0.32941550336E+02  0.00000000000E+00 0. -1.
         -4   -1    0    0    0  501 -0.00000000000E+00 -0.00000000000E+00 -0.63866755006E+02  0.63866755006E+02  0.00000000000E+00 0.  1.
         23    2    1    2    0    0  0.00000000000E+00  0.00000000000E+00 -0.30925204670E+02  0.96808305342E+02  0.91735923712E+02 0.  0.
          2    1    3    3  502    0 -0.14807945037E+02  0.35436086833E+02 -0.41926665953E+02  0.56858040805E+02  0.00000000000E+00 0. -1.
         -2    1    3    3    0  502  0.14807945037E+02 -0.35436086833E+02  0.11001461283E+02  0.39950264537E+02  0.00000000000E+00 0.  1.
<mgrwt>
<rscale>  0 0.91735924E+02</rscale>
<asrwt>0</asrwt>
<pdfrwt beam="1">  1        4 0.50679308E-02 0.91735924E+02</pdfrwt>
<pdfrwt beam="2">  1       -4 0.98256546E-02 0.91735924E+02</pdfrwt>
<totfact> 0.26218102E+04</totfact>
</mgrwt>
</event>
<event>
 5    1  0.3845386E+001  0.6705371E+02  0.7546771E-02  0.1370409E+00
          2   -1    0    0  501    0  0.00000000000E+00  0.00000000000E+00  0.10126783502E+04  0.10126783502E+04  0.00000000000E+00 0. -1.
         -2   -1    0    0    0  501 -0.00000000000E+00 -0.00000000000E+00 -0.11099774304E+01  0.11099774304E+01  0.00000000000E+00 0.  1.
         23    2    1    2    0    0  0.00000000000E+00  0.00000000000E+00  0.10115683728E+04  0.10137883277E+04  0.67053713187E+02 0.  0.
          2    1    3    3  502    0  0.22848994242E+02  0.11060679513E+02  0.17466841874E+03  0.17650346080E+03  0.00000000000E+00 0. -1.
         -2    1    3    3    0  502 -0.22848994242E+02 -0.11060679513E+02  0.83689995407E+03  0.83728486687E+03  0.00000000000E+00 0.  1.
<mgrwt>
<rscale>  0 0.67053713E+02</rscale>
<asrwt>0</asrwt>
<pdfrwt beam="1">  1        2 0.15579593E+00 0.67053713E+02</pdfrwt>
<pdfrwt beam="2">  1       -2 0.17076657E-03 0.67053713E+02</pdfrwt>
<totfact> 0.55474482E+05</totfact>
</mgrwt>
</event>
<event>
 5    1  0.3845386E+001  0.9251400E+02  0.7546771E-02  0.1296875E+00
         -2   -1    0    0    0  501 -0.00000000000E+00  0.00000000000E+00  0.87875625050E+01  0.87875625050E+01  0.00000000000E+00 0. -1.
          2   -1    0    0  501    0  0.00000000000E+00 -0.00000000000E+00 -0.24349300941E+03  0.24349300941E+03  0.00000000000E+00 0.  1.
         23    2    1    2    0    0  0.00000000000E+00  0.00000000000E+00 -0.23470544691E+03  0.25228057192E+03  0.92513999800E+02 0.  0.
          2    1    3    3  502    0 -0.18356741826E+02  0.16454604083E+02 -0.10618484521E+02  0.26841687344E+02  0.00000000000E+00 0. -1.
         -2    1    3    3    0  502  0.18356741826E+02 -0.16454604083E+02 -0.22408696239E+03  0.22543888457E+03  0.00000000000E+00 0.  1.
<mgrwt>
<rscale>  0 0.92514000E+02</rscale>
<asrwt>0</asrwt>
<pdfrwt beam="2">  1        2 0.37460452E-01 0.92514000E+02</pdfrwt>
<pdfrwt beam="1">  1       -2 0.13519331E-02 0.92514000E+02</pdfrwt>
<totfact> 0.15986160E+05</totfact>
</mgrwt>
</event>
<event>
 5    1  0.3845386E+001  0.9155182E+02  0.7546771E-02  0.1299137E+00
          2   -1    0    0  501    0  0.00000000000E+00  0.00000000000E+00  0.12091019059E+04  0.12091019059E+04  0.00000000000E+00 0. -1.
         -2   -1    0    0    0  501 -0.00000000000E+00 -0.00000000000E+00 -0.17330497145E+01  0.17330497145E+01  0.00000000000E+00 0.  1.
         23    2    1    2    0    0  0.00000000000E+00  0.00000000000E+00  0.12073688562E+04  0.12108349556E+04  0.91551815116E+02 0.  0.
          2    1    3    3  502    0  0.10533022383E+02 -0.27051880531E+02  0.10717847225E+04  0.10721778025E+04  0.00000000000E+00 0. -1.
         -2    1    3    3    0  502 -0.10533022383E+02  0.27051880531E+02  0.13558413364E+03  0.13865715306E+03  0.00000000000E+00 0.  1.
<mgrwt>
<rscale>  0 0.91551815E+02</rscale>
<asrwt>0</asrwt>
<pdfrwt beam="1">  1        2 0.18601500E+00 0.91551815E+02</pdfrwt>
<pdfrwt beam="2">  1       -2 0.26662400E-03 0.91551815E+02</pdfrwt>
<totfact> 0.24580032E+05</totfact>
</mgrwt>
</event>
<event>
 5    1  0.3845386E+001  0.9373125E+02  0.7546771E-02  0.1294059E+00
         -2   -1    0    0    0  501 -0.00000000000E+00  0.00000000000E+00  0.13808263021E+02  0.13808263021E+02  0.00000000000E+00 0.  1.
          2   -1    0    0  501    0  0.00000000000E+00 -0.00000000000E+00 -0.15906322051E+03  0.15906322051E+03  0.00000000000E+00 0. -1.
         23    2    1    2    0    0  0.00000000000E+00  0.00000000000E+00 -0.14525495749E+03  0.17287148354E+03  0.93731249556E+02 0.  0.
          2    1    3    3  502    0 -0.26614852407E+02  0.33870409318E+02 -0.10667684240E+03  0.11504565920E+03  0.00000000000E+00 0. -1.
         -2    1    3    3    0  502  0.26614852407E+02 -0.33870409318E+02 -0.38578115090E+02  0.57825824334E+02  0.00000000000E+00 0.  1.
<mgrwt>
<rscale>  0 0.93731250E+02</rscale>
<asrwt>0</asrwt>
<pdfrwt beam="2">  1        2 0.24471263E-01 0.93731250E+02</pdfrwt>
<pdfrwt beam="1">  1       -2 0.21243483E-02 0.93731250E+02</pdfrwt>
<totfact> 0.13233279E+05</totfact>
</mgrwt>
</event>
<event>
 5    1  0.3845386E+001  0.8687601E+02  0.7546771E-02  0.1310598E+00
         -2   -1    0    0    0  501 -0.00000000000E+00  0.00000000000E+00  0.13403976182E+01  0.13403976182E+01  0.00000000000E+00 0.  1.
          2   -1    0    0  501    0  0.00000000000E+00 -0.00000000000E+00 -0.14076871324E+04  0.14076871324E+04  0.00000000000E+00 0. -1.
         23    2    1    2    0    0  0.00000000000E+00  0.00000000000E+00 -0.14063467348E+04  0.14090275300E+04  0.86876014631E+02 0.  0.
          2    1    3    3  502    0  0.81105061445E+01 -0.42663919936E+02 -0.71830220299E+03  0.71961381670E+03  0.00000000000E+00 0. -1.
         -2    1    3    3    0  502 -0.81105061445E+01  0.42663919936E+02 -0.68804453182E+03  0.68941371334E+03  0.00000000000E+00 0.  1.
<mgrwt>
<rscale>  0 0.86876015E+02</rscale>
<asrwt>0</asrwt>
<pdfrwt beam="2">  1        2 0.21656678E+00 0.86876015E+02</pdfrwt>
<pdfrwt beam="1">  1       -2 0.20621547E-03 0.86876015E+02</pdfrwt>
<totfact> 0.27365968E+05</totfact>
</mgrwt>
</event>
<event>
 5    1  0.3845386E+001  0.9080257E+02  0.7546771E-02  0.1300920E+00
         -2   -1    0    0    0  501 -0.00000000000E+00  0.00000000000E+00  0.22803777372E+03  0.22803777372E+03  0.00000000000E+00 0.  1.
          2   -1    0    0  501    0  0.00000000000E+00 -0.00000000000E+00 -0.90391888234E+01  0.90391888234E+01  0.00000000000E+00 0. -1.
         23    2    1    2    0    0  0.00000000000E+00  0.00000000000E+00  0.21899858490E+03  0.23707696255E+03  0.90802565945E+02 0.  0.
          2    1    3    3  502    0  0.16593071487E+02  0.26307083168E+02  0.23146410110E+02  0.38770464882E+02  0.00000000000E+00 0. -1.
         -2    1    3    3    0  502 -0.16593071487E+02 -0.26307083168E+02  0.19585217479E+03  0.19830649767E+03  0.00000000000E+00 0.  1.
<mgrwt>
<rscale>  0 0.90802566E+02</rscale>
<asrwt>0</asrwt>
<pdfrwt beam="2">  1        2 0.13906446E-02 0.90802566E+02</pdfrwt>
<pdfrwt beam="1">  1       -2 0.35082730E-01 0.90802566E+02</pdfrwt>
<totfact> 0.59358590E+04</totfact>
</mgrwt>
</event>
<event>
 5    1  0.3845386E+001  0.9024916E+02  0.7546771E-02  0.1302249E+00
         -4   -1    0    0    0  501 -0.00000000000E+00  0.00000000000E+00  0.91001483938E+01  0.91001483938E+01  0.00000000000E+00 0.  1.
          4   -1    0    0  501    0  0.00000000000E+00 -0.00000000000E+00 -0.22375762892E+03  0.22375762892E+03  0.00000000000E+00 0. -1.
         23    2    1    2    0    0  0.00000000000E+00  0.00000000000E+00 -0.21465748053E+03  0.23285777731E+03  0.90249157944E+02 0.  0.
          2    1    3    3  502    0  0.18215918440E+02 -0.11840431774E+02 -0.20937460548E+03  0.21049879080E+03  0.00000000000E+00 0. -1.
         -2    1    3    3    0  502 -0.18215918440E+02  0.11840431774E+02 -0.52828750494E+01  0.22358986515E+02  0.00000000000E+00 0.  1.
<mgrwt>
<rscale>  0 0.90249158E+02</rscale>
<asrwt>0</asrwt>
<pdfrwt beam="2">  1        4 0.34424251E-01 0.90249158E+02</pdfrwt>
<pdfrwt beam="1">  1       -4 0.14000228E-02 0.90249158E+02</pdfrwt>
<totfact> 0.20642563E+04</totfact>
</mgrwt>
</event>
<event>
 5    1  0.3845386E+001  0.9013852E+02  0.7546771E-02  0.1302517E+00
          1   -1    0    0  501    0  0.00000000000E+00  0.00000000000E+00  0.13091156327E+02  0.13091156327E+02  0.00000000000E+00 0. -1.
         -1   -1    0    0    0  501 -0.00000000000E+00 -0.00000000000E+00 -0.15516109838E+03  0.15516109838E+03  0.00000000000E+00 0.  1.
         23    2    1    2    0    0  0.00000000000E+00  0.00000000000E+00 -0.14206994206E+03  0.16825225471E+03  0.90138519952E+02 0.  0.
          2    1    3    3  502    0 -0.14438875326E+02  0.30182338512E+02 -0.14671680678E+02  0.36533722677E+02  0.00000000000E+00 0. -1.
         -2    1    3    3    0  502  0.14438875326E+02 -0.30182338512E+02 -0.12739826138E+03  0.13171853203E+03  0.00000000000E+00 0.  1.
<mgrwt>
<rscale>  0 0.90138520E+02</rscale>
<asrwt>0</asrwt>
<pdfrwt beam="1">  1        1 0.20140240E-02 0.90138520E+02</pdfrwt>
<pdfrwt beam="2">  1       -1 0.23870939E-01 0.90138520E+02</pdfrwt>
<totfact> 0.76429652E+04</totfact>
</mgrwt>
</event>
<event>
 5    1  0.3845386E+001  0.9117044E+02  0.7546771E-02  0.1300042E+00
         -1   -1    0    0    0  501 -0.00000000000E+00  0.00000000000E+00  0.21037902451E+03  0.21037902451E+03  0.00000000000E+00 0.  1.
          1   -1    0    0  501    0  0.00000000000E+00 -0.00000000000E+00 -0.98774691623E+01  0.98774691623E+01  0.00000000000E+00 0. -1.
         23    2    1    2    0    0  0.00000000000E+00  0.00000000000E+00  0.20050155535E+03  0.22025649367E+03  0.91170440977E+02 0.  0.
          2    1    3    3  502    0  0.34629503752E+02 -0.20451144292E+02  0.48404449200E+02  0.62932046966E+02  0.00000000000E+00 0. -1.
         -2    1    3    3    0  502 -0.34629503752E+02  0.20451144292E+02  0.15209710615E+03  0.15732444671E+03  0.00000000000E+00 0.  1.
<mgrwt>
<rscale>  0 0.91170441E+02</rscale>
<asrwt>0</asrwt>
<pdfrwt beam="2">  1        1 0.15196108E-02 0.91170441E+02</pdfrwt>
<pdfrwt beam="1">  1       -1 0.32366000E-01 0.91170441E+02</pdfrwt>
<totfact> 0.68421005E+04</totfact>
</mgrwt>
</event>
<event>
 5    1  0.3845386E+001  0.9138826E+02  0.7546771E-02  0.1299524E+00
          1   -1    0    0  501    0  0.00000000000E+00  0.00000000000E+00  0.11754665653E+02  0.11754665653E+02  0.00000000000E+00 0. -1.
         -1   -1    0    0    0  501 -0.00000000000E+00 -0.00000000000E+00 -0.17762762595E+03  0.17762762595E+03  0.00000000000E+00 0.  1.
         23    2    1    2    0    0  0.00000000000E+00  0.00000000000E+00 -0.16587296030E+03  0.18938229160E+03  0.91388256439E+02 0.  0.
          2    1    3    3  502    0  0.28091813480E+01  0.45306157291E+02 -0.72086351051E+02  0.85187918136E+02  0.00000000000E+00 0. -1.
         -2    1    3    3    0  502 -0.28091813480E+01 -0.45306157291E+02 -0.93786609246E+02  0.10419437347E+03  0.00000000000E+00 0.  1.
<mgrwt>
<rscale>  0 0.91388256E+02</rscale>
<asrwt>0</asrwt>
<pdfrwt beam="1">  1        1 0.18084103E-02 0.91388256E+02</pdfrwt>
<pdfrwt beam="2">  1       -1 0.27327325E-01 0.91388256E+02</pdfrwt>
<totfact> 0.71288953E+04</totfact>
</mgrwt>
</event>
<event>
 5    1  0.3845386E+001  0.8783442E+02  0.7546771E-02  0.1308182E+00
          1   -1    0    0  501    0  0.00000000000E+00  0.00000000000E+00  0.94966613007E+01  0.94966613007E+01  0.00000000000E+00 0. -1.
         -1   -1    0    0    0  501 -0.00000000000E+00 -0.00000000000E+00 -0.20309468249E+03  0.20309468249E+03  0.00000000000E+00 0.  1.
         23    2    1    2    0    0  0.00000000000E+00  0.00000000000E+00 -0.19359802119E+03  0.21259134379E+03  0.87834421762E+02 0.  0.
          2    1    3    3  502    0 -0.98197963031E+01  0.27813575792E+02 -0.18046051757E+02  0.34578655003E+02  0.00000000000E+00 0. -1.
         -2    1    3    3    0  502  0.98197963031E+01 -0.27813575792E+02 -0.17555196943E+03  0.17801268879E+03  0.00000000000E+00 0.  1.
<mgrwt>
<rscale>  0 0.87834422E+02</rscale>
<asrwt>0</asrwt>
<pdfrwt beam="1">  1        1 0.14610248E-02 0.87834422E+02</pdfrwt>
<pdfrwt beam="2">  1       -1 0.31245337E-01 0.87834422E+02</pdfrwt>
<totfact> 0.76170315E+04</totfact>
</mgrwt>
</event>
<event>
 4    1  0.3845386E+001  0.1359698E+03  0.7546771E-02  0.1218857E+00
          1   -1    0    0  501    0  0.00000000000E+00  0.00000000000E+00  0.22808888975E+03  0.22808888975E+03  0.00000000000E+00 0. -1.
         -1   -1    0    0    0  501 -0.00000000000E+00 -0.00000000000E+00 -0.20263797151E+02  0.20263797151E+02  0.00000000000E+00 0.  1.
          2    1    1    2  502    0 -0.55964847933E+02  0.29150516770E+01  0.33611725272E+02  0.65347607502E+02  0.00000000000E+00 0. -1.
         -2    1    1    2    0  502  0.55964847933E+02 -0.29150516770E+01  0.17421336733E+03  0.18300507940E+03  0.00000000000E+00 0.  1.
<mgrwt>
<rscale>  0 0.13596981E+03</rscale>
<asrwt>0</asrwt>
<pdfrwt beam="1">  1        1 0.35090597E-01 0.13596981E+03</pdfrwt>
<pdfrwt beam="2">  1       -1 0.31175074E-02 0.13596981E+03</pdfrwt>
<totfact> 0.40682458E+04</totfact>
</mgrwt>
</event>
<event>
 5    1  0.3845386E+001  0.6597030E+02  0.7546771E-02  0.1374358E+00
          1   -1    0    0  501    0  0.00000000000E+00  0.00000000000E+00  0.66632244644E+03  0.66632244644E+03  0.00000000000E+00 0. -1.
         -1   -1    0    0    0  501 -0.00000000000E+00 -0.00000000000E+00 -0.16328733715E+01  0.16328733715E+01  0.00000000000E+00 0.  1.
         23    2    1    2    0    0  0.00000000000E+00  0.00000000000E+00  0.66468957307E+03  0.66795531981E+03  0.65970301791E+02 0.  0.
          2    1    3    3  502    0 -0.20305171918E+02 -0.29252583546E+01  0.59387082216E+03  0.59422505043E+03  0.00000000000E+00 0. -1.
         -2    1    3    3    0  502  0.20305171918E+02  0.29252583546E+01  0.70818750901E+02  0.73730269376E+02  0.00000000000E+00 0.  1.
<mgrwt>
<rscale>  0 0.65970302E+02</rscale>
<asrwt>0</asrwt>
<pdfrwt beam="1">  1        1 0.10251093E+00 0.65970302E+02</pdfrwt>
<pdfrwt beam="2">  1       -1 0.25121182E-03 0.65970302E+02</pdfrwt>
<totfact> 0.33002608E+05</totfact>
</mgrwt>
</event>
<event>
 5    1  0.3845386E+001  0.9111692E+02  0.7546771E-02  0.1300169E+00
          4   -1    0    0  501    0  0.00000000000E+00  0.00000000000E+00  0.69954868085E+01  0.69954868085E+01  0.00000000000E+00 0. -1.
         -4   -1    0    0    0  501 -0.00000000000E+00 -0.00000000000E+00 -0.29670174561E+03  0.29670174561E+03  0.00000000000E+00 0.  1.
         23    2    1    2    0    0  0.00000000000E+00  0.00000000000E+00 -0.28970625880E+03  0.30369723242E+03  0.91116917145E+02 0.  0.
          2    1    3    3  502    0 -0.42543474764E+02  0.14570103782E+02 -0.16919534429E+03  0.17506941394E+03  0.00000000000E+00 0.  1.
         -2    1    3    3    0  502  0.42543474764E+02 -0.14570103782E+02 -0.12051091451E+03  0.12862781848E+03  0.00000000000E+00 0. -1.
<mgrwt>
<rscale>  0 0.91116917E+02</rscale>
<asrwt>0</asrwt>
<pdfrwt beam="1">  1        4 0.10762287E-02 0.91116917E+02</pdfrwt>
<pdfrwt beam="2">  1       -4 0.45646423E-01 0.91116917E+02</pdfrwt>
<totfact> 0.17738977E+04</totfact>
</mgrwt>
</event>
<event>
 5    1  0.3845386E+001  0.8926620E+02  0.7546771E-02  0.1304638E+00
         -1   -1    0    0    0  501 -0.00000000000E+00  0.00000000000E+00  0.74137355121E+02  0.74137355121E+02  0.00000000000E+00 0.  1.
          1   -1    0    0  501    0  0.00000000000E+00 -0.00000000000E+00 -0.26870578158E+02  0.26870578158E+02  0.00000000000E+00 0. -1.
         23    2    1    2    0    0  0.00000000000E+00  0.00000000000E+00  0.47266776963E+02  0.10100793328E+03  0.89266199543E+02 0.  0.
          2    1    3    3  502    0  0.39545626951E+02  0.14743898186E+02  0.72017670061E+01  0.42814770730E+02  0.00000000000E+00 0. -1.
         -2    1    3    3    0  502 -0.39545626951E+02 -0.14743898186E+02  0.40065009957E+02  0.58193162549E+02  0.00000000000E+00 0.  1.
<mgrwt>
<rscale>  0 0.89266200E+02</rscale>
<asrwt>0</asrwt>
<pdfrwt beam="2">  1        1 0.41339351E-02 0.89266200E+02</pdfrwt>
<pdfrwt beam="1">  1       -1 0.11405747E-01 0.89266200E+02</pdfrwt>
<totfact> 0.90491716E+04</totfact>
</mgrwt>
</event>
<event>
 5    1  0.3845386E+001  0.9105954E+02  0.7546771E-02  0.1300306E+00
          1   -1    0    0  501    0  0.00000000000E+00  0.00000000000E+00  0.75931403307E+02  0.75931403307E+02  0.00000000000E+00 0. -1.
         -1   -1    0    0    0  501 -0.00000000000E+00 -0.00000000000E+00 -0.27300428404E+02  0.27300428404E+02  0.00000000000E+00 0.  1.
         23    2    1    2    0    0  0.00000000000E+00  0.00000000000E+00  0.48630974904E+02  0.10323183171E+03  0.91059537438E+02 0.  0.
          2    1    3    3  502    0  0.35376669180E+02 -0.67524939215E+01 -0.72620645685E+01  0.36740202479E+02  0.00000000000E+00 0.  1.
         -2    1    3    3    0  502 -0.35376669180E+02  0.67524939215E+01  0.55893039472E+02  0.66491629232E+02  0.00000000000E+00 0. -1.
<mgrwt>
<rscale>  0 0.91059537E+02</rscale>
<asrwt>0</asrwt>
<pdfrwt beam="1">  1        1 0.11681754E-01 0.91059537E+02</pdfrwt>
<pdfrwt beam="2">  1       -1 0.42000659E-02 0.91059537E+02</pdfrwt>
<totfact> 0.10027642E+05</totfact>
</mgrwt>
</event>
<event>
 5    1  0.3845386E+001  0.9038265E+02  0.7546771E-02  0.1301928E+00
          1   -1    0    0  501    0  0.00000000000E+00  0.00000000000E+00  0.91091518360E+01  0.91091518360E+01  0.00000000000E+00 0. -1.
         -1   -1    0    0    0  501 -0.00000000000E+00 -0.00000000000E+00 -0.22419823002E+03  0.22419823002E+03  0.00000000000E+00 0.  1.
         23    2    1    2    0    0  0.00000000000E+00  0.00000000000E+00 -0.21508907819E+03  0.23330738186E+03  0.90382646977E+02 0.  0.
          2    1    3    3  502    0 -0.12961256045E+01 -0.36461503453E+02 -0.38707954934E+02  0.53192358011E+02  0.00000000000E+00 0. -1.
         -2    1    3    3    0  502  0.12961256045E+01  0.36461503453E+02 -0.17638112325E+03  0.18011502385E+03  0.00000000000E+00 0.  1.
<mgrwt>
<rscale>  0 0.90382647E+02</rscale>
<asrwt>0</asrwt>
<pdfrwt beam="1">  1        1 0.14014081E-02 0.90382647E+02</pdfrwt>
<pdfrwt beam="2">  1       -1 0.34492033E-01 0.90382647E+02</pdfrwt>
<totfact> 0.68645651E+04</totfact>
</mgrwt>
</event>
<event>
 5    1  0.3845386E+001  0.9035019E+02  0.7546771E-02  0.1302006E+00
          1   -1    0    0  501    0  0.00000000000E+00  0.00000000000E+00  0.67560229904E+02  0.67560229904E+02  0.00000000000E+00 0. -1.
         -1   -1    0    0    0  501 -0.00000000000E+00 -0.00000000000E+00 -0.30206957887E+02  0.30206957887E+02  0.00000000000E+00 0.  1.
         23    2    1    2    0    0  0.00000000000E+00  0.00000000000E+00  0.37353272017E+02  0.97767187791E+02  0.90350185823E+02 0.  0.
          2    1    3    3  502    0  0.32284191470E+02  0.13581244549E+02  0.49550777789E+02  0.60679475952E+02  0.00000000000E+00 0. -1.
         -2    1    3    3    0  502 -0.32284191470E+02 -0.13581244549E+02 -0.12197505772E+02  0.37087711839E+02  0.00000000000E+00 0.  1.
<mgrwt>
<rscale>  0 0.90350186E+02</rscale>
<asrwt>0</asrwt>
<pdfrwt beam="1">  1        1 0.10393882E-01 0.90350186E+02</pdfrwt>
<pdfrwt beam="2">  1       -1 0.46472243E-02 0.90350186E+02</pdfrwt>
<totfact> 0.10062561E+05</totfact>
</mgrwt>
</event>
<event>
 5    1  0.3845386E+001  0.8725789E+02  0.7546771E-02  0.1309631E+00
         -2   -1    0    0    0  501 -0.00000000000E+00  0.00000000000E+00  0.22771717754E+01  0.22771717754E+01  0.00000000000E+00 0.  1.
          2   -1    0    0  501    0  0.00000000000E+00 -0.00000000000E+00 -0.83589871691E+03  0.83589871691E+03  0.00000000000E+00 0. -1.
         23    2    1    2    0    0  0.00000000000E+00  0.00000000000E+00 -0.83362154513E+03  0.83817588868E+03  0.87257892829E+02 0.  0.
          2    1    3    3  502    0 -0.27167900451E+02  0.16213636730E+02 -0.70538397890E+03  0.70609314861E+03  0.00000000000E+00 0. -1.
         -2    1    3    3    0  502  0.27167900451E+02 -0.16213636730E+02 -0.12823756623E+03  0.13208274007E+03  0.00000000000E+00 0.  1.
<mgrwt>
<rscale>  0 0.87257893E+02</rscale>
<asrwt>0</asrwt>
<pdfrwt beam="2">  1        2 0.12859982E+00 0.87257893E+02</pdfrwt>
<pdfrwt beam="1">  1       -2 0.35033406E-03 0.87257893E+02</pdfrwt>
<totfact> 0.27556275E+05</totfact>
</mgrwt>
</event>
<event>
 5    1  0.3845386E+001  0.9201500E+02  0.7546771E-02  0.1298044E+00
         -3   -1    0    0    0  501 -0.00000000000E+00  0.00000000000E+00  0.17554895604E+03  0.17554895604E+03  0.00000000000E+00 0.  1.
          3   -1    0    0  501    0  0.00000000000E+00 -0.00000000000E+00 -0.12057548851E+02  0.12057548851E+02  0.00000000000E+00 0. -1.
         23    2    1    2    0    0  0.00000000000E+00  0.00000000000E+00  0.16349140719E+03  0.18760650489E+03  0.92015001238E+02 0.  0.
          2    1    3    3  502    0 -0.86589271323E+01  0.37593647771E+02  0.13285712598E+03  0.13834476967E+03  0.00000000000E+00 0.  1.
         -2    1    3    3    0  502  0.86589271323E+01 -0.37593647771E+02  0.30634281214E+02  0.49261735224E+02  0.00000000000E+00 0. -1.
<mgrwt>
<rscale>  0 0.92015001E+02</rscale>
<asrwt>0</asrwt>
<pdfrwt beam="2">  1        3 0.18550076E-02 0.92015001E+02</pdfrwt>
<pdfrwt beam="1">  1       -3 0.27007530E-01 0.92015001E+02</pdfrwt>
<totfact> 0.28438765E+04</totfact>
</mgrwt>
</event>
<event>
 5    1  0.3845386E+001  0.9115090E+02  0.7546771E-02  0.1300088E+00
          2   -1    0    0  501    0  0.00000000000E+00  0.00000000000E+00  0.69511872702E+02  0.69511872702E+02  0.00000000000E+00 0. -1.
         -2   -1    0    0    0  501 -0.00000000000E+00 -0.00000000000E+00 -0.29881535775E+02  0.29881535775E+02  0.00000000000E+00 0.  1.
         23    2    1    2    0    0  0.00000000000E+00  0.00000000000E+00  0.39630336927E+02  0.99393408477E+02  0.91150897109E+02 0.  0.
          2    1    3    3  502    0  0.36775882471E+02  0.26671476016E+02  0.23790122485E+02  0.51281605788E+02  0.00000000000E+00 0. -1.
         -2    1    3    3    0  502 -0.36775882471E+02 -0.26671476016E+02  0.15840214442E+02  0.48111802689E+02  0.00000000000E+00 0.  1.
<mgrwt>
<rscale>  0 0.91150897E+02</rscale>
<asrwt>0</asrwt>
<pdfrwt beam="1">  1        2 0.10694134E-01 0.91150897E+02</pdfrwt>
<pdfrwt beam="2">  1       -2 0.45971594E-02 0.91150897E+02</pdfrwt>
<totfact> 0.11049348E+05</totfact>
</mgrwt>
</event>
<event>
 5    1  0.3845386E+001  0.9142275E+02  0.7546771E-02  0.1299442E+00
          2   -1    0    0  501    0  0.00000000000E+00  0.00000000000E+00  0.33998529366E+03  0.33998529366E+03  0.00000000000E+00 0.  1.
         -2   -1    0    0    0  501 -0.00000000000E+00 -0.00000000000E+00 -0.61459418837E+01  0.61459418837E+01  0.00000000000E+00 0. -1.
         23    2    1    2    0    0  0.00000000000E+00  0.00000000000E+00  0.33383935178E+03  0.34613123554E+03  0.91422751132E+02 0.  0.
          2    1    3    3  502    0 -0.12712861868E+02 -0.42314699124E+02  0.12254378787E+03  0.13026561543E+03  0.00000000000E+00 0. -1.
         -2    1    3    3    0  502  0.12712861868E+02  0.42314699124E+02  0.21129556391E+03  0.21586562011E+03  0.00000000000E+00 0.  1.
<mgrwt>
<rscale>  0 0.91422751E+02</rscale>
<asrwt>0</asrwt>
<pdfrwt beam="1">  1        2 0.52305415E-01 0.91422751E+02</pdfrwt>
<pdfrwt beam="2">  1       -2 0.94552978E-03 0.91422751E+02</pdfrwt>
<totfact> 0.18683669E+05</totfact>
</mgrwt>
</event>
<event>
 5    1  0.3845386E+001  0.9513971E+02  0.7546771E-02  0.1290862E+00
         -2   -1    0    0    0  501 -0.00000000000E+00  0.00000000000E+00  0.27646910930E+03  0.27646910930E+03  0.00000000000E+00 0.  1.
          2   -1    0    0  501    0  0.00000000000E+00 -0.00000000000E+00 -0.81849690235E+01  0.81849690235E+01  0.00000000000E+00 0. -1.
         23    2    1    2    0    0  0.00000000000E+00  0.00000000000E+00  0.26828414028E+03  0.28465407832E+03  0.95139709808E+02 0.  0.
          2    1    3    3  502    0  0.28109753897E+02 -0.31824810644E+02  0.69977686732E+02  0.81852632682E+02  0.00000000000E+00 0. -1.
         -2    1    3    3    0  502 -0.28109753897E+02  0.31824810644E+02  0.19830645354E+03  0.20280144564E+03  0.00000000000E+00 0.  1.
<mgrwt>
<rscale>  0 0.95139710E+02</rscale>
<asrwt>0</asrwt>
<pdfrwt beam="2">  1        2 0.12592262E-02 0.95139710E+02</pdfrwt>
<pdfrwt beam="1">  1       -2 0.42533702E-01 0.95139710E+02</pdfrwt>
<totfact> 0.47798930E+04</totfact>
</mgrwt>
</event>
<event>
 5    1  0.3845386E+001  0.9034672E+02  0.7546771E-02  0.1302014E+00
         -2   -1    0    0    0  501 -0.00000000000E+00  0.00000000000E+00  0.41134566855E+01  0.41134566855E+01  0.00000000000E+00 0.  1.
          2   -1    0    0  501    0  0.00000000000E+00 -0.00000000000E+00 -0.49608701740E+03  0.49608701740E+03  0.00000000000E+00 0. -1.
         23    2    1    2    0    0  0.00000000000E+00  0.00000000000E+00 -0.49197356072E+03  0.50020047409E+03  0.90346720103E+02 0.  0.
          2    1    3    3  502    0  0.42219917563E+02  0.16039394185E+02 -0.25108769521E+03  0.25511725597E+03  0.00000000000E+00 0. -1.
         -2    1    3    3    0  502 -0.42219917563E+02 -0.16039394185E+02 -0.24088586551E+03  0.24508321812E+03  0.00000000000E+00 0.  1.
<mgrwt>
<rscale>  0 0.90346720E+02</rscale>
<asrwt>0</asrwt>
<pdfrwt beam="2">  1        2 0.76321117E-01 0.90346720E+02</pdfrwt>
<pdfrwt beam="1">  1       -2 0.63283918E-03 0.90346720E+02</pdfrwt>
<totfact> 0.22020906E+05</totfact>
</mgrwt>
</event>
<event>
 5    1  0.3845386E+001  0.9120510E+02  0.7546771E-02  0.1299959E+00
         -2   -1    0    0    0  501 -0.00000000000E+00  0.00000000000E+00  0.16068987835E+03  0.16068987835E+03  0.00000000000E+00 0.  1.
          2   -1    0    0  501    0  0.00000000000E+00 -0.00000000000E+00 -0.12941652499E+02  0.12941652499E+02  0.00000000000E+00 0. -1.
         23    2    1    2    0    0  0.00000000000E+00  0.00000000000E+00  0.14774822585E+03  0.17363153085E+03  0.91205099984E+02 0.  0.
          2    1    3    3  502    0  0.18933728274E+02 -0.33420850265E+02  0.12066734404E+03  0.12663351538E+03  0.00000000000E+00 0.  1.
         -2    1    3    3    0  502 -0.18933728274E+02  0.33420850265E+02  0.27080881810E+02  0.46998015473E+02  0.00000000000E+00 0. -1.
<mgrwt>
<rscale>  0 0.91205100E+02</rscale>
<asrwt>0</asrwt>
<pdfrwt beam="2">  1        2 0.19910236E-02 0.91205100E+02</pdfrwt>
<pdfrwt beam="1">  1       -2 0.24721518E-01 0.91205100E+02</pdfrwt>
<totfact> 0.68040468E+04</totfact>
</mgrwt>
</event>
<event>
 5    1  0.3845386E+001  0.9262767E+02  0.7546771E-02  0.1296610E+00
         -2   -1    0    0    0  501 -0.00000000000E+00  0.00000000000E+00  0.36315919770E+02  0.36315919770E+02  0.00000000000E+00 0. -1.
          2   -1    0    0  501    0  0.00000000000E+00 -0.00000000000E+00 -0.59064220877E+02  0.59064220877E+02  0.00000000000E+00 0.  1.
         23    2    1    2    0    0  0.00000000000E+00  0.00000000000E+00 -0.22748301107E+02  0.95380140647E+02  0.92627674194E+02 0.  0.
          2    1    3    3  502    0  0.25602937794E+02  0.13238195048E+02  0.25955144924E+02  0.38786979514E+02  0.00000000000E+00 0. -1.
         -2    1    3    3    0  502 -0.25602937794E+02 -0.13238195048E+02 -0.48703446030E+02  0.56593161133E+02  0.00000000000E+00 0.  1.
<mgrwt>
<rscale>  0 0.92627674E+02</rscale>
<asrwt>0</asrwt>
<pdfrwt beam="2">  1        2 0.90868032E-02 0.92627674E+02</pdfrwt>
<pdfrwt beam="1">  1       -2 0.55870646E-02 0.92627674E+02</pdfrwt>
<totfact> 0.10100863E+05</totfact>
</mgrwt>
</event>
<event>
 5    1  0.3845386E+001  0.9207234E+02  0.7546771E-02  0.1297909E+00
          2   -1    0    0  501    0  0.00000000000E+00  0.00000000000E+00  0.11702508969E+04  0.11702508969E+04  0.00000000000E+00 0.  1.
         -2   -1    0    0    0  501 -0.00000000000E+00 -0.00000000000E+00 -0.18110040099E+01  0.18110040099E+01  0.00000000000E+00 0. -1.
         23    2    1    2    0    0  0.00000000000E+00  0.00000000000E+00  0.11684398929E+04  0.11720619009E+04  0.92072342576E+02 0.  0.
          2    1    3    3  502    0 -0.52209075148E+01 -0.44021336083E+02  0.42614832363E+03  0.42844781437E+03  0.00000000000E+00 0. -1.
         -2    1    3    3    0  502  0.52209075148E+01  0.44021336083E+02  0.74229156928E+03  0.74361408656E+03  0.00000000000E+00 0.  1.
<mgrwt>
<rscale>  0 0.92072343E+02</rscale>
<asrwt>0</asrwt>
<pdfrwt beam="1">  1        2 0.18003799E+00 0.92072343E+02</pdfrwt>
<pdfrwt beam="2">  1       -2 0.27861694E-03 0.92072343E+02</pdfrwt>
<totfact> 0.24296090E+05</totfact>
</mgrwt>
</event>
<event>
 5    1  0.3845386E+001  0.9538228E+02  0.7546771E-02  0.1290317E+00
          3   -1    0    0  501    0  0.00000000000E+00  0.00000000000E+00  0.16864337960E+03  0.16864337960E+03  0.00000000000E+00 0. -1.
         -3   -1    0    0    0  501 -0.00000000000E+00 -0.00000000000E+00 -0.13486712722E+02  0.13486712722E+02  0.00000000000E+00 0.  1.
         23    2    1    2    0    0  0.00000000000E+00  0.00000000000E+00  0.15515666688E+03  0.18213009232E+03  0.95382279550E+02 0.  0.
          2    1    3    3  502    0  0.18876198780E+02  0.43747711256E+02  0.81524850654E+02  0.94427085069E+02  0.00000000000E+00 0. -1.
         -2    1    3    3    0  502 -0.18876198780E+02 -0.43747711256E+02  0.73631816221E+02  0.87703007249E+02  0.00000000000E+00 0.  1.
<mgrwt>
<rscale>  0 0.95382280E+02</rscale>
<asrwt>0</asrwt>
<pdfrwt beam="1">  1        3 0.25945134E-01 0.95382280E+02</pdfrwt>
<pdfrwt beam="2">  1       -3 0.20748790E-02 0.95382280E+02</pdfrwt>
<totfact> 0.26059361E+04</totfact>
</mgrwt>
</event>
<event>
 5    1  0.3845386E+001  0.9527517E+02  0.7546771E-02  0.1290558E+00
         -4   -1    0    0    0  501 -0.00000000000E+00  0.00000000000E+00  0.13369404690E+03  0.13369404690E+03  0.00000000000E+00 0.  1.
          4   -1    0    0  501    0  0.00000000000E+00 -0.00000000000E+00 -0.16974126039E+02  0.16974126039E+02  0.00000000000E+00 0. -1.
         23    2    1    2    0    0  0.00000000000E+00  0.00000000000E+00  0.11671992086E+03  0.15066817294E+03  0.95275172058E+02 0.  0.
          2    1    3    3  502    0 -0.17376816474E+02 -0.16825404577E+02 -0.65408953062E+01  0.25056562042E+02  0.00000000000E+00 0. -1.
         -2    1    3    3    0  502  0.17376816474E+02  0.16825404577E+02  0.12326081616E+03  0.12561161089E+03  0.00000000000E+00 0.  1.
<mgrwt>
<rscale>  0 0.95275172E+02</rscale>
<asrwt>0</asrwt>
<pdfrwt beam="2">  1        4 0.26114041E-02 0.95275172E+02</pdfrwt>
<pdfrwt beam="1">  1       -4 0.20568314E-01 0.95275172E+02</pdfrwt>
<totfact> 0.20990531E+04</totfact>
</mgrwt>
</event>
<event>
 5    1  0.3845386E+001  0.9134223E+02  0.7546771E-02  0.1299633E+00
          1   -1    0    0  501    0  0.00000000000E+00  0.00000000000E+00  0.65303601932E+03  0.65303601932E+03  0.00000000000E+00 0. -1.
         -1   -1    0    0    0  501 -0.00000000000E+00 -0.00000000000E+00 -0.31940818851E+01  0.31940818851E+01  0.00000000000E+00 0.  1.
         23    2    1    2    0    0  0.00000000000E+00  0.00000000000E+00  0.64984193744E+03  0.65623010121E+03  0.91342225058E+02 0.  0.
          2    1    3    3  502    0 -0.35830540725E+02  0.27765788894E+02  0.28486641658E+03  0.28845041511E+03  0.00000000000E+00 0. -1.
         -2    1    3    3    0  502  0.35830540725E+02 -0.27765788894E+02  0.36497552085E+03  0.36777968609E+03  0.00000000000E+00 0.  1.
<mgrwt>
<rscale>  0 0.91342225E+02</rscale>
<asrwt>0</asrwt>
<pdfrwt beam="1">  1        1 0.10046697E+00 0.91342225E+02</pdfrwt>
<pdfrwt beam="2">  1       -1 0.49139773E-03 0.91342225E+02</pdfrwt>
<totfact> 0.14141895E+05</totfact>
</mgrwt>
</event>
<event>
 5    1  0.3845386E+001  0.8995211E+02  0.7546771E-02  0.1302968E+00
         -1   -1    0    0    0  501 -0.00000000000E+00  0.00000000000E+00  0.18103992367E+02  0.18103992367E+02  0.00000000000E+00 0.  1.
          1   -1    0    0  501    0  0.00000000000E+00 -0.00000000000E+00 -0.11173477606E+03  0.11173477606E+03  0.00000000000E+00 0. -1.
         23    2    1    2    0    0  0.00000000000E+00  0.00000000000E+00 -0.93630783695E+02  0.12983876843E+03  0.89952110215E+02 0.  0.
          2    1    3    3  502    0 -0.29689298188E+02 -0.26233294237E+02 -0.16086948546E+02  0.42760145778E+02  0.00000000000E+00 0.  1.
         -2    1    3    3    0  502  0.29689298188E+02  0.26233294237E+02 -0.77543835149E+02  0.87078622652E+02  0.00000000000E+00 0. -1.
<mgrwt>
<rscale>  0 0.89952110E+02</rscale>
<asrwt>0</asrwt>
<pdfrwt beam="2">  1        1 0.17189966E-01 0.89952110E+02</pdfrwt>
<pdfrwt beam="1">  1       -1 0.27852296E-02 0.89952110E+02</pdfrwt>
<totfact> 0.11040001E+05</totfact>
</mgrwt>
</event>
<event>
 5    1  0.3845386E+001  0.9177040E+02  0.7546771E-02  0.1298620E+00
          2   -1    0    0  501    0  0.00000000000E+00  0.00000000000E+00  0.20664246942E+02  0.20664246942E+02  0.00000000000E+00 0. -1.
         -2   -1    0    0    0  501 -0.00000000000E+00 -0.00000000000E+00 -0.10188860813E+03  0.10188860813E+03  0.00000000000E+00 0.  1.
         23    2    1    2    0    0  0.00000000000E+00  0.00000000000E+00 -0.81224361184E+02  0.12255285507E+03  0.91770395201E+02 0.  0.
          2    1    3    3  502    0  0.14361160400E+02  0.36314532249E+02 -0.84379500736E+01  0.39952311347E+02  0.00000000000E+00 0. -1.
         -2    1    3    3    0  502 -0.14361160400E+02 -0.36314532249E+02 -0.72786411110E+02  0.82600543720E+02  0.00000000000E+00 0.  1.
<mgrwt>
<rscale>  0 0.91770395E+02</rscale>
<asrwt>0</asrwt>
<pdfrwt beam="1">  1        2 0.31791149E-02 0.91770395E+02</pdfrwt>
<pdfrwt beam="2">  1       -2 0.15675171E-01 0.91770395E+02</pdfrwt>
<totfact> 0.78086762E+04</totfact>
</mgrwt>
</event>
<event>
 5    1  0.3845386E+001  0.9054425E+02  0.7546771E-02  0.1301539E+00
          2   -1    0    0  501    0  0.00000000000E+00  0.00000000000E+00  0.34576217318E+03  0.34576217318E+03  0.00000000000E+00 0. -1.
         -2   -1    0    0    0  501 -0.00000000000E+00 -0.00000000000E+00 -0.59276742021E+01  0.59276742021E+01  0.00000000000E+00 0.  1.
         23    2    1    2    0    0  0.00000000000E+00  0.00000000000E+00  0.33983449898E+03  0.35168984738E+03  0.90544254683E+02 0.  0.
          2    1    3    3  502    0 -0.43743922553E+02 -0.48948701210E+01  0.21103726854E+03  0.21557880050E+03  0.00000000000E+00 0. -1.
         -2    1    3    3    0  502  0.43743922553E+02  0.48948701210E+01  0.12879723044E+03  0.13611104688E+03  0.00000000000E+00 0.  1.
<mgrwt>
<rscale>  0 0.90544255E+02</rscale>
<asrwt>0</asrwt>
<pdfrwt beam="1">  1        2 0.53194165E-01 0.90544255E+02</pdfrwt>
<pdfrwt beam="2">  1       -2 0.91195015E-03 0.90544255E+02</pdfrwt>
<totfact> 0.19288811E+05</totfact>
</mgrwt>
</event>
<event>
 5    1  0.3845386E+001  0.9185630E+02  0.7546771E-02  0.1298418E+00
          2   -1    0    0  501    0  0.00000000000E+00  0.00000000000E+00  0.67277944656E+01  0.67277944656E+01  0.00000000000E+00 0.  1.
         -2   -1    0    0    0  501 -0.00000000000E+00 -0.00000000000E+00 -0.31353442181E+03  0.31353442181E+03  0.00000000000E+00 0. -1.
         23    2    1    2    0    0  0.00000000000E+00  0.00000000000E+00 -0.30680662735E+03  0.32026221628E+03  0.91856304037E+02 0.  0.
          2    1    3    3  502    0  0.92355323387E+01  0.29903075448E+02 -0.36205927015E+02  0.47857686215E+02  0.00000000000E+00 0.  1.
         -2    1    3    3    0  502 -0.92355323387E+01 -0.29903075448E+02 -0.27060070033E+03  0.27240453006E+03  0.00000000000E+00 0. -1.
<mgrwt>
<rscale>  0 0.91856304E+02</rscale>
<asrwt>0</asrwt>
<pdfrwt beam="1">  1        2 0.10350452E-02 0.91856304E+02</pdfrwt>
<pdfrwt beam="2">  1       -2 0.48236070E-01 0.91856304E+02</pdfrwt>
<totfact> 0.48790066E+04</totfact>
</mgrwt>
</event>
<event>
 5    1  0.3845386E+001  0.9561242E+02  0.7546771E-02  0.1289803E+00
          3   -1    0    0  501    0  0.00000000000E+00  0.00000000000E+00  0.42251779522E+01  0.42251779522E+01  0.00000000000E+00 0. -1.
         -3   -1    0    0    0  501 -0.00000000000E+00 -0.00000000000E+00 -0.54090831611E+03  0.54090831611E+03  0.00000000000E+00 0.  1.
         23    2    1    2    0    0  0.00000000000E+00  0.00000000000E+00 -0.53668313816E+03  0.54513349406E+03  0.95612423698E+02 0.  0.
          2    1    3    3  502    0  0.36821867480E+02 -0.18837469473E+02 -0.40502688941E+03  0.40713324763E+03  0.00000000000E+00 0. -1.
         -2    1    3    3    0  502 -0.36821867480E+02  0.18837469473E+02 -0.13165624874E+03  0.13800024643E+03  0.00000000000E+00 0.  1.
<mgrwt>
<rscale>  0 0.95612424E+02</rscale>
<asrwt>0</asrwt>
<pdfrwt beam="1">  1        3 0.65002771E-03 0.95612424E+02</pdfrwt>
<pdfrwt beam="2">  1       -3 0.83216622E-01 0.95612424E+02</pdfrwt>
<totfact> 0.14836140E+04</totfact>
</mgrwt>
</event>
<event>
 5    1  0.3845386E+001  0.8933569E+02  0.7546771E-02  0.1304468E+00
         -1   -1    0    0    0  501 -0.00000000000E+00  0.00000000000E+00  0.94782471479E+02  0.94782471479E+02  0.00000000000E+00 0.  1.
          1   -1    0    0  501    0  0.00000000000E+00 -0.00000000000E+00 -0.21050480821E+02  0.21050480821E+02  0.00000000000E+00 0. -1.
         23    2    1    2    0    0  0.00000000000E+00  0.00000000000E+00  0.73731990657E+02  0.11583295230E+03  0.89335694950E+02 0.  0.
          2    1    3    3  502    0  0.38531028985E+02  0.22502723643E+02  0.39524453220E+02  0.59608683666E+02  0.00000000000E+00 0. -1.
         -2    1    3    3    0  502 -0.38531028985E+02 -0.22502723643E+02  0.34207537437E+02  0.56224268634E+02  0.00000000000E+00 0.  1.
<mgrwt>
<rscale>  0 0.89335695E+02</rscale>
<asrwt>0</asrwt>
<pdfrwt beam="2">  1        1 0.32385356E-02 0.89335695E+02</pdfrwt>
<pdfrwt beam="1">  1       -1 0.14581918E-01 0.89335695E+02</pdfrwt>
<totfact> 0.86596352E+04</totfact>
</mgrwt>
</event>
<event>
 5    1  0.3845386E+001  0.9163275E+02  0.7546771E-02  0.1298945E+00
          1   -1    0    0  501    0  0.00000000000E+00  0.00000000000E+00  0.22015639303E+04  0.22015639303E+04  0.00000000000E+00 0.  1.
         -1   -1    0    0    0  501 -0.00000000000E+00 -0.00000000000E+00 -0.95347681387E+00  0.95347681387E+00  0.00000000000E+00 0. -1.
         23    2    1    2    0    0  0.00000000000E+00  0.00000000000E+00  0.22006104534E+04  0.22025174071E+04  0.91632748769E+02 0.  0.
          2    1    3    3  502    0  0.10473958278E+01  0.38317031370E+02  0.49707014316E+03  0.49854590476E+03  0.00000000000E+00 0. -1.
         -2    1    3    3    0  502 -0.10473958278E+01 -0.38317031370E+02  0.17035403103E+04  0.17039715023E+04  0.00000000000E+00 0.  1.
<mgrwt>
<rscale>  0 0.91632749E+02</rscale>
<asrwt>0</asrwt>
<pdfrwt beam="1">  1        1 0.33869807E+00 0.91632749E+02</pdfrwt>
<pdfrwt beam="2">  1       -1 0.14669050E-03 0.91632749E+02</pdfrwt>
<totfact> 0.67107442E+04</totfact>
</mgrwt>
</event>
<event>
 5    1  0.3845386E+001  0.9201105E+02  0.7546771E-02  0.1298053E+00
         -3   -1    0    0    0  501 -0.00000000000E+00  0.00000000000E+00  0.31104406672E+02  0.31104406672E+02  0.00000000000E+00 0.  1.
          3   -1    0    0  501    0  0.00000000000E+00 -0.00000000000E+00 -0.68045293214E+02  0.68045293214E+02  0.00000000000E+00 0. -1.
         23    2    1    2    0    0  0.00000000000E+00  0.00000000000E+00 -0.36940886542E+02  0.99149699885E+02  0.92011053080E+02 0.  0.
          2    1    3    3  502    0 -0.22853539445E+02 -0.38364736334E+02 -0.30390848941E+02  0.54016117580E+02  0.00000000000E+00 0. -1.
         -2    1    3    3    0  502  0.22853539445E+02  0.38364736334E+02 -0.65500376009E+01  0.45133582305E+02  0.00000000000E+00 0.  1.
<mgrwt>
<rscale>  0 0.92011053E+02</rscale>
<asrwt>0</asrwt>
<pdfrwt beam="2">  1        3 0.10468507E-01 0.92011053E+02</pdfrwt>
<pdfrwt beam="1">  1       -3 0.47852934E-02 0.92011053E+02</pdfrwt>
<totfact> 0.33881756E+04</totfact>
</mgrwt>
</event>
<event>
 5    1  0.3845386E+001  0.8947938E+02  0.7546771E-02  0.1304117E+00
         -2   -1    0    0    0  501 -0.00000000000E+00  0.00000000000E+00  0.23955463070E+01  0.23955463070E+01  0.00000000000E+00 0.  1.
          2   -1    0    0  501    0  0.00000000000E+00 -0.00000000000E+00 -0.83556723323E+03  0.83556723323E+03  0.00000000000E+00 0. -1.
         23    2    1    2    0    0  0.00000000000E+00  0.00000000000E+00 -0.83317168692E+03  0.83796277953E+03  0.89479383096E+02 0.  0.
          2    1    3    3  502    0  0.24848467040E+02  0.34443711546E+02 -0.54830280340E+03  0.54994525164E+03  0.00000000000E+00 0. -1.
         -2    1    3    3    0  502 -0.24848467040E+02 -0.34443711546E+02 -0.28486888352E+03  0.28801752790E+03  0.00000000000E+00 0.  1.
<mgrwt>
<rscale>  0 0.89479383E+02</rscale>
<asrwt>0</asrwt>
<pdfrwt beam="2">  1        2 0.12854910E+00 0.89479383E+02</pdfrwt>
<pdfrwt beam="1">  1       -2 0.36854475E-03 0.89479383E+02</pdfrwt>
<totfact> 0.25794151E+05</totfact>
</mgrwt>
</event>
<event>
 5    1  0.3845386E+001  0.9030239E+02  0.7546771E-02  0.1302121E+00
         -4   -1    0    0    0  501 -0.00000000000E+00  0.00000000000E+00  0.43169252530E+01  0.43169252530E+01  0.00000000000E+00 0.  1.
          4   -1    0    0  501    0  0.00000000000E+00 -0.00000000000E+00 -0.47224128236E+03  0.47224128236E+03  0.00000000000E+00 0. -1.
         23    2    1    2    0    0  0.00000000000E+00  0.00000000000E+00 -0.46792435711E+03  0.47655820761E+03  0.90302387949E+02 0.  0.
          2    1    3    3  502    0 -0.32115057432E+02  0.84590345121E+01 -0.39539231041E+03  0.39678459057E+03  0.00000000000E+00 0. -1.
         -2    1    3    3    0  502  0.32115057432E+02 -0.84590345121E+01 -0.72532046691E+02  0.79773617042E+02  0.00000000000E+00 0.  1.
<mgrwt>
<rscale>  0 0.90302388E+02</rscale>
<asrwt>0</asrwt>
<pdfrwt beam="2">  1        4 0.72652533E-01 0.90302388E+02</pdfrwt>
<pdfrwt beam="1">  1       -4 0.66414209E-03 0.90302388E+02</pdfrwt>
<totfact> 0.13862959E+04</totfact>
</mgrwt>
</event>
<event>
 5    1  0.3845386E+001  0.9071292E+02  0.7546771E-02  0.1301134E+00
         -1   -1    0    0    0  501 -0.00000000000E+00  0.00000000000E+00  0.19620072407E+03  0.19620072407E+03  0.00000000000E+00 0.  1.
          1   -1    0    0  501    0  0.00000000000E+00 -0.00000000000E+00 -0.10485223084E+02  0.10485223084E+02  0.00000000000E+00 0. -1.
         23    2    1    2    0    0  0.00000000000E+00  0.00000000000E+00  0.18571550099E+03  0.20668594716E+03  0.90712917740E+02 0.  0.
          2    1    3    3  502    0  0.11335852618E+02 -0.22111448264E+02  0.64024768661E+01  0.25659489647E+02  0.00000000000E+00 0. -1.
         -2    1    3    3    0  502 -0.11335852618E+02  0.22111448264E+02  0.17931302412E+03  0.18102645751E+03  0.00000000000E+00 0.  1.
<mgrwt>
<rscale>  0 0.90712918E+02</rscale>
<asrwt>0</asrwt>
<pdfrwt beam="2">  1        1 0.16131114E-02 0.90712918E+02</pdfrwt>
<pdfrwt beam="1">  1       -1 0.30184724E-01 0.90712918E+02</pdfrwt>
<totfact> 0.70737153E+04</totfact>
</mgrwt>
</event>
<event>
 5    1  0.3845386E+001  0.9227261E+02  0.7546771E-02  0.1297440E+00
         -2   -1    0    0    0  501 -0.00000000000E+00  0.00000000000E+00  0.94422873248E+02  0.94422873248E+02  0.00000000000E+00 0.  1.
          2   -1    0    0  501    0  0.00000000000E+00 -0.00000000000E+00 -0.22542829627E+02  0.22542829627E+02  0.00000000000E+00 0. -1.
         23    2    1    2    0    0  0.00000000000E+00  0.00000000000E+00  0.71880043621E+02  0.11696570288E+03  0.92272612286E+02 0.  0.
          2    1    3    3  502    0  0.71563251368E+01 -0.27710992544E+02  0.81810115066E+02  0.86671835242E+02  0.00000000000E+00 0.  1.
         -2    1    3    3    0  502 -0.71563251368E+01  0.27710992544E+02 -0.99300714450E+01  0.30293867633E+02  0.00000000000E+00 0. -1.
<mgrwt>
<rscale>  0 0.92272612E+02</rscale>
<asrwt>0</asrwt>
<pdfrwt beam="2">  1        2 0.34681277E-02 0.92272612E+02</pdfrwt>
<pdfrwt beam="1">  1       -2 0.14526596E-01 0.92272612E+02</pdfrwt>
<totfact> 0.78797002E+04</totfact>
</mgrwt>
</event>
<event>
 5    1  0.3845386E+001  0.8865993E+02  0.7546771E-02  0.1306130E+00
         -1   -1    0    0    0  501 -0.00000000000E+00  0.00000000000E+00  0.42332749902E+01  0.42332749902E+01  0.00000000000E+00 0.  1.
          1   -1    0    0  501    0  0.00000000000E+00 -0.00000000000E+00 -0.46421409890E+03  0.46421409890E+03  0.00000000000E+00 0. -1.
         23    2    1    2    0    0  0.00000000000E+00  0.00000000000E+00 -0.45998082391E+03  0.46844737389E+03  0.88659933115E+02 0.  0.
          2    1    3    3  502    0  0.35119337283E+02 -0.17496295991E+02 -0.33899973976E+03  0.34126281922E+03  0.00000000000E+00 0. -1.
         -2    1    3    3    0  502 -0.35119337283E+02  0.17496295991E+02 -0.12098108415E+03  0.12718455467E+03  0.00000000000E+00 0.  1.
<mgrwt>
<rscale>  0 0.88659933E+02</rscale>
<asrwt>0</asrwt>
<pdfrwt beam="2">  1        1 0.71417531E-01 0.88659933E+02</pdfrwt>
<pdfrwt beam="1">  1       -1 0.65127328E-03 0.88659933E+02</pdfrwt>
<totfact> 0.14856483E+05</totfact>
</mgrwt>
</event>
<event>
 5    1  0.3845386E+001  0.8223916E+02  0.7546771E-02  0.1322814E+00
         -2   -1    0    0    0  501 -0.00000000000E+00  0.00000000000E+00  0.11487415980E+04  0.11487415980E+04  0.00000000000E+00 0.  1.
          2   -1    0    0  501    0  0.00000000000E+00 -0.00000000000E+00 -0.14718887329E+01  0.14718887329E+01  0.00000000000E+00 0. -1.
         23    2    1    2    0    0  0.00000000000E+00  0.00000000000E+00  0.11472697093E+04  0.11502134867E+04  0.82239158924E+02 0.  0.
          2    1    3    3  502    0 -0.62972124534E+01  0.38340291873E+02  0.38537260144E+03  0.38732631566E+03  0.00000000000E+00 0. -1.
         -2    1    3    3    0  502  0.62972124534E+01 -0.38340291873E+02  0.76189710783E+03  0.76288717107E+03  0.00000000000E+00 0.  1.
<mgrwt>
<rscale>  0 0.82239159E+02</rscale>
<asrwt>0</asrwt>
<pdfrwt beam="2">  1        2 0.22644534E-03 0.82239159E+02</pdfrwt>
<pdfrwt beam="1">  1       -2 0.17672876E+00 0.82239159E+02</pdfrwt>
<totfact> 0.20572696E+04</totfact>
</mgrwt>
</event>
<event>
 5    1  0.3845386E+001  0.9325704E+02  0.7546771E-02  0.1295151E+00
          2   -1    0    0  501    0  0.00000000000E+00  0.00000000000E+00  0.19005069536E+04  0.19005069536E+04  0.00000000000E+00 0. -1.
         -2   -1    0    0    0  501 -0.00000000000E+00 -0.00000000000E+00 -0.11440204693E+01  0.11440204693E+01  0.00000000000E+00 0.  1.
         23    2    1    2    0    0  0.00000000000E+00  0.00000000000E+00  0.18993629331E+04  0.19016509740E+04  0.93257039562E+02 0.  0.
          2    1    3    3  502    0  0.37971189114E+02 -0.18115532519E+02  0.13596648122E+04  0.13603155462E+04  0.00000000000E+00 0. -1.
         -2    1    3    3    0  502 -0.37971189114E+02  0.18115532519E+02  0.53969812086E+03  0.54133542779E+03  0.00000000000E+00 0.  1.
<mgrwt>
<rscale>  0 0.93257040E+02</rscale>
<asrwt>0</asrwt>
<pdfrwt beam="1">  1        2 0.29238316E+00 0.93257040E+02</pdfrwt>
<pdfrwt beam="2">  1       -2 0.17600467E-03 0.93257040E+02</pdfrwt>
<totfact> 0.19384650E+05</totfact>
</mgrwt>
</event>
<event>
 5    1  0.3845386E+001  0.8867818E+02  0.7546771E-02  0.1306085E+00
          2   -1    0    0  501    0  0.00000000000E+00  0.00000000000E+00  0.78905271522E+02  0.78905271522E+02  0.00000000000E+00 0. -1.
         -2   -1    0    0    0  501 -0.00000000000E+00 -0.00000000000E+00 -0.24915378299E+02  0.24915378299E+02  0.00000000000E+00 0.  1.
         23    2    1    2    0    0  0.00000000000E+00  0.00000000000E+00  0.53989893222E+02  0.10382064982E+03  0.88678175213E+02 0.  0.
          2    1    3    3  502    0  0.40341880493E+02  0.89892028770E+01  0.45788491214E+02  0.61683539277E+02  0.00000000000E+00 0. -1.
         -2    1    3    3    0  502 -0.40341880493E+02 -0.89892028770E+01  0.82014020079E+01  0.42137110544E+02  0.00000000000E+00 0.  1.
<mgrwt>
<rscale>  0 0.88678175E+02</rscale>
<asrwt>0</asrwt>
<pdfrwt beam="1">  1        2 0.12139272E-01 0.88678175E+02</pdfrwt>
<pdfrwt beam="2">  1       -2 0.38331351E-02 0.88678175E+02</pdfrwt>
<totfact> 0.12356710E+05</totfact>
</mgrwt>
</event>
<event>
 5    1  0.3845386E+001  0.9150348E+02  0.7546771E-02  0.1299251E+00
         -2   -1    0    0    0  501 -0.00000000000E+00  0.00000000000E+00  0.13595471770E+01  0.13595471770E+01  0.00000000000E+00 0. -1.
          2   -1    0    0  501    0  0.00000000000E+00 -0.00000000000E+00 -0.15396461476E+04  0.15396461476E+04  0.00000000000E+00 0.  1.
         23    2    1    2    0    0  0.00000000000E+00  0.00000000000E+00 -0.15382866004E+04  0.15410056948E+04  0.91503476950E+02 0.  0.
          2    1    3    3  502    0  0.34485222504E+02  0.15021331411E+02 -0.33051792243E+03  0.33265142119E+03  0.00000000000E+00 0. -1.
         -2    1    3    3    0  502 -0.34485222504E+02 -0.15021331411E+02 -0.12077686780E+04  0.12083542736E+04  0.00000000000E+00 0.  1.
<mgrwt>
<rscale>  0 0.91503477E+02</rscale>
<asrwt>0</asrwt>
<pdfrwt beam="2">  1        2 0.23686860E+00 0.91503477E+02</pdfrwt>
<pdfrwt beam="1">  1       -2 0.20916113E-03 0.91503477E+02</pdfrwt>
<totfact> 0.23133949E+05</totfact>
</mgrwt>
</event>
<event>
 5    1  0.3845386E+001  0.9213867E+02  0.7546771E-02  0.1297754E+00
          2   -1    0    0  501    0  0.00000000000E+00  0.00000000000E+00  0.47575720619E+03  0.47575720619E+03  0.00000000000E+00 0.  1.
         -2   -1    0    0    0  501 -0.00000000000E+00 -0.00000000000E+00 -0.44610643575E+01  0.44610643575E+01  0.00000000000E+00 0. -1.
         23    2    1    2    0    0  0.00000000000E+00  0.00000000000E+00  0.47129614184E+03  0.48021827055E+03  0.92138667570E+02 0.  0.
          2    1    3    3  502    0 -0.77838483895E+01  0.27577916128E+02  0.47639455633E+02  0.55593592137E+02  0.00000000000E+00 0. -1.
         -2    1    3    3    0  502  0.77838483895E+01 -0.27577916128E+02  0.42365668620E+03  0.42462467841E+03  0.00000000000E+00 0.  1.
<mgrwt>
<rscale>  0 0.92138668E+02</rscale>
<asrwt>0</asrwt>
<pdfrwt beam="1">  1        2 0.73193376E-01 0.92138668E+02</pdfrwt>
<pdfrwt beam="2">  1       -2 0.68631797E-03 0.92138668E+02</pdfrwt>
<totfact> 0.20617992E+05</totfact>
</mgrwt>
</event>
<event>
 5    1  0.3845386E+001  0.9034996E+02  0.7546771E-02  0.1302006E+00
         -2   -1    0    0    0  501 -0.00000000000E+00  0.00000000000E+00  0.91334561788E+02  0.91334561788E+02  0.00000000000E+00 0.  1.
          2   -1    0    0  501    0  0.00000000000E+00 -0.00000000000E+00 -0.22343992790E+02  0.22343992790E+02  0.00000000000E+00 0. -1.
         23    2    1    2    0    0  0.00000000000E+00  0.00000000000E+00  0.68990568998E+02  0.11367855458E+03  0.90349959381E+02 0.  0.
          2    1    3    3  502    0  0.32853245607E+01 -0.27333790663E+02 -0.10569614859E+02  0.29489764796E+02  0.00000000000E+00 0. -1.
         -2    1    3    3    0  502 -0.32853245607E+01  0.27333790663E+02  0.79560183857E+02  0.84188789782E+02  0.00000000000E+00 0.  1.
<mgrwt>
<rscale>  0 0.90349959E+02</rscale>
<asrwt>0</asrwt>
<pdfrwt beam="2">  1        2 0.34375374E-02 0.90349959E+02</pdfrwt>
<pdfrwt beam="1">  1       -2 0.14051471E-01 0.90349959E+02</pdfrwt>
<totfact> 0.83825301E+04</totfact>
</mgrwt>
</event>
<event>
 5    1  0.3845386E+001  0.9083628E+02  0.7546771E-02  0.1300839E+00
          1   -1    0    0  501    0  0.00000000000E+00  0.00000000000E+00  0.30460795550E+03  0.30460795550E+03  0.00000000000E+00 0. -1.
         -1   -1    0    0    0  501 -0.00000000000E+00 -0.00000000000E+00 -0.67720072144E+01  0.67720072144E+01  0.00000000000E+00 0.  1.
         23    2    1    2    0    0  0.00000000000E+00  0.00000000000E+00  0.29783594828E+03  0.31137996271E+03  0.90836276282E+02 0.  0.
          2    1    3    3  502    0  0.38809468725E+02 -0.11042095346E+02  0.77447209644E+02  0.87327962383E+02  0.00000000000E+00 0. -1.
         -2    1    3    3    0  502 -0.38809468725E+02  0.11042095346E+02  0.22038873864E+03  0.22405200033E+03  0.00000000000E+00 0.  1.
<mgrwt>
<rscale>  0 0.90836276E+02</rscale>
<asrwt>0</asrwt>
<pdfrwt beam="1">  1        1 0.46862752E-01 0.90836276E+02</pdfrwt>
<pdfrwt beam="2">  1       -1 0.10418475E-02 0.90836276E+02</pdfrwt>
<totfact> 0.12978090E+05</totfact>
</mgrwt>
</event>
<event>
 5    1  0.3845386E+001  0.9496043E+02  0.7546771E-02  0.1291265E+00
         -1   -1    0    0    0  501 -0.00000000000E+00  0.00000000000E+00  0.90332547149E+01  0.90332547149E+01  0.00000000000E+00 0.  1.
          1   -1    0    0  501    0  0.00000000000E+00 -0.00000000000E+00 -0.24956353380E+03  0.24956353380E+03  0.00000000000E+00 0. -1.
         23    2    1    2    0    0  0.00000000000E+00  0.00000000000E+00 -0.24053027909E+03  0.25859678852E+03  0.94960433200E+02 0.  0.
          2    1    3    3  502    0  0.33105176110E+02 -0.34025098805E+02 -0.12256126287E+03  0.13143410208E+03  0.00000000000E+00 0. -1.
         -2    1    3    3    0  502 -0.33105176110E+02  0.34025098805E+02 -0.11796901622E+03  0.12716268643E+03  0.00000000000E+00 0.  1.
<mgrwt>
<rscale>  0 0.94960433E+02</rscale>
<asrwt>0</asrwt>
<pdfrwt beam="2">  1        1 0.38394394E-01 0.94960433E+02</pdfrwt>
<pdfrwt beam="1">  1       -1 0.13897314E-02 0.94960433E+02</pdfrwt>
<totfact> 0.11086900E+05</totfact>
</mgrwt>
</event>
<event>
 5    1  0.3845386E+001  0.9283605E+02  0.7546771E-02  0.1296126E+00
          2   -1    0    0  501    0  0.00000000000E+00  0.00000000000E+00  0.29688621268E+04  0.29688621268E+04  0.00000000000E+00 0. -1.
         -2   -1    0    0    0  501 -0.00000000000E+00 -0.00000000000E+00 -0.72574371181E+00  0.72574371181E+00  0.00000000000E+00 0.  1.
         23    2    1    2    0    0  0.00000000000E+00  0.00000000000E+00  0.29681363831E+04  0.29695878705E+04  0.92836049459E+02 0.  0.
          2    1    3    3  502    0  0.29220224400E+02  0.25318526707E+02  0.23057058271E+04  0.23060299674E+04  0.00000000000E+00 0. -1.
         -2    1    3    3    0  502 -0.29220224400E+02 -0.25318526707E+02  0.66243055602E+03  0.66355790317E+03  0.00000000000E+00 0.  1.
<mgrwt>
<rscale>  0 0.92836049E+02</rscale>
<asrwt>0</asrwt>
<pdfrwt beam="1">  1        2 0.45673829E+00 0.92836049E+02</pdfrwt>
<pdfrwt beam="2">  1       -2 0.11165526E-03 0.92836049E+02</pdfrwt>
<totfact> 0.99724372E+04</totfact>
</mgrwt>
</event>
<event>
 5    1  0.3845386E+001  0.9164439E+02  0.7546771E-02  0.1298918E+00
         -2   -1    0    0    0  501 -0.00000000000E+00  0.00000000000E+00  0.29853071040E+01  0.29853071040E+01  0.00000000000E+00 0.  1.
          2   -1    0    0  501    0  0.00000000000E+00 -0.00000000000E+00 -0.70333584922E+03  0.70333584922E+03  0.00000000000E+00 0. -1.
         23    2    1    2    0    0  0.00000000000E+00  0.00000000000E+00 -0.70035054211E+03  0.70632115632E+03  0.91644388964E+02 0.  0.
          2    1    3    3  502    0  0.82884022528E-02 -0.43302358837E+02 -0.23467551709E+03  0.23863715694E+03  0.00000000000E+00 0.  1.
         -2    1    3    3    0  502 -0.82884022528E-02  0.43302358837E+02 -0.46567502503E+03  0.46768399939E+03  0.00000000000E+00 0. -1.
<mgrwt>
<rscale>  0 0.91644389E+02</rscale>
<asrwt>0</asrwt>
<pdfrwt beam="2">  1        2 0.10820552E+00 0.91644389E+02</pdfrwt>
<pdfrwt beam="1">  1       -2 0.45927801E-03 0.91644389E+02</pdfrwt>
<totfact> 0.23422199E+05</totfact>
</mgrwt>
</event>
<event>
 5    1  0.3845386E+001  0.9496889E+02  0.7546771E-02  0.1291246E+00
          2   -1    0    0  501    0  0.00000000000E+00  0.00000000000E+00  0.14368731349E+04  0.14368731349E+04  0.00000000000E+00 0. -1.
         -2   -1    0    0    0  501 -0.00000000000E+00 -0.00000000000E+00 -0.15692218596E+01  0.15692218596E+01  0.00000000000E+00 0.  1.
         23    2    1    2    0    0  0.00000000000E+00  0.00000000000E+00  0.14353039131E+04  0.14384423568E+04  0.94968894545E+02 0.  0.
          2    1    3    3  502    0  0.42409277773E+01 -0.34095063776E+02  0.12141032833E+04  0.12145893303E+04  0.00000000000E+00 0. -1.
         -2    1    3    3    0  502 -0.42409277773E+01  0.34095063776E+02  0.22120062976E+03  0.22385302645E+03  0.00000000000E+00 0.  1.
<mgrwt>
<rscale>  0 0.94968895E+02</rscale>
<asrwt>0</asrwt>
<pdfrwt beam="1">  1        2 0.22105635E+00 0.94968895E+02</pdfrwt>
<pdfrwt beam="2">  1       -2 0.24141990E-03 0.94968895E+02</pdfrwt>
<totfact> 0.21509938E+05</totfact>
</mgrwt>
</event>
<event>
 5    1  0.3845386E+001  0.9329659E+02  0.7546771E-02  0.1295059E+00
          1   -1    0    0  501    0  0.00000000000E+00  0.00000000000E+00  0.19073763490E+01  0.19073763490E+01  0.00000000000E+00 0. -1.
         -1   -1    0    0    0  501 -0.00000000000E+00 -0.00000000000E+00 -0.11408674348E+04  0.11408674348E+04  0.00000000000E+00 0.  1.
         23    2    1    2    0    0  0.00000000000E+00  0.00000000000E+00 -0.11389600585E+04  0.11427748112E+04  0.93296592920E+02 0.  0.
          2    1    3    3  502    0  0.33326532099E+02  0.17874871897E+02 -0.23495111755E+03  0.23797520128E+03  0.00000000000E+00 0. -1.
         -2    1    3    3    0  502 -0.33326532099E+02 -0.17874871897E+02 -0.90400894095E+03  0.90479960992E+03  0.00000000000E+00 0.  1.
<mgrwt>
<rscale>  0 0.93296593E+02</rscale>
<asrwt>0</asrwt>
<pdfrwt beam="1">  1        1 0.29344250E-03 0.93296593E+02</pdfrwt>
<pdfrwt beam="2">  1       -1 0.17551808E+00 0.93296593E+02</pdfrwt>
<totfact> 0.20337565E+04</totfact>
</mgrwt>
</event>
<event>
 5    1  0.3845386E+001  0.9137952E+02  0.7546771E-02  0.1299545E+00
         -1   -1    0    0    0  501 -0.00000000000E+00  0.00000000000E+00  0.10952687684E+04  0.10952687684E+04  0.00000000000E+00 0.  1.
          1   -1    0    0  501    0  0.00000000000E+00 -0.00000000000E+00 -0.19059742702E+01  0.19059742702E+01  0.00000000000E+00 0. -1.
         23    2    1    2    0    0  0.00000000000E+00  0.00000000000E+00  0.10933627941E+04  0.10971747427E+04  0.91379518309E+02 0.  0.
          2    1    3    3  502    0 -0.23601741925E+02  0.28995663784E+02  0.23134289894E+03  0.23434446362E+03  0.00000000000E+00 0. -1.
         -2    1    3    3    0  502  0.23601741925E+02 -0.28995663784E+02  0.86201989520E+03  0.86283027906E+03  0.00000000000E+00 0.  1.
<mgrwt>
<rscale>  0 0.91379518E+02</rscale>
<asrwt>0</asrwt>
<pdfrwt beam="2">  1        1 0.29322769E-03 0.91379518E+02</pdfrwt>
<pdfrwt beam="1">  1       -1 0.16850238E+00 0.91379518E+02</pdfrwt>
<totfact> 0.22710138E+04</totfact>
</mgrwt>
</event>
<event>
 5    1  0.3845386E+001  0.9269087E+02  0.7546771E-02  0.1296463E+00
         -1   -1    0    0    0  501 -0.00000000000E+00  0.00000000000E+00  0.65933865009E+01  0.65933865009E+01  0.00000000000E+00 0.  1.
          1   -1    0    0  501    0  0.00000000000E+00 -0.00000000000E+00 -0.32576572783E+03  0.32576572783E+03  0.00000000000E+00 0. -1.
         23    2    1    2    0    0  0.00000000000E+00  0.00000000000E+00 -0.31917234133E+03  0.33235911433E+03  0.92690870150E+02 0.  0.
          2    1    3    3  502    0 -0.11293901413E+01  0.26548548610E+02 -0.23434522510E+02  0.35429899811E+02  0.00000000000E+00 0.  1.
         -2    1    3    3    0  502  0.11293901413E+01 -0.26548548610E+02 -0.29573781882E+03  0.29692921452E+03  0.00000000000E+00 0. -1.
<mgrwt>
<rscale>  0 0.92690870E+02</rscale>
<asrwt>0</asrwt>
<pdfrwt beam="2">  1        1 0.50117804E-01 0.92690870E+02</pdfrwt>
<pdfrwt beam="1">  1       -1 0.10143672E-02 0.92690870E+02</pdfrwt>
<totfact> 0.12453385E+05</totfact>
</mgrwt>
</event>
<event>
 5    1  0.3845386E+001  0.9506543E+02  0.7546771E-02  0.1291029E+00
          1   -1    0    0  501    0  0.00000000000E+00  0.00000000000E+00  0.37121023877E+03  0.37121023877E+03  0.00000000000E+00 0. -1.
         -1   -1    0    0    0  501 -0.00000000000E+00 -0.00000000000E+00 -0.60864667999E+01  0.60864667999E+01  0.00000000000E+00 0.  1.
         23    2    1    2    0    0  0.00000000000E+00  0.00000000000E+00  0.36512377197E+03  0.37729670557E+03  0.95065425767E+02 0.  0.
          2    1    3    3  502    0 -0.19251017151E+02  0.13402465418E+02  0.34663903380E+03  0.34743178826E+03  0.00000000000E+00 0. -1.
         -2    1    3    3    0  502  0.19251017151E+02 -0.13402465418E+02  0.18484738168E+02  0.29864917307E+02  0.00000000000E+00 0.  1.
<mgrwt>
<rscale>  0 0.95065426E+02</rscale>
<asrwt>0</asrwt>
<pdfrwt beam="1">  1        1 0.57109250E-01 0.95065426E+02</pdfrwt>
<pdfrwt beam="2">  1       -1 0.93637980E-03 0.95065426E+02</pdfrwt>
<totfact> 0.11917381E+05</totfact>
</mgrwt>
</event>
<event>
 5    1  0.3845386E+001  0.9268463E+02  0.7546771E-02  0.1296478E+00
         -2   -1    0    0    0  501 -0.00000000000E+00  0.00000000000E+00  0.26472886704E+02  0.26472886704E+02  0.00000000000E+00 0.  1.
          2   -1    0    0  501    0  0.00000000000E+00 -0.00000000000E+00 -0.81124903318E+02  0.81124903318E+02  0.00000000000E+00 0. -1.
         23    2    1    2    0    0  0.00000000000E+00  0.00000000000E+00 -0.54652016615E+02  0.10759779002E+03  0.92684634636E+02 0.  0.
          2    1    3    3  502    0  0.19183424566E+02 -0.24718248273E+02 -0.67011457456E+02  0.73956277665E+02  0.00000000000E+00 0. -1.
         -2    1    3    3    0  502 -0.19183424566E+02  0.24718248273E+02  0.12359440841E+02  0.33641512357E+02  0.00000000000E+00 0.  1.
<mgrwt>
<rscale>  0 0.92684635E+02</rscale>
<asrwt>0</asrwt>
<pdfrwt beam="2">  1        2 0.12480754E-01 0.92684635E+02</pdfrwt>
<pdfrwt beam="1">  1       -2 0.40727518E-02 0.92684635E+02</pdfrwt>
<totfact> 0.11016959E+05</totfact>
</mgrwt>
</event>
<event>
 5    1  0.3845386E+001  0.9217677E+02  0.7546771E-02  0.1297664E+00
         -2   -1    0    0    0  501 -0.00000000000E+00  0.00000000000E+00  0.22536653537E+01  0.22536653537E+01  0.00000000000E+00 0.  1.
          2   -1    0    0  501    0  0.00000000000E+00 -0.00000000000E+00 -0.94252649226E+03  0.94252649226E+03  0.00000000000E+00 0. -1.
         23    2    1    2    0    0  0.00000000000E+00  0.00000000000E+00 -0.94027282690E+03  0.94478015761E+03  0.92176771490E+02 0.  0.
          2    1    3    3  502    0  0.38169993938E+02  0.24182664324E+02 -0.56317122730E+03  0.56498104477E+03  0.00000000000E+00 0. -1.
         -2    1    3    3    0  502 -0.38169993938E+02 -0.24182664324E+02 -0.37710159960E+03  0.37979911284E+03  0.00000000000E+00 0.  1.
<mgrwt>
<rscale>  0 0.92176771E+02</rscale>
<asrwt>0</asrwt>
<pdfrwt beam="2">  1        2 0.14500427E+00 0.92176771E+02</pdfrwt>
<pdfrwt beam="1">  1       -2 0.34671728E-03 0.92176771E+02</pdfrwt>
<totfact> 0.24201260E+05</totfact>
</mgrwt>
</event>
<event>
 5    1  0.3845386E+001  0.9154011E+02  0.7546771E-02  0.1299164E+00
         -1   -1    0    0    0  501 -0.00000000000E+00  0.00000000000E+00  0.51640894779E+02  0.51640894779E+02  0.00000000000E+00 0.  1.
          1   -1    0    0  501    0  0.00000000000E+00 -0.00000000000E+00 -0.40566648251E+02  0.40566648251E+02  0.00000000000E+00 0. -1.
         23    2    1    2    0    0  0.00000000000E+00  0.00000000000E+00  0.11074246528E+02  0.92207543029E+02  0.91540111729E+02 0.  0.
          2    1    3    3  502    0  0.26733074585E+02  0.21239118179E+02 -0.25166931331E+02  0.42416174396E+02  0.00000000000E+00 0. -1.
         -2    1    3    3    0  502 -0.26733074585E+02 -0.21239118179E+02  0.36241177859E+02  0.49791368633E+02  0.00000000000E+00 0.  1.
<mgrwt>
<rscale>  0 0.91540112E+02</rscale>
<asrwt>0</asrwt>
<pdfrwt beam="2">  1        1 0.62410228E-02 0.91540112E+02</pdfrwt>
<pdfrwt beam="1">  1       -1 0.79447530E-02 0.91540112E+02</pdfrwt>
<totfact> 0.89842120E+04</totfact>
</mgrwt>
</event>
<event>
 5    1  0.3845386E+001  0.9171417E+02  0.7546771E-02  0.1298753E+00
          2   -1    0    0  501    0  0.00000000000E+00  0.00000000000E+00  0.69346972348E+03  0.69346972348E+03  0.00000000000E+00 0. -1.
         -2   -1    0    0    0  501 -0.00000000000E+00 -0.00000000000E+00 -0.30323924067E+01  0.30323924067E+01  0.00000000000E+00 0.  1.
         23    2    1    2    0    0  0.00000000000E+00  0.00000000000E+00  0.69043733108E+03  0.69650211589E+03  0.91714171724E+02 0.  0.
          2    1    3    3  502    0  0.34804525135E+02  0.47080088825E+01  0.56913399260E+03  0.57021664467E+03  0.00000000000E+00 0. -1.
         -2    1    3    3    0  502 -0.34804525135E+02 -0.47080088825E+01  0.12130333848E+03  0.12628547123E+03  0.00000000000E+00 0.  1.
<mgrwt>
<rscale>  0 0.91714172E+02</rscale>
<asrwt>0</asrwt>
<pdfrwt beam="1">  1        2 0.10668752E+00 0.91714172E+02</pdfrwt>
<pdfrwt beam="2">  1       -2 0.46652246E-03 0.91714172E+02</pdfrwt>
<totfact> 0.23298063E+05</totfact>
</mgrwt>
</event>
<event>
 5    1  0.3845386E+001  0.9125415E+02  0.7546771E-02  0.1299843E+00
          2   -1    0    0  501    0  0.00000000000E+00  0.00000000000E+00  0.13548253878E+04  0.13548253878E+04  0.00000000000E+00 0.  1.
         -2   -1    0    0    0  501 -0.00000000000E+00 -0.00000000000E+00 -0.15366037574E+01  0.15366037574E+01  0.00000000000E+00 0. -1.
         23    2    1    2    0    0  0.00000000000E+00  0.00000000000E+00  0.13532887841E+04  0.13563619916E+04  0.91254145804E+02 0.  0.
          2    1    3    3  502    0  0.30150699974E+02 -0.30355527069E+02  0.44101723548E+03  0.44308771673E+03  0.00000000000E+00 0. -1.
         -2    1    3    3    0  502 -0.30150699974E+02  0.30355527069E+02  0.91227154859E+03  0.91327427485E+03  0.00000000000E+00 0.  1.
<mgrwt>
<rscale>  0 0.91254146E+02</rscale>
<asrwt>0</asrwt>
<pdfrwt beam="1">  1        2 0.20843372E+00 0.91254146E+02</pdfrwt>
<pdfrwt beam="2">  1       -2 0.23640166E-03 0.91254146E+02</pdfrwt>
<totfact> 0.24294711E+05</totfact>
</mgrwt>
</event>
<event>
 5    1  0.3845386E+001  0.9604948E+02  0.7546771E-02  0.1288830E+00
          1   -1    0    0  501    0  0.00000000000E+00  0.00000000000E+00  0.71721699548E+03  0.71721699548E+03  0.00000000000E+00 0. -1.
         -1   -1    0    0    0  501 -0.00000000000E+00 -0.00000000000E+00 -0.32157293347E+01  0.32157293347E+01  0.00000000000E+00 0.  1.
         23    2    1    2    0    0  0.00000000000E+00  0.00000000000E+00  0.71400126614E+03  0.72043272481E+03  0.96049481659E+02 0.  0.
          2    1    3    3  502    0 -0.27214596176E+02 -0.30533695448E+02  0.54577777658E+03  0.54730825154E+03  0.00000000000E+00 0. -1.
         -2    1    3    3    0  502  0.27214596176E+02  0.30533695448E+02  0.16822348956E+03  0.17312447327E+03  0.00000000000E+00 0.  1.
<mgrwt>
<rscale>  0 0.96049482E+02</rscale>
<asrwt>0</asrwt>
<pdfrwt beam="1">  1        1 0.11034095E+00 0.96049482E+02</pdfrwt>
<pdfrwt beam="2">  1       -1 0.49472816E-03 0.96049482E+02</pdfrwt>
<totfact> 0.12379601E+05</totfact>
</mgrwt>
</event>
<event>
 5    1  0.3845386E+001  0.8998622E+02  0.7546771E-02  0.1302885E+00
         -1   -1    0    0    0  501 -0.00000000000E+00  0.00000000000E+00  0.67281908172E+03  0.67281908172E+03  0.00000000000E+00 0.  1.
          1   -1    0    0  501    0  0.00000000000E+00 -0.00000000000E+00 -0.30088027507E+01  0.30088027507E+01  0.00000000000E+00 0. -1.
         23    2    1    2    0    0  0.00000000000E+00  0.00000000000E+00  0.66981027897E+03  0.67582788447E+03  0.89986219029E+02 0.  0.
          2    1    3    3  502    0 -0.31173067699E+02 -0.31295805807E+02  0.27065223286E+03  0.27423314673E+03  0.00000000000E+00 0. -1.
         -2    1    3    3    0  502  0.31173067699E+02  0.31295805807E+02  0.39915804611E+03  0.40159473775E+03  0.00000000000E+00 0.  1.
<mgrwt>
<rscale>  0 0.89986219E+02</rscale>
<asrwt>0</asrwt>
<pdfrwt beam="2">  1        1 0.46289327E-03 0.89986219E+02</pdfrwt>
<pdfrwt beam="1">  1       -1 0.10351051E+00 0.89986219E+02</pdfrwt>
<totfact> 0.39421107E+04</totfact>
</mgrwt>
</event>
<event>
 5    1  0.3845386E+001  0.9163374E+02  0.7546771E-02  0.1298943E+00
         -2   -1    0    0    0  501 -0.00000000000E+00  0.00000000000E+00  0.12557587937E+02  0.12557587937E+02  0.00000000000E+00 0.  1.
          2   -1    0    0  501    0  0.00000000000E+00 -0.00000000000E+00 -0.16716472902E+03  0.16716472902E+03  0.00000000000E+00 0. -1.
         23    2    1    2    0    0  0.00000000000E+00  0.00000000000E+00 -0.15460714108E+03  0.17972231696E+03  0.91633744541E+02 0.  0.
          2    1    3    3  502    0  0.36544193696E+02  0.87424533303E+01 -0.25885882665E+02  0.45628801261E+02  0.00000000000E+00 0.  1.
         -2    1    3    3    0  502 -0.36544193696E+02 -0.87424533303E+01 -0.12872125842E+03  0.13409351570E+03  0.00000000000E+00 0. -1.
<mgrwt>
<rscale>  0 0.91633745E+02</rscale>
<asrwt>0</asrwt>
<pdfrwt beam="2">  1        2 0.25717649E-01 0.91633745E+02</pdfrwt>
<pdfrwt beam="1">  1       -2 0.19319367E-02 0.91633745E+02</pdfrwt>
<totfact> 0.14317261E+05</totfact>
</mgrwt>
</event>
<event>
 5    1  0.3845386E+001  0.9110243E+02  0.7546771E-02  0.1300204E+00
          1   -1    0    0  501    0  0.00000000000E+00  0.00000000000E+00  0.25105036261E+01  0.25105036261E+01  0.00000000000E+00 0. -1.
         -1   -1    0    0    0  501 -0.00000000000E+00 -0.00000000000E+00 -0.82649285131E+03  0.82649285131E+03  0.00000000000E+00 0.  1.
         23    2    1    2    0    0  0.00000000000E+00  0.00000000000E+00 -0.82398234769E+03  0.82900335494E+03  0.91102432463E+02 0.  0.
          2    1    3    3  502    0  0.42829358244E+02  0.14795854683E+02 -0.36965851162E+03  0.37242541059E+03  0.00000000000E+00 0. -1.
         -2    1    3    3    0  502 -0.42829358244E+02 -0.14795854683E+02 -0.45432383607E+03  0.45657794435E+03  0.00000000000E+00 0.  1.
<mgrwt>
<rscale>  0 0.91102432E+02</rscale>
<asrwt>0</asrwt>
<pdfrwt beam="1">  1        1 0.38623044E-03 0.91102432E+02</pdfrwt>
<pdfrwt beam="2">  1       -1 0.12715304E+00 0.91102432E+02</pdfrwt>
<totfact> 0.31690588E+04</totfact>
</mgrwt>
</event>
<event>
 5    1  0.3845386E+001  0.9187305E+02  0.7546771E-02  0.1298378E+00
          2   -1    0    0  501    0  0.00000000000E+00  0.00000000000E+00  0.80797811090E+03  0.80797811090E+03  0.00000000000E+00 0. -1.
         -2   -1    0    0    0  501 -0.00000000000E+00 -0.00000000000E+00 -0.26116599880E+01  0.26116599880E+01  0.00000000000E+00 0.  1.
         23    2    1    2    0    0  0.00000000000E+00  0.00000000000E+00  0.80536645091E+03  0.81058977089E+03  0.91873045088E+02 0.  0.
          2    1    3    3  502    0  0.11070552123E+01  0.45920892062E+02  0.40672836898E+03  0.40931396267E+03  0.00000000000E+00 0. -1.
         -2    1    3    3    0  502 -0.11070552123E+01 -0.45920892062E+02  0.39863808193E+03  0.40127580822E+03  0.00000000000E+00 0.  1.
<mgrwt>
<rscale>  0 0.91873045E+02</rscale>
<asrwt>0</asrwt>
<pdfrwt beam="1">  1        2 0.12430413E+00 0.91873045E+02</pdfrwt>
<pdfrwt beam="2">  1       -2 0.40179449E-03 0.91873045E+02</pdfrwt>
<totfact> 0.23931077E+05</totfact>
</mgrwt>
</event>
<event>
 5    1  0.3845386E+001  0.9934056E+02  0.7546771E-02  0.1281689E+00
          1   -1    0    0  501    0  0.00000000000E+00  0.00000000000E+00  0.15780455440E+03  0.15780455440E+03  0.00000000000E+00 0. -1.
         -1   -1    0    0    0  501 -0.00000000000E+00 -0.00000000000E+00 -0.15634127973E+02  0.15634127973E+02  0.00000000000E+00 0.  1.
         23    2    1    2    0    0  0.00000000000E+00  0.00000000000E+00  0.14217042643E+03  0.17343868237E+03  0.99340557643E+02 0.  0.
          2    1    3    3  502    0  0.28120159819E+02  0.39632687940E+02  0.53140345451E+02  0.72009649743E+02  0.00000000000E+00 0. -1.
         -2    1    3    3    0  502 -0.28120159819E+02 -0.39632687940E+02  0.89030080975E+02  0.10142903263E+03  0.00000000000E+00 0.  1.
<mgrwt>
<rscale>  0 0.99340558E+02</rscale>
<asrwt>0</asrwt>
<pdfrwt beam="1">  1        1 0.24277623E-01 0.99340558E+02</pdfrwt>
<pdfrwt beam="2">  1       -1 0.24052506E-02 0.99340558E+02</pdfrwt>
<totfact> 0.89717819E+04</totfact>
</mgrwt>
</event>
<event>
 5    1  0.3845386E+001  0.9299508E+02  0.7546771E-02  0.1295757E+00
          2   -1    0    0  501    0  0.00000000000E+00  0.00000000000E+00  0.14748603219E+04  0.14748603219E+04  0.00000000000E+00 0. -1.
         -2   -1    0    0    0  501 -0.00000000000E+00 -0.00000000000E+00 -0.14659157718E+01  0.14659157718E+01  0.00000000000E+00 0.  1.
         23    2    1    2    0    0  0.00000000000E+00  0.00000000000E+00  0.14733944061E+04  0.14763262377E+04  0.92995075292E+02 0.  0.
          2    1    3    3  502    0  0.32661724589E+02  0.33091683179E+02  0.73008921164E+03  0.73156825020E+03  0.00000000000E+00 0. -1.
         -2    1    3    3    0  502 -0.32661724589E+02 -0.33091683179E+02  0.74330519450E+03  0.74475798748E+03  0.00000000000E+00 0.  1.
<mgrwt>
<rscale>  0 0.92995075E+02</rscale>
<asrwt>0</asrwt>
<pdfrwt beam="1">  1        2 0.22690040E+00 0.92995075E+02</pdfrwt>
<pdfrwt beam="2">  1       -2 0.22552668E-03 0.92995075E+02</pdfrwt>
<totfact> 0.22538564E+05</totfact>
</mgrwt>
</event>
<event>
 5    1  0.3845386E+001  0.8861256E+02  0.7546771E-02  0.1306247E+00
         -4   -1    0    0    0  501 -0.00000000000E+00  0.00000000000E+00  0.72618816536E+03  0.72618816536E+03  0.00000000000E+00 0.  1.
          4   -1    0    0  501    0  0.00000000000E+00 -0.00000000000E+00 -0.27032201285E+01  0.27032201285E+01  0.00000000000E+00 0. -1.
         23    2    1    2    0    0  0.00000000000E+00  0.00000000000E+00  0.72348494523E+03  0.72889138548E+03  0.88612560412E+02 0.  0.
          2    1    3    3  502    0  0.16339297635E+02 -0.28161393890E+02  0.11456223646E+03  0.11909887815E+03  0.00000000000E+00 0. -1.
         -2    1    3    3    0  502 -0.16339297635E+02  0.28161393890E+02  0.60892270877E+03  0.60979250734E+03  0.00000000000E+00 0.  1.
<mgrwt>
<rscale>  0 0.88612560E+02</rscale>
<asrwt>0</asrwt>
<pdfrwt beam="2">  1        4 0.41588060E-03 0.88612560E+02</pdfrwt>
<pdfrwt beam="1">  1       -4 0.11172110E+00 0.88612560E+02</pdfrwt>
<totfact> 0.10444485E+04</totfact>
</mgrwt>
</event>
<event>
 5    1  0.3845386E+001  0.9145644E+02  0.7546771E-02  0.1299363E+00
          1   -1    0    0  501    0  0.00000000000E+00  0.00000000000E+00  0.40226980807E+03  0.40226980807E+03  0.00000000000E+00 0. -1.
         -1   -1    0    0    0  501 -0.00000000000E+00 -0.00000000000E+00 -0.51981776866E+01  0.51981776866E+01  0.00000000000E+00 0.  1.
         23    2    1    2    0    0  0.00000000000E+00  0.00000000000E+00  0.39707163039E+03  0.40746798576E+03  0.91456436412E+02 0.  0.
          2    1    3    3  502    0  0.21521469695E+02 -0.60467783666E+01  0.37626539668E+03  0.37692888709E+03  0.00000000000E+00 0. -1.
         -2    1    3    3    0  502 -0.21521469695E+02  0.60467783666E+01  0.20806233712E+02  0.30539098672E+02  0.00000000000E+00 0.  1.
<mgrwt>
<rscale>  0 0.91456436E+02</rscale>
<asrwt>0</asrwt>
<pdfrwt beam="1">  1        1 0.61887638E-01 0.91456436E+02</pdfrwt>
<pdfrwt beam="2">  1       -1 0.79971996E-03 0.91456436E+02</pdfrwt>
<totfact> 0.13392234E+05</totfact>
</mgrwt>
</event>
<event>
 5    1  0.3845386E+001  0.9134563E+02  0.7546771E-02  0.1299625E+00
         -3   -1    0    0    0  501 -0.00000000000E+00  0.00000000000E+00  0.79412088346E+01  0.79412088346E+01  0.00000000000E+00 0.  1.
          3   -1    0    0  501    0  0.00000000000E+00 -0.00000000000E+00 -0.26268116821E+03  0.26268116821E+03  0.00000000000E+00 0. -1.
         23    2    1    2    0    0  0.00000000000E+00  0.00000000000E+00 -0.25473995937E+03  0.27062237704E+03  0.91345629642E+02 0.  0.
          2    1    3    3  502    0 -0.40357853436E+01  0.30276201198E+02 -0.22797132406E+03  0.23000839227E+03  0.00000000000E+00 0. -1.
         -2    1    3    3    0  502  0.40357853436E+01 -0.30276201198E+02 -0.26768635313E+02  0.40613984769E+02  0.00000000000E+00 0.  1.
<mgrwt>
<rscale>  0 0.91345630E+02</rscale>
<asrwt>0</asrwt>
<pdfrwt beam="2">  1        3 0.40412492E-01 0.91345630E+02</pdfrwt>
<pdfrwt beam="1">  1       -3 0.12217243E-02 0.91345630E+02</pdfrwt>
<totfact> 0.25088997E+04</totfact>
</mgrwt>
</event>
<event>
 5    1  0.3845386E+001  0.1028601E+03  0.7546771E-02  0.1274394E+00
         -3   -1    0    0    0  501 -0.00000000000E+00  0.00000000000E+00  0.23704642745E+02  0.23704642745E+02  0.00000000000E+00 0.  1.
          3   -1    0    0  501    0  0.00000000000E+00 -0.00000000000E+00 -0.11158361851E+03  0.11158361851E+03  0.00000000000E+00 0. -1.
         23    2    1    2    0    0  0.00000000000E+00  0.00000000000E+00 -0.87878975762E+02  0.13528826125E+03  0.10286009552E+03 0.  0.
          2    1    3    3  502    0 -0.11502706769E+02 -0.36208396988E+02 -0.89533659736E+02  0.97260662661E+02  0.00000000000E+00 0. -1.
         -2    1    3    3    0  502  0.11502706769E+02  0.36208396988E+02  0.16546839746E+01  0.38027598590E+02  0.00000000000E+00 0.  1.
<mgrwt>
<rscale>  0 0.10286010E+03</rscale>
<asrwt>0</asrwt>
<pdfrwt beam="2">  1        3 0.17166710E-01 0.10286010E+03</pdfrwt>
<pdfrwt beam="1">  1       -3 0.36468682E-02 0.10286010E+03</pdfrwt>
<totfact> 0.23180641E+04</totfact>
</mgrwt>
</event>
<event>
 5    1  0.3845386E+001  0.9540801E+02  0.7546771E-02  0.1290260E+00
         -3   -1    0    0    0  501 -0.00000000000E+00  0.00000000000E+00  0.39592654530E+02  0.39592654530E+02  0.00000000000E+00 0.  1.
          3   -1    0    0  501    0  0.00000000000E+00 -0.00000000000E+00 -0.57477129580E+02  0.57477129580E+02  0.00000000000E+00 0. -1.
         23    2    1    2    0    0  0.00000000000E+00  0.00000000000E+00 -0.17884475050E+02  0.97069784110E+02  0.95408010876E+02 0.  0.
          2    1    3    3  502    0 -0.18608192880E+02  0.43846636902E+02 -0.11610845382E+02  0.49026565659E+02  0.00000000000E+00 0.  1.
         -2    1    3    3    0  502  0.18608192880E+02 -0.43846636902E+02 -0.62736296679E+01  0.48043218450E+02  0.00000000000E+00 0. -1.
<mgrwt>
<rscale>  0 0.95408011E+02</rscale>
<asrwt>0</asrwt>
<pdfrwt beam="2">  1        3 0.88426353E-02 0.95408011E+02</pdfrwt>
<pdfrwt beam="1">  1       -3 0.60911776E-02 0.95408011E+02</pdfrwt>
<totfact> 0.30821752E+04</totfact>
</mgrwt>
</event>
<event>
 5    1  0.3845386E+001  0.9715230E+02  0.7546771E-02  0.1286401E+00
         -2   -1    0    0    0  501 -0.00000000000E+00  0.00000000000E+00  0.37134237187E+01  0.37134237187E+01  0.00000000000E+00 0.  1.
          2   -1    0    0  501    0  0.00000000000E+00 -0.00000000000E+00 -0.63543574781E+03  0.63543574781E+03  0.00000000000E+00 0. -1.
         23    2    1    2    0    0  0.00000000000E+00  0.00000000000E+00 -0.63172232409E+03  0.63914917153E+03  0.97152296476E+02 0.  0.
          2    1    3    3  502    0 -0.20182896905E+02  0.12925185468E+02 -0.37892047731E+02  0.44835443883E+02  0.00000000000E+00 0.  1.
         -2    1    3    3    0  502  0.20182896905E+02 -0.12925185468E+02 -0.59383027636E+03  0.59431372765E+03  0.00000000000E+00 0. -1.
<mgrwt>
<rscale>  0 0.97152296E+02</rscale>
<asrwt>0</asrwt>
<pdfrwt beam="2">  1        2 0.97759329E-01 0.97152296E+02</pdfrwt>
<pdfrwt beam="1">  1       -2 0.57129606E-03 0.97152296E+02</pdfrwt>
<totfact> 0.19564616E+05</totfact>
</mgrwt>
</event>
<event>
 5    1  0.3845386E+001  0.8982983E+02  0.7546771E-02  0.1303264E+00
          4   -1    0    0  501    0  0.00000000000E+00  0.00000000000E+00  0.62846183223E+03  0.62846183223E+03  0.00000000000E+00 0. -1.
         -4   -1    0    0    0  501 -0.00000000000E+00 -0.00000000000E+00 -0.32099792939E+01  0.32099792939E+01  0.00000000000E+00 0.  1.
         23    2    1    2    0    0  0.00000000000E+00  0.00000000000E+00  0.62525185294E+03  0.63167181152E+03  0.89829827307E+02 0.  0.
          2    1    3    3  502    0 -0.37534971203E+02  0.12651656960E+02  0.46153084796E+03  0.46322744102E+03  0.00000000000E+00 0. -1.
         -2    1    3    3    0  502  0.37534971203E+02 -0.12651656960E+02  0.16372100497E+03  0.16844437051E+03  0.00000000000E+00 0.  1.
<mgrwt>
<rscale>  0 0.89829827E+02</rscale>
<asrwt>0</asrwt>
<pdfrwt beam="1">  1        4 0.96686338E-01 0.89829827E+02</pdfrwt>
<pdfrwt beam="2">  1       -4 0.49384347E-03 0.89829827E+02</pdfrwt>
<totfact> 0.11384448E+04</totfact>
</mgrwt>
</event>
<event>
 5    1  0.3845386E+001  0.6914226E+02  0.7546771E-02  0.1363034E+00
         -1   -1    0    0    0  501 -0.00000000000E+00  0.00000000000E+00  0.42885669340E+01  0.42885669340E+01  0.00000000000E+00 0.  1.
          1   -1    0    0  501    0  0.00000000000E+00 -0.00000000000E+00 -0.27868589264E+03  0.27868589264E+03  0.00000000000E+00 0. -1.
         23    2    1    2    0    0  0.00000000000E+00  0.00000000000E+00 -0.27439732571E+03  0.28297445958E+03  0.69142262160E+02 0.  0.
          2    1    3    3  502    0  0.21891787374E+02  0.14158596225E+02 -0.44281568177E+02  0.51386510698E+02  0.00000000000E+00 0.  1.
         -2    1    3    3    0  502 -0.21891787374E+02 -0.14158596225E+02 -0.23011575753E+03  0.23158794888E+03  0.00000000000E+00 0. -1.
<mgrwt>
<rscale>  0 0.69142262E+02</rscale>
<asrwt>0</asrwt>
<pdfrwt beam="2">  1        1 0.42874774E-01 0.69142262E+02</pdfrwt>
<pdfrwt beam="1">  1       -1 0.65977921E-03 0.69142262E+02</pdfrwt>
<totfact> 0.26131757E+05</totfact>
</mgrwt>
</event>
<event>
 5    1  0.3845386E+001  0.9074446E+02  0.7546771E-02  0.1301059E+00
          2   -1    0    0  501    0  0.00000000000E+00  0.00000000000E+00  0.56873239223E+03  0.56873239223E+03  0.00000000000E+00 0. -1.
         -2   -1    0    0    0  501 -0.00000000000E+00 -0.00000000000E+00 -0.36196971795E+01  0.36196971795E+01  0.00000000000E+00 0.  1.
         23    2    1    2    0    0  0.00000000000E+00  0.00000000000E+00  0.56511269505E+03  0.57235208941E+03  0.90744455170E+02 0.  0.
          2    1    3    3  502    0 -0.29056470626E+02  0.25928357905E+01  0.50174169380E+03  0.50258902553E+03  0.00000000000E+00 0. -1.
         -2    1    3    3    0  502  0.29056470626E+02 -0.25928357905E+01  0.63371001243E+02  0.69763063875E+02  0.00000000000E+00 0.  1.
<mgrwt>
<rscale>  0 0.90744455E+02</rscale>
<asrwt>0</asrwt>
<pdfrwt beam="1">  1        2 0.87497220E-01 0.90744455E+02</pdfrwt>
<pdfrwt beam="2">  1       -2 0.55687694E-03 0.90744455E+02</pdfrwt>
<totfact> 0.22716701E+05</totfact>
</mgrwt>
</event>
<event>
 5    1  0.3845386E+001  0.9019646E+02  0.7546771E-02  0.1302377E+00
         -1   -1    0    0    0  501 -0.00000000000E+00  0.00000000000E+00  0.40170419226E+02  0.40170419226E+02  0.00000000000E+00 0.  1.
          1   -1    0    0  501    0  0.00000000000E+00 -0.00000000000E+00 -0.50630553548E+02  0.50630553548E+02  0.00000000000E+00 0. -1.
         23    2    1    2    0    0  0.00000000000E+00  0.00000000000E+00 -0.10460134322E+02  0.90800972773E+02  0.90196464712E+02 0.  0.
          2    1    3    3  502    0  0.36048833970E+01 -0.22739848101E+02 -0.44268239999E+02  0.49897624678E+02  0.00000000000E+00 0. -1.
         -2    1    3    3    0  502 -0.36048833970E+01  0.22739848101E+02  0.33808105676E+02  0.40903348095E+02  0.00000000000E+00 0.  1.
<mgrwt>
<rscale>  0 0.90196465E+02</rscale>
<asrwt>0</asrwt>
<pdfrwt beam="2">  1        1 0.77893159E-02 0.90196465E+02</pdfrwt>
<pdfrwt beam="1">  1       -1 0.61800645E-02 0.90196465E+02</pdfrwt>
<totfact> 0.96816259E+04</totfact>
</mgrwt>
</event>
<event>
 5    1  0.3845386E+001  0.9076307E+02  0.7546771E-02  0.1301014E+00
         -2   -1    0    0    0  501 -0.00000000000E+00  0.00000000000E+00  0.92141426269E+01  0.92141426269E+01  0.00000000000E+00 0.  1.
          2   -1    0    0  501    0  0.00000000000E+00 -0.00000000000E+00 -0.22351332563E+03  0.22351332563E+03  0.00000000000E+00 0. -1.
         23    2    1    2    0    0  0.00000000000E+00  0.00000000000E+00 -0.21429918300E+03  0.23272746826E+03  0.90763068731E+02 0.  0.
          2    1    3    3  502    0 -0.24805304508E+02 -0.40374003528E+01 -0.20404078784E+03  0.20558270072E+03  0.00000000000E+00 0. -1.
         -2    1    3    3    0  502  0.24805304508E+02  0.40374003528E+01 -0.10258395165E+02  0.27144767538E+02  0.00000000000E+00 0.  1.
<mgrwt>
<rscale>  0 0.90763069E+02</rscale>
<asrwt>0</asrwt>
<pdfrwt beam="2">  1        2 0.34386663E-01 0.90763069E+02</pdfrwt>
<pdfrwt beam="1">  1       -2 0.14175605E-02 0.90763069E+02</pdfrwt>
<totfact> 0.16305110E+05</totfact>
</mgrwt>
</event>
<event>
 5    1  0.3845386E+001  0.9114315E+02  0.7546771E-02  0.1300107E+00
         -2   -1    0    0    0  501 -0.00000000000E+00  0.00000000000E+00  0.68254839072E+01  0.68254839072E+01  0.00000000000E+00 0.  1.
          2   -1    0    0  501    0  0.00000000000E+00 -0.00000000000E+00 -0.30426682585E+03  0.30426682585E+03  0.00000000000E+00 0. -1.
         23    2    1    2    0    0  0.00000000000E+00  0.00000000000E+00 -0.29744134194E+03  0.31109230976E+03  0.91143147264E+02 0.  0.
          2    1    3    3  502    0  0.66468490530E+01 -0.27789641509E+02 -0.26989378787E+03  0.27140210300E+03  0.00000000000E+00 0. -1.
         -2    1    3    3    0  502 -0.66468490530E+01  0.27789641509E+02 -0.27547554066E+02  0.39690206759E+02  0.00000000000E+00 0.  1.
<mgrwt>
<rscale>  0 0.91143147E+02</rscale>
<asrwt>0</asrwt>
<pdfrwt beam="2">  1        2 0.46810279E-01 0.91143147E+02</pdfrwt>
<pdfrwt beam="1">  1       -2 0.10500745E-02 0.91143147E+02</pdfrwt>
<totfact> 0.18078532E+05</totfact>
</mgrwt>
</event>
<event>
 5    1  0.3845386E+001  0.8987054E+02  0.7546771E-02  0.1303166E+00
         -1   -1    0    0    0  501 -0.00000000000E+00  0.00000000000E+00  0.24047508231E+01  0.24047508231E+01  0.00000000000E+00 0.  1.
          1   -1    0    0  501    0  0.00000000000E+00 -0.00000000000E+00 -0.83966219890E+03  0.83966219890E+03  0.00000000000E+00 0. -1.
         23    2    1    2    0    0  0.00000000000E+00  0.00000000000E+00 -0.83725744807E+03  0.84206694972E+03  0.89870537194E+02 0.  0.
          2    1    3    3  502    0 -0.18567567140E+02 -0.19913957415E+02 -0.75357148965E+03  0.75406320045E+03  0.00000000000E+00 0. -1.
         -2    1    3    3    0  502  0.18567567140E+02  0.19913957415E+02 -0.83685958421E+02  0.88003749274E+02  0.00000000000E+00 0.  1.
<mgrwt>
<rscale>  0 0.89870537E+02</rscale>
<asrwt>0</asrwt>
<pdfrwt beam="2">  1        1 0.12917882E+00 0.89870537E+02</pdfrwt>
<pdfrwt beam="1">  1       -1 0.36996159E-03 0.89870537E+02</pdfrwt>
<totfact> 0.14605589E+05</totfact>
</mgrwt>
</event>
<event>
 5    1  0.3845386E+001  0.9925299E+02  0.7546771E-02  0.1281875E+00
         -2   -1    0    0    0  501 -0.00000000000E+00  0.00000000000E+00  0.40098267047E+02  0.40098267047E+02  0.00000000000E+00 0.  1.
          2   -1    0    0  501    0  0.00000000000E+00 -0.00000000000E+00 -0.61418842419E+02  0.61418842419E+02  0.00000000000E+00 0. -1.
         23    2    1    2    0    0  0.00000000000E+00  0.00000000000E+00 -0.21320575372E+02  0.10151710947E+03  0.99252992802E+02 0.  0.
          2    1    3    3  502    0  0.32458274107E+02  0.31328998646E+02 -0.31814034725E+02  0.55201254693E+02  0.00000000000E+00 0. -1.
         -2    1    3    3    0  502 -0.32458274107E+02 -0.31328998646E+02  0.10493459353E+02  0.46315854773E+02  0.00000000000E+00 0.  1.
<mgrwt>
<rscale>  0 0.99252993E+02</rscale>
<asrwt>0</asrwt>
<pdfrwt beam="2">  1        2 0.94490527E-02 0.99252993E+02</pdfrwt>
<pdfrwt beam="1">  1       -2 0.61689641E-02 0.99252993E+02</pdfrwt>
<totfact> 0.83870043E+04</totfact>
</mgrwt>
</event>
<event>
 5    1  0.3845386E+001  0.9159389E+02  0.7546771E-02  0.1299037E+00
         -2   -1    0    0    0  501 -0.00000000000E+00  0.00000000000E+00  0.35028087177E+01  0.35028087177E+01  0.00000000000E+00 0.  1.
          2   -1    0    0  501    0  0.00000000000E+00 -0.00000000000E+00 -0.59876526309E+03  0.59876526309E+03  0.00000000000E+00 0. -1.
         23    2    1    2    0    0  0.00000000000E+00  0.00000000000E+00 -0.59526245437E+03  0.60226807180E+03  0.91593890264E+02 0.  0.
          2    1    3    3  502    0 -0.58088543266E+01  0.43843192528E+02 -0.21944404805E+03  0.22385633460E+03  0.00000000000E+00 0. -1.
         -2    1    3    3    0  502  0.58088543266E+01 -0.43843192528E+02 -0.37581840632E+03  0.37841173720E+03  0.00000000000E+00 0.  1.
<mgrwt>
<rscale>  0 0.91593890E+02</rscale>
<asrwt>0</asrwt>
<pdfrwt beam="2">  1        2 0.92117731E-01 0.91593890E+02</pdfrwt>
<pdfrwt beam="1">  1       -2 0.53889366E-03 0.91593890E+02</pdfrwt>
<totfact> 0.22498663E+05</totfact>
</mgrwt>
</event>
<event>
 5    1  0.3845386E+001  0.9069030E+02  0.7546771E-02  0.1301189E+00
          2   -1    0    0  501    0  0.00000000000E+00  0.00000000000E+00  0.81220799571E+02  0.81220799571E+02  0.00000000000E+00 0. -1.
         -2   -1    0    0    0  501 -0.00000000000E+00 -0.00000000000E+00 -0.25315962458E+02  0.25315962458E+02  0.00000000000E+00 0.  1.
         23    2    1    2    0    0  0.00000000000E+00  0.00000000000E+00  0.55904837112E+02  0.10653676203E+03  0.90690301858E+02 0.  0.
          2    1    3    3  502    0  0.13441150312E+01 -0.20816154055E+02  0.75249974467E+02  0.78087627523E+02  0.00000000000E+00 0. -1.
         -2    1    3    3    0  502 -0.13441150312E+01  0.20816154055E+02 -0.19345137355E+02  0.28449134506E+02  0.00000000000E+00 0.  1.
<mgrwt>
<rscale>  0 0.90690302E+02</rscale>
<asrwt>0</asrwt>
<pdfrwt beam="1">  1        2 0.12495508E-01 0.90690302E+02</pdfrwt>
<pdfrwt beam="2">  1       -2 0.38947635E-02 0.90690302E+02</pdfrwt>
<totfact> 0.11708088E+05</totfact>
</mgrwt>
</event>
<event>
 5    1  0.3845386E+001  0.9074838E+02  0.7546771E-02  0.1301049E+00
          2   -1    0    0  501    0  0.00000000000E+00  0.00000000000E+00  0.11511612738E+04  0.11511612738E+04  0.00000000000E+00 0.  1.
         -2   -1    0    0    0  501 -0.00000000000E+00 -0.00000000000E+00 -0.17884695587E+01  0.17884695587E+01  0.00000000000E+00 0. -1.
         23    2    1    2    0    0  0.00000000000E+00  0.00000000000E+00  0.11493728042E+04  0.11529497433E+04  0.90748375090E+02 0.  0.
          2    1    3    3  502    0  0.15239578366E+02 -0.14817812566E+02  0.65378896447E+02  0.68747453906E+02  0.00000000000E+00 0. -1.
         -2    1    3    3    0  502 -0.15239578366E+02  0.14817812566E+02  0.10839939078E+04  0.10842022894E+04  0.00000000000E+00 0.  1.
<mgrwt>
<rscale>  0 0.90748375E+02</rscale>
<asrwt>0</asrwt>
<pdfrwt beam="1">  1        2 0.17710114E+00 0.90748375E+02</pdfrwt>
<pdfrwt beam="2">  1       -2 0.27515008E-03 0.90748375E+02</pdfrwt>
<totfact> 0.25273092E+05</totfact>
</mgrwt>
</event>
<event>
 5    1  0.3845386E+001  0.9256064E+02  0.7546771E-02  0.1296767E+00
          2   -1    0    0  501    0  0.00000000000E+00  0.00000000000E+00  0.33763904034E+02  0.33763904034E+02  0.00000000000E+00 0. -1.
         -2   -1    0    0    0  501 -0.00000000000E+00 -0.00000000000E+00 -0.63436619415E+02  0.63436619415E+02  0.00000000000E+00 0.  1.
         23    2    1    2    0    0  0.00000000000E+00  0.00000000000E+00 -0.29672715381E+02  0.97200523449E+02  0.92560638075E+02 0.  0.
          2    1    3    3  502    0 -0.39962173871E+02 -0.61878285452E+01  0.87997685081E+01  0.41384785712E+02  0.00000000000E+00 0. -1.
         -2    1    3    3    0  502  0.39962173871E+02  0.61878285452E+01 -0.38472483889E+02  0.55815737738E+02  0.00000000000E+00 0.  1.
<mgrwt>
<rscale>  0 0.92560638E+02</rscale>
<asrwt>0</asrwt>
<pdfrwt beam="1">  1        2 0.51944469E-02 0.92560638E+02</pdfrwt>
<pdfrwt beam="2">  1       -2 0.97594798E-02 0.92560638E+02</pdfrwt>
<totfact> 0.87314249E+04</totfact>
</mgrwt>
</event>
<event>
 5    1  0.3845386E+001  0.9016834E+02  0.7546771E-02  0.1302445E+00
         -1   -1    0    0    0  501 -0.00000000000E+00  0.00000000000E+00  0.43270755350E+02  0.43270755350E+02  0.00000000000E+00 0.  1.
          1   -1    0    0  501    0  0.00000000000E+00 -0.00000000000E+00 -0.46973578356E+02  0.46973578356E+02  0.00000000000E+00 0. -1.
         23    2    1    2    0    0  0.00000000000E+00  0.00000000000E+00 -0.37028230063E+01  0.90244333706E+02  0.90168336282E+02 0.  0.
          2    1    3    3  502    0  0.40499972296E+02 -0.84390481409E+01 -0.19786250658E+02  0.45858052779E+02  0.00000000000E+00 0. -1.
         -2    1    3    3    0  502 -0.40499972296E+02  0.84390481409E+01  0.16083427652E+02  0.44386280927E+02  0.00000000000E+00 0.  1.
<mgrwt>
<rscale>  0 0.90168336E+02</rscale>
<asrwt>0</asrwt>
<pdfrwt beam="2">  1        1 0.72267043E-02 0.90168336E+02</pdfrwt>
<pdfrwt beam="1">  1       -1 0.66570393E-02 0.90168336E+02</pdfrwt>
<totfact> 0.95825929E+04</totfact>
</mgrwt>
</event>
<event>
 5    1  0.3845386E+001  0.9324513E+02  0.7546771E-02  0.1295178E+00
          2   -1    0    0  501    0  0.00000000000E+00  0.00000000000E+00  0.10276451904E+04  0.10276451904E+04  0.00000000000E+00 0.  1.
         -2   -1    0    0    0  501 -0.00000000000E+00 -0.00000000000E+00 -0.21151887953E+01  0.21151887953E+01  0.00000000000E+00 0. -1.
         23    2    1    2    0    0  0.00000000000E+00  0.00000000000E+00  0.10255300016E+04  0.10297603792E+04  0.93245130539E+02 0.  0.
          2    1    3    3  502    0  0.30366580989E+02 -0.92427515302E+01  0.88988452068E+03  0.89045045783E+03  0.00000000000E+00 0.  1.
         -2    1    3    3    0  502 -0.30366580989E+02  0.92427515302E+01  0.13564548095E+03  0.13930992140E+03  0.00000000000E+00 0. -1.
<mgrwt>
<rscale>  0 0.93245131E+02</rscale>
<asrwt>0</asrwt>
<pdfrwt beam="1">  1        2 0.15809886E+00 0.93245131E+02</pdfrwt>
<pdfrwt beam="2">  1       -2 0.32541448E-03 0.93245131E+02</pdfrwt>
<totfact> 0.23587653E+05</totfact>
</mgrwt>
</event>
<event>
 5    1  0.3845386E+001  0.9040129E+02  0.7546771E-02  0.1301883E+00
          1   -1    0    0  501    0  0.00000000000E+00  0.00000000000E+00  0.14900208664E+04  0.14900208664E+04  0.00000000000E+00 0. -1.
         -1   -1    0    0    0  501 -0.00000000000E+00 -0.00000000000E+00 -0.13711877688E+01  0.13711877688E+01  0.00000000000E+00 0.  1.
         23    2    1    2    0    0  0.00000000000E+00  0.00000000000E+00  0.14886496786E+04  0.14913920542E+04  0.90401291744E+02 0.  0.
          2    1    3    3  502    0 -0.94340484572E+00 -0.43458089833E+02  0.94878879502E+03  0.94978401395E+03  0.00000000000E+00 0. -1.
         -2    1    3    3    0  502  0.94340484572E+00  0.43458089833E+02  0.53986088361E+03  0.54160804023E+03  0.00000000000E+00 0.  1.
<mgrwt>
<rscale>  0 0.90401292E+02</rscale>
<asrwt>0</asrwt>
<pdfrwt beam="1">  1        1 0.22923268E+00 0.90401292E+02</pdfrwt>
<pdfrwt beam="2">  1       -1 0.21095316E-03 0.90401292E+02</pdfrwt>
<totfact> 0.11365296E+05</totfact>
</mgrwt>
</event>
<event>
 5    1  0.3845386E+001  0.9244331E+02  0.7546771E-02  0.1297040E+00
         -2   -1    0    0    0  501 -0.00000000000E+00  0.00000000000E+00  0.12559213218E+02  0.12559213218E+02  0.00000000000E+00 0.  1.
          2   -1    0    0  501    0  0.00000000000E+00 -0.00000000000E+00 -0.17010949616E+03  0.17010949616E+03  0.00000000000E+00 0. -1.
         23    2    1    2    0    0  0.00000000000E+00  0.00000000000E+00 -0.15755028294E+03  0.18266870938E+03  0.92443310903E+02 0.  0.
          2    1    3    3  502    0  0.33656730646E+01  0.24906068114E+02 -0.21222981316E+01  0.25221897895E+02  0.00000000000E+00 0.  1.
         -2    1    3    3    0  502 -0.33656730646E+01 -0.24906068114E+02 -0.15542798481E+03  0.15744681148E+03  0.00000000000E+00 0. -1.
<mgrwt>
<rscale>  0 0.92443311E+02</rscale>
<asrwt>0</asrwt>
<pdfrwt beam="2">  1        2 0.26170690E-01 0.92443311E+02</pdfrwt>
<pdfrwt beam="1">  1       -2 0.19321868E-02 0.92443311E+02</pdfrwt>
<totfact> 0.14065676E+05</totfact>
</mgrwt>
</event>
<event>
 4    1  0.3845386E+001  0.1335088E+03  0.7546771E-02  0.1222340E+00
          3   -1    0    0  501    0  0.00000000000E+00  0.00000000000E+00  0.10469333390E+02  0.10469333390E+02  0.00000000000E+00 0. -1.
         -3   -1    0    0    0  501 -0.00000000000E+00 -0.00000000000E+00 -0.42563806834E+03  0.42563806834E+03  0.00000000000E+00 0.  1.
          2    1    1    2  502    0  0.91968082529E+00  0.66315690384E+02 -0.23236040194E+03  0.24164017256E+03  0.00000000000E+00 0. -1.
         -2    1    1    2    0  502 -0.91968082529E+00 -0.66315690384E+02 -0.18280833301E+03  0.19446722918E+03  0.00000000000E+00 0.  1.
<mgrwt>
<rscale>  0 0.13350875E+03</rscale>
<asrwt>0</asrwt>
<pdfrwt beam="1">  1        3 0.16106666E-02 0.13350875E+03</pdfrwt>
<pdfrwt beam="2">  1       -3 0.65482782E-01 0.13350875E+03</pdfrwt>
<totfact> 0.68964017E+03</totfact>
</mgrwt>
</event>
<event>
 5    1  0.3845386E+001  0.8738620E+02  0.7546771E-02  0.1309308E+00
          1   -1    0    0  501    0  0.00000000000E+00  0.00000000000E+00  0.14904020330E+04  0.14904020330E+04  0.00000000000E+00 0. -1.
         -1   -1    0    0    0  501 -0.00000000000E+00 -0.00000000000E+00 -0.12809207864E+01  0.12809207864E+01  0.00000000000E+00 0.  1.
         23    2    1    2    0    0  0.00000000000E+00  0.00000000000E+00  0.14891211122E+04  0.14916829538E+04  0.87386199008E+02 0.  0.
          2    1    3    3  502    0 -0.31579041549E+02  0.62757809349E+01  0.12487663672E+04  0.12491813564E+04  0.00000000000E+00 0. -1.
         -2    1    3    3    0  502  0.31579041549E+02 -0.62757809349E+01  0.24035474503E+03  0.24250159742E+03  0.00000000000E+00 0.  1.
<mgrwt>
<rscale>  0 0.87386199E+02</rscale>
<asrwt>0</asrwt>
<pdfrwt beam="1">  1        1 0.22929123E+00 0.87386199E+02</pdfrwt>
<pdfrwt beam="2">  1       -1 0.19706593E-03 0.87386199E+02</pdfrwt>
<totfact> 0.12428616E+05</totfact>
</mgrwt>
</event>
<event>
 5    1  0.3845386E+001  0.8565893E+02  0.7546771E-02  0.1313718E+00
         -1   -1    0    0    0  501 -0.00000000000E+00  0.00000000000E+00  0.38511983937E+01  0.38511983937E+01  0.00000000000E+00 0.  1.
          1   -1    0    0  501    0  0.00000000000E+00 -0.00000000000E+00 -0.47630968207E+03  0.47630968207E+03  0.00000000000E+00 0. -1.
         23    2    1    2    0    0  0.00000000000E+00  0.00000000000E+00 -0.47245848368E+03  0.48016088047E+03  0.85658930240E+02 0.  0.
          2    1    3    3  502    0  0.21766638678E+02 -0.28434975886E+02 -0.36793202260E+03  0.36967053936E+03  0.00000000000E+00 0. -1.
         -2    1    3    3    0  502 -0.21766638678E+02  0.28434975886E+02 -0.10452646108E+03  0.11049034111E+03  0.00000000000E+00 0.  1.
<mgrwt>
<rscale>  0 0.85658930E+02</rscale>
<asrwt>0</asrwt>
<pdfrwt beam="2">  1        1 0.73278428E-01 0.85658930E+02</pdfrwt>
<pdfrwt beam="1">  1       -1 0.59249193E-03 0.85658930E+02</pdfrwt>
<totfact> 0.16324984E+05</totfact>
</mgrwt>
</event>
<event>
 5    1  0.3845386E+001  0.9047696E+02  0.7546771E-02  0.1301701E+00
          1   -1    0    0  501    0  0.00000000000E+00  0.00000000000E+00  0.95685912009E+01  0.95685912009E+01  0.00000000000E+00 0. -1.
         -1   -1    0    0    0  501 -0.00000000000E+00 -0.00000000000E+00 -0.21387893501E+03  0.21387893501E+03  0.00000000000E+00 0.  1.
         23    2    1    2    0    0  0.00000000000E+00  0.00000000000E+00 -0.20431034381E+03  0.22344752621E+03  0.90476960507E+02 0.  0.
          2    1    3    3  502    0 -0.26322789279E+02 -0.16993986472E+02 -0.21565615513E+02  0.38036306131E+02  0.00000000000E+00 0. -1.
         -2    1    3    3    0  502  0.26322789279E+02  0.16993986472E+02 -0.18274472830E+03  0.18541122008E+03  0.00000000000E+00 0.  1.
<mgrwt>
<rscale>  0 0.90476961E+02</rscale>
<asrwt>0</asrwt>
<pdfrwt beam="1">  1        1 0.14720909E-02 0.90476961E+02</pdfrwt>
<pdfrwt beam="2">  1       -1 0.32904453E-01 0.90476961E+02</pdfrwt>
<totfact> 0.69452667E+04</totfact>
</mgrwt>
</event>
<event>
 5    1  0.3845386E+001  0.8961788E+02  0.7546771E-02  0.1303780E+00
          1   -1    0    0  501    0  0.00000000000E+00  0.00000000000E+00  0.41005121953E+03  0.41005121953E+03  0.00000000000E+00 0. -1.
         -1   -1    0    0    0  501 -0.00000000000E+00 -0.00000000000E+00 -0.48965613914E+01  0.48965613914E+01  0.00000000000E+00 0.  1.
         23    2    1    2    0    0  0.00000000000E+00  0.00000000000E+00  0.40515465814E+03  0.41494778092E+03  0.89617877012E+02 0.  0.
          2    1    3    3  502    0  0.85709615705E+01  0.43497454114E+02  0.17244511764E+03  0.17805282501E+03  0.00000000000E+00 0.  1.
         -2    1    3    3    0  502 -0.85709615705E+01 -0.43497454114E+02  0.23270954050E+03  0.23689495591E+03  0.00000000000E+00 0. -1.
<mgrwt>
<rscale>  0 0.89617877E+02</rscale>
<asrwt>0</asrwt>
<pdfrwt beam="1">  1        1 0.63084776E-01 0.89617877E+02</pdfrwt>
<pdfrwt beam="2">  1       -1 0.75331746E-03 0.89617877E+02</pdfrwt>
<totfact> 0.14177088E+05</totfact>
</mgrwt>
</event>
<event>
 5    1  0.3845386E+001  0.8922243E+02  0.7546771E-02  0.1304746E+00
         -2   -1    0    0    0  501 -0.00000000000E+00  0.00000000000E+00  0.43216130307E+02  0.43216130307E+02  0.00000000000E+00 0.  1.
          2   -1    0    0  501    0  0.00000000000E+00 -0.00000000000E+00 -0.46051333270E+02  0.46051333270E+02  0.00000000000E+00 0. -1.
         23    2    1    2    0    0  0.00000000000E+00  0.00000000000E+00 -0.28352029629E+01  0.89267463577E+02  0.89222428109E+02 0.  0.
          2    1    3    3  502    0 -0.15478288877E+02 -0.31479947113E+02 -0.28992280733E+02  0.45509524705E+02  0.00000000000E+00 0. -1.
         -2    1    3    3    0  502  0.15478288877E+02  0.31479947113E+02  0.26157077770E+02  0.43757938872E+02  0.00000000000E+00 0.  1.
<mgrwt>
<rscale>  0 0.89222428E+02</rscale>
<asrwt>0</asrwt>
<pdfrwt beam="2">  1        2 0.70848205E-02 0.89222428E+02</pdfrwt>
<pdfrwt beam="1">  1       -2 0.66486355E-02 0.89222428E+02</pdfrwt>
<totfact> 0.10525699E+05</totfact>
</mgrwt>
</event>
<event>
 5    1  0.3845386E+001  0.9047631E+02  0.7546771E-02  0.1301702E+00
          1   -1    0    0  501    0  0.00000000000E+00  0.00000000000E+00  0.15349004791E+02  0.15349004791E+02  0.00000000000E+00 0. -1.
         -1   -1    0    0    0  501 -0.00000000000E+00 -0.00000000000E+00 -0.13333050882E+03  0.13333050882E+03  0.00000000000E+00 0.  1.
         23    2    1    2    0    0  0.00000000000E+00  0.00000000000E+00 -0.11798150403E+03  0.14867951361E+03  0.90476308913E+02 0.  0.
          2    1    3    3  502    0 -0.21770662168E+02  0.38477218173E+02 -0.43226004135E+02  0.61829972368E+02  0.00000000000E+00 0. -1.
         -2    1    3    3    0  502  0.21770662168E+02 -0.38477218173E+02 -0.74755499894E+02  0.86849541243E+02  0.00000000000E+00 0.  1.
<mgrwt>
<rscale>  0 0.90476309E+02</rscale>
<asrwt>0</asrwt>
<pdfrwt beam="1">  1        1 0.23613853E-02 0.90476309E+02</pdfrwt>
<pdfrwt beam="2">  1       -1 0.20512387E-01 0.90476309E+02</pdfrwt>
<totfact> 0.78352581E+04</totfact>
</mgrwt>
</event>
<event>
 5    1  0.3845386E+001  0.9240739E+02  0.7546771E-02  0.1297124E+00
          4   -1    0    0  501    0  0.00000000000E+00  0.00000000000E+00  0.32009607924E+01  0.32009607924E+01  0.00000000000E+00 0. -1.
         -4   -1    0    0    0  501 -0.00000000000E+00 -0.00000000000E+00 -0.66691897415E+03  0.66691897415E+03  0.00000000000E+00 0.  1.
         23    2    1    2    0    0  0.00000000000E+00  0.00000000000E+00 -0.66371801336E+03  0.67011993494E+03  0.92407391219E+02 0.  0.
          2    1    3    3  502    0  0.40370895918E+02  0.21838417941E+02 -0.37027011066E+03  0.37310411494E+03  0.00000000000E+00 0. -1.
         -2    1    3    3    0  502 -0.40370895918E+02 -0.21838417941E+02 -0.29344790270E+03  0.29701582001E+03  0.00000000000E+00 0.  1.
<mgrwt>
<rscale>  0 0.92407391E+02</rscale>
<asrwt>0</asrwt>
<pdfrwt beam="1">  1        4 0.49245511E-03 0.92407391E+02</pdfrwt>
<pdfrwt beam="2">  1       -4 0.10260300E+00 0.92407391E+02</pdfrwt>
<totfact> 0.10063285E+04</totfact>
</mgrwt>
</event>
<event>
 5    1  0.3845386E+001  0.7837164E+02  0.7546771E-02  0.1333737E+00
         -1   -1    0    0    0  501 -0.00000000000E+00  0.00000000000E+00  0.75038701015E+02  0.75038701015E+02  0.00000000000E+00 0.  1.
          1   -1    0    0  501    0  0.00000000000E+00 -0.00000000000E+00 -0.20463154768E+02  0.20463154768E+02  0.00000000000E+00 0. -1.
         23    2    1    2    0    0  0.00000000000E+00  0.00000000000E+00  0.54575546247E+02  0.95501855783E+02  0.78371641617E+02 0.  0.
          2    1    3    3  502    0  0.36996853090E+02  0.14544238139E+01  0.42923876935E+02  0.56686344902E+02  0.00000000000E+00 0. -1.
         -2    1    3    3    0  502 -0.36996853090E+02 -0.14544238139E+01  0.11651669313E+02  0.38815510881E+02  0.00000000000E+00 0.  1.
<mgrwt>
<rscale>  0 0.78371642E+02</rscale>
<asrwt>0</asrwt>
<pdfrwt beam="2">  1        1 0.31481777E-02 0.78371642E+02</pdfrwt>
<pdfrwt beam="1">  1       -1 0.11544415E-01 0.78371642E+02</pdfrwt>
<totfact> 0.12583683E+05</totfact>
</mgrwt>
</event>
<event>
 5    1  0.3845386E+001  0.8558729E+02  0.7546771E-02  0.1313904E+00
          2   -1    0    0  501    0  0.00000000000E+00  0.00000000000E+00  0.46235864976E+03  0.46235864976E+03  0.00000000000E+00 0. -1.
         -2   -1    0    0    0  501 -0.00000000000E+00 -0.00000000000E+00 -0.39607697908E+01  0.39607697908E+01  0.00000000000E+00 0.  1.
         23    2    1    2    0    0  0.00000000000E+00  0.00000000000E+00  0.45839787997E+03  0.46631941955E+03  0.85587292806E+02 0.  0.
          2    1    3    3  502    0 -0.32254883563E+02 -0.10840286592E+02  0.37058707815E+03  0.37214603561E+03  0.00000000000E+00 0. -1.
         -2    1    3    3    0  502  0.32254883563E+02  0.10840286592E+02  0.87810801818E+02  0.94173383942E+02  0.00000000000E+00 0.  1.
<mgrwt>
<rscale>  0 0.85587293E+02</rscale>
<asrwt>0</asrwt>
<pdfrwt beam="1">  1        2 0.71132057E-01 0.85587293E+02</pdfrwt>
<pdfrwt beam="2">  1       -2 0.60934956E-03 0.85587293E+02</pdfrwt>
<totfact> 0.24813055E+05</totfact>
</mgrwt>
</event>
<event>
 5    1  0.3845386E+001  0.8587198E+02  0.7546771E-02  0.1313168E+00
         -1   -1    0    0    0  501 -0.00000000000E+00  0.00000000000E+00  0.13249699258E+01  0.13249699258E+01  0.00000000000E+00 0.  1.
          1   -1    0    0  501    0  0.00000000000E+00 -0.00000000000E+00 -0.13913517440E+04  0.13913517440E+04  0.00000000000E+00 0. -1.
         23    2    1    2    0    0  0.00000000000E+00  0.00000000000E+00 -0.13900267741E+04  0.13926767139E+04  0.85871979527E+02 0.  0.
          2    1    3    3  502    0  0.31867963784E+02 -0.27873950410E+02 -0.81080508254E+03  0.81190972780E+03  0.00000000000E+00 0.  1.
         -2    1    3    3    0  502 -0.31867963784E+02  0.27873950410E+02 -0.57922169152E+03  0.58076698611E+03  0.00000000000E+00 0. -1.
<mgrwt>
<rscale>  0 0.85871980E+02</rscale>
<asrwt>0</asrwt>
<pdfrwt beam="2">  1        1 0.21405468E+00 0.85871980E+02</pdfrwt>
<pdfrwt beam="1">  1       -1 0.20384099E-03 0.85871980E+02</pdfrwt>
<totfact> 0.13698154E+05</totfact>
</mgrwt>
</event>
<event>
 5    1  0.3845386E+001  0.8156825E+02  0.7546771E-02  0.1324659E+00
         -2   -1    0    0    0  501 -0.00000000000E+00  0.00000000000E+00  0.38699492434E+03  0.38699492434E+03  0.00000000000E+00 0. -1.
          2   -1    0    0  501    0  0.00000000000E+00 -0.00000000000E+00 -0.42981050432E+01  0.42981050432E+01  0.00000000000E+00 0.  1.
         23    2    1    2    0    0  0.00000000000E+00  0.00000000000E+00  0.38269681930E+03  0.39129302938E+03  0.81568249607E+02 0.  0.
          2    1    3    3  502    0 -0.24328007971E+02  0.29657491703E+02  0.25780651123E+03  0.26064461633E+03  0.00000000000E+00 0. -1.
         -2    1    3    3    0  502  0.24328007971E+02 -0.29657491703E+02  0.12489030806E+03  0.13064841306E+03  0.00000000000E+00 0.  1.
<mgrwt>
<rscale>  0 0.81568250E+02</rscale>
<asrwt>0</asrwt>
<pdfrwt beam="2">  1        2 0.66124723E-03 0.81568250E+02</pdfrwt>
<pdfrwt beam="1">  1       -2 0.59537653E-01 0.81568250E+02</pdfrwt>
<totfact> 0.58139576E+04</totfact>
</mgrwt>
</event>
<event>
 5    1  0.3845386E+001  0.9151517E+02  0.7546771E-02  0.1299223E+00
         -2   -1    0    0    0  501 -0.00000000000E+00  0.00000000000E+00  0.30235536482E+02  0.30235536482E+02  0.00000000000E+00 0. -1.
          2   -1    0    0  501    0  0.00000000000E+00 -0.00000000000E+00 -0.69248202919E+02  0.69248202919E+02  0.00000000000E+00 0.  1.
         23    2    1    2    0    0  0.00000000000E+00  0.00000000000E+00 -0.39012666437E+02  0.99483739400E+02  0.91515169576E+02 0.  0.
          2    1    3    3  502    0  0.32540080929E+01 -0.29278108372E+02 -0.57568826004E+02  0.64668121405E+02  0.00000000000E+00 0. -1.
         -2    1    3    3    0  502 -0.32540080929E+01  0.29278108372E+02  0.18556159567E+02  0.34815617995E+02  0.00000000000E+00 0.  1.
<mgrwt>
<rscale>  0 0.91515170E+02</rscale>
<asrwt>0</asrwt>
<pdfrwt beam="2">  1        2 0.10653570E-01 0.91515170E+02</pdfrwt>
<pdfrwt beam="1">  1       -2 0.46516210E-02 0.91515170E+02</pdfrwt>
<totfact> 0.10915049E+05</totfact>
</mgrwt>
</event>
<event>
 5    1  0.3845386E+001  0.8817584E+02  0.7546771E-02  0.1307330E+00
         -1   -1    0    0    0  501 -0.00000000000E+00  0.00000000000E+00  0.50479549463E+02  0.50479549463E+02  0.00000000000E+00 0.  1.
          1   -1    0    0  501    0  0.00000000000E+00 -0.00000000000E+00 -0.38505583147E+02  0.38505583147E+02  0.00000000000E+00 0. -1.
         23    2    1    2    0    0  0.00000000000E+00  0.00000000000E+00  0.11973966317E+02  0.88985132610E+02  0.88175835444E+02 0.  0.
          2    1    3    3  502    0 -0.18020596885E+01 -0.30664132349E+02 -0.25929353920E+02  0.40197858482E+02  0.00000000000E+00 0. -1.
         -2    1    3    3    0  502  0.18020596885E+01  0.30664132349E+02  0.37903320237E+02  0.48787274128E+02  0.00000000000E+00 0.  1.
<mgrwt>
<rscale>  0 0.88175835E+02</rscale>
<asrwt>0</asrwt>
<pdfrwt beam="2">  1        1 0.59239358E-02 0.88175835E+02</pdfrwt>
<pdfrwt beam="1">  1       -1 0.77660846E-02 0.88175835E+02</pdfrwt>
<totfact> 0.99059827E+04</totfact>
</mgrwt>
</event>
<event>
 5    1  0.3845386E+001  0.9167724E+02  0.7546771E-02  0.1298840E+00
         -4   -1    0    0    0  501 -0.00000000000E+00  0.00000000000E+00  0.15935991324E+02  0.15935991324E+02  0.00000000000E+00 0.  1.
          4   -1    0    0  501    0  0.00000000000E+00 -0.00000000000E+00 -0.13185115555E+03  0.13185115555E+03  0.00000000000E+00 0. -1.
         23    2    1    2    0    0  0.00000000000E+00  0.00000000000E+00 -0.11591516423E+03  0.14778714687E+03  0.91677235361E+02 0.  0.
          2    1    3    3  502    0 -0.42960809175E+02 -0.13083670895E+02 -0.43150922621E+02  0.62280138825E+02  0.00000000000E+00 0. -1.
         -2    1    3    3    0  502  0.42960809175E+02  0.13083670895E+02 -0.72764241605E+02  0.85507008048E+02  0.00000000000E+00 0.  1.
<mgrwt>
<rscale>  0 0.91677235E+02</rscale>
<asrwt>0</asrwt>
<pdfrwt beam="2">  1        4 0.20284793E-01 0.91677235E+02</pdfrwt>
<pdfrwt beam="1">  1       -4 0.24516910E-02 0.91677235E+02</pdfrwt>
<totfact> 0.23436084E+04</totfact>
</mgrwt>
</event>
<event>
 5    1  0.3845386E+001  0.8906251E+02  0.7546771E-02  0.1305138E+00
         -1   -1    0    0    0  501 -0.00000000000E+00  0.00000000000E+00  0.26542173157E+03  0.26542173157E+03  0.00000000000E+00 0.  1.
          1   -1    0    0  501    0  0.00000000000E+00 -0.00000000000E+00 -0.74712529033E+01  0.74712529033E+01  0.00000000000E+00 0. -1.
         23    2    1    2    0    0  0.00000000000E+00  0.00000000000E+00  0.25795047866E+03  0.27289298447E+03  0.89062514731E+02 0.  0.
          2    1    3    3  502    0 -0.16062840369E+02 -0.39209326941E+02  0.87002442487E+02  0.96771954401E+02  0.00000000000E+00 0. -1.
         -2    1    3    3    0  502  0.16062840369E+02  0.39209326941E+02  0.17094803618E+03  0.17612103007E+03  0.00000000000E+00 0.  1.
<mgrwt>
<rscale>  0 0.89062515E+02</rscale>
<asrwt>0</asrwt>
<pdfrwt beam="2">  1        1 0.11494237E-02 0.89062515E+02</pdfrwt>
<pdfrwt beam="1">  1       -1 0.40834105E-01 0.89062515E+02</pdfrwt>
<totfact> 0.67435305E+04</totfact>
</mgrwt>
</event>
<event>
 5    1  0.3845386E+001  0.9227846E+02  0.7546771E-02  0.1297426E+00
         -2   -1    0    0    0  501 -0.00000000000E+00  0.00000000000E+00  0.10937044394E+01  0.10937044394E+01  0.00000000000E+00 0. -1.
          2   -1    0    0  501    0  0.00000000000E+00 -0.00000000000E+00 -0.19464386776E+04  0.19464386776E+04  0.00000000000E+00 0.  1.
         23    2    1    2    0    0  0.00000000000E+00  0.00000000000E+00 -0.19453449732E+04  0.19475323821E+04  0.92278461686E+02 0.  0.
          2    1    3    3  502    0 -0.34134020268E+02  0.36481814759E+01 -0.32204137542E+03  0.32386584885E+03  0.00000000000E+00 0. -1.
         -2    1    3    3    0  502  0.34134020268E+02 -0.36481814759E+01 -0.16233035978E+04  0.16236665332E+04  0.00000000000E+00 0.  1.
<mgrwt>
<rscale>  0 0.92278462E+02</rscale>
<asrwt>0</asrwt>
<pdfrwt beam="2">  1        2 0.29945461E+00 0.92278462E+02</pdfrwt>
<pdfrwt beam="1">  1       -2 0.16826081E-03 0.92278462E+02</pdfrwt>
<totfact> 0.19537145E+05</totfact>
</mgrwt>
</event>
<event>
 5    1  0.3845386E+001  0.9089967E+02  0.7546771E-02  0.1300688E+00
          2   -1    0    0  501    0  0.00000000000E+00  0.00000000000E+00  0.11422103370E+04  0.11422103370E+04  0.00000000000E+00 0. -1.
         -2   -1    0    0    0  501 -0.00000000000E+00 -0.00000000000E+00 -0.18084999514E+01  0.18084999514E+01  0.00000000000E+00 0.  1.
         23    2    1    2    0    0  0.00000000000E+00  0.00000000000E+00  0.11404018370E+04  0.11440188370E+04  0.90899666423E+02 0.  0.
          2    1    3    3  502    0 -0.57479208223E+01 -0.24377837104E+02  0.10475171075E+04  0.10478164954E+04  0.00000000000E+00 0. -1.
         -2    1    3    3    0  502  0.57479208223E+01  0.24377837104E+02  0.92884729511E+02  0.96202341510E+02  0.00000000000E+00 0.  1.
<mgrwt>
<rscale>  0 0.90899666E+02</rscale>
<asrwt>0</asrwt>
<pdfrwt beam="1">  1        2 0.17572409E+00 0.90899666E+02</pdfrwt>
<pdfrwt beam="2">  1       -2 0.27823167E-03 0.90899666E+02</pdfrwt>
<totfact> 0.25175704E+05</totfact>
</mgrwt>
</event>
<event>
 5    1  0.3845386E+001  0.8933869E+02  0.7546771E-02  0.1304461E+00
          4   -1    0    0  501    0  0.00000000000E+00  0.00000000000E+00  0.76850017799E+02  0.76850017799E+02  0.00000000000E+00 0. -1.
         -4   -1    0    0    0  501 -0.00000000000E+00 -0.00000000000E+00 -0.25964213578E+02  0.25964213578E+02  0.00000000000E+00 0.  1.
         23    2    1    2    0    0  0.00000000000E+00  0.00000000000E+00  0.50885804221E+02  0.10281423138E+03  0.89338687601E+02 0.  0.
          2    1    3    3  502    0  0.35852351413E+02 -0.10329426684E+02  0.53709054247E+02  0.65396870457E+02  0.00000000000E+00 0. -1.
         -2    1    3    3    0  502 -0.35852351413E+02  0.10329426684E+02 -0.28232500252E+01  0.37417360920E+02  0.00000000000E+00 0.  1.
<mgrwt>
<rscale>  0 0.89338688E+02</rscale>
<asrwt>0</asrwt>
<pdfrwt beam="1">  1        4 0.11823080E-01 0.89338688E+02</pdfrwt>
<pdfrwt beam="2">  1       -4 0.39944944E-02 0.89338688E+02</pdfrwt>
<totfact> 0.27771165E+04</totfact>
</mgrwt>
</event>
<event>
 5    1  0.3845386E+001  0.8871068E+02  0.7546771E-02  0.1306004E+00
          2   -1    0    0  501    0  0.00000000000E+00  0.00000000000E+00  0.50204372361E+02  0.50204372361E+02  0.00000000000E+00 0. -1.
         -2   -1    0    0    0  501 -0.00000000000E+00 -0.00000000000E+00 -0.39187744349E+02  0.39187744349E+02  0.00000000000E+00 0.  1.
         23    2    1    2    0    0  0.00000000000E+00  0.00000000000E+00  0.11016628013E+02  0.89392116710E+02  0.88710678259E+02 0.  0.
          2    1    3    3  502    0  0.18185357394E+02 -0.12223703427E+02  0.44369694514E+02  0.49485310348E+02  0.00000000000E+00 0. -1.
         -2    1    3    3    0  502 -0.18185357394E+02  0.12223703427E+02 -0.33353066501E+02  0.39906806362E+02  0.00000000000E+00 0.  1.
<mgrwt>
<rscale>  0 0.88710678E+02</rscale>
<asrwt>0</asrwt>
<pdfrwt beam="1">  1        2 0.77237497E-02 0.88710678E+02</pdfrwt>
<pdfrwt beam="2">  1       -2 0.60288837E-02 0.88710678E+02</pdfrwt>
<totfact> 0.10938388E+05</totfact>
</mgrwt>
</event>
<event>
 5    1  0.3845386E+001  0.9164533E+02  0.7546771E-02  0.1298915E+00
          1   -1    0    0  501    0  0.00000000000E+00  0.00000000000E+00  0.14148104205E+04  0.14148104205E+04  0.00000000000E+00 0. -1.
         -1   -1    0    0    0  501 -0.00000000000E+00 -0.00000000000E+00 -0.14840976577E+01  0.14840976577E+01  0.00000000000E+00 0.  1.
         23    2    1    2    0    0  0.00000000000E+00  0.00000000000E+00  0.14133263228E+04  0.14162945181E+04  0.91645334439E+02 0.  0.
          2    1    3    3  502    0  0.45463463651E+02 -0.57258517206E+01  0.70774781909E+03  0.70922964358E+03  0.00000000000E+00 0. -1.
         -2    1    3    3    0  502 -0.45463463651E+02  0.57258517206E+01  0.70557850373E+03  0.70706487456E+03  0.00000000000E+00 0.  1.
<mgrwt>
<rscale>  0 0.91645334E+02</rscale>
<asrwt>0</asrwt>
<pdfrwt beam="1">  1        1 0.21766206E+00 0.91645334E+02</pdfrwt>
<pdfrwt beam="2">  1       -1 0.22832385E-03 0.91645334E+02</pdfrwt>
<totfact> 0.11401417E+05</totfact>
</mgrwt>
</event>
<event>
 5    1  0.3845386E+001  0.8081909E+02  0.7546771E-02  0.1326743E+00
         -3   -1    0    0    0  501 -0.00000000000E+00  0.00000000000E+00  0.37696694276E+01  0.37696694276E+01  0.00000000000E+00 0.  1.
          3   -1    0    0  501    0  0.00000000000E+00 -0.00000000000E+00 -0.43317625372E+03  0.43317625372E+03  0.00000000000E+00 0. -1.
         23    2    1    2    0    0  0.00000000000E+00  0.00000000000E+00 -0.42940658429E+03  0.43694592314E+03  0.80819088844E+02 0.  0.
          2    1    3    3  502    0 -0.27634894777E+02  0.14916259867E+02 -0.35219662697E+03  0.35359390021E+03  0.00000000000E+00 0. -1.
         -2    1    3    3    0  502  0.27634894777E+02 -0.14916259867E+02 -0.77209957318E+02  0.83352022931E+02  0.00000000000E+00 0.  1.
<mgrwt>
<rscale>  0 0.80819089E+02</rscale>
<asrwt>0</asrwt>
<pdfrwt beam="2">  1        3 0.66642466E-01 0.80819089E+02</pdfrwt>
<pdfrwt beam="1">  1       -3 0.57994944E-03 0.80819089E+02</pdfrwt>
<totfact> 0.26909868E+04</totfact>
</mgrwt>
</event>
<event>
 5    1  0.3845386E+001  0.8797729E+02  0.7546771E-02  0.1307825E+00
          1   -1    0    0  501    0  0.00000000000E+00  0.00000000000E+00  0.20980330525E+02  0.20980330525E+02  0.00000000000E+00 0. -1.
         -1   -1    0    0    0  501 -0.00000000000E+00 -0.00000000000E+00 -0.92229293987E+02  0.92229293987E+02  0.00000000000E+00 0.  1.
         23    2    1    2    0    0  0.00000000000E+00  0.00000000000E+00 -0.71248963462E+02  0.11320962451E+03  0.87977294160E+02 0.  0.
          2    1    3    3  502    0 -0.40370760135E+02 -0.14698090857E+02 -0.47775691285E+02  0.64252228182E+02  0.00000000000E+00 0. -1.
         -2    1    3    3    0  502  0.40370760135E+02  0.14698090857E+02 -0.23473272177E+02  0.48957396329E+02  0.00000000000E+00 0.  1.
<mgrwt>
<rscale>  0 0.87977294E+02</rscale>
<asrwt>0</asrwt>
<pdfrwt beam="1">  1        1 0.32277431E-02 0.87977294E+02</pdfrwt>
<pdfrwt beam="2">  1       -1 0.14189122E-01 0.87977294E+02</pdfrwt>
<totfact> 0.90509529E+04</totfact>
</mgrwt>
</event>
<event>
 5    1  0.3845386E+001  0.9522802E+02  0.7546771E-02  0.1290663E+00
         -2   -1    0    0    0  501 -0.00000000000E+00  0.00000000000E+00  0.26220487120E+01  0.26220487120E+01  0.00000000000E+00 0.  1.
          2   -1    0    0  501    0  0.00000000000E+00 -0.00000000000E+00 -0.86462702846E+03  0.86462702846E+03  0.00000000000E+00 0. -1.
         23    2    1    2    0    0  0.00000000000E+00  0.00000000000E+00 -0.86200497975E+03  0.86724907718E+03  0.95228024999E+02 0.  0.
          2    1    3    3  502    0  0.34339902692E+02  0.22540034117E+02 -0.21171052543E+03  0.21565859276E+03  0.00000000000E+00 0.  1.
         -2    1    3    3    0  502 -0.34339902692E+02 -0.22540034117E+02 -0.65029445432E+03  0.65159048441E+03  0.00000000000E+00 0. -1.
<mgrwt>
<rscale>  0 0.95228025E+02</rscale>
<asrwt>0</asrwt>
<pdfrwt beam="2">  1        2 0.13301961E+00 0.95228025E+02</pdfrwt>
<pdfrwt beam="1">  1       -2 0.40339190E-03 0.95228025E+02</pdfrwt>
<totfact> 0.21995830E+05</totfact>
</mgrwt>
</event>
<event>
 5    1  0.3845386E+001  0.8812630E+02  0.7546771E-02  0.1307454E+00
         -1   -1    0    0    0  501 -0.00000000000E+00  0.00000000000E+00  0.12474972370E+01  0.12474972370E+01  0.00000000000E+00 0.  1.
          1   -1    0    0  501    0  0.00000000000E+00 -0.00000000000E+00 -0.15563650467E+04  0.15563650467E+04  0.00000000000E+00 0. -1.
         23    2    1    2    0    0  0.00000000000E+00  0.00000000000E+00 -0.15551175495E+04  0.15576125439E+04  0.88126297902E+02 0.  0.
          2    1    3    3  502    0  0.53154813064E+01  0.42437454310E+02 -0.96491908801E+03  0.96586647021E+03  0.00000000000E+00 0. -1.
         -2    1    3    3    0  502 -0.53154813064E+01 -0.42437454310E+02 -0.59019846146E+03  0.59174607373E+03  0.00000000000E+00 0.  1.
<mgrwt>
<rscale>  0 0.88126298E+02</rscale>
<asrwt>0</asrwt>
<pdfrwt beam="2">  1        1 0.23944042E+00 0.88126298E+02</pdfrwt>
<pdfrwt beam="1">  1       -1 0.19192294E-03 0.88126298E+02</pdfrwt>
<totfact> 0.11717338E+05</totfact>
</mgrwt>
</event>
<event>
 5    1  0.3845386E+001  0.9270027E+02  0.7546771E-02  0.1296441E+00
         -1   -1    0    0    0  501 -0.00000000000E+00  0.00000000000E+00  0.24282241189E+02  0.24282241189E+02  0.00000000000E+00 0.  1.
          1   -1    0    0  501    0  0.00000000000E+00 -0.00000000000E+00 -0.88473507010E+02  0.88473507010E+02  0.00000000000E+00 0. -1.
         23    2    1    2    0    0  0.00000000000E+00  0.00000000000E+00 -0.64191265821E+02  0.11275574820E+03  0.92700270465E+02 0.  0.
          2    1    3    3  502    0  0.43810228562E+02  0.21273973651E+01 -0.50319470325E+02  0.66752610735E+02  0.00000000000E+00 0. -1.
         -2    1    3    3    0  502 -0.43810228562E+02 -0.21273973651E+01 -0.13871795496E+02  0.46003137464E+02  0.00000000000E+00 0.  1.
<mgrwt>
<rscale>  0 0.92700270E+02</rscale>
<asrwt>0</asrwt>
<pdfrwt beam="2">  1        1 0.13611309E-01 0.92700270E+02</pdfrwt>
<pdfrwt beam="1">  1       -1 0.37357294E-02 0.92700270E+02</pdfrwt>
<totfact> 0.97829701E+04</totfact>
</mgrwt>
</event>
<event>
 5    1  0.3845386E+001  0.9222807E+02  0.7546771E-02  0.1297544E+00
          3   -1    0    0  501    0  0.00000000000E+00  0.00000000000E+00  0.89701677696E+03  0.89701677696E+03  0.00000000000E+00 0. -1.
         -3   -1    0    0    0  501 -0.00000000000E+00 -0.00000000000E+00 -0.23706403937E+01  0.23706403937E+01  0.00000000000E+00 0.  1.
         23    2    1    2    0    0  0.00000000000E+00  0.00000000000E+00  0.89464613657E+03  0.89938741736E+03  0.92228069596E+02 0.  0.
          2    1    3    3  502    0  0.15451052818E+02 -0.16165605465E+02  0.84060412560E+03  0.84090151493E+03  0.00000000000E+00 0. -1.
         -2    1    3    3    0  502 -0.15451052818E+02  0.16165605465E+02  0.54042010969E+02  0.58485902428E+02  0.00000000000E+00 0.  1.
<mgrwt>
<rscale>  0 0.92228070E+02</rscale>
<asrwt>0</asrwt>
<pdfrwt beam="1">  1        3 0.13800231E+00 0.92228070E+02</pdfrwt>
<pdfrwt beam="2">  1       -3 0.36471462E-03 0.92228070E+02</pdfrwt>
<totfact> 0.10800648E+04</totfact>
</mgrwt>
</event>
<event>
 5    1  0.3845386E+001  0.9059357E+02  0.7546771E-02  0.1301421E+00
         -1   -1    0    0    0  501 -0.00000000000E+00  0.00000000000E+00  0.17199964568E+04  0.17199964568E+04  0.00000000000E+00 0.  1.
          1   -1    0    0  501    0  0.00000000000E+00 -0.00000000000E+00 -0.11929086957E+01  0.11929086957E+01  0.00000000000E+00 0. -1.
         23    2    1    2    0    0  0.00000000000E+00  0.00000000000E+00  0.17188035481E+04  0.17211893655E+04  0.90593569967E+02 0.  0.
          2    1    3    3  502    0 -0.61839182750E+01  0.34967882201E+02  0.32512534998E+03  0.32705884307E+03  0.00000000000E+00 0. -1.
         -2    1    3    3    0  502  0.61839182750E+01 -0.34967882201E+02  0.13936781981E+04  0.13941305224E+04  0.00000000000E+00 0.  1.
<mgrwt>
<rscale>  0 0.90593570E+02</rscale>
<asrwt>0</asrwt>
<pdfrwt beam="2">  1        1 0.18352579E-03 0.90593570E+02</pdfrwt>
<pdfrwt beam="1">  1       -1 0.26461286E+00 0.90593570E+02</pdfrwt>
<totfact> 0.10500158E+04</totfact>
</mgrwt>
</event>
<event>
 5    1  0.3845386E+001  0.9197186E+02  0.7546771E-02  0.1298146E+00
          2   -1    0    0  501    0  0.00000000000E+00  0.00000000000E+00  0.67214340130E+03  0.67214340130E+03  0.00000000000E+00 0. -1.
         -2   -1    0    0    0  501 -0.00000000000E+00 -0.00000000000E+00 -0.31462123375E+01  0.31462123375E+01  0.00000000000E+00 0.  1.
         23    2    1    2    0    0  0.00000000000E+00  0.00000000000E+00  0.66899718896E+03  0.67528961364E+03  0.91971862257E+02 0.  0.
          2    1    3    3  502    0  0.11277175925E+02  0.17821793313E+02  0.63454073354E+03  0.63489111943E+03  0.00000000000E+00 0. -1.
         -2    1    3    3    0  502 -0.11277175925E+02 -0.17821793313E+02  0.34456455426E+02  0.40398494208E+02  0.00000000000E+00 0.  1.
<mgrwt>
<rscale>  0 0.91971862E+02</rscale>
<asrwt>0</asrwt>
<pdfrwt beam="1">  1        2 0.10340656E+00 0.91971862E+02</pdfrwt>
<pdfrwt beam="2">  1       -2 0.48403320E-03 0.91971862E+02</pdfrwt>
<totfact> 0.22951735E+05</totfact>
</mgrwt>
</event>
<event>
 5    1  0.3845386E+001  0.8974801E+02  0.7546771E-02  0.1303463E+00
         -1   -1    0    0    0  501 -0.00000000000E+00  0.00000000000E+00  0.43890993937E+03  0.43890993937E+03  0.00000000000E+00 0.  1.
          1   -1    0    0  501    0  0.00000000000E+00 -0.00000000000E+00 -0.45879030064E+01  0.45879030064E+01  0.00000000000E+00 0. -1.
         23    2    1    2    0    0  0.00000000000E+00  0.00000000000E+00  0.43432203636E+03  0.44349784237E+03  0.89748007897E+02 0.  0.
          2    1    3    3  502    0  0.10665008006E+02  0.37115902468E+02  0.10422178349E+03  0.11114635741E+03  0.00000000000E+00 0. -1.
         -2    1    3    3    0  502 -0.10665008006E+02 -0.37115902468E+02  0.33010025287E+03  0.33235148496E+03  0.00000000000E+00 0.  1.
<mgrwt>
<rscale>  0 0.89748008E+02</rscale>
<asrwt>0</asrwt>
<pdfrwt beam="2">  1        1 0.70583158E-03 0.89748008E+02</pdfrwt>
<pdfrwt beam="1">  1       -1 0.67524573E-01 0.89748008E+02</pdfrwt>
<totfact> 0.52891310E+04</totfact>
</mgrwt>
</event>
<event>
 5    1  0.3845386E+001  0.9380456E+02  0.7546771E-02  0.1293891E+00
         -2   -1    0    0    0  501 -0.00000000000E+00  0.00000000000E+00  0.48875830727E+02  0.48875830727E+02  0.00000000000E+00 0.  1.
          2   -1    0    0  501    0  0.00000000000E+00 -0.00000000000E+00 -0.45008414321E+02  0.45008414321E+02  0.00000000000E+00 0. -1.
         23    2    1    2    0    0  0.00000000000E+00  0.00000000000E+00  0.38674164061E+01  0.93884245047E+02  0.93804555105E+02 0.  0.
          2    1    3    3  502    0  0.22513224152E+02  0.40946420125E+02 -0.21155979956E+01  0.46775317612E+02  0.00000000000E+00 0. -1.
         -2    1    3    3    0  502 -0.22513224152E+02 -0.40946420125E+02  0.59830144017E+01  0.47108927436E+02  0.00000000000E+00 0.  1.
<mgrwt>
<rscale>  0 0.93804555E+02</rscale>
<asrwt>0</asrwt>
<pdfrwt beam="2">  1        2 0.69243714E-02 0.93804555E+02</pdfrwt>
<pdfrwt beam="1">  1       -2 0.75193586E-02 0.93804555E+02</pdfrwt>
<totfact> 0.90611722E+04</totfact>
</mgrwt>
</event>
<event>
 5    1  0.3845386E+001  0.9052336E+02  0.7546771E-02  0.1301589E+00
         -4   -1    0    0    0  501 -0.00000000000E+00  0.00000000000E+00  0.52768078507E+03  0.52768078507E+03  0.00000000000E+00 0.  1.
          4   -1    0    0  501    0  0.00000000000E+00 -0.00000000000E+00 -0.38823083756E+01  0.38823083756E+01  0.00000000000E+00 0. -1.
         23    2    1    2    0    0  0.00000000000E+00  0.00000000000E+00  0.52379847669E+03  0.53156309344E+03  0.90523356798E+02 0.  0.
          2    1    3    3  502    0 -0.43083676886E+02 -0.13018519307E+02  0.29002074259E+03  0.29349227620E+03  0.00000000000E+00 0. -1.
         -2    1    3    3    0  502  0.43083676886E+02  0.13018519307E+02  0.23377773410E+03  0.23807081724E+03  0.00000000000E+00 0.  1.
<mgrwt>
<rscale>  0 0.90523357E+02</rscale>
<asrwt>0</asrwt>
<pdfrwt beam="2">  1        4 0.59727863E-03 0.90523357E+02</pdfrwt>
<pdfrwt beam="1">  1       -4 0.81181602E-01 0.90523357E+02</pdfrwt>
<totfact> 0.12745268E+04</totfact>
</mgrwt>
</event>
<event>
 5    1  0.3845386E+001  0.9075600E+02  0.7546771E-02  0.1301031E+00
          1   -1    0    0  501    0  0.00000000000E+00  0.00000000000E+00  0.14102834032E+02  0.14102834032E+02  0.00000000000E+00 0. -1.
         -1   -1    0    0    0  501 -0.00000000000E+00 -0.00000000000E+00 -0.14601057757E+03  0.14601057757E+03  0.00000000000E+00 0.  1.
         23    2    1    2    0    0  0.00000000000E+00  0.00000000000E+00 -0.13190774354E+03  0.16011341160E+03  0.90756001287E+02 0.  0.
          2    1    3    3  502    0 -0.29546480134E+02  0.33751310981E+02 -0.53856752960E+02  0.70090622201E+02  0.00000000000E+00 0. -1.
         -2    1    3    3    0  502  0.29546480134E+02 -0.33751310981E+02 -0.78050990576E+02  0.90022789399E+02  0.00000000000E+00 0.  1.
<mgrwt>
<rscale>  0 0.90756001E+02</rscale>
<asrwt>0</asrwt>
<pdfrwt beam="1">  1        1 0.21696667E-02 0.90756001E+02</pdfrwt>
<pdfrwt beam="2">  1       -1 0.22463167E-01 0.90756001E+02</pdfrwt>
<totfact> 0.76166315E+04</totfact>
</mgrwt>
</event>
<event>
 5    1  0.3845386E+001  0.8847879E+02  0.7546771E-02  0.1306578E+00
         -4   -1    0    0    0  501 -0.00000000000E+00  0.00000000000E+00  0.38709183619E+02  0.38709183619E+02  0.00000000000E+00 0.  1.
          4   -1    0    0  501    0  0.00000000000E+00 -0.00000000000E+00 -0.50559684052E+02  0.50559684052E+02  0.00000000000E+00 0. -1.
         23    2    1    2    0    0  0.00000000000E+00  0.00000000000E+00 -0.11850500433E+02  0.89268867670E+02  0.88478790535E+02 0.  0.
          2    1    3    3  502    0 -0.12431426832E+02 -0.32463374411E+02 -0.33532207793E+02  0.48299275467E+02  0.00000000000E+00 0. -1.
         -2    1    3    3    0  502  0.12431426832E+02  0.32463374411E+02  0.21681707360E+02  0.40969592203E+02  0.00000000000E+00 0.  1.
<mgrwt>
<rscale>  0 0.88478791E+02</rscale>
<asrwt>0</asrwt>
<pdfrwt beam="2">  1        4 0.77784129E-02 0.88478791E+02</pdfrwt>
<pdfrwt beam="1">  1       -4 0.59552590E-02 0.88478791E+02</pdfrwt>
<totfact> 0.29437357E+04</totfact>
</mgrwt>
</event>
<event>
 5    1  0.3845386E+001  0.8415832E+02  0.7546771E-02  0.1317648E+00
          2   -1    0    0  501    0  0.00000000000E+00  0.00000000000E+00  0.18613123782E+04  0.18613123782E+04  0.00000000000E+00 0. -1.
         -2   -1    0    0    0  501 -0.00000000000E+00 -0.00000000000E+00 -0.95129432178E+00  0.95129432178E+00  0.00000000000E+00 0.  1.
         23    2    1    2    0    0  0.00000000000E+00  0.00000000000E+00  0.18603610838E+04  0.18622636725E+04  0.84158324518E+02 0.  0.
          2    1    3    3  502    0 -0.37064281152E+02  0.19873974989E+02  0.89951833311E+03  0.90050095360E+03  0.00000000000E+00 0. -1.
         -2    1    3    3    0  502  0.37064281152E+02 -0.19873974989E+02  0.96084275072E+03  0.96176271888E+03  0.00000000000E+00 0.  1.
<mgrwt>
<rscale>  0 0.84158325E+02</rscale>
<asrwt>0</asrwt>
<pdfrwt beam="1">  1        2 0.28635283E+00 0.84158325E+02</pdfrwt>
<pdfrwt beam="2">  1       -2 0.14635446E-03 0.84158325E+02</pdfrwt>
<totfact> 0.25824010E+05</totfact>
</mgrwt>
</event>
<event>
 5    1  0.3845386E+001  0.9211554E+02  0.7546771E-02  0.1297808E+00
          1   -1    0    0  501    0  0.00000000000E+00  0.00000000000E+00  0.65858458396E+03  0.65858458396E+03  0.00000000000E+00 0. -1.
         -1   -1    0    0    0  501 -0.00000000000E+00 -0.00000000000E+00 -0.32210264500E+01  0.32210264500E+01  0.00000000000E+00 0.  1.
         23    2    1    2    0    0  0.00000000000E+00  0.00000000000E+00  0.65536355751E+03  0.66180561041E+03  0.92115544064E+02 0.  0.
          2    1    3    3  502    0 -0.11007923437E+01 -0.45430653965E+02  0.27383992926E+03  0.27758505529E+03  0.00000000000E+00 0. -1.
         -2    1    3    3    0  502  0.11007923437E+01  0.45430653965E+02  0.38152362826E+03  0.38422055513E+03  0.00000000000E+00 0.  1.
<mgrwt>
<rscale>  0 0.92115544E+02</rscale>
<asrwt>0</asrwt>
<pdfrwt beam="1">  1        1 0.10132060E+00 0.92115544E+02</pdfrwt>
<pdfrwt beam="2">  1       -1 0.49554306E-03 0.92115544E+02</pdfrwt>
<totfact> 0.13832308E+05</totfact>
</mgrwt>
</event>
<event>
 5    1  0.3845386E+001  0.9098683E+02  0.7546771E-02  0.1300479E+00
         -4   -1    0    0    0  501 -0.00000000000E+00  0.00000000000E+00  0.11676251275E+02  0.11676251275E+02  0.00000000000E+00 0.  1.
          4   -1    0    0  501    0  0.00000000000E+00 -0.00000000000E+00 -0.17725301519E+03  0.17725301519E+03  0.00000000000E+00 0. -1.
         23    2    1    2    0    0  0.00000000000E+00  0.00000000000E+00 -0.16557676391E+03  0.18892926646E+03  0.90986828597E+02 0.  0.
          2    1    3    3  502    0 -0.35415171822E+02  0.15003871405E+02 -0.32338846331E+02  0.50250885906E+02  0.00000000000E+00 0. -1.
         -2    1    3    3    0  502  0.35415171822E+02 -0.15003871405E+02 -0.13323791758E+03  0.13867838056E+03  0.00000000000E+00 0.  1.
<mgrwt>
<rscale>  0 0.90986829E+02</rscale>
<asrwt>0</asrwt>
<pdfrwt beam="2">  1        4 0.27269695E-01 0.90986829E+02</pdfrwt>
<pdfrwt beam="1">  1       -4 0.17963464E-02 0.90986829E+02</pdfrwt>
<totfact> 0.21980367E+04</totfact>
</mgrwt>
</event>
<event>
 5    1  0.3845386E+001  0.8917601E+02  0.7546771E-02  0.1304859E+00
         -3   -1    0    0    0  501 -0.00000000000E+00  0.00000000000E+00  0.81442686167E+02  0.81442686167E+02  0.00000000000E+00 0.  1.
          3   -1    0    0  501    0  0.00000000000E+00 -0.00000000000E+00 -0.24410909823E+02  0.24410909823E+02  0.00000000000E+00 0. -1.
         23    2    1    2    0    0  0.00000000000E+00  0.00000000000E+00  0.57031776343E+02  0.10585359599E+03  0.89176007262E+02 0.  0.
          2    1    3    3  502    0  0.34954626920E+02  0.13411101787E+02  0.57260534579E+02  0.68413832041E+02  0.00000000000E+00 0. -1.
         -2    1    3    3    0  502 -0.34954626920E+02 -0.13411101787E+02 -0.22875823545E+00  0.37439763949E+02  0.00000000000E+00 0.  1.
<mgrwt>
<rscale>  0 0.89176007E+02</rscale>
<asrwt>0</asrwt>
<pdfrwt beam="2">  1        3 0.37555246E-02 0.89176007E+02</pdfrwt>
<pdfrwt beam="1">  1       -3 0.12529644E-01 0.89176007E+02</pdfrwt>
<totfact> 0.36368191E+04</totfact>
</mgrwt>
</event>
<event>
 5    1  0.3845386E+001  0.8985869E+02  0.7546771E-02  0.1303194E+00
         -1   -1    0    0    0  501 -0.00000000000E+00  0.00000000000E+00  0.15411919443E+02  0.15411919443E+02  0.00000000000E+00 0.  1.
          1   -1    0    0  501    0  0.00000000000E+00 -0.00000000000E+00 -0.13097952376E+03  0.13097952376E+03  0.00000000000E+00 0. -1.
         23    2    1    2    0    0  0.00000000000E+00  0.00000000000E+00 -0.11556760432E+03  0.14639144320E+03  0.89858686143E+02 0.  0.
          2    1    3    3  502    0  0.14175703005E+02  0.15423632996E+02 -0.12253646391E+03  0.12431421479E+03  0.00000000000E+00 0. -1.
         -2    1    3    3    0  502 -0.14175703005E+02 -0.15423632996E+02  0.69688595932E+01  0.22077228415E+02  0.00000000000E+00 0.  1.
<mgrwt>
<rscale>  0 0.89858686E+02</rscale>
<asrwt>0</asrwt>
<pdfrwt beam="2">  1        1 0.20150698E-01 0.89858686E+02</pdfrwt>
<pdfrwt beam="1">  1       -1 0.23710643E-02 0.89858686E+02</pdfrwt>
<totfact> 0.11380427E+05</totfact>
</mgrwt>
</event>
<event>
 5    1  0.3845386E+001  0.9050725E+02  0.7546771E-02  0.1301628E+00
         -1   -1    0    0    0  501 -0.00000000000E+00  0.00000000000E+00  0.92581055254E+02  0.92581055254E+02  0.00000000000E+00 0.  1.
          1   -1    0    0  501    0  0.00000000000E+00 -0.00000000000E+00 -0.22119972789E+02  0.22119972789E+02  0.00000000000E+00 0. -1.
         23    2    1    2    0    0  0.00000000000E+00  0.00000000000E+00  0.70461082464E+02  0.11470102804E+03  0.90507246628E+02 0.  0.
          2    1    3    3  502    0 -0.18047051583E+02  0.29899063481E+02 -0.12416747361E+01  0.34945555140E+02  0.00000000000E+00 0. -1.
         -2    1    3    3    0  502  0.18047051583E+02 -0.29899063481E+02  0.71702757200E+02  0.79755472903E+02  0.00000000000E+00 0.  1.
<mgrwt>
<rscale>  0 0.90507247E+02</rscale>
<asrwt>0</asrwt>
<pdfrwt beam="2">  1        1 0.34030728E-02 0.90507247E+02</pdfrwt>
<pdfrwt beam="1">  1       -1 0.14243239E-01 0.90507247E+02</pdfrwt>
<totfact> 0.84101846E+04</totfact>
</mgrwt>
</event>
<event>
 5    1  0.3845386E+001  0.9144900E+02  0.7546771E-02  0.1299380E+00
          2   -1    0    0  501    0  0.00000000000E+00  0.00000000000E+00  0.11578705124E+03  0.11578705124E+03  0.00000000000E+00 0. -1.
         -2   -1    0    0    0  501 -0.00000000000E+00 -0.00000000000E+00 -0.18056680197E+02  0.18056680197E+02  0.00000000000E+00 0.  1.
         23    2    1    2    0    0  0.00000000000E+00  0.00000000000E+00  0.97730371046E+02  0.13384373144E+03  0.91448996828E+02 0.  0.
          2    1    3    3  502    0 -0.43252326565E+02 -0.29564464063E+00  0.27162645399E+02  0.51075047373E+02  0.00000000000E+00 0.  1.
         -2    1    3    3    0  502  0.43252326565E+02  0.29564464063E+00  0.70567725647E+02  0.82768684066E+02  0.00000000000E+00 0. -1.
<mgrwt>
<rscale>  0 0.91448997E+02</rscale>
<asrwt>0</asrwt>
<pdfrwt beam="1">  1        2 0.17813392E-01 0.91448997E+02</pdfrwt>
<pdfrwt beam="2">  1       -2 0.27779509E-02 0.91448997E+02</pdfrwt>
<totfact> 0.12734922E+05</totfact>
</mgrwt>
</event>
<event>
 5    1  0.3845386E+001  0.9420132E+02  0.7546771E-02  0.1292985E+00
         -2   -1    0    0    0  501 -0.00000000000E+00  0.00000000000E+00  0.43929399028E+01  0.43929399028E+01  0.00000000000E+00 0.  1.
          2   -1    0    0  501    0  0.00000000000E+00 -0.00000000000E+00 -0.50500852898E+03  0.50500852898E+03  0.00000000000E+00 0. -1.
         23    2    1    2    0    0  0.00000000000E+00  0.00000000000E+00 -0.50061558908E+03  0.50940146888E+03  0.94201318849E+02 0.  0.
          2    1    3    3  502    0  0.27086394685E+02  0.22733490720E+01 -0.45831575405E+03  0.45912108567E+03  0.00000000000E+00 0. -1.
         -2    1    3    3    0  502 -0.27086394685E+02 -0.22733490720E+01 -0.42299835026E+02  0.50280383215E+02  0.00000000000E+00 0.  1.
<mgrwt>
<rscale>  0 0.94201319E+02</rscale>
<asrwt>0</asrwt>
<pdfrwt beam="2">  1        2 0.77693614E-01 0.94201319E+02</pdfrwt>
<pdfrwt beam="1">  1       -2 0.67583696E-03 0.94201319E+02</pdfrwt>
<totfact> 0.19827160E+05</totfact>
</mgrwt>
</event>
<event>
 5    1  0.3845386E+001  0.8998113E+02  0.7546771E-02  0.1302897E+00
          2   -1    0    0  501    0  0.00000000000E+00  0.00000000000E+00  0.14728174526E+04  0.14728174526E+04  0.00000000000E+00 0.  1.
         -2   -1    0    0    0  501 -0.00000000000E+00 -0.00000000000E+00 -0.13743391705E+01  0.13743391705E+01  0.00000000000E+00 0. -1.
         23    2    1    2    0    0  0.00000000000E+00  0.00000000000E+00  0.14714431135E+04  0.14741917918E+04  0.89981125048E+02 0.  0.
          2    1    3    3  502    0 -0.15961165854E+02  0.13596598952E+02  0.83564744492E+02  0.86155051161E+02  0.00000000000E+00 0. -1.
         -2    1    3    3    0  502  0.15961165854E+02 -0.13596598952E+02  0.13878783690E+04  0.13880367407E+04  0.00000000000E+00 0.  1.
<mgrwt>
<rscale>  0 0.89981125E+02</rscale>
<asrwt>0</asrwt>
<pdfrwt beam="1">  1        2 0.22658604E+00 0.89981125E+02</pdfrwt>
<pdfrwt beam="2">  1       -2 0.21143797E-03 0.89981125E+02</pdfrwt>
<totfact> 0.24595053E+05</totfact>
</mgrwt>
</event>
<event>
 5    1  0.3845386E+001  0.9107705E+02  0.7546771E-02  0.1300264E+00
         -2   -1    0    0    0  501 -0.00000000000E+00  0.00000000000E+00  0.42722928050E+03  0.42722928050E+03  0.00000000000E+00 0.  1.
          2   -1    0    0  501    0  0.00000000000E+00 -0.00000000000E+00 -0.48539684246E+01  0.48539684246E+01  0.00000000000E+00 0. -1.
         23    2    1    2    0    0  0.00000000000E+00  0.00000000000E+00  0.42237531207E+03  0.43208324892E+03  0.91077053918E+02 0.  0.
          2    1    3    3  502    0  0.35899713561E+02 -0.24584078703E+01  0.78782144366E+02  0.86610966245E+02  0.00000000000E+00 0. -1.
         -2    1    3    3    0  502 -0.35899713561E+02  0.24584078703E+01  0.34359316771E+03  0.34547228268E+03  0.00000000000E+00 0.  1.
<mgrwt>
<rscale>  0 0.91077054E+02</rscale>
<asrwt>0</asrwt>
<pdfrwt beam="2">  1        2 0.74676471E-03 0.91077054E+02</pdfrwt>
<pdfrwt beam="1">  1       -2 0.65727552E-01 0.91077054E+02</pdfrwt>
<totfact> 0.40909510E+04</totfact>
</mgrwt>
</event>
<event>
 5    1  0.3845386E+001  0.9035946E+02  0.7546771E-02  0.1301984E+00
          1   -1    0    0  501    0  0.00000000000E+00  0.00000000000E+00  0.16309696607E+03  0.16309696607E+03  0.00000000000E+00 0. -1.
         -1   -1    0    0    0  501 -0.00000000000E+00 -0.00000000000E+00 -0.12515302755E+02  0.12515302755E+02  0.00000000000E+00 0.  1.
         23    2    1    2    0    0  0.00000000000E+00  0.00000000000E+00  0.15058166332E+03  0.17561226883E+03  0.90359457919E+02 0.  0.
          2    1    3    3  502    0 -0.30041817060E+01  0.41612756949E+02  0.10898445670E+03  0.11669729410E+03  0.00000000000E+00 0. -1.
         -2    1    3    3    0  502  0.30041817060E+01 -0.41612756949E+02  0.41597206621E+02  0.58914974729E+02  0.00000000000E+00 0.  1.
<mgrwt>
<rscale>  0 0.90359458E+02</rscale>
<asrwt>0</asrwt>
<pdfrwt beam="1">  1        1 0.25091839E-01 0.90359458E+02</pdfrwt>
<pdfrwt beam="2">  1       -1 0.19254313E-02 0.90359458E+02</pdfrwt>
<totfact> 0.11667865E+05</totfact>
</mgrwt>
</event>
<event>
 5    1  0.3845386E+001  0.9049350E+02  0.7546771E-02  0.1301661E+00
          2   -1    0    0  501    0  0.00000000000E+00  0.00000000000E+00  0.11826291941E+04  0.11826291941E+04  0.00000000000E+00 0. -1.
         -2   -1    0    0    0  501 -0.00000000000E+00 -0.00000000000E+00 -0.17311158900E+01  0.17311158900E+01  0.00000000000E+00 0.  1.
         23    2    1    2    0    0  0.00000000000E+00  0.00000000000E+00  0.11808980782E+04  0.11843603100E+04  0.90493495673E+02 0.  0.
          2    1    3    3  502    0  0.37655362634E+02  0.24302344082E+02  0.67190721246E+03  0.67340020227E+03  0.00000000000E+00 0. -1.
         -2    1    3    3    0  502 -0.37655362634E+02 -0.24302344082E+02  0.50899086572E+03  0.51096010769E+03  0.00000000000E+00 0.  1.
<mgrwt>
<rscale>  0 0.90493496E+02</rscale>
<asrwt>0</asrwt>
<pdfrwt beam="1">  1        2 0.18194231E+00 0.90493496E+02</pdfrwt>
<pdfrwt beam="2">  1       -2 0.26632647E-03 0.90493496E+02</pdfrwt>
<totfact> 0.25403841E+05</totfact>
</mgrwt>
</event>
<event>
 5    1  0.3845386E+001  0.9205503E+02  0.7546771E-02  0.1297950E+00
         -3   -1    0    0    0  501 -0.00000000000E+00  0.00000000000E+00  0.87376139810E+02  0.87376139810E+02  0.00000000000E+00 0.  1.
          3   -1    0    0  501    0  0.00000000000E+00 -0.00000000000E+00 -0.24246118379E+02  0.24246118379E+02  0.00000000000E+00 0. -1.
         23    2    1    2    0    0  0.00000000000E+00  0.00000000000E+00  0.63130021431E+02  0.11162225819E+03  0.92055032004E+02 0.  0.
          2    1    3    3  502    0  0.34994852429E+02  0.19762018678E+02  0.43605244248E+01  0.40425131441E+02  0.00000000000E+00 0. -1.
         -2    1    3    3    0  502 -0.34994852429E+02 -0.19762018678E+02  0.58769497006E+02  0.71197126748E+02  0.00000000000E+00 0.  1.
<mgrwt>
<rscale>  0 0.92055032E+02</rscale>
<asrwt>0</asrwt>
<pdfrwt beam="2">  1        3 0.37301721E-02 0.92055032E+02</pdfrwt>
<pdfrwt beam="1">  1       -3 0.13442483E-01 0.92055032E+02</pdfrwt>
<totfact> 0.32959172E+04</totfact>
</mgrwt>
</event>
<event>
 5    1  0.3845386E+001  0.8995189E+02  0.7546771E-02  0.1302968E+00
         -3   -1    0    0    0  501 -0.00000000000E+00  0.00000000000E+00  0.10468859837E+03  0.10468859837E+03  0.00000000000E+00 0.  1.
          3   -1    0    0  501    0  0.00000000000E+00 -0.00000000000E+00 -0.19322407699E+02  0.19322407699E+02  0.00000000000E+00 0. -1.
         23    2    1    2    0    0  0.00000000000E+00  0.00000000000E+00  0.85366190675E+02  0.12401100607E+03  0.89951893349E+02 0.  0.
          2    1    3    3  502    0 -0.41887297527E+02  0.16173628780E+02  0.39113565597E+02  0.59548324710E+02  0.00000000000E+00 0. -1.
         -2    1    3    3    0  502  0.41887297527E+02 -0.16173628780E+02  0.46252625078E+02  0.64462681364E+02  0.00000000000E+00 0.  1.
<mgrwt>
<rscale>  0 0.89951893E+02</rscale>
<asrwt>0</asrwt>
<pdfrwt beam="2">  1        3 0.29726782E-02 0.89951893E+02</pdfrwt>
<pdfrwt beam="1">  1       -3 0.16105938E-01 0.89951893E+02</pdfrwt>
<totfact> 0.34206689E+04</totfact>
</mgrwt>
</event>
<event>
 5    1  0.3845386E+001  0.9287861E+02  0.7546771E-02  0.1296027E+00
         -2   -1    0    0    0  501 -0.00000000000E+00  0.00000000000E+00  0.13007577174E+01  0.13007577174E+01  0.00000000000E+00 0.  1.
          2   -1    0    0  501    0  0.00000000000E+00 -0.00000000000E+00 -0.16579636861E+04  0.16579636861E+04  0.00000000000E+00 0. -1.
         23    2    1    2    0    0  0.00000000000E+00  0.00000000000E+00 -0.16566629283E+04  0.16592644438E+04  0.92878610235E+02 0.  0.
          2    1    3    3  502    0  0.19020045879E+02 -0.42037408919E+02 -0.92236106672E+03  0.92351439799E+03  0.00000000000E+00 0. -1.
         -2    1    3    3    0  502 -0.19020045879E+02  0.42037408919E+02 -0.73430186163E+03  0.73575004580E+03  0.00000000000E+00 0.  1.
<mgrwt>
<rscale>  0 0.92878610E+02</rscale>
<asrwt>0</asrwt>
<pdfrwt beam="2">  1        2 0.25507217E+00 0.92878610E+02</pdfrwt>
<pdfrwt beam="1">  1       -2 0.20011591E-03 0.92878610E+02</pdfrwt>
<totfact> 0.21469804E+05</totfact>
</mgrwt>
</event>
<event>
 5    1  0.3845386E+001  0.9088750E+02  0.7546771E-02  0.1300717E+00
         -2   -1    0    0    0  501 -0.00000000000E+00  0.00000000000E+00  0.14528282159E+02  0.14528282159E+02  0.00000000000E+00 0.  1.
          2   -1    0    0  501    0  0.00000000000E+00 -0.00000000000E+00 -0.14214580039E+03  0.14214580039E+03  0.00000000000E+00 0. -1.
         23    2    1    2    0    0  0.00000000000E+00  0.00000000000E+00 -0.12761751823E+03  0.15667408255E+03  0.90887497397E+02 0.  0.
          2    1    3    3  502    0 -0.41592236322E+01  0.27860765584E+02 -0.12527978722E+03  0.12840773530E+03  0.00000000000E+00 0. -1.
         -2    1    3    3    0  502  0.41592236322E+01 -0.27860765584E+02 -0.23377310087E+01  0.28266347242E+02  0.00000000000E+00 0.  1.
<mgrwt>
<rscale>  0 0.90887497E+02</rscale>
<asrwt>0</asrwt>
<pdfrwt beam="2">  1        2 0.21868583E-01 0.90887497E+02</pdfrwt>
<pdfrwt beam="1">  1       -2 0.22351205E-02 0.90887497E+02</pdfrwt>
<totfact> 0.13848270E+05</totfact>
</mgrwt>
</event>
<event>
 5    1  0.3845386E+001  0.9106561E+02  0.7546771E-02  0.1300292E+00
         -2   -1    0    0    0  501 -0.00000000000E+00  0.00000000000E+00  0.85964960746E+00  0.85964960746E+00  0.00000000000E+00 0.  1.
          2   -1    0    0  501    0  0.00000000000E+00 -0.00000000000E+00 -0.24117223954E+04  0.24117223954E+04  0.00000000000E+00 0. -1.
         23    2    1    2    0    0  0.00000000000E+00  0.00000000000E+00 -0.24108627458E+04  0.24125820450E+04  0.91065607350E+02 0.  0.
          2    1    3    3  502    0  0.41988323147E+02  0.17608028332E+02 -0.11943718430E+04  0.11952393741E+04  0.00000000000E+00 0. -1.
         -2    1    3    3    0  502 -0.41988323147E+02 -0.17608028332E+02 -0.12164909028E+04  0.12173426710E+04  0.00000000000E+00 0.  1.
<mgrwt>
<rscale>  0 0.91065607E+02</rscale>
<asrwt>0</asrwt>
<pdfrwt beam="2">  1        2 0.37103047E+00 0.91065607E+02</pdfrwt>
<pdfrwt beam="1">  1       -2 0.13225512E-03 0.91065607E+02</pdfrwt>
<totfact> 0.15770420E+05</totfact>
</mgrwt>
</event>
<event>
 5    1  0.3845386E+001  0.9817174E+02  0.7546771E-02  0.1284188E+00
         -1   -1    0    0    0  501 -0.00000000000E+00  0.00000000000E+00  0.71821675025E+01  0.71821675025E+01  0.00000000000E+00 0.  1.
          1   -1    0    0  501    0  0.00000000000E+00 -0.00000000000E+00 -0.33547291202E+03  0.33547291202E+03  0.00000000000E+00 0. -1.
         23    2    1    2    0    0  0.00000000000E+00  0.00000000000E+00 -0.32829074452E+03  0.34265507952E+03  0.98171740266E+02 0.  0.
          2    1    3    3  502    0 -0.80980761184E+01  0.45058949554E+02 -0.22594894935E+03  0.23054026868E+03  0.00000000000E+00 0. -1.
         -2    1    3    3    0  502  0.80980761184E+01 -0.45058949554E+02 -0.10234179517E+03  0.11211481085E+03  0.00000000000E+00 0.  1.
<mgrwt>
<rscale>  0 0.98171740E+02</rscale>
<asrwt>0</asrwt>
<pdfrwt beam="2">  1        1 0.51611215E-01 0.98171740E+02</pdfrwt>
<pdfrwt beam="1">  1       -1 0.11049489E-02 0.98171740E+02</pdfrwt>
<totfact> 0.10737979E+05</totfact>
</mgrwt>
</event>
<event>
 5    1  0.3845386E+001  0.9111146E+02  0.7546771E-02  0.1300182E+00
          2   -1    0    0  501    0  0.00000000000E+00  0.00000000000E+00  0.19043605848E+04  0.19043605848E+04  0.00000000000E+00 0. -1.
         -2   -1    0    0    0  501 -0.00000000000E+00 -0.00000000000E+00 -0.10897750478E+01  0.10897750478E+01  0.00000000000E+00 0.  1.
         23    2    1    2    0    0  0.00000000000E+00  0.00000000000E+00  0.19032708098E+04  0.19054503599E+04  0.91111462447E+02 0.  0.
          2    1    3    3  502    0 -0.36945098514E+01 -0.41387589784E+02  0.56108494190E+03  0.56262144824E+03  0.00000000000E+00 0.  1.
         -2    1    3    3    0  502  0.36945098514E+01  0.41387589784E+02  0.13421858679E+04  0.13428289117E+04  0.00000000000E+00 0. -1.
<mgrwt>
<rscale>  0 0.91111462E+02</rscale>
<asrwt>0</asrwt>
<pdfrwt beam="1">  1        2 0.29297589E+00 0.91111462E+02</pdfrwt>
<pdfrwt beam="2">  1       -2 0.16765922E-03 0.91111462E+02</pdfrwt>
<totfact> 0.20580367E+05</totfact>
</mgrwt>
</event>
<event>
 5    1  0.3845386E+001  0.9421096E+02  0.7546771E-02  0.1292963E+00
          2   -1    0    0  501    0  0.00000000000E+00  0.00000000000E+00  0.36988664853E+02  0.36988664853E+02  0.00000000000E+00 0. -1.
         -2   -1    0    0    0  501 -0.00000000000E+00 -0.00000000000E+00 -0.59989358942E+02  0.59989358942E+02  0.00000000000E+00 0.  1.
         23    2    1    2    0    0  0.00000000000E+00  0.00000000000E+00 -0.23000694089E+02  0.96978023795E+02  0.94210960989E+02 0.  0.
          2    1    3    3  502    0 -0.16631865952E+02  0.29745920525E+02  0.21973800458E+02  0.40549804679E+02  0.00000000000E+00 0. -1.
         -2    1    3    3    0  502  0.16631865952E+02 -0.29745920525E+02 -0.44974494547E+02  0.56428219116E+02  0.00000000000E+00 0.  1.
<mgrwt>
<rscale>  0 0.94210961E+02</rscale>
<asrwt>0</asrwt>
<pdfrwt beam="1">  1        2 0.56905639E-02 0.94210961E+02</pdfrwt>
<pdfrwt beam="2">  1       -2 0.92291321E-02 0.94210961E+02</pdfrwt>
<totfact> 0.84929309E+04</totfact>
</mgrwt>
</event>
<event>
 5    1  0.3845386E+001  0.7216697E+02  0.7546771E-02  0.1352875E+00
         -2   -1    0    0    0  501 -0.00000000000E+00  0.00000000000E+00  0.14110474671E+02  0.14110474671E+02  0.00000000000E+00 0.  1.
          2   -1    0    0  501    0  0.00000000000E+00 -0.00000000000E+00 -0.92273147029E+02  0.92273147029E+02  0.00000000000E+00 0. -1.
         23    2    1    2    0    0  0.00000000000E+00  0.00000000000E+00 -0.78162672358E+02  0.10638362170E+03  0.72166970394E+02 0.  0.
          2    1    3    3  502    0  0.28028538490E+02  0.78842801026E+00 -0.56020772532E+01  0.28593773066E+02  0.00000000000E+00 0.  1.
         -2    1    3    3    0  502 -0.28028538490E+02 -0.78842801026E+00 -0.72560595105E+02  0.77789848635E+02  0.00000000000E+00 0. -1.
<mgrwt>
<rscale>  0 0.72166970E+02</rscale>
<asrwt>0</asrwt>
<pdfrwt beam="2">  1        2 0.14195868E-01 0.72166970E+02</pdfrwt>
<pdfrwt beam="1">  1       -2 0.21708423E-02 0.72166970E+02</pdfrwt>
<totfact> 0.22582975E+05</totfact>
</mgrwt>
</event>
<event>
 5    1  0.3845386E+001  0.9151135E+02  0.7546771E-02  0.1299232E+00
          1   -1    0    0  501    0  0.00000000000E+00  0.00000000000E+00  0.26556116516E+02  0.26556116516E+02  0.00000000000E+00 0. -1.
         -1   -1    0    0    0  501 -0.00000000000E+00 -0.00000000000E+00 -0.78836148774E+02  0.78836148774E+02  0.00000000000E+00 0.  1.
         23    2    1    2    0    0  0.00000000000E+00  0.00000000000E+00 -0.52280032257E+02  0.10539226529E+03  0.91511353449E+02 0.  0.
          2    1    3    3  502    0 -0.36956453384E+02  0.26957168208E+02 -0.24924681047E+02  0.52093263382E+02  0.00000000000E+00 0. -1.
         -2    1    3    3    0  502  0.36956453384E+02 -0.26957168208E+02 -0.27355351210E+02  0.53299001908E+02  0.00000000000E+00 0.  1.
<mgrwt>
<rscale>  0 0.91511353E+02</rscale>
<asrwt>0</asrwt>
<pdfrwt beam="1">  1        1 0.40855565E-02 0.91511353E+02</pdfrwt>
<pdfrwt beam="2">  1       -1 0.12128638E-01 0.91511353E+02</pdfrwt>
<totfact> 0.84067755E+04</totfact>
</mgrwt>
</event>
<event>
 5    1  0.3845386E+001  0.9260773E+02  0.7546771E-02  0.1296657E+00
          4   -1    0    0  501    0  0.00000000000E+00  0.00000000000E+00  0.14307536694E+02  0.14307536694E+02  0.00000000000E+00 0. -1.
         -4   -1    0    0    0  501 -0.00000000000E+00 -0.00000000000E+00 -0.14985443723E+03  0.14985443723E+03  0.00000000000E+00 0.  1.
         23    2    1    2    0    0  0.00000000000E+00  0.00000000000E+00 -0.13554690054E+03  0.16416197393E+03  0.92607728824E+02 0.  0.
          2    1    3    3  502    0  0.17116100558E+02 -0.36967176096E+02 -0.28754203675E+02  0.49863185175E+02  0.00000000000E+00 0. -1.
         -2    1    3    3    0  502 -0.17116100558E+02  0.36967176096E+02 -0.10679269686E+03  0.11429878875E+03  0.00000000000E+00 0.  1.
<mgrwt>
<rscale>  0 0.92607729E+02</rscale>
<asrwt>0</asrwt>
<pdfrwt beam="1">  1        4 0.22011595E-02 0.92607729E+02</pdfrwt>
<pdfrwt beam="2">  1       -4 0.23054529E-01 0.92607729E+02</pdfrwt>
<totfact> 0.22037452E+04</totfact>
</mgrwt>
</event>
<event>
 5    1  0.3845386E+001  0.8912969E+02  0.7546771E-02  0.1304973E+00
         -1   -1    0    0    0  501 -0.00000000000E+00  0.00000000000E+00  0.89609735873E+01  0.89609735873E+01  0.00000000000E+00 0.  1.
          1   -1    0    0  501    0  0.00000000000E+00 -0.00000000000E+00 -0.22163053881E+03  0.22163053881E+03  0.00000000000E+00 0. -1.
         23    2    1    2    0    0  0.00000000000E+00  0.00000000000E+00 -0.21266956522E+03  0.23059151240E+03  0.89129689877E+02 0.  0.
          2    1    3    3  502    0  0.42457971169E+02  0.12803189988E+02 -0.11773714642E+03  0.12581190976E+03  0.00000000000E+00 0. -1.
         -2    1    3    3    0  502 -0.42457971169E+02 -0.12803189988E+02 -0.94932418801E+02  0.10477960264E+03  0.00000000000E+00 0.  1.
<mgrwt>
<rscale>  0 0.89129690E+02</rscale>
<asrwt>0</asrwt>
<pdfrwt beam="2">  1        1 0.34097003E-01 0.89129690E+02</pdfrwt>
<pdfrwt beam="1">  1       -1 0.13786115E-02 0.89129690E+02</pdfrwt>
<totfact> 0.12835393E+05</totfact>
</mgrwt>
</event>
<event>
 5    1  0.3845386E+001  0.9200598E+02  0.7546771E-02  0.1298065E+00
          2   -1    0    0  501    0  0.00000000000E+00  0.00000000000E+00  0.71440458174E+02  0.71440458174E+02  0.00000000000E+00 0. -1.
         -2   -1    0    0    0  501 -0.00000000000E+00 -0.00000000000E+00 -0.29622923438E+02  0.29622923438E+02  0.00000000000E+00 0.  1.
         23    2    1    2    0    0  0.00000000000E+00  0.00000000000E+00  0.41817534735E+02  0.10106338161E+03  0.92005982912E+02 0.  0.
          2    1    3    3  502    0 -0.40393122562E+02 -0.21990187811E+02  0.22062139749E+02  0.51008927851E+02  0.00000000000E+00 0. -1.
         -2    1    3    3    0  502  0.40393122562E+02  0.21990187811E+02  0.19755394986E+02  0.50054453761E+02  0.00000000000E+00 0.  1.
<mgrwt>
<rscale>  0 0.92005983E+02</rscale>
<asrwt>0</asrwt>
<pdfrwt beam="1">  1        2 0.10990840E-01 0.92005983E+02</pdfrwt>
<pdfrwt beam="2">  1       -2 0.45573729E-02 0.92005983E+02</pdfrwt>
<totfact> 0.10846296E+05</totfact>
</mgrwt>
</event>
<event>
 5    1  0.3845386E+001  0.9149921E+02  0.7546771E-02  0.1299261E+00
          1   -1    0    0  501    0  0.00000000000E+00  0.00000000000E+00  0.23742993371E+02  0.23742993371E+02  0.00000000000E+00 0. -1.
         -1   -1    0    0    0  501 -0.00000000000E+00 -0.00000000000E+00 -0.88153439163E+02  0.88153439163E+02  0.00000000000E+00 0.  1.
         23    2    1    2    0    0  0.00000000000E+00  0.00000000000E+00 -0.64410445793E+02  0.11189643253E+03  0.91499213585E+02 0.  0.
          2    1    3    3  502    0  0.23111258637E+01 -0.43009112869E+02 -0.13342803163E+02  0.45090525488E+02  0.00000000000E+00 0. -1.
         -2    1    3    3    0  502 -0.23111258637E+01  0.43009112869E+02 -0.51067642629E+02  0.66805907046E+02  0.00000000000E+00 0.  1.
<mgrwt>
<rscale>  0 0.91499214E+02</rscale>
<asrwt>0</asrwt>
<pdfrwt beam="1">  1        1 0.36527682E-02 0.91499214E+02</pdfrwt>
<pdfrwt beam="2">  1       -1 0.13562068E-01 0.91499214E+02</pdfrwt>
<totfact> 0.82494692E+04</totfact>
</mgrwt>
</event>
<event>
 5    1  0.3845386E+001  0.9132758E+02  0.7546771E-02  0.1299668E+00
          1   -1    0    0  501    0  0.00000000000E+00  0.00000000000E+00  0.26098840491E+02  0.26098840491E+02  0.00000000000E+00 0. -1.
         -1   -1    0    0    0  501 -0.00000000000E+00 -0.00000000000E+00 -0.79895562555E+02  0.79895562555E+02  0.00000000000E+00 0.  1.
         23    2    1    2    0    0  0.00000000000E+00  0.00000000000E+00 -0.53796722063E+02  0.10599440305E+03  0.91327576188E+02 0.  0.
          2    1    3    3  502    0  0.28747297455E+02  0.26905000325E+02 -0.56326615266E-01  0.39373713644E+02  0.00000000000E+00 0. -1.
         -2    1    3    3    0  502 -0.28747297455E+02 -0.26905000325E+02 -0.53740395448E+02  0.66620689402E+02  0.00000000000E+00 0.  1.
<mgrwt>
<rscale>  0 0.91327576E+02</rscale>
<asrwt>0</asrwt>
<pdfrwt beam="1">  1        1 0.40152063E-02 0.91327576E+02</pdfrwt>
<pdfrwt beam="2">  1       -1 0.12291625E-01 0.91327576E+02</pdfrwt>
<totfact> 0.84311669E+04</totfact>
</mgrwt>
</event>
<event>
 5    1  0.3845386E+001  0.8983215E+02  0.7546771E-02  0.1303259E+00
         -3   -1    0    0    0  501 -0.00000000000E+00  0.00000000000E+00  0.33029455598E+02  0.33029455598E+02  0.00000000000E+00 0.  1.
          3   -1    0    0  501    0  0.00000000000E+00 -0.00000000000E+00 -0.61080447164E+02  0.61080447164E+02  0.00000000000E+00 0. -1.
         23    2    1    2    0    0  0.00000000000E+00  0.00000000000E+00 -0.28050991565E+02  0.94109902762E+02  0.89832152763E+02 0.  0.
          2    1    3    3  502    0 -0.20119518926E+02  0.23908311592E+02  0.19776288596E+02  0.36979778199E+02  0.00000000000E+00 0.  1.
         -2    1    3    3    0  502  0.20119518926E+02 -0.23908311592E+02 -0.47827280162E+02  0.57130124563E+02  0.00000000000E+00 0. -1.
<mgrwt>
<rscale>  0 0.89832153E+02</rscale>
<asrwt>0</asrwt>
<pdfrwt beam="2">  1        3 0.93969919E-02 0.89832153E+02</pdfrwt>
<pdfrwt beam="1">  1       -3 0.50814547E-02 0.89832153E+02</pdfrwt>
<totfact> 0.36560582E+04</totfact>
</mgrwt>
</event>
<event>
 5    1  0.3845386E+001  0.8990067E+02  0.7546771E-02  0.1303092E+00
         -2   -1    0    0    0  501 -0.00000000000E+00  0.00000000000E+00  0.10429561001E+03  0.10429561001E+03  0.00000000000E+00 0.  1.
          2   -1    0    0  501    0  0.00000000000E+00 -0.00000000000E+00 -0.19373132763E+02  0.19373132763E+02  0.00000000000E+00 0. -1.
         23    2    1    2    0    0  0.00000000000E+00  0.00000000000E+00  0.84922477248E+02  0.12366874277E+03  0.89900671841E+02 0.  0.
          2    1    3    3  502    0 -0.13167432195E+02  0.42137125844E+02  0.54102395434E+02  0.69828273906E+02  0.00000000000E+00 0. -1.
         -2    1    3    3    0  502  0.13167432195E+02 -0.42137125844E+02  0.30820081814E+02  0.53840468869E+02  0.00000000000E+00 0.  1.
<mgrwt>
<rscale>  0 0.89900672E+02</rscale>
<asrwt>0</asrwt>
<pdfrwt beam="2">  1        2 0.29804820E-02 0.89900672E+02</pdfrwt>
<pdfrwt beam="1">  1       -2 0.16045478E-01 0.89900672E+02</pdfrwt>
<totfact> 0.81619625E+04</totfact>
</mgrwt>
</event>
<event>
 5    1  0.3845386E+001  0.8408356E+02  0.7546771E-02  0.1317847E+00
         -1   -1    0    0    0  501 -0.00000000000E+00  0.00000000000E+00  0.78619289050E+02  0.78619289050E+02  0.00000000000E+00 0.  1.
          1   -1    0    0  501    0  0.00000000000E+00 -0.00000000000E+00 -0.22481904335E+02  0.22481904335E+02  0.00000000000E+00 0. -1.
         23    2    1    2    0    0  0.00000000000E+00  0.00000000000E+00  0.56137384715E+02  0.10110119339E+03  0.84083561660E+02 0.  0.
          2    1    3    3  502    0  0.23041926812E+02 -0.34600149255E+02  0.20520346477E+02  0.46359306932E+02  0.00000000000E+00 0. -1.
         -2    1    3    3    0  502 -0.23041926812E+02  0.34600149255E+02  0.35617038237E+02  0.54741886453E+02  0.00000000000E+00 0.  1.
<mgrwt>
<rscale>  0 0.84083562E+02</rscale>
<asrwt>0</asrwt>
<pdfrwt beam="2">  1        1 0.34587546E-02 0.84083562E+02</pdfrwt>
<pdfrwt beam="1">  1       -1 0.12095275E-01 0.84083562E+02</pdfrwt>
<totfact> 0.10440964E+05</totfact>
</mgrwt>
</event>
<event>
 5    1  0.3845386E+001  0.9054931E+02  0.7546771E-02  0.1301527E+00
         -1   -1    0    0    0  501 -0.00000000000E+00  0.00000000000E+00  0.49464381517E+03  0.49464381517E+03  0.00000000000E+00 0.  1.
          1   -1    0    0  501    0  0.00000000000E+00 -0.00000000000E+00 -0.41439802385E+01  0.41439802385E+01  0.00000000000E+00 0. -1.
         23    2    1    2    0    0  0.00000000000E+00  0.00000000000E+00  0.49049983493E+03  0.49878779541E+03  0.90549305798E+02 0.  0.
          2    1    3    3  502    0 -0.35623542421E+02 -0.27845365571E+02  0.23245765437E+03  0.23681419348E+03  0.00000000000E+00 0. -1.
         -2    1    3    3    0  502  0.35623542421E+02  0.27845365571E+02  0.25804218056E+03  0.26197360193E+03  0.00000000000E+00 0.  1.
<mgrwt>
<rscale>  0 0.90549306E+02</rscale>
<asrwt>0</asrwt>
<pdfrwt beam="2">  1        1 0.63753581E-03 0.90549306E+02</pdfrwt>
<pdfrwt beam="1">  1       -1 0.76099002E-01 0.90549306E+02</pdfrwt>
<totfact> 0.48219796E+04</totfact>
</mgrwt>
</event>
<event>
 5    1  0.3845386E+001  0.9120384E+02  0.7546771E-02  0.1299962E+00
          4   -1    0    0  501    0  0.00000000000E+00  0.00000000000E+00  0.28585706159E+02  0.28585706159E+02  0.00000000000E+00 0. -1.
         -4   -1    0    0    0  501 -0.00000000000E+00 -0.00000000000E+00 -0.72747382133E+02  0.72747382133E+02  0.00000000000E+00 0.  1.
         23    2    1    2    0    0  0.00000000000E+00  0.00000000000E+00 -0.44161675973E+02  0.10133308829E+03  0.91203843987E+02 0.  0.
          2    1    3    3  502    0  0.12011740035E+02 -0.38137567295E+02  0.22810554625E+01  0.40049458822E+02  0.00000000000E+00 0. -1.
         -2    1    3    3    0  502 -0.12011740035E+02  0.38137567295E+02 -0.46442731436E+02  0.61283629471E+02  0.00000000000E+00 0.  1.
<mgrwt>
<rscale>  0 0.91203844E+02</rscale>
<asrwt>0</asrwt>
<pdfrwt beam="1">  1        4 0.43978010E-02 0.91203844E+02</pdfrwt>
<pdfrwt beam="2">  1       -4 0.11191905E-01 0.91203844E+02</pdfrwt>
<totfact> 0.26354796E+04</totfact>
</mgrwt>
</event>
<event>
 5    1  0.3845386E+001  0.6525989E+02  0.7546771E-02  0.1376997E+00
         -2   -1    0    0    0  501 -0.00000000000E+00  0.00000000000E+00  0.17869616507E+02  0.17869616507E+02  0.00000000000E+00 0.  1.
          2   -1    0    0  501    0  0.00000000000E+00 -0.00000000000E+00 -0.59582324666E+02  0.59582324666E+02  0.00000000000E+00 0. -1.
         23    2    1    2    0    0  0.00000000000E+00  0.00000000000E+00 -0.41712708159E+02  0.77451941174E+02  0.65259889439E+02 0.  0.
          2    1    3    3  502    0  0.30318970487E+02  0.20679781293E+01 -0.34958927881E+02  0.46321087460E+02  0.00000000000E+00 0. -1.
         -2    1    3    3    0  502 -0.30318970487E+02 -0.20679781293E+01 -0.67537802782E+01  0.31130853714E+02  0.00000000000E+00 0.  1.
<mgrwt>
<rscale>  0 0.65259889E+02</rscale>
<asrwt>0</asrwt>
<pdfrwt beam="2">  1        2 0.91665114E-02 0.65259889E+02</pdfrwt>
<pdfrwt beam="1">  1       -2 0.27491718E-02 0.65259889E+02</pdfrwt>
<totfact> 0.26476492E+05</totfact>
</mgrwt>
</event>
<event>
 5    1  0.3845386E+001  0.9198229E+02  0.7546771E-02  0.1298121E+00
         -1   -1    0    0    0  501 -0.00000000000E+00  0.00000000000E+00  0.50533844955E+01  0.50533844955E+01  0.00000000000E+00 0.  1.
          1   -1    0    0  501    0  0.00000000000E+00 -0.00000000000E+00 -0.41856804016E+03  0.41856804016E+03  0.00000000000E+00 0. -1.
         23    2    1    2    0    0  0.00000000000E+00  0.00000000000E+00 -0.41351465567E+03  0.42362142466E+03  0.91982286218E+02 0.  0.
          2    1    3    3  502    0 -0.33062352428E+02 -0.15953827088E+02 -0.33434968163E+03  0.33635896503E+03  0.00000000000E+00 0. -1.
         -2    1    3    3    0  502  0.33062352428E+02  0.15953827088E+02 -0.79164974034E+02  0.87262459629E+02  0.00000000000E+00 0.  1.
<mgrwt>
<rscale>  0 0.91982286E+02</rscale>
<asrwt>0</asrwt>
<pdfrwt beam="2">  1        1 0.64395083E-01 0.91982286E+02</pdfrwt>
<pdfrwt beam="1">  1       -1 0.77744377E-03 0.91982286E+02</pdfrwt>
<totfact> 0.13273755E+05</totfact>
</mgrwt>
</event>
<event>
 5    1  0.3845386E+001  0.9055664E+02  0.7546771E-02  0.1301509E+00
          1   -1    0    0  501    0  0.00000000000E+00  0.00000000000E+00  0.35029665168E+03  0.35029665168E+03  0.00000000000E+00 0. -1.
         -1   -1    0    0    0  501 -0.00000000000E+00 -0.00000000000E+00 -0.58525429654E+01  0.58525429654E+01  0.00000000000E+00 0.  1.
         23    2    1    2    0    0  0.00000000000E+00  0.00000000000E+00  0.34444410871E+03  0.35614919464E+03  0.90556638732E+02 0.  0.
          2    1    3    3  502    0  0.22089759784E+02  0.54521239672E+01  0.32618061638E+03  0.32697320631E+03  0.00000000000E+00 0. -1.
         -2    1    3    3    0  502 -0.22089759784E+02 -0.54521239672E+01  0.18263492334E+02  0.29175988335E+02  0.00000000000E+00 0.  1.
<mgrwt>
<rscale>  0 0.90556639E+02</rscale>
<asrwt>0</asrwt>
<pdfrwt beam="1">  1        1 0.53891776E-01 0.90556639E+02</pdfrwt>
<pdfrwt beam="2">  1       -1 0.90039150E-03 0.90556639E+02</pdfrwt>
<totfact> 0.13426576E+05</totfact>
</mgrwt>
</event>
<event>
 5    1  0.3845386E+001  0.9092892E+02  0.7546771E-02  0.1300618E+00
         -1   -1    0    0    0  501 -0.00000000000E+00  0.00000000000E+00  0.21947210613E+02  0.21947210613E+02  0.00000000000E+00 0.  1.
          1   -1    0    0  501    0  0.00000000000E+00 -0.00000000000E+00 -0.94181304014E+02  0.94181304014E+02  0.00000000000E+00 0. -1.
         23    2    1    2    0    0  0.00000000000E+00  0.00000000000E+00 -0.72234093401E+02  0.11612851463E+03  0.90928915423E+02 0.  0.
          2    1    3    3  502    0  0.21643858772E+02 -0.39826051490E+02 -0.40622622270E+02  0.60866809017E+02  0.00000000000E+00 0. -1.
         -2    1    3    3    0  502 -0.21643858772E+02  0.39826051490E+02 -0.31611471131E+02  0.55261705610E+02  0.00000000000E+00 0.  1.
<mgrwt>
<rscale>  0 0.90928915E+02</rscale>
<asrwt>0</asrwt>
<pdfrwt beam="2">  1        1 0.14489432E-01 0.90928915E+02</pdfrwt>
<pdfrwt beam="1">  1       -1 0.33764939E-02 0.90928915E+02</pdfrwt>
<totfact> 0.10419511E+05</totfact>
</mgrwt>
</event>
<event>
 5    1  0.3845386E+001  0.8596187E+02  0.7546771E-02  0.1312936E+00
         -2   -1    0    0    0  501 -0.00000000000E+00  0.00000000000E+00  0.22696425403E+01  0.22696425403E+01  0.00000000000E+00 0.  1.
          2   -1    0    0  501    0  0.00000000000E+00 -0.00000000000E+00 -0.81394345869E+03  0.81394345869E+03  0.00000000000E+00 0. -1.
         23    2    1    2    0    0  0.00000000000E+00  0.00000000000E+00 -0.81167381615E+03  0.81621310123E+03  0.85961868274E+02 0.  0.
          2    1    3    3  502    0  0.98696885722E+01  0.28927538878E+02 -0.69276176182E+03  0.69343570135E+03  0.00000000000E+00 0. -1.
         -2    1    3    3    0  502 -0.98696885722E+01 -0.28927538878E+02 -0.11891205433E+03  0.12277739989E+03  0.00000000000E+00 0.  1.
<mgrwt>
<rscale>  0 0.85961868E+02</rscale>
<asrwt>0</asrwt>
<pdfrwt beam="2">  1        2 0.12522207E+00 0.85961868E+02</pdfrwt>
<pdfrwt beam="1">  1       -2 0.34917576E-03 0.85961868E+02</pdfrwt>
<totfact> 0.28536912E+05</totfact>
</mgrwt>
</event>
<event>
 5    1  0.3845386E+001  0.8998720E+02  0.7546771E-02  0.1302883E+00
          2   -1    0    0  501    0  0.00000000000E+00  0.00000000000E+00  0.12727180706E+04  0.12727180706E+04  0.00000000000E+00 0.  1.
         -2   -1    0    0    0  501 -0.00000000000E+00 -0.00000000000E+00 -0.15906303891E+01  0.15906303891E+01  0.00000000000E+00 0. -1.
         23    2    1    2    0    0  0.00000000000E+00  0.00000000000E+00  0.12711274402E+04  0.12743087010E+04  0.89987199974E+02 0.  0.
          2    1    3    3  502    0  0.18397585548E+02 -0.15051972859E+02  0.94585548741E+02  0.97526709529E+02  0.00000000000E+00 0. -1.
         -2    1    3    3    0  502 -0.18397585548E+02  0.15051972859E+02  0.11765418915E+04  0.11767819914E+04  0.00000000000E+00 0.  1.
<mgrwt>
<rscale>  0 0.89987200E+02</rscale>
<asrwt>0</asrwt>
<pdfrwt beam="1">  1        2 0.19580197E+00 0.89987200E+02</pdfrwt>
<pdfrwt beam="2">  1       -2 0.24471339E-03 0.89987200E+02</pdfrwt>
<totfact> 0.25532115E+05</totfact>
</mgrwt>
</event>
<event>
 5    1  0.3845386E+001  0.9300529E+02  0.7546771E-02  0.1295733E+00
          1   -1    0    0  501    0  0.00000000000E+00  0.00000000000E+00  0.89984336565E+02  0.89984336565E+02  0.00000000000E+00 0. -1.
         -1   -1    0    0    0  501 -0.00000000000E+00 -0.00000000000E+00 -0.24031914115E+02  0.24031914115E+02  0.00000000000E+00 0.  1.
         23    2    1    2    0    0  0.00000000000E+00  0.00000000000E+00  0.65952422450E+02  0.11401625068E+03  0.93005286903E+02 0.  0.
          2    1    3    3  502    0 -0.46069210192E+02 -0.40301813817E+01  0.38967063781E+02  0.60473519407E+02  0.00000000000E+00 0. -1.
         -2    1    3    3    0  502  0.46069210192E+02  0.40301813817E+01  0.26985358668E+02  0.53542731273E+02  0.00000000000E+00 0.  1.
<mgrwt>
<rscale>  0 0.93005287E+02</rscale>
<asrwt>0</asrwt>
<pdfrwt beam="1">  1        1 0.13843744E-01 0.93005287E+02</pdfrwt>
<pdfrwt beam="2">  1       -1 0.36972176E-02 0.93005287E+02</pdfrwt>
<totfact> 0.97220350E+04</totfact>
</mgrwt>
</event>
<event>
 5    1  0.3845386E+001  0.9101267E+02  0.7546771E-02  0.1300418E+00
          1   -1    0    0  501    0  0.00000000000E+00  0.00000000000E+00  0.30559784784E+04  0.30559784784E+04  0.00000000000E+00 0.  1.
         -1   -1    0    0    0  501 -0.00000000000E+00 -0.00000000000E+00 -0.67763130411E+00  0.67763130411E+00  0.00000000000E+00 0. -1.
         23    2    1    2    0    0  0.00000000000E+00  0.00000000000E+00  0.30553008471E+04  0.30566561097E+04  0.91012673440E+02 0.  0.
          2    1    3    3  502    0  0.42924803009E+02  0.26029625236E+01  0.10277956063E+04  0.10286948636E+04  0.00000000000E+00 0. -1.
         -2    1    3    3    0  502 -0.42924803009E+02 -0.26029625236E+01  0.20275052409E+04  0.20279612462E+04  0.00000000000E+00 0.  1.
<mgrwt>
<rscale>  0 0.91012673E+02</rscale>
<asrwt>0</asrwt>
<pdfrwt beam="1">  1        1 0.47013950E+00 0.91012673E+02</pdfrwt>
<pdfrwt beam="2">  1       -1 0.10425342E-03 0.91012673E+02</pdfrwt>
<totfact> 0.29682758E+04</totfact>
</mgrwt>
</event>
<event>
 5    1  0.3845386E+001  0.9181738E+02  0.7546771E-02  0.1298509E+00
         -2   -1    0    0    0  501 -0.00000000000E+00  0.00000000000E+00  0.12430477399E+01  0.12430477399E+01  0.00000000000E+00 0.  1.
          2   -1    0    0  501    0  0.00000000000E+00 -0.00000000000E+00 -0.16955163957E+04  0.16955163957E+04  0.00000000000E+00 0. -1.
         23    2    1    2    0    0  0.00000000000E+00  0.00000000000E+00 -0.16942733480E+04  0.16967594435E+04  0.91817380136E+02 0.  0.
          2    1    3    3  502    0  0.14089548936E+02 -0.42853385308E+02 -0.10046808114E+04  0.10056930251E+04  0.00000000000E+00 0. -1.
         -2    1    3    3    0  502 -0.14089548936E+02  0.42853385308E+02 -0.68959253660E+03  0.69106641834E+03  0.00000000000E+00 0.  1.
<mgrwt>
<rscale>  0 0.91817380E+02</rscale>
<asrwt>0</asrwt>
<pdfrwt beam="2">  1        2 0.26085025E+00 0.91817380E+02</pdfrwt>
<pdfrwt beam="1">  1       -2 0.19123696E-03 0.91817380E+02</pdfrwt>
<totfact> 0.21855675E+05</totfact>
</mgrwt>
</event>
<event>
 5    1  0.3845386E+001  0.8187521E+02  0.7546771E-02  0.1323813E+00
          1   -1    0    0  501    0  0.00000000000E+00  0.00000000000E+00  0.17564102802E+03  0.17564102802E+03  0.00000000000E+00 0. -1.
         -1   -1    0    0    0  501 -0.00000000000E+00 -0.00000000000E+00 -0.95415493631E+01  0.95415493631E+01  0.00000000000E+00 0.  1.
         23    2    1    2    0    0  0.00000000000E+00  0.00000000000E+00  0.16609947865E+03  0.18518257738E+03  0.81875210876E+02 0.  0.
          2    1    3    3  502    0 -0.32066353262E+02 -0.21661815466E+02  0.11325954215E+03  0.11968796577E+03  0.00000000000E+00 0. -1.
         -2    1    3    3    0  502  0.32066353262E+02  0.21661815466E+02  0.52839936500E+02  0.65494611612E+02  0.00000000000E+00 0.  1.
<mgrwt>
<rscale>  0 0.81875211E+02</rscale>
<asrwt>0</asrwt>
<pdfrwt beam="1">  1        1 0.27021694E-01 0.81875211E+02</pdfrwt>
<pdfrwt beam="2">  1       -1 0.14679308E-02 0.81875211E+02</pdfrwt>
<totfact> 0.15393647E+05</totfact>
</mgrwt>
</event>
<event>
 5    1  0.3845386E+001  0.9287901E+02  0.7546771E-02  0.1296026E+00
          1   -1    0    0  501    0  0.00000000000E+00  0.00000000000E+00  0.82505548674E+03  0.82505548674E+03  0.00000000000E+00 0. -1.
         -1   -1    0    0    0  501 -0.00000000000E+00 -0.00000000000E+00 -0.26139184708E+01  0.26139184708E+01  0.00000000000E+00 0.  1.
         23    2    1    2    0    0  0.00000000000E+00  0.00000000000E+00  0.82244156827E+03  0.82766940521E+03  0.92879013263E+02 0.  0.
          2    1    3    3  502    0  0.45520498686E+02  0.90969080948E+01  0.39940457341E+03  0.40209312702E+03  0.00000000000E+00 0. -1.
         -2    1    3    3    0  502 -0.45520498686E+02 -0.90969080948E+01  0.42303699486E+03  0.42557627819E+03  0.00000000000E+00 0.  1.
<mgrwt>
<rscale>  0 0.92879013E+02</rscale>
<asrwt>0</asrwt>
<pdfrwt beam="1">  1        1 0.12693141E+00 0.92879013E+02</pdfrwt>
<pdfrwt beam="2">  1       -1 0.40214196E-03 0.92879013E+02</pdfrwt>
<totfact> 0.13414532E+05</totfact>
</mgrwt>
</event>
<event>
 5    1  0.3845386E+001  0.9398706E+02  0.7546771E-02  0.1293474E+00
          3   -1    0    0  501    0  0.00000000000E+00  0.00000000000E+00  0.19726546888E+03  0.19726546888E+03  0.00000000000E+00 0. -1.
         -3   -1    0    0    0  501 -0.00000000000E+00 -0.00000000000E+00 -0.11195025694E+02  0.11195025694E+02  0.00000000000E+00 0.  1.
         23    2    1    2    0    0  0.00000000000E+00  0.00000000000E+00  0.18607044319E+03  0.20846049457E+03  0.93987062783E+02 0.  0.
          2    1    3    3  502    0  0.40381145104E+02 -0.21632517998E+02  0.11627519627E+03  0.12497409324E+03  0.00000000000E+00 0. -1.
         -2    1    3    3    0  502 -0.40381145104E+02  0.21632517998E+02  0.69795246921E+02  0.83486401333E+02  0.00000000000E+00 0.  1.
<mgrwt>
<rscale>  0 0.93987063E+02</rscale>
<asrwt>0</asrwt>
<pdfrwt beam="1">  1        3 0.30348531E-01 0.93987063E+02</pdfrwt>
<pdfrwt beam="2">  1       -3 0.17223118E-02 0.93987063E+02</pdfrwt>
<totfact> 0.25854429E+04</totfact>
</mgrwt>
</event>
<event>
 5    1  0.3845386E+001  0.7726520E+02  0.7546771E-02  0.1336997E+00
          1   -1    0    0  501    0  0.00000000000E+00  0.00000000000E+00  0.12789895886E+04  0.12789895886E+04  0.00000000000E+00 0. -1.
         -1   -1    0    0    0  501 -0.00000000000E+00 -0.00000000000E+00 -0.11669194157E+01  0.11669194157E+01  0.00000000000E+00 0.  1.
         23    2    1    2    0    0  0.00000000000E+00  0.00000000000E+00  0.12778226692E+04  0.12801565080E+04  0.77265200018E+02 0.  0.
          2    1    3    3  502    0  0.14709047198E+02  0.35199731816E+02  0.73982955124E+03  0.74081248779E+03  0.00000000000E+00 0. -1.
         -2    1    3    3    0  502 -0.14709047198E+02 -0.35199731816E+02  0.53799311797E+03  0.53934402025E+03  0.00000000000E+00 0.  1.
<mgrwt>
<rscale>  0 0.77265200E+02</rscale>
<asrwt>0</asrwt>
<pdfrwt beam="1">  1        1 0.19676651E+00 0.77265200E+02</pdfrwt>
<pdfrwt beam="2">  1       -1 0.17952709E-03 0.77265200E+02</pdfrwt>
<totfact> 0.19024982E+05</totfact>
</mgrwt>
</event>
<event>
 5    1  0.3845386E+001  0.9227468E+02  0.7546771E-02  0.1297435E+00
          1   -1    0    0  501    0  0.00000000000E+00  0.00000000000E+00  0.24363274618E+01  0.24363274618E+01  0.00000000000E+00 0. -1.
         -1   -1    0    0    0  501 -0.00000000000E+00 -0.00000000000E+00 -0.87371425619E+03  0.87371425619E+03  0.00000000000E+00 0.  1.
         23    2    1    2    0    0  0.00000000000E+00  0.00000000000E+00 -0.87127792873E+03  0.87615058365E+03  0.92274677698E+02 0.  0.
          2    1    3    3  502    0 -0.85408708947E+01  0.28447292858E+02 -0.10041486540E+03  0.10471552005E+03  0.00000000000E+00 0. -1.
         -2    1    3    3    0  502  0.85408708947E+01 -0.28447292858E+02 -0.77086306333E+03  0.77143506360E+03  0.00000000000E+00 0.  1.
<mgrwt>
<rscale>  0 0.92274678E+02</rscale>
<asrwt>0</asrwt>
<pdfrwt beam="1">  1        1 0.37481993E-03 0.92274678E+02</pdfrwt>
<pdfrwt beam="2">  1       -1 0.13441746E+00 0.92274678E+02</pdfrwt>
<totfact> 0.28947735E+04</totfact>
</mgrwt>
</event>
<event>
 5    1  0.3845386E+001  0.9558813E+02  0.7546771E-02  0.1289857E+00
         -4   -1    0    0    0  501 -0.00000000000E+00  0.00000000000E+00  0.42298515789E+01  0.42298515789E+01  0.00000000000E+00 0.  1.
          4   -1    0    0  501    0  0.00000000000E+00 -0.00000000000E+00 -0.54003616605E+03  0.54003616605E+03  0.00000000000E+00 0. -1.
         23    2    1    2    0    0  0.00000000000E+00  0.00000000000E+00 -0.53580631447E+03  0.54426601763E+03  0.95588133774E+02 0.  0.
          2    1    3    3  502    0  0.31150900500E+02 -0.28006209899E+02 -0.39892969355E+03  0.40112295720E+03  0.00000000000E+00 0. -1.
         -2    1    3    3    0  502 -0.31150900500E+02  0.28006209899E+02 -0.13687662091E+03  0.14314306043E+03  0.00000000000E+00 0.  1.
<mgrwt>
<rscale>  0 0.95588134E+02</rscale>
<asrwt>0</asrwt>
<pdfrwt beam="2">  1        4 0.83082383E-01 0.95588134E+02</pdfrwt>
<pdfrwt beam="1">  1       -4 0.65074722E-03 0.95588134E+02</pdfrwt>
<totfact> 0.10846214E+04</totfact>
</mgrwt>
</event>
<event>
 5    1  0.3845386E+001  0.9035789E+02  0.7546771E-02  0.1301987E+00
         -1   -1    0    0    0  501 -0.00000000000E+00  0.00000000000E+00  0.32570706778E+02  0.32570706778E+02  0.00000000000E+00 0.  1.
          1   -1    0    0  501    0  0.00000000000E+00 -0.00000000000E+00 -0.62667877320E+02  0.62667877320E+02  0.00000000000E+00 0. -1.
         23    2    1    2    0    0  0.00000000000E+00  0.00000000000E+00 -0.30097170543E+02  0.95238584098E+02  0.90357889674E+02 0.  0.
          2    1    3    3  502    0 -0.44858487781E+02  0.52296699082E+01 -0.16341068839E+02  0.48027740985E+02  0.00000000000E+00 0.  1.
         -2    1    3    3    0  502  0.44858487781E+02 -0.52296699082E+01 -0.13756101703E+02  0.47210843113E+02  0.00000000000E+00 0. -1.
<mgrwt>
<rscale>  0 0.90357890E+02</rscale>
<asrwt>0</asrwt>
<pdfrwt beam="2">  1        1 0.96412118E-02 0.90357890E+02</pdfrwt>
<pdfrwt beam="1">  1       -1 0.50108780E-02 0.90357890E+02</pdfrwt>
<totfact> 0.99460305E+04</totfact>
</mgrwt>
</event>
<event>
 5    1  0.3845386E+001  0.9520260E+02  0.7546771E-02  0.1290720E+00
         -2   -1    0    0    0  501 -0.00000000000E+00  0.00000000000E+00  0.19898645665E+02  0.19898645665E+02  0.00000000000E+00 0.  1.
          2   -1    0    0  501    0  0.00000000000E+00 -0.00000000000E+00 -0.11387125165E+03  0.11387125165E+03  0.00000000000E+00 0. -1.
         23    2    1    2    0    0  0.00000000000E+00  0.00000000000E+00 -0.93972605982E+02  0.13376989731E+03  0.95202598451E+02 0.  0.
          2    1    3    3  502    0 -0.21007662317E+02 -0.74635258703E+01 -0.10608202277E+03  0.10839936185E+03  0.00000000000E+00 0. -1.
         -2    1    3    3    0  502  0.21007662317E+02  0.74635258703E+01  0.12109416791E+02  0.25370535459E+02  0.00000000000E+00 0.  1.
<mgrwt>
<rscale>  0 0.95202598E+02</rscale>
<asrwt>0</asrwt>
<pdfrwt beam="2">  1        2 0.17518655E-01 0.95202598E+02</pdfrwt>
<pdfrwt beam="1">  1       -2 0.30613300E-02 0.95202598E+02</pdfrwt>
<totfact> 0.11341020E+05</totfact>
</mgrwt>
</event>
<event>
 5    1  0.3845386E+001  0.9673279E+02  0.7546771E-02  0.1287320E+00
         -1   -1    0    0    0  501 -0.00000000000E+00  0.00000000000E+00  0.82780339671E+01  0.82780339671E+01  0.00000000000E+00 0.  1.
          1   -1    0    0  501    0  0.00000000000E+00 -0.00000000000E+00 -0.28259225448E+03  0.28259225448E+03  0.00000000000E+00 0. -1.
         23    2    1    2    0    0  0.00000000000E+00  0.00000000000E+00 -0.27431422051E+03  0.29087028845E+03  0.96732792401E+02 0.  0.
          2    1    3    3  502    0 -0.26534546638E+02  0.12010114054E+02 -0.25326507782E+03  0.25493435360E+03  0.00000000000E+00 0. -1.
         -2    1    3    3    0  502  0.26534546638E+02 -0.12010114054E+02 -0.21049142694E+02  0.35935934843E+02  0.00000000000E+00 0.  1.
<mgrwt>
<rscale>  0 0.96732792E+02</rscale>
<asrwt>0</asrwt>
<pdfrwt beam="2">  1        1 0.43475725E-01 0.96732792E+02</pdfrwt>
<pdfrwt beam="1">  1       -1 0.12735439E-02 0.96732792E+02</pdfrwt>
<totfact> 0.10811411E+05</totfact>
</mgrwt>
</event>
<event>
 5    1  0.3845386E+001  0.9057196E+02  0.7546771E-02  0.1301472E+00
         -1   -1    0    0    0  501 -0.00000000000E+00  0.00000000000E+00  0.32218111014E+02  0.32218111014E+02  0.00000000000E+00 0.  1.
          1   -1    0    0  501    0  0.00000000000E+00 -0.00000000000E+00 -0.63654264181E+02  0.63654264181E+02  0.00000000000E+00 0. -1.
         23    2    1    2    0    0  0.00000000000E+00  0.00000000000E+00 -0.31436153167E+02  0.95872375195E+02  0.90571963651E+02 0.  0.
          2    1    3    3  502    0 -0.34007896056E+02 -0.23475148080E+02  0.38917480041E+01  0.41506207657E+02  0.00000000000E+00 0.  1.
         -2    1    3    3    0  502  0.34007896056E+02  0.23475148080E+02 -0.35327901171E+02  0.54366167537E+02  0.00000000000E+00 0. -1.
<mgrwt>
<rscale>  0 0.90571964E+02</rscale>
<asrwt>0</asrwt>
<pdfrwt beam="2">  1        1 0.97929637E-02 0.90571964E+02</pdfrwt>
<pdfrwt beam="1">  1       -1 0.49566325E-02 0.90571964E+02</pdfrwt>
<totfact> 0.99046134E+04</totfact>
</mgrwt>
</event>
<event>
 5    1  0.3845386E+001  0.9222770E+02  0.7546771E-02  0.1297545E+00
         -1   -1    0    0    0  501 -0.00000000000E+00  0.00000000000E+00  0.58681197896E+02  0.58681197896E+02  0.00000000000E+00 0.  1.
          1   -1    0    0  501    0  0.00000000000E+00 -0.00000000000E+00 -0.36237967257E+02  0.36237967257E+02  0.00000000000E+00 0. -1.
         23    2    1    2    0    0  0.00000000000E+00  0.00000000000E+00  0.22443230639E+02  0.94919165153E+02  0.92227703603E+02 0.  0.
          2    1    3    3  502    0 -0.27989323162E+02 -0.16338446647E+02 -0.22540290800E+02  0.39476724272E+02  0.00000000000E+00 0. -1.
         -2    1    3    3    0  502  0.27989323162E+02  0.16338446647E+02  0.44983521439E+02  0.55442440882E+02  0.00000000000E+00 0.  1.
<mgrwt>
<rscale>  0 0.92227704E+02</rscale>
<asrwt>0</asrwt>
<pdfrwt beam="2">  1        1 0.55750719E-02 0.92227704E+02</pdfrwt>
<pdfrwt beam="1">  1       -1 0.90278766E-02 0.92227704E+02</pdfrwt>
<totfact> 0.86438523E+04</totfact>
</mgrwt>
</event>
<event>
 5    1  0.3845386E+001  0.9279732E+02  0.7546771E-02  0.1296216E+00
         -2   -1    0    0    0  501 -0.00000000000E+00  0.00000000000E+00  0.42547114264E+01  0.42547114264E+01  0.00000000000E+00 0.  1.
          2   -1    0    0  501    0  0.00000000000E+00 -0.00000000000E+00 -0.50598865202E+03  0.50598865202E+03  0.00000000000E+00 0. -1.
         23    2    1    2    0    0  0.00000000000E+00  0.00000000000E+00 -0.50173394059E+03  0.51024336344E+03  0.92797321069E+02 0.  0.
          2    1    3    3  502    0  0.20120850053E+02  0.33845071688E+02 -0.11590239013E+03  0.12240793080E+03  0.00000000000E+00 0.  1.
         -2    1    3    3    0  502 -0.20120850053E+02 -0.33845071688E+02 -0.38583155046E+03  0.38783543264E+03  0.00000000000E+00 0. -1.
<mgrwt>
<rscale>  0 0.92797321E+02</rscale>
<asrwt>0</asrwt>
<pdfrwt beam="2">  1        2 0.77844426E-01 0.92797321E+02</pdfrwt>
<pdfrwt beam="1">  1       -2 0.65457084E-03 0.92797321E+02</pdfrwt>
<totfact> 0.20646323E+05</totfact>
</mgrwt>
</event>
<event>
 5    1  0.3845386E+001  0.9038904E+02  0.7546771E-02  0.1301912E+00
          2   -1    0    0  501    0  0.00000000000E+00  0.00000000000E+00  0.17851936389E+03  0.17851936389E+03  0.00000000000E+00 0. -1.
         -2   -1    0    0    0  501 -0.00000000000E+00 -0.00000000000E+00 -0.11441587139E+02  0.11441587139E+02  0.00000000000E+00 0.  1.
         23    2    1    2    0    0  0.00000000000E+00  0.00000000000E+00  0.16707777675E+03  0.18996095103E+03  0.90389044866E+02 0.  0.
          2    1    3    3  502    0  0.43824822225E+02 -0.91897565252E+01  0.70673057400E+02  0.83664494920E+02  0.00000000000E+00 0. -1.
         -2    1    3    3    0  502 -0.43824822225E+02  0.91897565252E+01  0.96404719354E+02  0.10629645611E+03  0.00000000000E+00 0.  1.
<mgrwt>
<rscale>  0 0.90389045E+02</rscale>
<asrwt>0</asrwt>
<pdfrwt beam="1">  1        2 0.27464515E-01 0.90389045E+02</pdfrwt>
<pdfrwt beam="2">  1       -2 0.17602443E-02 0.90389045E+02</pdfrwt>
<totfact> 0.15202803E+05</totfact>
</mgrwt>
</event>
<event>
 5    1  0.3845386E+001  0.8929457E+02  0.7546771E-02  0.1304569E+00
         -2   -1    0    0    0  501 -0.00000000000E+00  0.00000000000E+00  0.11551171026E+02  0.11551171026E+02  0.00000000000E+00 0.  1.
          2   -1    0    0  501    0  0.00000000000E+00 -0.00000000000E+00 -0.17256951248E+03  0.17256951248E+03  0.00000000000E+00 0. -1.
         23    2    1    2    0    0  0.00000000000E+00  0.00000000000E+00 -0.16101834145E+03  0.18412068350E+03  0.89294567640E+02 0.  0.
          2    1    3    3  502    0  0.12128021638E+02  0.23670286952E+02 -0.15445257978E+03  0.15672578216E+03  0.00000000000E+00 0. -1.
         -2    1    3    3    0  502 -0.12128021638E+02 -0.23670286952E+02 -0.65657616709E+01  0.27394901342E+02  0.00000000000E+00 0.  1.
<mgrwt>
<rscale>  0 0.89294568E+02</rscale>
<asrwt>0</asrwt>
<pdfrwt beam="2">  1        2 0.26549155E-01 0.89294568E+02</pdfrwt>
<pdfrwt beam="1">  1       -2 0.17771033E-02 0.89294568E+02</pdfrwt>
<totfact> 0.15524165E+05</totfact>
</mgrwt>
</event>
<event>
 5    1  0.3845386E+001  0.9730997E+02  0.7546771E-02  0.1286057E+00
         -4   -1    0    0    0  501 -0.00000000000E+00  0.00000000000E+00  0.40129302224E+03  0.40129302224E+03  0.00000000000E+00 0.  1.
          4   -1    0    0  501    0  0.00000000000E+00 -0.00000000000E+00 -0.58991989328E+01  0.58991989328E+01  0.00000000000E+00 0. -1.
         23    2    1    2    0    0  0.00000000000E+00  0.00000000000E+00  0.39539382331E+03  0.40719222118E+03  0.97309965955E+02 0.  0.
          2    1    3    3  502    0 -0.54850210005E+01 -0.48296983311E+02  0.18869947178E+03  0.19485937161E+03  0.00000000000E+00 0.  1.
         -2    1    3    3    0  502  0.54850210005E+01  0.48296983311E+02  0.20669435153E+03  0.21233284957E+03  0.00000000000E+00 0. -1.
<mgrwt>
<rscale>  0 0.97309966E+02</rscale>
<asrwt>0</asrwt>
<pdfrwt beam="2">  1        4 0.90756938E-03 0.97309966E+02</pdfrwt>
<pdfrwt beam="1">  1       -4 0.61737367E-01 0.97309966E+02</pdfrwt>
<totfact> 0.12601340E+04</totfact>
</mgrwt>
</event>
<event>
 5    1  0.3845386E+001  0.9077091E+02  0.7546771E-02  0.1300996E+00
          1   -1    0    0  501    0  0.00000000000E+00  0.00000000000E+00  0.91385534109E+02  0.91385534109E+02  0.00000000000E+00 0. -1.
         -1   -1    0    0    0  501 -0.00000000000E+00 -0.00000000000E+00 -0.22540102524E+02  0.22540102524E+02  0.00000000000E+00 0.  1.
         23    2    1    2    0    0  0.00000000000E+00  0.00000000000E+00  0.68845431585E+02  0.11392563663E+03  0.90770905208E+02 0.  0.
          2    1    3    3  502    0  0.30347534517E+02  0.23105025231E+02  0.65294461936E+02  0.75618660407E+02  0.00000000000E+00 0. -1.
         -2    1    3    3    0  502 -0.30347534517E+02 -0.23105025231E+02  0.35509696488E+01  0.38306976227E+02  0.00000000000E+00 0.  1.
<mgrwt>
<rscale>  0 0.90770905E+02</rscale>
<asrwt>0</asrwt>
<pdfrwt beam="1">  1        1 0.14059313E-01 0.90770905E+02</pdfrwt>
<pdfrwt beam="2">  1       -1 0.34677081E-02 0.90770905E+02</pdfrwt>
<totfact> 0.10417763E+05</totfact>
</mgrwt>
</event>
<event>
 5    1  0.3845386E+001  0.9276874E+02  0.7546771E-02  0.1296282E+00
          1   -1    0    0  501    0  0.00000000000E+00  0.00000000000E+00  0.13504098600E+03  0.13504098600E+03  0.00000000000E+00 0. -1.
         -1   -1    0    0    0  501 -0.00000000000E+00 -0.00000000000E+00 -0.15932272687E+02  0.15932272687E+02  0.00000000000E+00 0.  1.
         23    2    1    2    0    0  0.00000000000E+00  0.00000000000E+00  0.11910871332E+03  0.15097325869E+03  0.92768740702E+02 0.  0.
          2    1    3    3  502    0 -0.42649548626E+02  0.16991869531E+02  0.48783599004E+02  0.66989157032E+02  0.00000000000E+00 0. -1.
         -2    1    3    3    0  502  0.42649548626E+02 -0.16991869531E+02  0.70325114312E+02  0.83984101657E+02  0.00000000000E+00 0.  1.
<mgrwt>
<rscale>  0 0.92768741E+02</rscale>
<asrwt>0</asrwt>
<pdfrwt beam="1">  1        1 0.20775536E-01 0.92768741E+02</pdfrwt>
<pdfrwt beam="2">  1       -1 0.24511190E-02 0.92768741E+02</pdfrwt>
<totfact> 0.10497236E+05</totfact>
</mgrwt>
</event>
<event>
 5    1  0.3845386E+001  0.8798199E+02  0.7546771E-02  0.1307813E+00
          1   -1    0    0  501    0  0.00000000000E+00  0.00000000000E+00  0.88865546489E+02  0.88865546489E+02  0.00000000000E+00 0. -1.
         -1   -1    0    0    0  501 -0.00000000000E+00 -0.00000000000E+00 -0.21776806659E+02  0.21776806659E+02  0.00000000000E+00 0.  1.
         23    2    1    2    0    0  0.00000000000E+00  0.00000000000E+00  0.67088739830E+02  0.11064235315E+03  0.87981994171E+02 0.  0.
          2    1    3    3  502    0  0.13589101257E+02 -0.33957966939E+02  0.64281296632E+02  0.73958720164E+02  0.00000000000E+00 0. -1.
         -2    1    3    3    0  502 -0.13589101257E+02  0.33957966939E+02  0.28074431977E+01  0.36683632984E+02  0.00000000000E+00 0.  1.
<mgrwt>
<rscale>  0 0.87981994E+02</rscale>
<asrwt>0</asrwt>
<pdfrwt beam="1">  1        1 0.13671622E-01 0.87981994E+02</pdfrwt>
<pdfrwt beam="2">  1       -1 0.33502780E-02 0.87981994E+02</pdfrwt>
<totfact> 0.11291527E+05</totfact>
</mgrwt>
</event>
<event>
 5    1  0.3845386E+001  0.1035167E+03  0.7546771E-02  0.1273070E+00
          1   -1    0    0  501    0  0.00000000000E+00  0.00000000000E+00  0.55558762699E+03  0.55558762699E+03  0.00000000000E+00 0. -1.
         -1   -1    0    0    0  501 -0.00000000000E+00 -0.00000000000E+00 -0.48217936891E+01  0.48217936891E+01  0.00000000000E+00 0.  1.
         23    2    1    2    0    0  0.00000000000E+00  0.00000000000E+00  0.55076583330E+03  0.56040942068E+03  0.10351674094E+03 0.  0.
          2    1    3    3  502    0 -0.21590442355E+02 -0.16952658601E+02  0.51293239929E+03  0.51366641517E+03  0.00000000000E+00 0. -1.
         -2    1    3    3    0  502  0.21590442355E+02  0.16952658601E+02  0.37833434011E+02  0.46743005507E+02  0.00000000000E+00 0.  1.
<mgrwt>
<rscale>  0 0.10351674E+03</rscale>
<asrwt>0</asrwt>
<pdfrwt beam="1">  1        1 0.85474969E-01 0.10351674E+03</pdfrwt>
<pdfrwt beam="2">  1       -1 0.74181485E-03 0.10351674E+03</pdfrwt>
<totfact> 0.10038337E+05</totfact>
</mgrwt>
</event>
<event>
 5    1  0.3845386E+001  0.9122475E+02  0.7546771E-02  0.1299913E+00
         -2   -1    0    0    0  501 -0.00000000000E+00  0.00000000000E+00  0.64653937602E+01  0.64653937602E+01  0.00000000000E+00 0.  1.
          2   -1    0    0  501    0  0.00000000000E+00 -0.00000000000E+00 -0.32178840536E+03  0.32178840536E+03  0.00000000000E+00 0. -1.
         23    2    1    2    0    0  0.00000000000E+00  0.00000000000E+00 -0.31532301160E+03  0.32825379912E+03  0.91224749890E+02 0.  0.
          2    1    3    3  502    0 -0.30247825669E+02  0.23595406074E+02 -0.24644650808E+03  0.24941442518E+03  0.00000000000E+00 0. -1.
         -2    1    3    3    0  502  0.30247825669E+02 -0.23595406074E+02 -0.68876503526E+02  0.78839373942E+02  0.00000000000E+00 0.  1.
<mgrwt>
<rscale>  0 0.91224750E+02</rscale>
<asrwt>0</asrwt>
<pdfrwt beam="2">  1        2 0.49505908E-01 0.91224750E+02</pdfrwt>
<pdfrwt beam="1">  1       -2 0.99467598E-03 0.91224750E+02</pdfrwt>
<totfact> 0.18414219E+05</totfact>
</mgrwt>
</event>
<event>
 5    1  0.3845386E+001  0.9289179E+02  0.7546771E-02  0.1295996E+00
         -1   -1    0    0    0  501 -0.00000000000E+00  0.00000000000E+00  0.89780494160E+02  0.89780494160E+02  0.00000000000E+00 0.  1.
          1   -1    0    0  501    0  0.00000000000E+00 -0.00000000000E+00 -0.24027724036E+02  0.24027724036E+02  0.00000000000E+00 0. -1.
         23    2    1    2    0    0  0.00000000000E+00  0.00000000000E+00  0.65752770123E+02  0.11380821820E+03  0.92891785159E+02 0.  0.
          2    1    3    3  502    0  0.23730339102E+01  0.38463139173E+02  0.11121792822E+01  0.38552319096E+02  0.00000000000E+00 0. -1.
         -2    1    3    3    0  502 -0.23730339102E+01 -0.38463139173E+02  0.64640590841E+02  0.75255899099E+02  0.00000000000E+00 0.  1.
<mgrwt>
<rscale>  0 0.92891785E+02</rscale>
<asrwt>0</asrwt>
<pdfrwt beam="2">  1        1 0.36965730E-02 0.92891785E+02</pdfrwt>
<pdfrwt beam="1">  1       -1 0.13812384E-01 0.92891785E+02</pdfrwt>
<totfact> 0.79095866E+04</totfact>
</mgrwt>
</event>
<event>
 5    1  0.3845386E+001  0.9625030E+02  0.7546771E-02  0.1288385E+00
          4   -1    0    0  501    0  0.00000000000E+00  0.00000000000E+00  0.49539846841E+01  0.49539846841E+01  0.00000000000E+00 0. -1.
         -4   -1    0    0    0  501 -0.00000000000E+00 -0.00000000000E+00 -0.46750849764E+03  0.46750849764E+03  0.00000000000E+00 0.  1.
         23    2    1    2    0    0  0.00000000000E+00  0.00000000000E+00 -0.46255451296E+03  0.47246248233E+03  0.96250297392E+02 0.  0.
          2    1    3    3  502    0  0.39186898639E+02 -0.10602984461E+02 -0.35814505644E+03  0.36043850759E+03  0.00000000000E+00 0.  1.
         -2    1    3    3    0  502 -0.39186898639E+02  0.10602984461E+02 -0.10440945652E+03  0.11202397473E+03  0.00000000000E+00 0. -1.
<mgrwt>
<rscale>  0 0.96250297E+02</rscale>
<asrwt>0</asrwt>
<pdfrwt beam="1">  1        4 0.76215152E-03 0.96250297E+02</pdfrwt>
<pdfrwt beam="2">  1       -4 0.71924381E-01 0.96250297E+02</pdfrwt>
<totfact> 0.11777109E+04</totfact>
</mgrwt>
</event>
<event>
 5    1  0.3845386E+001  0.9228545E+02  0.7546771E-02  0.1297410E+00
         -1   -1    0    0    0  501 -0.00000000000E+00  0.00000000000E+00  0.32146230930E+02  0.32146230930E+02  0.00000000000E+00 0.  1.
          1   -1    0    0  501    0  0.00000000000E+00 -0.00000000000E+00 -0.66233304903E+02  0.66233304903E+02  0.00000000000E+00 0. -1.
         23    2    1    2    0    0  0.00000000000E+00  0.00000000000E+00 -0.34087073973E+02  0.98379535833E+02  0.92285450958E+02 0.  0.
          2    1    3    3  502    0 -0.42205493029E+02 -0.78301149241E+00 -0.36908276786E+02  0.56072610464E+02  0.00000000000E+00 0. -1.
         -2    1    3    3    0  502  0.42205493029E+02  0.78301149241E+00  0.28212028133E+01  0.42306925369E+02  0.00000000000E+00 0.  1.
<mgrwt>
<rscale>  0 0.92285451E+02</rscale>
<asrwt>0</asrwt>
<pdfrwt beam="2">  1        1 0.10189739E-01 0.92285451E+02</pdfrwt>
<pdfrwt beam="1">  1       -1 0.49455741E-02 0.92285451E+02</pdfrwt>
<totfact> 0.94612439E+04</totfact>
</mgrwt>
</event>
<event>
 5    1  0.3845386E+001  0.9129085E+02  0.7546771E-02  0.1299755E+00
         -2   -1    0    0    0  501 -0.00000000000E+00  0.00000000000E+00  0.18010676318E+01  0.18010676318E+01  0.00000000000E+00 0.  1.
          2   -1    0    0  501    0  0.00000000000E+00 -0.00000000000E+00 -0.11568166042E+04  0.11568166042E+04  0.00000000000E+00 0. -1.
         23    2    1    2    0    0  0.00000000000E+00  0.00000000000E+00 -0.11550155366E+04  0.11586176718E+04  0.91290852592E+02 0.  0.
          2    1    3    3  502    0 -0.40332463656E+02  0.44793476569E+01 -0.84273662376E+03  0.84371309650E+03  0.00000000000E+00 0. -1.
         -2    1    3    3    0  502  0.40332463656E+02 -0.44793476569E+01 -0.31227891281E+03  0.31490457533E+03  0.00000000000E+00 0.  1.
<mgrwt>
<rscale>  0 0.91290853E+02</rscale>
<asrwt>0</asrwt>
<pdfrwt beam="2">  1        2 0.17797130E+00 0.91290853E+02</pdfrwt>
<pdfrwt beam="1">  1       -2 0.27708808E-03 0.91290853E+02</pdfrwt>
<totfact> 0.24870816E+05</totfact>
</mgrwt>
</event>
<event>
 5    1  0.3845386E+001  0.9151642E+02  0.7546771E-02  0.1299220E+00
         -1   -1    0    0    0  501 -0.00000000000E+00  0.00000000000E+00  0.19600445997E+02  0.19600445997E+02  0.00000000000E+00 0.  1.
          1   -1    0    0  501    0  0.00000000000E+00 -0.00000000000E+00 -0.10682480018E+03  0.10682480018E+03  0.00000000000E+00 0. -1.
         23    2    1    2    0    0  0.00000000000E+00  0.00000000000E+00 -0.87224354186E+02  0.12642524618E+03  0.91516418791E+02 0.  0.
          2    1    3    3  502    0  0.24052692967E+02  0.23076617284E+02 -0.86919030672E+02  0.93091246619E+02  0.00000000000E+00 0. -1.
         -2    1    3    3    0  502 -0.24052692967E+02 -0.23076617284E+02 -0.30532351451E+00  0.33333999560E+02  0.00000000000E+00 0.  1.
<mgrwt>
<rscale>  0 0.91516419E+02</rscale>
<asrwt>0</asrwt>
<pdfrwt beam="2">  1        1 0.16434585E-01 0.91516419E+02</pdfrwt>
<pdfrwt beam="1">  1       -1 0.30154532E-02 0.91516419E+02</pdfrwt>
<totfact> 0.10454977E+05</totfact>
</mgrwt>
</event>
<event>
 5    1  0.3845386E+001  0.7601233E+02  0.7546771E-02  0.1340765E+00
          1   -1    0    0  501    0  0.00000000000E+00  0.00000000000E+00  0.60494576632E+03  0.60494576632E+03  0.00000000000E+00 0. -1.
         -1   -1    0    0    0  501 -0.00000000000E+00 -0.00000000000E+00 -0.23877654866E+01  0.23877654866E+01  0.00000000000E+00 0.  1.
         23    2    1    2    0    0  0.00000000000E+00  0.00000000000E+00  0.60255800083E+03  0.60733353181E+03  0.76012331160E+02 0.  0.
          2    1    3    3  502    0  0.25937171853E+02  0.61828777547E+01  0.51767258475E+03  0.51835882346E+03  0.00000000000E+00 0. -1.
         -2    1    3    3    0  502 -0.25937171853E+02 -0.61828777547E+01  0.84885416085E+02  0.88974708345E+02  0.00000000000E+00 0.  1.
<mgrwt>
<rscale>  0 0.76012331E+02</rscale>
<asrwt>0</asrwt>
<pdfrwt beam="1">  1        1 0.93068457E-01 0.76012331E+02</pdfrwt>
<pdfrwt beam="2">  1       -1 0.36734902E-03 0.76012331E+02</pdfrwt>
<totfact> 0.22826202E+05</totfact>
</mgrwt>
</event>
<event>
 5    1  0.3845386E+001  0.9491253E+02  0.7546771E-02  0.1291373E+00
          2   -1    0    0  501    0  0.00000000000E+00  0.00000000000E+00  0.53682054549E+03  0.53682054549E+03  0.00000000000E+00 0. -1.
         -2   -1    0    0    0  501 -0.00000000000E+00 -0.00000000000E+00 -0.41952510239E+01  0.41952510239E+01  0.00000000000E+00 0.  1.
         23    2    1    2    0    0  0.00000000000E+00  0.00000000000E+00  0.53262529447E+03  0.54101579652E+03  0.94912526953E+02 0.  0.
          2    1    3    3  502    0  0.14309027402E+02  0.34083372193E+02  0.96674715236E+02  0.10350084585E+03  0.00000000000E+00 0. -1.
         -2    1    3    3    0  502 -0.14309027402E+02 -0.34083372193E+02  0.43595057923E+03  0.43751495067E+03  0.00000000000E+00 0.  1.
<mgrwt>
<rscale>  0 0.94912527E+02</rscale>
<asrwt>0</asrwt>
<pdfrwt beam="1">  1        2 0.82587722E-01 0.94912527E+02</pdfrwt>
<pdfrwt beam="2">  1       -2 0.64542366E-03 0.94912527E+02</pdfrwt>
<totfact> 0.19816362E+05</totfact>
</mgrwt>
</event>
<event>
 5    1  0.3845386E+001  0.9341110E+02  0.7546771E-02  0.1294795E+00
          2   -1    0    0  501    0  0.00000000000E+00  0.00000000000E+00  0.63648925875E+03  0.63648925875E+03  0.00000000000E+00 0. -1.
         -2   -1    0    0    0  501 -0.00000000000E+00 -0.00000000000E+00 -0.34272512568E+01  0.34272512568E+01  0.00000000000E+00 0.  1.
         23    2    1    2    0    0  0.00000000000E+00  0.00000000000E+00  0.63306200749E+03  0.63991651001E+03  0.93411104522E+02 0.  0.
          2    1    3    3  502    0 -0.22474877311E+02  0.37147483773E+02  0.43446239883E+03  0.43662642116E+03  0.00000000000E+00 0. -1.
         -2    1    3    3    0  502  0.22474877311E+02 -0.37147483773E+02  0.19859960867E+03  0.20329008885E+03  0.00000000000E+00 0.  1.
<mgrwt>
<rscale>  0 0.93411105E+02</rscale>
<asrwt>0</asrwt>
<pdfrwt beam="1">  1        2 0.97921331E-01 0.93411105E+02</pdfrwt>
<pdfrwt beam="2">  1       -2 0.52726993E-03 0.93411105E+02</pdfrwt>
<totfact> 0.21721748E+05</totfact>
</mgrwt>
</event>
<event>
 5    1  0.3845386E+001  0.9902113E+02  0.7546771E-02  0.1282368E+00
          2   -1    0    0  501    0  0.00000000000E+00  0.00000000000E+00  0.43598256074E+02  0.43598256074E+02  0.00000000000E+00 0. -1.
         -2   -1    0    0    0  501 -0.00000000000E+00 -0.00000000000E+00 -0.56224629608E+02  0.56224629608E+02  0.00000000000E+00 0.  1.
         23    2    1    2    0    0  0.00000000000E+00  0.00000000000E+00 -0.12626373535E+02  0.99822885682E+02  0.99021125005E+02 0.  0.
          2    1    3    3  502    0 -0.30737530259E+02  0.26841915381E+02 -0.34576088275E+02  0.53486354036E+02  0.00000000000E+00 0.  1.
         -2    1    3    3    0  502  0.30737530259E+02 -0.26841915381E+02  0.21949714740E+02  0.46336531645E+02  0.00000000000E+00 0. -1.
<mgrwt>
<rscale>  0 0.99021125E+02</rscale>
<asrwt>0</asrwt>
<pdfrwt beam="1">  1        2 0.67074240E-02 0.99021125E+02</pdfrwt>
<pdfrwt beam="2">  1       -2 0.86499430E-02 0.99021125E+02</pdfrwt>
<totfact> 0.76738543E+04</totfact>
</mgrwt>
</event>
<event>
 5    1  0.3845386E+001  0.8989880E+02  0.7546771E-02  0.1303097E+00
         -2   -1    0    0    0  501 -0.00000000000E+00  0.00000000000E+00  0.20389466308E+01  0.20389466308E+01  0.00000000000E+00 0.  1.
          2   -1    0    0  501    0  0.00000000000E+00 -0.00000000000E+00 -0.99092756316E+03  0.99092756316E+03  0.00000000000E+00 0. -1.
         23    2    1    2    0    0  0.00000000000E+00  0.00000000000E+00 -0.98888861653E+03  0.99296650979E+03  0.89898796793E+02 0.  0.
          2    1    3    3  502    0 -0.25656097749E+02 -0.92057268490E+01 -0.88922479556E+03  0.88964246628E+03  0.00000000000E+00 0. -1.
         -2    1    3    3    0  502  0.25656097749E+02  0.92057268490E+01 -0.99663820963E+02  0.10332404351E+03  0.00000000000E+00 0.  1.
<mgrwt>
<rscale>  0 0.89898797E+02</rscale>
<asrwt>0</asrwt>
<pdfrwt beam="2">  1        2 0.15245043E+00 0.89898797E+02</pdfrwt>
<pdfrwt beam="1">  1       -2 0.31368402E-03 0.89898797E+02</pdfrwt>
<totfact> 0.25936434E+05</totfact>
</mgrwt>
</event>
<event>
 5    1  0.3845386E+001  0.8995656E+02  0.7546771E-02  0.1302957E+00
          1   -1    0    0  501    0  0.00000000000E+00  0.00000000000E+00  0.95782253803E+02  0.95782253803E+02  0.00000000000E+00 0. -1.
         -1   -1    0    0    0  501 -0.00000000000E+00 -0.00000000000E+00 -0.21121300528E+02  0.21121300528E+02  0.00000000000E+00 0.  1.
         23    2    1    2    0    0  0.00000000000E+00  0.00000000000E+00  0.74660953275E+02  0.11690355433E+03  0.89956562135E+02 0.  0.
          2    1    3    3  502    0  0.20513271420E+02 -0.77165895574E+01  0.88373502216E+02  0.91050623022E+02  0.00000000000E+00 0. -1.
         -2    1    3    3    0  502 -0.20513271420E+02  0.77165895574E+01 -0.13712548941E+02  0.25852931308E+02  0.00000000000E+00 0.  1.
<mgrwt>
<rscale>  0 0.89956562E+02</rscale>
<asrwt>0</asrwt>
<pdfrwt beam="1">  1        1 0.14735731E-01 0.89956562E+02</pdfrwt>
<pdfrwt beam="2">  1       -1 0.32494309E-02 0.89956562E+02</pdfrwt>
<totfact> 0.10758865E+05</totfact>
</mgrwt>
</event>
<event>
 5    1  0.3845386E+001  0.8549501E+02  0.7546771E-02  0.1314143E+00
         -1   -1    0    0    0  501 -0.00000000000E+00  0.00000000000E+00  0.11765416489E+01  0.11765416489E+01  0.00000000000E+00 0.  1.
          1   -1    0    0  501    0  0.00000000000E+00 -0.00000000000E+00 -0.15531528739E+04  0.15531528739E+04  0.00000000000E+00 0. -1.
         23    2    1    2    0    0  0.00000000000E+00  0.00000000000E+00 -0.15519763323E+04  0.15543294156E+04  0.85495006713E+02 0.  0.
          2    1    3    3  502    0 -0.26617915234E+02  0.11853919000E+02 -0.13446352728E+04  0.13449509454E+04  0.00000000000E+00 0. -1.
         -2    1    3    3    0  502  0.26617915234E+02 -0.11853919000E+02 -0.20734105949E+03  0.20937847013E+03  0.00000000000E+00 0.  1.
<mgrwt>
<rscale>  0 0.85495007E+02</rscale>
<asrwt>0</asrwt>
<pdfrwt beam="2">  1        1 0.23894842E+00 0.85495007E+02</pdfrwt>
<pdfrwt beam="1">  1       -1 0.18100503E-03 0.85495007E+02</pdfrwt>
<totfact> 0.12715745E+05</totfact>
</mgrwt>
</event>
<event>
 5    1  0.3845386E+001  0.9027671E+02  0.7546771E-02  0.1302183E+00
          1   -1    0    0  501    0  0.00000000000E+00  0.00000000000E+00  0.19832673070E+03  0.19832673070E+03  0.00000000000E+00 0. -1.
         -1   -1    0    0    0  501 -0.00000000000E+00 -0.00000000000E+00 -0.10273305306E+02  0.10273305306E+02  0.00000000000E+00 0.  1.
         23    2    1    2    0    0  0.00000000000E+00  0.00000000000E+00  0.18805342539E+03  0.20860003601E+03  0.90276709176E+02 0.  0.
          2    1    3    3  502    0  0.25336148780E+02 -0.45677862638E+01  0.17969900874E+03  0.18153379534E+03  0.00000000000E+00 0. -1.
         -2    1    3    3    0  502 -0.25336148780E+02  0.45677862638E+01  0.83544166503E+01  0.27066240669E+02  0.00000000000E+00 0.  1.
<mgrwt>
<rscale>  0 0.90276709E+02</rscale>
<asrwt>0</asrwt>
<pdfrwt beam="1">  1        1 0.30511802E-01 0.90276709E+02</pdfrwt>
<pdfrwt beam="2">  1       -1 0.15805087E-02 0.90276709E+02</pdfrwt>
<totfact> 0.12139793E+05</totfact>
</mgrwt>
</event>
<event>
 5    1  0.3845386E+001  0.1247247E+03  0.7546771E-02  0.1235500E+00
         -1   -1    0    0    0  501 -0.00000000000E+00  0.00000000000E+00  0.55792655818E+02  0.55792655818E+02  0.00000000000E+00 0.  1.
          1   -1    0    0  501    0  0.00000000000E+00 -0.00000000000E+00 -0.69705660938E+02  0.69705660938E+02  0.00000000000E+00 0. -1.
         23    2    1    2    0    0  0.00000000000E+00  0.00000000000E+00 -0.13913005120E+02  0.12549831676E+03  0.12472472007E+03 0.  0.
          2    1    3    3  502    0 -0.43475650778E+02  0.86751010640E+01 -0.51088251742E+02  0.67641696128E+02  0.00000000000E+00 0. -1.
         -2    1    3    3    0  502  0.43475650778E+02 -0.86751010640E+01  0.37175246621E+02  0.57856620627E+02  0.00000000000E+00 0.  1.
<mgrwt>
<rscale>  0 0.12472472E+03</rscale>
<asrwt>0</asrwt>
<pdfrwt beam="2">  1        1 0.10723948E-01 0.12472472E+03</pdfrwt>
<pdfrwt beam="1">  1       -1 0.85834856E-02 0.12472472E+03</pdfrwt>
<totfact> 0.40672755E+04</totfact>
</mgrwt>
</event>
<event>
 5    1  0.3845386E+001  0.9162284E+02  0.7546771E-02  0.1298969E+00
          2   -1    0    0  501    0  0.00000000000E+00  0.00000000000E+00  0.45166528614E+03  0.45166528614E+03  0.00000000000E+00 0. -1.
         -2   -1    0    0    0  501 -0.00000000000E+00 -0.00000000000E+00 -0.46465524234E+01  0.46465524234E+01  0.00000000000E+00 0.  1.
         23    2    1    2    0    0  0.00000000000E+00  0.00000000000E+00  0.44701873372E+03  0.45631183856E+03  0.91622844965E+02 0.  0.
          2    1    3    3  502    0  0.19601887340E+02  0.26188018296E+02  0.38324054585E+03  0.38463406281E+03  0.00000000000E+00 0. -1.
         -2    1    3    3    0  502 -0.19601887340E+02 -0.26188018296E+02  0.63778187866E+02  0.71677775754E+02  0.00000000000E+00 0.  1.
<mgrwt>
<rscale>  0 0.91622845E+02</rscale>
<asrwt>0</asrwt>
<pdfrwt beam="1">  1        2 0.69486932E-01 0.91622845E+02</pdfrwt>
<pdfrwt beam="2">  1       -2 0.71485458E-03 0.91622845E+02</pdfrwt>
<totfact> 0.20562491E+05</totfact>
</mgrwt>
</event>
<event>
 5    1  0.3845386E+001  0.9138461E+02  0.7546771E-02  0.1299533E+00
         -2   -1    0    0    0  501 -0.00000000000E+00  0.00000000000E+00  0.10445914010E+02  0.10445914010E+02  0.00000000000E+00 0.  1.
          2   -1    0    0  501    0  0.00000000000E+00 -0.00000000000E+00 -0.19986633532E+03  0.19986633532E+03  0.00000000000E+00 0. -1.
         23    2    1    2    0    0  0.00000000000E+00  0.00000000000E+00 -0.18942042131E+03  0.21031224933E+03  0.91384605976E+02 0.  0.
          2    1    3    3  502    0  0.27394493367E+02 -0.14140352745E+02 -0.17232492652E+03  0.17506081270E+03  0.00000000000E+00 0. -1.
         -2    1    3    3    0  502 -0.27394493367E+02  0.14140352745E+02 -0.17095494793E+02  0.35251436635E+02  0.00000000000E+00 0.  1.
<mgrwt>
<rscale>  0 0.91384606E+02</rscale>
<asrwt>0</asrwt>
<pdfrwt beam="2">  1        2 0.30748668E-01 0.91384606E+02</pdfrwt>
<pdfrwt beam="1">  1       -2 0.16070636E-02 0.91384606E+02</pdfrwt>
<totfact> 0.15369658E+05</totfact>
</mgrwt>
</event>
<event>
 5    1  0.3845386E+001  0.9183758E+02  0.7546771E-02  0.1298462E+00
         -1   -1    0    0    0  501 -0.00000000000E+00  0.00000000000E+00  0.67944892529E+01  0.67944892529E+01  0.00000000000E+00 0.  1.
          1   -1    0    0  501    0  0.00000000000E+00 -0.00000000000E+00 -0.31033017866E+03  0.31033017866E+03  0.00000000000E+00 0. -1.
         23    2    1    2    0    0  0.00000000000E+00  0.00000000000E+00 -0.30353568941E+03  0.31712466791E+03  0.91837575398E+02 0.  0.
          2    1    3    3  502    0  0.28228648579E+02  0.13376396026E+02 -0.35548948637E+02  0.47323485929E+02  0.00000000000E+00 0.  1.
         -2    1    3    3    0  502 -0.28228648579E+02 -0.13376396026E+02 -0.26798674077E+03  0.26980118199E+03  0.00000000000E+00 0. -1.
<mgrwt>
<rscale>  0 0.91837575E+02</rscale>
<asrwt>0</asrwt>
<pdfrwt beam="2">  1        1 0.47743108E-01 0.91837575E+02</pdfrwt>
<pdfrwt beam="1">  1       -1 0.10453060E-02 0.91837575E+02</pdfrwt>
<totfact> 0.12648861E+05</totfact>
</mgrwt>
</event>
<event>
 5    1  0.3845386E+001  0.9018835E+02  0.7546771E-02  0.1302396E+00
         -2   -1    0    0    0  501 -0.00000000000E+00  0.00000000000E+00  0.37723863455E+01  0.37723863455E+01  0.00000000000E+00 0.  1.
          2   -1    0    0  501    0  0.00000000000E+00 -0.00000000000E+00 -0.53904468493E+03  0.53904468493E+03  0.00000000000E+00 0. -1.
         23    2    1    2    0    0  0.00000000000E+00  0.00000000000E+00 -0.53527229858E+03  0.54281707127E+03  0.90188354216E+02 0.  0.
          2    1    3    3  502    0  0.22799741212E+02 -0.51793115322E+01 -0.49971410447E+03  0.50026077167E+03  0.00000000000E+00 0. -1.
         -2    1    3    3    0  502 -0.22799741212E+02  0.51793115322E+01 -0.35558194115E+02  0.42556299604E+02  0.00000000000E+00 0.  1.
<mgrwt>
<rscale>  0 0.90188354E+02</rscale>
<asrwt>0</asrwt>
<pdfrwt beam="2">  1        2 0.82929945E-01 0.90188354E+02</pdfrwt>
<pdfrwt beam="1">  1       -2 0.58036718E-03 0.90188354E+02</pdfrwt>
<totfact> 0.22715090E+05</totfact>
</mgrwt>
</event>
<event>
 5    1  0.3845386E+001  0.9080780E+02  0.7546771E-02  0.1300907E+00
          2   -1    0    0  501    0  0.00000000000E+00  0.00000000000E+00  0.64394459335E+03  0.64394459335E+03  0.00000000000E+00 0. -1.
         -2   -1    0    0    0  501 -0.00000000000E+00 -0.00000000000E+00 -0.32013840885E+01  0.32013840885E+01  0.00000000000E+00 0.  1.
         23    2    1    2    0    0  0.00000000000E+00  0.00000000000E+00  0.64074320926E+03  0.64714597743E+03  0.90807796471E+02 0.  0.
          2    1    3    3  502    0 -0.39341976585E+02  0.95287639397E+01  0.17381308818E+03  0.17846450091E+03  0.00000000000E+00 0.  1.
         -2    1    3    3    0  502  0.39341976585E+02 -0.95287639397E+01  0.46693012108E+03  0.46868147652E+03  0.00000000000E+00 0. -1.
<mgrwt>
<rscale>  0 0.90807796E+02</rscale>
<asrwt>0</asrwt>
<pdfrwt beam="1">  1        2 0.99068296E-01 0.90807796E+02</pdfrwt>
<pdfrwt beam="2">  1       -2 0.49252114E-03 0.90807796E+02</pdfrwt>
<totfact> 0.23478735E+05</totfact>
</mgrwt>
</event>
<event>
 5    1  0.3845386E+001  0.9080799E+02  0.7546771E-02  0.1300907E+00
          2   -1    0    0  501    0  0.00000000000E+00  0.00000000000E+00  0.23245314068E+04  0.23245314068E+04  0.00000000000E+00 0. -1.
         -2   -1    0    0    0  501 -0.00000000000E+00 -0.00000000000E+00 -0.88685518532E+00  0.88685518532E+00  0.00000000000E+00 0.  1.
         23    2    1    2    0    0  0.00000000000E+00  0.00000000000E+00  0.23236445516E+04  0.23254182620E+04  0.90807989330E+02 0.  0.
          2    1    3    3  502    0  0.33310783974E+02 -0.13692056171E+02  0.18698484114E+04  0.18701952204E+04  0.00000000000E+00 0. -1.
         -2    1    3    3    0  502 -0.33310783974E+02  0.13692056171E+02  0.45379614017E+03  0.45522304156E+03  0.00000000000E+00 0.  1.
<mgrwt>
<rscale>  0 0.90807989E+02</rscale>
<asrwt>0</asrwt>
<pdfrwt beam="1">  1        2 0.35761534E+00 0.90807989E+02</pdfrwt>
<pdfrwt beam="2">  1       -2 0.13644112E-03 0.90807989E+02</pdfrwt>
<totfact> 0.16753872E+05</totfact>
</mgrwt>
</event>
<event>
 5    1  0.3845386E+001  0.9167364E+02  0.7546771E-02  0.1298849E+00
         -1   -1    0    0    0  501 -0.00000000000E+00  0.00000000000E+00  0.18959497357E+01  0.18959497357E+01  0.00000000000E+00 0.  1.
          1   -1    0    0  501    0  0.00000000000E+00 -0.00000000000E+00 -0.11081591546E+04  0.11081591546E+04  0.00000000000E+00 0. -1.
         23    2    1    2    0    0  0.00000000000E+00  0.00000000000E+00 -0.11062632048E+04  0.11100551043E+04  0.91673639748E+02 0.  0.
          2    1    3    3  502    0  0.26683754709E+02  0.37240230113E+02 -0.53534962646E+03  0.53730631865E+03  0.00000000000E+00 0. -1.
         -2    1    3    3    0  502 -0.26683754709E+02 -0.37240230113E+02 -0.57091357836E+03  0.57274878564E+03  0.00000000000E+00 0.  1.
<mgrwt>
<rscale>  0 0.91673640E+02</rscale>
<asrwt>0</asrwt>
<pdfrwt beam="2">  1        1 0.17048618E+00 0.91673640E+02</pdfrwt>
<pdfrwt beam="1">  1       -1 0.29168431E-03 0.91673640E+02</pdfrwt>
<totfact> 0.12976297E+05</totfact>
</mgrwt>
</event>
<event>
 5    1  0.3845386E+001  0.1026809E+03  0.7546771E-02  0.1274757E+00
         -4   -1    0    0    0  501 -0.00000000000E+00  0.00000000000E+00  0.14333344827E+01  0.14333344827E+01  0.00000000000E+00 0.  1.
          4   -1    0    0  501    0  0.00000000000E+00 -0.00000000000E+00 -0.18389577906E+04  0.18389577906E+04  0.00000000000E+00 0. -1.
         23    2    1    2    0    0  0.00000000000E+00  0.00000000000E+00 -0.18375244561E+04  0.18403911251E+04  0.10268089625E+03 0.  0.
          2    1    3    3  502    0  0.44502615397E+02  0.72207879515E+01 -0.47855415133E+03  0.48067317203E+03  0.00000000000E+00 0.  1.
         -2    1    3    3    0  502 -0.44502615397E+02 -0.72207879515E+01 -0.13589703048E+04  0.13597179531E+04  0.00000000000E+00 0. -1.
<mgrwt>
<rscale>  0 0.10268090E+03</rscale>
<asrwt>0</asrwt>
<pdfrwt beam="2">  1        4 0.28291500E+00 0.10268090E+03</pdfrwt>
<pdfrwt beam="1">  1       -4 0.22051423E-03 0.10268090E+03</pdfrwt>
<totfact> 0.20621142E+03</totfact>
</mgrwt>
</event>
<event>
 4    1  0.3845386E+001  0.4331053E+02  0.7546771E-02  0.1485173E+00
          2   -1    0    0  501    0  0.00000000000E+00  0.00000000000E+00  0.31191768860E+04  0.31191768860E+04  0.00000000000E+00 0. -1.
         -2   -1    0    0    0  501 -0.00000000000E+00 -0.00000000000E+00 -0.15034433384E+00  0.15034433384E+00  0.00000000000E+00 0.  1.
          2    1    1    2  502    0  0.21236874461E+02 -0.42357346534E+01  0.15642284735E+04  0.15643783633E+04  0.00000000000E+00 0. -1.
         -2    1    1    2    0  502 -0.21236874461E+02  0.42357346534E+01  0.15547980682E+04  0.15549488671E+04  0.00000000000E+00 0.  1.
<mgrwt>
<rscale>  0 0.43310533E+02</rscale>
<asrwt>0</asrwt>
<pdfrwt beam="1">  1        2 0.47982154E+00 0.43310533E+02</pdfrwt>
<pdfrwt beam="2">  1       -2 0.23132396E-04 0.43310533E+02</pdfrwt>
<totfact> 0.63207604E+05</totfact>
</mgrwt>
</event>
<event>
 5    1  0.3845386E+001  0.9456930E+02  0.7546771E-02  0.1292149E+00
         -1   -1    0    0    0  501 -0.00000000000E+00  0.00000000000E+00  0.66939839081E+01  0.66939839081E+01  0.00000000000E+00 0.  1.
          1   -1    0    0  501    0  0.00000000000E+00 -0.00000000000E+00 -0.33400707904E+03  0.33400707904E+03  0.00000000000E+00 0. -1.
         23    2    1    2    0    0  0.00000000000E+00  0.00000000000E+00 -0.32731309513E+03  0.34070106295E+03  0.94569297603E+02 0.  0.
          2    1    3    3  502    0  0.91270664916E+01  0.30757123302E+02 -0.38517422575E+02  0.50128792310E+02  0.00000000000E+00 0.  1.
         -2    1    3    3    0  502 -0.91270664916E+01 -0.30757123302E+02 -0.28879567256E+03  0.29057227064E+03  0.00000000000E+00 0. -1.
<mgrwt>
<rscale>  0 0.94569298E+02</rscale>
<asrwt>0</asrwt>
<pdfrwt beam="2">  1        1 0.51385692E-01 0.94569298E+02</pdfrwt>
<pdfrwt beam="1">  1       -1 0.10298439E-02 0.94569298E+02</pdfrwt>
<totfact> 0.11858568E+05</totfact>
</mgrwt>
</event>
<event>
 5    1  0.3845386E+001  0.9169403E+02  0.7546771E-02  0.1298800E+00
         -1   -1    0    0    0  501 -0.00000000000E+00  0.00000000000E+00  0.90030560563E+01  0.90030560563E+01  0.00000000000E+00 0.  1.
          1   -1    0    0  501    0  0.00000000000E+00 -0.00000000000E+00 -0.23347060446E+03  0.23347060446E+03  0.00000000000E+00 0. -1.
         23    2    1    2    0    0  0.00000000000E+00  0.00000000000E+00 -0.22446754840E+03  0.24247366051E+03  0.91694033381E+02 0.  0.
          2    1    3    3  502    0  0.35220852727E+02 -0.48023723862E+01 -0.18880107708E+03  0.19211823952E+03  0.00000000000E+00 0. -1.
         -2    1    3    3    0  502 -0.35220852727E+02  0.48023723862E+01 -0.35666471315E+02  0.50355420993E+02  0.00000000000E+00 0.  1.
<mgrwt>
<rscale>  0 0.91694033E+02</rscale>
<asrwt>0</asrwt>
<pdfrwt beam="2">  1        1 0.35918556E-01 0.91694033E+02</pdfrwt>
<pdfrwt beam="1">  1       -1 0.13850855E-02 0.91694033E+02</pdfrwt>
<totfact> 0.12019721E+05</totfact>
</mgrwt>
</event>
<event>
 5    1  0.3845386E+001  0.9333741E+02  0.7546771E-02  0.1294965E+00
          1   -1    0    0  501    0  0.00000000000E+00  0.00000000000E+00  0.65626920665E+03  0.65626920665E+03  0.00000000000E+00 0. -1.
         -1   -1    0    0    0  501 -0.00000000000E+00 -0.00000000000E+00 -0.33187115706E+01  0.33187115706E+01  0.00000000000E+00 0.  1.
         23    2    1    2    0    0  0.00000000000E+00  0.00000000000E+00  0.65295049508E+03  0.65958791822E+03  0.93337413925E+02 0.  0.
          2    1    3    3  502    0 -0.27049470207E+01  0.23256064460E+02  0.61176423600E+03  0.61221208884E+03  0.00000000000E+00 0. -1.
         -2    1    3    3    0  502  0.27049470207E+01 -0.23256064460E+02  0.41186259075E+02  0.47375829376E+02  0.00000000000E+00 0.  1.
<mgrwt>
<rscale>  0 0.93337414E+02</rscale>
<asrwt>0</asrwt>
<pdfrwt beam="1">  1        1 0.10096439E+00 0.93337414E+02</pdfrwt>
<pdfrwt beam="2">  1       -1 0.51057153E-03 0.93337414E+02</pdfrwt>
<totfact> 0.13356558E+05</totfact>
</mgrwt>
</event>
<event>
 5    1  0.3845386E+001  0.9004682E+02  0.7546771E-02  0.1302738E+00
         -4   -1    0    0    0  501 -0.00000000000E+00  0.00000000000E+00  0.66972081026E+02  0.66972081026E+02  0.00000000000E+00 0.  1.
          4   -1    0    0  501    0  0.00000000000E+00 -0.00000000000E+00 -0.30267945652E+02  0.30267945652E+02  0.00000000000E+00 0. -1.
         23    2    1    2    0    0  0.00000000000E+00  0.00000000000E+00  0.36704135374E+02  0.97240026678E+02  0.90046816905E+02 0.  0.
          2    1    3    3  502    0  0.36488044101E+02  0.21486681507E+02  0.18311825078E+01  0.42384054477E+02  0.00000000000E+00 0. -1.
         -2    1    3    3    0  502 -0.36488044101E+02 -0.21486681507E+02  0.34872952867E+02  0.54855972201E+02  0.00000000000E+00 0.  1.
<mgrwt>
<rscale>  0 0.90046817E+02</rscale>
<asrwt>0</asrwt>
<pdfrwt beam="2">  1        4 0.46566070E-02 0.90046817E+02</pdfrwt>
<pdfrwt beam="1">  1       -4 0.10303397E-01 0.90046817E+02</pdfrwt>
<totfact> 0.27543901E+04</totfact>
</mgrwt>
</event>
<event>
 5    1  0.3845386E+001  0.9100843E+02  0.7546771E-02  0.1300428E+00
          2   -1    0    0  501    0  0.00000000000E+00  0.00000000000E+00  0.60969281028E+03  0.60969281028E+03  0.00000000000E+00 0. -1.
         -2   -1    0    0    0  501 -0.00000000000E+00 -0.00000000000E+00 -0.33961917709E+01  0.33961917709E+01  0.00000000000E+00 0.  1.
         23    2    1    2    0    0  0.00000000000E+00  0.00000000000E+00  0.60629661851E+03  0.61308900205E+03  0.91008432687E+02 0.  0.
          2    1    3    3  502    0  0.15461800085E+01 -0.38675935722E+02  0.46432320727E+03  0.46593375011E+03  0.00000000000E+00 0. -1.
         -2    1    3    3    0  502 -0.15461800085E+01  0.38675935722E+02  0.14197341123E+03  0.14715525194E+03  0.00000000000E+00 0.  1.
<mgrwt>
<rscale>  0 0.91008433E+02</rscale>
<asrwt>0</asrwt>
<pdfrwt beam="1">  1        2 0.93798807E-01 0.91008433E+02</pdfrwt>
<pdfrwt beam="2">  1       -2 0.52249153E-03 0.91008433E+02</pdfrwt>
<totfact> 0.22999887E+05</totfact>
</mgrwt>
</event>
<event>
 5    1  0.3845386E+001  0.8849538E+02  0.7546771E-02  0.1306537E+00
          2   -1    0    0  501    0  0.00000000000E+00  0.00000000000E+00  0.74122904882E+02  0.74122904882E+02  0.00000000000E+00 0. -1.
         -2   -1    0    0    0  501 -0.00000000000E+00 -0.00000000000E+00 -0.26413672046E+02  0.26413672046E+02  0.00000000000E+00 0.  1.
         23    2    1    2    0    0  0.00000000000E+00  0.00000000000E+00  0.47709232836E+02  0.10053657693E+03  0.88495380685E+02 0.  0.
          2    1    3    3  502    0 -0.23999334317E+02 -0.34884862144E+02  0.38444835354E+02  0.57192018848E+02  0.00000000000E+00 0. -1.
         -2    1    3    3    0  502  0.23999334317E+02  0.34884862144E+02  0.92643974817E+01  0.43344558080E+02  0.00000000000E+00 0.  1.
<mgrwt>
<rscale>  0 0.88495381E+02</rscale>
<asrwt>0</asrwt>
<pdfrwt beam="1">  1        2 0.11403524E-01 0.88495381E+02</pdfrwt>
<pdfrwt beam="2">  1       -2 0.40636419E-02 0.88495381E+02</pdfrwt>
<totfact> 0.12212585E+05</totfact>
</mgrwt>
</event>
<event>
 5    1  0.3845386E+001  0.7272755E+02  0.7546771E-02  0.1351056E+00
         -1   -1    0    0    0  501 -0.00000000000E+00  0.00000000000E+00  0.22584621790E+01  0.22584621790E+01  0.00000000000E+00 0.  1.
          1   -1    0    0  501    0  0.00000000000E+00 -0.00000000000E+00 -0.58549758696E+03  0.58549758696E+03  0.00000000000E+00 0. -1.
         23    2    1    2    0    0  0.00000000000E+00  0.00000000000E+00 -0.58323912478E+03  0.58775604914E+03  0.72727550654E+02 0.  0.
          2    1    3    3  502    0 -0.27756345651E+02 -0.21676069972E+02 -0.36482731625E+03  0.36652317446E+03  0.00000000000E+00 0. -1.
         -2    1    3    3    0  502  0.27756345651E+02  0.21676069972E+02 -0.21841180853E+03  0.22123287468E+03  0.00000000000E+00 0.  1.
<mgrwt>
<rscale>  0 0.72727551E+02</rscale>
<asrwt>0</asrwt>
<pdfrwt beam="2">  1        1 0.90076445E-01 0.72727551E+02</pdfrwt>
<pdfrwt beam="1">  1       -1 0.34745613E-03 0.72727551E+02</pdfrwt>
<totfact> 0.25546161E+05</totfact>
</mgrwt>
</event>
<event>
 5    1  0.3845386E+001  0.9275488E+02  0.7546771E-02  0.1296314E+00
         -2   -1    0    0    0  501 -0.00000000000E+00  0.00000000000E+00  0.18487153009E+01  0.18487153009E+01  0.00000000000E+00 0. -1.
          2   -1    0    0  501    0  0.00000000000E+00 -0.00000000000E+00 -0.11634386687E+04  0.11634386687E+04  0.00000000000E+00 0.  1.
         23    2    1    2    0    0  0.00000000000E+00  0.00000000000E+00 -0.11615899534E+04  0.11652873840E+04  0.92754878437E+02 0.  0.
          2    1    3    3  502    0 -0.31384188661E+02 -0.14332663704E+01 -0.10093868342E+04  0.10098756372E+04  0.00000000000E+00 0.  1.
         -2    1    3    3    0  502  0.31384188661E+02  0.14332663704E+01 -0.15220311922E+03  0.15541174682E+03  0.00000000000E+00 0. -1.
<mgrwt>
<rscale>  0 0.92754878E+02</rscale>
<asrwt>0</asrwt>
<pdfrwt beam="2">  1        2 0.17899059E+00 0.92754878E+02</pdfrwt>
<pdfrwt beam="1">  1       -2 0.28441770E-03 0.92754878E+02</pdfrwt>
<totfact> 0.23839224E+05</totfact>
</mgrwt>
</event>
<event>
 5    1  0.3845386E+001  0.8620682E+02  0.7546771E-02  0.1312306E+00
         -2   -1    0    0    0  501 -0.00000000000E+00  0.00000000000E+00  0.11538819640E+01  0.11538819640E+01  0.00000000000E+00 0. -1.
          2   -1    0    0  501    0  0.00000000000E+00 -0.00000000000E+00 -0.16101333586E+04  0.16101333586E+04  0.00000000000E+00 0.  1.
         23    2    1    2    0    0  0.00000000000E+00  0.00000000000E+00 -0.16089794766E+04  0.16112872406E+04  0.86206817412E+02 0.  0.
          2    1    3    3  502    0  0.20266463298E+02  0.92009567688E+01 -0.14944153595E+04  0.14945810964E+04  0.00000000000E+00 0.  1.
         -2    1    3    3    0  502 -0.20266463298E+02 -0.92009567688E+01 -0.11456411714E+03  0.11670614412E+03  0.00000000000E+00 0. -1.
<mgrwt>
<rscale>  0 0.86206817E+02</rscale>
<asrwt>0</asrwt>
<pdfrwt beam="2">  1        2 0.24771398E+00 0.86206817E+02</pdfrwt>
<pdfrwt beam="1">  1       -2 0.17751947E-03 0.86206817E+02</pdfrwt>
<totfact> 0.26519678E+05</totfact>
</mgrwt>
</event>
<event>
 5    1  0.3845386E+001  0.9128727E+02  0.7546771E-02  0.1299764E+00
         -2   -1    0    0    0  501 -0.00000000000E+00  0.00000000000E+00  0.28324399907E+03  0.28324399907E+03  0.00000000000E+00 0. -1.
          2   -1    0    0  501    0  0.00000000000E+00 -0.00000000000E+00 -0.73552888073E+01  0.73552888073E+01  0.00000000000E+00 0.  1.
         23    2    1    2    0    0  0.00000000000E+00  0.00000000000E+00  0.27588871026E+03  0.29059928788E+03  0.91287270002E+02 0.  0.
          2    1    3    3  502    0 -0.36674976222E+02 -0.26738996387E+02  0.15331489302E+03  0.15989210184E+03  0.00000000000E+00 0.  1.
         -2    1    3    3    0  502  0.36674976222E+02  0.26738996387E+02  0.12257381724E+03  0.13070718604E+03  0.00000000000E+00 0. -1.
<mgrwt>
<rscale>  0 0.91287270E+02</rscale>
<asrwt>0</asrwt>
<pdfrwt beam="2">  1        2 0.11315831E-02 0.91287270E+02</pdfrwt>
<pdfrwt beam="1">  1       -2 0.43575991E-01 0.91287270E+02</pdfrwt>
<totfact> 0.52481189E+04</totfact>
</mgrwt>
</event>
<event>
 5    1  0.3845386E+001  0.9043265E+02  0.7546771E-02  0.1301807E+00
         -2   -1    0    0    0  501 -0.00000000000E+00  0.00000000000E+00  0.85592834751E+00  0.85592834751E+00  0.00000000000E+00 0.  1.
          2   -1    0    0  501    0  0.00000000000E+00 -0.00000000000E+00 -0.23886534624E+04  0.23886534624E+04  0.00000000000E+00 0. -1.
         23    2    1    2    0    0  0.00000000000E+00  0.00000000000E+00 -0.23877975340E+04  0.23895093907E+04  0.90432653634E+02 0.  0.
          2    1    3    3  502    0 -0.33353591337E+02  0.27837847437E+02 -0.15250933140E+04  0.15257119729E+04  0.00000000000E+00 0.  1.
         -2    1    3    3    0  502  0.33353591337E+02 -0.27837847437E+02 -0.86270422004E+03  0.86379741785E+03  0.00000000000E+00 0. -1.
<mgrwt>
<rscale>  0 0.90432654E+02</rscale>
<asrwt>0</asrwt>
<pdfrwt beam="2">  1        2 0.36748176E+00 0.90432654E+02</pdfrwt>
<pdfrwt beam="1">  1       -2 0.13168250E-03 0.90432654E+02</pdfrwt>
<totfact> 0.16296327E+05</totfact>
</mgrwt>
</event>
<event>
 5    1  0.3845386E+001  0.9087187E+02  0.7546771E-02  0.1300754E+00
          3   -1    0    0  501    0  0.00000000000E+00  0.00000000000E+00  0.97223369561E+01  0.97223369561E+01  0.00000000000E+00 0. -1.
         -3   -1    0    0    0  501 -0.00000000000E+00 -0.00000000000E+00 -0.21233825403E+03  0.21233825403E+03  0.00000000000E+00 0.  1.
         23    2    1    2    0    0  0.00000000000E+00  0.00000000000E+00 -0.20261591707E+03  0.22206059098E+03  0.90871867028E+02 0.  0.
          2    1    3    3  502    0  0.32398205421E+02  0.27539391277E+02 -0.14043428666E+03  0.14673053757E+03  0.00000000000E+00 0. -1.
         -2    1    3    3    0  502 -0.32398205421E+02 -0.27539391277E+02 -0.62181630410E+02  0.75330053411E+02  0.00000000000E+00 0.  1.
<mgrwt>
<rscale>  0 0.90871867E+02</rscale>
<asrwt>0</asrwt>
<pdfrwt beam="1">  1        3 0.14957440E-02 0.90871867E+02</pdfrwt>
<pdfrwt beam="2">  1       -3 0.32667427E-01 0.90871867E+02</pdfrwt>
<totfact> 0.27642678E+04</totfact>
</mgrwt>
</event>
<event>
 5    1  0.3845386E+001  0.9127370E+02  0.7546771E-02  0.1299796E+00
         -1   -1    0    0    0  501 -0.00000000000E+00  0.00000000000E+00  0.12473320864E+02  0.12473320864E+02  0.00000000000E+00 0.  1.
          1   -1    0    0  501    0  0.00000000000E+00 -0.00000000000E+00 -0.16697413334E+03  0.16697413334E+03  0.00000000000E+00 0. -1.
         23    2    1    2    0    0  0.00000000000E+00  0.00000000000E+00 -0.15450081248E+03  0.17944745421E+03  0.91273697003E+02 0.  0.
          2    1    3    3  502    0 -0.30316790723E+02 -0.14433599665E+02 -0.13801606587E+03  0.14204179327E+03  0.00000000000E+00 0. -1.
         -2    1    3    3    0  502  0.30316790723E+02  0.14433599665E+02 -0.16484746613E+02  0.37405660934E+02  0.00000000000E+00 0.  1.
<mgrwt>
<rscale>  0 0.91273697E+02</rscale>
<asrwt>0</asrwt>
<pdfrwt beam="2">  1        1 0.25688325E-01 0.91273697E+02</pdfrwt>
<pdfrwt beam="1">  1       -1 0.19189726E-02 0.91273697E+02</pdfrwt>
<totfact> 0.11406199E+05</totfact>
</mgrwt>
</event>
<event>
 5    1  0.3845386E+001  0.9210486E+02  0.7546771E-02  0.1297833E+00
          3   -1    0    0  501    0  0.00000000000E+00  0.00000000000E+00  0.22819057636E+02  0.22819057636E+02  0.00000000000E+00 0. -1.
         -3   -1    0    0    0  501 -0.00000000000E+00 -0.00000000000E+00 -0.92941015987E+02  0.92941015987E+02  0.00000000000E+00 0.  1.
         23    2    1    2    0    0  0.00000000000E+00  0.00000000000E+00 -0.70121958350E+02  0.11576007362E+03  0.92104861991E+02 0.  0.
          2    1    3    3  502    0 -0.23952420819E+02  0.31516777514E+02 -0.64637901283E+02  0.75796332433E+02  0.00000000000E+00 0.  1.
         -2    1    3    3    0  502  0.23952420819E+02 -0.31516777514E+02 -0.54840570669E+01  0.39963741190E+02  0.00000000000E+00 0. -1.
<mgrwt>
<rscale>  0 0.92104862E+02</rscale>
<asrwt>0</asrwt>
<pdfrwt beam="1">  1        3 0.35106242E-02 0.92104862E+02</pdfrwt>
<pdfrwt beam="2">  1       -3 0.14298618E-01 0.92104862E+02</pdfrwt>
<totfact> 0.32628282E+04</totfact>
</mgrwt>
</event>
<event>
 5    1  0.3845386E+001  0.9341646E+02  0.7546771E-02  0.1294783E+00
          1   -1    0    0  501    0  0.00000000000E+00  0.00000000000E+00  0.12873377377E+04  0.12873377377E+04  0.00000000000E+00 0. -1.
         -1   -1    0    0    0  501 -0.00000000000E+00 -0.00000000000E+00 -0.16947057363E+01  0.16947057363E+01  0.00000000000E+00 0.  1.
         23    2    1    2    0    0  0.00000000000E+00  0.00000000000E+00  0.12856430320E+04  0.12890324435E+04  0.93416457835E+02 0.  0.
          2    1    3    3  502    0 -0.20149185188E+02 -0.14640793432E+02  0.97583813825E+02  0.10071218008E+03  0.00000000000E+00 0.  1.
         -2    1    3    3    0  502  0.20149185188E+02  0.14640793432E+02  0.11880592182E+04  0.11883202634E+04  0.00000000000E+00 0. -1.
<mgrwt>
<rscale>  0 0.93416458E+02</rscale>
<asrwt>0</asrwt>
<pdfrwt beam="1">  1        1 0.19805118E+00 0.93416458E+02</pdfrwt>
<pdfrwt beam="2">  1       -1 0.26072499E-03 0.93416458E+02</pdfrwt>
<totfact> 0.11511688E+05</totfact>
</mgrwt>
</event>
<event>
 5    1  0.3845386E+001  0.9085769E+02  0.7546771E-02  0.1300788E+00
          2   -1    0    0  501    0  0.00000000000E+00  0.00000000000E+00  0.27268934497E+02  0.27268934497E+02  0.00000000000E+00 0.  1.
         -2   -1    0    0    0  501 -0.00000000000E+00 -0.00000000000E+00 -0.75682463032E+02  0.75682463032E+02  0.00000000000E+00 0. -1.
         23    2    1    2    0    0  0.00000000000E+00  0.00000000000E+00 -0.48413528534E+02  0.10295139753E+03  0.90857693719E+02 0.  0.
          2    1    3    3  502    0  0.33365440126E+02 -0.85869234055E+01 -0.57758801569E+02  0.67253750877E+02  0.00000000000E+00 0. -1.
         -2    1    3    3    0  502 -0.33365440126E+02  0.85869234055E+01  0.93452730346E+01  0.35697646652E+02  0.00000000000E+00 0.  1.
<mgrwt>
<rscale>  0 0.90857694E+02</rscale>
<asrwt>0</asrwt>
<pdfrwt beam="1">  1        2 0.41952207E-02 0.90857694E+02</pdfrwt>
<pdfrwt beam="2">  1       -2 0.11643456E-01 0.90857694E+02</pdfrwt>
<totfact> 0.87127516E+04</totfact>
</mgrwt>
</event>
<event>
 5    1  0.3845386E+001  0.9209473E+02  0.7546771E-02  0.1297857E+00
          3   -1    0    0  501    0  0.00000000000E+00  0.00000000000E+00  0.23007169945E+03  0.23007169945E+03  0.00000000000E+00 0. -1.
         -3   -1    0    0    0  501 -0.00000000000E+00 -0.00000000000E+00 -0.92160830806E+01  0.92160830806E+01  0.00000000000E+00 0.  1.
         23    2    1    2    0    0  0.00000000000E+00  0.00000000000E+00  0.22085561637E+03  0.23928778253E+03  0.92094731590E+02 0.  0.
          2    1    3    3  502    0  0.40554529597E+02  0.21770032819E+02  0.11387059795E+03  0.12282148540E+03  0.00000000000E+00 0. -1.
         -2    1    3    3    0  502 -0.40554529597E+02 -0.21770032819E+02  0.10698501842E+03  0.11646629713E+03  0.00000000000E+00 0.  1.
<mgrwt>
<rscale>  0 0.92094732E+02</rscale>
<asrwt>0</asrwt>
<pdfrwt beam="1">  1        3 0.35395642E-01 0.92094732E+02</pdfrwt>
<pdfrwt beam="2">  1       -3 0.14178591E-02 0.92094732E+02</pdfrwt>
<totfact> 0.25878381E+04</totfact>
</mgrwt>
</event>
<event>
 5    1  0.3845386E+001  0.9300027E+02  0.7546771E-02  0.1295745E+00
          1   -1    0    0  501    0  0.00000000000E+00  0.00000000000E+00  0.24845728561E+04  0.24845728561E+04  0.00000000000E+00 0. -1.
         -1   -1    0    0    0  501 -0.00000000000E+00 -0.00000000000E+00 -0.87027532072E+00  0.87027532072E+00  0.00000000000E+00 0.  1.
         23    2    1    2    0    0  0.00000000000E+00  0.00000000000E+00  0.24837025808E+04  0.24854431314E+04  0.93000267509E+02 0.  0.
          2    1    3    3  502    0  0.35857861404E+02 -0.27552686159E+02  0.15313297215E+04  0.15319972756E+04  0.00000000000E+00 0. -1.
         -2    1    3    3    0  502 -0.35857861404E+02  0.27552686159E+02  0.95237285933E+03  0.95344585579E+03  0.00000000000E+00 0.  1.
<mgrwt>
<rscale>  0 0.93000268E+02</rscale>
<asrwt>0</asrwt>
<pdfrwt beam="1">  1        1 0.38223630E+00 0.93000268E+02</pdfrwt>
<pdfrwt beam="2">  1       -1 0.13389050E-03 0.93000268E+02</pdfrwt>
<totfact> 0.50334250E+04</totfact>
</mgrwt>
</event>
<event>
 5    1  0.3845386E+001  0.8859618E+02  0.7546771E-02  0.1306287E+00
         -1   -1    0    0    0  501 -0.00000000000E+00  0.00000000000E+00  0.19910213375E+02  0.19910213375E+02  0.00000000000E+00 0.  1.
          1   -1    0    0  501    0  0.00000000000E+00 -0.00000000000E+00 -0.98558510084E+02  0.98558510084E+02  0.00000000000E+00 0. -1.
         23    2    1    2    0    0  0.00000000000E+00  0.00000000000E+00 -0.78648296709E+02  0.11846872346E+03  0.88596184245E+02 0.  0.
          2    1    3    3  502    0  0.40296230478E+02  0.20507063787E+01 -0.63773984983E+02  0.75465970795E+02  0.00000000000E+00 0. -1.
         -2    1    3    3    0  502 -0.40296230478E+02 -0.20507063787E+01 -0.14874311725E+02  0.43002752664E+02  0.00000000000E+00 0.  1.
<mgrwt>
<rscale>  0 0.88596184E+02</rscale>
<asrwt>0</asrwt>
<pdfrwt beam="2">  1        1 0.15162847E-01 0.88596184E+02</pdfrwt>
<pdfrwt beam="1">  1       -1 0.30631098E-02 0.88596184E+02</pdfrwt>
<totfact> 0.11266404E+05</totfact>
</mgrwt>
</event>
<event>
 5    1  0.3845386E+001  0.9137782E+02  0.7546771E-02  0.1299549E+00
         -4   -1    0    0    0  501 -0.00000000000E+00  0.00000000000E+00  0.15906961901E+03  0.15906961901E+03  0.00000000000E+00 0. -1.
          4   -1    0    0  501    0  0.00000000000E+00 -0.00000000000E+00 -0.13123038378E+02  0.13123038378E+02  0.00000000000E+00 0.  1.
         23    2    1    2    0    0  0.00000000000E+00  0.00000000000E+00  0.14594658063E+03  0.17219265739E+03  0.91377824772E+02 0.  0.
          2    1    3    3  502    0  0.31435952489E+02  0.32089570450E+02  0.88684859287E+02  0.99413097262E+02  0.00000000000E+00 0. -1.
         -2    1    3    3    0  502 -0.31435952489E+02 -0.32089570450E+02  0.57261721343E+02  0.72779560123E+02  0.00000000000E+00 0.  1.
<mgrwt>
<rscale>  0 0.91377825E+02</rscale>
<asrwt>0</asrwt>
<pdfrwt beam="2">  1        4 0.20189291E-02 0.91377825E+02</pdfrwt>
<pdfrwt beam="1">  1       -4 0.24472248E-01 0.91377825E+02</pdfrwt>
<totfact> 0.22472644E+04</totfact>
</mgrwt>
</event>
<event>
 5    1  0.3845386E+001  0.9311772E+02  0.7546771E-02  0.1295473E+00
         -2   -1    0    0    0  501 -0.00000000000E+00  0.00000000000E+00  0.69400363521E+02  0.69400363521E+02  0.00000000000E+00 0.  1.
          2   -1    0    0  501    0  0.00000000000E+00 -0.00000000000E+00 -0.31235104182E+02  0.31235104182E+02  0.00000000000E+00 0. -1.
         23    2    1    2    0    0  0.00000000000E+00  0.00000000000E+00  0.38165259339E+02  0.10063546770E+03  0.93117723014E+02 0.  0.
          2    1    3    3  502    0  0.15826021930E+02  0.42169057599E+02  0.63393534100E+01  0.45484940261E+02  0.00000000000E+00 0. -1.
         -2    1    3    3    0  502 -0.15826021930E+02 -0.42169057599E+02  0.31825905929E+02  0.55150527442E+02  0.00000000000E+00 0.  1.
<mgrwt>
<rscale>  0 0.93117723E+02</rscale>
<asrwt>0</asrwt>
<pdfrwt beam="2">  1        2 0.48054006E-02 0.93117723E+02</pdfrwt>
<pdfrwt beam="1">  1       -2 0.10676979E-01 0.93117723E+02</pdfrwt>
<totfact> 0.84002870E+04</totfact>
</mgrwt>
</event>
<event>
 5    1  0.3845386E+001  0.9383322E+02  0.7546771E-02  0.1293826E+00
          2   -1    0    0  501    0  0.00000000000E+00  0.00000000000E+00  0.20091417867E+04  0.20091417867E+04  0.00000000000E+00 0. -1.
         -2   -1    0    0    0  501 -0.00000000000E+00 -0.00000000000E+00 -0.10955764297E+01  0.10955764297E+01  0.00000000000E+00 0.  1.
         23    2    1    2    0    0  0.00000000000E+00  0.00000000000E+00  0.20080462103E+04  0.20102373631E+04  0.93833221951E+02 0.  0.
          2    1    3    3  502    0 -0.35381923019E+02 -0.25267768419E+02  0.13817262759E+04  0.13824101570E+04  0.00000000000E+00 0. -1.
         -2    1    3    3    0  502  0.35381923019E+02  0.25267768419E+02  0.62631993438E+03  0.62782720616E+03  0.00000000000E+00 0.  1.
<mgrwt>
<rscale>  0 0.93833222E+02</rscale>
<asrwt>0</asrwt>
<pdfrwt beam="1">  1        2 0.30909579E+00 0.93833222E+02</pdfrwt>
<pdfrwt beam="2">  1       -2 0.16855183E-03 0.93833222E+02</pdfrwt>
<totfact> 0.18163135E+05</totfact>
</mgrwt>
</event>
<event>
 5    1  0.3845386E+001  0.9059161E+02  0.7546771E-02  0.1301425E+00
          3   -1    0    0  501    0  0.00000000000E+00  0.00000000000E+00  0.12890875368E+01  0.12890875368E+01  0.00000000000E+00 0. -1.
         -3   -1    0    0    0  501 -0.00000000000E+00 -0.00000000000E+00 -0.15915987882E+04  0.15915987882E+04  0.00000000000E+00 0.  1.
         23    2    1    2    0    0  0.00000000000E+00  0.00000000000E+00 -0.15903097006E+04  0.15928878757E+04  0.90591614652E+02 0.  0.
          2    1    3    3  502    0  0.89971596930E+01  0.26013358106E+02 -0.14276766531E+04  0.14279419699E+04  0.00000000000E+00 0.  1.
         -2    1    3    3    0  502 -0.89971596930E+01 -0.26013358106E+02 -0.16263304756E+03  0.16494590580E+03  0.00000000000E+00 0. -1.
<mgrwt>
<rscale>  0 0.90591615E+02</rscale>
<asrwt>0</asrwt>
<pdfrwt beam="1">  1        3 0.19832182E-03 0.90591615E+02</pdfrwt>
<pdfrwt beam="2">  1       -3 0.24486054E+00 0.90591615E+02</pdfrwt>
<totfact> 0.56224175E+03</totfact>
</mgrwt>
</event>
<event>
 4    1  0.3845386E+001  0.4245294E+02  0.7546771E-02  0.1490899E+00
         -3   -1    0    0    0  501 -0.00000000000E+00  0.00000000000E+00  0.34391114871E+01  0.34391114871E+01  0.00000000000E+00 0.  1.
          3   -1    0    0  501    0  0.00000000000E+00 -0.00000000000E+00 -0.13101144021E+03  0.13101144021E+03  0.00000000000E+00 0. -1.
          2    1    1    2  502    0  0.12838632382E+02 -0.16022087475E+02 -0.46723677912E+02  0.51035672290E+02  0.00000000000E+00 0.  1.
         -2    1    1    2    0  502 -0.12838632382E+02  0.16022087475E+02 -0.80848650815E+02  0.83414879410E+02  0.00000000000E+00 0. -1.
<mgrwt>
<rscale>  0 0.42452936E+02</rscale>
<asrwt>0</asrwt>
<pdfrwt beam="2">  1        3 0.20155606E-01 0.42452936E+02</pdfrwt>
<pdfrwt beam="1">  1       -3 0.52909409E-03 0.42452936E+02</pdfrwt>
<totfact> 0.23183224E+05</totfact>
</mgrwt>
</event>
<event>
 5    1  0.3845386E+001  0.9213441E+02  0.7546771E-02  0.1297764E+00
         -1   -1    0    0    0  501 -0.00000000000E+00  0.00000000000E+00  0.66274144920E+02  0.66274144920E+02  0.00000000000E+00 0.  1.
          1   -1    0    0  501    0  0.00000000000E+00 -0.00000000000E+00 -0.32021345014E+02  0.32021345014E+02  0.00000000000E+00 0. -1.
         23    2    1    2    0    0  0.00000000000E+00  0.00000000000E+00  0.34252799906E+02  0.98295489934E+02  0.92134407471E+02 0.  0.
          2    1    3    3  502    0 -0.40654735709E+02 -0.20891642176E+02  0.11005220134E+02  0.47014711726E+02  0.00000000000E+00 0.  1.
         -2    1    3    3    0  502  0.40654735709E+02  0.20891642176E+02  0.23247579772E+02  0.51280778209E+02  0.00000000000E+00 0. -1.
<mgrwt>
<rscale>  0 0.92134407E+02</rscale>
<asrwt>0</asrwt>
<pdfrwt beam="2">  1        1 0.49263608E-02 0.92134407E+02</pdfrwt>
<pdfrwt beam="1">  1       -1 0.10196022E-01 0.92134407E+02</pdfrwt>
<totfact> 0.85009611E+04</totfact>
</mgrwt>
</event>
<event>
 5    1  0.3845386E+001  0.9157117E+02  0.7546771E-02  0.1299091E+00
          2   -1    0    0  501    0  0.00000000000E+00  0.00000000000E+00  0.15002367351E+04  0.15002367351E+04  0.00000000000E+00 0. -1.
         -2   -1    0    0    0  501 -0.00000000000E+00 -0.00000000000E+00 -0.13973259205E+01  0.13973259205E+01  0.00000000000E+00 0.  1.
         23    2    1    2    0    0  0.00000000000E+00  0.00000000000E+00  0.14988394092E+04  0.15016340610E+04  0.91571167445E+02 0.  0.
          2    1    3    3  502    0  0.71228245199E+01 -0.39822976334E+02  0.39781880142E+03  0.39987048258E+03  0.00000000000E+00 0. -1.
         -2    1    3    3    0  502 -0.71228245199E+01  0.39822976334E+02  0.11010206078E+04  0.11017635785E+04  0.00000000000E+00 0.  1.
<mgrwt>
<rscale>  0 0.91571167E+02</rscale>
<asrwt>0</asrwt>
<pdfrwt beam="1">  1        2 0.23080436E+00 0.91571167E+02</pdfrwt>
<pdfrwt beam="2">  1       -2 0.21497442E-03 0.91571167E+02</pdfrwt>
<totfact> 0.23328392E+05</totfact>
</mgrwt>
</event>
<event>
 5    1  0.3845386E+001  0.9328614E+02  0.7546771E-02  0.1295083E+00
          1   -1    0    0  501    0  0.00000000000E+00  0.00000000000E+00  0.27480392811E+02  0.27480392811E+02  0.00000000000E+00 0. -1.
         -1   -1    0    0    0  501 -0.00000000000E+00 -0.00000000000E+00 -0.79168305821E+02  0.79168305821E+02  0.00000000000E+00 0.  1.
         23    2    1    2    0    0  0.00000000000E+00  0.00000000000E+00 -0.51687913010E+02  0.10664869863E+03  0.93286143498E+02 0.  0.
          2    1    3    3  502    0  0.27967066897E+02  0.36349336211E+02 -0.35554459926E+02  0.58030601362E+02  0.00000000000E+00 0.  1.
         -2    1    3    3    0  502 -0.27967066897E+02 -0.36349336211E+02 -0.16133453084E+02  0.48618097271E+02  0.00000000000E+00 0. -1.
<mgrwt>
<rscale>  0 0.93286143E+02</rscale>
<asrwt>0</asrwt>
<pdfrwt beam="1">  1        1 0.42277529E-02 0.93286143E+02</pdfrwt>
<pdfrwt beam="2">  1       -1 0.12179739E-01 0.93286143E+02</pdfrwt>
<totfact> 0.79973733E+04</totfact>
</mgrwt>
</event>
<event>
 5    1  0.3845386E+001  0.8893628E+02  0.7546771E-02  0.1305448E+00
          2   -1    0    0  501    0  0.00000000000E+00  0.00000000000E+00  0.35097840977E+03  0.35097840977E+03  0.00000000000E+00 0. -1.
         -2   -1    0    0    0  501 -0.00000000000E+00 -0.00000000000E+00 -0.56340085433E+01  0.56340085433E+01  0.00000000000E+00 0.  1.
         23    2    1    2    0    0  0.00000000000E+00  0.00000000000E+00  0.34534440123E+03  0.35661241831E+03  0.88936277394E+02 0.  0.
          2    1    3    3  502    0  0.28769181946E+02 -0.52866469095E+01  0.30697201306E+03  0.30836249977E+03  0.00000000000E+00 0. -1.
         -2    1    3    3    0  502 -0.28769181946E+02  0.52866469095E+01  0.38372388168E+02  0.48249918539E+02  0.00000000000E+00 0.  1.
<mgrwt>
<rscale>  0 0.88936277E+02</rscale>
<asrwt>0</asrwt>
<pdfrwt beam="1">  1        2 0.53996661E-01 0.88936277E+02</pdfrwt>
<pdfrwt beam="2">  1       -2 0.86677082E-03 0.88936277E+02</pdfrwt>
<totfact> 0.20339548E+05</totfact>
</mgrwt>
</event>
<event>
 5    1  0.3845386E+001  0.9110614E+02  0.7546771E-02  0.1300195E+00
         -1   -1    0    0    0  501 -0.00000000000E+00  0.00000000000E+00  0.27507911067E+03  0.27507911067E+03  0.00000000000E+00 0.  1.
          1   -1    0    0  501    0  0.00000000000E+00 -0.00000000000E+00 -0.75435827877E+01  0.75435827877E+01  0.00000000000E+00 0. -1.
         23    2    1    2    0    0  0.00000000000E+00  0.00000000000E+00  0.26753552788E+03  0.28262269345E+03  0.91106136884E+02 0.  0.
          2    1    3    3  502    0  0.32720242587E+02 -0.60823243700E+01  0.23025699564E+03  0.23264972165E+03  0.00000000000E+00 0.  1.
         -2    1    3    3    0  502 -0.32720242587E+02  0.60823243700E+01  0.37278532240E+02  0.49972971801E+02  0.00000000000E+00 0. -1.
<mgrwt>
<rscale>  0 0.91106137E+02</rscale>
<asrwt>0</asrwt>
<pdfrwt beam="2">  1        1 0.11605514E-02 0.91106137E+02</pdfrwt>
<pdfrwt beam="1">  1       -1 0.42319855E-01 0.91106137E+02</pdfrwt>
<totfact> 0.62743838E+04</totfact>
</mgrwt>
</event>
<event>
 5    1  0.3845386E+001  0.9530193E+02  0.7546771E-02  0.1290498E+00
         -2   -1    0    0    0  501 -0.00000000000E+00  0.00000000000E+00  0.66132749746E+01  0.66132749746E+01  0.00000000000E+00 0.  1.
          2   -1    0    0  501    0  0.00000000000E+00 -0.00000000000E+00 -0.34334190349E+03  0.34334190349E+03  0.00000000000E+00 0. -1.
         23    2    1    2    0    0  0.00000000000E+00  0.00000000000E+00 -0.33672862852E+03  0.34995517847E+03  0.95301929006E+02 0.  0.
          2    1    3    3  502    0  0.30935058920E+02 -0.21852199701E+02 -0.62183879853E+02  0.72810242519E+02  0.00000000000E+00 0.  1.
         -2    1    3    3    0  502 -0.30935058920E+02  0.21852199701E+02 -0.27454474866E+03  0.27714493595E+03  0.00000000000E+00 0. -1.
<mgrwt>
<rscale>  0 0.95301929E+02</rscale>
<asrwt>0</asrwt>
<pdfrwt beam="2">  1        2 0.52821813E-01 0.95301929E+02</pdfrwt>
<pdfrwt beam="1">  1       -2 0.10174273E-02 0.95301929E+02</pdfrwt>
<totfact> 0.16782170E+05</totfact>
</mgrwt>
</event>
<event>
 5    1  0.3845386E+001  0.9022904E+02  0.7546771E-02  0.1302298E+00
          2   -1    0    0  501    0  0.00000000000E+00  0.00000000000E+00  0.19463905234E+03  0.19463905234E+03  0.00000000000E+00 0. -1.
         -2   -1    0    0    0  501 -0.00000000000E+00 -0.00000000000E+00 -0.10456892811E+02  0.10456892811E+02  0.00000000000E+00 0.  1.
         23    2    1    2    0    0  0.00000000000E+00  0.00000000000E+00  0.18418215953E+03  0.20509594515E+03  0.90229035398E+02 0.  0.
          2    1    3    3  502    0 -0.16489767416E+02  0.40287385768E+02  0.11901832603E+03  0.12672942757E+03  0.00000000000E+00 0. -1.
         -2    1    3    3    0  502  0.16489767416E+02 -0.40287385768E+02  0.65163833498E+02  0.78366517580E+02  0.00000000000E+00 0.  1.
<mgrwt>
<rscale>  0 0.90229035E+02</rscale>
<asrwt>0</asrwt>
<pdfrwt beam="1">  1        2 0.29944467E-01 0.90229035E+02</pdfrwt>
<pdfrwt beam="2">  1       -2 0.16087529E-02 0.90229035E+02</pdfrwt>
<totfact> 0.15753878E+05</totfact>
</mgrwt>
</event>
<event>
 5    1  0.3845386E+001  0.9190301E+02  0.7546771E-02  0.1298308E+00
         -2   -1    0    0    0  501 -0.00000000000E+00  0.00000000000E+00  0.24531832828E+01  0.24531832828E+01  0.00000000000E+00 0.  1.
          2   -1    0    0  501    0  0.00000000000E+00 -0.00000000000E+00 -0.86073511682E+03  0.86073511682E+03  0.00000000000E+00 0. -1.
         23    2    1    2    0    0  0.00000000000E+00  0.00000000000E+00 -0.85828193354E+03  0.86318830010E+03  0.91903014086E+02 0.  0.
          2    1    3    3  502    0  0.71881885801E+01  0.39617563487E+02 -0.63711802011E+03  0.63838906079E+03  0.00000000000E+00 0. -1.
         -2    1    3    3    0  502 -0.71881885801E+01 -0.39617563487E+02 -0.22116391343E+03  0.22479923931E+03  0.00000000000E+00 0.  1.
<mgrwt>
<rscale>  0 0.91903014E+02</rscale>
<asrwt>0</asrwt>
<pdfrwt beam="2">  1        2 0.13242084E+00 0.91903014E+02</pdfrwt>
<pdfrwt beam="1">  1       -2 0.37741267E-03 0.91903014E+02</pdfrwt>
<totfact> 0.24145763E+05</totfact>
</mgrwt>
</event>
<event>
 5    1  0.3845386E+001  0.9267320E+02  0.7546771E-02  0.1296504E+00
          1   -1    0    0  501    0  0.00000000000E+00  0.00000000000E+00  0.23619146294E+02  0.23619146294E+02  0.00000000000E+00 0. -1.
         -1   -1    0    0    0  501 -0.00000000000E+00 -0.00000000000E+00 -0.90904247416E+02  0.90904247416E+02  0.00000000000E+00 0.  1.
         23    2    1    2    0    0  0.00000000000E+00  0.00000000000E+00 -0.67285101121E+02  0.11452339371E+03  0.92673204725E+02 0.  0.
          2    1    3    3  502    0  0.23300338901E+02 -0.30119912577E+02 -0.10179082426E+01  0.38093976739E+02  0.00000000000E+00 0. -1.
         -2    1    3    3    0  502 -0.23300338901E+02  0.30119912577E+02 -0.66267192879E+02  0.76429416972E+02  0.00000000000E+00 0.  1.
<mgrwt>
<rscale>  0 0.92673205E+02</rscale>
<asrwt>0</asrwt>
<pdfrwt beam="1">  1        1 0.36337148E-02 0.92673205E+02</pdfrwt>
<pdfrwt beam="2">  1       -1 0.13985269E-01 0.92673205E+02</pdfrwt>
<totfact> 0.79399754E+04</totfact>
</mgrwt>
</event>
<event>
 5    1  0.3845386E+001  0.9381236E+02  0.7546771E-02  0.1293874E+00
          3   -1    0    0  501    0  0.00000000000E+00  0.00000000000E+00  0.22611131253E+02  0.22611131253E+02  0.00000000000E+00 0. -1.
         -3   -1    0    0    0  501 -0.00000000000E+00 -0.00000000000E+00 -0.97305598723E+02  0.97305598723E+02  0.00000000000E+00 0.  1.
         23    2    1    2    0    0  0.00000000000E+00  0.00000000000E+00 -0.74694467470E+02  0.11991672998E+03  0.93812358768E+02 0.  0.
          2    1    3    3  502    0  0.37391789244E+02 -0.25555489008E+02 -0.21746118797E+02  0.50240646931E+02  0.00000000000E+00 0. -1.
         -2    1    3    3    0  502 -0.37391789244E+02  0.25555489008E+02 -0.52948348673E+02  0.69676083045E+02  0.00000000000E+00 0.  1.
<mgrwt>
<rscale>  0 0.93812359E+02</rscale>
<asrwt>0</asrwt>
<pdfrwt beam="1">  1        3 0.34786356E-02 0.93812359E+02</pdfrwt>
<pdfrwt beam="2">  1       -3 0.14970092E-01 0.93812359E+02</pdfrwt>
<totfact> 0.30769546E+04</totfact>
</mgrwt>
</event>
<event>
 5    1  0.3845386E+001  0.9602640E+02  0.7546771E-02  0.1288881E+00
         -2   -1    0    0    0  501 -0.00000000000E+00  0.00000000000E+00  0.68853140378E+02  0.68853140378E+02  0.00000000000E+00 0.  1.
          2   -1    0    0  501    0  0.00000000000E+00 -0.00000000000E+00 -0.33480933780E+02  0.33480933780E+02  0.00000000000E+00 0. -1.
         23    2    1    2    0    0  0.00000000000E+00  0.00000000000E+00  0.35372206598E+02  0.10233407416E+03  0.96026401236E+02 0.  0.
          2    1    3    3  502    0 -0.25900591302E+02  0.90394579743E+01 -0.24306759816E+02  0.36652025906E+02  0.00000000000E+00 0. -1.
         -2    1    3    3    0  502  0.25900591302E+02 -0.90394579743E+01  0.59678966414E+02  0.65682048252E+02  0.00000000000E+00 0.  1.
<mgrwt>
<rscale>  0 0.96026401E+02</rscale>
<asrwt>0</asrwt>
<pdfrwt beam="2">  1        2 0.51509129E-02 0.96026401E+02</pdfrwt>
<pdfrwt beam="1">  1       -2 0.10592791E-01 0.96026401E+02</pdfrwt>
<totfact> 0.78122646E+04</totfact>
</mgrwt>
</event>
<event>
 5    1  0.3845386E+001  0.9091095E+02  0.7546771E-02  0.1300661E+00
         -3   -1    0    0    0  501 -0.00000000000E+00  0.00000000000E+00  0.13768542995E+02  0.13768542995E+02  0.00000000000E+00 0.  1.
          3   -1    0    0  501    0  0.00000000000E+00 -0.00000000000E+00 -0.15006674227E+03  0.15006674227E+03  0.00000000000E+00 0. -1.
         23    2    1    2    0    0  0.00000000000E+00  0.00000000000E+00 -0.13629819928E+03  0.16383528527E+03  0.90910954083E+02 0.  0.
          2    1    3    3  502    0  0.25932496732E+02 -0.33160049166E+02 -0.99055711448E+02  0.10762953692E+03  0.00000000000E+00 0. -1.
         -2    1    3    3    0  502 -0.25932496732E+02  0.33160049166E+02 -0.37242487831E+02  0.56205748347E+02  0.00000000000E+00 0.  1.
<mgrwt>
<rscale>  0 0.90910954E+02</rscale>
<asrwt>0</asrwt>
<pdfrwt beam="2">  1        3 0.23087191E-01 0.90910954E+02</pdfrwt>
<pdfrwt beam="1">  1       -3 0.21182374E-02 0.90910954E+02</pdfrwt>
<totfact> 0.30723256E+04</totfact>
</mgrwt>
</event>
<event>
 5    1  0.3845386E+001  0.9259582E+02  0.7546771E-02  0.1296685E+00
         -1   -1    0    0    0  501 -0.00000000000E+00  0.00000000000E+00  0.98530254040E+02  0.98530254040E+02  0.00000000000E+00 0.  1.
          1   -1    0    0  501    0  0.00000000000E+00 -0.00000000000E+00 -0.21754704009E+02  0.21754704009E+02  0.00000000000E+00 0. -1.
         23    2    1    2    0    0  0.00000000000E+00  0.00000000000E+00  0.76775550031E+02  0.12028495805E+03  0.92595820911E+02 0.  0.
          2    1    3    3  502    0 -0.70445610240E+01  0.27786316353E+02 -0.88404233465E+01  0.29997638264E+02  0.00000000000E+00 0. -1.
         -2    1    3    3    0  502  0.70445610240E+01 -0.27786316353E+02  0.85615973377E+02  0.90287319784E+02  0.00000000000E+00 0.  1.
<mgrwt>
<rscale>  0 0.92595821E+02</rscale>
<asrwt>0</asrwt>
<pdfrwt beam="2">  1        1 0.33468776E-02 0.92595821E+02</pdfrwt>
<pdfrwt beam="1">  1       -1 0.15158500E-01 0.92595821E+02</pdfrwt>
<totfact> 0.78410230E+04</totfact>
</mgrwt>
</event>
<event>
 5    1  0.3845386E+001  0.9013934E+02  0.7546771E-02  0.1302515E+00
         -1   -1    0    0    0  501 -0.00000000000E+00  0.00000000000E+00  0.18107951800E+01  0.18107951800E+01  0.00000000000E+00 0.  1.
          1   -1    0    0  501    0  0.00000000000E+00 -0.00000000000E+00 -0.11217587366E+04  0.11217587366E+04  0.00000000000E+00 0. -1.
         23    2    1    2    0    0  0.00000000000E+00  0.00000000000E+00 -0.11199479414E+04  0.11235695317E+04  0.90139343535E+02 0.  0.
          2    1    3    3  502    0  0.44567028801E+02  0.13166309040E+01 -0.47793154181E+03  0.48000678352E+03  0.00000000000E+00 0.  1.
         -2    1    3    3    0  502 -0.44567028801E+02 -0.13166309040E+01 -0.64201639958E+03  0.64356274823E+03  0.00000000000E+00 0. -1.
<mgrwt>
<rscale>  0 0.90139344E+02</rscale>
<asrwt>0</asrwt>
<pdfrwt beam="2">  1        1 0.17257820E+00 0.90139344E+02</pdfrwt>
<pdfrwt beam="1">  1       -1 0.27858398E-03 0.90139344E+02</pdfrwt>
<totfact> 0.13505509E+05</totfact>
</mgrwt>
</event>
<event>
 5    1  0.3845386E+001  0.9415410E+02  0.7546771E-02  0.1293093E+00
         -1   -1    0    0    0  501 -0.00000000000E+00  0.00000000000E+00  0.87664404636E+00  0.87664404636E+00  0.00000000000E+00 0.  1.
          1   -1    0    0  501    0  0.00000000000E+00 -0.00000000000E+00 -0.25281056468E+04  0.25281056468E+04  0.00000000000E+00 0. -1.
         23    2    1    2    0    0  0.00000000000E+00  0.00000000000E+00 -0.25272290028E+04  0.25289822909E+04  0.94154102701E+02 0.  0.
          2    1    3    3  502    0 -0.33464594534E+02  0.15673393331E+02 -0.20470413229E+04  0.20473748343E+04  0.00000000000E+00 0. -1.
         -2    1    3    3    0  502  0.33464594534E+02 -0.15673393331E+02 -0.48018767987E+03  0.48160745659E+03  0.00000000000E+00 0.  1.
<mgrwt>
<rscale>  0 0.94154103E+02</rscale>
<asrwt>0</asrwt>
<pdfrwt beam="2">  1        1 0.38894249E+00 0.94154103E+02</pdfrwt>
<pdfrwt beam="1">  1       -1 0.13486722E-03 0.94154103E+02</pdfrwt>
<totfact> 0.46760200E+04</totfact>
</mgrwt>
</event>
<event>
 5    1  0.3845386E+001  0.8900805E+02  0.7546771E-02  0.1305272E+00
          1   -1    0    0  501    0  0.00000000000E+00  0.00000000000E+00  0.17483356698E+03  0.17483356698E+03  0.00000000000E+00 0. -1.
         -1   -1    0    0    0  501 -0.00000000000E+00 -0.00000000000E+00 -0.11328535701E+02  0.11328535701E+02  0.00000000000E+00 0.  1.
         23    2    1    2    0    0  0.00000000000E+00  0.00000000000E+00  0.16350503128E+03  0.18616210268E+03  0.89008051439E+02 0.  0.
          2    1    3    3  502    0 -0.37208956997E+02  0.23636240179E+02  0.68956588802E+02  0.81842467398E+02  0.00000000000E+00 0. -1.
         -2    1    3    3    0  502  0.37208956997E+02 -0.23636240179E+02  0.94548442479E+02  0.10431963528E+03  0.00000000000E+00 0.  1.
<mgrwt>
<rscale>  0 0.89008051E+02</rscale>
<asrwt>0</asrwt>
<pdfrwt beam="1">  1        1 0.26897470E-01 0.89008051E+02</pdfrwt>
<pdfrwt beam="2">  1       -1 0.17428518E-02 0.89008051E+02</pdfrwt>
<totfact> 0.12308389E+05</totfact>
</mgrwt>
</event>
<event>
 5    1  0.3845386E+001  0.8942246E+02  0.7546771E-02  0.1304256E+00
          1   -1    0    0  501    0  0.00000000000E+00  0.00000000000E+00  0.84586529524E+01  0.84586529524E+01  0.00000000000E+00 0. -1.
         -1   -1    0    0    0  501 -0.00000000000E+00 -0.00000000000E+00 -0.23633718222E+03  0.23633718222E+03  0.00000000000E+00 0.  1.
         23    2    1    2    0    0  0.00000000000E+00  0.00000000000E+00 -0.22787852927E+03  0.24479583517E+03  0.89422462596E+02 0.  0.
          2    1    3    3  502    0 -0.40196936249E+02 -0.17022112642E+02 -0.87461877813E+02  0.97750325182E+02  0.00000000000E+00 0.  1.
         -2    1    3    3    0  502  0.40196936249E+02  0.17022112642E+02 -0.14041665146E+03  0.14704550999E+03  0.00000000000E+00 0. -1.
<mgrwt>
<rscale>  0 0.89422463E+02</rscale>
<asrwt>0</asrwt>
<pdfrwt beam="1">  1        1 0.13013313E-02 0.89422463E+02</pdfrwt>
<pdfrwt beam="2">  1       -1 0.36359565E-01 0.89422463E+02</pdfrwt>
<totfact> 0.69410543E+04</totfact>
</mgrwt>
</event>
<event>
 5    1  0.3845386E+001  0.9084298E+02  0.7546771E-02  0.1300823E+00
         -2   -1    0    0    0  501 -0.00000000000E+00  0.00000000000E+00  0.30536976011E+01  0.30536976011E+01  0.00000000000E+00 0.  1.
          2   -1    0    0  501    0  0.00000000000E+00 -0.00000000000E+00 -0.67561104261E+03  0.67561104261E+03  0.00000000000E+00 0. -1.
         23    2    1    2    0    0  0.00000000000E+00  0.00000000000E+00 -0.67255734501E+03  0.67866474021E+03  0.90842981459E+02 0.  0.
          2    1    3    3  502    0  0.94075982186E+01 -0.22523042607E+02 -0.62245027972E+03  0.62292868057E+03  0.00000000000E+00 0. -1.
         -2    1    3    3    0  502 -0.94075982186E+01  0.22523042607E+02 -0.50107065290E+02  0.55736059643E+02  0.00000000000E+00 0.  1.
<mgrwt>
<rscale>  0 0.90842981E+02</rscale>
<asrwt>0</asrwt>
<pdfrwt beam="2">  1        2 0.10394017E+00 0.90842981E+02</pdfrwt>
<pdfrwt beam="1">  1       -2 0.46979959E-03 0.90842981E+02</pdfrwt>
<totfact> 0.23742451E+05</totfact>
</mgrwt>
</event>
<event>
 5    1  0.3845386E+001  0.9152358E+02  0.7546771E-02  0.1299204E+00
          1   -1    0    0  501    0  0.00000000000E+00  0.00000000000E+00  0.24716832585E+02  0.24716832585E+02  0.00000000000E+00 0.  1.
         -1   -1    0    0    0  501 -0.00000000000E+00 -0.00000000000E+00 -0.84725307512E+02  0.84725307512E+02  0.00000000000E+00 0. -1.
         23    2    1    2    0    0  0.00000000000E+00  0.00000000000E+00 -0.60008474926E+02  0.10944214010E+03  0.91523576012E+02 0.  0.
          2    1    3    3  502    0  0.14401628796E+02  0.23175247284E+02 -0.73934209601E+02  0.78808415464E+02  0.00000000000E+00 0. -1.
         -2    1    3    3    0  502 -0.14401628796E+02 -0.23175247284E+02  0.13925734675E+02  0.30633724633E+02  0.00000000000E+00 0.  1.
<mgrwt>
<rscale>  0 0.91523576E+02</rscale>
<asrwt>0</asrwt>
<pdfrwt beam="1">  1        1 0.38025897E-02 0.91523576E+02</pdfrwt>
<pdfrwt beam="2">  1       -1 0.13034663E-01 0.91523576E+02</pdfrwt>
<totfact> 0.83011477E+04</totfact>
</mgrwt>
</event>
<event>
 5    1  0.3845386E+001  0.9066339E+02  0.7546771E-02  0.1301253E+00
         -2   -1    0    0    0  501 -0.00000000000E+00  0.00000000000E+00  0.20981161218E+01  0.20981161218E+01  0.00000000000E+00 0.  1.
          2   -1    0    0  501    0  0.00000000000E+00 -0.00000000000E+00 -0.97943232761E+03  0.97943232761E+03  0.00000000000E+00 0. -1.
         23    2    1    2    0    0  0.00000000000E+00  0.00000000000E+00 -0.97733421149E+03  0.98153044373E+03  0.90663394085E+02 0.  0.
          2    1    3    3  502    0  0.27699815251E+02 -0.21359629440E+02 -0.17649818221E+03  0.17993088078E+03  0.00000000000E+00 0.  1.
         -2    1    3    3    0  502 -0.27699815251E+02  0.21359629440E+02 -0.80083602928E+03  0.80159956295E+03  0.00000000000E+00 0. -1.
<mgrwt>
<rscale>  0 0.90663394E+02</rscale>
<asrwt>0</asrwt>
<pdfrwt beam="2">  1        2 0.15068184E+00 0.90663394E+02</pdfrwt>
<pdfrwt beam="1">  1       -2 0.32278723E-03 0.90663394E+02</pdfrwt>
<totfact> 0.25349037E+05</totfact>
</mgrwt>
</event>
<event>
 5    1  0.3845386E+001  0.9026271E+02  0.7546771E-02  0.1302217E+00
         -1   -1    0    0    0  501 -0.00000000000E+00  0.00000000000E+00  0.29140266411E+01  0.29140266411E+01  0.00000000000E+00 0.  1.
          1   -1    0    0  501    0  0.00000000000E+00 -0.00000000000E+00 -0.69897758955E+03  0.69897758955E+03  0.00000000000E+00 0. -1.
         23    2    1    2    0    0  0.00000000000E+00  0.00000000000E+00 -0.69606356291E+03  0.70189161619E+03  0.90262712511E+02 0.  0.
          2    1    3    3  502    0  0.33630933199E+02 -0.20032331415E+02 -0.52269222613E+03  0.52415598559E+03  0.00000000000E+00 0. -1.
         -2    1    3    3    0  502 -0.33630933199E+02  0.20032331415E+02 -0.17337133678E+03  0.17773563060E+03  0.00000000000E+00 0.  1.
<mgrwt>
<rscale>  0 0.90262713E+02</rscale>
<asrwt>0</asrwt>
<pdfrwt beam="2">  1        1 0.10753491E+00 0.90262713E+02</pdfrwt>
<pdfrwt beam="1">  1       -1 0.44831222E-03 0.90262713E+02</pdfrwt>
<totfact> 0.14601472E+05</totfact>
</mgrwt>
</event>
<event>
 5    1  0.3845386E+001  0.9181809E+02  0.7546771E-02  0.1298508E+00
          1   -1    0    0  501    0  0.00000000000E+00  0.00000000000E+00  0.14170338861E+02  0.14170338861E+02  0.00000000000E+00 0. -1.
         -1   -1    0    0    0  501 -0.00000000000E+00 -0.00000000000E+00 -0.14873606286E+03  0.14873606286E+03  0.00000000000E+00 0.  1.
         23    2    1    2    0    0  0.00000000000E+00  0.00000000000E+00 -0.13456572400E+03  0.16290640172E+03  0.91818089972E+02 0.  0.
          2    1    3    3  502    0  0.27546596694E+02 -0.35696747018E+02 -0.51961929595E+02  0.68797637054E+02  0.00000000000E+00 0. -1.
         -2    1    3    3    0  502 -0.27546596694E+02  0.35696747018E+02 -0.82603794405E+02  0.94108764667E+02  0.00000000000E+00 0.  1.
<mgrwt>
<rscale>  0 0.91818090E+02</rscale>
<asrwt>0</asrwt>
<pdfrwt beam="1">  1        1 0.21800521E-02 0.91818090E+02</pdfrwt>
<pdfrwt beam="2">  1       -1 0.22882471E-01 0.91818090E+02</pdfrwt>
<totfact> 0.73584311E+04</totfact>
</mgrwt>
</event>
<event>
 5    1  0.3845386E+001  0.8211690E+02  0.7546771E-02  0.1323149E+00
         -1   -1    0    0    0  501 -0.00000000000E+00  0.00000000000E+00  0.22819048159E+02  0.22819048159E+02  0.00000000000E+00 0.  1.
          1   -1    0    0  501    0  0.00000000000E+00 -0.00000000000E+00 -0.73876713917E+02  0.73876713917E+02  0.00000000000E+00 0. -1.
         23    2    1    2    0    0  0.00000000000E+00  0.00000000000E+00 -0.51057665758E+02  0.96695762075E+02  0.82116899422E+02 0.  0.
          2    1    3    3  502    0 -0.27833516443E+02  0.27287208520E+02 -0.40723174770E+02  0.56370855499E+02  0.00000000000E+00 0. -1.
         -2    1    3    3    0  502  0.27833516443E+02 -0.27287208520E+02 -0.10334490989E+02  0.40324906576E+02  0.00000000000E+00 0.  1.
<mgrwt>
<rscale>  0 0.82116899E+02</rscale>
<asrwt>0</asrwt>
<pdfrwt beam="2">  1        1 0.11365648E-01 0.82116899E+02</pdfrwt>
<pdfrwt beam="1">  1       -1 0.35106228E-02 0.82116899E+02</pdfrwt>
<totfact> 0.13240524E+05</totfact>
</mgrwt>
</event>
<event>
 5    1  0.3845386E+001  0.9076227E+02  0.7546771E-02  0.1301016E+00
         -1   -1    0    0    0  501 -0.00000000000E+00  0.00000000000E+00  0.76123406615E+03  0.76123406615E+03  0.00000000000E+00 0.  1.
          1   -1    0    0  501    0  0.00000000000E+00 -0.00000000000E+00 -0.27054062696E+01  0.27054062696E+01  0.00000000000E+00 0. -1.
         23    2    1    2    0    0  0.00000000000E+00  0.00000000000E+00  0.75852865988E+03  0.76393947242E+03  0.90762270029E+02 0.  0.
          2    1    3    3  502    0 -0.23939236797E+01 -0.45314468407E+02  0.37453661114E+03  0.37727550278E+03  0.00000000000E+00 0. -1.
         -2    1    3    3    0  502  0.23939236797E+01  0.45314468407E+02  0.38399204874E+03  0.38666396964E+03  0.00000000000E+00 0.  1.
<mgrwt>
<rscale>  0 0.90762270E+02</rscale>
<asrwt>0</asrwt>
<pdfrwt beam="2">  1        1 0.41621695E-03 0.90762270E+02</pdfrwt>
<pdfrwt beam="1">  1       -1 0.11711276E+00 0.90762270E+02</pdfrwt>
<totfact> 0.34632228E+04</totfact>
</mgrwt>
</event>
<event>
 5    1  0.3845386E+001  0.9336002E+02  0.7546771E-02  0.1294913E+00
         -2   -1    0    0    0  501 -0.00000000000E+00  0.00000000000E+00  0.91218176288E+00  0.91218176288E+00  0.00000000000E+00 0. -1.
          2   -1    0    0  501    0  0.00000000000E+00 -0.00000000000E+00 -0.23888036687E+04  0.23888036687E+04  0.00000000000E+00 0.  1.
         23    2    1    2    0    0  0.00000000000E+00  0.00000000000E+00 -0.23878914869E+04  0.23897158505E+04  0.93360015889E+02 0.  0.
          2    1    3    3  502    0 -0.45326748506E+02  0.32279629979E+01 -0.92053993237E+03  0.92166083836E+03  0.00000000000E+00 0. -1.
         -2    1    3    3    0  502  0.45326748506E+02 -0.32279629979E+01 -0.14673515546E+04  0.14680550121E+04  0.00000000000E+00 0.  1.
<mgrwt>
<rscale>  0 0.93360016E+02</rscale>
<asrwt>0</asrwt>
<pdfrwt beam="2">  1        2 0.36750105E+00 0.93360016E+02</pdfrwt>
<pdfrwt beam="1">  1       -2 0.14033841E-03 0.93360016E+02</pdfrwt>
<totfact> 0.14974709E+05</totfact>
</mgrwt>
</event>
<event>
 5    1  0.3845386E+001  0.8991045E+02  0.7546771E-02  0.1303069E+00
         -1   -1    0    0    0  501 -0.00000000000E+00  0.00000000000E+00  0.13214839743E+02  0.13214839743E+02  0.00000000000E+00 0.  1.
          1   -1    0    0  501    0  0.00000000000E+00 -0.00000000000E+00 -0.15293204561E+03  0.15293204561E+03  0.00000000000E+00 0. -1.
         23    2    1    2    0    0  0.00000000000E+00  0.00000000000E+00 -0.13971720586E+03  0.16614688535E+03  0.89910454881E+02 0.  0.
          2    1    3    3  502    0 -0.40504020143E+01 -0.34051255789E+02 -0.12357793280E+03  0.12824741421E+03  0.00000000000E+00 0. -1.
         -2    1    3    3    0  502  0.40504020143E+01  0.34051255789E+02 -0.16139273063E+02  0.37899471135E+02  0.00000000000E+00 0.  1.
<mgrwt>
<rscale>  0 0.89910455E+02</rscale>
<asrwt>0</asrwt>
<pdfrwt beam="2">  1        1 0.23528006E-01 0.89910455E+02</pdfrwt>
<pdfrwt beam="1">  1       -1 0.20330523E-02 0.89910455E+02</pdfrwt>
<totfact> 0.11685226E+05</totfact>
</mgrwt>
</event>
<event>
 5    1  0.3845386E+001  0.8937411E+02  0.7546771E-02  0.1304374E+00
         -3   -1    0    0    0  501 -0.00000000000E+00  0.00000000000E+00  0.28134937815E+02  0.28134937815E+02  0.00000000000E+00 0.  1.
          3   -1    0    0  501    0  0.00000000000E+00 -0.00000000000E+00 -0.70976986278E+02  0.70976986278E+02  0.00000000000E+00 0. -1.
         23    2    1    2    0    0  0.00000000000E+00  0.00000000000E+00 -0.42842048463E+02  0.99111924093E+02  0.89374114715E+02 0.  0.
          2    1    3    3  502    0 -0.30974598869E+02 -0.21549051401E+02 -0.47969932996E+02  0.61031974104E+02  0.00000000000E+00 0. -1.
         -2    1    3    3    0  502  0.30974598869E+02  0.21549051401E+02  0.51278845329E+01  0.38079949989E+02  0.00000000000E+00 0.  1.
<mgrwt>
<rscale>  0 0.89374115E+02</rscale>
<asrwt>0</asrwt>
<pdfrwt beam="2">  1        3 0.10919536E-01 0.89374115E+02</pdfrwt>
<pdfrwt beam="1">  1       -3 0.43284520E-02 0.89374115E+02</pdfrwt>
<totfact> 0.36672392E+04</totfact>
</mgrwt>
</event>
<event>
 5    1  0.3845386E+001  0.9241630E+02  0.7546771E-02  0.1297104E+00
          2   -1    0    0  501    0  0.00000000000E+00  0.00000000000E+00  0.12188129338E+03  0.12188129338E+03  0.00000000000E+00 0. -1.
         -2   -1    0    0    0  501 -0.00000000000E+00 -0.00000000000E+00 -0.17518629526E+02  0.17518629526E+02  0.00000000000E+00 0.  1.
         23    2    1    2    0    0  0.00000000000E+00  0.00000000000E+00  0.10436266385E+03  0.13939992290E+03  0.92416302129E+02 0.  0.
          2    1    3    3  502    0 -0.27979021811E+00  0.45822650145E+02  0.61155900696E+02  0.76418831048E+02  0.00000000000E+00 0. -1.
         -2    1    3    3    0  502  0.27979021811E+00 -0.45822650145E+02  0.43206763153E+02  0.62981091853E+02  0.00000000000E+00 0.  1.
<mgrwt>
<rscale>  0 0.92416302E+02</rscale>
<asrwt>0</asrwt>
<pdfrwt beam="1">  1        2 0.18750968E-01 0.92416302E+02</pdfrwt>
<pdfrwt beam="2">  1       -2 0.26951738E-02 0.92416302E+02</pdfrwt>
<totfact> 0.12577814E+05</totfact>
</mgrwt>
</event>
<event>
 5    1  0.3845386E+001  0.8969122E+02  0.7546771E-02  0.1303601E+00
         -2   -1    0    0    0  501 -0.00000000000E+00  0.00000000000E+00  0.18360244248E+02  0.18360244248E+02  0.00000000000E+00 0.  1.
          2   -1    0    0  501    0  0.00000000000E+00 -0.00000000000E+00 -0.10953713640E+03  0.10953713640E+03  0.00000000000E+00 0. -1.
         23    2    1    2    0    0  0.00000000000E+00  0.00000000000E+00 -0.91176892151E+02  0.12789738065E+03  0.89691216482E+02 0.  0.
          2    1    3    3  502    0 -0.31704691916E+02  0.18288328960E+02 -0.82539571167E+02  0.90290815004E+02  0.00000000000E+00 0. -1.
         -2    1    3    3    0  502  0.31704691916E+02 -0.18288328960E+02 -0.86373209840E+01  0.37606565643E+02  0.00000000000E+00 0.  1.
<mgrwt>
<rscale>  0 0.89691216E+02</rscale>
<asrwt>0</asrwt>
<pdfrwt beam="2">  1        2 0.16851867E-01 0.89691216E+02</pdfrwt>
<pdfrwt beam="1">  1       -2 0.28246530E-02 0.89691216E+02</pdfrwt>
<totfact> 0.13197595E+05</totfact>
</mgrwt>
</event>
<event>
 5    1  0.3845386E+001  0.9021643E+02  0.7546771E-02  0.1302328E+00
          2   -1    0    0  501    0  0.00000000000E+00  0.00000000000E+00  0.12224091298E+04  0.12224091298E+04  0.00000000000E+00 0.  1.
         -2   -1    0    0    0  501 -0.00000000000E+00 -0.00000000000E+00 -0.16645416199E+01  0.16645416199E+01  0.00000000000E+00 0. -1.
         23    2    1    2    0    0  0.00000000000E+00  0.00000000000E+00  0.12207445882E+04  0.12240736714E+04  0.90216425844E+02 0.  0.
          2    1    3    3  502    0 -0.61575928926E+01 -0.37920821779E+02  0.28962124178E+03  0.29215812220E+03  0.00000000000E+00 0. -1.
         -2    1    3    3    0  502  0.61575928926E+01  0.37920821779E+02  0.93112334639E+03  0.93191554922E+03  0.00000000000E+00 0.  1.
<mgrwt>
<rscale>  0 0.90216426E+02</rscale>
<asrwt>0</asrwt>
<pdfrwt beam="1">  1        2 0.18806223E+00 0.90216426E+02</pdfrwt>
<pdfrwt beam="2">  1       -2 0.25608430E-03 0.90216426E+02</pdfrwt>
<totfact> 0.25514940E+05</totfact>
</mgrwt>
</event>
<event>
 5    1  0.3845386E+001  0.9118967E+02  0.7546771E-02  0.1299996E+00
         -2   -1    0    0    0  501 -0.00000000000E+00  0.00000000000E+00  0.43381192859E+01  0.43381192859E+01  0.00000000000E+00 0.  1.
          2   -1    0    0  501    0  0.00000000000E+00 -0.00000000000E+00 -0.47921438659E+03  0.47921438659E+03  0.00000000000E+00 0. -1.
         23    2    1    2    0    0  0.00000000000E+00  0.00000000000E+00 -0.47487626731E+03  0.48355250588E+03  0.91189674253E+02 0.  0.
          2    1    3    3  502    0  0.18023842456E+02 -0.41871202459E+02 -0.23259933957E+03  0.23702427990E+03  0.00000000000E+00 0. -1.
         -2    1    3    3    0  502 -0.18023842456E+02  0.41871202459E+02 -0.24227692773E+03  0.24652822598E+03  0.00000000000E+00 0.  1.
<mgrwt>
<rscale>  0 0.91189674E+02</rscale>
<asrwt>0</asrwt>
<pdfrwt beam="2">  1        2 0.73725315E-01 0.91189674E+02</pdfrwt>
<pdfrwt beam="1">  1       -2 0.66740275E-03 0.91189674E+02</pdfrwt>
<totfact> 0.21242940E+05</totfact>
</mgrwt>
</event>
<event>
 5    1  0.3845386E+001  0.9150920E+02  0.7546771E-02  0.1299238E+00
          1   -1    0    0  501    0  0.00000000000E+00  0.00000000000E+00  0.50634497143E+02  0.50634497143E+02  0.00000000000E+00 0. -1.
         -1   -1    0    0    0  501 -0.00000000000E+00 -0.00000000000E+00 -0.41344998944E+02  0.41344998944E+02  0.00000000000E+00 0.  1.
         23    2    1    2    0    0  0.00000000000E+00  0.00000000000E+00  0.92894981987E+01  0.91979496087E+02  0.91509195842E+02 0.  0.
          2    1    3    3  502    0 -0.36121881069E+02  0.12740673916E+02  0.29800722458E+02  0.48530383502E+02  0.00000000000E+00 0. -1.
         -2    1    3    3    0  502  0.36121881069E+02 -0.12740673916E+02 -0.20511224260E+02  0.43449112585E+02  0.00000000000E+00 0.  1.
<mgrwt>
<rscale>  0 0.91509196E+02</rscale>
<asrwt>0</asrwt>
<pdfrwt beam="1">  1        1 0.77899226E-02 0.91509196E+02</pdfrwt>
<pdfrwt beam="2">  1       -1 0.63607691E-02 0.91509196E+02</pdfrwt>
<totfact> 0.92990229E+04</totfact>
</mgrwt>
</event>
<event>
 5    1  0.3845386E+001  0.9216080E+02  0.7546771E-02  0.1297702E+00
         -2   -1    0    0    0  501 -0.00000000000E+00  0.00000000000E+00  0.77045319022E+01  0.77045319022E+01  0.00000000000E+00 0.  1.
          2   -1    0    0  501    0  0.00000000000E+00 -0.00000000000E+00 -0.27560442700E+03  0.27560442700E+03  0.00000000000E+00 0. -1.
         23    2    1    2    0    0  0.00000000000E+00  0.00000000000E+00 -0.26789989509E+03  0.28330895890E+03  0.92160796441E+02 0.  0.
          2    1    3    3  502    0  0.37244306476E+02 -0.25683263418E+02 -0.10703913174E+03  0.11620733242E+03  0.00000000000E+00 0. -1.
         -2    1    3    3    0  502 -0.37244306476E+02  0.25683263418E+02 -0.16086076336E+03  0.16710162648E+03  0.00000000000E+00 0.  1.
<mgrwt>
<rscale>  0 0.92160796E+02</rscale>
<asrwt>0</asrwt>
<pdfrwt beam="2">  1        2 0.42400682E-01 0.92160796E+02</pdfrwt>
<pdfrwt beam="1">  1       -2 0.11853126E-02 0.92160796E+02</pdfrwt>
<totfact> 0.16913727E+05</totfact>
</mgrwt>
</event>
<event>
 5    1  0.3845386E+001  0.9191646E+02  0.7546771E-02  0.1298276E+00
          1   -1    0    0  501    0  0.00000000000E+00  0.00000000000E+00  0.49399177809E+01  0.49399177809E+01  0.00000000000E+00 0. -1.
         -1   -1    0    0    0  501 -0.00000000000E+00 -0.00000000000E+00 -0.42756967859E+03  0.42756967859E+03  0.00000000000E+00 0.  1.
         23    2    1    2    0    0  0.00000000000E+00  0.00000000000E+00 -0.42262976081E+03  0.43250959638E+03  0.91916463332E+02 0.  0.
          2    1    3    3  502    0 -0.41655540522E+02  0.18312508842E+02 -0.18095569522E+03  0.18658910919E+03  0.00000000000E+00 0. -1.
         -2    1    3    3    0  502  0.41655540522E+02 -0.18312508842E+02 -0.24167406559E+03  0.24592048718E+03  0.00000000000E+00 0.  1.
<mgrwt>
<rscale>  0 0.91916463E+02</rscale>
<asrwt>0</asrwt>
<pdfrwt beam="1">  1        1 0.75998740E-03 0.91916463E+02</pdfrwt>
<pdfrwt beam="2">  1       -1 0.65779946E-01 0.91916463E+02</pdfrwt>
<totfact> 0.50394004E+04</totfact>
</mgrwt>
</event>
<event>
 5    1  0.3845386E+001  0.9156377E+02  0.7546771E-02  0.1299108E+00
          2   -1    0    0  501    0  0.00000000000E+00  0.00000000000E+00  0.27984203108E+03  0.27984203108E+03  0.00000000000E+00 0. -1.
         -2   -1    0    0    0  501 -0.00000000000E+00 -0.00000000000E+00 -0.74898716902E+01  0.74898716902E+01  0.00000000000E+00 0.  1.
         23    2    1    2    0    0  0.00000000000E+00  0.00000000000E+00  0.27235215939E+03  0.28733190277E+03  0.91563768082E+02 0.  0.
          2    1    3    3  502    0  0.32537900169E+02 -0.32156539816E+02  0.13054250565E+03  0.13832607773E+03  0.00000000000E+00 0.  1.
         -2    1    3    3    0  502 -0.32537900169E+02  0.32156539816E+02  0.14180965375E+03  0.14900582504E+03  0.00000000000E+00 0. -1.
<mgrwt>
<rscale>  0 0.91563768E+02</rscale>
<asrwt>0</asrwt>
<pdfrwt beam="1">  1        2 0.43052612E-01 0.91563768E+02</pdfrwt>
<pdfrwt beam="2">  1       -2 0.11522882E-02 0.91563768E+02</pdfrwt>
<totfact> 0.17308883E+05</totfact>
</mgrwt>
</event>
<event>
 5    1  0.3845386E+001  0.7699205E+02  0.7546771E-02  0.1337811E+00
         -1   -1    0    0    0  501 -0.00000000000E+00  0.00000000000E+00  0.11058834629E+03  0.11058834629E+03  0.00000000000E+00 0.  1.
          1   -1    0    0  501    0  0.00000000000E+00 -0.00000000000E+00 -0.13400543769E+02  0.13400543769E+02  0.00000000000E+00 0. -1.
         23    2    1    2    0    0  0.00000000000E+00  0.00000000000E+00  0.97187802517E+02  0.12398889005E+03  0.76992050882E+02 0.  0.
          2    1    3    3  502    0  0.15663286593E+02 -0.32024063744E+02  0.25197731844E+02  0.43655525374E+02  0.00000000000E+00 0. -1.
         -2    1    3    3    0  502 -0.15663286593E+02  0.32024063744E+02  0.71990070673E+02  0.80333364681E+02  0.00000000000E+00 0.  1.
<mgrwt>
<rscale>  0 0.76992051E+02</rscale>
<asrwt>0</asrwt>
<pdfrwt beam="2">  1        1 0.20616222E-02 0.76992051E+02</pdfrwt>
<pdfrwt beam="1">  1       -1 0.17013591E-01 0.76992051E+02</pdfrwt>
<totfact> 0.12328220E+05</totfact>
</mgrwt>
</event>
<event>
 5    1  0.3845386E+001  0.9277572E+02  0.7546771E-02  0.1296266E+00
         -2   -1    0    0    0  501 -0.00000000000E+00  0.00000000000E+00  0.31151448747E+02  0.31151448747E+02  0.00000000000E+00 0.  1.
          2   -1    0    0  501    0  0.00000000000E+00 -0.00000000000E+00 -0.69076510023E+02  0.69076510023E+02  0.00000000000E+00 0. -1.
         23    2    1    2    0    0  0.00000000000E+00  0.00000000000E+00 -0.37925061276E+02  0.10022795877E+03  0.92775715823E+02 0.  0.
          2    1    3    3  502    0  0.14929355998E+02  0.19955598871E+02 -0.61229654880E+02  0.66107353854E+02  0.00000000000E+00 0. -1.
         -2    1    3    3    0  502 -0.14929355998E+02 -0.19955598871E+02  0.23304593604E+02  0.34120604917E+02  0.00000000000E+00 0.  1.
<mgrwt>
<rscale>  0 0.92775716E+02</rscale>
<asrwt>0</asrwt>
<pdfrwt beam="2">  1        2 0.10627155E-01 0.92775716E+02</pdfrwt>
<pdfrwt beam="1">  1       -2 0.47925306E-02 0.92775716E+02</pdfrwt>
<totfact> 0.10496617E+05</totfact>
</mgrwt>
</event>
<event>
 5    1  0.3845386E+001  0.9282996E+02  0.7546771E-02  0.1296140E+00
          2   -1    0    0  501    0  0.00000000000E+00  0.00000000000E+00  0.28249652670E+02  0.28249652670E+02  0.00000000000E+00 0. -1.
         -2   -1    0    0    0  501 -0.00000000000E+00 -0.00000000000E+00 -0.76261131803E+02  0.76261131803E+02  0.00000000000E+00 0.  1.
         23    2    1    2    0    0  0.00000000000E+00  0.00000000000E+00 -0.48011479134E+02  0.10451078447E+03  0.92829962526E+02 0.  0.
          2    1    3    3  502    0  0.17909801956E+02 -0.42812619234E+02 -0.24926661775E+02  0.52678457068E+02  0.00000000000E+00 0. -1.
         -2    1    3    3    0  502 -0.17909801956E+02  0.42812619234E+02 -0.23084817359E+02  0.51832327406E+02  0.00000000000E+00 0.  1.
<mgrwt>
<rscale>  0 0.92829963E+02</rscale>
<asrwt>0</asrwt>
<pdfrwt beam="1">  1        2 0.43461005E-02 0.92829963E+02</pdfrwt>
<pdfrwt beam="2">  1       -2 0.11732481E-01 0.92829963E+02</pdfrwt>
<totfact> 0.82489460E+04</totfact>
</mgrwt>
</event>
<event>
 5    1  0.3845386E+001  0.9379972E+02  0.7546771E-02  0.1293903E+00
         -2   -1    0    0    0  501 -0.00000000000E+00  0.00000000000E+00  0.19020809942E+02  0.19020809942E+02  0.00000000000E+00 0.  1.
          2   -1    0    0  501    0  0.00000000000E+00 -0.00000000000E+00 -0.11564159793E+03  0.11564159793E+03  0.00000000000E+00 0. -1.
         23    2    1    2    0    0  0.00000000000E+00  0.00000000000E+00 -0.96620787987E+02  0.13466240787E+03  0.93799719735E+02 0.  0.
          2    1    3    3  502    0  0.35416345963E+02 -0.24779942943E+02 -0.74438751351E+02  0.86078399360E+02  0.00000000000E+00 0. -1.
         -2    1    3    3    0  502 -0.35416345963E+02  0.24779942943E+02 -0.22182036636E+02  0.48584008511E+02  0.00000000000E+00 0.  1.
<mgrwt>
<rscale>  0 0.93799720E+02</rscale>
<asrwt>0</asrwt>
<pdfrwt beam="2">  1        2 0.17791015E-01 0.93799720E+02</pdfrwt>
<pdfrwt beam="1">  1       -2 0.29262785E-02 0.93799720E+02</pdfrwt>
<totfact> 0.11872887E+05</totfact>
</mgrwt>
</event>
<event>
 5    1  0.3845386E+001  0.9288430E+02  0.7546771E-02  0.1296014E+00
         -3   -1    0    0    0  501 -0.00000000000E+00  0.00000000000E+00  0.48462958123E+02  0.48462958123E+02  0.00000000000E+00 0.  1.
          3   -1    0    0  501    0  0.00000000000E+00 -0.00000000000E+00 -0.44505609541E+02  0.44505609541E+02  0.00000000000E+00 0. -1.
         23    2    1    2    0    0  0.00000000000E+00  0.00000000000E+00  0.39573485818E+01  0.92968567664E+02  0.92884304194E+02 0.  0.
          2    1    3    3  502    0  0.84649102939E+01  0.41332357792E+02 -0.17451689853E+02  0.45657200809E+02  0.00000000000E+00 0. -1.
         -2    1    3    3    0  502 -0.84649102939E+01 -0.41332357792E+02  0.21409038435E+02  0.47311366855E+02  0.00000000000E+00 0.  1.
<mgrwt>
<rscale>  0 0.92884304E+02</rscale>
<asrwt>0</asrwt>
<pdfrwt beam="2">  1        3 0.68470168E-02 0.92884304E+02</pdfrwt>
<pdfrwt beam="1">  1       -3 0.74558398E-02 0.92884304E+02</pdfrwt>
<totfact> 0.33461663E+04</totfact>
</mgrwt>
</event>
<event>
 5    1  0.3845386E+001  0.9237565E+02  0.7546771E-02  0.1297199E+00
         -1   -1    0    0    0  501 -0.00000000000E+00  0.00000000000E+00  0.24519005624E+01  0.24519005624E+01  0.00000000000E+00 0.  1.
          1   -1    0    0  501    0  0.00000000000E+00 -0.00000000000E+00 -0.87006600673E+03  0.87006600673E+03  0.00000000000E+00 0. -1.
         23    2    1    2    0    0  0.00000000000E+00  0.00000000000E+00 -0.86761410617E+03  0.87251790729E+03  0.92375653312E+02 0.  0.
          2    1    3    3  502    0  0.41421299113E+02 -0.51821898410E+01 -0.62051321926E+03  0.62191577757E+03  0.00000000000E+00 0. -1.
         -2    1    3    3    0  502 -0.41421299113E+02  0.51821898410E+01 -0.24710088690E+03  0.25060212972E+03  0.00000000000E+00 0.  1.
<mgrwt>
<rscale>  0 0.92375653E+02</rscale>
<asrwt>0</asrwt>
<pdfrwt beam="2">  1        1 0.13385636E+00 0.92375653E+02</pdfrwt>
<pdfrwt beam="1">  1       -1 0.37721532E-03 0.92375653E+02</pdfrwt>
<totfact> 0.13517658E+05</totfact>
</mgrwt>
</event>
<event>
 5    1  0.3845386E+001  0.9121283E+02  0.7546771E-02  0.1299941E+00
         -1   -1    0    0    0  501 -0.00000000000E+00  0.00000000000E+00  0.40101872071E+01  0.40101872071E+01  0.00000000000E+00 0.  1.
          1   -1    0    0  501    0  0.00000000000E+00 -0.00000000000E+00 -0.51866532570E+03  0.51866532570E+03  0.00000000000E+00 0. -1.
         23    2    1    2    0    0  0.00000000000E+00  0.00000000000E+00 -0.51465513849E+03  0.52267551291E+03  0.91212829227E+02 0.  0.
          2    1    3    3  502    0  0.41477885344E+01  0.31199677330E+02 -0.68200290828E+02  0.75112606693E+02  0.00000000000E+00 0.  1.
         -2    1    3    3    0  502 -0.41477885344E+01 -0.31199677330E+02 -0.44645484767E+03  0.44756290621E+03  0.00000000000E+00 0. -1.
<mgrwt>
<rscale>  0 0.91212829E+02</rscale>
<asrwt>0</asrwt>
<pdfrwt beam="2">  1        1 0.79794609E-01 0.91212829E+02</pdfrwt>
<pdfrwt beam="1">  1       -1 0.61695232E-03 0.91212829E+02</pdfrwt>
<totfact> 0.13969725E+05</totfact>
</mgrwt>
</event>
<event>
 5    1  0.3845386E+001  0.9292368E+02  0.7546771E-02  0.1295922E+00
         -1   -1    0    0    0  501 -0.00000000000E+00  0.00000000000E+00  0.40341277702E+01  0.40341277702E+01  0.00000000000E+00 0.  1.
          1   -1    0    0  501    0  0.00000000000E+00 -0.00000000000E+00 -0.53511014312E+03  0.53511014312E+03  0.00000000000E+00 0. -1.
         23    2    1    2    0    0  0.00000000000E+00  0.00000000000E+00 -0.53107601535E+03  0.53914427089E+03  0.92923682417E+02 0.  0.
          2    1    3    3  502    0  0.26409529452E+02  0.22726839882E+02 -0.87204693721E+02  0.93907566808E+02  0.00000000000E+00 0.  1.
         -2    1    3    3    0  502 -0.26409529452E+02 -0.22726839882E+02 -0.44387132163E+03  0.44523670409E+03  0.00000000000E+00 0. -1.
<mgrwt>
<rscale>  0 0.92923682E+02</rscale>
<asrwt>0</asrwt>
<pdfrwt beam="2">  1        1 0.82324596E-01 0.92923682E+02</pdfrwt>
<pdfrwt beam="1">  1       -1 0.62063535E-03 0.92923682E+02</pdfrwt>
<totfact> 0.13340981E+05</totfact>
</mgrwt>
</event>
<event>
 5    1  0.3845386E+001  0.9193800E+02  0.7546771E-02  0.1298225E+00
         -4   -1    0    0    0  501 -0.00000000000E+00  0.00000000000E+00  0.19163312649E+02  0.19163312649E+02  0.00000000000E+00 0.  1.
          4   -1    0    0  501    0  0.00000000000E+00 -0.00000000000E+00 -0.11027054659E+03  0.11027054659E+03  0.00000000000E+00 0. -1.
         23    2    1    2    0    0  0.00000000000E+00  0.00000000000E+00 -0.91107233939E+02  0.12943385924E+03  0.91937999984E+02 0.  0.
          2    1    3    3  502    0  0.15571251495E+02 -0.40014017859E+02 -0.68668056173E+02  0.80986958437E+02  0.00000000000E+00 0. -1.
         -2    1    3    3    0  502 -0.15571251495E+02  0.40014017859E+02 -0.22439177766E+02  0.48446900800E+02  0.00000000000E+00 0.  1.
<mgrwt>
<rscale>  0 0.91938000E+02</rscale>
<asrwt>0</asrwt>
<pdfrwt beam="2">  1        4 0.16964699E-01 0.91938000E+02</pdfrwt>
<pdfrwt beam="1">  1       -4 0.29482020E-02 0.91938000E+02</pdfrwt>
<totfact> 0.24198359E+04</totfact>
</mgrwt>
</event>
<event>
 5    1  0.3845386E+001  0.8775777E+02  0.7546771E-02  0.1308374E+00
          2   -1    0    0  501    0  0.00000000000E+00  0.00000000000E+00  0.29508852653E+03  0.29508852653E+03  0.00000000000E+00 0. -1.
         -2   -1    0    0    0  501 -0.00000000000E+00 -0.00000000000E+00 -0.65246746558E+01  0.65246746558E+01  0.00000000000E+00 0.  1.
         23    2    1    2    0    0  0.00000000000E+00  0.00000000000E+00  0.28856385187E+03  0.30161320118E+03  0.87757771855E+02 0.  0.
          2    1    3    3  502    0  0.82456902933E+01 -0.29604926913E+02  0.25192351964E+03  0.25379106142E+03  0.00000000000E+00 0. -1.
         -2    1    3    3    0  502 -0.82456902933E+01  0.29604926913E+02  0.36640332226E+02  0.47822139764E+02  0.00000000000E+00 0.  1.
<mgrwt>
<rscale>  0 0.87757772E+02</rscale>
<asrwt>0</asrwt>
<pdfrwt beam="1">  1        2 0.45398225E-01 0.87757772E+02</pdfrwt>
<pdfrwt beam="2">  1       -2 0.10037963E-02 0.87757772E+02</pdfrwt>
<totfact> 0.19768152E+05</totfact>
</mgrwt>
</event>
<event>
 5    1  0.3845386E+001  0.8802108E+02  0.7546771E-02  0.1307716E+00
         -3   -1    0    0    0  501 -0.00000000000E+00  0.00000000000E+00  0.97735956320E+01  0.97735956320E+01  0.00000000000E+00 0.  1.
          3   -1    0    0  501    0  0.00000000000E+00 -0.00000000000E+00 -0.19817964800E+03  0.19817964800E+03  0.00000000000E+00 0. -1.
         23    2    1    2    0    0  0.00000000000E+00  0.00000000000E+00 -0.18840605237E+03  0.20795324364E+03  0.88021082522E+02 0.  0.
          2    1    3    3  502    0 -0.25897443297E+01 -0.41682362686E+02 -0.12700759385E+03  0.13369762537E+03  0.00000000000E+00 0. -1.
         -2    1    3    3    0  502  0.25897443297E+01  0.41682362686E+02 -0.61398458523E+02  0.74255618264E+02  0.00000000000E+00 0.  1.
<mgrwt>
<rscale>  0 0.88021083E+02</rscale>
<asrwt>0</asrwt>
<pdfrwt beam="2">  1        3 0.30489174E-01 0.88021083E+02</pdfrwt>
<pdfrwt beam="1">  1       -3 0.15036302E-02 0.88021083E+02</pdfrwt>
<totfact> 0.30881798E+04</totfact>
</mgrwt>
</event>
<event>
 5    1  0.3845386E+001  0.9071040E+02  0.7546771E-02  0.1301140E+00
         -1   -1    0    0    0  501 -0.00000000000E+00  0.00000000000E+00  0.49584557801E+02  0.49584557801E+02  0.00000000000E+00 0.  1.
          1   -1    0    0  501    0  0.00000000000E+00 -0.00000000000E+00 -0.41486589565E+02  0.41486589565E+02  0.00000000000E+00 0. -1.
         23    2    1    2    0    0  0.00000000000E+00  0.00000000000E+00  0.80979682369E+01  0.91071147366E+02  0.90710400688E+02 0.  0.
          2    1    3    3  502    0 -0.43577070554E+02 -0.69460232395E+01 -0.64753510509E+01  0.44599758835E+02  0.00000000000E+00 0. -1.
         -2    1    3    3    0  502  0.43577070554E+02  0.69460232395E+01  0.14573319288E+02  0.46471388531E+02  0.00000000000E+00 0.  1.
<mgrwt>
<rscale>  0 0.90710401E+02</rscale>
<asrwt>0</asrwt>
<pdfrwt beam="2">  1        1 0.63825522E-02 0.90710401E+02</pdfrwt>
<pdfrwt beam="1">  1       -1 0.76283935E-02 0.90710401E+02</pdfrwt>
<totfact> 0.92493727E+04</totfact>
</mgrwt>
</event>
<event>
 5    1  0.3845386E+001  0.7086902E+02  0.7546771E-02  0.1357163E+00
         -3   -1    0    0    0  501 -0.00000000000E+00  0.00000000000E+00  0.20502134795E+02  0.20502134795E+02  0.00000000000E+00 0.  1.
          3   -1    0    0  501    0  0.00000000000E+00 -0.00000000000E+00 -0.61242629543E+02  0.61242629543E+02  0.00000000000E+00 0. -1.
         23    2    1    2    0    0  0.00000000000E+00  0.00000000000E+00 -0.40740494748E+02  0.81744764338E+02  0.70869024153E+02 0.  0.
          2    1    3    3  502    0 -0.32078549791E+02 -0.12420117099E+02 -0.30178883462E+02  0.45760874909E+02  0.00000000000E+00 0. -1.
         -2    1    3    3    0  502  0.32078549791E+02  0.12420117099E+02 -0.10561611285E+02  0.35983889428E+02  0.00000000000E+00 0.  1.
<mgrwt>
<rscale>  0 0.70869024E+02</rscale>
<asrwt>0</asrwt>
<pdfrwt beam="2">  1        3 0.94219429E-02 0.70869024E+02</pdfrwt>
<pdfrwt beam="1">  1       -3 0.31541746E-02 0.70869024E+02</pdfrwt>
<totfact> 0.70937502E+04</totfact>
</mgrwt>
</event>
<event>
 5    1  0.3845386E+001  0.5755254E+02  0.7546771E-02  0.1408399E+00
         -2   -1    0    0    0  501 -0.00000000000E+00  0.00000000000E+00  0.16450322491E+01  0.16450322491E+01  0.00000000000E+00 0. -1.
          2   -1    0    0  501    0  0.00000000000E+00 -0.00000000000E+00 -0.50337837496E+03  0.50337837496E+03  0.00000000000E+00 0.  1.
         23    2    1    2    0    0  0.00000000000E+00  0.00000000000E+00 -0.50173334271E+03  0.50502340721E+03  0.57552538096E+02 0.  0.
          2    1    3    3  502    0 -0.25388095054E+02  0.12035057353E+02 -0.19629515392E+03  0.19829570199E+03  0.00000000000E+00 0. -1.
         -2    1    3    3    0  502  0.25388095054E+02 -0.12035057353E+02 -0.30543818880E+03  0.30672770523E+03  0.00000000000E+00 0.  1.
<mgrwt>
<rscale>  0 0.57552538E+02</rscale>
<asrwt>0</asrwt>
<pdfrwt beam="2">  1        2 0.77442782E-01 0.57552538E+02</pdfrwt>
<pdfrwt beam="1">  1       -2 0.25308203E-03 0.57552538E+02</pdfrwt>
<totfact> 0.70848742E+05</totfact>
</mgrwt>
</event>
<event>
 5    1  0.3845386E+001  0.9126117E+02  0.7546771E-02  0.1299826E+00
         -2   -1    0    0    0  501 -0.00000000000E+00  0.00000000000E+00  0.29928881783E+01  0.29928881783E+01  0.00000000000E+00 0.  1.
          2   -1    0    0  501    0  0.00000000000E+00 -0.00000000000E+00 -0.69569938104E+03  0.69569938104E+03  0.00000000000E+00 0. -1.
         23    2    1    2    0    0  0.00000000000E+00  0.00000000000E+00 -0.69270649286E+03  0.69869226922E+03  0.91261173632E+02 0.  0.
          2    1    3    3  502    0  0.43485921302E+02  0.12134401810E+02 -0.29563781805E+03  0.29906519109E+03  0.00000000000E+00 0.  1.
         -2    1    3    3    0  502 -0.43485921302E+02 -0.12134401810E+02 -0.39706867481E+03  0.39962707813E+03  0.00000000000E+00 0. -1.
<mgrwt>
<rscale>  0 0.91261174E+02</rscale>
<asrwt>0</asrwt>
<pdfrwt beam="2">  1        2 0.10703082E+00 0.91261174E+02</pdfrwt>
<pdfrwt beam="1">  1       -2 0.46044372E-03 0.91261174E+02</pdfrwt>
<totfact> 0.23622451E+05</totfact>
</mgrwt>
</event>
<event>
 5    1  0.3845386E+001  0.9092866E+02  0.7546771E-02  0.1300618E+00
         -2   -1    0    0    0  501 -0.00000000000E+00  0.00000000000E+00  0.49409708215E+02  0.49409708215E+02  0.00000000000E+00 0. -1.
          2   -1    0    0  501    0  0.00000000000E+00 -0.00000000000E+00 -0.41833991192E+02  0.41833991192E+02  0.00000000000E+00 0.  1.
         23    2    1    2    0    0  0.00000000000E+00  0.00000000000E+00  0.75757170222E+01  0.91243699407E+02  0.90928659910E+02 0.  0.
          2    1    3    3  502    0 -0.23640336835E+02  0.16889202049E+02 -0.31303211646E+02  0.42708333272E+02  0.00000000000E+00 0.  1.
         -2    1    3    3    0  502  0.23640336835E+02 -0.16889202049E+02  0.38878928668E+02  0.48535366135E+02  0.00000000000E+00 0. -1.
<mgrwt>
<rscale>  0 0.90928660E+02</rscale>
<asrwt>0</asrwt>
<pdfrwt beam="2">  1        2 0.64359986E-02 0.90928660E+02</pdfrwt>
<pdfrwt beam="1">  1       -2 0.76014936E-02 0.90928660E+02</pdfrwt>
<totfact> 0.97263876E+04</totfact>
</mgrwt>
</event>
<event>
 5    1  0.3845386E+001  0.9014041E+02  0.7546771E-02  0.1302512E+00
         -2   -1    0    0    0  501 -0.00000000000E+00  0.00000000000E+00  0.19524120799E+03  0.19524120799E+03  0.00000000000E+00 0.  1.
          2   -1    0    0  501    0  0.00000000000E+00 -0.00000000000E+00 -0.10404172344E+02  0.10404172344E+02  0.00000000000E+00 0. -1.
         23    2    1    2    0    0  0.00000000000E+00  0.00000000000E+00  0.18483703565E+03  0.20564538033E+03  0.90140405515E+02 0.  0.
          2    1    3    3  502    0  0.14876536098E+01 -0.38261643719E+02  0.38182988360E+02  0.54075013577E+02  0.00000000000E+00 0. -1.
         -2    1    3    3    0  502 -0.14876536098E+01  0.38261643719E+02  0.14665404729E+03  0.15157036676E+03  0.00000000000E+00 0.  1.
<mgrwt>
<rscale>  0 0.90140406E+02</rscale>
<asrwt>0</asrwt>
<pdfrwt beam="2">  1        2 0.16006420E-02 0.90140406E+02</pdfrwt>
<pdfrwt beam="1">  1       -2 0.30037106E-01 0.90140406E+02</pdfrwt>
<totfact> 0.64830164E+04</totfact>
</mgrwt>
</event>
<event>
 5    1  0.3845386E+001  0.9229011E+02  0.7546771E-02  0.1297399E+00
         -2   -1    0    0    0  501 -0.00000000000E+00  0.00000000000E+00  0.45087778814E+02  0.45087778814E+02  0.00000000000E+00 0.  1.
          2   -1    0    0  501    0  0.00000000000E+00 -0.00000000000E+00 -0.47227126478E+02  0.47227126478E+02  0.00000000000E+00 0. -1.
         23    2    1    2    0    0  0.00000000000E+00  0.00000000000E+00 -0.21393476638E+01  0.92314905293E+02  0.92290112855E+02 0.  0.
          2    1    3    3  502    0  0.29295271791E+02  0.14025468183E+02 -0.33857123706E+02  0.46917283944E+02  0.00000000000E+00 0. -1.
         -2    1    3    3    0  502 -0.29295271791E+02 -0.14025468183E+02  0.31717776043E+02  0.45397621349E+02  0.00000000000E+00 0.  1.
<mgrwt>
<rscale>  0 0.92290113E+02</rscale>
<asrwt>0</asrwt>
<pdfrwt beam="2">  1        2 0.72657117E-02 0.92290113E+02</pdfrwt>
<pdfrwt beam="1">  1       -2 0.69365814E-02 0.92290113E+02</pdfrwt>
<totfact> 0.96176386E+04</totfact>
</mgrwt>
</event>
<event>
 5    1  0.3845386E+001  0.9067953E+02  0.7546771E-02  0.1301214E+00
         -2   -1    0    0    0  501 -0.00000000000E+00  0.00000000000E+00  0.13922736817E+02  0.13922736817E+02  0.00000000000E+00 0.  1.
          2   -1    0    0  501    0  0.00000000000E+00 -0.00000000000E+00 -0.14765015760E+03  0.14765015760E+03  0.00000000000E+00 0. -1.
         23    2    1    2    0    0  0.00000000000E+00  0.00000000000E+00 -0.13372742078E+03  0.16157289441E+03  0.90679529890E+02 0.  0.
          2    1    3    3  502    0  0.35606973299E+02  0.15756188308E+02 -0.10825293351E+03  0.11504265135E+03  0.00000000000E+00 0. -1.
         -2    1    3    3    0  502 -0.35606973299E+02 -0.15756188308E+02 -0.25474487272E+02  0.46530243061E+02  0.00000000000E+00 0.  1.
<mgrwt>
<rscale>  0 0.90679530E+02</rscale>
<asrwt>0</asrwt>
<pdfrwt beam="2">  1        2 0.22715411E-01 0.90679530E+02</pdfrwt>
<pdfrwt beam="1">  1       -2 0.21419593E-02 0.90679530E+02</pdfrwt>
<totfact> 0.14114139E+05</totfact>
</mgrwt>
</event>
<event>
 5    1  0.3845386E+001  0.8965277E+02  0.7546771E-02  0.1303695E+00
         -2   -1    0    0    0  501 -0.00000000000E+00  0.00000000000E+00  0.71196289706E+01  0.71196289706E+01  0.00000000000E+00 0.  1.
          2   -1    0    0  501    0  0.00000000000E+00 -0.00000000000E+00 -0.28223446166E+03  0.28223446166E+03  0.00000000000E+00 0. -1.
         23    2    1    2    0    0  0.00000000000E+00  0.00000000000E+00 -0.27511483269E+03  0.28935409063E+03  0.89652766822E+02 0.  0.
          2    1    3    3  502    0  0.21724474636E+02  0.39051011659E+02 -0.14895479759E+03  0.15551355579E+03  0.00000000000E+00 0. -1.
         -2    1    3    3    0  502 -0.21724474636E+02 -0.39051011659E+02 -0.12616003510E+03  0.13384053484E+03  0.00000000000E+00 0.  1.
<mgrwt>
<rscale>  0 0.89652767E+02</rscale>
<asrwt>0</asrwt>
<pdfrwt beam="2">  1        2 0.43420694E-01 0.89652767E+02</pdfrwt>
<pdfrwt beam="1">  1       -2 0.10953273E-02 0.89652767E+02</pdfrwt>
<totfact> 0.18369381E+05</totfact>
</mgrwt>
</event>
<event>
 5    1  0.3845386E+001  0.9265040E+02  0.7546771E-02  0.1296557E+00
          2   -1    0    0  501    0  0.00000000000E+00  0.00000000000E+00  0.18723046035E+04  0.18723046035E+04  0.00000000000E+00 0.  1.
         -2   -1    0    0    0  501 -0.00000000000E+00 -0.00000000000E+00 -0.11461938598E+01  0.11461938598E+01  0.00000000000E+00 0. -1.
         23    2    1    2    0    0  0.00000000000E+00  0.00000000000E+00  0.18711584096E+04  0.18734507974E+04  0.92650397523E+02 0.  0.
          2    1    3    3  502    0  0.14655822560E+02  0.42966233361E+02  0.74900751320E+03  0.75038199950E+03  0.00000000000E+00 0.  1.
         -2    1    3    3    0  502 -0.14655822560E+02 -0.42966233361E+02  0.11221508964E+04  0.11230687978E+04  0.00000000000E+00 0. -1.
<mgrwt>
<rscale>  0 0.92650398E+02</rscale>
<asrwt>0</asrwt>
<pdfrwt beam="1">  1        2 0.28804441E+00 0.92650398E+02</pdfrwt>
<pdfrwt beam="2">  1       -2 0.17633902E-03 0.92650398E+02</pdfrwt>
<totfact> 0.19957925E+05</totfact>
</mgrwt>
</event>
<event>
 5    1  0.3845386E+001  0.9168125E+02  0.7546771E-02  0.1298831E+00
          2   -1    0    0  501    0  0.00000000000E+00  0.00000000000E+00  0.11992796824E+01  0.11992796824E+01  0.00000000000E+00 0. -1.
         -2   -1    0    0    0  501 -0.00000000000E+00 -0.00000000000E+00 -0.17521873659E+04  0.17521873659E+04  0.00000000000E+00 0.  1.
         23    2    1    2    0    0  0.00000000000E+00  0.00000000000E+00 -0.17509880862E+04  0.17533866456E+04  0.91681245797E+02 0.  0.
          2    1    3    3  502    0 -0.44910828868E+02 -0.90179712802E+01 -0.84205923175E+03  0.84330424885E+03  0.00000000000E+00 0. -1.
         -2    1    3    3    0  502  0.44910828868E+02  0.90179712802E+01 -0.90892885448E+03  0.91008239674E+03  0.00000000000E+00 0.  1.
<mgrwt>
<rscale>  0 0.91681246E+02</rscale>
<asrwt>0</asrwt>
<pdfrwt beam="1">  1        2 0.18450510E-03 0.91681246E+02</pdfrwt>
<pdfrwt beam="2">  1       -2 0.26956650E+00 0.91681246E+02</pdfrwt>
<totfact> 0.77830975E+03</totfact>
</mgrwt>
</event>
<event>
 5    1  0.3845386E+001  0.9253881E+02  0.7546771E-02  0.1296818E+00
          3   -1    0    0  501    0  0.00000000000E+00  0.00000000000E+00  0.58371203867E+02  0.58371203867E+02  0.00000000000E+00 0. -1.
         -3   -1    0    0    0  501 -0.00000000000E+00 -0.00000000000E+00 -0.36676608416E+02  0.36676608416E+02  0.00000000000E+00 0.  1.
         23    2    1    2    0    0  0.00000000000E+00  0.00000000000E+00  0.21694595450E+02  0.95047812283E+02  0.92538808875E+02 0.  0.
          2    1    3    3  502    0 -0.45206863296E+02  0.55387210216E+01  0.24701937188E+01  0.45611838119E+02  0.00000000000E+00 0. -1.
         -2    1    3    3    0  502  0.45206863296E+02 -0.55387210216E+01  0.19224401732E+02  0.49435974164E+02  0.00000000000E+00 0.  1.
<mgrwt>
<rscale>  0 0.92538809E+02</rscale>
<asrwt>0</asrwt>
<pdfrwt beam="1">  1        3 0.89801852E-02 0.92538809E+02</pdfrwt>
<pdfrwt beam="2">  1       -3 0.56425551E-02 0.92538809E+02</pdfrwt>
<totfact> 0.33653083E+04</totfact>
</mgrwt>
</event>
<event>
 5    1  0.3845386E+001  0.9542292E+02  0.7546771E-02  0.1290226E+00
          1   -1    0    0  501    0  0.00000000000E+00  0.00000000000E+00  0.57812258785E+03  0.57812258785E+03  0.00000000000E+00 0. -1.
         -1   -1    0    0    0  501 -0.00000000000E+00 -0.00000000000E+00 -0.39375443347E+01  0.39375443347E+01  0.00000000000E+00 0.  1.
         23    2    1    2    0    0  0.00000000000E+00  0.00000000000E+00  0.57418504352E+03  0.58206013219E+03  0.95422918014E+02 0.  0.
          2    1    3    3  502    0  0.33155042198E+02 -0.31118970532E+02  0.37522054248E+03  0.37796574269E+03  0.00000000000E+00 0.  1.
         -2    1    3    3    0  502 -0.33155042198E+02  0.31118970532E+02  0.19896450104E+03  0.20409438950E+03  0.00000000000E+00 0. -1.
<mgrwt>
<rscale>  0 0.95422918E+02</rscale>
<asrwt>0</asrwt>
<pdfrwt beam="1">  1        1 0.88941870E-01 0.95422918E+02</pdfrwt>
<pdfrwt beam="2">  1       -1 0.60577651E-03 0.95422918E+02</pdfrwt>
<totfact> 0.12516624E+05</totfact>
</mgrwt>
</event>
<event>
 5    1  0.3845386E+001  0.9337622E+02  0.7546771E-02  0.1294876E+00
         -2   -1    0    0    0  501 -0.00000000000E+00  0.00000000000E+00  0.90008856624E+00  0.90008856624E+00  0.00000000000E+00 0.  1.
          2   -1    0    0  501    0  0.00000000000E+00 -0.00000000000E+00 -0.24217390571E+04  0.24217390571E+04  0.00000000000E+00 0. -1.
         23    2    1    2    0    0  0.00000000000E+00  0.00000000000E+00 -0.24208389685E+04  0.24226391456E+04  0.93376220435E+02 0.  0.
          2    1    3    3  502    0  0.22233255944E+02  0.40989758004E+02 -0.11506801745E+04  0.11516246532E+04  0.00000000000E+00 0. -1.
         -2    1    3    3    0  502 -0.22233255944E+02 -0.40989758004E+02 -0.12701587940E+04  0.12710144924E+04  0.00000000000E+00 0.  1.
<mgrwt>
<rscale>  0 0.93376220E+02</rscale>
<asrwt>0</asrwt>
<pdfrwt beam="2">  1        2 0.37258035E+00 0.93376220E+02</pdfrwt>
<pdfrwt beam="1">  1       -2 0.13847327E-03 0.93376220E+02</pdfrwt>
<totfact> 0.14663450E+05</totfact>
</mgrwt>
</event>
<event>
 5    1  0.3845386E+001  0.7890992E+02  0.7546771E-02  0.1332174E+00
          1   -1    0    0  501    0  0.00000000000E+00  0.00000000000E+00  0.21109551585E+04  0.21109551585E+04  0.00000000000E+00 0. -1.
         -1   -1    0    0    0  501 -0.00000000000E+00 -0.00000000000E+00 -0.73743572053E+00  0.73743572053E+00  0.00000000000E+00 0.  1.
         23    2    1    2    0    0  0.00000000000E+00  0.00000000000E+00  0.21102177228E+04  0.21116925942E+04  0.78909916697E+02 0.  0.
          2    1    3    3  502    0 -0.62169762465E+01  0.31181705622E+02  0.42994528347E+03  0.43111935277E+03  0.00000000000E+00 0.  1.
         -2    1    3    3    0  502  0.62169762465E+01 -0.31181705622E+02  0.16802724393E+04  0.16805732414E+04  0.00000000000E+00 0. -1.
<mgrwt>
<rscale>  0 0.78909917E+02</rscale>
<asrwt>0</asrwt>
<pdfrwt beam="1">  1        1 0.32475750E+00 0.78909917E+02</pdfrwt>
<pdfrwt beam="2">  1       -1 0.11345334E-03 0.78909917E+02</pdfrwt>
<totfact> 0.10719961E+05</totfact>
</mgrwt>
</event>
<event>
 5    1  0.3845386E+001  0.9493150E+02  0.7546771E-02  0.1291330E+00
         -2   -1    0    0    0  501 -0.00000000000E+00  0.00000000000E+00  0.22972472855E+03  0.22972472855E+03  0.00000000000E+00 0.  1.
          2   -1    0    0  501    0  0.00000000000E+00 -0.00000000000E+00 -0.98073781106E+01  0.98073781106E+01  0.00000000000E+00 0. -1.
         23    2    1    2    0    0  0.00000000000E+00  0.00000000000E+00  0.21991735044E+03  0.23953210666E+03  0.94931496865E+02 0.  0.
          2    1    3    3  502    0 -0.43374838040E+02 -0.33987046817E+01  0.15783784118E+03  0.16372449993E+03  0.00000000000E+00 0. -1.
         -2    1    3    3    0  502  0.43374838040E+02  0.33987046817E+01  0.62079509260E+02  0.75807606732E+02  0.00000000000E+00 0.  1.
<mgrwt>
<rscale>  0 0.94931497E+02</rscale>
<asrwt>0</asrwt>
<pdfrwt beam="2">  1        2 0.15088276E-02 0.94931497E+02</pdfrwt>
<pdfrwt beam="1">  1       -2 0.35342262E-01 0.94931497E+02</pdfrwt>
<totfact> 0.52775374E+04</totfact>
</mgrwt>
</event>
<event>
 5    1  0.3845386E+001  0.9670157E+02  0.7546771E-02  0.1287389E+00
          2   -1    0    0  501    0  0.00000000000E+00  0.00000000000E+00  0.36730186966E+01  0.36730186966E+01  0.00000000000E+00 0. -1.
         -2   -1    0    0    0  501 -0.00000000000E+00 -0.00000000000E+00 -0.63647875791E+03  0.63647875791E+03  0.00000000000E+00 0.  1.
         23    2    1    2    0    0  0.00000000000E+00  0.00000000000E+00 -0.63280573921E+03  0.64015177660E+03  0.96701569331E+02 0.  0.
          2    1    3    3  502    0  0.41822912930E+02 -0.21179723849E+02 -0.23805827811E+03  0.24263033719E+03  0.00000000000E+00 0. -1.
         -2    1    3    3    0  502 -0.41822912930E+02  0.21179723849E+02 -0.39474746110E+03  0.39752143941E+03  0.00000000000E+00 0.  1.
<mgrwt>
<rscale>  0 0.96701569E+02</rscale>
<asrwt>0</asrwt>
<pdfrwt beam="1">  1        2 0.56507997E-03 0.96701569E+02</pdfrwt>
<pdfrwt beam="2">  1       -2 0.97919780E-01 0.96701569E+02</pdfrwt>
<totfact> 0.25470834E+04</totfact>
</mgrwt>
</event>
<event>
 5    1  0.3845386E+001  0.9023099E+02  0.7546771E-02  0.1302293E+00
          2   -1    0    0  501    0  0.00000000000E+00  0.00000000000E+00  0.10873768948E+04  0.10873768948E+04  0.00000000000E+00 0. -1.
         -2   -1    0    0    0  501 -0.00000000000E+00 -0.00000000000E+00 -0.18718511325E+01  0.18718511325E+01  0.00000000000E+00 0.  1.
         23    2    1    2    0    0  0.00000000000E+00  0.00000000000E+00  0.10855050437E+04  0.10892487460E+04  0.90230985189E+02 0.  0.
          2    1    3    3  502    0  0.38398853925E+02 -0.22635278974E+02  0.62689191734E+03  0.62847458490E+03  0.00000000000E+00 0. -1.
         -2    1    3    3    0  502 -0.38398853925E+02  0.22635278974E+02  0.45861312637E+03  0.46077416108E+03  0.00000000000E+00 0.  1.
<mgrwt>
<rscale>  0 0.90230985E+02</rscale>
<asrwt>0</asrwt>
<pdfrwt beam="1">  1        2 0.16728825E+00 0.90230985E+02</pdfrwt>
<pdfrwt beam="2">  1       -2 0.28797797E-03 0.90230985E+02</pdfrwt>
<totfact> 0.25722714E+05</totfact>
</mgrwt>
</event>
<event>
 5    1  0.3845386E+001  0.9371822E+02  0.7546771E-02  0.1294089E+00
         -1   -1    0    0    0  501 -0.00000000000E+00  0.00000000000E+00  0.13235485384E+03  0.13235485384E+03  0.00000000000E+00 0.  1.
          1   -1    0    0  501    0  0.00000000000E+00 -0.00000000000E+00 -0.16590069626E+02  0.16590069626E+02  0.00000000000E+00 0. -1.
         23    2    1    2    0    0  0.00000000000E+00  0.00000000000E+00  0.11576478422E+03  0.14894492347E+03  0.93718221080E+02 0.  0.
          2    1    3    3  502    0 -0.32817630417E+02  0.33428988706E+02  0.59681928642E+02  0.75871119397E+02  0.00000000000E+00 0. -1.
         -2    1    3    3    0  502  0.32817630417E+02 -0.33428988706E+02  0.56082855574E+02  0.73073804071E+02  0.00000000000E+00 0.  1.
<mgrwt>
<rscale>  0 0.93718221E+02</rscale>
<asrwt>0</asrwt>
<pdfrwt beam="2">  1        1 0.25523185E-02 0.93718221E+02</pdfrwt>
<pdfrwt beam="1">  1       -1 0.20362285E-01 0.93718221E+02</pdfrwt>
<totfact> 0.71631911E+04</totfact>
</mgrwt>
</event>
<event>
 5    1  0.3845386E+001  0.9115490E+02  0.7546771E-02  0.1300079E+00
         -2   -1    0    0    0  501 -0.00000000000E+00  0.00000000000E+00  0.22907524430E+02  0.22907524430E+02  0.00000000000E+00 0.  1.
          2   -1    0    0  501    0  0.00000000000E+00 -0.00000000000E+00 -0.90682156993E+02  0.90682156993E+02  0.00000000000E+00 0. -1.
         23    2    1    2    0    0  0.00000000000E+00  0.00000000000E+00 -0.67774632564E+02  0.11358968142E+03  0.91154895133E+02 0.  0.
          2    1    3    3  502    0  0.12152544691E+02  0.16307839250E+02 -0.84714139889E+02  0.87121268704E+02  0.00000000000E+00 0. -1.
         -2    1    3    3    0  502 -0.12152544691E+02 -0.16307839250E+02  0.16939507325E+02  0.26468412719E+02  0.00000000000E+00 0.  1.
<mgrwt>
<rscale>  0 0.91154895E+02</rscale>
<asrwt>0</asrwt>
<pdfrwt beam="2">  1        2 0.13951101E-01 0.91154895E+02</pdfrwt>
<pdfrwt beam="1">  1       -2 0.35242345E-02 0.91154895E+02</pdfrwt>
<totfact> 0.11920368E+05</totfact>
</mgrwt>
</event>
<event>
 5    1  0.3845386E+001  0.9009043E+02  0.7546771E-02  0.1302633E+00
         -3   -1    0    0    0  501 -0.00000000000E+00  0.00000000000E+00  0.49069723225E+02  0.49069723225E+02  0.00000000000E+00 0.  1.
          3   -1    0    0  501    0  0.00000000000E+00 -0.00000000000E+00 -0.41350784797E+02  0.41350784797E+02  0.00000000000E+00 0. -1.
         23    2    1    2    0    0  0.00000000000E+00  0.00000000000E+00  0.77189384289E+01  0.90420508022E+02  0.90090433790E+02 0.  0.
          2    1    3    3  502    0 -0.43993981163E+02  0.49081124107E+01 -0.45084401401E+01  0.44495909682E+02  0.00000000000E+00 0. -1.
         -2    1    3    3    0  502  0.43993981163E+02 -0.49081124107E+01  0.12227378569E+02  0.45924598340E+02  0.00000000000E+00 0.  1.
<mgrwt>
<rscale>  0 0.90090434E+02</rscale>
<asrwt>0</asrwt>
<pdfrwt beam="2">  1        3 0.63616592E-02 0.90090434E+02</pdfrwt>
<pdfrwt beam="1">  1       -3 0.75491882E-02 0.90090434E+02</pdfrwt>
<totfact> 0.36570255E+04</totfact>
</mgrwt>
</event>
<event>
 5    1  0.3845386E+001  0.9183500E+02  0.7546771E-02  0.1298468E+00
         -2   -1    0    0    0  501 -0.00000000000E+00  0.00000000000E+00  0.14415846076E+01  0.14415846076E+01  0.00000000000E+00 0.  1.
          2   -1    0    0  501    0  0.00000000000E+00 -0.00000000000E+00 -0.14625688974E+04  0.14625688974E+04  0.00000000000E+00 0. -1.
         23    2    1    2    0    0  0.00000000000E+00  0.00000000000E+00 -0.14611273127E+04  0.14640104820E+04  0.91835000081E+02 0.  0.
          2    1    3    3  502    0 -0.38493913730E+02  0.60762665462E+01 -0.34343366126E+03  0.34563764566E+03  0.00000000000E+00 0. -1.
         -2    1    3    3    0  502  0.38493913730E+02 -0.60762665462E+01 -0.11176936515E+04  0.11183728363E+04  0.00000000000E+00 0.  1.
<mgrwt>
<rscale>  0 0.91835000E+02</rscale>
<asrwt>0</asrwt>
<pdfrwt beam="2">  1        2 0.22500984E+00 0.91835000E+02</pdfrwt>
<pdfrwt beam="1">  1       -2 0.22178299E-03 0.91835000E+02</pdfrwt>
<totfact> 0.23365261E+05</totfact>
</mgrwt>
</event>
<event>
 5    1  0.3845386E+001  0.9027746E+02  0.7546771E-02  0.1302181E+00
         -1   -1    0    0    0  501 -0.00000000000E+00  0.00000000000E+00  0.94223771059E+00  0.94223771059E+00  0.00000000000E+00 0.  1.
          1   -1    0    0  501    0  0.00000000000E+00 -0.00000000000E+00 -0.21624105930E+04  0.21624105930E+04  0.00000000000E+00 0. -1.
         23    2    1    2    0    0  0.00000000000E+00  0.00000000000E+00 -0.21614683553E+04  0.21633528307E+04  0.90277456909E+02 0.  0.
          2    1    3    3  502    0  0.42455720155E+02 -0.82395864573E+01 -0.13905259299E+04  0.13911983110E+04  0.00000000000E+00 0. -1.
         -2    1    3    3    0  502 -0.42455720155E+02  0.82395864573E+01 -0.77094242542E+03  0.77215451969E+03  0.00000000000E+00 0.  1.
<mgrwt>
<rscale>  0 0.90277457E+02</rscale>
<asrwt>0</asrwt>
<pdfrwt beam="2">  1        1 0.33267429E+00 0.90277457E+02</pdfrwt>
<pdfrwt beam="1">  1       -1 0.14496151E-03 0.90277457E+02</pdfrwt>
<totfact> 0.72097325E+04</totfact>
</mgrwt>
</event>
<event>
 5    1  0.3845386E+001  0.8722432E+02  0.7546771E-02  0.1309716E+00
         -1   -1    0    0    0  501 -0.00000000000E+00  0.00000000000E+00  0.76427234372E+00  0.76427234372E+00  0.00000000000E+00 0.  1.
          1   -1    0    0  501    0  0.00000000000E+00 -0.00000000000E+00 -0.24886687680E+04  0.24886687680E+04  0.00000000000E+00 0. -1.
         23    2    1    2    0    0  0.00000000000E+00  0.00000000000E+00 -0.24879044957E+04  0.24894330404E+04  0.87224324866E+02 0.  0.
          2    1    3    3  502    0  0.28175714427E+02  0.16856908385E+02 -0.20632183403E+04  0.20634795725E+04  0.00000000000E+00 0. -1.
         -2    1    3    3    0  502 -0.28175714427E+02 -0.16856908385E+02 -0.42468615535E+03  0.42595346787E+03  0.00000000000E+00 0.  1.
<mgrwt>
<rscale>  0 0.87224325E+02</rscale>
<asrwt>0</asrwt>
<pdfrwt beam="2">  1        1 0.38288109E+00 0.87224325E+02</pdfrwt>
<pdfrwt beam="1">  1       -1 0.11757760E-03 0.87224325E+02</pdfrwt>
<totfact> 0.59483079E+04</totfact>
</mgrwt>
</event>
<event>
 5    1  0.3845386E+001  0.9074932E+02  0.7546771E-02  0.1301047E+00
          3   -1    0    0  501    0  0.00000000000E+00  0.00000000000E+00  0.45428300271E+01  0.45428300271E+01  0.00000000000E+00 0. -1.
         -3   -1    0    0    0  501 -0.00000000000E+00 -0.00000000000E+00 -0.45321087774E+03  0.45321087774E+03  0.00000000000E+00 0.  1.
         23    2    1    2    0    0  0.00000000000E+00  0.00000000000E+00 -0.44866804772E+03  0.45775370777E+03  0.90749324714E+02 0.  0.
          2    1    3    3  502    0 -0.30419210232E+02  0.27480917007E+02 -0.32244652275E+03  0.32504198065E+03  0.00000000000E+00 0.  1.
         -2    1    3    3    0  502  0.30419210232E+02 -0.27480917007E+02 -0.12622152496E+03  0.13271172712E+03  0.00000000000E+00 0. -1.
<mgrwt>
<rscale>  0 0.90749325E+02</rscale>
<asrwt>0</asrwt>
<pdfrwt beam="1">  1        3 0.69889657E-03 0.90749325E+02</pdfrwt>
<pdfrwt beam="2">  1       -3 0.69724786E-01 0.90749325E+02</pdfrwt>
<totfact> 0.19202599E+04</totfact>
</mgrwt>
</event>
<event>
 5    1  0.3845386E+001  0.9124904E+02  0.7546771E-02  0.1299855E+00
         -1   -1    0    0    0  501 -0.00000000000E+00  0.00000000000E+00  0.18661595509E+01  0.18661595509E+01  0.00000000000E+00 0.  1.
          1   -1    0    0  501    0  0.00000000000E+00 -0.00000000000E+00 -0.11154442659E+04  0.11154442659E+04  0.00000000000E+00 0. -1.
         23    2    1    2    0    0  0.00000000000E+00  0.00000000000E+00 -0.11135781064E+04  0.11173104255E+04  0.91249043180E+02 0.  0.
          2    1    3    3  502    0 -0.17191339055E+02  0.27994786169E+02 -0.94445221313E+03  0.94502340345E+03  0.00000000000E+00 0. -1.
         -2    1    3    3    0  502  0.17191339055E+02 -0.27994786169E+02 -0.16912589322E+03  0.17228702200E+03  0.00000000000E+00 0.  1.
<mgrwt>
<rscale>  0 0.91249043E+02</rscale>
<asrwt>0</asrwt>
<pdfrwt beam="2">  1        1 0.17160674E+00 0.91249043E+02</pdfrwt>
<pdfrwt beam="1">  1       -1 0.28710159E-03 0.91249043E+02</pdfrwt>
<totfact> 0.13104128E+05</totfact>
</mgrwt>
</event>
<event>
 5    1  0.3845386E+001  0.9149622E+02  0.7546771E-02  0.1299268E+00
         -1   -1    0    0    0  501 -0.00000000000E+00  0.00000000000E+00  0.18408346882E+02  0.18408346882E+02  0.00000000000E+00 0.  1.
          1   -1    0    0  501    0  0.00000000000E+00 -0.00000000000E+00 -0.11369241819E+03  0.11369241819E+03  0.00000000000E+00 0. -1.
         23    2    1    2    0    0  0.00000000000E+00  0.00000000000E+00 -0.95284071305E+02  0.13210076507E+03  0.91496217885E+02 0.  0.
          2    1    3    3  502    0  0.45556859911E+02 -0.32580613343E+01 -0.51419958546E+02  0.68775392296E+02  0.00000000000E+00 0. -1.
         -2    1    3    3    0  502 -0.45556859911E+02  0.32580613343E+01 -0.43864112760E+02  0.63325372773E+02  0.00000000000E+00 0.  1.
<mgrwt>
<rscale>  0 0.91496218E+02</rscale>
<asrwt>0</asrwt>
<pdfrwt beam="2">  1        1 0.17491141E-01 0.91496218E+02</pdfrwt>
<pdfrwt beam="1">  1       -1 0.28320534E-02 0.91496218E+02</pdfrwt>
<totfact> 0.10572952E+05</totfact>
</mgrwt>
</event>
<event>
 5    1  0.3845386E+001  0.9037820E+02  0.7546771E-02  0.1301938E+00
         -1   -1    0    0    0  501 -0.00000000000E+00  0.00000000000E+00  0.13200101943E+02  0.13200101943E+02  0.00000000000E+00 0.  1.
          1   -1    0    0  501    0  0.00000000000E+00 -0.00000000000E+00 -0.15469991216E+03  0.15469991216E+03  0.00000000000E+00 0. -1.
         23    2    1    2    0    0  0.00000000000E+00  0.00000000000E+00 -0.14149981022E+03  0.16790001411E+03  0.90378196731E+02 0.  0.
          2    1    3    3  502    0 -0.51100142247E+01 -0.33016284666E+02 -0.12727762091E+03  0.13158943759E+03  0.00000000000E+00 0. -1.
         -2    1    3    3    0  502  0.51100142247E+01  0.33016284666E+02 -0.14222189306E+02  0.36310576520E+02  0.00000000000E+00 0.  1.
<mgrwt>
<rscale>  0 0.90378197E+02</rscale>
<asrwt>0</asrwt>
<pdfrwt beam="2">  1        1 0.23799986E-01 0.90378197E+02</pdfrwt>
<pdfrwt beam="1">  1       -1 0.20307849E-02 0.90378197E+02</pdfrwt>
<totfact> 0.11547648E+05</totfact>
</mgrwt>
</event>
<event>
 5    1  0.3845386E+001  0.9718377E+02  0.7546771E-02  0.1286332E+00
          2   -1    0    0  501    0  0.00000000000E+00  0.00000000000E+00  0.78199189377E+03  0.78199189377E+03  0.00000000000E+00 0. -1.
         -2   -1    0    0    0  501 -0.00000000000E+00 -0.00000000000E+00 -0.30194320943E+01  0.30194320943E+01  0.00000000000E+00 0.  1.
         23    2    1    2    0    0  0.00000000000E+00  0.00000000000E+00  0.77897246168E+03  0.78501132587E+03  0.97183772750E+02 0.  0.
          2    1    3    3  502    0  0.41029626370E+02 -0.25481824041E+02  0.43254658379E+03  0.43523476509E+03  0.00000000000E+00 0. -1.
         -2    1    3    3    0  502 -0.41029626370E+02  0.25481824041E+02  0.34642587789E+03  0.34977656077E+03  0.00000000000E+00 0.  1.
<mgrwt>
<rscale>  0 0.97183773E+02</rscale>
<asrwt>0</asrwt>
<pdfrwt beam="1">  1        2 0.12030628E+00 0.97183773E+02</pdfrwt>
<pdfrwt beam="2">  1       -2 0.46452863E-03 0.97183773E+02</pdfrwt>
<totfact> 0.20504975E+05</totfact>
</mgrwt>
</event>
<event>
 5    1  0.3845386E+001  0.9461746E+02  0.7546771E-02  0.1292040E+00
         -2   -1    0    0    0  501 -0.00000000000E+00  0.00000000000E+00  0.16155305828E+03  0.16155305828E+03  0.00000000000E+00 0.  1.
          2   -1    0    0  501    0  0.00000000000E+00 -0.00000000000E+00 -0.13853750818E+02  0.13853750818E+02  0.00000000000E+00 0. -1.
         23    2    1    2    0    0  0.00000000000E+00  0.00000000000E+00  0.14769930746E+03  0.17540680909E+03  0.94617457443E+02 0.  0.
          2    1    3    3  502    0 -0.42678846722E+02 -0.13405883544E+02  0.45315127407E+02  0.63676231382E+02  0.00000000000E+00 0. -1.
         -2    1    3    3    0  502  0.42678846722E+02  0.13405883544E+02  0.10238418005E+03  0.11173057771E+03  0.00000000000E+00 0.  1.
<mgrwt>
<rscale>  0 0.94617457E+02</rscale>
<asrwt>0</asrwt>
<pdfrwt beam="2">  1        2 0.21313464E-02 0.94617457E+02</pdfrwt>
<pdfrwt beam="1">  1       -2 0.24854315E-01 0.94617457E+02</pdfrwt>
<totfact> 0.61852174E+04</totfact>
</mgrwt>
</event>
<event>
 5    1  0.3845386E+001  0.9323279E+02  0.7546771E-02  0.1295207E+00
         -1   -1    0    0    0  501 -0.00000000000E+00  0.00000000000E+00  0.74402424092E+01  0.74402424092E+01  0.00000000000E+00 0.  1.
          1   -1    0    0  501    0  0.00000000000E+00 -0.00000000000E+00 -0.29207224792E+03  0.29207224792E+03  0.00000000000E+00 0. -1.
         23    2    1    2    0    0  0.00000000000E+00  0.00000000000E+00 -0.28463200551E+03  0.29951249033E+03  0.93232790917E+02 0.  0.
          2    1    3    3  502    0 -0.13135072198E+02 -0.15706166804E+02 -0.27685417198E+03  0.27761024177E+03  0.00000000000E+00 0. -1.
         -2    1    3    3    0  502  0.13135072198E+02  0.15706166804E+02 -0.77778335363E+01  0.21902248557E+02  0.00000000000E+00 0.  1.
<mgrwt>
<rscale>  0 0.93232791E+02</rscale>
<asrwt>0</asrwt>
<pdfrwt beam="2">  1        1 0.44934195E-01 0.93232791E+02</pdfrwt>
<pdfrwt beam="1">  1       -1 0.11446526E-02 0.93232791E+02</pdfrwt>
<totfact> 0.12009897E+05</totfact>
</mgrwt>
</event>
<event>
 5    1  0.3845386E+001  0.9091559E+02  0.7546771E-02  0.1300650E+00
          1   -1    0    0  501    0  0.00000000000E+00  0.00000000000E+00  0.22025138347E+02  0.22025138347E+02  0.00000000000E+00 0. -1.
         -1   -1    0    0    0  501 -0.00000000000E+00 -0.00000000000E+00 -0.93820564231E+02  0.93820564231E+02  0.00000000000E+00 0.  1.
         23    2    1    2    0    0  0.00000000000E+00  0.00000000000E+00 -0.71795425883E+02  0.11584570258E+03  0.90915585177E+02 0.  0.
          2    1    3    3  502    0 -0.96768256366E+01 -0.30170647281E+02  0.56365460368E+01  0.32181975747E+02  0.00000000000E+00 0. -1.
         -2    1    3    3    0  502  0.96768256366E+01  0.30170647281E+02 -0.77431971920E+02  0.83663726831E+02  0.00000000000E+00 0.  1.
<mgrwt>
<rscale>  0 0.90915585E+02</rscale>
<asrwt>0</asrwt>
<pdfrwt beam="1">  1        1 0.33884828E-02 0.90915585E+02</pdfrwt>
<pdfrwt beam="2">  1       -1 0.14433933E-01 0.90915585E+02</pdfrwt>
<totfact> 0.82936935E+04</totfact>
</mgrwt>
</event>
<event>
 5    1  0.3845386E+001  0.9095087E+02  0.7546771E-02  0.1300565E+00
          2   -1    0    0  501    0  0.00000000000E+00  0.00000000000E+00  0.36930715949E+02  0.36930715949E+02  0.00000000000E+00 0. -1.
         -2   -1    0    0    0  501 -0.00000000000E+00 -0.00000000000E+00 -0.55997153407E+02  0.55997153407E+02  0.00000000000E+00 0.  1.
         23    2    1    2    0    0  0.00000000000E+00  0.00000000000E+00 -0.19066437459E+02  0.92927869356E+02  0.90950865118E+02 0.  0.
          2    1    3    3  502    0 -0.38972843791E+02 -0.22576119371E+02 -0.31156649735E+01  0.45147215720E+02  0.00000000000E+00 0. -1.
         -2    1    3    3    0  502  0.38972843791E+02  0.22576119371E+02 -0.15950772485E+02  0.47780653636E+02  0.00000000000E+00 0.  1.
<mgrwt>
<rscale>  0 0.90950865E+02</rscale>
<asrwt>0</asrwt>
<pdfrwt beam="1">  1        2 0.56816486E-02 0.90950865E+02</pdfrwt>
<pdfrwt beam="2">  1       -2 0.86149467E-02 0.90950865E+02</pdfrwt>
<totfact> 0.94113229E+04</totfact>
</mgrwt>
</event>
<event>
 5    1  0.3845386E+001  0.9140324E+02  0.7546771E-02  0.1299489E+00
         -1   -1    0    0    0  501 -0.00000000000E+00  0.00000000000E+00  0.21132765096E+02  0.21132765096E+02  0.00000000000E+00 0.  1.
          1   -1    0    0  501    0  0.00000000000E+00 -0.00000000000E+00 -0.98834119569E+02  0.98834119569E+02  0.00000000000E+00 0. -1.
         23    2    1    2    0    0  0.00000000000E+00  0.00000000000E+00 -0.77701354474E+02  0.11996688466E+03  0.91403243537E+02 0.  0.
          2    1    3    3  502    0 -0.34312908196E+02  0.12344877701E+02 -0.75006852342E+02  0.83401436274E+02  0.00000000000E+00 0. -1.
         -2    1    3    3    0  502  0.34312908196E+02 -0.12344877701E+02 -0.26945021320E+01  0.36565448391E+02  0.00000000000E+00 0.  1.
<mgrwt>
<rscale>  0 0.91403244E+02</rscale>
<asrwt>0</asrwt>
<pdfrwt beam="2">  1        1 0.15205249E-01 0.91403244E+02</pdfrwt>
<pdfrwt beam="1">  1       -1 0.32511947E-02 0.91403244E+02</pdfrwt>
<totfact> 0.10354511E+05</totfact>
</mgrwt>
</event>
<event>
 5    1  0.3845386E+001  0.9180051E+02  0.7546771E-02  0.1298549E+00
         -2   -1    0    0    0  501 -0.00000000000E+00  0.00000000000E+00  0.38584807303E+01  0.38584807303E+01  0.00000000000E+00 0.  1.
          2   -1    0    0  501    0  0.00000000000E+00 -0.00000000000E+00 -0.54602669224E+03  0.54602669224E+03  0.00000000000E+00 0. -1.
         23    2    1    2    0    0  0.00000000000E+00  0.00000000000E+00 -0.54216821151E+03  0.54988517297E+03  0.91800511333E+02 0.  0.
          2    1    3    3  502    0 -0.26762918394E+02 -0.15076061380E+02 -0.66782731487E+02  0.73508330497E+02  0.00000000000E+00 0.  1.
         -2    1    3    3    0  502  0.26762918394E+02  0.15076061380E+02 -0.47538548003E+03  0.47637684248E+03  0.00000000000E+00 0. -1.
<mgrwt>
<rscale>  0 0.91800511E+02</rscale>
<asrwt>0</asrwt>
<pdfrwt beam="2">  1        2 0.84004073E-01 0.91800511E+02</pdfrwt>
<pdfrwt beam="1">  1       -2 0.59361266E-03 0.91800511E+02</pdfrwt>
<totfact> 0.21762120E+05</totfact>
</mgrwt>
</event>
<event>
 5    1  0.3845386E+001  0.9089431E+02  0.7546771E-02  0.1300700E+00
         -3   -1    0    0    0  501 -0.00000000000E+00  0.00000000000E+00  0.53887996423E+03  0.53887996423E+03  0.00000000000E+00 0.  1.
          3   -1    0    0  501    0  0.00000000000E+00 -0.00000000000E+00 -0.38328463388E+01  0.38328463388E+01  0.00000000000E+00 0. -1.
         23    2    1    2    0    0  0.00000000000E+00  0.00000000000E+00  0.53504711789E+03  0.54271281057E+03  0.90894314409E+02 0.  0.
          2    1    3    3  502    0 -0.91600250526E+01 -0.29330316867E+02  0.46745843738E+03  0.46846724990E+03  0.00000000000E+00 0.  1.
         -2    1    3    3    0  502  0.91600250526E+01  0.29330316867E+02  0.67588680511E+02  0.74245560673E+02  0.00000000000E+00 0. -1.
<mgrwt>
<rscale>  0 0.90894314E+02</rscale>
<asrwt>0</asrwt>
<pdfrwt beam="2">  1        3 0.58966910E-03 0.90894314E+02</pdfrwt>
<pdfrwt beam="1">  1       -3 0.82904550E-01 0.90894314E+02</pdfrwt>
<totfact> 0.17040492E+04</totfact>
</mgrwt>
</event>
<event>
 5    1  0.3845386E+001  0.9028995E+02  0.7546771E-02  0.1302151E+00
         -2   -1    0    0    0  501 -0.00000000000E+00  0.00000000000E+00  0.14404443218E+01  0.14404443218E+01  0.00000000000E+00 0.  1.
          2   -1    0    0  501    0  0.00000000000E+00 -0.00000000000E+00 -0.14148890232E+04  0.14148890232E+04  0.00000000000E+00 0. -1.
         23    2    1    2    0    0  0.00000000000E+00  0.00000000000E+00 -0.14134485788E+04  0.14163294675E+04  0.90289952031E+02 0.  0.
          2    1    3    3  502    0  0.15121410027E+02 -0.38772157996E+02 -0.98118421231E+03  0.98206639071E+03  0.00000000000E+00 0. -1.
         -2    1    3    3    0  502 -0.15121410027E+02  0.38772157996E+02 -0.43226436653E+03  0.43426307677E+03  0.00000000000E+00 0.  1.
<mgrwt>
<rscale>  0 0.90289952E+02</rscale>
<asrwt>0</asrwt>
<pdfrwt beam="2">  1        2 0.21767569E+00 0.90289952E+02</pdfrwt>
<pdfrwt beam="1">  1       -2 0.22160636E-03 0.90289952E+02</pdfrwt>
<totfact> 0.24693372E+05</totfact>
</mgrwt>
</event>
<event>
 5    1  0.3845386E+001  0.9245783E+02  0.7546771E-02  0.1297007E+00
          2   -1    0    0  501    0  0.00000000000E+00  0.00000000000E+00  0.41068295794E+02  0.41068295794E+02  0.00000000000E+00 0. -1.
         -2   -1    0    0    0  501 -0.00000000000E+00 -0.00000000000E+00 -0.52038016547E+02  0.52038016547E+02  0.00000000000E+00 0.  1.
         23    2    1    2    0    0  0.00000000000E+00  0.00000000000E+00 -0.10969720752E+02  0.93106312341E+02  0.92457831601E+02 0.  0.
          2    1    3    3  502    0 -0.40026400748E+02  0.12793102068E+02 -0.24890108766E+02  0.48839468995E+02  0.00000000000E+00 0. -1.
         -2    1    3    3    0  502  0.40026400748E+02 -0.12793102068E+02  0.13920388013E+02  0.44266843346E+02  0.00000000000E+00 0.  1.
<mgrwt>
<rscale>  0 0.92457832E+02</rscale>
<asrwt>0</asrwt>
<pdfrwt beam="1">  1        2 0.63181994E-02 0.92457832E+02</pdfrwt>
<pdfrwt beam="2">  1       -2 0.80058487E-02 0.92457832E+02</pdfrwt>
<totfact> 0.92235517E+04</totfact>
</mgrwt>
</event>
<event>
 5    1  0.3845386E+001  0.9022130E+02  0.7546771E-02  0.1302317E+00
         -2   -1    0    0    0  501 -0.00000000000E+00  0.00000000000E+00  0.17314756873E+01  0.17314756873E+01  0.00000000000E+00 0.  1.
          2   -1    0    0  501    0  0.00000000000E+00 -0.00000000000E+00 -0.11752812648E+04  0.11752812648E+04  0.00000000000E+00 0. -1.
         23    2    1    2    0    0  0.00000000000E+00  0.00000000000E+00 -0.11735497892E+04  0.11770127405E+04  0.90221304264E+02 0.  0.
          2    1    3    3  502    0 -0.19289866205E+02 -0.83671847109E+01 -0.11074432318E+04  0.11076428217E+04  0.00000000000E+00 0. -1.
         -2    1    3    3    0  502  0.19289866205E+02  0.83671847109E+01 -0.66106557317E+02  0.69369918830E+02  0.00000000000E+00 0.  1.
<mgrwt>
<rscale>  0 0.90221304E+02</rscale>
<asrwt>0</asrwt>
<pdfrwt beam="2">  1        2 0.18081310E+00 0.90221304E+02</pdfrwt>
<pdfrwt beam="1">  1       -2 0.26637999E-03 0.90221304E+02</pdfrwt>
<totfact> 0.25620765E+05</totfact>
</mgrwt>
</event>
<event>
 5    1  0.3845386E+001  0.9039675E+02  0.7546771E-02  0.1301894E+00
         -1   -1    0    0    0  501 -0.00000000000E+00  0.00000000000E+00  0.33266683842E+01  0.33266683842E+01  0.00000000000E+00 0.  1.
          1   -1    0    0  501    0  0.00000000000E+00 -0.00000000000E+00 -0.61409580162E+03  0.61409580162E+03  0.00000000000E+00 0. -1.
         23    2    1    2    0    0  0.00000000000E+00  0.00000000000E+00 -0.61076913324E+03  0.61742247001E+03  0.90396749679E+02 0.  0.
          2    1    3    3  502    0  0.25089752370E+02  0.28490654298E+02 -0.47292221489E+03  0.47444349968E+03  0.00000000000E+00 0. -1.
         -2    1    3    3    0  502 -0.25089752370E+02 -0.28490654298E+02 -0.13784691835E+03  0.14297897032E+03  0.00000000000E+00 0.  1.
<mgrwt>
<rscale>  0 0.90396750E+02</rscale>
<asrwt>0</asrwt>
<pdfrwt beam="2">  1        1 0.94476249E-01 0.90396750E+02</pdfrwt>
<pdfrwt beam="1">  1       -1 0.51179529E-03 0.90396750E+02</pdfrwt>
<totfact> 0.14502777E+05</totfact>
</mgrwt>
</event>
<event>
 5    1  0.3845386E+001  0.9055398E+02  0.7546771E-02  0.1301516E+00
         -1   -1    0    0    0  501 -0.00000000000E+00  0.00000000000E+00  0.19643601217E+01  0.19643601217E+01  0.00000000000E+00 0.  1.
          1   -1    0    0  501    0  0.00000000000E+00 -0.00000000000E+00 -0.10435998613E+04  0.10435998613E+04  0.00000000000E+00 0. -1.
         23    2    1    2    0    0  0.00000000000E+00  0.00000000000E+00 -0.10416355012E+04  0.10455642214E+04  0.90553982806E+02 0.  0.
          2    1    3    3  502    0 -0.14494369766E+02 -0.21362854706E+02 -0.95029505150E+03  0.95064564545E+03  0.00000000000E+00 0. -1.
         -2    1    3    3    0  502  0.14494369766E+02  0.21362854706E+02 -0.91340449662E+02  0.94918575951E+02  0.00000000000E+00 0.  1.
<mgrwt>
<rscale>  0 0.90553983E+02</rscale>
<asrwt>0</asrwt>
<pdfrwt beam="2">  1        1 0.16055426E+00 0.90553983E+02</pdfrwt>
<pdfrwt beam="1">  1       -1 0.30220843E-03 0.90553983E+02</pdfrwt>
<totfact> 0.13681575E+05</totfact>
</mgrwt>
</event>
<event>
 5    1  0.3845386E+001  0.1091103E+03  0.7546771E-02  0.1262226E+00
         -2   -1    0    0    0  501 -0.00000000000E+00  0.00000000000E+00  0.25744459961E+01  0.25744459961E+01  0.00000000000E+00 0. -1.
          2   -1    0    0  501    0  0.00000000000E+00 -0.00000000000E+00 -0.11560791408E+04  0.11560791408E+04  0.00000000000E+00 0.  1.
         23    2    1    2    0    0  0.00000000000E+00  0.00000000000E+00 -0.11535046948E+04  0.11586535868E+04  0.10911028027E+03 0.  0.
          2    1    3    3  502    0  0.46357157378E+02  0.25221535056E+01 -0.88100705290E+03  0.88222943419E+03  0.00000000000E+00 0. -1.
         -2    1    3    3    0  502 -0.46357157378E+02 -0.25221535056E+01 -0.27249764188E+03  0.27642415258E+03  0.00000000000E+00 0.  1.
<mgrwt>
<rscale>  0 0.10911028E+03</rscale>
<asrwt>0</asrwt>
<pdfrwt beam="2">  1        2 0.17785825E+00 0.10911028E+03</pdfrwt>
<pdfrwt beam="1">  1       -2 0.39606879E-03 0.10911028E+03</pdfrwt>
<totfact> 0.15489395E+05</totfact>
</mgrwt>
</event>
<event>
 5    1  0.3845386E+001  0.9134300E+02  0.7546771E-02  0.1299632E+00
          1   -1    0    0  501    0  0.00000000000E+00  0.00000000000E+00  0.16831971634E+04  0.16831971634E+04  0.00000000000E+00 0. -1.
         -1   -1    0    0    0  501 -0.00000000000E+00 -0.00000000000E+00 -0.12392404008E+01  0.12392404008E+01  0.00000000000E+00 0.  1.
         23    2    1    2    0    0  0.00000000000E+00  0.00000000000E+00  0.16819579230E+04  0.16844364038E+04  0.91343000329E+02 0.  0.
          2    1    3    3  502    0 -0.24175603723E+02  0.12926709827E+02  0.15145918168E+04  0.15148399028E+04  0.00000000000E+00 0. -1.
         -2    1    3    3    0  502  0.24175603723E+02 -0.12926709827E+02  0.16736610618E+03  0.16959650097E+03  0.00000000000E+00 0.  1.
<mgrwt>
<rscale>  0 0.91343000E+02</rscale>
<asrwt>0</asrwt>
<pdfrwt beam="1">  1        1 0.25895158E+00 0.91343000E+02</pdfrwt>
<pdfrwt beam="2">  1       -1 0.19065372E-03 0.91343000E+02</pdfrwt>
<totfact> 0.98767534E+04</totfact>
</mgrwt>
</event>
<event>
 5    1  0.3845386E+001  0.8963646E+02  0.7546771E-02  0.1303734E+00
         -2   -1    0    0    0  501 -0.00000000000E+00  0.00000000000E+00  0.56599075914E+02  0.56599075914E+02  0.00000000000E+00 0.  1.
          2   -1    0    0  501    0  0.00000000000E+00 -0.00000000000E+00 -0.35489512380E+02  0.35489512380E+02  0.00000000000E+00 0. -1.
         23    2    1    2    0    0  0.00000000000E+00  0.00000000000E+00  0.21109563534E+02  0.92088588293E+02  0.89636456987E+02 0.  0.
          2    1    3    3  502    0  0.30121958922E+02  0.32392412039E+02  0.17968340941E+02  0.47743712080E+02  0.00000000000E+00 0. -1.
         -2    1    3    3    0  502 -0.30121958922E+02 -0.32392412039E+02  0.31412225926E+01  0.44344876213E+02  0.00000000000E+00 0.  1.
<mgrwt>
<rscale>  0 0.89636457E+02</rscale>
<asrwt>0</asrwt>
<pdfrwt beam="2">  1        2 0.54599250E-02 0.89636457E+02</pdfrwt>
<pdfrwt beam="1">  1       -2 0.87075502E-02 0.89636457E+02</pdfrwt>
<totfact> 0.97183344E+04</totfact>
</mgrwt>
</event>
<event>
 5    1  0.3845386E+001  0.8819288E+02  0.7546771E-02  0.1307288E+00
         -4   -1    0    0    0  501 -0.00000000000E+00  0.00000000000E+00  0.57296478186E+02  0.57296478186E+02  0.00000000000E+00 0.  1.
          4   -1    0    0  501    0  0.00000000000E+00 -0.00000000000E+00 -0.33937442691E+02  0.33937442691E+02  0.00000000000E+00 0. -1.
         23    2    1    2    0    0  0.00000000000E+00  0.00000000000E+00  0.23359035495E+02  0.91233920877E+02  0.88192878280E+02 0.  0.
          2    1    3    3  502    0 -0.26531935630E+02 -0.31937060601E+02 -0.36844165191E+01  0.41683262506E+02  0.00000000000E+00 0. -1.
         -2    1    3    3    0  502  0.26531935630E+02  0.31937060601E+02  0.27043452014E+02  0.49550658370E+02  0.00000000000E+00 0.  1.
<mgrwt>
<rscale>  0 0.88192878E+02</rscale>
<asrwt>0</asrwt>
<pdfrwt beam="2">  1        4 0.52211450E-02 0.88192878E+02</pdfrwt>
<pdfrwt beam="1">  1       -4 0.88148428E-02 0.88192878E+02</pdfrwt>
<totfact> 0.29555328E+04</totfact>
</mgrwt>
</event>
<event>
 5    1  0.3845386E+001  0.7319895E+02  0.7546771E-02  0.1349541E+00
         -1   -1    0    0    0  501 -0.00000000000E+00  0.00000000000E+00  0.67338478315E+01  0.67338478315E+01  0.00000000000E+00 0.  1.
          1   -1    0    0  501    0  0.00000000000E+00 -0.00000000000E+00 -0.19892365981E+03  0.19892365981E+03  0.00000000000E+00 0. -1.
         23    2    1    2    0    0  0.00000000000E+00  0.00000000000E+00 -0.19218981198E+03  0.20565750764E+03  0.73198952321E+02 0.  0.
          2    1    3    3  502    0 -0.25560744982E+02 -0.22723009449E+02 -0.59480409892E+02  0.68611996060E+02  0.00000000000E+00 0. -1.
         -2    1    3    3    0  502  0.25560744982E+02  0.22723009449E+02 -0.13270940208E+03  0.13704551158E+03  0.00000000000E+00 0.  1.
<mgrwt>
<rscale>  0 0.73198952E+02</rscale>
<asrwt>0</asrwt>
<pdfrwt beam="2">  1        1 0.30603641E-01 0.73198952E+02</pdfrwt>
<pdfrwt beam="1">  1       -1 0.10359766E-02 0.73198952E+02</pdfrwt>
<totfact> 0.21162195E+05</totfact>
</mgrwt>
</event>
<event>
 5    1  0.3845386E+001  0.9204643E+02  0.7546771E-02  0.1297970E+00
          1   -1    0    0  501    0  0.00000000000E+00  0.00000000000E+00  0.38872711253E+01  0.38872711253E+01  0.00000000000E+00 0. -1.
         -1   -1    0    0    0  501 -0.00000000000E+00 -0.00000000000E+00 -0.54489029122E+03  0.54489029122E+03  0.00000000000E+00 0.  1.
         23    2    1    2    0    0  0.00000000000E+00  0.00000000000E+00 -0.54100302010E+03  0.54877756235E+03  0.92046429491E+02 0.  0.
          2    1    3    3  502    0 -0.20335725490E+02  0.41100516009E+02 -0.24714905824E+03  0.25136716400E+03  0.00000000000E+00 0. -1.
         -2    1    3    3    0  502  0.20335725490E+02 -0.41100516009E+02 -0.29385396186E+03  0.29741039835E+03  0.00000000000E+00 0.  1.
<mgrwt>
<rscale>  0 0.92046429E+02</rscale>
<asrwt>0</asrwt>
<pdfrwt beam="1">  1        1 0.59804191E-03 0.92046429E+02</pdfrwt>
<pdfrwt beam="2">  1       -1 0.83829247E-01 0.92046429E+02</pdfrwt>
<totfact> 0.43420357E+04</totfact>
</mgrwt>
</event>
<event>
 5    1  0.3845386E+001  0.8915985E+02  0.7546771E-02  0.1304899E+00
          1   -1    0    0  501    0  0.00000000000E+00  0.00000000000E+00  0.66024261549E+03  0.66024261549E+03  0.00000000000E+00 0. -1.
         -1   -1    0    0    0  501 -0.00000000000E+00 -0.00000000000E+00 -0.30100600430E+01  0.30100600430E+01  0.00000000000E+00 0.  1.
         23    2    1    2    0    0  0.00000000000E+00  0.00000000000E+00  0.65723255544E+03  0.66325267553E+03  0.89159854544E+02 0.  0.
          2    1    3    3  502    0  0.67313703434E+01 -0.27052898001E+02  0.69831870910E+02  0.75190829439E+02  0.00000000000E+00 0. -1.
         -2    1    3    3    0  502 -0.67313703434E+01  0.27052898001E+02  0.58740068453E+03  0.58806184609E+03  0.00000000000E+00 0.  1.
<mgrwt>
<rscale>  0 0.89159855E+02</rscale>
<asrwt>0</asrwt>
<pdfrwt beam="1">  1        1 0.10157567E+00 0.89159855E+02</pdfrwt>
<pdfrwt beam="2">  1       -1 0.46308669E-03 0.89159855E+02</pdfrwt>
<totfact> 0.15078635E+05</totfact>
</mgrwt>
</event>
<event>
 5    1  0.3845386E+001  0.9290787E+02  0.7546771E-02  0.1295959E+00
          4   -1    0    0  501    0  0.00000000000E+00  0.00000000000E+00  0.48276051846E+01  0.48276051846E+01  0.00000000000E+00 0. -1.
         -4   -1    0    0    0  501 -0.00000000000E+00 -0.00000000000E+00 -0.44700593323E+03  0.44700593323E+03  0.00000000000E+00 0.  1.
         23    2    1    2    0    0  0.00000000000E+00  0.00000000000E+00 -0.44217832804E+03  0.45183353841E+03  0.92907871804E+02 0.  0.
          2    1    3    3  502    0  0.17660798571E+02 -0.36517349984E+02 -0.11098772022E+03  0.11816807815E+03  0.00000000000E+00 0. -1.
         -2    1    3    3    0  502 -0.17660798571E+02  0.36517349984E+02 -0.33119060783E+03  0.33366546026E+03  0.00000000000E+00 0.  1.
<mgrwt>
<rscale>  0 0.92907872E+02</rscale>
<asrwt>0</asrwt>
<pdfrwt beam="1">  1        4 0.74270818E-03 0.92907872E+02</pdfrwt>
<pdfrwt beam="2">  1       -4 0.68770172E-01 0.92907872E+02</pdfrwt>
<totfact> 0.13330731E+04</totfact>
</mgrwt>
</event>
<event>
 5    1  0.3845386E+001  0.9164994E+02  0.7546771E-02  0.1298905E+00
          4   -1    0    0  501    0  0.00000000000E+00  0.00000000000E+00  0.18760446838E+03  0.18760446838E+03  0.00000000000E+00 0.  1.
         -4   -1    0    0    0  501 -0.00000000000E+00 -0.00000000000E+00 -0.11193378602E+02  0.11193378602E+02  0.00000000000E+00 0. -1.
         23    2    1    2    0    0  0.00000000000E+00  0.00000000000E+00  0.17641108978E+03  0.19879784698E+03  0.91649939268E+02 0.  0.
          2    1    3    3  502    0 -0.36799627617E+02 -0.64461805668E+01  0.30646207062E+02  0.48321380816E+02  0.00000000000E+00 0. -1.
         -2    1    3    3    0  502  0.36799627617E+02  0.64461805668E+01  0.14576488272E+03  0.15047646617E+03  0.00000000000E+00 0.  1.
<mgrwt>
<rscale>  0 0.91649939E+02</rscale>
<asrwt>0</asrwt>
<pdfrwt beam="1">  1        4 0.28862224E-01 0.91649939E+02</pdfrwt>
<pdfrwt beam="2">  1       -4 0.17220584E-02 0.91649939E+02</pdfrwt>
<totfact> 0.21140890E+04</totfact>
</mgrwt>
</event>
<event>
 5    1  0.3845386E+001  0.8860912E+02  0.7546771E-02  0.1306255E+00
         -1   -1    0    0    0  501 -0.00000000000E+00  0.00000000000E+00  0.10559107597E+04  0.10559107597E+04  0.00000000000E+00 0.  1.
          1   -1    0    0  501    0  0.00000000000E+00 -0.00000000000E+00 -0.18589583061E+01  0.18589583061E+01  0.00000000000E+00 0. -1.
         23    2    1    2    0    0  0.00000000000E+00  0.00000000000E+00  0.10540518014E+04  0.10577697180E+04  0.88609120915E+02 0.  0.
          2    1    3    3  502    0 -0.37869826228E+02  0.43396931534E+00  0.25257232671E+03  0.25539595198E+03  0.00000000000E+00 0. -1.
         -2    1    3    3    0  502  0.37869826228E+02 -0.43396931534E+00  0.80147947471E+03  0.80237376605E+03  0.00000000000E+00 0.  1.
<mgrwt>
<rscale>  0 0.88609121E+02</rscale>
<asrwt>0</asrwt>
<pdfrwt beam="2">  1        1 0.28599443E-03 0.88609121E+02</pdfrwt>
<pdfrwt beam="1">  1       -1 0.16244733E+00 0.88609121E+02</pdfrwt>
<totfact> 0.25832330E+04</totfact>
</mgrwt>
</event>
<event>
 5    1  0.3845386E+001  0.9221221E+02  0.7546771E-02  0.1297581E+00
         -1   -1    0    0    0  501 -0.00000000000E+00  0.00000000000E+00  0.96749292106E+00  0.96749292106E+00  0.00000000000E+00 0.  1.
          1   -1    0    0  501    0  0.00000000000E+00 -0.00000000000E+00 -0.21971972134E+04  0.21971972134E+04  0.00000000000E+00 0. -1.
         23    2    1    2    0    0  0.00000000000E+00  0.00000000000E+00 -0.21962297205E+04  0.21981647063E+04  0.92212206353E+02 0.  0.
          2    1    3    3  502    0 -0.30968030950E+02  0.27438111949E+02 -0.15830922987E+04  0.15836328789E+04  0.00000000000E+00 0. -1.
         -2    1    3    3    0  502  0.30968030950E+02 -0.27438111949E+02 -0.61313742176E+03  0.61453182740E+03  0.00000000000E+00 0.  1.
<mgrwt>
<rscale>  0 0.92212206E+02</rscale>
<asrwt>0</asrwt>
<pdfrwt beam="2">  1        1 0.33802969E+00 0.92212206E+02</pdfrwt>
<pdfrwt beam="1">  1       -1 0.14884535E-03 0.92212206E+02</pdfrwt>
<totfact> 0.66228979E+04</totfact>
</mgrwt>
</event>
<event>
 5    1  0.3845386E+001  0.9152766E+02  0.7546771E-02  0.1299194E+00
         -1   -1    0    0    0  501 -0.00000000000E+00  0.00000000000E+00  0.21772760013E+01  0.21772760013E+01  0.00000000000E+00 0.  1.
          1   -1    0    0  501    0  0.00000000000E+00 -0.00000000000E+00 -0.96190300983E+03  0.96190300983E+03  0.00000000000E+00 0. -1.
         23    2    1    2    0    0  0.00000000000E+00  0.00000000000E+00 -0.95972573383E+03  0.96408028583E+03  0.91527664427E+02 0.  0.
          2    1    3    3  502    0  0.21126547628E+02  0.29945991262E+02 -0.76856414655E+03  0.76943741836E+03  0.00000000000E+00 0. -1.
         -2    1    3    3    0  502 -0.21126547628E+02 -0.29945991262E+02 -0.19116158728E+03  0.19464286748E+03  0.00000000000E+00 0.  1.
<mgrwt>
<rscale>  0 0.91527664E+02</rscale>
<asrwt>0</asrwt>
<pdfrwt beam="2">  1        1 0.14798543E+00 0.91527664E+02</pdfrwt>
<pdfrwt beam="1">  1       -1 0.33496473E-03 0.91527664E+02</pdfrwt>
<totfact> 0.13594173E+05</totfact>
</mgrwt>
</event>
<event>
 5    1  0.3845386E+001  0.9292884E+02  0.7546771E-02  0.1295910E+00
         -1   -1    0    0    0  501 -0.00000000000E+00  0.00000000000E+00  0.60529386511E+01  0.60529386511E+01  0.00000000000E+00 0.  1.
          1   -1    0    0  501    0  0.00000000000E+00 -0.00000000000E+00 -0.35667675166E+03  0.35667675166E+03  0.00000000000E+00 0. -1.
         23    2    1    2    0    0  0.00000000000E+00  0.00000000000E+00 -0.35062381301E+03  0.36272969031E+03  0.92928843661E+02 0.  0.
          2    1    3    3  502    0  0.84964935318E+01 -0.45484369548E+02 -0.15878647870E+03  0.16539094320E+03  0.00000000000E+00 0. -1.
         -2    1    3    3    0  502 -0.84964935318E+01  0.45484369548E+02 -0.19183733431E+03  0.19733874710E+03  0.00000000000E+00 0.  1.
<mgrwt>
<rscale>  0 0.92928844E+02</rscale>
<asrwt>0</asrwt>
<pdfrwt beam="2">  1        1 0.54873355E-01 0.92928844E+02</pdfrwt>
<pdfrwt beam="1">  1       -1 0.93122118E-03 0.92928844E+02</pdfrwt>
<totfact> 0.12573937E+05</totfact>
</mgrwt>
</event>
<event>
 5    1  0.3845386E+001  0.9123034E+02  0.7546771E-02  0.1299899E+00
         -2   -1    0    0    0  501 -0.00000000000E+00  0.00000000000E+00  0.42162911629E+03  0.42162911629E+03  0.00000000000E+00 0.  1.
          2   -1    0    0  501    0  0.00000000000E+00 -0.00000000000E+00 -0.49350098932E+01  0.49350098932E+01  0.00000000000E+00 0. -1.
         23    2    1    2    0    0  0.00000000000E+00  0.00000000000E+00  0.41669410640E+03  0.42656412618E+03  0.91230342763E+02 0.  0.
          2    1    3    3  502    0 -0.32517591181E+02  0.25870195395E+02  0.12036428333E+03  0.12733507548E+03  0.00000000000E+00 0. -1.
         -2    1    3    3    0  502  0.32517591181E+02 -0.25870195395E+02  0.29632982307E+03  0.29922905070E+03  0.00000000000E+00 0.  1.
<mgrwt>
<rscale>  0 0.91230343E+02</rscale>
<asrwt>0</asrwt>
<pdfrwt beam="2">  1        2 0.75923262E-03 0.91230343E+02</pdfrwt>
<pdfrwt beam="1">  1       -2 0.64865990E-01 0.91230343E+02</pdfrwt>
<totfact> 0.41111092E+04</totfact>
</mgrwt>
</event>
<event>
 5    1  0.3845386E+001  0.8012255E+02  0.7546771E-02  0.1328704E+00
          2   -1    0    0  501    0  0.00000000000E+00  0.00000000000E+00  0.45749114887E+03  0.45749114887E+03  0.00000000000E+00 0. -1.
         -2   -1    0    0    0  501 -0.00000000000E+00 -0.00000000000E+00 -0.35080583112E+01  0.35080583112E+01  0.00000000000E+00 0.  1.
         23    2    1    2    0    0  0.00000000000E+00  0.00000000000E+00  0.45398309056E+03  0.46099920718E+03  0.80122546817E+02 0.  0.
          2    1    3    3  502    0 -0.22498809662E+02 -0.13617716415E+02  0.40086941600E+03  0.40173116300E+03  0.00000000000E+00 0. -1.
         -2    1    3    3    0  502  0.22498809662E+02  0.13617716415E+02  0.53113674557E+02  0.59268044185E+02  0.00000000000E+00 0.  1.
<mgrwt>
<rscale>  0 0.80122547E+02</rscale>
<asrwt>0</asrwt>
<pdfrwt beam="1">  1        2 0.70383206E-01 0.80122547E+02</pdfrwt>
<pdfrwt beam="2">  1       -2 0.53970164E-03 0.80122547E+02</pdfrwt>
<totfact> 0.29395656E+05</totfact>
</mgrwt>
</event>
<event>
 5    1  0.3845386E+001  0.8879506E+02  0.7546771E-02  0.1305796E+00
         -1   -1    0    0    0  501 -0.00000000000E+00  0.00000000000E+00  0.23626505297E+01  0.23626505297E+01  0.00000000000E+00 0.  1.
          1   -1    0    0  501    0  0.00000000000E+00 -0.00000000000E+00 -0.83429205593E+03  0.83429205593E+03  0.00000000000E+00 0. -1.
         23    2    1    2    0    0  0.00000000000E+00  0.00000000000E+00 -0.83192940540E+03  0.83665470646E+03  0.88795057697E+02 0.  0.
          2    1    3    3  502    0  0.32646747668E+02  0.96994478721E+01 -0.68433541954E+03  0.68518235227E+03  0.00000000000E+00 0. -1.
         -2    1    3    3    0  502 -0.32646747668E+02 -0.96994478721E+01 -0.14759398586E+03  0.15147235419E+03  0.00000000000E+00 0.  1.
<mgrwt>
<rscale>  0 0.88795058E+02</rscale>
<asrwt>0</asrwt>
<pdfrwt beam="2">  1        1 0.12835257E+00 0.88795058E+02</pdfrwt>
<pdfrwt beam="1">  1       -1 0.36348485E-03 0.88795058E+02</pdfrwt>
<totfact> 0.15088375E+05</totfact>
</mgrwt>
</event>
<event>
 5    1  0.3845386E+001  0.1026534E+03  0.7546771E-02  0.1274813E+00
         -1   -1    0    0    0  501 -0.00000000000E+00  0.00000000000E+00  0.17065822550E+02  0.17065822550E+02  0.00000000000E+00 0.  1.
          1   -1    0    0  501    0  0.00000000000E+00 -0.00000000000E+00 -0.15436864187E+03  0.15436864187E+03  0.00000000000E+00 0. -1.
         23    2    1    2    0    0  0.00000000000E+00  0.00000000000E+00 -0.13730281932E+03  0.17143446442E+03  0.10265335551E+03 0.  0.
          2    1    3    3  502    0  0.46369507559E+02 -0.16254560673E+02 -0.43875987078E+02  0.65874457994E+02  0.00000000000E+00 0.  1.
         -2    1    3    3    0  502 -0.46369507559E+02  0.16254560673E+02 -0.93426832239E+02  0.10556000642E+03  0.00000000000E+00 0. -1.
<mgrwt>
<rscale>  0 0.10265336E+03</rscale>
<asrwt>0</asrwt>
<pdfrwt beam="2">  1        1 0.23749023E-01 0.10265336E+03</pdfrwt>
<pdfrwt beam="1">  1       -1 0.26255111E-02 0.10265336E+03</pdfrwt>
<totfact> 0.81690354E+04</totfact>
</mgrwt>
</event>
<event>
 5    1  0.3845386E+001  0.9160205E+02  0.7546771E-02  0.1299018E+00
         -2   -1    0    0    0  501 -0.00000000000E+00  0.00000000000E+00  0.30229566290E+01  0.30229566290E+01  0.00000000000E+00 0.  1.
          2   -1    0    0  501    0  0.00000000000E+00 -0.00000000000E+00 -0.69393447642E+03  0.69393447642E+03  0.00000000000E+00 0. -1.
         23    2    1    2    0    0  0.00000000000E+00  0.00000000000E+00 -0.69091151979E+03  0.69695743305E+03  0.91602048572E+02 0.  0.
          2    1    3    3  502    0 -0.23819976972E+02  0.31029754710E+02 -0.52670775420E+03  0.52815839983E+03  0.00000000000E+00 0. -1.
         -2    1    3    3    0  502  0.23819976972E+02 -0.31029754710E+02 -0.16420376560E+03  0.16879903322E+03  0.00000000000E+00 0.  1.
<mgrwt>
<rscale>  0 0.91602049E+02</rscale>
<asrwt>0</asrwt>
<pdfrwt beam="2">  1        2 0.10675908E+00 0.91602049E+02</pdfrwt>
<pdfrwt beam="1">  1       -2 0.46507057E-03 0.91602049E+02</pdfrwt>
<totfact> 0.23377130E+05</totfact>
</mgrwt>
</event>
<event>
 5    1  0.3845386E+001  0.9174237E+02  0.7546771E-02  0.1298686E+00
         -1   -1    0    0    0  501 -0.00000000000E+00  0.00000000000E+00  0.19661007379E+01  0.19661007379E+01  0.00000000000E+00 0.  1.
          1   -1    0    0  501    0  0.00000000000E+00 -0.00000000000E+00 -0.10702226871E+04  0.10702226871E+04  0.00000000000E+00 0. -1.
         23    2    1    2    0    0  0.00000000000E+00  0.00000000000E+00 -0.10682565863E+04  0.10721887878E+04  0.91742370032E+02 0.  0.
          2    1    3    3  502    0  0.14645149594E+02  0.14493628128E+02 -0.10130966455E+04  0.10133061525E+04  0.00000000000E+00 0. -1.
         -2    1    3    3    0  502 -0.14645149594E+02 -0.14493628128E+02 -0.55159940845E+02  0.58882635275E+02  0.00000000000E+00 0.  1.
<mgrwt>
<rscale>  0 0.91742370E+02</rscale>
<asrwt>0</asrwt>
<pdfrwt beam="2">  1        1 0.16464949E+00 0.91742370E+02</pdfrwt>
<pdfrwt beam="1">  1       -1 0.30247732E-03 0.91742370E+02</pdfrwt>
<totfact> 0.13111382E+05</totfact>
</mgrwt>
</event>
<event>
 5    1  0.3845386E+001  0.9372524E+02  0.7546771E-02  0.1294073E+00
         -2   -1    0    0    0  501 -0.00000000000E+00  0.00000000000E+00  0.60173891545E+01  0.60173891545E+01  0.00000000000E+00 0.  1.
          2   -1    0    0  501    0  0.00000000000E+00 -0.00000000000E+00 -0.36495980093E+03  0.36495980093E+03  0.00000000000E+00 0. -1.
         23    2    1    2    0    0  0.00000000000E+00  0.00000000000E+00 -0.35894241177E+03  0.37097719008E+03  0.93725239886E+02 0.  0.
          2    1    3    3  502    0  0.42661748892E+02 -0.15796299219E+02 -0.22399930741E+03  0.22857217155E+03  0.00000000000E+00 0. -1.
         -2    1    3    3    0  502 -0.42661748892E+02  0.15796299219E+02 -0.13494310436E+03  0.14240501853E+03  0.00000000000E+00 0.  1.
<mgrwt>
<rscale>  0 0.93725240E+02</rscale>
<asrwt>0</asrwt>
<pdfrwt beam="2">  1        2 0.56147685E-01 0.93725240E+02</pdfrwt>
<pdfrwt beam="1">  1       -2 0.92575180E-03 0.93725240E+02</pdfrwt>
<totfact> 0.17944760E+05</totfact>
</mgrwt>
</event>
<event>
 4    1  0.3845386E+001  0.1673373E+03  0.7546771E-02  0.1180653E+00
         -2   -1    0    0    0  501 -0.00000000000E+00  0.00000000000E+00  0.36789861704E+02  0.36789861704E+02  0.00000000000E+00 0.  1.
          2   -1    0    0  501    0  0.00000000000E+00 -0.00000000000E+00 -0.19028190742E+03  0.19028190742E+03  0.00000000000E+00 0. -1.
          2    1    1    2  502    0 -0.71614815356E+02 -0.27132658393E+02 -0.31018297703E+02  0.82625648090E+02  0.00000000000E+00 0. -1.
         -2    1    1    2    0  502  0.71614815356E+02  0.27132658393E+02 -0.12247374802E+03  0.14444612104E+03  0.00000000000E+00 0.  1.
<mgrwt>
<rscale>  0 0.16733732E+03</rscale>
<asrwt>0</asrwt>
<pdfrwt beam="2">  1        2 0.29274139E-01 0.16733732E+03</pdfrwt>
<pdfrwt beam="1">  1       -2 0.56599788E-02 0.16733732E+03</pdfrwt>
<totfact> 0.27576187E+04</totfact>
</mgrwt>
</event>
<event>
 5    1  0.3845386E+001  0.9008085E+02  0.7546771E-02  0.1302656E+00
          2   -1    0    0  501    0  0.00000000000E+00  0.00000000000E+00  0.11042153706E+04  0.11042153706E+04  0.00000000000E+00 0.  1.
         -2   -1    0    0    0  501 -0.00000000000E+00 -0.00000000000E+00 -0.18371776824E+01  0.18371776824E+01  0.00000000000E+00 0. -1.
         23    2    1    2    0    0  0.00000000000E+00  0.00000000000E+00  0.11023781930E+04  0.11060525483E+04  0.90080848918E+02 0.  0.
          2    1    3    3  502    0 -0.14406596391E+02  0.20361927408E+02  0.90709557275E+02  0.94076468303E+02  0.00000000000E+00 0. -1.
         -2    1    3    3    0  502  0.14406596391E+02 -0.20361927408E+02  0.10116686357E+04  0.10119760800E+04  0.00000000000E+00 0.  1.
<mgrwt>
<rscale>  0 0.90080849E+02</rscale>
<asrwt>0</asrwt>
<pdfrwt beam="1">  1        2 0.16987876E+00 0.90080849E+02</pdfrwt>
<pdfrwt beam="2">  1       -2 0.28264360E-03 0.90080849E+02</pdfrwt>
<totfact> 0.25824688E+05</totfact>
</mgrwt>
</event>
<event>
 5    1  0.3845386E+001  0.9076926E+02  0.7546771E-02  0.1300999E+00
         -1   -1    0    0    0  501 -0.00000000000E+00  0.00000000000E+00  0.16074392590E+02  0.16074392590E+02  0.00000000000E+00 0.  1.
          1   -1    0    0  501    0  0.00000000000E+00 -0.00000000000E+00 -0.12813949068E+03  0.12813949068E+03  0.00000000000E+00 0. -1.
         23    2    1    2    0    0  0.00000000000E+00  0.00000000000E+00 -0.11206509809E+03  0.14421388327E+03  0.90769256456E+02 0.  0.
          2    1    3    3  502    0  0.29345375232E+02  0.28895264586E+02 -0.86331408516E+02  0.95651447764E+02  0.00000000000E+00 0. -1.
         -2    1    3    3    0  502 -0.29345375232E+02 -0.28895264586E+02 -0.25733689572E+02  0.48562435503E+02  0.00000000000E+00 0.  1.
<mgrwt>
<rscale>  0 0.90769256E+02</rscale>
<asrwt>0</asrwt>
<pdfrwt beam="2">  1        1 0.19713768E-01 0.90769256E+02</pdfrwt>
<pdfrwt beam="1">  1       -1 0.24729835E-02 0.90769256E+02</pdfrwt>
<totfact> 0.11031734E+05</totfact>
</mgrwt>
</event>
<event>
 5    1  0.3845386E+001  0.9067881E+02  0.7546771E-02  0.1301216E+00
         -3   -1    0    0    0  501 -0.00000000000E+00  0.00000000000E+00  0.25948273027E+03  0.25948273027E+03  0.00000000000E+00 0.  1.
          3   -1    0    0  501    0  0.00000000000E+00 -0.00000000000E+00 -0.79221527422E+01  0.79221527422E+01  0.00000000000E+00 0. -1.
         23    2    1    2    0    0  0.00000000000E+00  0.00000000000E+00  0.25156057752E+03  0.26740488301E+03  0.90678813912E+02 0.  0.
          2    1    3    3  502    0  0.28869505183E+02  0.22468235930E+01  0.22866202384E+03  0.23048821595E+03  0.00000000000E+00 0.  1.
         -2    1    3    3    0  502 -0.28869505183E+02 -0.22468235930E+01  0.22898553682E+02  0.36916667055E+02  0.00000000000E+00 0. -1.
<mgrwt>
<rscale>  0 0.90678814E+02</rscale>
<asrwt>0</asrwt>
<pdfrwt beam="2">  1        3 0.12187929E-02 0.90678814E+02</pdfrwt>
<pdfrwt beam="1">  1       -3 0.39920414E-01 0.90678814E+02</pdfrwt>
<totfact> 0.25719677E+04</totfact>
</mgrwt>
</event>
<event>
 5    1  0.3845386E+001  0.8877679E+02  0.7546771E-02  0.1305841E+00
         -1   -1    0    0    0  501 -0.00000000000E+00  0.00000000000E+00  0.22582859674E+01  0.22582859674E+01  0.00000000000E+00 0.  1.
          1   -1    0    0  501    0  0.00000000000E+00 -0.00000000000E+00 -0.87248901446E+03  0.87248901446E+03  0.00000000000E+00 0. -1.
         23    2    1    2    0    0  0.00000000000E+00  0.00000000000E+00 -0.87023072850E+03  0.87474730043E+03  0.88776791970E+02 0.  0.
          2    1    3    3  502    0  0.21827834246E+02 -0.28160073014E+02 -0.69597491618E+03  0.69688630924E+03  0.00000000000E+00 0. -1.
         -2    1    3    3    0  502 -0.21827834246E+02  0.28160073014E+02 -0.17425581232E+03  0.17786099119E+03  0.00000000000E+00 0.  1.
<mgrwt>
<rscale>  0 0.88776792E+02</rscale>
<asrwt>0</asrwt>
<pdfrwt beam="2">  1        1 0.13422916E+00 0.88776792E+02</pdfrwt>
<pdfrwt beam="1">  1       -1 0.34742841E-03 0.88776792E+02</pdfrwt>
<totfact> 0.15007751E+05</totfact>
</mgrwt>
</event>
<event>
 5    1  0.3845386E+001  0.8381562E+02  0.7546771E-02  0.1318559E+00
          2   -1    0    0  501    0  0.00000000000E+00  0.00000000000E+00  0.86945529817E+02  0.86945529817E+02  0.00000000000E+00 0. -1.
         -2   -1    0    0    0  501 -0.00000000000E+00 -0.00000000000E+00 -0.20199593369E+02  0.20199593369E+02  0.00000000000E+00 0.  1.
         23    2    1    2    0    0  0.00000000000E+00  0.00000000000E+00  0.66745936448E+02  0.10714512319E+03  0.83815615431E+02 0.  0.
          2    1    3    3  502    0  0.14784039896E+02  0.24973505171E+02  0.72020828167E+02  0.77648203366E+02  0.00000000000E+00 0. -1.
         -2    1    3    3    0  502 -0.14784039896E+02 -0.24973505171E+02 -0.52748917188E+01  0.29496919819E+02  0.00000000000E+00 0.  1.
<mgrwt>
<rscale>  0 0.83815615E+02</rscale>
<asrwt>0</asrwt>
<pdfrwt beam="1">  1        2 0.13376235E-01 0.83815615E+02</pdfrwt>
<pdfrwt beam="2">  1       -2 0.31076298E-02 0.83815615E+02</pdfrwt>
<totfact> 0.14829642E+05</totfact>
</mgrwt>
</event>
<event>
 5    1  0.3845386E+001  0.6395203E+02  0.7546771E-02  0.1381957E+00
         -2   -1    0    0    0  501 -0.00000000000E+00  0.00000000000E+00  0.40893833835E+01  0.40893833835E+01  0.00000000000E+00 0.  1.
          2   -1    0    0  501    0  0.00000000000E+00 -0.00000000000E+00 -0.25002927185E+03  0.25002927185E+03  0.00000000000E+00 0. -1.
         23    2    1    2    0    0  0.00000000000E+00  0.00000000000E+00 -0.24593988847E+03  0.25411865524E+03  0.63952030451E+02 0.  0.
          2    1    3    3  502    0 -0.24033407341E+02  0.99378744944E+01 -0.19689347755E+03  0.19860364427E+03  0.00000000000E+00 0. -1.
         -2    1    3    3    0  502  0.24033407341E+02 -0.99378744944E+01 -0.49046410922E+02  0.55515010963E+02  0.00000000000E+00 0.  1.
<mgrwt>
<rscale>  0 0.63952030E+02</rscale>
<asrwt>0</asrwt>
<pdfrwt beam="2">  1        2 0.38466034E-01 0.63952030E+02</pdfrwt>
<pdfrwt beam="1">  1       -2 0.62913604E-03 0.63952030E+02</pdfrwt>
<totfact> 0.42567569E+05</totfact>
</mgrwt>
</event>
<event>
 5    1  0.3845386E+001  0.9109856E+02  0.7546771E-02  0.1300213E+00
          1   -1    0    0  501    0  0.00000000000E+00  0.00000000000E+00  0.92497863672E+03  0.92497863672E+03  0.00000000000E+00 0. -1.
         -1   -1    0    0    0  501 -0.00000000000E+00 -0.00000000000E+00 -0.22430105637E+01  0.22430105637E+01  0.00000000000E+00 0.  1.
         23    2    1    2    0    0  0.00000000000E+00  0.00000000000E+00  0.92273562615E+03  0.92722164728E+03  0.91098558788E+02 0.  0.
          2    1    3    3  502    0  0.31409589771E+02  0.20160796599E+02  0.72711829188E+03  0.72807556644E+03  0.00000000000E+00 0.  1.
         -2    1    3    3    0  502 -0.31409589771E+02 -0.20160796599E+02  0.19561733427E+03  0.19914608084E+03  0.00000000000E+00 0. -1.
<mgrwt>
<rscale>  0 0.91098559E+02</rscale>
<asrwt>0</asrwt>
<pdfrwt beam="1">  1        1 0.14230410E+00 0.91098559E+02</pdfrwt>
<pdfrwt beam="2">  1       -1 0.34507929E-03 0.91098559E+02</pdfrwt>
<totfact> 0.13879063E+05</totfact>
</mgrwt>
</event>
<event>
 5    1  0.3845386E+001  0.9125271E+02  0.7546771E-02  0.1299846E+00
          1   -1    0    0  501    0  0.00000000000E+00  0.00000000000E+00  0.30856795987E+02  0.30856795987E+02  0.00000000000E+00 0. -1.
         -1   -1    0    0    0  501 -0.00000000000E+00 -0.00000000000E+00 -0.67465339894E+02  0.67465339894E+02  0.00000000000E+00 0.  1.
         23    2    1    2    0    0  0.00000000000E+00  0.00000000000E+00 -0.36608543907E+02  0.98322135882E+02  0.91252709096E+02 0.  0.
          2    1    3    3  502    0 -0.37603261272E+02 -0.17621226784E+02  0.20611057699E+01  0.41578372367E+02  0.00000000000E+00 0. -1.
         -2    1    3    3    0  502  0.37603261272E+02  0.17621226784E+02 -0.38669649677E+02  0.56743763515E+02  0.00000000000E+00 0.  1.
<mgrwt>
<rscale>  0 0.91252709E+02</rscale>
<asrwt>0</asrwt>
<pdfrwt beam="1">  1        1 0.47471994E-02 0.91252709E+02</pdfrwt>
<pdfrwt beam="2">  1       -1 0.10379283E-01 0.91252709E+02</pdfrwt>
<totfact> 0.86870044E+04</totfact>
</mgrwt>
</event>
<event>
 5    1  0.3845386E+001  0.9597910E+02  0.7546771E-02  0.1288986E+00
          2   -1    0    0  501    0  0.00000000000E+00  0.00000000000E+00  0.24774555789E+03  0.24774555789E+03  0.00000000000E+00 0. -1.
         -2   -1    0    0    0  501 -0.00000000000E+00 -0.00000000000E+00 -0.92958148097E+01  0.92958148097E+01  0.00000000000E+00 0.  1.
         23    2    1    2    0    0  0.00000000000E+00  0.00000000000E+00  0.23844974308E+03  0.25704137270E+03  0.95979098267E+02 0.  0.
          2    1    3    3  502    0 -0.78497742758E+01 -0.37749928776E+02  0.19574166882E+03  0.19950307514E+03  0.00000000000E+00 0. -1.
         -2    1    3    3    0  502  0.78497742758E+01  0.37749928776E+02  0.42708074260E+02  0.57538297557E+02  0.00000000000E+00 0.  1.
<mgrwt>
<rscale>  0 0.95979098E+02</rscale>
<asrwt>0</asrwt>
<pdfrwt beam="1">  1        2 0.38114696E-01 0.95979098E+02</pdfrwt>
<pdfrwt beam="2">  1       -2 0.14301255E-02 0.95979098E+02</pdfrwt>
<totfact> 0.14573602E+05</totfact>
</mgrwt>
</event>
<event>
 5    1  0.3845386E+001  0.9090616E+02  0.7546771E-02  0.1300672E+00
         -2   -1    0    0    0  501 -0.00000000000E+00  0.00000000000E+00  0.13620034423E+02  0.13620034423E+02  0.00000000000E+00 0. -1.
          2   -1    0    0  501    0  0.00000000000E+00 -0.00000000000E+00 -0.15168701348E+03  0.15168701348E+03  0.00000000000E+00 0.  1.
         23    2    1    2    0    0  0.00000000000E+00  0.00000000000E+00 -0.13806697906E+03  0.16530704790E+03  0.90906156999E+02 0.  0.
          2    1    3    3  502    0  0.33891058681E+02 -0.21868686474E+02 -0.30926986607E+02  0.50826388886E+02  0.00000000000E+00 0. -1.
         -2    1    3    3    0  502 -0.33891058681E+02  0.21868686474E+02 -0.10713999245E+03  0.11448065902E+03  0.00000000000E+00 0.  1.
<mgrwt>
<rscale>  0 0.90906157E+02</rscale>
<asrwt>0</asrwt>
<pdfrwt beam="2">  1        2 0.23336465E-01 0.90906157E+02</pdfrwt>
<pdfrwt beam="1">  1       -2 0.20953898E-02 0.90906157E+02</pdfrwt>
<totfact> 0.14147985E+05</totfact>
</mgrwt>
</event>
<event>
 5    1  0.3845386E+001  0.9290540E+02  0.7546771E-02  0.1295965E+00
         -1   -1    0    0    0  501 -0.00000000000E+00  0.00000000000E+00  0.27753018902E+01  0.27753018902E+01  0.00000000000E+00 0.  1.
          1   -1    0    0  501    0  0.00000000000E+00 -0.00000000000E+00 -0.77752020073E+03  0.77752020073E+03  0.00000000000E+00 0. -1.
         23    2    1    2    0    0  0.00000000000E+00  0.00000000000E+00 -0.77474489884E+03  0.78029550262E+03  0.92905398826E+02 0.  0.
          2    1    3    3  502    0  0.29853226201E+02  0.15761903385E+02 -0.65537246522E+03  0.65624135871E+03  0.00000000000E+00 0. -1.
         -2    1    3    3    0  502 -0.29853226201E+02 -0.15761903385E+02 -0.11937243361E+03  0.12405414390E+03  0.00000000000E+00 0.  1.
<mgrwt>
<rscale>  0 0.92905399E+02</rscale>
<asrwt>0</asrwt>
<pdfrwt beam="2">  1        1 0.11961860E+00 0.92905399E+02</pdfrwt>
<pdfrwt beam="1">  1       -1 0.42696913E-03 0.92905399E+02</pdfrwt>
<totfact> 0.13474685E+05</totfact>
</mgrwt>
</event>
<event>
 5    1  0.3845386E+001  0.7963983E+02  0.7546771E-02  0.1330077E+00
         -1   -1    0    0    0  501 -0.00000000000E+00  0.00000000000E+00  0.12036273513E+01  0.12036273513E+01  0.00000000000E+00 0.  1.
          1   -1    0    0  501    0  0.00000000000E+00 -0.00000000000E+00 -0.13173726556E+04  0.13173726556E+04  0.00000000000E+00 0. -1.
         23    2    1    2    0    0  0.00000000000E+00  0.00000000000E+00 -0.13161690282E+04  0.13185762829E+04  0.79639833253E+02 0.  0.
          2    1    3    3  502    0 -0.23032989488E+02 -0.32464274723E+02 -0.67605466180E+03  0.67722548201E+03  0.00000000000E+00 0. -1.
         -2    1    3    3    0  502  0.23032989488E+02  0.32464274723E+02 -0.64011436642E+03  0.64135080092E+03  0.00000000000E+00 0.  1.
<mgrwt>
<rscale>  0 0.79639833E+02</rscale>
<asrwt>0</asrwt>
<pdfrwt beam="2">  1        1 0.20267300E+00 0.79639833E+02</pdfrwt>
<pdfrwt beam="1">  1       -1 0.18517318E-03 0.79639833E+02</pdfrwt>
<totfact> 0.17284459E+05</totfact>
</mgrwt>
</event>
<event>
 5    1  0.3845386E+001  0.9081357E+02  0.7546771E-02  0.1300893E+00
          1   -1    0    0  501    0  0.00000000000E+00  0.00000000000E+00  0.13870083789E+03  0.13870083789E+03  0.00000000000E+00 0. -1.
         -1   -1    0    0    0  501 -0.00000000000E+00 -0.00000000000E+00 -0.14864915396E+02  0.14864915396E+02  0.00000000000E+00 0.  1.
         23    2    1    2    0    0  0.00000000000E+00  0.00000000000E+00  0.12383592249E+03  0.15356575328E+03  0.90813572124E+02 0.  0.
          2    1    3    3  502    0 -0.31036774826E+01  0.32854216413E+02  0.11465829417E+03  0.11931285251E+03  0.00000000000E+00 0. -1.
         -2    1    3    3    0  502  0.31036774826E+01 -0.32854216413E+02  0.91776283157E+01  0.34252900776E+02  0.00000000000E+00 0.  1.
<mgrwt>
<rscale>  0 0.90813572E+02</rscale>
<asrwt>0</asrwt>
<pdfrwt beam="1">  1        1 0.21338590E-01 0.90813572E+02</pdfrwt>
<pdfrwt beam="2">  1       -1 0.22869102E-02 0.90813572E+02</pdfrwt>
<totfact> 0.11174212E+05</totfact>
</mgrwt>
</event>
<event>
 5    1  0.3845386E+001  0.9299547E+02  0.7546771E-02  0.1295756E+00
         -3   -1    0    0    0  501 -0.00000000000E+00  0.00000000000E+00  0.64199562700E+02  0.64199562700E+02  0.00000000000E+00 0.  1.
          3   -1    0    0  501    0  0.00000000000E+00 -0.00000000000E+00 -0.33676855671E+02  0.33676855671E+02  0.00000000000E+00 0. -1.
         23    2    1    2    0    0  0.00000000000E+00  0.00000000000E+00  0.30522707029E+02  0.97876418371E+02  0.92995471012E+02 0.  0.
          2    1    3    3  502    0 -0.37366121365E+02 -0.24776405102E+02  0.28234800384E+02  0.52983971429E+02  0.00000000000E+00 0. -1.
         -2    1    3    3    0  502  0.37366121365E+02  0.24776405102E+02  0.22879066453E+01  0.44892446942E+02  0.00000000000E+00 0.  1.
<mgrwt>
<rscale>  0 0.92995471E+02</rscale>
<asrwt>0</asrwt>
<pdfrwt beam="2">  1        3 0.51810547E-02 0.92995471E+02</pdfrwt>
<pdfrwt beam="1">  1       -3 0.98768558E-02 0.92995471E+02</pdfrwt>
<totfact> 0.33002203E+04</totfact>
</mgrwt>
</event>
<event>
 5    1  0.3845386E+001  0.9052730E+02  0.7546771E-02  0.1301580E+00
          2   -1    0    0  501    0  0.00000000000E+00  0.00000000000E+00  0.24780102393E+04  0.24780102393E+04  0.00000000000E+00 0. -1.
         -2   -1    0    0    0  501 -0.00000000000E+00 -0.00000000000E+00 -0.82679159382E+00  0.82679159382E+00  0.00000000000E+00 0.  1.
         23    2    1    2    0    0  0.00000000000E+00  0.00000000000E+00  0.24771834477E+04  0.24788370309E+04  0.90527300529E+02 0.  0.
          2    1    3    3  502    0 -0.32629147823E+02 -0.15573570342E+02  0.19842733764E+04  0.19846027385E+04  0.00000000000E+00 0. -1.
         -2    1    3    3    0  502  0.32629147823E+02  0.15573570342E+02  0.49291007135E+03  0.49423429243E+03  0.00000000000E+00 0.  1.
<mgrwt>
<rscale>  0 0.90527301E+02</rscale>
<asrwt>0</asrwt>
<pdfrwt beam="1">  1        2 0.38122640E+00 0.90527301E+02</pdfrwt>
<pdfrwt beam="2">  1       -2 0.12720069E-03 0.90527301E+02</pdfrwt>
<totfact> 0.15358957E+05</totfact>
</mgrwt>
</event>
<event>
 5    1  0.3845386E+001  0.9463987E+02  0.7546771E-02  0.1291989E+00
          2   -1    0    0  501    0  0.00000000000E+00  0.00000000000E+00  0.70469392570E+03  0.70469392570E+03  0.00000000000E+00 0. -1.
         -2   -1    0    0    0  501 -0.00000000000E+00 -0.00000000000E+00 -0.31775162631E+01  0.31775162631E+01  0.00000000000E+00 0.  1.
         23    2    1    2    0    0  0.00000000000E+00  0.00000000000E+00  0.70151640944E+03  0.70787144197E+03  0.94639873404E+02 0.  0.
          2    1    3    3  502    0 -0.33775806791E+02  0.16374727905E+02  0.56627541438E+03  0.56751808938E+03  0.00000000000E+00 0. -1.
         -2    1    3    3    0  502  0.33775806791E+02 -0.16374727905E+02  0.13524099506E+03  0.14035335259E+03  0.00000000000E+00 0.  1.
<mgrwt>
<rscale>  0 0.94639873E+02</rscale>
<asrwt>0</asrwt>
<pdfrwt beam="1">  1        2 0.10841433E+00 0.94639873E+02</pdfrwt>
<pdfrwt beam="2">  1       -2 0.48884922E-03 0.94639873E+02</pdfrwt>
<totfact> 0.21522413E+05</totfact>
</mgrwt>
</event>
<event>
 5    1  0.3845386E+001  0.9187308E+02  0.7546771E-02  0.1298378E+00
         -1   -1    0    0    0  501 -0.00000000000E+00  0.00000000000E+00  0.31712343728E+02  0.31712343728E+02  0.00000000000E+00 0.  1.
          1   -1    0    0  501    0  0.00000000000E+00 -0.00000000000E+00 -0.66540823929E+02  0.66540823929E+02  0.00000000000E+00 0. -1.
         23    2    1    2    0    0  0.00000000000E+00  0.00000000000E+00 -0.34828480200E+02  0.98253167657E+02  0.91873075063E+02 0.  0.
          2    1    3    3  502    0 -0.19868624562E+02  0.41139315601E+02 -0.22538649035E+02  0.50943068522E+02  0.00000000000E+00 0. -1.
         -2    1    3    3    0  502  0.19868624562E+02 -0.41139315601E+02 -0.12289831166E+02  0.47310099135E+02  0.00000000000E+00 0.  1.
<mgrwt>
<rscale>  0 0.91873075E+02</rscale>
<asrwt>0</asrwt>
<pdfrwt beam="2">  1        1 0.10237050E-01 0.91873075E+02</pdfrwt>
<pdfrwt beam="1">  1       -1 0.48788221E-02 0.91873075E+02</pdfrwt>
<totfact> 0.95861784E+04</totfact>
</mgrwt>
</event>
<event>
 5    1  0.3845386E+001  0.9545502E+02  0.7546771E-02  0.1290155E+00
         -1   -1    0    0    0  501 -0.00000000000E+00  0.00000000000E+00  0.11617305297E+03  0.11617305297E+03  0.00000000000E+00 0.  1.
          1   -1    0    0  501    0  0.00000000000E+00 -0.00000000000E+00 -0.19607949684E+02  0.19607949684E+02  0.00000000000E+00 0. -1.
         23    2    1    2    0    0  0.00000000000E+00  0.00000000000E+00  0.96565103285E+02  0.13578100265E+03  0.95455023488E+02 0.  0.
          2    1    3    3  502    0 -0.20850087779E+02  0.23044895707E+02 -0.32435553405E+01  0.31246024224E+02  0.00000000000E+00 0. -1.
         -2    1    3    3    0  502  0.20850087779E+02 -0.23044895707E+02  0.99808658626E+02  0.10453497843E+03  0.00000000000E+00 0.  1.
<mgrwt>
<rscale>  0 0.95455023E+02</rscale>
<asrwt>0</asrwt>
<pdfrwt beam="2">  1        1 0.30166077E-02 0.95455023E+02</pdfrwt>
<pdfrwt beam="1">  1       -1 0.17872777E-01 0.95455023E+02</pdfrwt>
<totfact> 0.70202851E+04</totfact>
</mgrwt>
</event>
<event>
 5    1  0.3845386E+001  0.9127621E+02  0.7546771E-02  0.1299790E+00
          1   -1    0    0  501    0  0.00000000000E+00  0.00000000000E+00  0.73445417859E+02  0.73445417859E+02  0.00000000000E+00 0. -1.
         -1   -1    0    0    0  501 -0.00000000000E+00 -0.00000000000E+00 -0.28358975504E+02  0.28358975504E+02  0.00000000000E+00 0.  1.
         23    2    1    2    0    0  0.00000000000E+00  0.00000000000E+00  0.45086442354E+02  0.10180439336E+03  0.91276213900E+02 0.  0.
          2    1    3    3  502    0  0.99786306761E+01  0.35079952367E+02  0.53142311568E+02  0.64453715230E+02  0.00000000000E+00 0. -1.
         -2    1    3    3    0  502 -0.99786306761E+01 -0.35079952367E+02 -0.80558692130E+01  0.37350678133E+02  0.00000000000E+00 0.  1.
<mgrwt>
<rscale>  0 0.91276214E+02</rscale>
<asrwt>0</asrwt>
<pdfrwt beam="1">  1        1 0.11299295E-01 0.91276214E+02</pdfrwt>
<pdfrwt beam="2">  1       -1 0.43629193E-02 0.91276214E+02</pdfrwt>
<totfact> 0.99106259E+04</totfact>
</mgrwt>
</event>
<event>
 5    1  0.3845386E+001  0.8877173E+02  0.7546771E-02  0.1305854E+00
         -2   -1    0    0    0  501 -0.00000000000E+00  0.00000000000E+00  0.13490690220E+01  0.13490690220E+01  0.00000000000E+00 0.  1.
          2   -1    0    0  501    0  0.00000000000E+00 -0.00000000000E+00 -0.14603439789E+04  0.14603439789E+04  0.00000000000E+00 0. -1.
         23    2    1    2    0    0  0.00000000000E+00  0.00000000000E+00 -0.14589949099E+04  0.14616930480E+04  0.88771725758E+02 0.  0.
          2    1    3    3  502    0  0.19825663187E+02 -0.18943200463E+02 -0.13041976724E+04  0.13044859027E+04  0.00000000000E+00 0. -1.
         -2    1    3    3    0  502 -0.19825663187E+02  0.18943200463E+02 -0.15479723756E+03  0.15720714526E+03  0.00000000000E+00 0.  1.
<mgrwt>
<rscale>  0 0.88771726E+02</rscale>
<asrwt>0</asrwt>
<pdfrwt beam="2">  1        2 0.22466748E+00 0.88771726E+02</pdfrwt>
<pdfrwt beam="1">  1       -2 0.20754984E-03 0.88771726E+02</pdfrwt>
<totfact> 0.25561271E+05</totfact>
</mgrwt>
</event>
<event>
 5    1  0.3845386E+001  0.9021441E+02  0.7546771E-02  0.1302333E+00
          2   -1    0    0  501    0  0.00000000000E+00  0.00000000000E+00  0.24944330347E+02  0.24944330347E+02  0.00000000000E+00 0. -1.
         -2   -1    0    0    0  501 -0.00000000000E+00 -0.00000000000E+00 -0.81568028355E+02  0.81568028355E+02  0.00000000000E+00 0.  1.
         23    2    1    2    0    0  0.00000000000E+00  0.00000000000E+00 -0.56623698008E+02  0.10651235870E+03  0.90214407830E+02 0.  0.
          2    1    3    3  502    0 -0.31409875618E+02  0.17861648325E+02  0.35668140275E+01  0.36308964864E+02  0.00000000000E+00 0. -1.
         -2    1    3    3    0  502  0.31409875618E+02 -0.17861648325E+02 -0.60190512036E+02  0.70203393838E+02  0.00000000000E+00 0.  1.
<mgrwt>
<rscale>  0 0.90214408E+02</rscale>
<asrwt>0</asrwt>
<pdfrwt beam="1">  1        2 0.38375893E-02 0.90214408E+02</pdfrwt>
<pdfrwt beam="2">  1       -2 0.12548927E-01 0.90214408E+02</pdfrwt>
<totfact> 0.86859256E+04</totfact>
</mgrwt>
</event>
<event>
 5    1  0.3845386E+001  0.8756203E+02  0.7546771E-02  0.1308865E+00
         -3   -1    0    0    0  501 -0.00000000000E+00  0.00000000000E+00  0.82318843420E+01  0.82318843420E+01  0.00000000000E+00 0.  1.
          3   -1    0    0  501    0  0.00000000000E+00 -0.00000000000E+00 -0.23284795737E+03  0.23284795737E+03  0.00000000000E+00 0. -1.
         23    2    1    2    0    0  0.00000000000E+00  0.00000000000E+00 -0.22461607302E+03  0.24107984171E+03  0.87562034109E+02 0.  0.
          2    1    3    3  502    0 -0.14972774058E+02 -0.39641732254E+02 -0.14260957916E+03  0.14877211757E+03  0.00000000000E+00 0. -1.
         -2    1    3    3    0  502  0.14972774058E+02  0.39641732254E+02 -0.82006493863E+02  0.92307724134E+02  0.00000000000E+00 0.  1.
<mgrwt>
<rscale>  0 0.87562034E+02</rscale>
<asrwt>0</asrwt>
<pdfrwt beam="2">  1        3 0.35822760E-01 0.87562034E+02</pdfrwt>
<pdfrwt beam="1">  1       -3 0.12664438E-02 0.87562034E+02</pdfrwt>
<totfact> 0.29541914E+04</totfact>
</mgrwt>
</event>
<event>
 5    1  0.3845386E+001  0.9112049E+02  0.7546771E-02  0.1300161E+00
          1   -1    0    0  501    0  0.00000000000E+00  0.00000000000E+00  0.11374368993E+04  0.11374368993E+04  0.00000000000E+00 0. -1.
         -1   -1    0    0    0  501 -0.00000000000E+00 -0.00000000000E+00 -0.18249238458E+01  0.18249238458E+01  0.00000000000E+00 0.  1.
         23    2    1    2    0    0  0.00000000000E+00  0.00000000000E+00  0.11356119754E+04  0.11392618231E+04  0.91120485524E+02 0.  0.
          2    1    3    3  502    0  0.20915453104E+02  0.24522676362E+02  0.97041148637E+03  0.97094658489E+03  0.00000000000E+00 0. -1.
         -2    1    3    3    0  502 -0.20915453104E+02 -0.24522676362E+02  0.16520048904E+03  0.16831523821E+03  0.00000000000E+00 0.  1.
<mgrwt>
<rscale>  0 0.91120486E+02</rscale>
<asrwt>0</asrwt>
<pdfrwt beam="1">  1        1 0.17498973E+00 0.91120486E+02</pdfrwt>
<pdfrwt beam="2">  1       -1 0.28075842E-03 0.91120486E+02</pdfrwt>
<totfact> 0.13052668E+05</totfact>
</mgrwt>
</event>
<event>
 5    1  0.3845386E+001  0.9264298E+02  0.7546771E-02  0.1296575E+00
         -1   -1    0    0    0  501 -0.00000000000E+00  0.00000000000E+00  0.77480373148E+01  0.77480373148E+01  0.00000000000E+00 0.  1.
          1   -1    0    0  501    0  0.00000000000E+00 -0.00000000000E+00 -0.27693210112E+03  0.27693210112E+03  0.00000000000E+00 0. -1.
         23    2    1    2    0    0  0.00000000000E+00  0.00000000000E+00 -0.26918406380E+03  0.28468013843E+03  0.92642976056E+02 0.  0.
          2    1    3    3  502    0 -0.27761172407E+02  0.33357411723E+02 -0.18435746525E+03  0.18939660663E+03  0.00000000000E+00 0. -1.
         -2    1    3    3    0  502  0.27761172407E+02 -0.33357411723E+02 -0.84826598549E+02  0.95283531797E+02  0.00000000000E+00 0.  1.
<mgrwt>
<rscale>  0 0.92642976E+02</rscale>
<asrwt>0</asrwt>
<pdfrwt beam="2">  1        1 0.42604942E-01 0.92642976E+02</pdfrwt>
<pdfrwt beam="1">  1       -1 0.11920056E-02 0.92642976E+02</pdfrwt>
<totfact> 0.12089968E+05</totfact>
</mgrwt>
</event>
<event>
 5    1  0.3845386E+001  0.9147570E+02  0.7546771E-02  0.1299317E+00
          1   -1    0    0  501    0  0.00000000000E+00  0.00000000000E+00  0.11353794828E+04  0.11353794828E+04  0.00000000000E+00 0. -1.
         -1   -1    0    0    0  501 -0.00000000000E+00 -0.00000000000E+00 -0.18425123714E+01  0.18425123714E+01  0.00000000000E+00 0.  1.
         23    2    1    2    0    0  0.00000000000E+00  0.00000000000E+00  0.11335369704E+04  0.11372219951E+04  0.91475696078E+02 0.  0.
          2    1    3    3  502    0  0.99253523573E+00 -0.21357244224E+02  0.10694307961E+04  0.10696444945E+04  0.00000000000E+00 0. -1.
         -2    1    3    3    0  502 -0.99253523573E+00  0.21357244224E+02  0.64106174277E+02  0.67577500601E+02  0.00000000000E+00 0.  1.
<mgrwt>
<rscale>  0 0.91475696E+02</rscale>
<asrwt>0</asrwt>
<pdfrwt beam="1">  1        1 0.17467321E+00 0.91475696E+02</pdfrwt>
<pdfrwt beam="2">  1       -1 0.28346435E-03 0.91475696E+02</pdfrwt>
<totfact> 0.12928520E+05</totfact>
</mgrwt>
</event>
<event>
 5    1  0.3845386E+001  0.1115074E+03  0.7546771E-02  0.1257804E+00
         -2   -1    0    0    0  501 -0.00000000000E+00  0.00000000000E+00  0.37944224069E+01  0.37944224069E+01  0.00000000000E+00 0.  1.
          2   -1    0    0  501    0  0.00000000000E+00 -0.00000000000E+00 -0.81922254036E+03  0.81922254036E+03  0.00000000000E+00 0. -1.
         23    2    1    2    0    0  0.00000000000E+00  0.00000000000E+00 -0.81542811795E+03  0.82301696276E+03  0.11150742331E+03 0.  0.
          2    1    3    3  502    0 -0.42973717789E+02 -0.71595990478E+01 -0.66450701857E+03  0.66593361381E+03  0.00000000000E+00 0. -1.
         -2    1    3    3    0  502  0.42973717789E+02  0.71595990478E+01 -0.15092109938E+03  0.15708334895E+03  0.00000000000E+00 0.  1.
<mgrwt>
<rscale>  0 0.11150742E+03</rscale>
<asrwt>0</asrwt>
<pdfrwt beam="2">  1        2 0.12603450E+00 0.11150742E+03</pdfrwt>
<pdfrwt beam="1">  1       -2 0.58375609E-03 0.11150742E+03</pdfrwt>
<totfact> 0.14322195E+05</totfact>
</mgrwt>
</event>
<event>
 5    1  0.3845386E+001  0.9604692E+02  0.7546771E-02  0.1288835E+00
          3   -1    0    0  501    0  0.00000000000E+00  0.00000000000E+00  0.80377518523E+03  0.80377518523E+03  0.00000000000E+00 0. -1.
         -3   -1    0    0    0  501 -0.00000000000E+00 -0.00000000000E+00 -0.28692761234E+01  0.28692761234E+01  0.00000000000E+00 0.  1.
         23    2    1    2    0    0  0.00000000000E+00  0.00000000000E+00  0.80090590911E+03  0.80664446135E+03  0.96046924939E+02 0.  0.
          2    1    3    3  502    0 -0.22920737267E+02  0.27892267471E+02  0.66642168120E+03  0.66739882825E+03  0.00000000000E+00 0. -1.
         -2    1    3    3    0  502  0.22920737267E+02 -0.27892267471E+02  0.13448422790E+03  0.13924563310E+03  0.00000000000E+00 0.  1.
<mgrwt>
<rscale>  0 0.96046925E+02</rscale>
<asrwt>0</asrwt>
<pdfrwt beam="1">  1        3 0.12365754E+00 0.96046925E+02</pdfrwt>
<pdfrwt beam="2">  1       -3 0.44142774E-03 0.96046925E+02</pdfrwt>
<totfact> 0.10721810E+04</totfact>
</mgrwt>
</event>
<event>
 5    1  0.3845386E+001  0.9125551E+02  0.7546771E-02  0.1299839E+00
          1   -1    0    0  501    0  0.00000000000E+00  0.00000000000E+00  0.75875152354E+03  0.75875152354E+03  0.00000000000E+00 0. -1.
         -1   -1    0    0    0  501 -0.00000000000E+00 -0.00000000000E+00 -0.27438392642E+01  0.27438392642E+01  0.00000000000E+00 0.  1.
         23    2    1    2    0    0  0.00000000000E+00  0.00000000000E+00  0.75600768428E+03  0.76149536280E+03  0.91255514290E+02 0.  0.
          2    1    3    3  502    0  0.28625727345E+02  0.33483211447E+02  0.47720854268E+03  0.47923746820E+03  0.00000000000E+00 0. -1.
         -2    1    3    3    0  502 -0.28625727345E+02 -0.33483211447E+02  0.27879914159E+03  0.28225789461E+03  0.00000000000E+00 0.  1.
<mgrwt>
<rscale>  0 0.91255514E+02</rscale>
<asrwt>0</asrwt>
<pdfrwt beam="1">  1        1 0.11673084E+00 0.91255514E+02</pdfrwt>
<pdfrwt beam="2">  1       -1 0.42212972E-03 0.91255514E+02</pdfrwt>
<totfact> 0.14150193E+05</totfact>
</mgrwt>
</event>
<event>
 5    1  0.3845386E+001  0.9113318E+02  0.7546771E-02  0.1300131E+00
         -2   -1    0    0    0  501 -0.00000000000E+00  0.00000000000E+00  0.76587482904E+01  0.76587482904E+01  0.00000000000E+00 0.  1.
          2   -1    0    0  501    0  0.00000000000E+00 -0.00000000000E+00 -0.27110361296E+03  0.27110361296E+03  0.00000000000E+00 0. -1.
         23    2    1    2    0    0  0.00000000000E+00  0.00000000000E+00 -0.26344486467E+03  0.27876236125E+03  0.91133184566E+02 0.  0.
          2    1    3    3  502    0 -0.11854901600E+02  0.19390555771E+02 -0.25252871987E+03  0.25354937725E+03  0.00000000000E+00 0. -1.
         -2    1    3    3    0  502  0.11854901600E+02 -0.19390555771E+02 -0.10916144806E+02  0.25212984006E+02  0.00000000000E+00 0.  1.
<mgrwt>
<rscale>  0 0.91133185E+02</rscale>
<asrwt>0</asrwt>
<pdfrwt beam="2">  1        2 0.41708249E-01 0.91133185E+02</pdfrwt>
<pdfrwt beam="1">  1       -2 0.11782690E-02 0.91133185E+02</pdfrwt>
<totfact> 0.17322148E+05</totfact>
</mgrwt>
</event>
<event>
 5    1  0.3845386E+001  0.8635515E+02  0.7546771E-02  0.1311926E+00
          3   -1    0    0  501    0  0.00000000000E+00  0.00000000000E+00  0.68295116431E+02  0.68295116431E+02  0.00000000000E+00 0. -1.
         -3   -1    0    0    0  501 -0.00000000000E+00 -0.00000000000E+00 -0.27297747267E+02  0.27297747267E+02  0.00000000000E+00 0.  1.
         23    2    1    2    0    0  0.00000000000E+00  0.00000000000E+00  0.40997369164E+02  0.95592863697E+02  0.86355146410E+02 0.  0.
          2    1    3    3  502    0  0.36769863929E+02  0.19258696629E+02  0.33661086108E+02  0.53441454014E+02  0.00000000000E+00 0. -1.
         -2    1    3    3    0  502 -0.36769863929E+02 -0.19258696629E+02  0.73362830555E+01  0.42151409683E+02  0.00000000000E+00 0.  1.
<mgrwt>
<rscale>  0 0.86355146E+02</rscale>
<asrwt>0</asrwt>
<pdfrwt beam="1">  1        3 0.10506941E-01 0.86355146E+02</pdfrwt>
<pdfrwt beam="2">  1       -3 0.41996534E-02 0.86355146E+02</pdfrwt>
<totfact> 0.40554378E+04</totfact>
</mgrwt>
</event>
<event>
 5    1  0.3845386E+001  0.9202626E+02  0.7546771E-02  0.1298018E+00
         -1   -1    0    0    0  501 -0.00000000000E+00  0.00000000000E+00  0.14546370894E+01  0.14546370894E+01  0.00000000000E+00 0.  1.
          1   -1    0    0  501    0  0.00000000000E+00 -0.00000000000E+00 -0.14554889693E+04  0.14554889693E+04  0.00000000000E+00 0. -1.
         23    2    1    2    0    0  0.00000000000E+00  0.00000000000E+00 -0.14540343322E+04  0.14569436063E+04  0.92026262292E+02 0.  0.
          2    1    3    3  502    0 -0.43157530281E+02 -0.77338191854E+01 -0.50603764445E+03  0.50793354091E+03  0.00000000000E+00 0.  1.
         -2    1    3    3    0  502  0.43157530281E+02  0.77338191854E+01 -0.94799668772E+03  0.94901006544E+03  0.00000000000E+00 0. -1.
<mgrwt>
<rscale>  0 0.92026262E+02</rscale>
<asrwt>0</asrwt>
<pdfrwt beam="2">  1        1 0.22392056E+00 0.92026262E+02</pdfrwt>
<pdfrwt beam="1">  1       -1 0.22379114E-03 0.92026262E+02</pdfrwt>
<totfact> 0.11043045E+05</totfact>
</mgrwt>
</event>
<event>
 5    1  0.3845386E+001  0.9547712E+02  0.7546771E-02  0.1290105E+00
          3   -1    0    0  501    0  0.00000000000E+00  0.00000000000E+00  0.44916186278E+01  0.44916186278E+01  0.00000000000E+00 0. -1.
         -3   -1    0    0    0  501 -0.00000000000E+00 -0.00000000000E+00 -0.50738282081E+03  0.50738282081E+03  0.00000000000E+00 0.  1.
         23    2    1    2    0    0  0.00000000000E+00  0.00000000000E+00 -0.50289120219E+03  0.51187443944E+03  0.95477120388E+02 0.  0.
          2    1    3    3  502    0  0.39855780755E+02  0.26248522873E+02 -0.25801592921E+03  0.26239224062E+03  0.00000000000E+00 0.  1.
         -2    1    3    3    0  502 -0.39855780755E+02 -0.26248522873E+02 -0.24487527298E+03  0.24948219882E+03  0.00000000000E+00 0. -1.
<mgrwt>
<rscale>  0 0.95477120E+02</rscale>
<asrwt>0</asrwt>
<pdfrwt beam="1">  1        3 0.69101881E-03 0.95477120E+02</pdfrwt>
<pdfrwt beam="2">  1       -3 0.78058832E-01 0.95477120E+02</pdfrwt>
<totfact> 0.15563248E+04</totfact>
</mgrwt>
</event>
<event>
 5    1  0.3845386E+001  0.8588265E+02  0.7546771E-02  0.1313140E+00
         -1   -1    0    0    0  501 -0.00000000000E+00  0.00000000000E+00  0.25148290912E+02  0.25148290912E+02  0.00000000000E+00 0.  1.
          1   -1    0    0  501    0  0.00000000000E+00 -0.00000000000E+00 -0.73323375844E+02  0.73323375844E+02  0.00000000000E+00 0. -1.
         23    2    1    2    0    0  0.00000000000E+00  0.00000000000E+00 -0.48175084931E+02  0.98471666756E+02  0.85882654509E+02 0.  0.
          2    1    3    3  502    0 -0.33301516376E+02  0.10256990335E+02 -0.52861104036E+02  0.63312661953E+02  0.00000000000E+00 0. -1.
         -2    1    3    3    0  502  0.33301516376E+02 -0.10256990335E+02  0.46860191045E+01  0.35159004803E+02  0.00000000000E+00 0.  1.
<mgrwt>
<rscale>  0 0.85882655E+02</rscale>
<asrwt>0</asrwt>
<pdfrwt beam="2">  1        1 0.11280520E-01 0.85882655E+02</pdfrwt>
<pdfrwt beam="1">  1       -1 0.38689678E-02 0.85882655E+02</pdfrwt>
<totfact> 0.11707313E+05</totfact>
</mgrwt>
</event>
<event>
 5    1  0.3845386E+001  0.9062278E+02  0.7546771E-02  0.1301351E+00
         -1   -1    0    0    0  501 -0.00000000000E+00  0.00000000000E+00  0.24149214473E+03  0.24149214473E+03  0.00000000000E+00 0.  1.
          1   -1    0    0  501    0  0.00000000000E+00 -0.00000000000E+00 -0.85018166159E+01  0.85018166159E+01  0.00000000000E+00 0. -1.
         23    2    1    2    0    0  0.00000000000E+00  0.00000000000E+00  0.23299032812E+03  0.24999396135E+03  0.90622777020E+02 0.  0.
          2    1    3    3  502    0 -0.51382212372E+01 -0.36916674826E+02  0.18757343532E+03  0.19124077974E+03  0.00000000000E+00 0.  1.
         -2    1    3    3    0  502  0.51382212372E+01  0.36916674826E+02  0.45416892792E+02  0.58753181604E+02  0.00000000000E+00 0. -1.
<mgrwt>
<rscale>  0 0.90622777E+02</rscale>
<asrwt>0</asrwt>
<pdfrwt beam="2">  1        1 0.13079720E-02 0.90622777E+02</pdfrwt>
<pdfrwt beam="1">  1       -1 0.37152632E-01 0.90622777E+02</pdfrwt>
<totfact> 0.66569161E+04</totfact>
</mgrwt>
</event>
<event>
 5    1  0.3845386E+001  0.9253550E+02  0.7546771E-02  0.1296825E+00
          2   -1    0    0  501    0  0.00000000000E+00  0.00000000000E+00  0.34496986579E+02  0.34496986579E+02  0.00000000000E+00 0.  1.
         -2   -1    0    0    0  501 -0.00000000000E+00 -0.00000000000E+00 -0.62054836654E+02  0.62054836654E+02  0.00000000000E+00 0. -1.
         23    2    1    2    0    0  0.00000000000E+00  0.00000000000E+00 -0.27557850075E+02  0.96551823233E+02  0.92535503829E+02 0.  0.
          2    1    3    3  502    0  0.12579910241E+02  0.33908155081E+02 -0.43887705959E+02  0.56869568813E+02  0.00000000000E+00 0. -1.
         -2    1    3    3    0  502 -0.12579910241E+02 -0.33908155081E+02  0.16329855883E+02  0.39682254420E+02  0.00000000000E+00 0.  1.
<mgrwt>
<rscale>  0 0.92535504E+02</rscale>
<asrwt>0</asrwt>
<pdfrwt beam="1">  1        2 0.53072287E-02 0.92535504E+02</pdfrwt>
<pdfrwt beam="2">  1       -2 0.95468979E-02 0.92535504E+02</pdfrwt>
<totfact> 0.87884207E+04</totfact>
</mgrwt>
</event>
<event>
 5    1  0.3845386E+001  0.8969716E+02  0.7546771E-02  0.1303587E+00
          2   -1    0    0  501    0  0.00000000000E+00  0.00000000000E+00  0.13370332834E+04  0.13370332834E+04  0.00000000000E+00 0. -1.
         -2   -1    0    0    0  501 -0.00000000000E+00 -0.00000000000E+00 -0.15043718185E+01  0.15043718185E+01  0.00000000000E+00 0.  1.
         23    2    1    2    0    0  0.00000000000E+00  0.00000000000E+00  0.13355289116E+04  0.13385376553E+04  0.89697161427E+02 0.  0.
          2    1    3    3  502    0 -0.14437790626E+02 -0.21662471563E+02  0.12127414330E+04  0.12130208142E+04  0.00000000000E+00 0. -1.
         -2    1    3    3    0  502  0.14437790626E+02  0.21662471563E+02  0.12278747865E+03  0.12551684104E+03  0.00000000000E+00 0.  1.
<mgrwt>
<rscale>  0 0.89697161E+02</rscale>
<asrwt>0</asrwt>
<pdfrwt beam="1">  1        2 0.20569648E+00 0.89697161E+02</pdfrwt>
<pdfrwt beam="2">  1       -2 0.23144289E-03 0.89697161E+02</pdfrwt>
<totfact> 0.25499476E+05</totfact>
</mgrwt>
</event>
<event>
 5    1  0.3845386E+001  0.9145404E+02  0.7546771E-02  0.1299368E+00
         -2   -1    0    0    0  501 -0.00000000000E+00  0.00000000000E+00  0.19076345639E+03  0.19076345639E+03  0.00000000000E+00 0.  1.
          2   -1    0    0  501    0  0.00000000000E+00 -0.00000000000E+00 -0.10961012004E+02  0.10961012004E+02  0.00000000000E+00 0. -1.
         23    2    1    2    0    0  0.00000000000E+00  0.00000000000E+00  0.17980244439E+03  0.20172446840E+03  0.91454043880E+02 0.  0.
          2    1    3    3  502    0 -0.17091609679E+00  0.34474840677E+02  0.23640033323E+02  0.41801854356E+02  0.00000000000E+00 0. -1.
         -2    1    3    3    0  502  0.17091609679E+00 -0.34474840677E+02  0.15616241107E+03  0.15992261404E+03  0.00000000000E+00 0.  1.
<mgrwt>
<rscale>  0 0.91454044E+02</rscale>
<asrwt>0</asrwt>
<pdfrwt beam="2">  1        2 0.16863097E-02 0.91454044E+02</pdfrwt>
<pdfrwt beam="1">  1       -2 0.29348222E-01 0.91454044E+02</pdfrwt>
<totfact> 0.63098483E+04</totfact>
</mgrwt>
</event>
<event>
 5    1  0.3845386E+001  0.9227658E+02  0.7546771E-02  0.1297430E+00
         -2   -1    0    0    0  501 -0.00000000000E+00  0.00000000000E+00  0.34861329578E+03  0.34861329578E+03  0.00000000000E+00 0. -1.
          2   -1    0    0  501    0  0.00000000000E+00 -0.00000000000E+00 -0.61063120736E+01  0.61063120736E+01  0.00000000000E+00 0.  1.
         23    2    1    2    0    0  0.00000000000E+00  0.00000000000E+00  0.34250698371E+03  0.35471960785E+03  0.92276575078E+02 0.  0.
          2    1    3    3  502    0 -0.12031960850E+02 -0.35257981997E+02  0.27588400226E+03  0.27838799558E+03  0.00000000000E+00 0. -1.
         -2    1    3    3    0  502  0.12031960850E+02  0.35257981997E+02  0.66622981444E+02  0.76331612277E+02  0.00000000000E+00 0.  1.
<mgrwt>
<rscale>  0 0.92276575E+02</rscale>
<asrwt>0</asrwt>
<pdfrwt beam="2">  1        2 0.93943290E-03 0.92276575E+02</pdfrwt>
<pdfrwt beam="1">  1       -2 0.53632799E-01 0.92276575E+02</pdfrwt>
<totfact> 0.45247654E+04</totfact>
</mgrwt>
</event>
<event>
 5    1  0.3845386E+001  0.9067699E+02  0.7546771E-02  0.1301220E+00
          2   -1    0    0  501    0  0.00000000000E+00  0.00000000000E+00  0.68110044283E+03  0.68110044283E+03  0.00000000000E+00 0.  1.
         -2   -1    0    0    0  501 -0.00000000000E+00 -0.00000000000E+00 -0.30180266257E+01  0.30180266257E+01  0.00000000000E+00 0. -1.
         23    2    1    2    0    0  0.00000000000E+00  0.00000000000E+00  0.67808241621E+03  0.68411846946E+03  0.90676993141E+02 0.  0.
          2    1    3    3  502    0 -0.28657471312E+02  0.34098253543E+02  0.27518471470E+03  0.27876615426E+03  0.00000000000E+00 0. -1.
         -2    1    3    3    0  502  0.28657471312E+02 -0.34098253543E+02  0.40289770150E+03  0.40535231519E+03  0.00000000000E+00 0.  1.
<mgrwt>
<rscale>  0 0.90676993E+02</rscale>
<asrwt>0</asrwt>
<pdfrwt beam="1">  1        2 0.10478456E+00 0.90676993E+02</pdfrwt>
<pdfrwt beam="2">  1       -2 0.46431233E-03 0.90676993E+02</pdfrwt>
<totfact> 0.23904410E+05</totfact>
</mgrwt>
</event>
<event>
 5    1  0.3845386E+001  0.9231060E+02  0.7546771E-02  0.1297351E+00
         -2   -1    0    0    0  501 -0.00000000000E+00  0.00000000000E+00  0.72379473986E+01  0.72379473986E+01  0.00000000000E+00 0.  1.
          2   -1    0    0  501    0  0.00000000000E+00 -0.00000000000E+00 -0.29432542373E+03  0.29432542373E+03  0.00000000000E+00 0. -1.
         23    2    1    2    0    0  0.00000000000E+00  0.00000000000E+00 -0.28708747633E+03  0.30156337113E+03  0.92310604701E+02 0.  0.
          2    1    3    3  502    0  0.11814695908E+02 -0.17359875854E+02 -0.92709378304E+01  0.22954359441E+02  0.00000000000E+00 0.  1.
         -2    1    3    3    0  502 -0.11814695908E+02  0.17359875854E+02 -0.27781653850E+03  0.27860901169E+03  0.00000000000E+00 0. -1.
<mgrwt>
<rscale>  0 0.92310605E+02</rscale>
<asrwt>0</asrwt>
<pdfrwt beam="2">  1        2 0.45280842E-01 0.92310605E+02</pdfrwt>
<pdfrwt beam="1">  1       -2 0.11135302E-02 0.92310605E+02</pdfrwt>
<totfact> 0.17259070E+05</totfact>
</mgrwt>
</event>
<event>
 5    1  0.3845386E+001  0.9063582E+02  0.7546771E-02  0.1301319E+00
         -1   -1    0    0    0  501 -0.00000000000E+00  0.00000000000E+00  0.12500574483E+04  0.12500574483E+04  0.00000000000E+00 0.  1.
          1   -1    0    0  501    0  0.00000000000E+00 -0.00000000000E+00 -0.16428950348E+01  0.16428950348E+01  0.00000000000E+00 0. -1.
         23    2    1    2    0    0  0.00000000000E+00  0.00000000000E+00  0.12484145533E+04  0.12517003433E+04  0.90635824597E+02 0.  0.
          2    1    3    3  502    0 -0.20339863101E+02 -0.12838274541E+02  0.93783160465E+02  0.96818451294E+02  0.00000000000E+00 0. -1.
         -2    1    3    3    0  502  0.20339863101E+02  0.12838274541E+02  0.11546313928E+04  0.11548818921E+04  0.00000000000E+00 0.  1.
<mgrwt>
<rscale>  0 0.90635825E+02</rscale>
<asrwt>0</asrwt>
<pdfrwt beam="2">  1        1 0.25275408E-03 0.90635825E+02</pdfrwt>
<pdfrwt beam="1">  1       -1 0.19231577E+00 0.90635825E+02</pdfrwt>
<totfact> 0.19192322E+04</totfact>
</mgrwt>
</event>
<event>
 5    1  0.3845386E+001  0.9114531E+02  0.7546771E-02  0.1300102E+00
         -2   -1    0    0    0  501 -0.00000000000E+00  0.00000000000E+00  0.37290713228E+02  0.37290713228E+02  0.00000000000E+00 0.  1.
          2   -1    0    0  501    0  0.00000000000E+00 -0.00000000000E+00 -0.55693947794E+02  0.55693947794E+02  0.00000000000E+00 0. -1.
         23    2    1    2    0    0  0.00000000000E+00  0.00000000000E+00 -0.18403234566E+02  0.92984661023E+02  0.91145313336E+02 0.  0.
          2    1    3    3  502    0  0.12334414841E+02  0.41496448266E+02  0.53256234584E+01  0.43617144260E+02  0.00000000000E+00 0.  1.
         -2    1    3    3    0  502 -0.12334414841E+02 -0.41496448266E+02 -0.23728858024E+02  0.49367516763E+02  0.00000000000E+00 0. -1.
<mgrwt>
<rscale>  0 0.91145313E+02</rscale>
<asrwt>0</asrwt>
<pdfrwt beam="2">  1        2 0.85682996E-02 0.91145313E+02</pdfrwt>
<pdfrwt beam="1">  1       -2 0.57370328E-02 0.91145313E+02</pdfrwt>
<totfact> 0.10408695E+05</totfact>
</mgrwt>
</event>
<event>
 5    1  0.3845386E+001  0.6462414E+02  0.7546771E-02  0.1379391E+00
          1   -1    0    0  501    0  0.00000000000E+00  0.00000000000E+00  0.13793223340E+03  0.13793223340E+03  0.00000000000E+00 0. -1.
         -1   -1    0    0    0  501 -0.00000000000E+00 -0.00000000000E+00 -0.75694413537E+01  0.75694413537E+01  0.00000000000E+00 0.  1.
         23    2    1    2    0    0  0.00000000000E+00  0.00000000000E+00  0.13036279205E+03  0.14550167476E+03  0.64624142595E+02 0.  0.
          2    1    3    3  502    0  0.22477678586E+02  0.21415925378E+02  0.85342383281E+02  0.90814152413E+02  0.00000000000E+00 0. -1.
         -2    1    3    3    0  502 -0.22477678586E+02 -0.21415925378E+02  0.45020408768E+02  0.54687522343E+02  0.00000000000E+00 0.  1.
<mgrwt>
<rscale>  0 0.64624143E+02</rscale>
<asrwt>0</asrwt>
<pdfrwt beam="1">  1        1 0.21220342E-01 0.64624143E+02</pdfrwt>
<pdfrwt beam="2">  1       -1 0.11645295E-02 0.64624143E+02</pdfrwt>
<totfact> 0.27466164E+05</totfact>
</mgrwt>
</event>
<event>
 5    1  0.3845386E+001  0.9214035E+02  0.7546771E-02  0.1297750E+00
          2   -1    0    0  501    0  0.00000000000E+00  0.00000000000E+00  0.76961699055E+01  0.76961699055E+01  0.00000000000E+00 0. -1.
         -2   -1    0    0    0  501 -0.00000000000E+00 -0.00000000000E+00 -0.27578147835E+03  0.27578147835E+03  0.00000000000E+00 0.  1.
         23    2    1    2    0    0  0.00000000000E+00  0.00000000000E+00 -0.26808530845E+03  0.28347764826E+03  0.92140351947E+02 0.  0.
          2    1    3    3  502    0 -0.90712554845E+01  0.17944339654E+02 -0.65155377165E+01  0.21136206694E+02  0.00000000000E+00 0. -1.
         -2    1    3    3    0  502  0.90712554845E+01 -0.17944339654E+02 -0.26156977073E+03  0.26234144157E+03  0.00000000000E+00 0.  1.
<mgrwt>
<rscale>  0 0.92140352E+02</rscale>
<asrwt>0</asrwt>
<pdfrwt beam="1">  1        2 0.11840260E-02 0.92140352E+02</pdfrwt>
<pdfrwt beam="2">  1       -2 0.42427924E-01 0.92140352E+02</pdfrwt>
<totfact> 0.51979502E+04</totfact>
</mgrwt>
</event>
<event>
 5    1  0.3845386E+001  0.8998561E+02  0.7546771E-02  0.1302887E+00
          1   -1    0    0  501    0  0.00000000000E+00  0.00000000000E+00  0.16720857249E+04  0.16720857249E+04  0.00000000000E+00 0. -1.
         -1   -1    0    0    0  501 -0.00000000000E+00 -0.00000000000E+00 -0.12106750511E+01  0.12106750511E+01  0.00000000000E+00 0.  1.
         23    2    1    2    0    0  0.00000000000E+00  0.00000000000E+00  0.16708750499E+04  0.16732964000E+04  0.89985609305E+02 0.  0.
          2    1    3    3  502    0  0.87334255270E+01  0.43855509771E+02  0.92799211990E+03  0.92906886346E+03  0.00000000000E+00 0. -1.
         -2    1    3    3    0  502 -0.87334255270E+01 -0.43855509771E+02  0.74288293000E+03  0.74422753654E+03  0.00000000000E+00 0.  1.
<mgrwt>
<rscale>  0 0.89985609E+02</rscale>
<asrwt>0</asrwt>
<pdfrwt beam="1">  1        1 0.25724211E+00 0.89985609E+02</pdfrwt>
<pdfrwt beam="2">  1       -1 0.18625904E-03 0.89985609E+02</pdfrwt>
<totfact> 0.10348100E+05</totfact>
</mgrwt>
</event>
<event>
 5    1  0.3845386E+001  0.9201142E+02  0.7546771E-02  0.1298053E+00
          1   -1    0    0  501    0  0.00000000000E+00  0.00000000000E+00  0.60768849159E+02  0.60768849159E+02  0.00000000000E+00 0. -1.
         -1   -1    0    0    0  501 -0.00000000000E+00 -0.00000000000E+00 -0.34829119910E+02  0.34829119910E+02  0.00000000000E+00 0.  1.
         23    2    1    2    0    0  0.00000000000E+00  0.00000000000E+00  0.25939729249E+02  0.95597969070E+02  0.92011423947E+02 0.  0.
          2    1    3    3  502    0  0.20420889713E+02  0.29896011758E+02  0.42461898283E+02  0.55801407343E+02  0.00000000000E+00 0. -1.
         -2    1    3    3    0  502 -0.20420889713E+02 -0.29896011758E+02 -0.16522169034E+02  0.39796561727E+02  0.00000000000E+00 0.  1.
<mgrwt>
<rscale>  0 0.92011424E+02</rscale>
<asrwt>0</asrwt>
<pdfrwt beam="1">  1        1 0.93490537E-02 0.92011424E+02</pdfrwt>
<pdfrwt beam="2">  1       -1 0.53583262E-02 0.92011424E+02</pdfrwt>
<totfact> 0.94144643E+04</totfact>
</mgrwt>
</event>
<event>
 5    1  0.3845386E+001  0.8964251E+02  0.7546771E-02  0.1303720E+00
         -1   -1    0    0    0  501 -0.00000000000E+00  0.00000000000E+00  0.22878500709E+01  0.22878500709E+01  0.00000000000E+00 0.  1.
          1   -1    0    0  501    0  0.00000000000E+00 -0.00000000000E+00 -0.87809282623E+03  0.87809282623E+03  0.00000000000E+00 0. -1.
         23    2    1    2    0    0  0.00000000000E+00  0.00000000000E+00 -0.87580497616E+03  0.88038067630E+03  0.89642506319E+02 0.  0.
          2    1    3    3  502    0  0.54917566764E+01  0.36015119573E+02 -0.69432257610E+03  0.69527770561E+03  0.00000000000E+00 0. -1.
         -2    1    3    3    0  502 -0.54917566764E+01 -0.36015119573E+02 -0.18148240006E+03  0.18510297070E+03  0.00000000000E+00 0.  1.
<mgrwt>
<rscale>  0 0.89642506E+02</rscale>
<asrwt>0</asrwt>
<pdfrwt beam="2">  1        1 0.13509129E+00 0.89642506E+02</pdfrwt>
<pdfrwt beam="1">  1       -1 0.35197671E-03 0.89642506E+02</pdfrwt>
<totfact> 0.14614318E+05</totfact>
</mgrwt>
</event>
<event>
 5    1  0.3845386E+001  0.9294056E+02  0.7546771E-02  0.1295883E+00
         -1   -1    0    0    0  501 -0.00000000000E+00  0.00000000000E+00  0.64659723437E+01  0.64659723437E+01  0.00000000000E+00 0.  1.
          1   -1    0    0  501    0  0.00000000000E+00 -0.00000000000E+00 -0.33397716994E+03  0.33397716994E+03  0.00000000000E+00 0. -1.
         23    2    1    2    0    0  0.00000000000E+00  0.00000000000E+00 -0.32751119759E+03  0.34044314228E+03  0.92940564755E+02 0.  0.
          2    1    3    3  502    0 -0.37266498142E+02 -0.98497584267E+01 -0.68680822802E+02  0.78758269697E+02  0.00000000000E+00 0. -1.
         -2    1    3    3    0  502  0.37266498142E+02  0.98497584267E+01 -0.25883037479E+03  0.26168487258E+03  0.00000000000E+00 0.  1.
<mgrwt>
<rscale>  0 0.92940565E+02</rscale>
<asrwt>0</asrwt>
<pdfrwt beam="2">  1        1 0.51381084E-01 0.92940565E+02</pdfrwt>
<pdfrwt beam="1">  1       -1 0.99476535E-03 0.92940565E+02</pdfrwt>
<totfact> 0.12421322E+05</totfact>
</mgrwt>
</event>
<event>
 5    1  0.3845386E+001  0.9666459E+02  0.7546771E-02  0.1287470E+00
          3   -1    0    0  501    0  0.00000000000E+00  0.00000000000E+00  0.12237899760E+02  0.12237899760E+02  0.00000000000E+00 0.  1.
         -3   -1    0    0    0  501 -0.00000000000E+00 -0.00000000000E+00 -0.19088329577E+03  0.19088329577E+03  0.00000000000E+00 0. -1.
         23    2    1    2    0    0  0.00000000000E+00  0.00000000000E+00 -0.17864539601E+03  0.20312119553E+03  0.96664587923E+02 0.  0.
          2    1    3    3  502    0  0.76341509510E+01 -0.18764959219E+02  0.28859453842E+01  0.20462957655E+02  0.00000000000E+00 0.  1.
         -2    1    3    3    0  502 -0.76341509510E+01  0.18764959219E+02 -0.18153134140E+03  0.18265823788E+03  0.00000000000E+00 0. -1.
<mgrwt>
<rscale>  0 0.96664588E+02</rscale>
<asrwt>0</asrwt>
<pdfrwt beam="1">  1        3 0.18827540E-02 0.96664588E+02</pdfrwt>
<pdfrwt beam="2">  1       -3 0.29366659E-01 0.96664588E+02</pdfrwt>
<totfact> 0.24185858E+04</totfact>
</mgrwt>
</event>
<event>
 5    1  0.3845386E+001  0.9108805E+02  0.7546771E-02  0.1300238E+00
         -1   -1    0    0    0  501 -0.00000000000E+00  0.00000000000E+00  0.42205718505E+02  0.42205718505E+02  0.00000000000E+00 0.  1.
          1   -1    0    0  501    0  0.00000000000E+00 -0.00000000000E+00 -0.49146380059E+02  0.49146380059E+02  0.00000000000E+00 0. -1.
         23    2    1    2    0    0  0.00000000000E+00  0.00000000000E+00 -0.69406615541E+01  0.91352098564E+02  0.91088051518E+02 0.  0.
          2    1    3    3  502    0  0.14844117808E+02 -0.23446364693E+02 -0.39688427417E+02  0.48427792864E+02  0.00000000000E+00 0. -1.
         -2    1    3    3    0  502 -0.14844117808E+02  0.23446364693E+02  0.32747765863E+02  0.42924305700E+02  0.00000000000E+00 0.  1.
<mgrwt>
<rscale>  0 0.91088052E+02</rscale>
<asrwt>0</asrwt>
<pdfrwt beam="2">  1        1 0.75609815E-02 0.91088052E+02</pdfrwt>
<pdfrwt beam="1">  1       -1 0.64931875E-02 0.91088052E+02</pdfrwt>
<totfact> 0.93777357E+04</totfact>
</mgrwt>
</event>
<event>
 5    1  0.3845386E+001  0.9393728E+02  0.7546771E-02  0.1293588E+00
          2   -1    0    0  501    0  0.00000000000E+00  0.00000000000E+00  0.47660550426E+01  0.47660550426E+01  0.00000000000E+00 0. -1.
         -2   -1    0    0    0  501 -0.00000000000E+00 -0.00000000000E+00 -0.46286769811E+03  0.46286769811E+03  0.00000000000E+00 0.  1.
         23    2    1    2    0    0  0.00000000000E+00  0.00000000000E+00 -0.45810164307E+03  0.46763375316E+03  0.93937275384E+02 0.  0.
          2    1    3    3  502    0  0.37403713812E+02 -0.25331429174E+02 -0.16504068768E+03  0.17111150663E+03  0.00000000000E+00 0. -1.
         -2    1    3    3    0  502 -0.37403713812E+02  0.25331429174E+02 -0.29306095539E+03  0.29652224653E+03  0.00000000000E+00 0.  1.
<mgrwt>
<rscale>  0 0.93937275E+02</rscale>
<asrwt>0</asrwt>
<pdfrwt beam="1">  1        2 0.73323913E-03 0.93937275E+02</pdfrwt>
<pdfrwt beam="2">  1       -2 0.71210426E-01 0.93937275E+02</pdfrwt>
<totfact> 0.35632055E+04</totfact>
</mgrwt>
</event>
<event>
 5    1  0.3845386E+001  0.1010619E+03  0.7546771E-02  0.1278079E+00
         -1   -1    0    0    0  501 -0.00000000000E+00  0.00000000000E+00  0.32676074991E+02  0.32676074991E+02  0.00000000000E+00 0.  1.
          1   -1    0    0  501    0  0.00000000000E+00 -0.00000000000E+00 -0.78142087760E+02  0.78142087760E+02  0.00000000000E+00 0. -1.
         23    2    1    2    0    0  0.00000000000E+00  0.00000000000E+00 -0.45466012769E+02  0.11081816275E+03  0.10106189627E+03 0.  0.
          2    1    3    3  502    0 -0.39849730728E+02  0.14730104691E+01 -0.56764661756E+02  0.69371446743E+02  0.00000000000E+00 0. -1.
         -2    1    3    3    0  502  0.39849730728E+02 -0.14730104691E+01  0.11298648987E+02  0.41446716008E+02  0.00000000000E+00 0.  1.
<mgrwt>
<rscale>  0 0.10106190E+03</rscale>
<asrwt>0</asrwt>
<pdfrwt beam="2">  1        1 0.12021859E-01 0.10106190E+03</pdfrwt>
<pdfrwt beam="1">  1       -1 0.50270885E-02 0.10106190E+03</pdfrwt>
<totfact> 0.75479213E+04</totfact>
</mgrwt>
</event>
<event>
 5    1  0.3845386E+001  0.9142635E+02  0.7546771E-02  0.1299434E+00
         -2   -1    0    0    0  501 -0.00000000000E+00  0.00000000000E+00  0.99800511519E+01  0.99800511519E+01  0.00000000000E+00 0.  1.
          2   -1    0    0  501    0  0.00000000000E+00 -0.00000000000E+00 -0.20938714208E+03  0.20938714208E+03  0.00000000000E+00 0. -1.
         23    2    1    2    0    0  0.00000000000E+00  0.00000000000E+00 -0.19940709093E+03  0.21936719323E+03  0.91426350436E+02 0.  0.
          2    1    3    3  502    0 -0.20884802396E+01 -0.44452426834E+02 -0.12478998096E+03  0.13248743091E+03  0.00000000000E+00 0. -1.
         -2    1    3    3    0  502  0.20884802396E+01  0.44452426834E+02 -0.74617109969E+02  0.86879762323E+02  0.00000000000E+00 0.  1.
<mgrwt>
<rscale>  0 0.91426350E+02</rscale>
<asrwt>0</asrwt>
<pdfrwt beam="2">  1        2 0.32213404E-01 0.91426350E+02</pdfrwt>
<pdfrwt beam="1">  1       -2 0.15353926E-02 0.91426350E+02</pdfrwt>
<totfact> 0.15612257E+05</totfact>
</mgrwt>
</event>
<event>
 5    1  0.3845386E+001  0.9039304E+02  0.7546771E-02  0.1301903E+00
         -2   -1    0    0    0  501 -0.00000000000E+00  0.00000000000E+00  0.18750445413E+01  0.18750445413E+01  0.00000000000E+00 0.  1.
          2   -1    0    0  501    0  0.00000000000E+00 -0.00000000000E+00 -0.10894276387E+04  0.10894276387E+04  0.00000000000E+00 0. -1.
         23    2    1    2    0    0  0.00000000000E+00  0.00000000000E+00 -0.10875525941E+04  0.10913026832E+04  0.90393038382E+02 0.  0.
          2    1    3    3  502    0 -0.31743825797E+02  0.21440221015E+02 -0.25418565602E+03  0.25705583300E+03  0.00000000000E+00 0.  1.
         -2    1    3    3    0  502  0.31743825797E+02 -0.21440221015E+02 -0.83336693811E+03  0.83424685021E+03  0.00000000000E+00 0. -1.
<mgrwt>
<rscale>  0 0.90393038E+02</rscale>
<asrwt>0</asrwt>
<pdfrwt beam="2">  1        2 0.16760487E+00 0.90393038E+02</pdfrwt>
<pdfrwt beam="1">  1       -2 0.28846734E-03 0.90393038E+02</pdfrwt>
<totfact> 0.25600535E+05</totfact>
</mgrwt>
</event>
<event>
 5    1  0.3845386E+001  0.9018841E+02  0.7546771E-02  0.1302396E+00
         -1   -1    0    0    0  501 -0.00000000000E+00  0.00000000000E+00  0.29679852511E+01  0.29679852511E+01  0.00000000000E+00 0.  1.
          1   -1    0    0  501    0  0.00000000000E+00 -0.00000000000E+00 -0.68514060493E+03  0.68514060493E+03  0.00000000000E+00 0. -1.
         23    2    1    2    0    0  0.00000000000E+00  0.00000000000E+00 -0.68217261968E+03  0.68810859018E+03  0.90188407468E+02 0.  0.
          2    1    3    3  502    0 -0.10892146010E+02  0.23014719751E+02 -0.62504682987E+03  0.62556522897E+03  0.00000000000E+00 0. -1.
         -2    1    3    3    0  502  0.10892146010E+02 -0.23014719751E+02 -0.57125789813E+02  0.62543361212E+02  0.00000000000E+00 0.  1.
<mgrwt>
<rscale>  0 0.90188407E+02</rscale>
<asrwt>0</asrwt>
<pdfrwt beam="2">  1        1 0.10540633E+00 0.90188407E+02</pdfrwt>
<pdfrwt beam="1">  1       -1 0.45661274E-03 0.90188407E+02</pdfrwt>
<totfact> 0.14634303E+05</totfact>
</mgrwt>
</event>
<event>
 5    1  0.3845386E+001  0.9173029E+02  0.7546771E-02  0.1298715E+00
         -1   -1    0    0    0  501 -0.00000000000E+00  0.00000000000E+00  0.15091125012E+02  0.15091125012E+02  0.00000000000E+00 0.  1.
          1   -1    0    0  501    0  0.00000000000E+00 -0.00000000000E+00 -0.13939393670E+03  0.13939393670E+03  0.00000000000E+00 0. -1.
         23    2    1    2    0    0  0.00000000000E+00  0.00000000000E+00 -0.12430281169E+03  0.15448506171E+03  0.91730285614E+02 0.  0.
          2    1    3    3  502    0  0.43393158624E+02  0.14247582149E+02 -0.69227029160E+02  0.82935766584E+02  0.00000000000E+00 0. -1.
         -2    1    3    3    0  502 -0.43393158624E+02 -0.14247582149E+02 -0.55075782529E+02  0.71549295130E+02  0.00000000000E+00 0.  1.
<mgrwt>
<rscale>  0 0.91730286E+02</rscale>
<asrwt>0</asrwt>
<pdfrwt beam="2">  1        1 0.21445222E-01 0.91730286E+02</pdfrwt>
<pdfrwt beam="1">  1       -1 0.23217115E-02 0.91730286E+02</pdfrwt>
<totfact> 0.10884626E+05</totfact>
</mgrwt>
</event>
<event>
 5    1  0.3845386E+001  0.9113829E+02  0.7546771E-02  0.1300118E+00
         -1   -1    0    0    0  501 -0.00000000000E+00  0.00000000000E+00  0.16187345233E+02  0.16187345233E+02  0.00000000000E+00 0.  1.
          1   -1    0    0  501    0  0.00000000000E+00 -0.00000000000E+00 -0.12828213227E+03  0.12828213227E+03  0.00000000000E+00 0. -1.
         23    2    1    2    0    0  0.00000000000E+00  0.00000000000E+00 -0.11209478704E+03  0.14446947750E+03  0.91138294088E+02 0.  0.
          2    1    3    3  502    0  0.37335434748E+02 -0.15794530738E+02 -0.89038128921E+02  0.97832460312E+02  0.00000000000E+00 0. -1.
         -2    1    3    3    0  502 -0.37335434748E+02  0.15794530738E+02 -0.23056658118E+02  0.46637017193E+02  0.00000000000E+00 0.  1.
<mgrwt>
<rscale>  0 0.91138294E+02</rscale>
<asrwt>0</asrwt>
<pdfrwt beam="2">  1        1 0.19735712E-01 0.91138294E+02</pdfrwt>
<pdfrwt beam="1">  1       -1 0.24903608E-02 0.91138294E+02</pdfrwt>
<totfact> 0.10913434E+05</totfact>
</mgrwt>
</event>
<event>
 5    1  0.3845386E+001  0.8540963E+02  0.7546771E-02  0.1314365E+00
         -3   -1    0    0    0  501 -0.00000000000E+00  0.00000000000E+00  0.62153671353E+02  0.62153671353E+02  0.00000000000E+00 0.  1.
          3   -1    0    0  501    0  0.00000000000E+00 -0.00000000000E+00 -0.29341810063E+02  0.29341810063E+02  0.00000000000E+00 0. -1.
         23    2    1    2    0    0  0.00000000000E+00  0.00000000000E+00  0.32811861290E+02  0.91495481416E+02  0.85409629892E+02 0.  0.
          2    1    3    3  502    0  0.80199781247E+01 -0.33487346584E+02 -0.10652083949E+02  0.36044268931E+02  0.00000000000E+00 0. -1.
         -2    1    3    3    0  502 -0.80199781247E+01  0.33487346584E+02  0.43463945238E+02  0.55451212485E+02  0.00000000000E+00 0.  1.
<mgrwt>
<rscale>  0 0.85409630E+02</rscale>
<asrwt>0</asrwt>
<pdfrwt beam="2">  1        3 0.45141247E-02 0.85409630E+02</pdfrwt>
<pdfrwt beam="1">  1       -3 0.95621032E-02 0.85409630E+02</pdfrwt>
<totfact> 0.42156570E+04</totfact>
</mgrwt>
</event>
<event>
 5    1  0.3845386E+001  0.8920234E+02  0.7546771E-02  0.1304795E+00
         -4   -1    0    0    0  501 -0.00000000000E+00  0.00000000000E+00  0.85723681735E+01  0.85723681735E+01  0.00000000000E+00 0.  1.
          4   -1    0    0  501    0  0.00000000000E+00 -0.00000000000E+00 -0.23205542801E+03  0.23205542801E+03  0.00000000000E+00 0. -1.
         23    2    1    2    0    0  0.00000000000E+00  0.00000000000E+00 -0.22348305983E+03  0.24062779618E+03  0.89202344487E+02 0.  0.
          2    1    3    3  502    0 -0.53735547970E+01 -0.28301088936E+02 -0.19888548069E+02  0.35005443439E+02  0.00000000000E+00 0. -1.
         -2    1    3    3    0  502  0.53735547970E+01  0.28301088936E+02 -0.20359451176E+03  0.20562235274E+03  0.00000000000E+00 0.  1.
<mgrwt>
<rscale>  0 0.89202344E+02</rscale>
<asrwt>0</asrwt>
<pdfrwt beam="2">  1        4 0.35700838E-01 0.89202344E+02</pdfrwt>
<pdfrwt beam="1">  1       -4 0.13188258E-02 0.89202344E+02</pdfrwt>
<totfact> 0.20987935E+04</totfact>
</mgrwt>
</event>
<event>
 5    1  0.3845386E+001  0.9142567E+02  0.7546771E-02  0.1299435E+00
          3   -1    0    0  501    0  0.00000000000E+00  0.00000000000E+00  0.46983837567E+03  0.46983837567E+03  0.00000000000E+00 0. -1.
         -3   -1    0    0    0  501 -0.00000000000E+00 -0.00000000000E+00 -0.44476217193E+01  0.44476217193E+01  0.00000000000E+00 0.  1.
         23    2    1    2    0    0  0.00000000000E+00  0.00000000000E+00  0.46539075395E+03  0.47428599739E+03  0.91425671759E+02 0.  0.
          2    1    3    3  502    0 -0.27748410991E+02 -0.16071021813E+02  0.63684755668E+02  0.71302174996E+02  0.00000000000E+00 0.  1.
         -2    1    3    3    0  502  0.27748410991E+02  0.16071021813E+02  0.40170599828E+03  0.40298382239E+03  0.00000000000E+00 0. -1.
<mgrwt>
<rscale>  0 0.91425672E+02</rscale>
<asrwt>0</asrwt>
<pdfrwt beam="1">  1        3 0.72282788E-01 0.91425672E+02</pdfrwt>
<pdfrwt beam="2">  1       -3 0.68424987E-03 0.91425672E+02</pdfrwt>
<totfact> 0.18416836E+04</totfact>
</mgrwt>
</event>
<event>
 5    1  0.3845386E+001  0.1053389E+03  0.7546771E-02  0.1269453E+00
          2   -1    0    0  501    0  0.00000000000E+00  0.00000000000E+00  0.18822951118E+04  0.18822951118E+04  0.00000000000E+00 0. -1.
         -2   -1    0    0    0  501 -0.00000000000E+00 -0.00000000000E+00 -0.14737713914E+01  0.14737713914E+01  0.00000000000E+00 0.  1.
         23    2    1    2    0    0  0.00000000000E+00  0.00000000000E+00  0.18808213404E+04  0.18837688832E+04  0.10533893271E+03 0.  0.
          2    1    3    3  502    0  0.49490654033E+02 -0.11809787429E+02  0.69699463138E+03  0.69884927709E+03  0.00000000000E+00 0. -1.
         -2    1    3    3    0  502 -0.49490654033E+02  0.11809787429E+02  0.11838267090E+04  0.11849196061E+04  0.00000000000E+00 0.  1.
<mgrwt>
<rscale>  0 0.10533893E+03</rscale>
<asrwt>0</asrwt>
<pdfrwt beam="1">  1        2 0.28958194E+00 0.10533893E+03</pdfrwt>
<pdfrwt beam="2">  1       -2 0.22673557E-03 0.10533893E+03</pdfrwt>
<totfact> 0.14124865E+05</totfact>
</mgrwt>
</event>
<event>
 5    1  0.3845386E+001  0.9103499E+02  0.7546771E-02  0.1300365E+00
         -1   -1    0    0    0  501 -0.00000000000E+00  0.00000000000E+00  0.92273706321E+03  0.92273706321E+03  0.00000000000E+00 0.  1.
          1   -1    0    0  501    0  0.00000000000E+00 -0.00000000000E+00 -0.22453223473E+01  0.22453223473E+01  0.00000000000E+00 0. -1.
         23    2    1    2    0    0  0.00000000000E+00  0.00000000000E+00  0.92049174086E+03  0.92498238556E+03  0.91034985555E+02 0.  0.
          2    1    3    3  502    0  0.36214714726E+02  0.96855829413E+01  0.72256726047E+03  0.72353905353E+03  0.00000000000E+00 0.  1.
         -2    1    3    3    0  502 -0.36214714726E+02 -0.96855829413E+01  0.19792448039E+03  0.20144333202E+03  0.00000000000E+00 0. -1.
<mgrwt>
<rscale>  0 0.91034986E+02</rscale>
<asrwt>0</asrwt>
<pdfrwt beam="2">  1        1 0.34543494E-03 0.91034986E+02</pdfrwt>
<pdfrwt beam="1">  1       -1 0.14195925E+00 0.91034986E+02</pdfrwt>
<totfact> 0.28271877E+04</totfact>
</mgrwt>
</event>
<event>
 5    1  0.3845386E+001  0.9033933E+02  0.7546771E-02  0.1302032E+00
          1   -1    0    0  501    0  0.00000000000E+00  0.00000000000E+00  0.14114957958E+02  0.14114957958E+02  0.00000000000E+00 0. -1.
         -1   -1    0    0    0  501 -0.00000000000E+00 -0.00000000000E+00 -0.14454868145E+03  0.14454868145E+03  0.00000000000E+00 0.  1.
         23    2    1    2    0    0  0.00000000000E+00  0.00000000000E+00 -0.13043372349E+03  0.15866363941E+03  0.90339328345E+02 0.  0.
          2    1    3    3  502    0  0.11447226829E+02 -0.43630849704E+02 -0.61057521583E+02  0.75912521956E+02  0.00000000000E+00 0. -1.
         -2    1    3    3    0  502 -0.11447226829E+02  0.43630849704E+02 -0.69376201907E+02  0.82751117449E+02  0.00000000000E+00 0.  1.
<mgrwt>
<rscale>  0 0.90339328E+02</rscale>
<asrwt>0</asrwt>
<pdfrwt beam="1">  1        1 0.21715320E-02 0.90339328E+02</pdfrwt>
<pdfrwt beam="2">  1       -1 0.22238259E-01 0.90339328E+02</pdfrwt>
<totfact> 0.77257755E+04</totfact>
</mgrwt>
</event>
<event>
 5    1  0.3845386E+001  0.8951823E+02  0.7546771E-02  0.1304023E+00
          1   -1    0    0  501    0  0.00000000000E+00  0.00000000000E+00  0.11494382037E+04  0.11494382037E+04  0.00000000000E+00 0. -1.
         -1   -1    0    0    0  501 -0.00000000000E+00 -0.00000000000E+00 -0.17429197956E+01  0.17429197956E+01  0.00000000000E+00 0.  1.
         23    2    1    2    0    0  0.00000000000E+00  0.00000000000E+00  0.11476952839E+04  0.11511811235E+04  0.89518234991E+02 0.  0.
          2    1    3    3  502    0 -0.42439087382E+02 -0.88162810918E+01  0.71737963910E+03  0.71868793613E+03  0.00000000000E+00 0. -1.
         -2    1    3    3    0  502  0.42439087382E+02  0.88162810918E+01  0.43031564477E+03  0.43249318733E+03  0.00000000000E+00 0.  1.
<mgrwt>
<rscale>  0 0.89518235E+02</rscale>
<asrwt>0</asrwt>
<pdfrwt beam="1">  1        1 0.17683604E+00 0.89518235E+02</pdfrwt>
<pdfrwt beam="2">  1       -1 0.26814243E-03 0.89518235E+02</pdfrwt>
<totfact> 0.13620355E+05</totfact>
</mgrwt>
</event>
<event>
 5    1  0.3845386E+001  0.9056326E+02  0.7546771E-02  0.1301493E+00
         -3   -1    0    0    0  501 -0.00000000000E+00  0.00000000000E+00  0.73571730662E+03  0.73571730662E+03  0.00000000000E+00 0.  1.
          3   -1    0    0  501    0  0.00000000000E+00 -0.00000000000E+00 -0.27869755183E+01  0.27869755183E+01  0.00000000000E+00 0. -1.
         23    2    1    2    0    0  0.00000000000E+00  0.00000000000E+00  0.73293033110E+03  0.73850428214E+03  0.90563262351E+02 0.  0.
          2    1    3    3  502    0 -0.10364656993E+02 -0.31953653189E+02  0.11886099590E+03  0.12351679405E+03  0.00000000000E+00 0. -1.
         -2    1    3    3    0  502  0.10364656993E+02  0.31953653189E+02  0.61406933520E+03  0.61498748808E+03  0.00000000000E+00 0.  1.
<mgrwt>
<rscale>  0 0.90563262E+02</rscale>
<asrwt>0</asrwt>
<pdfrwt beam="2">  1        3 0.42876605E-03 0.90563262E+02</pdfrwt>
<pdfrwt beam="1">  1       -3 0.11318712E+00 0.90563262E+02</pdfrwt>
<totfact> 0.13514897E+04</totfact>
</mgrwt>
</event>
<event>
 5    1  0.3845386E+001  0.8986812E+02  0.7546771E-02  0.1303171E+00
          2   -1    0    0  501    0  0.00000000000E+00  0.00000000000E+00  0.38560448645E+03  0.38560448645E+03  0.00000000000E+00 0. -1.
         -2   -1    0    0    0  501 -0.00000000000E+00 -0.00000000000E+00 -0.52361156245E+01  0.52361156245E+01  0.00000000000E+00 0.  1.
         23    2    1    2    0    0  0.00000000000E+00  0.00000000000E+00  0.38036837083E+03  0.39084060208E+03  0.89868118404E+02 0.  0.
          2    1    3    3  502    0 -0.24764784357E+02 -0.11088690421E+02  0.34595146021E+03  0.34701392828E+03  0.00000000000E+00 0. -1.
         -2    1    3    3    0  502  0.24764784357E+02  0.11088690421E+02  0.34416910616E+02  0.43826673794E+02  0.00000000000E+00 0.  1.
<mgrwt>
<rscale>  0 0.89868118E+02</rscale>
<asrwt>0</asrwt>
<pdfrwt beam="1">  1        2 0.59323745E-01 0.89868118E+02</pdfrwt>
<pdfrwt beam="2">  1       -2 0.80555655E-03 0.89868118E+02</pdfrwt>
<totfact> 0.20471710E+05</totfact>
</mgrwt>
</event>
<event>
 5    1  0.3845386E+001  0.9014688E+02  0.7546771E-02  0.1302496E+00
         -3   -1    0    0    0  501 -0.00000000000E+00  0.00000000000E+00  0.36708498188E+03  0.36708498188E+03  0.00000000000E+00 0.  1.
          3   -1    0    0  501    0  0.00000000000E+00 -0.00000000000E+00 -0.55344546545E+01  0.55344546545E+01  0.00000000000E+00 0. -1.
         23    2    1    2    0    0  0.00000000000E+00  0.00000000000E+00  0.36155052722E+03  0.37261943653E+03  0.90146884284E+02 0.  0.
          2    1    3    3  502    0 -0.32791068634E+02 -0.21293472481E+02  0.88075895655E+02  0.96364046967E+02  0.00000000000E+00 0. -1.
         -2    1    3    3    0  502  0.32791068634E+02  0.21293472481E+02  0.27347463157E+03  0.27625538956E+03  0.00000000000E+00 0.  1.
<mgrwt>
<rscale>  0 0.90146884E+02</rscale>
<asrwt>0</asrwt>
<pdfrwt beam="2">  1        3 0.85145485E-03 0.90146884E+02</pdfrwt>
<pdfrwt beam="1">  1       -3 0.56474593E-01 0.90146884E+02</pdfrwt>
<totfact> 0.22117102E+04</totfact>
</mgrwt>
</event>
<event>
 5    1  0.3845386E+001  0.9248905E+02  0.7546771E-02  0.1296934E+00
          4   -1    0    0  501    0  0.00000000000E+00  0.00000000000E+00  0.57467769035E+02  0.57467769035E+02  0.00000000000E+00 0. -1.
         -4   -1    0    0    0  501 -0.00000000000E+00 -0.00000000000E+00 -0.37213136895E+02  0.37213136895E+02  0.00000000000E+00 0.  1.
         23    2    1    2    0    0  0.00000000000E+00  0.00000000000E+00  0.20254632139E+02  0.94680905930E+02  0.92489047052E+02 0.  0.
          2    1    3    3  502    0 -0.37139229398E+02 -0.22963318147E+02  0.25717126748E+02  0.50675506399E+02  0.00000000000E+00 0. -1.
         -2    1    3    3    0  502  0.37139229398E+02  0.22963318147E+02 -0.54624946089E+01  0.44005399532E+02  0.00000000000E+00 0.  1.
<mgrwt>
<rscale>  0 0.92489047E+02</rscale>
<asrwt>0</asrwt>
<pdfrwt beam="1">  1        4 0.88411952E-02 0.92489047E+02</pdfrwt>
<pdfrwt beam="2">  1       -4 0.57250980E-02 0.92489047E+02</pdfrwt>
<totfact> 0.25770840E+04</totfact>
</mgrwt>
</event>
<event>
 5    1  0.3845386E+001  0.9304903E+02  0.7546771E-02  0.1295632E+00
          1   -1    0    0  501    0  0.00000000000E+00  0.00000000000E+00  0.14659292640E+04  0.14659292640E+04  0.00000000000E+00 0. -1.
         -1   -1    0    0    0  501 -0.00000000000E+00 -0.00000000000E+00 -0.14765586920E+01  0.14765586920E+01  0.00000000000E+00 0.  1.
         23    2    1    2    0    0  0.00000000000E+00  0.00000000000E+00  0.14644527053E+04  0.14674058227E+04  0.93049032162E+02 0.  0.
          2    1    3    3  502    0  0.46008457161E+02 -0.54258155117E+01  0.79971302801E+03  0.80105377146E+03  0.00000000000E+00 0. -1.
         -2    1    3    3    0  502 -0.46008457161E+02  0.54258155117E+01  0.66473967728E+03  0.66635205121E+03  0.00000000000E+00 0.  1.
<mgrwt>
<rscale>  0 0.93049032E+02</rscale>
<asrwt>0</asrwt>
<pdfrwt beam="1">  1        1 0.22552641E+00 0.93049032E+02</pdfrwt>
<pdfrwt beam="2">  1       -1 0.22716405E-03 0.93049032E+02</pdfrwt>
<totfact> 0.10665392E+05</totfact>
</mgrwt>
</event>
<event>
 5    1  0.3845386E+001  0.9020985E+02  0.7546771E-02  0.1302344E+00
         -1   -1    0    0    0  501 -0.00000000000E+00  0.00000000000E+00  0.68450900847E+02  0.68450900847E+02  0.00000000000E+00 0.  1.
          1   -1    0    0  501    0  0.00000000000E+00 -0.00000000000E+00 -0.29721366718E+02  0.29721366718E+02  0.00000000000E+00 0. -1.
         23    2    1    2    0    0  0.00000000000E+00  0.00000000000E+00  0.38729534129E+02  0.98172267565E+02  0.90209851485E+02 0.  0.
          2    1    3    3  502    0  0.10322535205E+02  0.25708885163E+02 -0.19371259975E+02  0.33804544404E+02  0.00000000000E+00 0. -1.
         -2    1    3    3    0  502 -0.10322535205E+02 -0.25708885163E+02  0.58100794104E+02  0.64367723160E+02  0.00000000000E+00 0.  1.
<mgrwt>
<rscale>  0 0.90209851E+02</rscale>
<asrwt>0</asrwt>
<pdfrwt beam="2">  1        1 0.45725180E-02 0.90209851E+02</pdfrwt>
<pdfrwt beam="1">  1       -1 0.10530908E-01 0.90209851E+02</pdfrwt>
<totfact> 0.89241414E+04</totfact>
</mgrwt>
</event>
<event>
 5    1  0.3845386E+001  0.9311636E+02  0.7546771E-02  0.1295476E+00
          2   -1    0    0  501    0  0.00000000000E+00  0.00000000000E+00  0.16225871328E+02  0.16225871328E+02  0.00000000000E+00 0. -1.
         -2   -1    0    0    0  501 -0.00000000000E+00 -0.00000000000E+00 -0.13359307116E+03  0.13359307116E+03  0.00000000000E+00 0.  1.
         23    2    1    2    0    0  0.00000000000E+00  0.00000000000E+00 -0.11736719983E+03  0.14981894249E+03  0.93116356952E+02 0.  0.
          2    1    3    3  502    0  0.11447815828E+02 -0.35250445794E+02 -0.13346283891E+02  0.39392508293E+02  0.00000000000E+00 0. -1.
         -2    1    3    3    0  502 -0.11447815828E+02  0.35250445794E+02 -0.10402091594E+03  0.11042643420E+03  0.00000000000E+00 0.  1.
<mgrwt>
<rscale>  0 0.93116357E+02</rscale>
<asrwt>0</asrwt>
<pdfrwt beam="1">  1        2 0.24962879E-02 0.93116357E+02</pdfrwt>
<pdfrwt beam="2">  1       -2 0.20552780E-01 0.93116357E+02</pdfrwt>
<totfact> 0.69006803E+04</totfact>
</mgrwt>
</event>
<event>
 5    1  0.3845386E+001  0.9204741E+02  0.7546771E-02  0.1297968E+00
         -4   -1    0    0    0  501 -0.00000000000E+00  0.00000000000E+00  0.11491993533E+03  0.11491993533E+03  0.00000000000E+00 0.  1.
          4   -1    0    0  501    0  0.00000000000E+00 -0.00000000000E+00 -0.18431802763E+02  0.18431802763E+02  0.00000000000E+00 0. -1.
         23    2    1    2    0    0  0.00000000000E+00  0.00000000000E+00  0.96488132568E+02  0.13335173809E+03  0.92047413467E+02 0.  0.
          2    1    3    3  502    0  0.14406207476E+02  0.24055488207E+02 -0.46291016962E+01  0.28418900564E+02  0.00000000000E+00 0. -1.
         -2    1    3    3    0  502 -0.14406207476E+02 -0.24055488207E+02  0.10111723426E+03  0.10493283753E+03  0.00000000000E+00 0.  1.
<mgrwt>
<rscale>  0 0.92047413E+02</rscale>
<asrwt>0</asrwt>
<pdfrwt beam="2">  1        4 0.28356620E-02 0.92047413E+02</pdfrwt>
<pdfrwt beam="1">  1       -4 0.17679990E-01 0.92047413E+02</pdfrwt>
<totfact> 0.23914606E+04</totfact>
</mgrwt>
</event>
<event>
 5    1  0.3845386E+001  0.9182750E+02  0.7546771E-02  0.1298486E+00
          2   -1    0    0  501    0  0.00000000000E+00  0.00000000000E+00  0.20914824320E+02  0.20914824320E+02  0.00000000000E+00 0. -1.
         -2   -1    0    0    0  501 -0.00000000000E+00 -0.00000000000E+00 -0.10079322753E+03  0.10079322753E+03  0.00000000000E+00 0.  1.
         23    2    1    2    0    0  0.00000000000E+00  0.00000000000E+00 -0.79878403215E+02  0.12170805185E+03  0.91827504518E+02 0.  0.
          2    1    3    3  502    0  0.27621113378E+02  0.36405156503E+02 -0.45838539340E+02  0.64725829566E+02  0.00000000000E+00 0. -1.
         -2    1    3    3    0  502 -0.27621113378E+02 -0.36405156503E+02 -0.34039863875E+02  0.56982222288E+02  0.00000000000E+00 0.  1.
<mgrwt>
<rscale>  0 0.91827505E+02</rscale>
<asrwt>0</asrwt>
<pdfrwt beam="1">  1        2 0.32176653E-02 0.91827505E+02</pdfrwt>
<pdfrwt beam="2">  1       -2 0.15506650E-01 0.91827505E+02</pdfrwt>
<totfact> 0.78219714E+04</totfact>
</mgrwt>
</event>
<event>
 5    1  0.3845386E+001  0.9045930E+02  0.7546771E-02  0.1301743E+00
         -1   -1    0    0    0  501 -0.00000000000E+00  0.00000000000E+00  0.13612795444E+01  0.13612795444E+01  0.00000000000E+00 0.  1.
          1   -1    0    0  501    0  0.00000000000E+00 -0.00000000000E+00 -0.15027929289E+04  0.15027929289E+04  0.00000000000E+00 0. -1.
         23    2    1    2    0    0  0.00000000000E+00  0.00000000000E+00 -0.15014316494E+04  0.15041542085E+04  0.90459300762E+02 0.  0.
          2    1    3    3  502    0  0.43748756063E+02  0.38273724700E+01 -0.93066609831E+03  0.93170166308E+03  0.00000000000E+00 0. -1.
         -2    1    3    3    0  502 -0.43748756063E+02 -0.38273724700E+01 -0.57076555108E+03  0.57245254540E+03  0.00000000000E+00 0.  1.
<mgrwt>
<rscale>  0 0.90459301E+02</rscale>
<asrwt>0</asrwt>
<pdfrwt beam="2">  1        1 0.23119853E+00 0.90459301E+02</pdfrwt>
<pdfrwt beam="1">  1       -1 0.20942797E-03 0.90459301E+02</pdfrwt>
<totfact> 0.11267428E+05</totfact>
</mgrwt>
</event>
<event>
 5    1  0.3845386E+001  0.9073208E+02  0.7546771E-02  0.1301088E+00
         -1   -1    0    0    0  501 -0.00000000000E+00  0.00000000000E+00  0.28068869018E+01  0.28068869018E+01  0.00000000000E+00 0.  1.
          1   -1    0    0  501    0  0.00000000000E+00 -0.00000000000E+00 -0.73322428683E+03  0.73322428683E+03  0.00000000000E+00 0. -1.
         23    2    1    2    0    0  0.00000000000E+00  0.00000000000E+00 -0.73041739993E+03  0.73603117373E+03  0.90732081356E+02 0.  0.
          2    1    3    3  502    0  0.14257182787E+02 -0.16506800376E+02 -0.68789808522E+03  0.68824379210E+03  0.00000000000E+00 0. -1.
         -2    1    3    3    0  502 -0.14257182787E+02  0.16506800376E+02 -0.42519314712E+02  0.47787381632E+02  0.00000000000E+00 0.  1.
<mgrwt>
<rscale>  0 0.90732081E+02</rscale>
<asrwt>0</asrwt>
<pdfrwt beam="2">  1        1 0.11280387E+00 0.90732081E+02</pdfrwt>
<pdfrwt beam="1">  1       -1 0.43182825E-03 0.90732081E+02</pdfrwt>
<totfact> 0.14388340E+05</totfact>
</mgrwt>
</event>
<event>
 5    1  0.3845386E+001  0.9399104E+02  0.7546771E-02  0.1293465E+00
          1   -1    0    0  501    0  0.00000000000E+00  0.00000000000E+00  0.36418049374E+02  0.36418049374E+02  0.00000000000E+00 0. -1.
         -1   -1    0    0    0  501 -0.00000000000E+00 -0.00000000000E+00 -0.60645176611E+02  0.60645176611E+02  0.00000000000E+00 0.  1.
         23    2    1    2    0    0  0.00000000000E+00  0.00000000000E+00 -0.24227127238E+02  0.97063225985E+02  0.93991042895E+02 0.  0.
          2    1    3    3  502    0 -0.45225878957E+02  0.21932974313E+01 -0.25110167343E+02  0.51775584835E+02  0.00000000000E+00 0. -1.
         -2    1    3    3    0  502  0.45225878957E+02 -0.21932974313E+01  0.88304010502E+00  0.45287641150E+02  0.00000000000E+00 0.  1.
<mgrwt>
<rscale>  0 0.93991043E+02</rscale>
<asrwt>0</asrwt>
<pdfrwt beam="1">  1        1 0.56027769E-02 0.93991043E+02</pdfrwt>
<pdfrwt beam="2">  1       -1 0.93300270E-02 0.93991043E+02</pdfrwt>
<totfact> 0.81956604E+04</totfact>
</mgrwt>
</event>
<event>
 5    1  0.3845386E+001  0.8921998E+02  0.7546771E-02  0.1304752E+00
         -2   -1    0    0    0  501 -0.00000000000E+00  0.00000000000E+00  0.66707358387E+03  0.66707358387E+03  0.00000000000E+00 0.  1.
          2   -1    0    0  501    0  0.00000000000E+00 -0.00000000000E+00 -0.29832559544E+01  0.29832559544E+01  0.00000000000E+00 0. -1.
         23    2    1    2    0    0  0.00000000000E+00  0.00000000000E+00  0.66409032791E+03  0.67005683982E+03  0.89219980746E+02 0.  0.
          2    1    3    3  502    0  0.27664496186E+02  0.13245341448E+02  0.88770525524E+02  0.93920017148E+02  0.00000000000E+00 0. -1.
         -2    1    3    3    0  502 -0.27664496186E+02 -0.13245341448E+02  0.57531980239E+03  0.57613682267E+03  0.00000000000E+00 0.  1.
<mgrwt>
<rscale>  0 0.89219981E+02</rscale>
<asrwt>0</asrwt>
<pdfrwt beam="2">  1        2 0.45896298E-03 0.89219981E+02</pdfrwt>
<pdfrwt beam="1">  1       -2 0.10262659E+00 0.89219981E+02</pdfrwt>
<totfact> 0.30083422E+04</totfact>
</mgrwt>
</event>
<event>
 5    1  0.3845386E+001  0.7989853E+02  0.7546771E-02  0.1329340E+00
          2   -1    0    0  501    0  0.00000000000E+00  0.00000000000E+00  0.16450794462E+04  0.16450794462E+04  0.00000000000E+00 0. -1.
         -2   -1    0    0    0  501 -0.00000000000E+00 -0.00000000000E+00 -0.97013174610E+00  0.97013174610E+00  0.00000000000E+00 0.  1.
         23    2    1    2    0    0  0.00000000000E+00  0.00000000000E+00  0.16441093145E+04  0.16460495779E+04  0.79898530540E+02 0.  0.
          2    1    3    3  502    0  0.36348184861E+02  0.15250576683E+02  0.95584421271E+03  0.95665664144E+03  0.00000000000E+00 0. -1.
         -2    1    3    3    0  502 -0.36348184861E+02 -0.15250576683E+02  0.68826510174E+03  0.68939293651E+03  0.00000000000E+00 0.  1.
<mgrwt>
<rscale>  0 0.79898531E+02</rscale>
<asrwt>0</asrwt>
<pdfrwt beam="1">  1        2 0.25308691E+00 0.79898531E+02</pdfrwt>
<pdfrwt beam="2">  1       -2 0.14925235E-03 0.79898531E+02</pdfrwt>
<totfact> 0.31995767E+05</totfact>
</mgrwt>
</event>
<event>
 5    1  0.3845386E+001  0.9114568E+02  0.7546771E-02  0.1300101E+00
          3   -1    0    0  501    0  0.00000000000E+00  0.00000000000E+00  0.35599025385E+03  0.35599025385E+03  0.00000000000E+00 0. -1.
         -3   -1    0    0    0  501 -0.00000000000E+00 -0.00000000000E+00 -0.58341025940E+01  0.58341025940E+01  0.00000000000E+00 0.  1.
         23    2    1    2    0    0  0.00000000000E+00  0.00000000000E+00  0.35015615126E+03  0.36182435645E+03  0.91145678196E+02 0.  0.
          2    1    3    3  502    0 -0.43936081237E+02 -0.11970172683E+02  0.16795530689E+03  0.17401910637E+03  0.00000000000E+00 0. -1.
         -2    1    3    3    0  502  0.43936081237E+02  0.11970172683E+02  0.18220084437E+03  0.18780525008E+03  0.00000000000E+00 0.  1.
<mgrwt>
<rscale>  0 0.91145678E+02</rscale>
<asrwt>0</asrwt>
<pdfrwt beam="1">  1        3 0.54767715E-01 0.91145678E+02</pdfrwt>
<pdfrwt beam="2">  1       -3 0.89755452E-03 0.91145678E+02</pdfrwt>
<totfact> 0.21840693E+04</totfact>
</mgrwt>
</event>
<event>
 5    1  0.3845386E+001  0.9057304E+02  0.7546771E-02  0.1301470E+00
          2   -1    0    0  501    0  0.00000000000E+00  0.00000000000E+00  0.63227533625E+01  0.63227533625E+01  0.00000000000E+00 0. -1.
         -2   -1    0    0    0  501 -0.00000000000E+00 -0.00000000000E+00 -0.32436323484E+03  0.32436323484E+03  0.00000000000E+00 0.  1.
         23    2    1    2    0    0  0.00000000000E+00  0.00000000000E+00 -0.31804048148E+03  0.33068598820E+03  0.90573036468E+02 0.  0.
          2    1    3    3  502    0 -0.35370034264E+02 -0.21738190308E+02 -0.92969616662E+02  0.10181816078E+03  0.00000000000E+00 0. -1.
         -2    1    3    3    0  502  0.35370034264E+02  0.21738190308E+02 -0.22507086481E+03  0.22886782742E+03  0.00000000000E+00 0.  1.
<mgrwt>
<rscale>  0 0.90573036E+02</rscale>
<asrwt>0</asrwt>
<pdfrwt beam="1">  1        2 0.97273143E-03 0.90573036E+02</pdfrwt>
<pdfrwt beam="2">  1       -2 0.49902029E-01 0.90573036E+02</pdfrwt>
<totfact> 0.49596860E+04</totfact>
</mgrwt>
</event>
<event>
 5    1  0.3845386E+001  0.9262042E+02  0.7546771E-02  0.1296627E+00
          1   -1    0    0  501    0  0.00000000000E+00  0.00000000000E+00  0.46139631686E+03  0.46139631686E+03  0.00000000000E+00 0. -1.
         -1   -1    0    0    0  501 -0.00000000000E+00 -0.00000000000E+00 -0.46481414567E+01  0.46481414567E+01  0.00000000000E+00 0.  1.
         23    2    1    2    0    0  0.00000000000E+00  0.00000000000E+00  0.45674817541E+03  0.46604445832E+03  0.92620415642E+02 0.  0.
          2    1    3    3  502    0  0.30716893957E+02 -0.26396403527E+02  0.34137483614E+03  0.34376892885E+03  0.00000000000E+00 0. -1.
         -2    1    3    3    0  502 -0.30716893957E+02  0.26396403527E+02  0.11537333927E+03  0.12227552947E+03  0.00000000000E+00 0.  1.
<mgrwt>
<rscale>  0 0.92620416E+02</rscale>
<asrwt>0</asrwt>
<pdfrwt beam="1">  1        1 0.70984013E-01 0.92620416E+02</pdfrwt>
<pdfrwt beam="2">  1       -1 0.71509905E-03 0.92620416E+02</pdfrwt>
<totfact> 0.13220919E+05</totfact>
</mgrwt>
</event>
<event>
 5    1  0.3845386E+001  0.8916518E+02  0.7546771E-02  0.1304886E+00
          2   -1    0    0  501    0  0.00000000000E+00  0.00000000000E+00  0.11849731022E+04  0.11849731022E+04  0.00000000000E+00 0. -1.
         -2   -1    0    0    0  501 -0.00000000000E+00 -0.00000000000E+00 -0.16773438815E+01  0.16773438815E+01  0.00000000000E+00 0.  1.
         23    2    1    2    0    0  0.00000000000E+00  0.00000000000E+00  0.11832957584E+04  0.11866504461E+04  0.89165181158E+02 0.  0.
          2    1    3    3  502    0  0.27203523682E+02 -0.13782158580E+02  0.10244545409E+04  0.10249083305E+04  0.00000000000E+00 0. -1.
         -2    1    3    3    0  502 -0.27203523682E+02  0.13782158580E+02  0.15884121744E+03  0.16174211558E+03  0.00000000000E+00 0.  1.
<mgrwt>
<rscale>  0 0.89165181E+02</rscale>
<asrwt>0</asrwt>
<pdfrwt beam="1">  1        2 0.18230289E+00 0.89165181E+02</pdfrwt>
<pdfrwt beam="2">  1       -2 0.25805385E-03 0.89165181E+02</pdfrwt>
<totfact> 0.26405923E+05</totfact>
</mgrwt>
</event>
<event>
 5    1  0.3845386E+001  0.9057470E+02  0.7546771E-02  0.1301466E+00
          2   -1    0    0  501    0  0.00000000000E+00  0.00000000000E+00  0.11270724337E+04  0.11270724337E+04  0.00000000000E+00 0. -1.
         -2   -1    0    0    0  501 -0.00000000000E+00 -0.00000000000E+00 -0.18197090826E+01  0.18197090826E+01  0.00000000000E+00 0.  1.
         23    2    1    2    0    0  0.00000000000E+00  0.00000000000E+00  0.11252527246E+04  0.11288921427E+04  0.90574697222E+02 0.  0.
          2    1    3    3  502    0 -0.35347736936E+02  0.36913958758E+01  0.91246575993E+03  0.91315762711E+03  0.00000000000E+00 0. -1.
         -2    1    3    3    0  502  0.35347736936E+02 -0.36913958758E+01  0.21278696464E+03  0.21573451563E+03  0.00000000000E+00 0.  1.
<mgrwt>
<rscale>  0 0.90574697E+02</rscale>
<asrwt>0</asrwt>
<pdfrwt beam="1">  1        2 0.17339520E+00 0.90574697E+02</pdfrwt>
<pdfrwt beam="2">  1       -2 0.27995614E-03 0.90574697E+02</pdfrwt>
<totfact> 0.25433629E+05</totfact>
</mgrwt>
</event>
<event>
 5    1  0.3845386E+001  0.9315352E+02  0.7546771E-02  0.1295390E+00
          2   -1    0    0  501    0  0.00000000000E+00  0.00000000000E+00  0.79355169054E+03  0.79355169054E+03  0.00000000000E+00 0. -1.
         -2   -1    0    0    0  501 -0.00000000000E+00 -0.00000000000E+00 -0.27337784031E+01  0.27337784031E+01  0.00000000000E+00 0.  1.
         23    2    1    2    0    0  0.00000000000E+00  0.00000000000E+00  0.79081791213E+03  0.79628546894E+03  0.93153517880E+02 0.  0.
          2    1    3    3  502    0  0.18579984772E+02  0.37386448457E+02  0.57192918431E+03  0.57345091701E+03  0.00000000000E+00 0. -1.
         -2    1    3    3    0  502 -0.18579984772E+02 -0.37386448457E+02  0.21888872783E+03  0.22283455193E+03  0.00000000000E+00 0.  1.
<mgrwt>
<rscale>  0 0.93153518E+02</rscale>
<asrwt>0</asrwt>
<pdfrwt beam="1">  1        2 0.12208469E+00 0.93153518E+02</pdfrwt>
<pdfrwt beam="2">  1       -2 0.42058192E-03 0.93153518E+02</pdfrwt>
<totfact> 0.22999742E+05</totfact>
</mgrwt>
</event>
<event>
 5    1  0.3845386E+001  0.9073619E+02  0.7546771E-02  0.1301079E+00
         -2   -1    0    0    0  501 -0.00000000000E+00  0.00000000000E+00  0.27314034343E+02  0.27314034343E+02  0.00000000000E+00 0.  1.
          2   -1    0    0  501    0  0.00000000000E+00 -0.00000000000E+00 -0.75355545749E+02  0.75355545749E+02  0.00000000000E+00 0. -1.
         23    2    1    2    0    0  0.00000000000E+00  0.00000000000E+00 -0.48041511406E+02  0.10266958009E+03  0.90736188250E+02 0.  0.
          2    1    3    3  502    0 -0.25005571978E+02 -0.34370704452E+02 -0.60713075158E+01  0.42935821052E+02  0.00000000000E+00 0. -1.
         -2    1    3    3    0  502  0.25005571978E+02  0.34370704452E+02 -0.41970203890E+02  0.59733759040E+02  0.00000000000E+00 0.  1.
<mgrwt>
<rscale>  0 0.90736188E+02</rscale>
<asrwt>0</asrwt>
<pdfrwt beam="2">  1        2 0.11593161E-01 0.90736188E+02</pdfrwt>
<pdfrwt beam="1">  1       -2 0.42021591E-02 0.90736188E+02</pdfrwt>
<totfact> 0.11445616E+05</totfact>
</mgrwt>
</event>
<event>
 5    1  0.3845386E+001  0.9620547E+02  0.7546771E-02  0.1288484E+00
          3   -1    0    0  501    0  0.00000000000E+00  0.00000000000E+00  0.94952703560E+03  0.94952703560E+03  0.00000000000E+00 0. -1.
         -3   -1    0    0    0  501 -0.00000000000E+00 -0.00000000000E+00 -0.24368692682E+01  0.24368692682E+01  0.00000000000E+00 0.  1.
         23    2    1    2    0    0  0.00000000000E+00  0.00000000000E+00  0.94709016633E+03  0.95196390487E+03  0.96205472866E+02 0.  0.
          2    1    3    3  502    0 -0.13378113597E+02 -0.39568279117E+02  0.23745787413E+03  0.24110343138E+03  0.00000000000E+00 0.  1.
         -2    1    3    3    0  502  0.13378113597E+02  0.39568279117E+02  0.70963229220E+03  0.71086047349E+03  0.00000000000E+00 0. -1.
<mgrwt>
<rscale>  0 0.96205473E+02</rscale>
<asrwt>0</asrwt>
<pdfrwt beam="1">  1        3 0.14608079E+00 0.96205473E+02</pdfrwt>
<pdfrwt beam="2">  1       -3 0.37490372E-03 0.96205473E+02</pdfrwt>
<totfact> 0.91268415E+03</totfact>
</mgrwt>
</event>
<event>
 5    1  0.3845386E+001  0.8761930E+02  0.7546771E-02  0.1308721E+00
          4   -1    0    0  501    0  0.00000000000E+00  0.00000000000E+00  0.32765789974E+01  0.32765789974E+01  0.00000000000E+00 0. -1.
         -4   -1    0    0    0  501 -0.00000000000E+00 -0.00000000000E+00 -0.58575893070E+03  0.58575893070E+03  0.00000000000E+00 0.  1.
         23    2    1    2    0    0  0.00000000000E+00  0.00000000000E+00 -0.58248235170E+03  0.58903550970E+03  0.87619299469E+02 0.  0.
          2    1    3    3  502    0 -0.21585243811E+02 -0.29363114957E+02 -0.12778627561E+03  0.13288132866E+03  0.00000000000E+00 0. -1.
         -2    1    3    3    0  502  0.21585243811E+02  0.29363114957E+02 -0.45469607609E+03  0.45615418104E+03  0.00000000000E+00 0.  1.
<mgrwt>
<rscale>  0 0.87619299E+02</rscale>
<asrwt>0</asrwt>
<pdfrwt beam="1">  1        4 0.50408941E-03 0.87619299E+02</pdfrwt>
<pdfrwt beam="2">  1       -4 0.90116700E-01 0.87619299E+02</pdfrwt>
<totfact> 0.12845819E+04</totfact>
</mgrwt>
</event>
<event>
 5    1  0.3845386E+001  0.1037834E+03  0.7546771E-02  0.1272535E+00
          2   -1    0    0  501    0  0.00000000000E+00  0.00000000000E+00  0.15722839616E+03  0.15722839616E+03  0.00000000000E+00 0. -1.
         -2   -1    0    0    0  501 -0.00000000000E+00 -0.00000000000E+00 -0.17126359152E+02  0.17126359152E+02  0.00000000000E+00 0.  1.
         23    2    1    2    0    0  0.00000000000E+00  0.00000000000E+00  0.14010203701E+03  0.17435475531E+03  0.10378342799E+03 0.  0.
          2    1    3    3  502    0  0.24426647492E+02  0.12867434879E+02  0.14386569354E+03  0.14649085216E+03  0.00000000000E+00 0. -1.
         -2    1    3    3    0  502 -0.24426647492E+02 -0.12867434879E+02 -0.37636565385E+01  0.27863903147E+02  0.00000000000E+00 0.  1.
<mgrwt>
<rscale>  0 0.10378343E+03</rscale>
<asrwt>0</asrwt>
<pdfrwt beam="1">  1        2 0.24188983E-01 0.10378343E+03</pdfrwt>
<pdfrwt beam="2">  1       -2 0.26348246E-02 0.10378343E+03</pdfrwt>
<totfact> 0.99707054E+04</totfact>
</mgrwt>
</event>
<event>
 5    1  0.3845386E+001  0.9273199E+02  0.7546771E-02  0.1296367E+00
         -2   -1    0    0    0  501 -0.00000000000E+00  0.00000000000E+00  0.91095778025E+02  0.91095778025E+02  0.00000000000E+00 0.  1.
          2   -1    0    0  501    0  0.00000000000E+00 -0.00000000000E+00 -0.23599395795E+02  0.23599395795E+02  0.00000000000E+00 0. -1.
         23    2    1    2    0    0  0.00000000000E+00  0.00000000000E+00  0.67496382230E+02  0.11469517382E+03  0.92731986302E+02 0.  0.
          2    1    3    3  502    0 -0.34793453292E+02 -0.29444155036E+02  0.44262302239E+02  0.63534982941E+02  0.00000000000E+00 0. -1.
         -2    1    3    3    0  502  0.34793453292E+02  0.29444155036E+02  0.23234079990E+02  0.51160190879E+02  0.00000000000E+00 0.  1.
<mgrwt>
<rscale>  0 0.92731986E+02</rscale>
<asrwt>0</asrwt>
<pdfrwt beam="2">  1        2 0.36306763E-02 0.92731986E+02</pdfrwt>
<pdfrwt beam="1">  1       -2 0.14014735E-01 0.92731986E+02</pdfrwt>
<totfact> 0.78652406E+04</totfact>
</mgrwt>
</event>
<event>
 5    1  0.3845386E+001  0.9053284E+02  0.7546771E-02  0.1301566E+00
          2   -1    0    0  501    0  0.00000000000E+00  0.00000000000E+00  0.10792318314E+03  0.10792318314E+03  0.00000000000E+00 0.  1.
         -2   -1    0    0    0  501 -0.00000000000E+00 -0.00000000000E+00 -0.18986177222E+02  0.18986177222E+02  0.00000000000E+00 0. -1.
         23    2    1    2    0    0  0.00000000000E+00  0.00000000000E+00  0.88937005921E+02  0.12690936036E+03  0.90532837832E+02 0.  0.
          2    1    3    3  502    0 -0.32180141634E+02 -0.60557484089E+01  0.88280565452E+02  0.94157802868E+02  0.00000000000E+00 0.  1.
         -2    1    3    3    0  502  0.32180141634E+02  0.60557484089E+01  0.65644046913E+00  0.32751557497E+02  0.00000000000E+00 0. -1.
<mgrwt>
<rscale>  0 0.90532838E+02</rscale>
<asrwt>0</asrwt>
<pdfrwt beam="1">  1        2 0.16603566E-01 0.90532838E+02</pdfrwt>
<pdfrwt beam="2">  1       -2 0.29209504E-02 0.90532838E+02</pdfrwt>
<totfact> 0.12805412E+05</totfact>
</mgrwt>
</event>
<event>
 5    1  0.3845386E+001  0.8576319E+02  0.7546771E-02  0.1313449E+00
          1   -1    0    0  501    0  0.00000000000E+00  0.00000000000E+00  0.19522108303E+04  0.19522108303E+04  0.00000000000E+00 0. -1.
         -1   -1    0    0    0  501 -0.00000000000E+00 -0.00000000000E+00 -0.94192239288E+00  0.94192239288E+00  0.00000000000E+00 0.  1.
         23    2    1    2    0    0  0.00000000000E+00  0.00000000000E+00  0.19512689079E+04  0.19531527527E+04  0.85763187830E+02 0.  0.
          2    1    3    3  502    0  0.28298094253E+02  0.29083915178E+02  0.12913409764E+04  0.12919783952E+04  0.00000000000E+00 0. -1.
         -2    1    3    3    0  502 -0.28298094253E+02 -0.29083915178E+02  0.65992793150E+03  0.66117435752E+03  0.00000000000E+00 0.  1.
<mgrwt>
<rscale>  0 0.85763188E+02</rscale>
<asrwt>0</asrwt>
<pdfrwt beam="1">  1        1 0.30033689E+00 0.85763188E+02</pdfrwt>
<pdfrwt beam="2">  1       -1 0.14491270E-03 0.85763188E+02</pdfrwt>
<totfact> 0.97171860E+04</totfact>
</mgrwt>
</event>
<event>
 5    1  0.3845386E+001  0.9443398E+02  0.7546771E-02  0.1292456E+00
         -2   -1    0    0    0  501 -0.00000000000E+00  0.00000000000E+00  0.24503130238E+01  0.24503130238E+01  0.00000000000E+00 0.  1.
          2   -1    0    0  501    0  0.00000000000E+00 -0.00000000000E+00 -0.90986098113E+03  0.90986098113E+03  0.00000000000E+00 0. -1.
         23    2    1    2    0    0  0.00000000000E+00  0.00000000000E+00 -0.90741066811E+03  0.91231129415E+03  0.94433981424E+02 0.  0.
          2    1    3    3  502    0  0.16191863429E+02 -0.30692646666E+02 -0.76303760996E+03  0.76382629518E+03  0.00000000000E+00 0. -1.
         -2    1    3    3    0  502 -0.16191863429E+02  0.30692646666E+02 -0.14437305815E+03  0.14848499897E+03  0.00000000000E+00 0.  1.
<mgrwt>
<rscale>  0 0.94433981E+02</rscale>
<asrwt>0</asrwt>
<pdfrwt beam="2">  1        2 0.13997872E+00 0.94433981E+02</pdfrwt>
<pdfrwt beam="1">  1       -2 0.37697094E-03 0.94433981E+02</pdfrwt>
<totfact> 0.22627911E+05</totfact>
</mgrwt>
</event>
<event>
 5    1  0.3845386E+001  0.8974876E+02  0.7546771E-02  0.1303461E+00
         -3   -1    0    0    0  501 -0.00000000000E+00  0.00000000000E+00  0.62229648456E+02  0.62229648456E+02  0.00000000000E+00 0.  1.
          3   -1    0    0  501    0  0.00000000000E+00 -0.00000000000E+00 -0.32359336728E+02  0.32359336728E+02  0.00000000000E+00 0. -1.
         23    2    1    2    0    0  0.00000000000E+00  0.00000000000E+00  0.29870311728E+02  0.94588985184E+02  0.89748763755E+02 0.  0.
          2    1    3    3  502    0 -0.85285936904E+00  0.20371963519E+02 -0.27195269336E+02  0.33990100633E+02  0.00000000000E+00 0. -1.
         -2    1    3    3    0  502  0.85285936904E+00 -0.20371963519E+02  0.57065581064E+02  0.60598884552E+02  0.00000000000E+00 0.  1.
<mgrwt>
<rscale>  0 0.89748764E+02</rscale>
<asrwt>0</asrwt>
<pdfrwt beam="2">  1        3 0.49783595E-02 0.89748764E+02</pdfrwt>
<pdfrwt beam="1">  1       -3 0.95737920E-02 0.89748764E+02</pdfrwt>
<totfact> 0.36615750E+04</totfact>
</mgrwt>
</event>
<event>
 5    1  0.3845386E+001  0.9062266E+02  0.7546771E-02  0.1301351E+00
         -1   -1    0    0    0  501 -0.00000000000E+00  0.00000000000E+00  0.14492354553E+01  0.14492354553E+01  0.00000000000E+00 0.  1.
          1   -1    0    0  501    0  0.00000000000E+00 -0.00000000000E+00 -0.14166895158E+04  0.14166895158E+04  0.00000000000E+00 0. -1.
         23    2    1    2    0    0  0.00000000000E+00  0.00000000000E+00 -0.14152402804E+04  0.14181387513E+04  0.90622661085E+02 0.  0.
          2    1    3    3  502    0 -0.18610103565E+02 -0.38474460646E+02 -0.94313198587E+03  0.94409986910E+03  0.00000000000E+00 0. -1.
         -2    1    3    3    0  502  0.18610103565E+02  0.38474460646E+02 -0.47210829449E+03  0.47403888216E+03  0.00000000000E+00 0.  1.
<mgrwt>
<rscale>  0 0.90622661E+02</rscale>
<asrwt>0</asrwt>
<pdfrwt beam="2">  1        1 0.21795326E+00 0.90622661E+02</pdfrwt>
<pdfrwt beam="1">  1       -1 0.22295825E-03 0.90622661E+02</pdfrwt>
<totfact> 0.11733892E+05</totfact>
</mgrwt>
</event>
<event>
 5    1  0.3845386E+001  0.9430919E+02  0.7546771E-02  0.1292740E+00
         -4   -1    0    0    0  501 -0.00000000000E+00  0.00000000000E+00  0.29268746562E+02  0.29268746562E+02  0.00000000000E+00 0.  1.
          4   -1    0    0  501    0  0.00000000000E+00 -0.00000000000E+00 -0.75970305910E+02  0.75970305910E+02  0.00000000000E+00 0. -1.
         23    2    1    2    0    0  0.00000000000E+00  0.00000000000E+00 -0.46701559348E+02  0.10523905247E+03  0.94309185764E+02 0.  0.
          2    1    3    3  502    0 -0.12426847287E+02  0.23770328781E+02 -0.66628200574E+02  0.71824593111E+02  0.00000000000E+00 0. -1.
         -2    1    3    3    0  502  0.12426847287E+02 -0.23770328781E+02  0.19926641226E+02  0.33414459361E+02  0.00000000000E+00 0.  1.
<mgrwt>
<rscale>  0 0.94309186E+02</rscale>
<asrwt>0</asrwt>
<pdfrwt beam="2">  1        4 0.11687739E-01 0.94309186E+02</pdfrwt>
<pdfrwt beam="1">  1       -4 0.45028842E-02 0.94309186E+02</pdfrwt>
<totfact> 0.23844013E+04</totfact>
</mgrwt>
</event>
<event>
 5    1  0.3845386E+001  0.9474560E+02  0.7546771E-02  0.1291750E+00
         -1   -1    0    0    0  501 -0.00000000000E+00  0.00000000000E+00  0.27938756600E+01  0.27938756600E+01  0.00000000000E+00 0.  1.
          1   -1    0    0  501    0  0.00000000000E+00 -0.00000000000E+00 -0.80325060979E+03  0.80325060979E+03  0.00000000000E+00 0. -1.
         23    2    1    2    0    0  0.00000000000E+00  0.00000000000E+00 -0.80045673413E+03  0.80604448545E+03  0.94745603119E+02 0.  0.
          2    1    3    3  502    0  0.19683956557E+02  0.14194154241E+02 -0.54104325147E+02  0.59297640425E+02  0.00000000000E+00 0.  1.
         -2    1    3    3    0  502 -0.19683956557E+02 -0.14194154241E+02 -0.74635240898E+03  0.74674684502E+03  0.00000000000E+00 0. -1.
<mgrwt>
<rscale>  0 0.94745603E+02</rscale>
<asrwt>0</asrwt>
<pdfrwt beam="2">  1        1 0.12357705E+00 0.94745603E+02</pdfrwt>
<pdfrwt beam="1">  1       -1 0.42982691E-03 0.94745603E+02</pdfrwt>
<totfact> 0.12758924E+05</totfact>
</mgrwt>
</event>
<event>
 5    1  0.3845386E+001  0.9070924E+02  0.7546771E-02  0.1301143E+00
         -2   -1    0    0    0  501 -0.00000000000E+00  0.00000000000E+00  0.41791092156E+01  0.41791092156E+01  0.00000000000E+00 0.  1.
          2   -1    0    0  501    0  0.00000000000E+00 -0.00000000000E+00 -0.49222012256E+03  0.49222012256E+03  0.00000000000E+00 0. -1.
         23    2    1    2    0    0  0.00000000000E+00  0.00000000000E+00 -0.48804101335E+03  0.49639923178E+03  0.90709242094E+02 0.  0.
          2    1    3    3  502    0 -0.39599010785E+02 -0.21976506428E+02 -0.25741750532E+03  0.26137103997E+03  0.00000000000E+00 0. -1.
         -2    1    3    3    0  502  0.39599010785E+02  0.21976506428E+02 -0.23062350803E+03  0.23502819181E+03  0.00000000000E+00 0.  1.
<mgrwt>
<rscale>  0 0.90709242E+02</rscale>
<asrwt>0</asrwt>
<pdfrwt beam="2">  1        2 0.75726230E-01 0.90709242E+02</pdfrwt>
<pdfrwt beam="1">  1       -2 0.64293939E-03 0.90709242E+02</pdfrwt>
<totfact> 0.21733330E+05</totfact>
</mgrwt>
</event>
<event>
 5    1  0.3845386E+001  0.8853419E+02  0.7546771E-02  0.1306441E+00
         -2   -1    0    0    0  501 -0.00000000000E+00  0.00000000000E+00  0.48439047156E+01  0.48439047156E+01  0.00000000000E+00 0.  1.
          2   -1    0    0  501    0  0.00000000000E+00 -0.00000000000E+00 -0.40454466770E+03  0.40454466770E+03  0.00000000000E+00 0. -1.
         23    2    1    2    0    0  0.00000000000E+00  0.00000000000E+00 -0.39970076299E+03  0.40938857242E+03  0.88534192797E+02 0.  0.
          2    1    3    3  502    0  0.14168118829E+02  0.25467838570E+02 -0.45775780536E+02  0.54265721006E+02  0.00000000000E+00 0.  1.
         -2    1    3    3    0  502 -0.14168118829E+02 -0.25467838570E+02 -0.35392498245E+03  0.35512285141E+03  0.00000000000E+00 0. -1.
<mgrwt>
<rscale>  0 0.88534193E+02</rscale>
<asrwt>0</asrwt>
<pdfrwt beam="2">  1        2 0.62237664E-01 0.88534193E+02</pdfrwt>
<pdfrwt beam="1">  1       -2 0.74521584E-03 0.88534193E+02</pdfrwt>
<totfact> 0.21667263E+05</totfact>
</mgrwt>
</event>
<event>
 5    1  0.3845386E+001  0.9700574E+02  0.7546771E-02  0.1286722E+00
         -2   -1    0    0    0  501 -0.00000000000E+00  0.00000000000E+00  0.26103741755E+01  0.26103741755E+01  0.00000000000E+00 0.  1.
          2   -1    0    0  501    0  0.00000000000E+00 -0.00000000000E+00 -0.90122260869E+03  0.90122260869E+03  0.00000000000E+00 0. -1.
         23    2    1    2    0    0  0.00000000000E+00  0.00000000000E+00 -0.89861223451E+03  0.90383298287E+03  0.97005736409E+02 0.  0.
          2    1    3    3  502    0  0.32168310030E+02  0.28142436574E+02 -0.66294125891E+03  0.66431762710E+03  0.00000000000E+00 0. -1.
         -2    1    3    3    0  502 -0.32168310030E+02 -0.28142436574E+02 -0.23567097560E+03  0.23951535576E+03  0.00000000000E+00 0.  1.
<mgrwt>
<rscale>  0 0.97005736E+02</rscale>
<asrwt>0</asrwt>
<pdfrwt beam="2">  1        2 0.13864969E+00 0.97005736E+02</pdfrwt>
<pdfrwt beam="1">  1       -2 0.40159586E-03 0.97005736E+02</pdfrwt>
<totfact> 0.21052688E+05</totfact>
</mgrwt>
</event>
<event>
 5    1  0.3845386E+001  0.9026622E+02  0.7546771E-02  0.1302208E+00
          2   -1    0    0  501    0  0.00000000000E+00  0.00000000000E+00  0.19682819114E+02  0.19682819114E+02  0.00000000000E+00 0. -1.
         -2   -1    0    0    0  501 -0.00000000000E+00 -0.00000000000E+00 -0.10349116111E+03  0.10349116111E+03  0.00000000000E+00 0.  1.
         23    2    1    2    0    0  0.00000000000E+00  0.00000000000E+00 -0.83808341996E+02  0.12317398022E+03  0.90266224117E+02 0.  0.
          2    1    3    3  502    0  0.29299458131E+02  0.32575151478E+02 -0.27119011446E+02  0.51527075625E+02  0.00000000000E+00 0. -1.
         -2    1    3    3    0  502 -0.29299458131E+02 -0.32575151478E+02 -0.56689330550E+02  0.71646904600E+02  0.00000000000E+00 0.  1.
<mgrwt>
<rscale>  0 0.90266224E+02</rscale>
<asrwt>0</asrwt>
<pdfrwt beam="1">  1        2 0.30281260E-02 0.90266224E+02</pdfrwt>
<pdfrwt beam="2">  1       -2 0.15921717E-01 0.90266224E+02</pdfrwt>
<totfact> 0.80987598E+04</totfact>
</mgrwt>
</event>
<event>
 5    1  0.3845386E+001  0.9098710E+02  0.7546771E-02  0.1300479E+00
         -1   -1    0    0    0  501 -0.00000000000E+00  0.00000000000E+00  0.73428270844E+01  0.73428270844E+01  0.00000000000E+00 0.  1.
          1   -1    0    0  501    0  0.00000000000E+00 -0.00000000000E+00 -0.28186185870E+03  0.28186185870E+03  0.00000000000E+00 0. -1.
         23    2    1    2    0    0  0.00000000000E+00  0.00000000000E+00 -0.27451903162E+03  0.28920468579E+03  0.90987095571E+02 0.  0.
          2    1    3    3  502    0 -0.30520294137E+02 -0.89728111205E+01 -0.33888396350E+02  0.46480351772E+02  0.00000000000E+00 0.  1.
         -2    1    3    3    0  502  0.30520294137E+02  0.89728111205E+01 -0.24063063527E+03  0.24272433401E+03  0.00000000000E+00 0. -1.
<mgrwt>
<rscale>  0 0.90987096E+02</rscale>
<asrwt>0</asrwt>
<pdfrwt beam="2">  1        1 0.43363366E-01 0.90987096E+02</pdfrwt>
<pdfrwt beam="1">  1       -1 0.11296656E-02 0.90987096E+02</pdfrwt>
<totfact> 0.12730094E+05</totfact>
</mgrwt>
</event>
<event>
 5    1  0.3845386E+001  0.8953536E+02  0.7546771E-02  0.1303981E+00
          3   -1    0    0  501    0  0.00000000000E+00  0.00000000000E+00  0.27038931123E+01  0.27038931123E+01  0.00000000000E+00 0. -1.
         -3   -1    0    0    0  501 -0.00000000000E+00 -0.00000000000E+00 -0.74120719537E+03  0.74120719537E+03  0.00000000000E+00 0.  1.
         23    2    1    2    0    0  0.00000000000E+00  0.00000000000E+00 -0.73850330226E+03  0.74391108848E+03  0.89535356823E+02 0.  0.
          2    1    3    3  502    0 -0.23009076754E+02 -0.34061170812E+02 -0.51661212668E+03  0.51824479775E+03  0.00000000000E+00 0. -1.
         -2    1    3    3    0  502  0.23009076754E+02  0.34061170812E+02 -0.22189117558E+03  0.22566629073E+03  0.00000000000E+00 0.  1.
<mgrwt>
<rscale>  0 0.89535357E+02</rscale>
<asrwt>0</asrwt>
<pdfrwt beam="1">  1        3 0.41598350E-03 0.89535357E+02</pdfrwt>
<pdfrwt beam="2">  1       -3 0.11403189E+00 0.89535357E+02</pdfrwt>
<totfact> 0.13843755E+04</totfact>
</mgrwt>
</event>
<event>
 5    1  0.3845386E+001  0.8976167E+02  0.7546771E-02  0.1303430E+00
          1   -1    0    0  501    0  0.00000000000E+00  0.00000000000E+00  0.90092842007E+03  0.90092842007E+03  0.00000000000E+00 0. -1.
         -1   -1    0    0    0  501 -0.00000000000E+00 -0.00000000000E+00 -0.22357926906E+01  0.22357926906E+01  0.00000000000E+00 0.  1.
         23    2    1    2    0    0  0.00000000000E+00  0.00000000000E+00  0.89869262738E+03  0.90316421276E+03  0.89761666124E+02 0.  0.
          2    1    3    3  502    0  0.23318213240E+02  0.27809277980E+02  0.71502253615E+03  0.71594296017E+03  0.00000000000E+00 0. -1.
         -2    1    3    3    0  502 -0.23318213240E+02 -0.27809277980E+02  0.18367009123E+03  0.18722125259E+03  0.00000000000E+00 0.  1.
<mgrwt>
<rscale>  0 0.89761666E+02</rscale>
<asrwt>0</asrwt>
<pdfrwt beam="1">  1        1 0.13860408E+00 0.89761666E+02</pdfrwt>
<pdfrwt beam="2">  1       -1 0.34396883E-03 0.89761666E+02</pdfrwt>
<totfact> 0.14502169E+05</totfact>
</mgrwt>
</event>
<event>
 5    1  0.3845386E+001  0.8994312E+02  0.7546771E-02  0.1302990E+00
         -1   -1    0    0    0  501 -0.00000000000E+00  0.00000000000E+00  0.18721756851E+01  0.18721756851E+01  0.00000000000E+00 0.  1.
          1   -1    0    0  501    0  0.00000000000E+00 -0.00000000000E+00 -0.10802624189E+04  0.10802624189E+04  0.00000000000E+00 0. -1.
         23    2    1    2    0    0  0.00000000000E+00  0.00000000000E+00 -0.10783902432E+04  0.10821345946E+04  0.89943116116E+02 0.  0.
          2    1    3    3  502    0 -0.14539993393E+02 -0.30925201690E+02 -0.89092594484E+03  0.89158107803E+03  0.00000000000E+00 0. -1.
         -2    1    3    3    0  502  0.14539993393E+02  0.30925201690E+02 -0.18746429840E+03  0.19055351658E+03  0.00000000000E+00 0.  1.
<mgrwt>
<rscale>  0 0.89943116E+02</rscale>
<asrwt>0</asrwt>
<pdfrwt beam="2">  1        1 0.16619436E+00 0.89943116E+02</pdfrwt>
<pdfrwt beam="1">  1       -1 0.28802679E-03 0.89943116E+02</pdfrwt>
<totfact> 0.13772208E+05</totfact>
</mgrwt>
</event>
<event>
 5    1  0.3845386E+001  0.9397900E+02  0.7546771E-02  0.1293492E+00
         -2   -1    0    0    0  501 -0.00000000000E+00  0.00000000000E+00  0.41386228166E+03  0.41386228166E+03  0.00000000000E+00 0.  1.
          2   -1    0    0  501    0  0.00000000000E+00 -0.00000000000E+00 -0.53351392481E+01  0.53351392481E+01  0.00000000000E+00 0. -1.
         23    2    1    2    0    0  0.00000000000E+00  0.00000000000E+00  0.40852714241E+03  0.41919742090E+03  0.93978995572E+02 0.  0.
          2    1    3    3  502    0 -0.35765817590E+02  0.10291308206E+02  0.76306736027E+02  0.84898896904E+02  0.00000000000E+00 0. -1.
         -2    1    3    3    0  502  0.35765817590E+02 -0.10291308206E+02  0.33222040638E+03  0.33429852400E+03  0.00000000000E+00 0.  1.
<mgrwt>
<rscale>  0 0.93978996E+02</rscale>
<asrwt>0</asrwt>
<pdfrwt beam="2">  1        2 0.82079098E-03 0.93978996E+02</pdfrwt>
<pdfrwt beam="1">  1       -2 0.63671095E-01 0.93978996E+02</pdfrwt>
<totfact> 0.38564642E+04</totfact>
</mgrwt>
</event>
<event>
 5    1  0.3845386E+001  0.9588926E+02  0.7546771E-02  0.1289186E+00
         -2   -1    0    0    0  501 -0.00000000000E+00  0.00000000000E+00  0.20846697360E+03  0.20846697360E+03  0.00000000000E+00 0.  1.
          2   -1    0    0  501    0  0.00000000000E+00 -0.00000000000E+00 -0.11026627437E+02  0.11026627437E+02  0.00000000000E+00 0. -1.
         23    2    1    2    0    0  0.00000000000E+00  0.00000000000E+00  0.19744034617E+03  0.21949360104E+03  0.95889262192E+02 0.  0.
          2    1    3    3  502    0  0.47822974028E+02 -0.34109870795E+01  0.98430873839E+02  0.10948656814E+03  0.00000000000E+00 0. -1.
         -2    1    3    3    0  502 -0.47822974028E+02  0.34109870795E+01  0.99009472327E+02  0.11000703290E+03  0.00000000000E+00 0.  1.
<mgrwt>
<rscale>  0 0.95889262E+02</rscale>
<asrwt>0</asrwt>
<pdfrwt beam="2">  1        2 0.16964044E-02 0.95889262E+02</pdfrwt>
<pdfrwt beam="1">  1       -2 0.32071839E-01 0.95889262E+02</pdfrwt>
<totfact> 0.53789471E+04</totfact>
</mgrwt>
</event>
<event>
 5    1  0.3845386E+001  0.8785968E+02  0.7546771E-02  0.1308119E+00
         -2   -1    0    0    0  501 -0.00000000000E+00  0.00000000000E+00  0.19920829734E+01  0.19920829734E+01  0.00000000000E+00 0.  1.
          2   -1    0    0  501    0  0.00000000000E+00 -0.00000000000E+00 -0.96875021783E+03  0.96875021783E+03  0.00000000000E+00 0. -1.
         23    2    1    2    0    0  0.00000000000E+00  0.00000000000E+00 -0.96675813485E+03  0.97074230080E+03  0.87859679363E+02 0.  0.
          2    1    3    3  502    0  0.19503948475E+02 -0.87847502013E+01 -0.59437642121E+02  0.63169685317E+02  0.00000000000E+00 0.  1.
         -2    1    3    3    0  502 -0.19503948475E+02  0.87847502013E+01 -0.90732049273E+03  0.90757261548E+03  0.00000000000E+00 0. -1.
<mgrwt>
<rscale>  0 0.87859679E+02</rscale>
<asrwt>0</asrwt>
<pdfrwt beam="2">  1        2 0.14903827E+00 0.87859679E+02</pdfrwt>
<pdfrwt beam="1">  1       -2 0.30647476E-03 0.87859679E+02</pdfrwt>
<totfact> 0.27511398E+05</totfact>
</mgrwt>
</event>
<event>
 5    1  0.3845386E+001  0.8119560E+02  0.7546771E-02  0.1325692E+00
         -1   -1    0    0    0  501 -0.00000000000E+00  0.00000000000E+00  0.65445435190E+02  0.65445435190E+02  0.00000000000E+00 0.  1.
          1   -1    0    0  501    0  0.00000000000E+00 -0.00000000000E+00 -0.25184052194E+02  0.25184052194E+02  0.00000000000E+00 0. -1.
         23    2    1    2    0    0  0.00000000000E+00  0.00000000000E+00  0.40261382996E+02  0.90629487383E+02  0.81195597310E+02 0.  0.
          2    1    3    3  502    0 -0.35779937563E+02  0.40353322360E+01 -0.80171511845E+00  0.36015699152E+02  0.00000000000E+00 0. -1.
         -2    1    3    3    0  502  0.35779937563E+02 -0.40353322360E+01  0.41063098115E+02  0.54613788232E+02  0.00000000000E+00 0.  1.
<mgrwt>
<rscale>  0 0.81195597E+02</rscale>
<asrwt>0</asrwt>
<pdfrwt beam="2">  1        1 0.38744696E-02 0.81195597E+02</pdfrwt>
<pdfrwt beam="1">  1       -1 0.10068528E-01 0.81195597E+02</pdfrwt>
<totfact> 0.11742608E+05</totfact>
</mgrwt>
</event>
<event>
 5    1  0.3845386E+001  0.1091823E+03  0.7546771E-02  0.1262092E+00
          1   -1    0    0  501    0  0.00000000000E+00  0.00000000000E+00  0.21138745916E+02  0.21138745916E+02  0.00000000000E+00 0. -1.
         -1   -1    0    0    0  501 -0.00000000000E+00 -0.00000000000E+00 -0.14098243252E+03  0.14098243252E+03  0.00000000000E+00 0.  1.
         23    2    1    2    0    0  0.00000000000E+00  0.00000000000E+00 -0.11984368660E+03  0.16212117844E+03  0.10918226632E+03 0.  0.
          2    1    3    3  502    0 -0.30206716836E+02 -0.11824580623E+02  0.52759289227E+01  0.32864903391E+02  0.00000000000E+00 0. -1.
         -2    1    3    3    0  502  0.30206716836E+02  0.11824580623E+02 -0.12511961553E+03  0.12925627504E+03  0.00000000000E+00 0.  1.
<mgrwt>
<rscale>  0 0.10918227E+03</rscale>
<asrwt>0</asrwt>
<pdfrwt beam="1">  1        1 0.32521148E-02 0.10918227E+03</pdfrwt>
<pdfrwt beam="2">  1       -1 0.21689605E-01 0.10918227E+03</pdfrwt>
<totfact> 0.47453401E+04</totfact>
</mgrwt>
</event>
<event>
 5    1  0.3845386E+001  0.8850772E+02  0.7546771E-02  0.1306506E+00
         -4   -1    0    0    0  501 -0.00000000000E+00  0.00000000000E+00  0.47885477457E+02  0.47885477457E+02  0.00000000000E+00 0.  1.
          4   -1    0    0  501    0  0.00000000000E+00 -0.00000000000E+00 -0.40897661120E+02  0.40897661120E+02  0.00000000000E+00 0. -1.
         23    2    1    2    0    0  0.00000000000E+00  0.00000000000E+00  0.69878163362E+01  0.88783138577E+02  0.88507717847E+02 0.  0.
          2    1    3    3  502    0 -0.27422944297E+01 -0.25198972615E+02 -0.32894249964E+02  0.41527582163E+02  0.00000000000E+00 0. -1.
         -2    1    3    3    0  502  0.27422944297E+01  0.25198972615E+02  0.39882066301E+02  0.47255556414E+02  0.00000000000E+00 0.  1.
<mgrwt>
<rscale>  0 0.88507718E+02</rscale>
<asrwt>0</asrwt>
<pdfrwt beam="2">  1        4 0.62919478E-02 0.88507718E+02</pdfrwt>
<pdfrwt beam="1">  1       -4 0.73669966E-02 0.88507718E+02</pdfrwt>
<totfact> 0.29445945E+04</totfact>
</mgrwt>
</event>
<event>
 5    1  0.3845386E+001  0.8913806E+02  0.7546771E-02  0.1304953E+00
         -1   -1    0    0    0  501 -0.00000000000E+00  0.00000000000E+00  0.35305319413E+01  0.35305319413E+01  0.00000000000E+00 0.  1.
          1   -1    0    0  501    0  0.00000000000E+00 -0.00000000000E+00 -0.56263427640E+03  0.56263427640E+03  0.00000000000E+00 0. -1.
         23    2    1    2    0    0  0.00000000000E+00  0.00000000000E+00 -0.55910374446E+03  0.56616480834E+03  0.89138056611E+02 0.  0.
          2    1    3    3  502    0  0.37898072049E+02 -0.19390259458E+02 -0.36337121738E+03  0.36585637571E+03  0.00000000000E+00 0. -1.
         -2    1    3    3    0  502 -0.37898072049E+02  0.19390259458E+02 -0.19573252708E+03  0.20030843263E+03  0.00000000000E+00 0.  1.
<mgrwt>
<rscale>  0 0.89138057E+02</rscale>
<asrwt>0</asrwt>
<pdfrwt beam="2">  1        1 0.86559135E-01 0.89138057E+02</pdfrwt>
<pdfrwt beam="1">  1       -1 0.54315866E-03 0.89138057E+02</pdfrwt>
<totfact> 0.14962202E+05</totfact>
</mgrwt>
</event>
<event>
 5    1  0.3845386E+001  0.8627240E+02  0.7546771E-02  0.1312138E+00
          4   -1    0    0  501    0  0.00000000000E+00  0.00000000000E+00  0.42727657017E+02  0.42727657017E+02  0.00000000000E+00 0. -1.
         -4   -1    0    0    0  501 -0.00000000000E+00 -0.00000000000E+00 -0.43548644306E+02  0.43548644306E+02  0.00000000000E+00 0.  1.
         23    2    1    2    0    0  0.00000000000E+00  0.00000000000E+00 -0.82098728883E+00  0.86276301323E+02  0.86272395062E+02 0.  0.
          2    1    3    3  502    0 -0.10850846312E+02 -0.33836622014E+02  0.24046158684E+02  0.42905426259E+02  0.00000000000E+00 0. -1.
         -2    1    3    3    0  502  0.10850846312E+02  0.33836622014E+02 -0.24867145973E+02  0.43370875064E+02  0.00000000000E+00 0.  1.
<mgrwt>
<rscale>  0 0.86272395E+02</rscale>
<asrwt>0</asrwt>
<pdfrwt beam="1">  1        4 0.65734857E-02 0.86272395E+02</pdfrwt>
<pdfrwt beam="2">  1       -4 0.66997914E-02 0.86272395E+02</pdfrwt>
<totfact> 0.31741023E+04</totfact>
</mgrwt>
</event>
<event>
 5    1  0.3845386E+001  0.9147812E+02  0.7546771E-02  0.1299311E+00
         -2   -1    0    0    0  501 -0.00000000000E+00  0.00000000000E+00  0.13394567328E+04  0.13394567328E+04  0.00000000000E+00 0.  1.
          2   -1    0    0  501    0  0.00000000000E+00 -0.00000000000E+00 -0.15618733640E+01  0.15618733640E+01  0.00000000000E+00 0. -1.
         23    2    1    2    0    0  0.00000000000E+00  0.00000000000E+00  0.13378948594E+04  0.13410186061E+04  0.91478124011E+02 0.  0.
          2    1    3    3  502    0 -0.39548721982E+02 -0.14047925408E+02  0.40239686801E+03  0.40457963988E+03  0.00000000000E+00 0. -1.
         -2    1    3    3    0  502  0.39548721982E+02  0.14047925408E+02  0.93549799138E+03  0.93643896624E+03  0.00000000000E+00 0.  1.
<mgrwt>
<rscale>  0 0.91478124E+02</rscale>
<asrwt>0</asrwt>
<pdfrwt beam="2">  1        2 0.24028928E-03 0.91478124E+02</pdfrwt>
<pdfrwt beam="1">  1       -2 0.20606935E+00 0.91478124E+02</pdfrwt>
<totfact> 0.12598398E+04</totfact>
</mgrwt>
</event>
<event>
 5    1  0.3845386E+001  0.9260087E+02  0.7546771E-02  0.1296673E+00
          2   -1    0    0  501    0  0.00000000000E+00  0.00000000000E+00  0.85903278606E+03  0.85903278606E+03  0.00000000000E+00 0. -1.
         -2   -1    0    0    0  501 -0.00000000000E+00 -0.00000000000E+00 -0.24955163287E+01  0.24955163287E+01  0.00000000000E+00 0.  1.
         23    2    1    2    0    0  0.00000000000E+00  0.00000000000E+00  0.85653726973E+03  0.86152830239E+03  0.92600871367E+02 0.  0.
          2    1    3    3  502    0  0.20311365543E+02  0.21066326177E+02  0.76208630226E+03  0.76264793566E+03  0.00000000000E+00 0. -1.
         -2    1    3    3    0  502 -0.20311365543E+02 -0.21066326177E+02  0.94450967474E+02  0.98880366735E+02  0.00000000000E+00 0.  1.
<mgrwt>
<rscale>  0 0.92600871E+02</rscale>
<asrwt>0</asrwt>
<pdfrwt beam="1">  1        2 0.13215865E+00 0.92600871E+02</pdfrwt>
<pdfrwt beam="2">  1       -2 0.38392627E-03 0.92600871E+02</pdfrwt>
<totfact> 0.23662237E+05</totfact>
</mgrwt>
</event>
<event>
 5    1  0.3845386E+001  0.9666039E+02  0.7546771E-02  0.1287480E+00
          2   -1    0    0  501    0  0.00000000000E+00  0.00000000000E+00  0.30124805181E+03  0.30124805181E+03  0.00000000000E+00 0. -1.
         -2   -1    0    0    0  501 -0.00000000000E+00 -0.00000000000E+00 -0.77537682795E+01  0.77537682795E+01  0.00000000000E+00 0.  1.
         23    2    1    2    0    0  0.00000000000E+00  0.00000000000E+00  0.29349428353E+03  0.30900182009E+03  0.96660386681E+02 0.  0.
          2    1    3    3  502    0 -0.36219778514E+02  0.27253257215E+02  0.93140763827E+02  0.10358481680E+03  0.00000000000E+00 0.  1.
         -2    1    3    3    0  502  0.36219778514E+02 -0.27253257215E+02  0.20035351970E+03  0.20541700329E+03  0.00000000000E+00 0. -1.
<mgrwt>
<rscale>  0 0.96660387E+02</rscale>
<asrwt>0</asrwt>
<pdfrwt beam="1">  1        2 0.46345845E-01 0.96660387E+02</pdfrwt>
<pdfrwt beam="2">  1       -2 0.11928877E-02 0.96660387E+02</pdfrwt>
<totfact> 0.15388547E+05</totfact>
</mgrwt>
</event>
<event>
 5    1  0.3845386E+001  0.9192639E+02  0.7546771E-02  0.1298253E+00
          2   -1    0    0  501    0  0.00000000000E+00  0.00000000000E+00  0.56956962144E+03  0.56956962144E+03  0.00000000000E+00 0. -1.
         -2   -1    0    0    0  501 -0.00000000000E+00 -0.00000000000E+00 -0.37091436101E+01  0.37091436101E+01  0.00000000000E+00 0.  1.
         23    2    1    2    0    0  0.00000000000E+00  0.00000000000E+00  0.56586047783E+03  0.57327876505E+03  0.91926394944E+02 0.  0.
          2    1    3    3  502    0 -0.13509208236E+02 -0.43653888161E+02  0.31376980398E+03  0.31707988039E+03  0.00000000000E+00 0.  1.
         -2    1    3    3    0  502  0.13509208236E+02  0.43653888161E+02  0.25209067385E+03  0.25619888466E+03  0.00000000000E+00 0. -1.
<mgrwt>
<rscale>  0 0.91926395E+02</rscale>
<asrwt>0</asrwt>
<pdfrwt beam="1">  1        2 0.87626026E-01 0.91926395E+02</pdfrwt>
<pdfrwt beam="2">  1       -2 0.57063793E-03 0.91926395E+02</pdfrwt>
<totfact> 0.21962295E+05</totfact>
</mgrwt>
</event>
<event>
 5    1  0.3845386E+001  0.9214506E+02  0.7546771E-02  0.1297739E+00
          2   -1    0    0  501    0  0.00000000000E+00  0.00000000000E+00  0.36009114896E+02  0.36009114896E+02  0.00000000000E+00 0.  1.
         -2   -1    0    0    0  501 -0.00000000000E+00 -0.00000000000E+00 -0.58948348536E+02  0.58948348536E+02  0.00000000000E+00 0. -1.
         23    2    1    2    0    0  0.00000000000E+00  0.00000000000E+00 -0.22939233639E+02  0.94957463432E+02  0.92145056414E+02 0.  0.
          2    1    3    3  502    0  0.43511113408E+02 -0.54622556878E+00 -0.27069769298E+02  0.51247319561E+02  0.00000000000E+00 0. -1.
         -2    1    3    3    0  502 -0.43511113408E+02  0.54622556878E+00  0.41305356588E+01  0.43710143871E+02  0.00000000000E+00 0.  1.
<mgrwt>
<rscale>  0 0.92145056E+02</rscale>
<asrwt>0</asrwt>
<pdfrwt beam="1">  1        2 0.55398638E-02 0.92145056E+02</pdfrwt>
<pdfrwt beam="2">  1       -2 0.90689767E-02 0.92145056E+02</pdfrwt>
<totfact> 0.89996828E+04</totfact>
</mgrwt>
</event>
<event>
 5    1  0.3845386E+001  0.9021824E+02  0.7546771E-02  0.1302324E+00
          2   -1    0    0  501    0  0.00000000000E+00  0.00000000000E+00  0.32562177330E+03  0.32562177330E+03  0.00000000000E+00 0. -1.
         -2   -1    0    0    0  501 -0.00000000000E+00 -0.00000000000E+00 -0.62490682333E+01  0.62490682333E+01  0.00000000000E+00 0.  1.
         23    2    1    2    0    0  0.00000000000E+00  0.00000000000E+00  0.31937270506E+03  0.33187084153E+03  0.90218239388E+02 0.  0.
          2    1    3    3  502    0 -0.26244651499E+01 -0.27220660233E+02  0.29165195217E+03  0.29293124341E+03  0.00000000000E+00 0. -1.
         -2    1    3    3    0  502  0.26244651499E+01  0.27220660233E+02  0.27720752895E+02  0.38939598122E+02  0.00000000000E+00 0.  1.
<mgrwt>
<rscale>  0 0.90218239E+02</rscale>
<asrwt>0</asrwt>
<pdfrwt beam="1">  1        2 0.50095644E-01 0.90218239E+02</pdfrwt>
<pdfrwt beam="2">  1       -2 0.96139537E-03 0.90218239E+02</pdfrwt>
<totfact> 0.19049393E+05</totfact>
</mgrwt>
</event>
<event>
 5    1  0.3845386E+001  0.9194791E+02  0.7546771E-02  0.1298202E+00
         -1   -1    0    0    0  501 -0.00000000000E+00  0.00000000000E+00  0.22993132461E+01  0.22993132461E+01  0.00000000000E+00 0.  1.
          1   -1    0    0  501    0  0.00000000000E+00 -0.00000000000E+00 -0.91923306007E+03  0.91923306007E+03  0.00000000000E+00 0. -1.
         23    2    1    2    0    0  0.00000000000E+00  0.00000000000E+00 -0.91693374683E+03  0.92153237332E+03  0.91947914631E+02 0.  0.
          2    1    3    3  502    0  0.41301360359E+02 -0.63175866389E+01 -0.65069989353E+03  0.65203992646E+03  0.00000000000E+00 0. -1.
         -2    1    3    3    0  502 -0.41301360359E+02  0.63175866389E+01 -0.26623385330E+03  0.26949244686E+03  0.00000000000E+00 0.  1.
<mgrwt>
<rscale>  0 0.91947915E+02</rscale>
<asrwt>0</asrwt>
<pdfrwt beam="2">  1        1 0.14142043E+00 0.91947915E+02</pdfrwt>
<pdfrwt beam="1">  1       -1 0.35374061E-03 0.91947915E+02</pdfrwt>
<totfact> 0.13558911E+05</totfact>
</mgrwt>
</event>
<event>
 5    1  0.3845386E+001  0.9412173E+02  0.7546771E-02  0.1293167E+00
          1   -1    0    0  501    0  0.00000000000E+00  0.00000000000E+00  0.11426907819E+02  0.11426907819E+02  0.00000000000E+00 0.  1.
         -1   -1    0    0    0  501 -0.00000000000E+00 -0.00000000000E+00 -0.19381665969E+03  0.19381665969E+03  0.00000000000E+00 0. -1.
         23    2    1    2    0    0  0.00000000000E+00  0.00000000000E+00 -0.18238975187E+03  0.20524356751E+03  0.94121731904E+02 0.  0.
          2    1    3    3  502    0  0.40466986859E+02 -0.23777538613E+02 -0.98678158069E+02  0.10927180445E+03  0.00000000000E+00 0. -1.
         -2    1    3    3    0  502 -0.40466986859E+02  0.23777538613E+02 -0.83711593805E+02  0.95971763062E+02  0.00000000000E+00 0.  1.
<mgrwt>
<rscale>  0 0.94121732E+02</rscale>
<asrwt>0</asrwt>
<pdfrwt beam="1">  1        1 0.17579859E-02 0.94121732E+02</pdfrwt>
<pdfrwt beam="2">  1       -1 0.29817945E-01 0.94121732E+02</pdfrwt>
<totfact> 0.64469615E+04</totfact>
</mgrwt>
</event>
<event>
 5    1  0.3845386E+001  0.8908680E+02  0.7546771E-02  0.1305078E+00
          1   -1    0    0  501    0  0.00000000000E+00  0.00000000000E+00  0.20749474437E+02  0.20749474437E+02  0.00000000000E+00 0. -1.
         -1   -1    0    0    0  501 -0.00000000000E+00 -0.00000000000E+00 -0.95622389505E+02  0.95622389505E+02  0.00000000000E+00 0.  1.
         23    2    1    2    0    0  0.00000000000E+00  0.00000000000E+00 -0.74872915068E+02  0.11637186394E+03  0.89086796476E+02 0.  0.
          2    1    3    3  502    0  0.11568791767E+02 -0.25120548151E+02  0.81754713056E+01  0.28839507857E+02  0.00000000000E+00 0. -1.
         -2    1    3    3    0  502 -0.11568791767E+02  0.25120548151E+02 -0.83048386374E+02  0.87532356084E+02  0.00000000000E+00 0.  1.
<mgrwt>
<rscale>  0 0.89086796E+02</rscale>
<asrwt>0</asrwt>
<pdfrwt beam="1">  1        1 0.31922269E-02 0.89086796E+02</pdfrwt>
<pdfrwt beam="2">  1       -1 0.14711137E-01 0.89086796E+02</pdfrwt>
<totfact> 0.87080284E+04</totfact>
</mgrwt>
</event>
<event>
 5    1  0.3845386E+001  0.9108292E+02  0.7546771E-02  0.1300250E+00
          1   -1    0    0  501    0  0.00000000000E+00  0.00000000000E+00  0.12957943692E+03  0.12957943692E+03  0.00000000000E+00 0. -1.
         -1   -1    0    0    0  501 -0.00000000000E+00 -0.00000000000E+00 -0.16005816398E+02  0.16005816398E+02  0.00000000000E+00 0.  1.
         23    2    1    2    0    0  0.00000000000E+00  0.00000000000E+00  0.11357362052E+03  0.14558525332E+03  0.91082922138E+02 0.  0.
          2    1    3    3  502    0  0.26765775353E+02 -0.26685214105E+01  0.11552590287E+03  0.11861602746E+03  0.00000000000E+00 0. -1.
         -2    1    3    3    0  502 -0.26765775353E+02  0.26685214105E+01 -0.19522823514E+01  0.26969225853E+02  0.00000000000E+00 0.  1.
<mgrwt>
<rscale>  0 0.91082922E+02</rscale>
<asrwt>0</asrwt>
<pdfrwt beam="1">  1        1 0.19935297E-01 0.91082922E+02</pdfrwt>
<pdfrwt beam="2">  1       -1 0.24624334E-02 0.91082922E+02</pdfrwt>
<totfact> 0.10950956E+05</totfact>
</mgrwt>
</event>
<event>
 5    1  0.3845386E+001  0.9045882E+02  0.7546771E-02  0.1301744E+00
         -1   -1    0    0    0  501 -0.00000000000E+00  0.00000000000E+00  0.96942785561E+02  0.96942785561E+02  0.00000000000E+00 0.  1.
          1   -1    0    0  501    0  0.00000000000E+00 -0.00000000000E+00 -0.21102130853E+02  0.21102130853E+02  0.00000000000E+00 0. -1.
         23    2    1    2    0    0  0.00000000000E+00  0.00000000000E+00  0.75840654708E+02  0.11804491641E+03  0.90458815959E+02 0.  0.
          2    1    3    3  502    0  0.12663755427E+02  0.26716046114E+02 -0.67462471320E+01  0.30325396483E+02  0.00000000000E+00 0. -1.
         -2    1    3    3    0  502 -0.12663755427E+02 -0.26716046114E+02  0.82586901840E+02  0.87719519931E+02  0.00000000000E+00 0.  1.
<mgrwt>
<rscale>  0 0.90458816E+02</rscale>
<asrwt>0</asrwt>
<pdfrwt beam="2">  1        1 0.32464817E-02 0.90458816E+02</pdfrwt>
<pdfrwt beam="1">  1       -1 0.14914274E-01 0.90458816E+02</pdfrwt>
<totfact> 0.83519088E+04</totfact>
</mgrwt>
</event>
<event>
 5    1  0.3845386E+001  0.8974690E+02  0.7546771E-02  0.1303466E+00
          1   -1    0    0  501    0  0.00000000000E+00  0.00000000000E+00  0.14939406990E+04  0.14939406990E+04  0.00000000000E+00 0. -1.
         -1   -1    0    0    0  501 -0.00000000000E+00 -0.00000000000E+00 -0.13478624273E+01  0.13478624273E+01  0.00000000000E+00 0.  1.
         23    2    1    2    0    0  0.00000000000E+00  0.00000000000E+00  0.14925928365E+04  0.14952885614E+04  0.89746900489E+02 0.  0.
          2    1    3    3  502    0 -0.42024008416E+02  0.15641213294E+02  0.71762322265E+03  0.71902277747E+03  0.00000000000E+00 0. -1.
         -2    1    3    3    0  502  0.42024008416E+02 -0.15641213294E+02  0.77496961389E+03  0.77626578393E+03  0.00000000000E+00 0.  1.
<mgrwt>
<rscale>  0 0.89746900E+02</rscale>
<asrwt>0</asrwt>
<pdfrwt beam="1">  1        1 0.22983571E+00 0.89746900E+02</pdfrwt>
<pdfrwt beam="2">  1       -1 0.20736465E-03 0.89746900E+02</pdfrwt>
<totfact> 0.11561332E+05</totfact>
</mgrwt>
</event>
<event>
 5    1  0.3845386E+001  0.1002888E+03  0.7546771E-02  0.1279690E+00
          1   -1    0    0  501    0  0.00000000000E+00  0.00000000000E+00  0.10838732028E+04  0.10838732028E+04  0.00000000000E+00 0. -1.
         -1   -1    0    0    0  501 -0.00000000000E+00 -0.00000000000E+00 -0.23198828295E+01  0.23198828295E+01  0.00000000000E+00 0.  1.
         23    2    1    2    0    0  0.00000000000E+00  0.00000000000E+00  0.10815533200E+04  0.10861930856E+04  0.10028875974E+03 0.  0.
          2    1    3    3  502    0  0.16393212398E+02 -0.26330917217E+02  0.96751059501E+03  0.96800764774E+03  0.00000000000E+00 0.  1.
         -2    1    3    3    0  502 -0.16393212398E+02  0.26330917217E+02  0.11404272496E+03  0.11818543790E+03  0.00000000000E+00 0. -1.
<mgrwt>
<rscale>  0 0.10028876E+03</rscale>
<asrwt>0</asrwt>
<pdfrwt beam="1">  1        1 0.16674932E+00 0.10028876E+03</pdfrwt>
<pdfrwt beam="2">  1       -1 0.35690592E-03 0.10028876E+03</pdfrwt>
<totfact> 0.10304107E+05</totfact>
</mgrwt>
</event>
<event>
 5    1  0.3845386E+001  0.9745349E+02  0.7546771E-02  0.1285744E+00
          1   -1    0    0  501    0  0.00000000000E+00  0.00000000000E+00  0.17811523074E+01  0.17811523074E+01  0.00000000000E+00 0. -1.
         -1   -1    0    0    0  501 -0.00000000000E+00 -0.00000000000E+00 -0.13330109222E+04  0.13330109222E+04  0.00000000000E+00 0.  1.
         23    2    1    2    0    0  0.00000000000E+00  0.00000000000E+00 -0.13312297699E+04  0.13347920745E+04  0.97453485926E+02 0.  0.
          2    1    3    3  502    0  0.82215622362E+01  0.47873981456E+02 -0.61295233981E+03  0.61487403837E+03  0.00000000000E+00 0. -1.
         -2    1    3    3    0  502 -0.82215622362E+01 -0.47873981456E+02 -0.71827743004E+03  0.71991803610E+03  0.00000000000E+00 0.  1.
<mgrwt>
<rscale>  0 0.97453486E+02</rscale>
<asrwt>0</asrwt>
<pdfrwt beam="1">  1        1 0.27402355E-03 0.97453486E+02</pdfrwt>
<pdfrwt beam="2">  1       -1 0.20507852E+00 0.97453486E+02</pdfrwt>
<totfact> 0.14291765E+04</totfact>
</mgrwt>
</event>
<event>
 5    1  0.3845386E+001  0.9336111E+02  0.7546771E-02  0.1294911E+00
          1   -1    0    0  501    0  0.00000000000E+00  0.00000000000E+00  0.32410569779E+04  0.32410569779E+04  0.00000000000E+00 0. -1.
         -1   -1    0    0    0  501 -0.00000000000E+00 -0.00000000000E+00 -0.67233447347E+00  0.67233447347E+00  0.00000000000E+00 0.  1.
         23    2    1    2    0    0  0.00000000000E+00  0.00000000000E+00  0.32403846434E+04  0.32417293123E+04  0.93361112605E+02 0.  0.
          2    1    3    3  502    0  0.39313736825E+02  0.12315566666E+02  0.23823734856E+04  0.23827296674E+04  0.00000000000E+00 0. -1.
         -2    1    3    3    0  502 -0.39313736825E+02 -0.12315566666E+02  0.85801115781E+03  0.85899964495E+03  0.00000000000E+00 0.  1.
<mgrwt>
<rscale>  0 0.93361113E+02</rscale>
<asrwt>0</asrwt>
<pdfrwt beam="1">  1        1 0.49861164E+00 0.93361113E+02</pdfrwt>
<pdfrwt beam="2">  1       -1 0.10343867E-03 0.93361113E+02</pdfrwt>
<totfact> 0.22365526E+04</totfact>
</mgrwt>
</event>
<event>
 5    1  0.3845386E+001  0.9117310E+02  0.7546771E-02  0.1300035E+00
          1   -1    0    0  501    0  0.00000000000E+00  0.00000000000E+00  0.31283959970E+03  0.31283959970E+03  0.00000000000E+00 0. -1.
         -1   -1    0    0    0  501 -0.00000000000E+00 -0.00000000000E+00 -0.66428090210E+01  0.66428090210E+01  0.00000000000E+00 0.  1.
         23    2    1    2    0    0  0.00000000000E+00  0.00000000000E+00  0.30619679068E+03  0.31948240872E+03  0.91173103819E+02 0.  0.
          2    1    3    3  502    0  0.25402231508E+02 -0.15052004534E+02  0.27480311654E+03  0.27638485679E+03  0.00000000000E+00 0. -1.
         -2    1    3    3    0  502 -0.25402231508E+02  0.15052004534E+02  0.31393674143E+02  0.43097551929E+02  0.00000000000E+00 0.  1.
<mgrwt>
<rscale>  0 0.91173104E+02</rscale>
<asrwt>0</asrwt>
<pdfrwt beam="1">  1        1 0.48129158E-01 0.91173104E+02</pdfrwt>
<pdfrwt beam="2">  1       -1 0.10219709E-02 0.91173104E+02</pdfrwt>
<totfact> 0.12915695E+05</totfact>
</mgrwt>
</event>
<event>
 5    1  0.3845386E+001  0.9147320E+02  0.7546771E-02  0.1299323E+00
          4   -1    0    0  501    0  0.00000000000E+00  0.00000000000E+00  0.24296035578E+01  0.24296035578E+01  0.00000000000E+00 0. -1.
         -4   -1    0    0    0  501 -0.00000000000E+00 -0.00000000000E+00 -0.86097847638E+03  0.86097847638E+03  0.00000000000E+00 0.  1.
         23    2    1    2    0    0  0.00000000000E+00  0.00000000000E+00 -0.85854887282E+03  0.86340807994E+03  0.91473195405E+02 0.  0.
          2    1    3    3  502    0 -0.22564645402E+02 -0.39530237323E+02 -0.47152188685E+03  0.47371372438E+03  0.00000000000E+00 0. -1.
         -2    1    3    3    0  502  0.22564645402E+02  0.39530237323E+02 -0.38702698597E+03  0.38969435556E+03  0.00000000000E+00 0.  1.
<mgrwt>
<rscale>  0 0.91473195E+02</rscale>
<asrwt>0</asrwt>
<pdfrwt beam="1">  1        4 0.37378534E-03 0.91473195E+02</pdfrwt>
<pdfrwt beam="2">  1       -4 0.13245817E+00 0.91473195E+02</pdfrwt>
<totfact> 0.82101657E+03</totfact>
</mgrwt>
</event>
<event>
 5    1  0.3845386E+001  0.9265431E+02  0.7546771E-02  0.1296548E+00
          2   -1    0    0  501    0  0.00000000000E+00  0.00000000000E+00  0.25140569336E+02  0.25140569336E+02  0.00000000000E+00 0.  1.
         -2   -1    0    0    0  501 -0.00000000000E+00 -0.00000000000E+00 -0.85368202400E+02  0.85368202400E+02  0.00000000000E+00 0. -1.
         23    2    1    2    0    0  0.00000000000E+00  0.00000000000E+00 -0.60227633064E+02  0.11050877174E+03  0.92654308298E+02 0.  0.
          2    1    3    3  502    0  0.31350611859E+02  0.31749796044E+02 -0.44976923003E+02  0.63354826301E+02  0.00000000000E+00 0. -1.
         -2    1    3    3    0  502 -0.31350611859E+02 -0.31749796044E+02 -0.15250710060E+02  0.47153945435E+02  0.00000000000E+00 0.  1.
<mgrwt>
<rscale>  0 0.92654308E+02</rscale>
<asrwt>0</asrwt>
<pdfrwt beam="1">  1        2 0.38677799E-02 0.92654308E+02</pdfrwt>
<pdfrwt beam="2">  1       -2 0.13133570E-01 0.92654308E+02</pdfrwt>
<totfact> 0.80300891E+04</totfact>
</mgrwt>
</event>
<event>
 5    1  0.3845386E+001  0.9064358E+02  0.7546771E-02  0.1301301E+00
          2   -1    0    0  501    0  0.00000000000E+00  0.00000000000E+00  0.39771942117E+03  0.39771942117E+03  0.00000000000E+00 0. -1.
         -2   -1    0    0    0  501 -0.00000000000E+00 -0.00000000000E+00 -0.51646076745E+01  0.51646076745E+01  0.00000000000E+00 0.  1.
         23    2    1    2    0    0  0.00000000000E+00  0.00000000000E+00  0.39255481350E+03  0.40288402885E+03  0.90643582781E+02 0.  0.
          2    1    3    3  502    0  0.98795789244E+01  0.36630436707E+02  0.30647292376E+03  0.30881231836E+03  0.00000000000E+00 0. -1.
         -2    1    3    3    0  502 -0.98795789244E+01 -0.36630436707E+02  0.86081889741E+02  0.94071710490E+02  0.00000000000E+00 0.  1.
<mgrwt>
<rscale>  0 0.90643583E+02</rscale>
<asrwt>0</asrwt>
<pdfrwt beam="1">  1        2 0.61187579E-01 0.90643583E+02</pdfrwt>
<pdfrwt beam="2">  1       -2 0.79455534E-03 0.90643583E+02</pdfrwt>
<totfact> 0.20234205E+05</totfact>
</mgrwt>
</event>
<event>
 5    1  0.3845386E+001  0.9189837E+02  0.7546771E-02  0.1298319E+00
         -2   -1    0    0    0  501 -0.00000000000E+00  0.00000000000E+00  0.18089408277E+01  0.18089408277E+01  0.00000000000E+00 0.  1.
          2   -1    0    0  501    0  0.00000000000E+00 -0.00000000000E+00 -0.11671623973E+04  0.11671623973E+04  0.00000000000E+00 0. -1.
         23    2    1    2    0    0  0.00000000000E+00  0.00000000000E+00 -0.11653534564E+04  0.11689713381E+04  0.91898372411E+02 0.  0.
          2    1    3    3  502    0  0.63541730979E+01 -0.42481561224E+02 -0.37511060610E+03  0.37756194905E+03  0.00000000000E+00 0.  1.
         -2    1    3    3    0  502 -0.63541730979E+01  0.42481561224E+02 -0.79024285033E+03  0.79140938904E+03  0.00000000000E+00 0. -1.
<mgrwt>
<rscale>  0 0.91898372E+02</rscale>
<asrwt>0</asrwt>
<pdfrwt beam="2">  1        2 0.17956332E+00 0.91898372E+02</pdfrwt>
<pdfrwt beam="1">  1       -2 0.27829879E-03 0.91898372E+02</pdfrwt>
<totfact> 0.24422913E+05</totfact>
</mgrwt>
</event>
<event>
 5    1  0.3845386E+001  0.8900763E+02  0.7546771E-02  0.1305273E+00
         -2   -1    0    0    0  501 -0.00000000000E+00  0.00000000000E+00  0.13698623252E+01  0.13698623252E+01  0.00000000000E+00 0.  1.
          2   -1    0    0  501    0  0.00000000000E+00 -0.00000000000E+00 -0.14458310806E+04  0.14458310806E+04  0.00000000000E+00 0. -1.
         23    2    1    2    0    0  0.00000000000E+00  0.00000000000E+00 -0.14444612183E+04  0.14472009429E+04  0.89007629468E+02 0.  0.
          2    1    3    3  502    0 -0.38252136125E+02  0.11500002292E+02 -0.40315323847E+03  0.40512715246E+03  0.00000000000E+00 0.  1.
         -2    1    3    3    0  502  0.38252136125E+02 -0.11500002292E+02 -0.10413079798E+04  0.10420737905E+04  0.00000000000E+00 0. -1.
<mgrwt>
<rscale>  0 0.89007629E+02</rscale>
<asrwt>0</asrwt>
<pdfrwt beam="2">  1        2 0.22243486E+00 0.89007629E+02</pdfrwt>
<pdfrwt beam="1">  1       -2 0.21074870E-03 0.89007629E+02</pdfrwt>
<totfact> 0.25468112E+05</totfact>
</mgrwt>
</event>
<event>
 5    1  0.3845386E+001  0.9160685E+02  0.7546771E-02  0.1299006E+00
         -1   -1    0    0    0  501 -0.00000000000E+00  0.00000000000E+00  0.17030264973E+01  0.17030264973E+01  0.00000000000E+00 0.  1.
          1   -1    0    0  501    0  0.00000000000E+00 -0.00000000000E+00 -0.12318974000E+04  0.12318974000E+04  0.00000000000E+00 0. -1.
         23    2    1    2    0    0  0.00000000000E+00  0.00000000000E+00 -0.12301943735E+04  0.12336004265E+04  0.91606853765E+02 0.  0.
          2    1    3    3  502    0 -0.63149499340E+01 -0.43449196737E+02 -0.79080080140E+03  0.79201869851E+03  0.00000000000E+00 0. -1.
         -2    1    3    3    0  502  0.63149499340E+01  0.43449196737E+02 -0.43939357208E+03  0.44158172797E+03  0.00000000000E+00 0.  1.
<mgrwt>
<rscale>  0 0.91606854E+02</rscale>
<asrwt>0</asrwt>
<pdfrwt beam="2">  1        1 0.18952264E+00 0.91606854E+02</pdfrwt>
<pdfrwt beam="1">  1       -1 0.26200413E-03 0.91606854E+02</pdfrwt>
<totfact> 0.12412941E+05</totfact>
</mgrwt>
</event>
<event>
 5    1  0.3845386E+001  0.9019987E+02  0.7546771E-02  0.1302368E+00
         -1   -1    0    0    0  501 -0.00000000000E+00  0.00000000000E+00  0.40545629544E+01  0.40545629544E+01  0.00000000000E+00 0.  1.
          1   -1    0    0  501    0  0.00000000000E+00 -0.00000000000E+00 -0.50165800663E+03  0.50165800663E+03  0.00000000000E+00 0. -1.
         23    2    1    2    0    0  0.00000000000E+00  0.00000000000E+00 -0.49760344368E+03  0.50571256959E+03  0.90199866285E+02 0.  0.
          2    1    3    3  502    0 -0.40952133994E+02  0.12350659363E+02 -0.16864767581E+03  0.17398751283E+03  0.00000000000E+00 0. -1.
         -2    1    3    3    0  502  0.40952133994E+02 -0.12350659363E+02 -0.32895576787E+03  0.33172505675E+03  0.00000000000E+00 0.  1.
<mgrwt>
<rscale>  0 0.90199866E+02</rscale>
<asrwt>0</asrwt>
<pdfrwt beam="2">  1        1 0.77178173E-01 0.90199866E+02</pdfrwt>
<pdfrwt beam="1">  1       -1 0.62377877E-03 0.90199866E+02</pdfrwt>
<totfact> 0.14335041E+05</totfact>
</mgrwt>
</event>
<event>
 5    1  0.3845386E+001  0.8906822E+02  0.7546771E-02  0.1305124E+00
         -1   -1    0    0    0  501 -0.00000000000E+00  0.00000000000E+00  0.12548199424E+02  0.12548199424E+02  0.00000000000E+00 0.  1.
          1   -1    0    0  501    0  0.00000000000E+00 -0.00000000000E+00 -0.15805350556E+03  0.15805350556E+03  0.00000000000E+00 0. -1.
         23    2    1    2    0    0  0.00000000000E+00  0.00000000000E+00 -0.14550530614E+03  0.17060170499E+03  0.89068218968E+02 0.  0.
          2    1    3    3  502    0  0.36613648508E+02 -0.18008877977E+02 -0.38574187583E+02  0.56150217192E+02  0.00000000000E+00 0. -1.
         -2    1    3    3    0  502 -0.36613648508E+02  0.18008877977E+02 -0.10693111855E+03  0.11445148779E+03  0.00000000000E+00 0.  1.
<mgrwt>
<rscale>  0 0.89068219E+02</rscale>
<asrwt>0</asrwt>
<pdfrwt beam="2">  1        1 0.24315925E-01 0.89068219E+02</pdfrwt>
<pdfrwt beam="1">  1       -1 0.19304921E-02 0.89068219E+02</pdfrwt>
<totfact> 0.12057415E+05</totfact>
</mgrwt>
</event>
<event>
 5    1  0.3845386E+001  0.1034274E+03  0.7546771E-02  0.1273249E+00
         -2   -1    0    0    0  501 -0.00000000000E+00  0.00000000000E+00  0.59719375671E+01  0.59719375671E+01  0.00000000000E+00 0.  1.
          2   -1    0    0  501    0  0.00000000000E+00 -0.00000000000E+00 -0.44781263909E+03  0.44781263909E+03  0.00000000000E+00 0. -1.
         23    2    1    2    0    0  0.00000000000E+00  0.00000000000E+00 -0.44184070152E+03  0.45378457665E+03  0.10342744553E+03 0.  0.
          2    1    3    3  502    0 -0.44586833275E+02  0.16265566238E+02 -0.13081637861E+03  0.13915990536E+03  0.00000000000E+00 0. -1.
         -2    1    3    3    0  502  0.44586833275E+02 -0.16265566238E+02 -0.31102432291E+03  0.31462467130E+03  0.00000000000E+00 0.  1.
<mgrwt>
<rscale>  0 0.10342745E+03</rscale>
<asrwt>0</asrwt>
<pdfrwt beam="2">  1        2 0.68894242E-01 0.10342745E+03</pdfrwt>
<pdfrwt beam="1">  1       -2 0.91875976E-03 0.10342745E+03</pdfrwt>
<totfact> 0.14835532E+05</totfact>
</mgrwt>
</event>
<event>
 5    1  0.3845386E+001  0.8821080E+02  0.7546771E-02  0.1307243E+00
          2   -1    0    0  501    0  0.00000000000E+00  0.00000000000E+00  0.11048536443E+03  0.11048536443E+03  0.00000000000E+00 0. -1.
         -2   -1    0    0    0  501 -0.00000000000E+00 -0.00000000000E+00 -0.17606734144E+02  0.17606734144E+02  0.00000000000E+00 0.  1.
         23    2    1    2    0    0  0.00000000000E+00  0.00000000000E+00  0.92878630290E+02  0.12809209858E+03  0.88210802931E+02 0.  0.
          2    1    3    3  502    0  0.32736037792E+02  0.28294721419E+02  0.58850172428E+02  0.73045069822E+02  0.00000000000E+00 0. -1.
         -2    1    3    3    0  502 -0.32736037792E+02 -0.28294721419E+02  0.34028457862E+02  0.55047028757E+02  0.00000000000E+00 0.  1.
<mgrwt>
<rscale>  0 0.88210803E+02</rscale>
<asrwt>0</asrwt>
<pdfrwt beam="1">  1        2 0.16997748E-01 0.88210803E+02</pdfrwt>
<pdfrwt beam="2">  1       -2 0.27087284E-02 0.88210803E+02</pdfrwt>
<totfact> 0.13848202E+05</totfact>
</mgrwt>
</event>
<event>
 5    1  0.3845386E+001  0.9232483E+02  0.7546771E-02  0.1297317E+00
          1   -1    0    0  501    0  0.00000000000E+00  0.00000000000E+00  0.14656365513E+01  0.14656365513E+01  0.00000000000E+00 0. -1.
         -1   -1    0    0    0  501 -0.00000000000E+00 -0.00000000000E+00 -0.14539541519E+04  0.14539541519E+04  0.00000000000E+00 0.  1.
         23    2    1    2    0    0  0.00000000000E+00  0.00000000000E+00 -0.14524885154E+04  0.14554197885E+04  0.92324825459E+02 0.  0.
          2    1    3    3  502    0 -0.18183723669E+02 -0.30456880759E+02 -0.26054879280E+03  0.26295235847E+03  0.00000000000E+00 0. -1.
         -2    1    3    3    0  502  0.18183723669E+02  0.30456880759E+02 -0.11919397226E+04  0.11924674300E+04  0.00000000000E+00 0.  1.
<mgrwt>
<rscale>  0 0.92324825E+02</rscale>
<asrwt>0</asrwt>
<pdfrwt beam="1">  1        1 0.22548154E-03 0.92324825E+02</pdfrwt>
<pdfrwt beam="2">  1       -1 0.22368625E+00 0.92324825E+02</pdfrwt>
<totfact> 0.14155754E+04</totfact>
</mgrwt>
</event>
<event>
 5    1  0.3845386E+001  0.9113074E+02  0.7546771E-02  0.1300136E+00
         -2   -1    0    0    0  501 -0.00000000000E+00  0.00000000000E+00  0.24670164832E+02  0.24670164832E+02  0.00000000000E+00 0.  1.
          2   -1    0    0  501    0  0.00000000000E+00 -0.00000000000E+00 -0.84158452231E+02  0.84158452231E+02  0.00000000000E+00 0. -1.
         23    2    1    2    0    0  0.00000000000E+00  0.00000000000E+00 -0.59488287399E+02  0.10882861706E+03  0.91130738799E+02 0.  0.
          2    1    3    3  502    0  0.11440677778E+02 -0.42433047356E+02 -0.44111865640E+02  0.62268044021E+02  0.00000000000E+00 0. -1.
         -2    1    3    3    0  502 -0.11440677778E+02  0.42433047356E+02 -0.15376421759E+02  0.46560573042E+02  0.00000000000E+00 0.  1.
<mgrwt>
<rscale>  0 0.91130739E+02</rscale>
<asrwt>0</asrwt>
<pdfrwt beam="2">  1        2 0.12947454E-01 0.91130739E+02</pdfrwt>
<pdfrwt beam="1">  1       -2 0.37954100E-02 0.91130739E+02</pdfrwt>
<totfact> 0.11670784E+05</totfact>
</mgrwt>
</event>
<event>
 5    1  0.3845386E+001  0.8899533E+02  0.7546771E-02  0.1305303E+00
          2   -1    0    0  501    0  0.00000000000E+00  0.00000000000E+00  0.19536826292E+03  0.19536826292E+03  0.00000000000E+00 0. -1.
         -2   -1    0    0    0  501 -0.00000000000E+00 -0.00000000000E+00 -0.10134921816E+02  0.10134921816E+02  0.00000000000E+00 0.  1.
         23    2    1    2    0    0  0.00000000000E+00  0.00000000000E+00  0.18523334110E+03  0.20550318473E+03  0.88995327291E+02 0.  0.
          2    1    3    3  502    0 -0.91062232065E+01  0.22030266616E+02  0.17937991949E+03  0.18095693262E+03  0.00000000000E+00 0. -1.
         -2    1    3    3    0  502  0.91062232065E+01 -0.22030266616E+02  0.58534216170E+01  0.24546252115E+02  0.00000000000E+00 0.  1.
<mgrwt>
<rscale>  0 0.88995327E+02</rscale>
<asrwt>0</asrwt>
<pdfrwt beam="1">  1        2 0.30056653E-01 0.88995327E+02</pdfrwt>
<pdfrwt beam="2">  1       -2 0.15592189E-02 0.88995327E+02</pdfrwt>
<totfact> 0.16369418E+05</totfact>
</mgrwt>
</event>
<event>
 5    1  0.3845386E+001  0.8345105E+02  0.7546771E-02  0.1319534E+00
         -1   -1    0    0    0  501 -0.00000000000E+00  0.00000000000E+00  0.14411785579E+04  0.14411785579E+04  0.00000000000E+00 0.  1.
          1   -1    0    0  501    0  0.00000000000E+00 -0.00000000000E+00 -0.12080524995E+01  0.12080524995E+01  0.00000000000E+00 0. -1.
         23    2    1    2    0    0  0.00000000000E+00  0.00000000000E+00  0.14399705054E+04  0.14423866104E+04  0.83451048145E+02 0.  0.
          2    1    3    3  502    0 -0.12561660995E+02 -0.34027417420E+02  0.36351142752E+03  0.36531660022E+03  0.00000000000E+00 0. -1.
         -2    1    3    3    0  502  0.12561660995E+02  0.34027417420E+02  0.10764590779E+04  0.10770700102E+04  0.00000000000E+00 0.  1.
<mgrwt>
<rscale>  0 0.83451048E+02</rscale>
<asrwt>0</asrwt>
<pdfrwt beam="2">  1        1 0.18585538E-03 0.83451048E+02</pdfrwt>
<pdfrwt beam="1">  1       -1 0.22171840E+00 0.83451048E+02</pdfrwt>
<totfact> 0.18769031E+04</totfact>
</mgrwt>
</event>
<event>
 5    1  0.3845386E+001  0.9301072E+02  0.7546771E-02  0.1295720E+00
         -2   -1    0    0    0  501 -0.00000000000E+00  0.00000000000E+00  0.36338371754E+02  0.36338371754E+02  0.00000000000E+00 0.  1.
          2   -1    0    0  501    0  0.00000000000E+00 -0.00000000000E+00 -0.59516932518E+02  0.59516932518E+02  0.00000000000E+00 0. -1.
         23    2    1    2    0    0  0.00000000000E+00  0.00000000000E+00 -0.23178560764E+02  0.95855304272E+02  0.93010718081E+02 0.  0.
          2    1    3    3  502    0 -0.35260217179E+01 -0.31544805199E+02 -0.46617609572E+02  0.56397775545E+02  0.00000000000E+00 0. -1.
         -2    1    3    3    0  502  0.35260217179E+01  0.31544805199E+02  0.23439048808E+02  0.39457528727E+02  0.00000000000E+00 0.  1.
<mgrwt>
<rscale>  0 0.93010718E+02</rscale>
<asrwt>0</asrwt>
<pdfrwt beam="2">  1        2 0.91564511E-02 0.93010718E+02</pdfrwt>
<pdfrwt beam="1">  1       -2 0.55905188E-02 0.93010718E+02</pdfrwt>
<totfact> 0.10004060E+05</totfact>
</mgrwt>
</event>
<event>
 5    1  0.3845386E+001  0.9022960E+02  0.7546771E-02  0.1302297E+00
         -1   -1    0    0    0  501 -0.00000000000E+00  0.00000000000E+00  0.14245592862E+03  0.14245592862E+03  0.00000000000E+00 0.  1.
          1   -1    0    0  501    0  0.00000000000E+00 -0.00000000000E+00 -0.14287544235E+02  0.14287544235E+02  0.00000000000E+00 0. -1.
         23    2    1    2    0    0  0.00000000000E+00  0.00000000000E+00  0.12816838439E+03  0.15674347286E+03  0.90229604493E+02 0.  0.
          2    1    3    3  502    0 -0.20095741932E+02  0.95937728530E+01 -0.40751625811E+01  0.22638159629E+02  0.00000000000E+00 0. -1.
         -2    1    3    3    0  502  0.20095741932E+02 -0.95937728530E+01  0.13224354697E+03  0.13410531323E+03  0.00000000000E+00 0.  1.
<mgrwt>
<rscale>  0 0.90229604E+02</rscale>
<asrwt>0</asrwt>
<pdfrwt beam="2">  1        1 0.21980838E-02 0.90229604E+02</pdfrwt>
<pdfrwt beam="1">  1       -1 0.21916296E-01 0.90229604E+02</pdfrwt>
<totfact> 0.77758600E+04</totfact>
</mgrwt>
</event>
<event>
 5    1  0.3845386E+001  0.8721305E+02  0.7546771E-02  0.1309745E+00
          2   -1    0    0  501    0  0.00000000000E+00  0.00000000000E+00  0.80194255719E+03  0.80194255719E+03  0.00000000000E+00 0.  1.
         -2   -1    0    0    0  501 -0.00000000000E+00 -0.00000000000E+00 -0.23711534746E+01  0.23711534746E+01  0.00000000000E+00 0. -1.
         23    2    1    2    0    0  0.00000000000E+00  0.00000000000E+00  0.79957140371E+03  0.80431371066E+03  0.87213046751E+02 0.  0.
          2    1    3    3  502    0 -0.34809019197E+01  0.43386660704E+02  0.37536831576E+03  0.37788343637E+03  0.00000000000E+00 0.  1.
         -2    1    3    3    0  502  0.34809019197E+01 -0.43386660704E+02  0.42420308795E+03  0.42643027429E+03  0.00000000000E+00 0. -1.
<mgrwt>
<rscale>  0 0.87213047E+02</rscale>
<asrwt>0</asrwt>
<pdfrwt beam="1">  1        2 0.12337556E+00 0.87213047E+02</pdfrwt>
<pdfrwt beam="2">  1       -2 0.36479348E-03 0.87213047E+02</pdfrwt>
<totfact> 0.27406839E+05</totfact>
</mgrwt>
</event>
<event>
 5    1  0.3845386E+001  0.9237058E+02  0.7546771E-02  0.1297210E+00
         -1   -1    0    0    0  501 -0.00000000000E+00  0.00000000000E+00  0.66522436948E+01  0.66522436948E+01  0.00000000000E+00 0.  1.
          1   -1    0    0  501    0  0.00000000000E+00 -0.00000000000E+00 -0.32065584510E+03  0.32065584510E+03  0.00000000000E+00 0. -1.
         23    2    1    2    0    0  0.00000000000E+00  0.00000000000E+00 -0.31400360141E+03  0.32730808879E+03  0.92370575916E+02 0.  0.
          2    1    3    3  502    0  0.28419547718E+02 -0.30546259751E+02 -0.22718808446E+03  0.23098738147E+03  0.00000000000E+00 0. -1.
         -2    1    3    3    0  502 -0.28419547718E+02  0.30546259751E+02 -0.86815516941E+02  0.96320707321E+02  0.00000000000E+00 0.  1.
<mgrwt>
<rscale>  0 0.92370576E+02</rscale>
<asrwt>0</asrwt>
<pdfrwt beam="2">  1        1 0.49331662E-01 0.92370576E+02</pdfrwt>
<pdfrwt beam="1">  1       -1 0.10234222E-02 0.92370576E+02</pdfrwt>
<totfact> 0.12531949E+05</totfact>
</mgrwt>
</event>
<event>
 5    1  0.3845386E+001  0.9707322E+02  0.7546771E-02  0.1286574E+00
         -1   -1    0    0    0  501 -0.00000000000E+00  0.00000000000E+00  0.44597241113E+02  0.44597241113E+02  0.00000000000E+00 0.  1.
          1   -1    0    0  501    0  0.00000000000E+00 -0.00000000000E+00 -0.52823954491E+02  0.52823954491E+02  0.00000000000E+00 0. -1.
         23    2    1    2    0    0  0.00000000000E+00  0.00000000000E+00 -0.82267133781E+01  0.97421195604E+02  0.97073222569E+02 0.  0.
          2    1    3    3  502    0 -0.76905772807E+01  0.33081682593E+02  0.30684556057E+02  0.45772095020E+02  0.00000000000E+00 0.  1.
         -2    1    3    3    0  502  0.76905772807E+01 -0.33081682593E+02 -0.38911269435E+02  0.51649100584E+02  0.00000000000E+00 0. -1.
<mgrwt>
<rscale>  0 0.97073223E+02</rscale>
<asrwt>0</asrwt>
<pdfrwt beam="2">  1        1 0.81267622E-02 0.97073223E+02</pdfrwt>
<pdfrwt beam="1">  1       -1 0.68611140E-02 0.97073223E+02</pdfrwt>
<totfact> 0.79302957E+04</totfact>
</mgrwt>
</event>
<event>
 5    1  0.3845386E+001  0.9668722E+02  0.7546771E-02  0.1287421E+00
         -2   -1    0    0    0  501 -0.00000000000E+00  0.00000000000E+00  0.49924496403E+02  0.49924496403E+02  0.00000000000E+00 0.  1.
          2   -1    0    0  501    0  0.00000000000E+00 -0.00000000000E+00 -0.46812782028E+02  0.46812782028E+02  0.00000000000E+00 0. -1.
         23    2    1    2    0    0  0.00000000000E+00  0.00000000000E+00  0.31117143752E+01  0.96737278432E+02  0.96687218762E+02 0.  0.
          2    1    3    3  502    0 -0.41204421759E+02 -0.24738716173E+02  0.67831308525E+01  0.48536783109E+02  0.00000000000E+00 0. -1.
         -2    1    3    3    0  502  0.41204421759E+02  0.24738716173E+02 -0.36714164773E+01  0.48200495323E+02  0.00000000000E+00 0.  1.
<mgrwt>
<rscale>  0 0.96687219E+02</rscale>
<asrwt>0</asrwt>
<pdfrwt beam="2">  1        2 0.72019665E-02 0.96687219E+02</pdfrwt>
<pdfrwt beam="1">  1       -2 0.76806917E-02 0.96687219E+02</pdfrwt>
<totfact> 0.83886824E+04</totfact>
</mgrwt>
</event>
<event>
 5    1  0.3845386E+001  0.9176765E+02  0.7546771E-02  0.1298627E+00
          3   -1    0    0  501    0  0.00000000000E+00  0.00000000000E+00  0.12244286172E+03  0.12244286172E+03  0.00000000000E+00 0. -1.
         -3   -1    0    0    0  501 -0.00000000000E+00 -0.00000000000E+00 -0.17194350805E+02  0.17194350805E+02  0.00000000000E+00 0.  1.
         23    2    1    2    0    0  0.00000000000E+00  0.00000000000E+00  0.10524851091E+03  0.13963721252E+03  0.91767652644E+02 0.  0.
          2    1    3    3  502    0  0.29429868384E+02  0.28988897941E+02  0.83013333368E+02  0.92723712575E+02  0.00000000000E+00 0. -1.
         -2    1    3    3    0  502 -0.29429868384E+02 -0.28988897941E+02  0.22235177547E+02  0.46913499949E+02  0.00000000000E+00 0.  1.
<mgrwt>
<rscale>  0 0.91767653E+02</rscale>
<asrwt>0</asrwt>
<pdfrwt beam="1">  1        3 0.18837363E-01 0.91767653E+02</pdfrwt>
<pdfrwt beam="2">  1       -3 0.26452848E-02 0.91767653E+02</pdfrwt>
<totfact> 0.31397654E+04</totfact>
</mgrwt>
</event>
<event>
 5    1  0.3845386E+001  0.9277399E+02  0.7546771E-02  0.1296270E+00
          2   -1    0    0  501    0  0.00000000000E+00  0.00000000000E+00  0.71373148195E+03  0.71373148195E+03  0.00000000000E+00 0. -1.
         -2   -1    0    0    0  501 -0.00000000000E+00 -0.00000000000E+00 -0.30147941631E+01  0.30147941631E+01  0.00000000000E+00 0.  1.
         23    2    1    2    0    0  0.00000000000E+00  0.00000000000E+00  0.71071668779E+03  0.71674627611E+03  0.92773994326E+02 0.  0.
          2    1    3    3  502    0  0.37956664031E+02  0.17918021295E+02  0.20278953905E+03  0.20708780983E+03  0.00000000000E+00 0.  1.
         -2    1    3    3    0  502 -0.37956664031E+02 -0.17918021295E+02  0.50792714874E+03  0.50965846628E+03  0.00000000000E+00 0. -1.
<mgrwt>
<rscale>  0 0.92773994E+02</rscale>
<asrwt>0</asrwt>
<pdfrwt beam="1">  1        2 0.10980471E+00 0.92773994E+02</pdfrwt>
<pdfrwt beam="2">  1       -2 0.46381506E-03 0.92773994E+02</pdfrwt>
<totfact> 0.22752654E+05</totfact>
</mgrwt>
</event>
<event>
 5    1  0.3845386E+001  0.9495786E+02  0.7546771E-02  0.1291271E+00
          4   -1    0    0  501    0  0.00000000000E+00  0.00000000000E+00  0.34102847227E+03  0.34102847227E+03  0.00000000000E+00 0. -1.
         -4   -1    0    0    0  501 -0.00000000000E+00 -0.00000000000E+00 -0.66101478598E+01  0.66101478598E+01  0.00000000000E+00 0.  1.
         23    2    1    2    0    0  0.00000000000E+00  0.00000000000E+00  0.33441832441E+03  0.34763862013E+03  0.94957856465E+02 0.  0.
          2    1    3    3  502    0 -0.18517799977E+02 -0.16595163430E+02  0.31528385328E+03  0.31626289144E+03  0.00000000000E+00 0. -1.
         -2    1    3    3    0  502  0.18517799977E+02  0.16595163430E+02  0.19134471134E+02  0.31375728690E+02  0.00000000000E+00 0.  1.
<mgrwt>
<rscale>  0 0.94957856E+02</rscale>
<asrwt>0</asrwt>
<pdfrwt beam="1">  1        4 0.52465905E-01 0.94957856E+02</pdfrwt>
<pdfrwt beam="2">  1       -4 0.10169461E-02 0.94957856E+02</pdfrwt>
<totfact> 0.14771675E+04</totfact>
</mgrwt>
</event>
<event>
 5    1  0.3845386E+001  0.9315987E+02  0.7546771E-02  0.1295375E+00
         -3   -1    0    0    0  501 -0.00000000000E+00  0.00000000000E+00  0.10866747917E+02  0.10866747917E+02  0.00000000000E+00 0.  1.
          3   -1    0    0  501    0  0.00000000000E+00 -0.00000000000E+00 -0.19966326339E+03  0.19966326339E+03  0.00000000000E+00 0. -1.
         23    2    1    2    0    0  0.00000000000E+00  0.00000000000E+00 -0.18879651548E+03  0.21053001131E+03  0.93159870152E+02 0.  0.
          2    1    3    3  502    0  0.41522260458E+02 -0.20568084759E+02 -0.10512878638E+03  0.11488779722E+03  0.00000000000E+00 0. -1.
         -2    1    3    3    0  502 -0.41522260458E+02  0.20568084759E+02 -0.83667729093E+02  0.95642214089E+02  0.00000000000E+00 0.  1.
<mgrwt>
<rscale>  0 0.93159870E+02</rscale>
<asrwt>0</asrwt>
<pdfrwt beam="2">  1        3 0.30717427E-01 0.93159870E+02</pdfrwt>
<pdfrwt beam="1">  1       -3 0.16718073E-02 0.93159870E+02</pdfrwt>
<totfact> 0.26383078E+04</totfact>
</mgrwt>
</event>
<event>
 5    1  0.3845386E+001  0.9076633E+02  0.7546771E-02  0.1301006E+00
          1   -1    0    0  501    0  0.00000000000E+00  0.00000000000E+00  0.14204277055E+03  0.14204277055E+03  0.00000000000E+00 0. -1.
         -1   -1    0    0    0  501 -0.00000000000E+00 -0.00000000000E+00 -0.14500080256E+02  0.14500080256E+02  0.00000000000E+00 0.  1.
         23    2    1    2    0    0  0.00000000000E+00  0.00000000000E+00  0.12754269030E+03  0.15654285081E+03  0.90766327959E+02 0.  0.
          2    1    3    3  502    0 -0.41150031214E+02  0.17265544683E+02  0.49527591786E+02  0.66666381709E+02  0.00000000000E+00 0. -1.
         -2    1    3    3    0  502  0.41150031214E+02 -0.17265544683E+02  0.78015098513E+02  0.89876469102E+02  0.00000000000E+00 0.  1.
<mgrwt>
<rscale>  0 0.90766328E+02</rscale>
<asrwt>0</asrwt>
<pdfrwt beam="1">  1        1 0.21852733E-01 0.90766328E+02</pdfrwt>
<pdfrwt beam="2">  1       -1 0.22307817E-02 0.90766328E+02</pdfrwt>
<totfact> 0.11238204E+05</totfact>
</mgrwt>
</event>
<event>
 5    1  0.3845386E+001  0.8932683E+02  0.7546771E-02  0.1304490E+00
         -2   -1    0    0    0  501 -0.00000000000E+00  0.00000000000E+00  0.24183427213E+03  0.24183427213E+03  0.00000000000E+00 0.  1.
          2   -1    0    0  501    0  0.00000000000E+00 -0.00000000000E+00 -0.82487088124E+01  0.82487088124E+01  0.00000000000E+00 0. -1.
         23    2    1    2    0    0  0.00000000000E+00  0.00000000000E+00  0.23358556332E+03  0.25008298095E+03  0.89326826692E+02 0.  0.
          2    1    3    3  502    0 -0.29913290049E+02 -0.22712855749E+02  0.49128206953E+02  0.61840597153E+02  0.00000000000E+00 0. -1.
         -2    1    3    3    0  502  0.29913290049E+02  0.22712855749E+02  0.18445735637E+03  0.18824238379E+03  0.00000000000E+00 0.  1.
<mgrwt>
<rscale>  0 0.89326827E+02</rscale>
<asrwt>0</asrwt>
<pdfrwt beam="2">  1        2 0.12690323E-02 0.89326827E+02</pdfrwt>
<pdfrwt beam="1">  1       -2 0.37205267E-01 0.89326827E+02</pdfrwt>
<totfact> 0.60184954E+04</totfact>
</mgrwt>
</event>
<event>
 5    1  0.3845386E+001  0.9041877E+02  0.7546771E-02  0.1301841E+00
         -1   -1    0    0    0  501 -0.00000000000E+00  0.00000000000E+00  0.47658678822E+01  0.47658678822E+01  0.00000000000E+00 0.  1.
          1   -1    0    0  501    0  0.00000000000E+00 -0.00000000000E+00 -0.42885961543E+03  0.42885961543E+03  0.00000000000E+00 0. -1.
         23    2    1    2    0    0  0.00000000000E+00  0.00000000000E+00 -0.42409374755E+03  0.43362548331E+03  0.90418765024E+02 0.  0.
          2    1    3    3  502    0 -0.34040608880E+02  0.28775230602E+02 -0.24828930450E+03  0.25225850963E+03  0.00000000000E+00 0. -1.
         -2    1    3    3    0  502  0.34040608880E+02 -0.28775230602E+02 -0.17580444304E+03  0.18136697368E+03  0.00000000000E+00 0.  1.
<mgrwt>
<rscale>  0 0.90418765E+02</rscale>
<asrwt>0</asrwt>
<pdfrwt beam="2">  1        1 0.65978430E-01 0.90418765E+02</pdfrwt>
<pdfrwt beam="1">  1       -1 0.73321014E-03 0.90418765E+02</pdfrwt>
<totfact> 0.13943878E+05</totfact>
</mgrwt>
</event>
<event>
 5    1  0.3845386E+001  0.8901140E+02  0.7546771E-02  0.1305264E+00
          1   -1    0    0  501    0  0.00000000000E+00  0.00000000000E+00  0.30215992674E+03  0.30215992674E+03  0.00000000000E+00 0.  1.
         -1   -1    0    0    0  501 -0.00000000000E+00 -0.00000000000E+00 -0.65553271944E+01  0.65553271944E+01  0.00000000000E+00 0. -1.
         23    2    1    2    0    0  0.00000000000E+00  0.00000000000E+00  0.29560459955E+03  0.30871525394E+03  0.89011396682E+02 0.  0.
          2    1    3    3  502    0 -0.20531503917E+02 -0.28704389018E+02  0.53757094358E+02  0.64306374457E+02  0.00000000000E+00 0. -1.
         -2    1    3    3    0  502  0.20531503917E+02  0.28704389018E+02  0.24184750519E+03  0.24440887948E+03  0.00000000000E+00 0.  1.
<mgrwt>
<rscale>  0 0.89011397E+02</rscale>
<asrwt>0</asrwt>
<pdfrwt beam="1">  1        1 0.46486132E-01 0.89011397E+02</pdfrwt>
<pdfrwt beam="2">  1       -1 0.10085121E-02 0.89011397E+02</pdfrwt>
<totfact> 0.13676652E+05</totfact>
</mgrwt>
</event>
<event>
 5    1  0.3845386E+001  0.9183444E+02  0.7546771E-02  0.1298469E+00
          3   -1    0    0  501    0  0.00000000000E+00  0.00000000000E+00  0.59257118575E+02  0.59257118575E+02  0.00000000000E+00 0. -1.
         -3   -1    0    0    0  501 -0.00000000000E+00 -0.00000000000E+00 -0.35580388251E+02  0.35580388251E+02  0.00000000000E+00 0.  1.
         23    2    1    2    0    0  0.00000000000E+00  0.00000000000E+00  0.23676730324E+02  0.94837506826E+02  0.91834444204E+02 0.  0.
          2    1    3    3  502    0  0.18635408002E+02  0.28459175068E+02 -0.20011511536E+02  0.39467248079E+02  0.00000000000E+00 0. -1.
         -2    1    3    3    0  502 -0.18635408002E+02 -0.28459175068E+02  0.43688241861E+02  0.55370258748E+02  0.00000000000E+00 0.  1.
<mgrwt>
<rscale>  0 0.91834444E+02</rscale>
<asrwt>0</asrwt>
<pdfrwt beam="1">  1        3 0.91164798E-02 0.91834444E+02</pdfrwt>
<pdfrwt beam="2">  1       -3 0.54739059E-02 0.91834444E+02</pdfrwt>
<totfact> 0.34378102E+04</totfact>
</mgrwt>
</event>
<event>
 5    1  0.3845386E+001  0.9167250E+02  0.7546771E-02  0.1298851E+00
          1   -1    0    0  501    0  0.00000000000E+00  0.00000000000E+00  0.77674349528E+02  0.77674349528E+02  0.00000000000E+00 0. -1.
         -1   -1    0    0    0  501 -0.00000000000E+00 -0.00000000000E+00 -0.27048337047E+02  0.27048337047E+02  0.00000000000E+00 0.  1.
         23    2    1    2    0    0  0.00000000000E+00  0.00000000000E+00  0.50626012482E+02  0.10472268657E+03  0.91672503749E+02 0.  0.
          2    1    3    3  502    0 -0.11688927193E+02  0.25773659386E+02  0.66502041318E+02  0.72273328666E+02  0.00000000000E+00 0. -1.
         -2    1    3    3    0  502  0.11688927193E+02 -0.25773659386E+02 -0.15876028836E+02  0.32449357908E+02  0.00000000000E+00 0.  1.
<mgrwt>
<rscale>  0 0.91672504E+02</rscale>
<asrwt>0</asrwt>
<pdfrwt beam="1">  1        1 0.11949900E-01 0.91672504E+02</pdfrwt>
<pdfrwt beam="2">  1       -1 0.41612827E-02 0.91672504E+02</pdfrwt>
<totfact> 0.98792881E+04</totfact>
</mgrwt>
</event>
<event>
 5    1  0.3845386E+001  0.9346812E+02  0.7546771E-02  0.1294664E+00
          2   -1    0    0  501    0  0.00000000000E+00  0.00000000000E+00  0.24261530385E+03  0.24261530385E+03  0.00000000000E+00 0. -1.
         -2   -1    0    0    0  501 -0.00000000000E+00 -0.00000000000E+00 -0.90022036783E+01  0.90022036783E+01  0.00000000000E+00 0.  1.
         23    2    1    2    0    0  0.00000000000E+00  0.00000000000E+00  0.23361310017E+03  0.25161750752E+03  0.93468120355E+02 0.  0.
          2    1    3    3  502    0  0.22302427354E+02 -0.37042160234E+02  0.16455111100E+03  0.17013696844E+03  0.00000000000E+00 0.  1.
         -2    1    3    3    0  502 -0.22302427354E+02  0.37042160234E+02  0.69061989169E+02  0.81480539080E+02  0.00000000000E+00 0. -1.
<mgrwt>
<rscale>  0 0.93468120E+02</rscale>
<asrwt>0</asrwt>
<pdfrwt beam="1">  1        2 0.37325426E-01 0.93468120E+02</pdfrwt>
<pdfrwt beam="2">  1       -2 0.13849546E-02 0.93468120E+02</pdfrwt>
<totfact> 0.15530567E+05</totfact>
</mgrwt>
</event>
<event>
 5    1  0.3845386E+001  0.9084299E+02  0.7546771E-02  0.1300823E+00
         -2   -1    0    0    0  501 -0.00000000000E+00  0.00000000000E+00  0.88672983915E+01  0.88672983915E+01  0.00000000000E+00 0.  1.
          2   -1    0    0  501    0  0.00000000000E+00 -0.00000000000E+00 -0.23266527674E+03  0.23266527674E+03  0.00000000000E+00 0. -1.
         23    2    1    2    0    0  0.00000000000E+00  0.00000000000E+00 -0.22379797835E+03  0.24153257513E+03  0.90842994979E+02 0.  0.
          2    1    3    3  502    0 -0.37614651758E+02  0.25265589508E+02 -0.12026484757E+03  0.12851788048E+03  0.00000000000E+00 0. -1.
         -2    1    3    3    0  502  0.37614651758E+02 -0.25265589508E+02 -0.10353313077E+03  0.11301469465E+03  0.00000000000E+00 0.  1.
<mgrwt>
<rscale>  0 0.90842995E+02</rscale>
<asrwt>0</asrwt>
<pdfrwt beam="2">  1        2 0.35794653E-01 0.90842995E+02</pdfrwt>
<pdfrwt beam="1">  1       -2 0.13641999E-02 0.90842995E+02</pdfrwt>
<totfact> 0.16508190E+05</totfact>
</mgrwt>
</event>
<event>
 5    1  0.3845386E+001  0.9118239E+02  0.7546771E-02  0.1300013E+00
         -2   -1    0    0    0  501 -0.00000000000E+00  0.00000000000E+00  0.33227313993E+01  0.33227313993E+01  0.00000000000E+00 0.  1.
          2   -1    0    0  501    0  0.00000000000E+00 -0.00000000000E+00 -0.62555675624E+03  0.62555675624E+03  0.00000000000E+00 0. -1.
         23    2    1    2    0    0  0.00000000000E+00  0.00000000000E+00 -0.62223402484E+03  0.62887948764E+03  0.91182390317E+02 0.  0.
          2    1    3    3  502    0 -0.41139507154E+02  0.10518701136E+02 -0.42558439435E+03  0.42769753195E+03  0.00000000000E+00 0. -1.
         -2    1    3    3    0  502  0.41139507154E+02 -0.10518701136E+02 -0.19664963049E+03  0.20118195569E+03  0.00000000000E+00 0.  1.
<mgrwt>
<rscale>  0 0.91182390E+02</rscale>
<asrwt>0</asrwt>
<pdfrwt beam="2">  1        2 0.96239452E-01 0.91182390E+02</pdfrwt>
<pdfrwt beam="1">  1       -2 0.51118971E-03 0.91182390E+02</pdfrwt>
<totfact> 0.23046384E+05</totfact>
</mgrwt>
</event>
<event>
 5    1  0.3845386E+001  0.9130125E+02  0.7546771E-02  0.1299731E+00
         -3   -1    0    0    0  501 -0.00000000000E+00  0.00000000000E+00  0.16815119760E+04  0.16815119760E+04  0.00000000000E+00 0.  1.
          3   -1    0    0  501    0  0.00000000000E+00 -0.00000000000E+00 -0.12393484977E+01  0.12393484977E+01  0.00000000000E+00 0. -1.
         23    2    1    2    0    0  0.00000000000E+00  0.00000000000E+00  0.16802726275E+04  0.16827513245E+04  0.91301245144E+02 0.  0.
          2    1    3    3  502    0 -0.17815319534E+02 -0.33266461988E+02  0.36666439218E+03  0.36860116602E+03  0.00000000000E+00 0. -1.
         -2    1    3    3    0  502  0.17815319534E+02  0.33266461988E+02  0.13136082353E+04  0.13141501584E+04  0.00000000000E+00 0.  1.
<mgrwt>
<rscale>  0 0.91301245E+02</rscale>
<asrwt>0</asrwt>
<pdfrwt beam="2">  1        3 0.19067035E-03 0.91301245E+02</pdfrwt>
<pdfrwt beam="1">  1       -3 0.25869232E+00 0.91301245E+02</pdfrwt>
<totfact> 0.50277501E+03</totfact>
</mgrwt>
</event>
<event>
 5    1  0.3845386E+001  0.9162464E+02  0.7546771E-02  0.1298964E+00
         -1   -1    0    0    0  501 -0.00000000000E+00  0.00000000000E+00  0.61562903155E+00  0.61562903155E+00  0.00000000000E+00 0.  1.
          1   -1    0    0  501    0  0.00000000000E+00 -0.00000000000E+00 -0.34091453712E+04  0.34091453712E+04  0.00000000000E+00 0. -1.
         23    2    1    2    0    0  0.00000000000E+00  0.00000000000E+00 -0.34085297421E+04  0.34097610002E+04  0.91624644354E+02 0.  0.
          2    1    3    3  502    0 -0.69313947599E+01 -0.44443086199E+02 -0.20277026127E+04  0.20282014489E+04  0.00000000000E+00 0. -1.
         -2    1    3    3    0  502  0.69313947599E+01  0.44443086199E+02 -0.13808271295E+04  0.13815595512E+04  0.00000000000E+00 0.  1.
<mgrwt>
<rscale>  0 0.91624644E+02</rscale>
<asrwt>0</asrwt>
<pdfrwt beam="2">  1        1 0.52449508E+00 0.91624644E+02</pdfrwt>
<pdfrwt beam="1">  1       -1 0.94710141E-04 0.91624644E+02</pdfrwt>
<totfact> 0.19132588E+04</totfact>
</mgrwt>
</event>
<event>
 5    1  0.3845386E+001  0.9105664E+02  0.7546771E-02  0.1300313E+00
          2   -1    0    0  501    0  0.00000000000E+00  0.00000000000E+00  0.20774012747E+02  0.20774012747E+02  0.00000000000E+00 0. -1.
         -2   -1    0    0    0  501 -0.00000000000E+00 -0.00000000000E+00 -0.99779852358E+02  0.99779852358E+02  0.00000000000E+00 0.  1.
         23    2    1    2    0    0  0.00000000000E+00  0.00000000000E+00 -0.79005839611E+02  0.12055386510E+03  0.91056640060E+02 0.  0.
          2    1    3    3  502    0  0.20891933473E+02  0.27832765811E+02 -0.63908998743E+00  0.34807243110E+02  0.00000000000E+00 0. -1.
         -2    1    3    3    0  502 -0.20891933473E+02 -0.27832765811E+02 -0.78366749623E+02  0.85746621994E+02  0.00000000000E+00 0.  1.
<mgrwt>
<rscale>  0 0.91056640E+02</rscale>
<asrwt>0</asrwt>
<pdfrwt beam="1">  1        2 0.31960020E-02 0.91056640E+02</pdfrwt>
<pdfrwt beam="2">  1       -2 0.15350747E-01 0.91056640E+02</pdfrwt>
<totfact> 0.80121571E+04</totfact>
</mgrwt>
</event>
<event>
 5    1  0.3845386E+001  0.9124383E+02  0.7546771E-02  0.1299867E+00
         -1   -1    0    0    0  501 -0.00000000000E+00  0.00000000000E+00  0.79342322731E+00  0.79342322731E+00  0.00000000000E+00 0.  1.
          1   -1    0    0  501    0  0.00000000000E+00 -0.00000000000E+00 -0.26232644339E+04  0.26232644339E+04  0.00000000000E+00 0. -1.
         23    2    1    2    0    0  0.00000000000E+00  0.00000000000E+00 -0.26224710107E+04  0.26240578571E+04  0.91243825725E+02 0.  0.
          2    1    3    3  502    0 -0.82019083401E+01 -0.43739775315E+02 -0.16001423760E+04  0.16007610886E+04  0.00000000000E+00 0. -1.
         -2    1    3    3    0  502  0.82019083401E+01  0.43739775315E+02 -0.10223286346E+04  0.10232967685E+04  0.00000000000E+00 0.  1.
<mgrwt>
<rscale>  0 0.91243826E+02</rscale>
<asrwt>0</asrwt>
<pdfrwt beam="2">  1        1 0.40358166E+00 0.91243826E+02</pdfrwt>
<pdfrwt beam="1">  1       -1 0.12206435E-03 0.91243826E+02</pdfrwt>
<totfact> 0.46418766E+04</totfact>
</mgrwt>
</event>
<event>
 5    1  0.3845386E+001  0.8982913E+02  0.7546771E-02  0.1303266E+00
         -3   -1    0    0    0  501 -0.00000000000E+00  0.00000000000E+00  0.92365455807E+01  0.92365455807E+01  0.00000000000E+00 0.  1.
          3   -1    0    0  501    0  0.00000000000E+00 -0.00000000000E+00 -0.21840614038E+03  0.21840614038E+03  0.00000000000E+00 0. -1.
         23    2    1    2    0    0  0.00000000000E+00  0.00000000000E+00 -0.20916959480E+03  0.22764268596E+03  0.89829132707E+02 0.  0.
          2    1    3    3  502    0  0.14588730369E+02  0.40348809947E+02 -0.13824839745E+03  0.14475315857E+03  0.00000000000E+00 0. -1.
         -2    1    3    3    0  502 -0.14588730369E+02 -0.40348809947E+02 -0.70921197348E+02  0.82889527392E+02  0.00000000000E+00 0.  1.
<mgrwt>
<rscale>  0 0.89829133E+02</rscale>
<asrwt>0</asrwt>
<pdfrwt beam="2">  1        3 0.33600942E-01 0.89829133E+02</pdfrwt>
<pdfrwt beam="1">  1       -3 0.14210071E-02 0.89829133E+02</pdfrwt>
<totfact> 0.28237817E+04</totfact>
</mgrwt>
</event>
<event>
 5    1  0.3845386E+001  0.9067850E+02  0.7546771E-02  0.1301217E+00
          2   -1    0    0  501    0  0.00000000000E+00  0.00000000000E+00  0.17521646144E+02  0.17521646144E+02  0.00000000000E+00 0. -1.
         -2   -1    0    0    0  501 -0.00000000000E+00 -0.00000000000E+00 -0.11732045575E+03  0.11732045575E+03  0.00000000000E+00 0.  1.
         23    2    1    2    0    0  0.00000000000E+00  0.00000000000E+00 -0.99798809607E+02  0.13484210189E+03  0.90678498248E+02 0.  0.
          2    1    3    3  502    0 -0.84129734044E+01  0.31009864042E+02 -0.23315342665E+01  0.32215304460E+02  0.00000000000E+00 0. -1.
         -2    1    3    3    0  502  0.84129734044E+01 -0.31009864042E+02 -0.97467275340E+02  0.10262679743E+03  0.00000000000E+00 0.  1.
<mgrwt>
<rscale>  0 0.90678498E+02</rscale>
<asrwt>0</asrwt>
<pdfrwt beam="1">  1        2 0.26956379E-02 0.90678498E+02</pdfrwt>
<pdfrwt beam="2">  1       -2 0.18049301E-01 0.90678498E+02</pdfrwt>
<totfact> 0.77017007E+04</totfact>
</mgrwt>
</event>
<event>
 5    1  0.3845386E+001  0.9041384E+02  0.7546771E-02  0.1301853E+00
          2   -1    0    0  501    0  0.00000000000E+00  0.00000000000E+00  0.94230192606E+03  0.94230192606E+03  0.00000000000E+00 0. -1.
         -2   -1    0    0    0  501 -0.00000000000E+00 -0.00000000000E+00 -0.21688014468E+01  0.21688014468E+01  0.00000000000E+00 0.  1.
         23    2    1    2    0    0  0.00000000000E+00  0.00000000000E+00  0.94013312461E+03  0.94447072751E+03  0.90413843643E+02 0.  0.
          2    1    3    3  502    0  0.36240050976E+02  0.20291311248E+02  0.65651884876E+03  0.65783134418E+03  0.00000000000E+00 0. -1.
         -2    1    3    3    0  502 -0.36240050976E+02 -0.20291311248E+02  0.28361427585E+03  0.28663938333E+03  0.00000000000E+00 0.  1.
<mgrwt>
<rscale>  0 0.90413844E+02</rscale>
<asrwt>0</asrwt>
<pdfrwt beam="1">  1        2 0.14496920E+00 0.90413844E+02</pdfrwt>
<pdfrwt beam="2">  1       -2 0.33366251E-03 0.90413844E+02</pdfrwt>
<totfact> 0.25463478E+05</totfact>
</mgrwt>
</event>
<event>
 5    1  0.3845386E+001  0.8917422E+02  0.7546771E-02  0.1304864E+00
          2   -1    0    0  501    0  0.00000000000E+00  0.00000000000E+00  0.32843332334E+04  0.32843332334E+04  0.00000000000E+00 0. -1.
         -2   -1    0    0    0  501 -0.00000000000E+00 -0.00000000000E+00 -0.60530100342E+00  0.60530100342E+00  0.00000000000E+00 0.  1.
         23    2    1    2    0    0  0.00000000000E+00  0.00000000000E+00  0.32837279324E+04  0.32849385344E+04  0.89174216044E+02 0.  0.
          2    1    3    3  502    0 -0.21215203408E+02 -0.32929579536E+02  0.24263933549E+04  0.24267095325E+04  0.00000000000E+00 0. -1.
         -2    1    3    3    0  502  0.21215203408E+02  0.32929579536E+02  0.85733457749E+03  0.85822900197E+03  0.00000000000E+00 0.  1.
<mgrwt>
<rscale>  0 0.89174216E+02</rscale>
<asrwt>0</asrwt>
<pdfrwt beam="1">  1        2 0.50526777E+00 0.89174216E+02</pdfrwt>
<pdfrwt beam="2">  1       -2 0.93125861E-04 0.89174216E+02</pdfrwt>
<totfact> 0.83454614E+04</totfact>
</mgrwt>
</event>
<event>
 5    1  0.3845386E+001  0.9103477E+02  0.7546771E-02  0.1300365E+00
         -1   -1    0    0    0  501 -0.00000000000E+00  0.00000000000E+00  0.17158622303E+03  0.17158622303E+03  0.00000000000E+00 0.  1.
          1   -1    0    0  501    0  0.00000000000E+00 -0.00000000000E+00 -0.12074584773E+02  0.12074584773E+02  0.00000000000E+00 0. -1.
         23    2    1    2    0    0  0.00000000000E+00  0.00000000000E+00  0.15951163825E+03  0.18366080780E+03  0.91034771285E+02 0.  0.
          2    1    3    3  502    0 -0.87568522079E+01  0.44659874949E+02  0.78134909211E+02  0.90422623986E+02  0.00000000000E+00 0. -1.
         -2    1    3    3    0  502  0.87568522079E+01 -0.44659874949E+02  0.81376729044E+02  0.93238183814E+02  0.00000000000E+00 0.  1.
<mgrwt>
<rscale>  0 0.91034771E+02</rscale>
<asrwt>0</asrwt>
<pdfrwt beam="2">  1        1 0.18576285E-02 0.91034771E+02</pdfrwt>
<pdfrwt beam="1">  1       -1 0.26397879E-01 0.91034771E+02</pdfrwt>
<totfact> 0.72660863E+04</totfact>
</mgrwt>
</event>
<event>
 5    1  0.3845386E+001  0.9500493E+02  0.7546771E-02  0.1291165E+00
          2   -1    0    0  501    0  0.00000000000E+00  0.00000000000E+00  0.52270626040E+03  0.52270626040E+03  0.00000000000E+00 0. -1.
         -2   -1    0    0    0  501 -0.00000000000E+00 -0.00000000000E+00 -0.43169259787E+01  0.43169259787E+01  0.00000000000E+00 0.  1.
         23    2    1    2    0    0  0.00000000000E+00  0.00000000000E+00  0.51838933442E+03  0.52702318637E+03  0.95004931130E+02 0.  0.
          2    1    3    3  502    0  0.23360039721E+02 -0.23926379588E+02  0.44635593371E+03  0.44760672767E+03  0.00000000000E+00 0. -1.
         -2    1    3    3    0  502 -0.23360039721E+02  0.23926379588E+02  0.72033400706E+02  0.79416458705E+02  0.00000000000E+00 0.  1.
<mgrwt>
<rscale>  0 0.95004931E+02</rscale>
<asrwt>0</asrwt>
<pdfrwt beam="1">  1        2 0.80416297E-01 0.95004931E+02</pdfrwt>
<pdfrwt beam="2">  1       -2 0.66414287E-03 0.95004931E+02</pdfrwt>
<totfact> 0.19600182E+05</totfact>
</mgrwt>
</event>
<event>
 5    1  0.3845386E+001  0.9265451E+02  0.7546771E-02  0.1296548E+00
         -2   -1    0    0    0  501 -0.00000000000E+00  0.00000000000E+00  0.39939050147E+01  0.39939050147E+01  0.00000000000E+00 0.  1.
          2   -1    0    0  501    0  0.00000000000E+00 -0.00000000000E+00 -0.53737241028E+03  0.53737241028E+03  0.00000000000E+00 0. -1.
         23    2    1    2    0    0  0.00000000000E+00  0.00000000000E+00 -0.53337850527E+03  0.54136631530E+03  0.92654505864E+02 0.  0.
          2    1    3    3  502    0  0.90042624888E+01 -0.25165060064E+02 -0.48778203523E+03  0.48851373664E+03  0.00000000000E+00 0. -1.
         -2    1    3    3    0  502 -0.90042624888E+01  0.25165060064E+02 -0.45596470037E+02  0.52852578658E+02  0.00000000000E+00 0.  1.
<mgrwt>
<rscale>  0 0.92654506E+02</rscale>
<asrwt>0</asrwt>
<pdfrwt beam="2">  1        2 0.82672686E-01 0.92654506E+02</pdfrwt>
<pdfrwt beam="1">  1       -2 0.61444687E-03 0.92654506E+02</pdfrwt>
<totfact> 0.21130209E+05</totfact>
</mgrwt>
</event>
<event>
 5    1  0.3845386E+001  0.9190275E+02  0.7546771E-02  0.1298308E+00
         -2   -1    0    0    0  501 -0.00000000000E+00  0.00000000000E+00  0.89096267817E+00  0.89096267817E+00  0.00000000000E+00 0.  1.
          2   -1    0    0  501    0  0.00000000000E+00 -0.00000000000E+00 -0.23699408506E+04  0.23699408506E+04  0.00000000000E+00 0. -1.
         23    2    1    2    0    0  0.00000000000E+00  0.00000000000E+00 -0.23690498879E+04  0.23708318133E+04  0.91902749629E+02 0.  0.
          2    1    3    3  502    0  0.40550324224E+02 -0.75769856698E+01 -0.17067438250E+04  0.17072422861E+04  0.00000000000E+00 0. -1.
         -2    1    3    3    0  502 -0.40550324224E+02  0.75769856698E+01 -0.66230606294E+03  0.66358952713E+03  0.00000000000E+00 0.  1.
<mgrwt>
<rscale>  0 0.91902750E+02</rscale>
<asrwt>0</asrwt>
<pdfrwt beam="2">  1        2 0.36460225E+00 0.91902750E+02</pdfrwt>
<pdfrwt beam="1">  1       -2 0.13707270E-03 0.91902750E+02</pdfrwt>
<totfact> 0.15794124E+05</totfact>
</mgrwt>
</event>
<event>
 5    1  0.3845386E+001  0.9227279E+02  0.7546771E-02  0.1297439E+00
         -1   -1    0    0    0  501 -0.00000000000E+00  0.00000000000E+00  0.83359133549E+01  0.83359133549E+01  0.00000000000E+00 0.  1.
          1   -1    0    0  501    0  0.00000000000E+00 -0.00000000000E+00 -0.25534898408E+03  0.25534898408E+03  0.00000000000E+00 0. -1.
         23    2    1    2    0    0  0.00000000000E+00  0.00000000000E+00 -0.24701307072E+03  0.26368489743E+03  0.92272791364E+02 0.  0.
          2    1    3    3  502    0 -0.25900560126E+02 -0.24578330048E+02 -0.20699901693E+03  0.21005600761E+03  0.00000000000E+00 0. -1.
         -2    1    3    3    0  502  0.25900560126E+02  0.24578330048E+02 -0.40014053794E+02  0.53628889825E+02  0.00000000000E+00 0.  1.
<mgrwt>
<rscale>  0 0.92272791E+02</rscale>
<asrwt>0</asrwt>
<pdfrwt beam="2">  1        1 0.39284463E-01 0.92272791E+02</pdfrwt>
<pdfrwt beam="1">  1       -1 0.12824481E-02 0.92272791E+02</pdfrwt>
<totfact> 0.12027542E+05</totfact>
</mgrwt>
</event>
<event>
 5    1  0.3845386E+001  0.9151701E+02  0.7546771E-02  0.1299219E+00
          1   -1    0    0  501    0  0.00000000000E+00  0.00000000000E+00  0.13783614273E+04  0.13783614273E+04  0.00000000000E+00 0. -1.
         -1   -1    0    0    0  501 -0.00000000000E+00 -0.00000000000E+00 -0.15190797430E+01  0.15190797430E+01  0.00000000000E+00 0.  1.
         23    2    1    2    0    0  0.00000000000E+00  0.00000000000E+00  0.13768423475E+04  0.13798805070E+04  0.91517013122E+02 0.  0.
          2    1    3    3  502    0 -0.35277393528E+02  0.28783230222E+02  0.75730584278E+03  0.75867325533E+03  0.00000000000E+00 0. -1.
         -2    1    3    3    0  502  0.35277393528E+02 -0.28783230222E+02  0.61953650474E+03  0.62120725168E+03  0.00000000000E+00 0.  1.
<mgrwt>
<rscale>  0 0.91517013E+02</rscale>
<asrwt>0</asrwt>
<pdfrwt beam="1">  1        1 0.21205460E+00 0.91517013E+02</pdfrwt>
<pdfrwt beam="2">  1       -1 0.23370568E-03 0.91517013E+02</pdfrwt>
<totfact> 0.11652625E+05</totfact>
</mgrwt>
</event>
<event>
 5    1  0.3845386E+001  0.8974621E+02  0.7546771E-02  0.1303467E+00
         -2   -1    0    0    0  501 -0.00000000000E+00  0.00000000000E+00  0.33224654909E+01  0.33224654909E+01  0.00000000000E+00 0.  1.
          2   -1    0    0  501    0  0.00000000000E+00 -0.00000000000E+00 -0.60605464898E+03  0.60605464898E+03  0.00000000000E+00 0. -1.
         23    2    1    2    0    0  0.00000000000E+00  0.00000000000E+00 -0.60273218349E+03  0.60937711448E+03  0.89746212329E+02 0.  0.
          2    1    3    3  502    0 -0.38854898252E+02 -0.12766721253E+02 -0.17599839219E+03  0.18068792528E+03  0.00000000000E+00 0.  1.
         -2    1    3    3    0  502  0.38854898252E+02  0.12766721253E+02 -0.42673379131E+03  0.42868918919E+03  0.00000000000E+00 0. -1.
<mgrwt>
<rscale>  0 0.89746212E+02</rscale>
<asrwt>0</asrwt>
<pdfrwt beam="2">  1        2 0.93239087E-01 0.89746212E+02</pdfrwt>
<pdfrwt beam="1">  1       -2 0.51114903E-03 0.89746212E+02</pdfrwt>
<totfact> 0.23823095E+05</totfact>
</mgrwt>
</event>
<event>
 5    1  0.3845386E+001  0.9099323E+02  0.7546771E-02  0.1300464E+00
         -1   -1    0    0    0  501 -0.00000000000E+00  0.00000000000E+00  0.79998960225E+01  0.79998960225E+01  0.00000000000E+00 0.  1.
          1   -1    0    0  501    0  0.00000000000E+00 -0.00000000000E+00 -0.25874608609E+03  0.25874608609E+03  0.00000000000E+00 0. -1.
         23    2    1    2    0    0  0.00000000000E+00  0.00000000000E+00 -0.25074619007E+03  0.26674598211E+03  0.90993225790E+02 0.  0.
          2    1    3    3  502    0 -0.26378306528E+02  0.35469805424E+02 -0.93797280071E+02  0.10369113704E+03  0.00000000000E+00 0. -1.
         -2    1    3    3    0  502  0.26378306528E+02 -0.35469805424E+02 -0.15694891000E+03  0.16305484507E+03  0.00000000000E+00 0.  1.
<mgrwt>
<rscale>  0 0.90993226E+02</rscale>
<asrwt>0</asrwt>
<pdfrwt beam="2">  1        1 0.39807087E-01 0.90993226E+02</pdfrwt>
<pdfrwt beam="1">  1       -1 0.12307533E-02 0.90993226E+02</pdfrwt>
<totfact> 0.12517394E+05</totfact>
</mgrwt>
</event>
<event>
 5    1  0.3845386E+001  0.9532854E+02  0.7546771E-02  0.1290438E+00
          3   -1    0    0  501    0  0.00000000000E+00  0.00000000000E+00  0.46931480967E+01  0.46931480967E+01  0.00000000000E+00 0. -1.
         -3   -1    0    0    0  501 -0.00000000000E+00 -0.00000000000E+00 -0.48408498730E+03  0.48408498730E+03  0.00000000000E+00 0.  1.
         23    2    1    2    0    0  0.00000000000E+00  0.00000000000E+00 -0.47939183921E+03  0.48877813540E+03  0.95328537948E+02 0.  0.
          2    1    3    3  502    0  0.56612685994E+01 -0.35644848356E+02 -0.39932531637E+03  0.40095300656E+03  0.00000000000E+00 0.  1.
         -2    1    3    3    0  502 -0.56612685994E+01  0.35644848356E+02 -0.80066522839E+02  0.87825128842E+02  0.00000000000E+00 0. -1.
<mgrwt>
<rscale>  0 0.95328538E+02</rscale>
<asrwt>0</asrwt>
<pdfrwt beam="1">  1        3 0.72202244E-03 0.95328538E+02</pdfrwt>
<pdfrwt beam="2">  1       -3 0.74474649E-01 0.95328538E+02</pdfrwt>
<totfact> 0.16124265E+04</totfact>
</mgrwt>
</event>
<event>
 5    1  0.3845386E+001  0.9507213E+02  0.7546771E-02  0.1291014E+00
         -2   -1    0    0    0  501 -0.00000000000E+00  0.00000000000E+00  0.89623815480E+01  0.89623815480E+01  0.00000000000E+00 0.  1.
          2   -1    0    0  501    0  0.00000000000E+00 -0.00000000000E+00 -0.25212910544E+03  0.25212910544E+03  0.00000000000E+00 0. -1.
         23    2    1    2    0    0  0.00000000000E+00  0.00000000000E+00 -0.24316672389E+03  0.26109148699E+03  0.95072125091E+02 0.  0.
          2    1    3    3  502    0  0.29345210835E+02 -0.13870134150E+02 -0.21695980257E+03  0.21937428735E+03  0.00000000000E+00 0. -1.
         -2    1    3    3    0  502 -0.29345210835E+02  0.13870134150E+02 -0.26206921323E+02  0.41717199636E+02  0.00000000000E+00 0.  1.
<mgrwt>
<rscale>  0 0.95072125E+02</rscale>
<asrwt>0</asrwt>
<pdfrwt beam="2">  1        2 0.38789090E-01 0.95072125E+02</pdfrwt>
<pdfrwt beam="1">  1       -2 0.13788280E-02 0.95072125E+02</pdfrwt>
<totfact> 0.15049321E+05</totfact>
</mgrwt>
</event>
<event>
 5    1  0.3845386E+001  0.9230720E+02  0.7546771E-02  0.1297359E+00
          2   -1    0    0  501    0  0.00000000000E+00  0.00000000000E+00  0.26233358415E+03  0.26233358415E+03  0.00000000000E+00 0.  1.
         -2   -1    0    0    0  501 -0.00000000000E+00 -0.00000000000E+00 -0.81200228965E+01  0.81200228965E+01  0.00000000000E+00 0. -1.
         23    2    1    2    0    0  0.00000000000E+00  0.00000000000E+00  0.25421356126E+03  0.27045360705E+03  0.92307198199E+02 0.  0.
          2    1    3    3  502    0  0.38186594837E+02 -0.23419573829E+02  0.94551286150E+02  0.10462618303E+03  0.00000000000E+00 0. -1.
         -2    1    3    3    0  502 -0.38186594837E+02  0.23419573829E+02  0.15966227511E+03  0.16582742402E+03  0.00000000000E+00 0.  1.
<mgrwt>
<rscale>  0 0.92307198E+02</rscale>
<asrwt>0</asrwt>
<pdfrwt beam="1">  1        2 0.40359006E-01 0.92307198E+02</pdfrwt>
<pdfrwt beam="2">  1       -2 0.12492345E-02 0.92307198E+02</pdfrwt>
<totfact> 0.16534148E+05</totfact>
</mgrwt>
</event>
<event>
 5    1  0.3845386E+001  0.9017672E+02  0.7546771E-02  0.1302424E+00
          1   -1    0    0  501    0  0.00000000000E+00  0.00000000000E+00  0.14027194475E+03  0.14027194475E+03  0.00000000000E+00 0. -1.
         -1   -1    0    0    0  501 -0.00000000000E+00 -0.00000000000E+00 -0.14492993558E+02  0.14492993558E+02  0.00000000000E+00 0.  1.
         23    2    1    2    0    0  0.00000000000E+00  0.00000000000E+00  0.12577895119E+03  0.15476493831E+03  0.90176724085E+02 0.  0.
          2    1    3    3  502    0  0.25281062954E+02  0.18008982737E+02  0.67627778093E+01  0.31767763016E+02  0.00000000000E+00 0.  1.
         -2    1    3    3    0  502 -0.25281062954E+02 -0.18008982737E+02  0.11901617338E+03  0.12299717529E+03  0.00000000000E+00 0. -1.
<mgrwt>
<rscale>  0 0.90176724E+02</rscale>
<asrwt>0</asrwt>
<pdfrwt beam="1">  1        1 0.21580298E-01 0.90176724E+02</pdfrwt>
<pdfrwt beam="2">  1       -1 0.22296914E-02 0.90176724E+02</pdfrwt>
<totfact> 0.11411521E+05</totfact>
</mgrwt>
</event>
<event>
 5    1  0.3845386E+001  0.8796946E+02  0.7546771E-02  0.1307845E+00
          2   -1    0    0  501    0  0.00000000000E+00  0.00000000000E+00  0.36370196237E+03  0.36370196237E+03  0.00000000000E+00 0. -1.
         -2   -1    0    0    0  501 -0.00000000000E+00 -0.00000000000E+00 -0.53193458429E+01  0.53193458429E+01  0.00000000000E+00 0.  1.
         23    2    1    2    0    0  0.00000000000E+00  0.00000000000E+00  0.35838261653E+03  0.36902130821E+03  0.87969461101E+02 0.  0.
          2    1    3    3  502    0  0.18481162211E+02 -0.38079006933E+02  0.22937097704E+03  0.23324366923E+03  0.00000000000E+00 0. -1.
         -2    1    3    3    0  502 -0.18481162211E+02  0.38079006933E+02  0.12901163949E+03  0.13577763899E+03  0.00000000000E+00 0.  1.
<mgrwt>
<rscale>  0 0.87969461E+02</rscale>
<asrwt>0</asrwt>
<pdfrwt beam="1">  1        2 0.55954128E-01 0.87969461E+02</pdfrwt>
<pdfrwt beam="2">  1       -2 0.81836119E-03 0.87969461E+02</pdfrwt>
<totfact> 0.21209922E+05</totfact>
</mgrwt>
</event>
<event>
 5    1  0.3845386E+001  0.9646619E+02  0.7546771E-02  0.1287908E+00
          1   -1    0    0  501    0  0.00000000000E+00  0.00000000000E+00  0.93235830216E+03  0.93235830216E+03  0.00000000000E+00 0. -1.
         -1   -1    0    0    0  501 -0.00000000000E+00 -0.00000000000E+00 -0.24952116624E+01  0.24952116624E+01  0.00000000000E+00 0.  1.
         23    2    1    2    0    0  0.00000000000E+00  0.00000000000E+00  0.92986309050E+03  0.93485351383E+03  0.96466187011E+02 0.  0.
          2    1    3    3  502    0 -0.37939517094E+02  0.82424528056E+01  0.74228481446E+03  0.74329946237E+03  0.00000000000E+00 0. -1.
         -2    1    3    3    0  502  0.37939517094E+02 -0.82424528056E+01  0.18757827604E+03  0.19155405145E+03  0.00000000000E+00 0.  1.
<mgrwt>
<rscale>  0 0.96466187E+02</rscale>
<asrwt>0</asrwt>
<pdfrwt beam="1">  1        1 0.14343946E+00 0.96466187E+02</pdfrwt>
<pdfrwt beam="2">  1       -1 0.38387946E-03 0.96466187E+02</pdfrwt>
<totfact> 0.11906263E+05</totfact>
</mgrwt>
</event>
<event>
 5    1  0.3845386E+001  0.6572269E+02  0.7546771E-02  0.1375273E+00
          2   -1    0    0  501    0  0.00000000000E+00  0.00000000000E+00  0.41903906938E+01  0.41903906938E+01  0.00000000000E+00 0. -1.
         -2   -1    0    0    0  501 -0.00000000000E+00 -0.00000000000E+00 -0.25770100675E+03  0.25770100675E+03  0.00000000000E+00 0.  1.
         23    2    1    2    0    0  0.00000000000E+00  0.00000000000E+00 -0.25351061606E+03  0.26189139745E+03  0.65722687117E+02 0.  0.
          2    1    3    3  502    0  0.39905410232E+01  0.24050944646E+02 -0.38954493314E+02  0.45954596129E+02  0.00000000000E+00 0. -1.
         -2    1    3    3    0  502 -0.39905410232E+01 -0.24050944646E+02 -0.21455612274E+03  0.21593680132E+03  0.00000000000E+00 0.  1.
<mgrwt>
<rscale>  0 0.65722687E+02</rscale>
<asrwt>0</asrwt>
<pdfrwt beam="1">  1        2 0.64467539E-03 0.65722687E+02</pdfrwt>
<pdfrwt beam="2">  1       -2 0.39646315E-01 0.65722687E+02</pdfrwt>
<totfact> 0.12727924E+05</totfact>
</mgrwt>
</event>
<event>
 5    1  0.3845386E+001  0.9227238E+02  0.7546771E-02  0.1297440E+00
          1   -1    0    0  501    0  0.00000000000E+00  0.00000000000E+00  0.62197393984E+03  0.62197393984E+03  0.00000000000E+00 0. -1.
         -1   -1    0    0    0  501 -0.00000000000E+00 -0.00000000000E+00 -0.34222466212E+01  0.34222466212E+01  0.00000000000E+00 0.  1.
         23    2    1    2    0    0  0.00000000000E+00  0.00000000000E+00  0.61855169322E+03  0.62539618647E+03  0.92272384041E+02 0.  0.
          2    1    3    3  502    0 -0.44374585262E+01 -0.30542418951E+02  0.54170491337E+03  0.54258339780E+03  0.00000000000E+00 0. -1.
         -2    1    3    3    0  502  0.44374585262E+01  0.30542418951E+02  0.76846779849E+02  0.82812788667E+02  0.00000000000E+00 0.  1.
<mgrwt>
<rscale>  0 0.92272384E+02</rscale>
<asrwt>0</asrwt>
<pdfrwt beam="1">  1        1 0.95688209E-01 0.92272384E+02</pdfrwt>
<pdfrwt beam="2">  1       -1 0.52649997E-03 0.92272384E+02</pdfrwt>
<totfact> 0.13743881E+05</totfact>
</mgrwt>
</event>
<event>
 5    1  0.3845386E+001  0.9134053E+02  0.7546771E-02  0.1299637E+00
          1   -1    0    0  501    0  0.00000000000E+00  0.00000000000E+00  0.30382767341E+03  0.30382767341E+03  0.00000000000E+00 0. -1.
         -1   -1    0    0    0  501 -0.00000000000E+00 -0.00000000000E+00 -0.68649879091E+01  0.68649879091E+01  0.00000000000E+00 0.  1.
         23    2    1    2    0    0  0.00000000000E+00  0.00000000000E+00  0.29696268550E+03  0.31069266132E+03  0.91340534362E+02 0.  0.
          2    1    3    3  502    0  0.14242236337E+02 -0.40674537313E+02  0.19990037223E+03  0.20449307592E+03  0.00000000000E+00 0. -1.
         -2    1    3    3    0  502 -0.14242236337E+02  0.40674537313E+02  0.97062313273E+02  0.10619958540E+03  0.00000000000E+00 0.  1.
<mgrwt>
<rscale>  0 0.91340534E+02</rscale>
<asrwt>0</asrwt>
<pdfrwt beam="1">  1        1 0.46742708E-01 0.91340534E+02</pdfrwt>
<pdfrwt beam="2">  1       -1 0.10561522E-02 0.91340534E+02</pdfrwt>
<totfact> 0.12781862E+05</totfact>
</mgrwt>
</event>
<event>
 5    1  0.3845386E+001  0.9029648E+02  0.7546771E-02  0.1302135E+00
         -2   -1    0    0    0  501 -0.00000000000E+00  0.00000000000E+00  0.51372877914E+00  0.51372877914E+00  0.00000000000E+00 0. -1.
          2   -1    0    0  501    0  0.00000000000E+00 -0.00000000000E+00 -0.39677817789E+04  0.39677817789E+04  0.00000000000E+00 0.  1.
         23    2    1    2    0    0  0.00000000000E+00  0.00000000000E+00 -0.39672680501E+04  0.39682955077E+04  0.90296482526E+02 0.  0.
          2    1    3    3  502    0  0.13546330508E+02 -0.43058726154E+02 -0.20231065440E+04  0.20236100527E+04  0.00000000000E+00 0. -1.
         -2    1    3    3    0  502 -0.13546330508E+02  0.43058726154E+02 -0.19441615061E+04  0.19446854550E+04  0.00000000000E+00 0.  1.
<mgrwt>
<rscale>  0 0.90296483E+02</rscale>
<asrwt>0</asrwt>
<pdfrwt beam="2">  1        2 0.61043909E+00 0.90296483E+02</pdfrwt>
<pdfrwt beam="1">  1       -2 0.79033756E-04 0.90296483E+02</pdfrwt>
<totfact> 0.36883721E+04</totfact>
</mgrwt>
</event>
<event>
 5    1  0.3845386E+001  0.9494535E+02  0.7546771E-02  0.1291299E+00
         -1   -1    0    0    0  501 -0.00000000000E+00  0.00000000000E+00  0.49300515359E+02  0.49300515359E+02  0.00000000000E+00 0.  1.
          1   -1    0    0  501    0  0.00000000000E+00 -0.00000000000E+00 -0.45712606921E+02  0.45712606921E+02  0.00000000000E+00 0. -1.
         23    2    1    2    0    0  0.00000000000E+00  0.00000000000E+00  0.35879084379E+01  0.95013122280E+02  0.94945354380E+02 0.  0.
          2    1    3    3  502    0 -0.59801315446E+01  0.47058988833E+02  0.36241051874E+01  0.47575671742E+02  0.00000000000E+00 0. -1.
         -2    1    3    3    0  502  0.59801315446E+01 -0.47058988833E+02 -0.36196749502E-01  0.47437450538E+02  0.00000000000E+00 0.  1.
<mgrwt>
<rscale>  0 0.94945354E+02</rscale>
<asrwt>0</asrwt>
<pdfrwt beam="2">  1        1 0.70327087E-02 0.94945354E+02</pdfrwt>
<pdfrwt beam="1">  1       -1 0.75846947E-02 0.94945354E+02</pdfrwt>
<totfact> 0.82530664E+04</totfact>
</mgrwt>
</event>
<event>
 5    1  0.3845386E+001  0.9502903E+02  0.7546771E-02  0.1291111E+00
         -1   -1    0    0    0  501 -0.00000000000E+00  0.00000000000E+00  0.65644554594E+03  0.65644554594E+03  0.00000000000E+00 0.  1.
          1   -1    0    0  501    0  0.00000000000E+00 -0.00000000000E+00 -0.34391719696E+01  0.34391719696E+01  0.00000000000E+00 0. -1.
         23    2    1    2    0    0  0.00000000000E+00  0.00000000000E+00  0.65300637397E+03  0.65988471790E+03  0.95029029695E+02 0.  0.
          2    1    3    3  502    0  0.19990732023E+02  0.11737129182E+02  0.38494066840E+02  0.44935317403E+02  0.00000000000E+00 0. -1.
         -2    1    3    3    0  502 -0.19990732023E+02 -0.11737129182E+02  0.61451230713E+03  0.61494940050E+03  0.00000000000E+00 0.  1.
<mgrwt>
<rscale>  0 0.95029030E+02</rscale>
<asrwt>0</asrwt>
<pdfrwt beam="2">  1        1 0.52910390E-03 0.95029030E+02</pdfrwt>
<pdfrwt beam="1">  1       -1 0.10099152E+00 0.95029030E+02</pdfrwt>
<totfact> 0.34844777E+04</totfact>
</mgrwt>
</event>
<event>
 5    1  0.3845386E+001  0.9675625E+02  0.7546771E-02  0.1287269E+00
          2   -1    0    0  501    0  0.00000000000E+00  0.00000000000E+00  0.16827993811E+04  0.16827993811E+04  0.00000000000E+00 0. -1.
         -2   -1    0    0    0  501 -0.00000000000E+00 -0.00000000000E+00 -0.13908033903E+01  0.13908033903E+01  0.00000000000E+00 0.  1.
         23    2    1    2    0    0  0.00000000000E+00  0.00000000000E+00  0.16814085777E+04  0.16841901845E+04  0.96756252189E+02 0.  0.
          2    1    3    3  502    0  0.26029723817E+02  0.39108829960E+02  0.63966382958E+03  0.64138667118E+03  0.00000000000E+00 0. -1.
         -2    1    3    3    0  502 -0.26029723817E+02 -0.39108829960E+02  0.10417447482E+04  0.10428035133E+04  0.00000000000E+00 0.  1.
<mgrwt>
<rscale>  0 0.96756252E+02</rscale>
<asrwt>0</asrwt>
<pdfrwt beam="1">  1        2 0.25889058E+00 0.96756252E+02</pdfrwt>
<pdfrwt beam="2">  1       -2 0.21397110E-03 0.96756252E+02</pdfrwt>
<totfact> 0.19109693E+05</totfact>
</mgrwt>
</event>
<event>
 5    1  0.3845386E+001  0.8096164E+02  0.7546771E-02  0.1326344E+00
         -2   -1    0    0    0  501 -0.00000000000E+00  0.00000000000E+00  0.11957464619E+03  0.11957464619E+03  0.00000000000E+00 0. -1.
          2   -1    0    0  501    0  0.00000000000E+00 -0.00000000000E+00 -0.13704383332E+02  0.13704383332E+02  0.00000000000E+00 0.  1.
         23    2    1    2    0    0  0.00000000000E+00  0.00000000000E+00  0.10587026286E+03  0.13327902952E+03  0.80961640006E+02 0.  0.
          2    1    3    3  502    0  0.28104052107E+02  0.62578857340E+01  0.99778059451E+02  0.10384921775E+03  0.00000000000E+00 0. -1.
         -2    1    3    3    0  502 -0.28104052107E+02 -0.62578857340E+01  0.60922034056E+01  0.29429811774E+02  0.00000000000E+00 0.  1.
<mgrwt>
<rscale>  0 0.80961640E+02</rscale>
<asrwt>0</asrwt>
<pdfrwt beam="2">  1        2 0.21083667E-02 0.80961640E+02</pdfrwt>
<pdfrwt beam="1">  1       -2 0.18396099E-01 0.80961640E+02</pdfrwt>
<totfact> 0.10171150E+05</totfact>
</mgrwt>
</event>
<event>
 5    1  0.3845386E+001  0.9212255E+02  0.7546771E-02  0.1297792E+00
         -4   -1    0    0    0  501 -0.00000000000E+00  0.00000000000E+00  0.10655155833E+03  0.10655155833E+03  0.00000000000E+00 0.  1.
          4   -1    0    0  501    0  0.00000000000E+00 -0.00000000000E+00 -0.19911873822E+02  0.19911873822E+02  0.00000000000E+00 0. -1.
         23    2    1    2    0    0  0.00000000000E+00  0.00000000000E+00  0.86639684512E+02  0.12646343216E+03  0.92122552833E+02 0.  0.
          2    1    3    3  502    0 -0.22651293961E+02  0.36200226131E+02  0.19617968560E+02  0.46993639787E+02  0.00000000000E+00 0. -1.
         -2    1    3    3    0  502  0.22651293961E+02 -0.36200226131E+02  0.67021715952E+02  0.79469792369E+02  0.00000000000E+00 0.  1.
<mgrwt>
<rscale>  0 0.92122553E+02</rscale>
<asrwt>0</asrwt>
<pdfrwt beam="2">  1        4 0.30633652E-02 0.92122553E+02</pdfrwt>
<pdfrwt beam="1">  1       -4 0.16392547E-01 0.92122553E+02</pdfrwt>
<totfact> 0.24225299E+04</totfact>
</mgrwt>
</event>
<event>
 5    1  0.3845386E+001  0.9196009E+02  0.7546771E-02  0.1298173E+00
          1   -1    0    0  501    0  0.00000000000E+00  0.00000000000E+00  0.15569170630E+03  0.15569170630E+03  0.00000000000E+00 0. -1.
         -1   -1    0    0    0  501 -0.00000000000E+00 -0.00000000000E+00 -0.13579173466E+02  0.13579173466E+02  0.00000000000E+00 0.  1.
         23    2    1    2    0    0  0.00000000000E+00  0.00000000000E+00  0.14211253284E+03  0.16927087977E+03  0.91960093237E+02 0.  0.
          2    1    3    3  502    0  0.15835474196E+02 -0.36142757377E+02  0.11450236716E+03  0.12111091297E+03  0.00000000000E+00 0. -1.
         -2    1    3    3    0  502 -0.15835474196E+02  0.36142757377E+02  0.27610165675E+02  0.48159966802E+02  0.00000000000E+00 0.  1.
<mgrwt>
<rscale>  0 0.91960093E+02</rscale>
<asrwt>0</asrwt>
<pdfrwt beam="1">  1        1 0.23952569E-01 0.91960093E+02</pdfrwt>
<pdfrwt beam="2">  1       -1 0.20891037E-02 0.91960093E+02</pdfrwt>
<totfact> 0.11032918E+05</totfact>
</mgrwt>
</event>
<event>
 5    1  0.3845386E+001  0.9695869E+02  0.7546771E-02  0.1286825E+00
         -2   -1    0    0    0  501 -0.00000000000E+00  0.00000000000E+00  0.61181080690E+00  0.61181080690E+00  0.00000000000E+00 0.  1.
          2   -1    0    0  501    0  0.00000000000E+00 -0.00000000000E+00 -0.38414604264E+04  0.38414604264E+04  0.00000000000E+00 0. -1.
         23    2    1    2    0    0  0.00000000000E+00  0.00000000000E+00 -0.38408486156E+04  0.38420722372E+04  0.96958692300E+02 0.  0.
          2    1    3    3  502    0  0.19078234039E+02  0.43423261904E+02 -0.15228042241E+04  0.15235426688E+04  0.00000000000E+00 0.  1.
         -2    1    3    3    0  502 -0.19078234039E+02 -0.43423261904E+02 -0.23180443915E+04  0.23185295684E+04  0.00000000000E+00 0. -1.
<mgrwt>
<rscale>  0 0.96958692E+02</rscale>
<asrwt>0</asrwt>
<pdfrwt beam="2">  1        2 0.59099244E+00 0.96958692E+02</pdfrwt>
<pdfrwt beam="1">  1       -2 0.94124975E-04 0.96958692E+02</pdfrwt>
<totfact> 0.35854477E+04</totfact>
</mgrwt>
</event>
<event>
 5    1  0.3845386E+001  0.9403858E+02  0.7546771E-02  0.1293356E+00
         -1   -1    0    0    0  501 -0.00000000000E+00  0.00000000000E+00  0.21960236984E+03  0.21960236984E+03  0.00000000000E+00 0.  1.
          1   -1    0    0  501    0  0.00000000000E+00 -0.00000000000E+00 -0.10067349437E+02  0.10067349437E+02  0.00000000000E+00 0. -1.
         23    2    1    2    0    0  0.00000000000E+00  0.00000000000E+00  0.20953502040E+03  0.22966971928E+03  0.94038583452E+02 0.  0.
          2    1    3    3  502    0 -0.46901475085E+02 -0.16125746529E+01  0.97661726714E+02  0.10835202641E+03  0.00000000000E+00 0.  1.
         -2    1    3    3    0  502  0.46901475085E+02  0.16125746529E+01  0.11187329369E+03  0.12131769287E+03  0.00000000000E+00 0. -1.
<mgrwt>
<rscale>  0 0.94038583E+02</rscale>
<asrwt>0</asrwt>
<pdfrwt beam="2">  1        1 0.15488232E-02 0.94038583E+02</pdfrwt>
<pdfrwt beam="1">  1       -1 0.33784976E-01 0.94038583E+02</pdfrwt>
<totfact> 0.62290854E+04</totfact>
</mgrwt>
</event>
<event>
 5    1  0.3845386E+001  0.9404059E+02  0.7546771E-02  0.1293352E+00
         -1   -1    0    0    0  501 -0.00000000000E+00  0.00000000000E+00  0.15483512013E+02  0.15483512013E+02  0.00000000000E+00 0.  1.
          1   -1    0    0  501    0  0.00000000000E+00 -0.00000000000E+00 -0.14279113158E+03  0.14279113158E+03  0.00000000000E+00 0. -1.
         23    2    1    2    0    0  0.00000000000E+00  0.00000000000E+00 -0.12730761957E+03  0.15827464359E+03  0.94040591261E+02 0.  0.
          2    1    3    3  502    0 -0.93969129937E+01  0.21584761112E+02 -0.13215821421E+03  0.13423858413E+03  0.00000000000E+00 0. -1.
         -2    1    3    3    0  502  0.93969129937E+01 -0.21584761112E+02  0.48505946440E+01  0.24036059462E+02  0.00000000000E+00 0.  1.
<mgrwt>
<rscale>  0 0.94040591E+02</rscale>
<asrwt>0</asrwt>
<pdfrwt beam="2">  1        1 0.21967866E-01 0.94040591E+02</pdfrwt>
<pdfrwt beam="1">  1       -1 0.23820788E-02 0.94040591E+02</pdfrwt>
<totfact> 0.10220016E+05</totfact>
</mgrwt>
</event>
<event>
 5    1  0.3845386E+001  0.9069104E+02  0.7546771E-02  0.1301187E+00
         -1   -1    0    0    0  501 -0.00000000000E+00  0.00000000000E+00  0.17945961440E+02  0.17945961440E+02  0.00000000000E+00 0.  1.
          1   -1    0    0  501    0  0.00000000000E+00 -0.00000000000E+00 -0.11457821486E+03  0.11457821486E+03  0.00000000000E+00 0. -1.
         23    2    1    2    0    0  0.00000000000E+00  0.00000000000E+00 -0.96632253420E+02  0.13252417630E+03  0.90691040919E+02 0.  0.
          2    1    3    3  502    0  0.26722895877E+02 -0.36597358362E+02 -0.45898872579E+02  0.64499506255E+02  0.00000000000E+00 0. -1.
         -2    1    3    3    0  502 -0.26722895877E+02  0.36597358362E+02 -0.50733380842E+02  0.68024670045E+02  0.00000000000E+00 0.  1.
<mgrwt>
<rscale>  0 0.90691041E+02</rscale>
<asrwt>0</asrwt>
<pdfrwt beam="2">  1        1 0.17627418E-01 0.90691041E+02</pdfrwt>
<pdfrwt beam="1">  1       -1 0.27609171E-02 0.90691041E+02</pdfrwt>
<totfact> 0.10844243E+05</totfact>
</mgrwt>
</event>
<event>
 5    1  0.3845386E+001  0.9553442E+02  0.7546771E-02  0.1289977E+00
         -2   -1    0    0    0  501 -0.00000000000E+00  0.00000000000E+00  0.19756520326E+01  0.19756520326E+01  0.00000000000E+00 0.  1.
          2   -1    0    0  501    0  0.00000000000E+00 -0.00000000000E+00 -0.11549131187E+04  0.11549131187E+04  0.00000000000E+00 0. -1.
         23    2    1    2    0    0  0.00000000000E+00  0.00000000000E+00 -0.11529374667E+04  0.11568887707E+04  0.95534422078E+02 0.  0.
          2    1    3    3  502    0  0.65064200223E+01 -0.44012063379E+02 -0.36591698002E+03  0.36861176255E+03  0.00000000000E+00 0.  1.
         -2    1    3    3    0  502 -0.65064200223E+01  0.44012063379E+02 -0.78702048663E+03  0.78827700817E+03  0.00000000000E+00 0. -1.
<mgrwt>
<rscale>  0 0.95534422E+02</rscale>
<asrwt>0</asrwt>
<pdfrwt beam="2">  1        2 0.17767871E+00 0.95534422E+02</pdfrwt>
<pdfrwt beam="1">  1       -2 0.30394686E-03 0.95534422E+02</pdfrwt>
<totfact> 0.22063534E+05</totfact>
</mgrwt>
</event>
<event>
 5    1  0.3845386E+001  0.9220577E+02  0.7546771E-02  0.1297596E+00
          2   -1    0    0  501    0  0.00000000000E+00  0.00000000000E+00  0.53429758531E+03  0.53429758531E+03  0.00000000000E+00 0.  1.
         -2   -1    0    0    0  501 -0.00000000000E+00 -0.00000000000E+00 -0.39780755369E+01  0.39780755369E+01  0.00000000000E+00 0. -1.
         23    2    1    2    0    0  0.00000000000E+00  0.00000000000E+00  0.53031950978E+03  0.53827566085E+03  0.92205773215E+02 0.  0.
          2    1    3    3  502    0  0.29636901019E+02  0.21957686681E+02  0.10369617474E+03  0.11006081301E+03  0.00000000000E+00 0. -1.
         -2    1    3    3    0  502 -0.29636901019E+02 -0.21957686681E+02  0.42662333504E+03  0.42821484784E+03  0.00000000000E+00 0.  1.
<mgrwt>
<rscale>  0 0.92205773E+02</rscale>
<asrwt>0</asrwt>
<pdfrwt beam="1">  1        2 0.82199571E-01 0.92205773E+02</pdfrwt>
<pdfrwt beam="2">  1       -2 0.61201205E-03 0.92205773E+02</pdfrwt>
<totfact> 0.21365515E+05</totfact>
</mgrwt>
</event>
<event>
 5    1  0.3845386E+001  0.9165530E+02  0.7546771E-02  0.1298892E+00
         -1   -1    0    0    0  501 -0.00000000000E+00  0.00000000000E+00  0.25156597340E+01  0.25156597340E+01  0.00000000000E+00 0.  1.
          1   -1    0    0  501    0  0.00000000000E+00 -0.00000000000E+00 -0.83484000653E+03  0.83484000653E+03  0.00000000000E+00 0. -1.
         23    2    1    2    0    0  0.00000000000E+00  0.00000000000E+00 -0.83232434680E+03  0.83735566627E+03  0.91655297474E+02 0.  0.
          2    1    3    3  502    0 -0.22228061788E+02 -0.33809043870E+02 -0.21957308862E+03  0.22326996983E+03  0.00000000000E+00 0.  1.
         -2    1    3    3    0  502  0.22228061788E+02  0.33809043870E+02 -0.61275125817E+03  0.61408569644E+03  0.00000000000E+00 0. -1.
<mgrwt>
<rscale>  0 0.91655297E+02</rscale>
<asrwt>0</asrwt>
<pdfrwt beam="2">  1        1 0.12843699E+00 0.91655297E+02</pdfrwt>
<pdfrwt beam="1">  1       -1 0.38702437E-03 0.91655297E+02</pdfrwt>
<totfact> 0.13875471E+05</totfact>
</mgrwt>
</event>
<event>
 5    1  0.3845386E+001  0.8971759E+02  0.7546771E-02  0.1303537E+00
         -2   -1    0    0    0  501 -0.00000000000E+00  0.00000000000E+00  0.54444486821E+02  0.54444486821E+02  0.00000000000E+00 0.  1.
          2   -1    0    0  501    0  0.00000000000E+00 -0.00000000000E+00 -0.36960791259E+02  0.36960791259E+02  0.00000000000E+00 0. -1.
         23    2    1    2    0    0  0.00000000000E+00  0.00000000000E+00  0.17483695562E+02  0.91405278080E+02  0.89717586071E+02 0.  0.
          2    1    3    3  502    0  0.31012133716E+01 -0.29852654653E+02 -0.25224662369E+02  0.39205638700E+02  0.00000000000E+00 0. -1.
         -2    1    3    3    0  502 -0.31012133716E+01  0.29852654653E+02  0.42708357932E+02  0.52199639380E+02  0.00000000000E+00 0.  1.
<mgrwt>
<rscale>  0 0.89717586E+02</rscale>
<asrwt>0</asrwt>
<pdfrwt beam="2">  1        2 0.56862756E-02 0.89717586E+02</pdfrwt>
<pdfrwt beam="1">  1       -2 0.83760749E-02 0.89717586E+02</pdfrwt>
<totfact> 0.97942118E+04</totfact>
</mgrwt>
</event>
<event>
 5    1  0.3845386E+001  0.9147742E+02  0.7546771E-02  0.1299313E+00
          1   -1    0    0  501    0  0.00000000000E+00  0.00000000000E+00  0.21701982660E+02  0.21701982660E+02  0.00000000000E+00 0. -1.
         -1   -1    0    0    0  501 -0.00000000000E+00 -0.00000000000E+00 -0.96398091854E+02  0.96398091854E+02  0.00000000000E+00 0.  1.
         23    2    1    2    0    0  0.00000000000E+00  0.00000000000E+00 -0.74696109194E+02  0.11810007451E+03  0.91477422741E+02 0.  0.
          2    1    3    3  502    0 -0.28495677352E+02 -0.28792712016E+02 -0.64765521425E+02  0.76391077086E+02  0.00000000000E+00 0.  1.
         -2    1    3    3    0  502  0.28495677352E+02  0.28792712016E+02 -0.99305877694E+01  0.41708997427E+02  0.00000000000E+00 0. -1.
<mgrwt>
<rscale>  0 0.91477423E+02</rscale>
<asrwt>0</asrwt>
<pdfrwt beam="1">  1        1 0.33387665E-02 0.91477423E+02</pdfrwt>
<pdfrwt beam="2">  1       -1 0.14830476E-01 0.91477423E+02</pdfrwt>
<totfact> 0.81231274E+04</totfact>
</mgrwt>
</event>
<event>
 5    1  0.3845386E+001  0.9098818E+02  0.7546771E-02  0.1300476E+00
          1   -1    0    0  501    0  0.00000000000E+00  0.00000000000E+00  0.22173444692E+03  0.22173444692E+03  0.00000000000E+00 0. -1.
         -1   -1    0    0    0  501 -0.00000000000E+00 -0.00000000000E+00 -0.93341932118E+01  0.93341932118E+01  0.00000000000E+00 0.  1.
         23    2    1    2    0    0  0.00000000000E+00  0.00000000000E+00  0.21240025371E+03  0.23106864013E+03  0.90988178776E+02 0.  0.
          2    1    3    3  502    0 -0.29347864409E+02 -0.14358452245E+02  0.18659790395E+03  0.18943663863E+03  0.00000000000E+00 0. -1.
         -2    1    3    3    0  502  0.29347864409E+02  0.14358452245E+02  0.25802349762E+02  0.41632001507E+02  0.00000000000E+00 0.  1.
<mgrwt>
<rscale>  0 0.90988179E+02</rscale>
<asrwt>0</asrwt>
<pdfrwt beam="1">  1        1 0.34112988E-01 0.90988179E+02</pdfrwt>
<pdfrwt beam="2">  1       -1 0.14360299E-02 0.90988179E+02</pdfrwt>
<totfact> 0.12148029E+05</totfact>
</mgrwt>
</event>
<event>
 5    1  0.3845386E+001  0.8860032E+02  0.7546771E-02  0.1306277E+00
          2   -1    0    0  501    0  0.00000000000E+00  0.00000000000E+00  0.91645554866E+03  0.91645554866E+03  0.00000000000E+00 0. -1.
         -2   -1    0    0    0  501 -0.00000000000E+00 -0.00000000000E+00 -0.21414069743E+01  0.21414069743E+01  0.00000000000E+00 0.  1.
         23    2    1    2    0    0  0.00000000000E+00  0.00000000000E+00  0.91431414169E+03  0.91859695564E+03  0.88600322878E+02 0.  0.
          2    1    3    3  502    0  0.40613072842E+02 -0.69874511508E+01  0.62569741938E+03  0.62705303346E+03  0.00000000000E+00 0.  1.
         -2    1    3    3    0  502 -0.40613072842E+02  0.69874511508E+01  0.28861672231E+03  0.29154392218E+03  0.00000000000E+00 0. -1.
<mgrwt>
<rscale>  0 0.88600323E+02</rscale>
<asrwt>0</asrwt>
<pdfrwt beam="1">  1        2 0.14099285E+00 0.88600323E+02</pdfrwt>
<pdfrwt beam="2">  1       -2 0.32944796E-03 0.88600323E+02</pdfrwt>
<totfact> 0.26787317E+05</totfact>
</mgrwt>
</event>
<event>
 5    1  0.3845386E+001  0.9152308E+02  0.7546771E-02  0.1299205E+00
         -3   -1    0    0    0  501 -0.00000000000E+00  0.00000000000E+00  0.10590585003E+03  0.10590585003E+03  0.00000000000E+00 0.  1.
          3   -1    0    0  501    0  0.00000000000E+00 -0.00000000000E+00 -0.19773397340E+02  0.19773397340E+02  0.00000000000E+00 0. -1.
         23    2    1    2    0    0  0.00000000000E+00  0.00000000000E+00  0.86132452686E+02  0.12567924736E+03  0.91523078033E+02 0.  0.
          2    1    3    3  502    0  0.36536137642E+02 -0.20967856226E+02  0.18517924082E+02  0.46015800121E+02  0.00000000000E+00 0. -1.
         -2    1    3    3    0  502 -0.36536137642E+02  0.20967856226E+02  0.67614528604E+02  0.79663447244E+02  0.00000000000E+00 0.  1.
<mgrwt>
<rscale>  0 0.91523078E+02</rscale>
<asrwt>0</asrwt>
<pdfrwt beam="2">  1        3 0.30420612E-02 0.91523078E+02</pdfrwt>
<pdfrwt beam="1">  1       -3 0.16293207E-01 0.91523078E+02</pdfrwt>
<totfact> 0.32526979E+04</totfact>
</mgrwt>
</event>
<event>
 5    1  0.3845386E+001  0.9216274E+02  0.7546771E-02  0.1297697E+00
          2   -1    0    0  501    0  0.00000000000E+00  0.00000000000E+00  0.38090741989E+03  0.38090741989E+03  0.00000000000E+00 0. -1.
         -2   -1    0    0    0  501 -0.00000000000E+00 -0.00000000000E+00 -0.55748265527E+01  0.55748265527E+01  0.00000000000E+00 0.  1.
         23    2    1    2    0    0  0.00000000000E+00  0.00000000000E+00  0.37533259334E+03  0.38648224644E+03  0.92162742982E+02 0.  0.
          2    1    3    3  502    0 -0.35334844105E+02  0.26645164380E+02  0.13380390889E+03  0.14093261520E+03  0.00000000000E+00 0. -1.
         -2    1    3    3    0  502  0.35334844105E+02 -0.26645164380E+02  0.24152868445E+03  0.24554963124E+03  0.00000000000E+00 0.  1.
<mgrwt>
<rscale>  0 0.92162743E+02</rscale>
<asrwt>0</asrwt>
<pdfrwt beam="1">  1        2 0.58601121E-01 0.92162743E+02</pdfrwt>
<pdfrwt beam="2">  1       -2 0.85766592E-03 0.92162743E+02</pdfrwt>
<totfact> 0.19061062E+05</totfact>
</mgrwt>
</event>
<event>
 5    1  0.3845386E+001  0.9773047E+02  0.7546771E-02  0.1285142E+00
          2   -1    0    0  501    0  0.00000000000E+00  0.00000000000E+00  0.56700666101E+03  0.56700666101E+03  0.00000000000E+00 0. -1.
         -2   -1    0    0    0  501 -0.00000000000E+00 -0.00000000000E+00 -0.42112579034E+01  0.42112579034E+01  0.00000000000E+00 0.  1.
         23    2    1    2    0    0  0.00000000000E+00  0.00000000000E+00  0.56279540311E+03  0.57121791891E+03  0.97730471859E+02 0.  0.
          2    1    3    3  502    0 -0.36220012945E+02 -0.25372837979E+02  0.40290002482E+03  0.40531975062E+03  0.00000000000E+00 0. -1.
         -2    1    3    3    0  502  0.36220012945E+02  0.25372837979E+02  0.15989537829E+03  0.16589816829E+03  0.00000000000E+00 0.  1.
<mgrwt>
<rscale>  0 0.97730472E+02</rscale>
<asrwt>0</asrwt>
<pdfrwt beam="1">  1        2 0.87231734E-01 0.97730472E+02</pdfrwt>
<pdfrwt beam="2">  1       -2 0.64788628E-03 0.97730472E+02</pdfrwt>
<totfact> 0.18643370E+05</totfact>
</mgrwt>
</event>
<event>
 5    1  0.3845386E+001  0.9082024E+02  0.7546771E-02  0.1300877E+00
         -1   -1    0    0    0  501 -0.00000000000E+00  0.00000000000E+00  0.78327605023E+02  0.78327605023E+02  0.00000000000E+00 0.  1.
          1   -1    0    0  501    0  0.00000000000E+00 -0.00000000000E+00 -0.26326339074E+02  0.26326339074E+02  0.00000000000E+00 0. -1.
         23    2    1    2    0    0  0.00000000000E+00  0.00000000000E+00  0.52001265949E+02  0.10465394410E+03  0.90820241989E+02 0.  0.
          2    1    3    3  502    0 -0.39941298189E+02 -0.11775171006E+02  0.46873754481E+02  0.62698571056E+02  0.00000000000E+00 0. -1.
         -2    1    3    3    0  502  0.39941298189E+02  0.11775171006E+02  0.51275114679E+01  0.41955373042E+02  0.00000000000E+00 0.  1.
<mgrwt>
<rscale>  0 0.90820242E+02</rscale>
<asrwt>0</asrwt>
<pdfrwt beam="2">  1        1 0.40502060E-02 0.90820242E+02</pdfrwt>
<pdfrwt beam="1">  1       -1 0.12050401E-01 0.90820242E+02</pdfrwt>
<totfact> 0.85808108E+04</totfact>
</mgrwt>
</event>
<event>
 5    1  0.3845386E+001  0.7239706E+02  0.7546771E-02  0.1352126E+00
          2   -1    0    0  501    0  0.00000000000E+00  0.00000000000E+00  0.25106582759E+03  0.25106582759E+03  0.00000000000E+00 0. -1.
         -2   -1    0    0    0  501 -0.00000000000E+00 -0.00000000000E+00 -0.52190834601E+01  0.52190834601E+01  0.00000000000E+00 0.  1.
         23    2    1    2    0    0  0.00000000000E+00  0.00000000000E+00  0.24584674413E+03  0.25628491105E+03  0.72397058176E+02 0.  0.
          2    1    3    3  502    0 -0.23977547994E+02 -0.17839209119E+02  0.19522704848E+03  0.19750129277E+03  0.00000000000E+00 0. -1.
         -2    1    3    3    0  502  0.23977547994E+02  0.17839209119E+02  0.50619695652E+02  0.58783618276E+02  0.00000000000E+00 0.  1.
<mgrwt>
<rscale>  0 0.72397058E+02</rscale>
<asrwt>0</asrwt>
<pdfrwt beam="1">  1        2 0.38625502E-01 0.72397058E+02</pdfrwt>
<pdfrwt beam="2">  1       -2 0.80293611E-03 0.72397058E+02</pdfrwt>
<totfact> 0.30921892E+05</totfact>
</mgrwt>
</event>
<event>
 5    1  0.3845386E+001  0.9147518E+02  0.7546771E-02  0.1299318E+00
         -1   -1    0    0    0  501 -0.00000000000E+00  0.00000000000E+00  0.52826332760E+01  0.52826332760E+01  0.00000000000E+00 0.  1.
          1   -1    0    0  501    0  0.00000000000E+00 -0.00000000000E+00 -0.39600081083E+03  0.39600081083E+03  0.00000000000E+00 0. -1.
         23    2    1    2    0    0  0.00000000000E+00  0.00000000000E+00 -0.39071817755E+03  0.40128344410E+03  0.91475178286E+02 0.  0.
          2    1    3    3  502    0  0.98732246276E+01 -0.40967115304E+02 -0.27335809119E+03  0.27658711308E+03  0.00000000000E+00 0. -1.
         -2    1    3    3    0  502 -0.98732246276E+01  0.40967115304E+02 -0.11736008636E+03  0.12469633103E+03  0.00000000000E+00 0.  1.
<mgrwt>
<rscale>  0 0.91475178E+02</rscale>
<asrwt>0</asrwt>
<pdfrwt beam="2">  1        1 0.60923196E-01 0.91475178E+02</pdfrwt>
<pdfrwt beam="1">  1       -1 0.81271288E-03 0.91475178E+02</pdfrwt>
<totfact> 0.13350476E+05</totfact>
</mgrwt>
</event>
<event>
 5    1  0.3845386E+001  0.9359638E+02  0.7546771E-02  0.1294369E+00
          3   -1    0    0  501    0  0.00000000000E+00  0.00000000000E+00  0.43558196578E+03  0.43558196578E+03  0.00000000000E+00 0. -1.
         -3   -1    0    0    0  501 -0.00000000000E+00 -0.00000000000E+00 -0.50279181640E+01  0.50279181640E+01  0.00000000000E+00 0.  1.
         23    2    1    2    0    0  0.00000000000E+00  0.00000000000E+00  0.43055404761E+03  0.44060988394E+03  0.93596377657E+02 0.  0.
          2    1    3    3  502    0  0.50391394848E+01 -0.41971799500E+02  0.12076821595E+03  0.12795306508E+03  0.00000000000E+00 0. -1.
         -2    1    3    3    0  502 -0.50391394848E+01  0.41971799500E+02  0.30978583167E+03  0.31265681886E+03  0.00000000000E+00 0.  1.
<mgrwt>
<rscale>  0 0.93596378E+02</rscale>
<asrwt>0</asrwt>
<pdfrwt beam="1">  1        3 0.67012580E-01 0.93596378E+02</pdfrwt>
<pdfrwt beam="2">  1       -3 0.77352621E-03 0.93596378E+02</pdfrwt>
<totfact> 0.18126985E+04</totfact>
</mgrwt>
</event>
<event>
 5    1  0.3845386E+001  0.9299219E+02  0.7546771E-02  0.1295763E+00
          2   -1    0    0  501    0  0.00000000000E+00  0.00000000000E+00  0.25365338369E+04  0.25365338369E+04  0.00000000000E+00 0.  1.
         -2   -1    0    0    0  501 -0.00000000000E+00 -0.00000000000E+00 -0.85229971025E+00  0.85229971025E+00  0.00000000000E+00 0. -1.
         23    2    1    2    0    0  0.00000000000E+00  0.00000000000E+00  0.25356815372E+04  0.25373861366E+04  0.92992194386E+02 0.  0.
          2    1    3    3  502    0 -0.11479154022E+02  0.45028505485E+02  0.12242704585E+04  0.12251520285E+04  0.00000000000E+00 0. -1.
         -2    1    3    3    0  502  0.11479154022E+02 -0.45028505485E+02  0.13114110787E+04  0.13122341081E+04  0.00000000000E+00 0.  1.
<mgrwt>
<rscale>  0 0.92992194E+02</rscale>
<asrwt>0</asrwt>
<pdfrwt beam="1">  1        2 0.39022993E+00 0.92992194E+02</pdfrwt>
<pdfrwt beam="2">  1       -2 0.13112506E-03 0.92992194E+02</pdfrwt>
<totfact> 0.13759525E+05</totfact>
</mgrwt>
</event>
<event>
 5    1  0.3845386E+001  0.9163475E+02  0.7546771E-02  0.1298941E+00
         -2   -1    0    0    0  501 -0.00000000000E+00  0.00000000000E+00  0.17074786602E+01  0.17074786602E+01  0.00000000000E+00 0.  1.
          2   -1    0    0  501    0  0.00000000000E+00 -0.00000000000E+00 -0.12294338255E+04  0.12294338255E+04  0.00000000000E+00 0. -1.
         23    2    1    2    0    0  0.00000000000E+00  0.00000000000E+00 -0.12277263469E+04  0.12311413042E+04  0.91634753695E+02 0.  0.
          2    1    3    3  502    0  0.13100911043E+02 -0.23889538276E+02 -0.11087657375E+04  0.11091004483E+04  0.00000000000E+00 0. -1.
         -2    1    3    3    0  502 -0.13100911043E+02  0.23889538276E+02 -0.11896060941E+03  0.12204085586E+03  0.00000000000E+00 0.  1.
<mgrwt>
<rscale>  0 0.91634754E+02</rscale>
<asrwt>0</asrwt>
<pdfrwt beam="2">  1        2 0.18914388E+00 0.91634754E+02</pdfrwt>
<pdfrwt beam="1">  1       -2 0.26268873E-03 0.91634754E+02</pdfrwt>
<totfact> 0.24470052E+05</totfact>
</mgrwt>
</event>
<event>
 5    1  0.3845386E+001  0.9172974E+02  0.7546771E-02  0.1298716E+00
         -2   -1    0    0    0  501 -0.00000000000E+00  0.00000000000E+00  0.20662948041E+01  0.20662948041E+01  0.00000000000E+00 0.  1.
          2   -1    0    0  501    0  0.00000000000E+00 -0.00000000000E+00 -0.10180474149E+04  0.10180474149E+04  0.00000000000E+00 0. -1.
         23    2    1    2    0    0  0.00000000000E+00  0.00000000000E+00 -0.10159811201E+04  0.10201137097E+04  0.91729735280E+02 0.  0.
          2    1    3    3  502    0  0.14230360530E+01 -0.32823542891E+02 -0.15209238652E+03  0.15560046285E+03  0.00000000000E+00 0.  1.
         -2    1    3    3    0  502 -0.14230360530E+01  0.32823542891E+02 -0.86388873353E+03  0.86451324681E+03  0.00000000000E+00 0. -1.
<mgrwt>
<rscale>  0 0.91729735E+02</rscale>
<asrwt>0</asrwt>
<pdfrwt beam="2">  1        2 0.15662254E+00 0.91729735E+02</pdfrwt>
<pdfrwt beam="1">  1       -2 0.31789180E-03 0.91729735E+02</pdfrwt>
<totfact> 0.24622758E+05</totfact>
</mgrwt>
</event>
<event>
 5    1  0.3845386E+001  0.9154695E+02  0.7546771E-02  0.1299148E+00
          1   -1    0    0  501    0  0.00000000000E+00  0.00000000000E+00  0.85009755213E+00  0.85009755213E+00  0.00000000000E+00 0. -1.
         -1   -1    0    0    0  501 -0.00000000000E+00 -0.00000000000E+00 -0.24646714005E+04  0.24646714005E+04  0.00000000000E+00 0.  1.
         23    2    1    2    0    0  0.00000000000E+00  0.00000000000E+00 -0.24638213029E+04  0.24655214981E+04  0.91546952420E+02 0.  0.
          2    1    3    3  502    0 -0.17532765548E+02  0.39491469657E+02 -0.82503846334E+03  0.82616913525E+03  0.00000000000E+00 0. -1.
         -2    1    3    3    0  502  0.17532765548E+02 -0.39491469657E+02 -0.16387828396E+04  0.16393523628E+04  0.00000000000E+00 0.  1.
<mgrwt>
<rscale>  0 0.91546952E+02</rscale>
<asrwt>0</asrwt>
<pdfrwt beam="1">  1        1 0.13078475E-03 0.91546952E+02</pdfrwt>
<pdfrwt beam="2">  1       -1 0.37917873E+00 0.91546952E+02</pdfrwt>
<totfact> 0.32931451E+03</totfact>
</mgrwt>
</event>
<event>
 5    1  0.3845386E+001  0.8911099E+02  0.7546771E-02  0.1305019E+00
          2   -1    0    0  501    0  0.00000000000E+00  0.00000000000E+00  0.61719753805E+03  0.61719753805E+03  0.00000000000E+00 0.  1.
         -2   -1    0    0    0  501 -0.00000000000E+00 -0.00000000000E+00 -0.32164612874E+01  0.32164612874E+01  0.00000000000E+00 0. -1.
         23    2    1    2    0    0  0.00000000000E+00  0.00000000000E+00  0.61398107676E+03  0.62041399934E+03  0.89110986704E+02 0.  0.
          2    1    3    3  502    0 -0.17521434586E+02 -0.40950288415E+02  0.31482175704E+03  0.31795701831E+03  0.00000000000E+00 0. -1.
         -2    1    3    3    0  502  0.17521434586E+02  0.40950288415E+02  0.29915931973E+03  0.30245698103E+03  0.00000000000E+00 0.  1.
<mgrwt>
<rscale>  0 0.89110987E+02</rscale>
<asrwt>0</asrwt>
<pdfrwt beam="1">  1        2 0.94953373E-01 0.89110987E+02</pdfrwt>
<pdfrwt beam="2">  1       -2 0.49484069E-03 0.89110987E+02</pdfrwt>
<totfact> 0.24396147E+05</totfact>
</mgrwt>
</event>
<event>
 5    1  0.3845386E+001  0.9089079E+02  0.7546771E-02  0.1300709E+00
          1   -1    0    0  501    0  0.00000000000E+00  0.00000000000E+00  0.17043587349E+02  0.17043587349E+02  0.00000000000E+00 0. -1.
         -1   -1    0    0    0  501 -0.00000000000E+00 -0.00000000000E+00 -0.12117658915E+03  0.12117658915E+03  0.00000000000E+00 0.  1.
         23    2    1    2    0    0  0.00000000000E+00  0.00000000000E+00 -0.10413300180E+03  0.13822017650E+03  0.90890786812E+02 0.  0.
          2    1    3    3  502    0 -0.45298065792E+02 -0.65665428418E+00 -0.46596565780E+02  0.64989121411E+02  0.00000000000E+00 0.  1.
         -2    1    3    3    0  502  0.45298065792E+02  0.65665428418E+00 -0.57536436019E+02  0.73231055086E+02  0.00000000000E+00 0. -1.
<mgrwt>
<rscale>  0 0.90890787E+02</rscale>
<asrwt>0</asrwt>
<pdfrwt beam="1">  1        1 0.26220904E-02 0.90890787E+02</pdfrwt>
<pdfrwt beam="2">  1       -1 0.18642552E-01 0.90890787E+02</pdfrwt>
<totfact> 0.79013078E+04</totfact>
</mgrwt>
</event>
<event>
 5    1  0.3845386E+001  0.9486740E+02  0.7546771E-02  0.1291475E+00
         -2   -1    0    0    0  501 -0.00000000000E+00  0.00000000000E+00  0.10267495664E+02  0.10267495664E+02  0.00000000000E+00 0.  1.
          2   -1    0    0  501    0  0.00000000000E+00 -0.00000000000E+00 -0.21913383711E+03  0.21913383711E+03  0.00000000000E+00 0. -1.
         23    2    1    2    0    0  0.00000000000E+00  0.00000000000E+00 -0.20886634145E+03  0.22940133278E+03  0.94867396344E+02 0.  0.
          2    1    3    3  502    0  0.64293571911E+01  0.46708291384E+02 -0.91878785904E+02  0.10327009450E+03  0.00000000000E+00 0. -1.
         -2    1    3    3    0  502 -0.64293571911E+01 -0.46708291384E+02 -0.11698755554E+03  0.12613123828E+03  0.00000000000E+00 0.  1.
<mgrwt>
<rscale>  0 0.94867396E+02</rscale>
<asrwt>0</asrwt>
<pdfrwt beam="2">  1        2 0.33712900E-01 0.94867396E+02</pdfrwt>
<pdfrwt beam="1">  1       -2 0.15796146E-02 0.94867396E+02</pdfrwt>
<totfact> 0.14369478E+05</totfact>
</mgrwt>
</event>
<event>
 5    1  0.3845386E+001  0.9290486E+02  0.7546771E-02  0.1295966E+00
          1   -1    0    0  501    0  0.00000000000E+00  0.00000000000E+00  0.49044947133E+03  0.49044947133E+03  0.00000000000E+00 0. -1.
         -1   -1    0    0    0  501 -0.00000000000E+00 -0.00000000000E+00 -0.43996951708E+01  0.43996951708E+01  0.00000000000E+00 0.  1.
         23    2    1    2    0    0  0.00000000000E+00  0.00000000000E+00  0.48604977616E+03  0.49484916650E+03  0.92904858227E+02 0.  0.
          2    1    3    3  502    0 -0.13214152739E+02  0.38273300709E+02  0.36429501756E+03  0.36653829159E+03  0.00000000000E+00 0. -1.
         -2    1    3    3    0  502  0.13214152739E+02 -0.38273300709E+02  0.12175475859E+03  0.12831087491E+03  0.00000000000E+00 0.  1.
<mgrwt>
<rscale>  0 0.92904858E+02</rscale>
<asrwt>0</asrwt>
<pdfrwt beam="1">  1        1 0.75453722E-01 0.92904858E+02</pdfrwt>
<pdfrwt beam="2">  1       -1 0.67687657E-03 0.92904858E+02</pdfrwt>
<totfact> 0.13218844E+05</totfact>
</mgrwt>
</event>
<event>
 5    1  0.3845386E+001  0.9281956E+02  0.7546771E-02  0.1296164E+00
          3   -1    0    0  501    0  0.00000000000E+00  0.00000000000E+00  0.17319099959E+02  0.17319099959E+02  0.00000000000E+00 0. -1.
         -3   -1    0    0    0  501 -0.00000000000E+00 -0.00000000000E+00 -0.12436373019E+03  0.12436373019E+03  0.00000000000E+00 0.  1.
         23    2    1    2    0    0  0.00000000000E+00  0.00000000000E+00 -0.10704463023E+03  0.14168283015E+03  0.92819564199E+02 0.  0.
          2    1    3    3  502    0  0.38121074449E+02  0.26429699003E+02 -0.51298449703E+02  0.69161233711E+02  0.00000000000E+00 0. -1.
         -2    1    3    3    0  502 -0.38121074449E+02 -0.26429699003E+02 -0.55746180530E+02  0.72521596440E+02  0.00000000000E+00 0.  1.
<mgrwt>
<rscale>  0 0.92819564E+02</rscale>
<asrwt>0</asrwt>
<pdfrwt beam="1">  1        3 0.26644770E-02 0.92819564E+02</pdfrwt>
<pdfrwt beam="2">  1       -3 0.19132881E-01 0.92819564E+02</pdfrwt>
<totfact> 0.30317913E+04</totfact>
</mgrwt>
</event>
<event>
 5    1  0.3845386E+001  0.9022248E+02  0.7546771E-02  0.1302314E+00
         -1   -1    0    0    0  501 -0.00000000000E+00  0.00000000000E+00  0.65990361701E+01  0.65990361701E+01  0.00000000000E+00 0.  1.
          1   -1    0    0  501    0  0.00000000000E+00 -0.00000000000E+00 -0.30838201937E+03  0.30838201937E+03  0.00000000000E+00 0. -1.
         23    2    1    2    0    0  0.00000000000E+00  0.00000000000E+00 -0.30178298320E+03  0.31498105554E+03  0.90222482787E+02 0.  0.
          2    1    3    3  502    0 -0.26891100276E+02 -0.25587797872E+02 -0.24038764510E+03  0.24323668841E+03  0.00000000000E+00 0. -1.
         -2    1    3    3    0  502  0.26891100276E+02  0.25587797872E+02 -0.61395338105E+02  0.71744367131E+02  0.00000000000E+00 0.  1.
<mgrwt>
<rscale>  0 0.90222483E+02</rscale>
<asrwt>0</asrwt>
<pdfrwt beam="2">  1        1 0.47443401E-01 0.90222483E+02</pdfrwt>
<pdfrwt beam="1">  1       -1 0.10152360E-02 0.90222483E+02</pdfrwt>
<totfact> 0.13245098E+05</totfact>
</mgrwt>
</event>
<event>
 5    1  0.3845386E+001  0.9147773E+02  0.7546771E-02  0.1299312E+00
          2   -1    0    0  501    0  0.00000000000E+00  0.00000000000E+00  0.12909057771E+04  0.12909057771E+04  0.00000000000E+00 0.  1.
         -2   -1    0    0    0  501 -0.00000000000E+00 -0.00000000000E+00 -0.16206014956E+01  0.16206014956E+01  0.00000000000E+00 0. -1.
         23    2    1    2    0    0  0.00000000000E+00  0.00000000000E+00  0.12892851756E+04  0.12925263786E+04  0.91477731344E+02 0.  0.
          2    1    3    3  502    0 -0.39342007124E+02  0.23328754597E+02  0.64661653114E+03  0.64823218267E+03  0.00000000000E+00 0. -1.
         -2    1    3    3    0  502  0.39342007124E+02 -0.23328754597E+02  0.64266864444E+03  0.64429419590E+03  0.00000000000E+00 0.  1.
<mgrwt>
<rscale>  0 0.91477731E+02</rscale>
<asrwt>0</asrwt>
<pdfrwt beam="1">  1        2 0.19860007E+00 0.91477731E+02</pdfrwt>
<pdfrwt beam="2">  1       -2 0.24932434E-03 0.91477731E+02</pdfrwt>
<totfact> 0.24389764E+05</totfact>
</mgrwt>
</event>
<event>
 5    1  0.3845386E+001  0.9075908E+02  0.7546771E-02  0.1301024E+00
         -1   -1    0    0    0  501 -0.00000000000E+00  0.00000000000E+00  0.52793998125E+02  0.52793998125E+02  0.00000000000E+00 0.  1.
          1   -1    0    0  501    0  0.00000000000E+00 -0.00000000000E+00 -0.39006376608E+02  0.39006376608E+02  0.00000000000E+00 0. -1.
         23    2    1    2    0    0  0.00000000000E+00  0.00000000000E+00  0.13787621517E+02  0.91800374733E+02  0.90759078301E+02 0.  0.
          2    1    3    3  502    0  0.34121773756E+02  0.90496070153E+01 -0.21948462929E+02  0.41568327563E+02  0.00000000000E+00 0. -1.
         -2    1    3    3    0  502 -0.34121773756E+02 -0.90496070153E+01  0.35736084446E+02  0.50232047171E+02  0.00000000000E+00 0.  1.
<mgrwt>
<rscale>  0 0.90759078E+02</rscale>
<asrwt>0</asrwt>
<pdfrwt beam="2">  1        1 0.60009810E-02 0.90759078E+02</pdfrwt>
<pdfrwt beam="1">  1       -1 0.81221536E-02 0.90759078E+02</pdfrwt>
<totfact> 0.91497121E+04</totfact>
</mgrwt>
</event>
<event>
 5    1  0.3845386E+001  0.8210686E+02  0.7546771E-02  0.1323177E+00
          2   -1    0    0  501    0  0.00000000000E+00  0.00000000000E+00  0.49225686439E+03  0.49225686439E+03  0.00000000000E+00 0.  1.
         -2   -1    0    0    0  501 -0.00000000000E+00 -0.00000000000E+00 -0.34237901023E+01  0.34237901023E+01  0.00000000000E+00 0. -1.
         23    2    1    2    0    0  0.00000000000E+00  0.00000000000E+00  0.48883307429E+03  0.49568065449E+03  0.82106861591E+02 0.  0.
          2    1    3    3  502    0 -0.36605915583E+01 -0.40888879273E+02  0.24266891314E+03  0.24611684579E+03  0.00000000000E+00 0.  1.
         -2    1    3    3    0  502  0.36605915583E+01  0.40888879273E+02  0.24616416115E+03  0.24956380870E+03  0.00000000000E+00 0. -1.
<mgrwt>
<rscale>  0 0.82106862E+02</rscale>
<asrwt>0</asrwt>
<pdfrwt beam="1">  1        2 0.75731769E-01 0.82106862E+02</pdfrwt>
<pdfrwt beam="2">  1       -2 0.52673733E-03 0.82106862E+02</pdfrwt>
<totfact> 0.28248804E+05</totfact>
</mgrwt>
</event>
<event>
 5    1  0.3845386E+001  0.8996295E+02  0.7546771E-02  0.1302941E+00
          2   -1    0    0  501    0  0.00000000000E+00  0.00000000000E+00  0.70354589938E+02  0.70354589938E+02  0.00000000000E+00 0. -1.
         -2   -1    0    0    0  501 -0.00000000000E+00 -0.00000000000E+00 -0.28759077307E+02  0.28759077307E+02  0.00000000000E+00 0.  1.
         23    2    1    2    0    0  0.00000000000E+00  0.00000000000E+00  0.41595512631E+02  0.99113667246E+02  0.89962949951E+02 0.  0.
          2    1    3    3  502    0  0.34397509570E+02 -0.22416419529E+02  0.55347751078E+00  0.41060819116E+02  0.00000000000E+00 0. -1.
         -2    1    3    3    0  502 -0.34397509570E+02  0.22416419529E+02  0.41042035121E+02  0.58052848130E+02  0.00000000000E+00 0.  1.
<mgrwt>
<rscale>  0 0.89962950E+02</rscale>
<asrwt>0</asrwt>
<pdfrwt beam="1">  1        2 0.10823783E-01 0.89962950E+02</pdfrwt>
<pdfrwt beam="2">  1       -2 0.44244735E-02 0.89962950E+02</pdfrwt>
<totfact> 0.11499798E+05</totfact>
</mgrwt>
</event>
<event>
 5    1  0.3845386E+001  0.9040671E+02  0.7546771E-02  0.1301870E+00
          1   -1    0    0  501    0  0.00000000000E+00  0.00000000000E+00  0.73954072624E+01  0.73954072624E+01  0.00000000000E+00 0.  1.
         -1   -1    0    0    0  501 -0.00000000000E+00 -0.00000000000E+00 -0.27629896303E+03  0.27629896303E+03  0.00000000000E+00 0. -1.
         23    2    1    2    0    0  0.00000000000E+00  0.00000000000E+00 -0.26890355577E+03  0.28369437029E+03  0.90406711206E+02 0.  0.
          2    1    3    3  502    0  0.42334472982E+02 -0.15834964959E+02 -0.13641054026E+03  0.14370382463E+03  0.00000000000E+00 0. -1.
         -2    1    3    3    0  502 -0.42334472982E+02  0.15834964959E+02 -0.13249301550E+03  0.13999054566E+03  0.00000000000E+00 0.  1.
<mgrwt>
<rscale>  0 0.90406711E+02</rscale>
<asrwt>0</asrwt>
<pdfrwt beam="1">  1        1 0.11377548E-02 0.90406711E+02</pdfrwt>
<pdfrwt beam="2">  1       -1 0.42507537E-01 0.90406711E+02</pdfrwt>
<totfact> 0.63915230E+04</totfact>
</mgrwt>
</event>
<event>
 5    1  0.3845386E+001  0.9115121E+02  0.7546771E-02  0.1300088E+00
         -1   -1    0    0    0  501 -0.00000000000E+00  0.00000000000E+00  0.60498920145E+01  0.60498920145E+01  0.00000000000E+00 0.  1.
          1   -1    0    0  501    0  0.00000000000E+00 -0.00000000000E+00 -0.34333436052E+03  0.34333436052E+03  0.00000000000E+00 0. -1.
         23    2    1    2    0    0  0.00000000000E+00  0.00000000000E+00 -0.33728446851E+03  0.34938425254E+03  0.91151210766E+02 0.  0.
          2    1    3    3  502    0 -0.43649134213E+02  0.12847206136E+02 -0.15861892238E+03  0.16501593911E+03  0.00000000000E+00 0. -1.
         -2    1    3    3    0  502  0.43649134213E+02 -0.12847206136E+02 -0.17866554613E+03  0.18436831343E+03  0.00000000000E+00 0.  1.
<mgrwt>
<rscale>  0 0.91151211E+02</rscale>
<asrwt>0</asrwt>
<pdfrwt beam="2">  1        1 0.52820681E-01 0.91151211E+02</pdfrwt>
<pdfrwt beam="1">  1       -1 0.93075245E-03 0.91151211E+02</pdfrwt>
<totfact> 0.13147656E+05</totfact>
</mgrwt>
</event>
<event>
 5    1  0.3845386E+001  0.1008662E+03  0.7546771E-02  0.1278485E+00
         -2   -1    0    0    0  501 -0.00000000000E+00  0.00000000000E+00  0.37245232224E+01  0.37245232224E+01  0.00000000000E+00 0. -1.
          2   -1    0    0  501    0  0.00000000000E+00 -0.00000000000E+00 -0.68290564278E+03  0.68290564278E+03  0.00000000000E+00 0.  1.
         23    2    1    2    0    0  0.00000000000E+00  0.00000000000E+00 -0.67918111956E+03  0.68663016600E+03  0.10086620693E+03 0.  0.
          2    1    3    3  502    0 -0.17181864707E+02  0.37391222126E+02 -0.53807757942E+03  0.53964877600E+03  0.00000000000E+00 0. -1.
         -2    1    3    3    0  502  0.17181864707E+02 -0.37391222126E+02 -0.14110354014E+03  0.14698139000E+03  0.00000000000E+00 0.  1.
<mgrwt>
<rscale>  0 0.10086621E+03</rscale>
<asrwt>0</asrwt>
<pdfrwt beam="2">  1        2 0.10506243E+00 0.10086621E+03</pdfrwt>
<pdfrwt beam="1">  1       -2 0.57300342E-03 0.10086621E+03</pdfrwt>
<totfact> 0.18035760E+05</totfact>
</mgrwt>
</event>
<event>
 5    1  0.3845386E+001  0.8877035E+02  0.7546771E-02  0.1305857E+00
          1   -1    0    0  501    0  0.00000000000E+00  0.00000000000E+00  0.27834462597E+03  0.27834462597E+03  0.00000000000E+00 0. -1.
         -1   -1    0    0    0  501 -0.00000000000E+00 -0.00000000000E+00 -0.70777146773E+01  0.70777146773E+01  0.00000000000E+00 0.  1.
         23    2    1    2    0    0  0.00000000000E+00  0.00000000000E+00  0.27126691129E+03  0.28542234065E+03  0.88770351910E+02 0.  0.
          2    1    3    3  502    0  0.36240625650E+02  0.23930844070E+02  0.10616912515E+03  0.11470811384E+03  0.00000000000E+00 0. -1.
         -2    1    3    3    0  502 -0.36240625650E+02 -0.23930844070E+02  0.16509778615E+03  0.17071422681E+03  0.00000000000E+00 0.  1.
<mgrwt>
<rscale>  0 0.88770352E+02</rscale>
<asrwt>0</asrwt>
<pdfrwt beam="1">  1        1 0.42822242E-01 0.88770352E+02</pdfrwt>
<pdfrwt beam="2">  1       -1 0.10888794E-02 0.88770352E+02</pdfrwt>
<totfact> 0.13560811E+05</totfact>
</mgrwt>
</event>
<event>
 5    1  0.3845386E+001  0.9084941E+02  0.7546771E-02  0.1300808E+00
          2   -1    0    0  501    0  0.00000000000E+00  0.00000000000E+00  0.89885246653E+02  0.89885246653E+02  0.00000000000E+00 0. -1.
         -2   -1    0    0    0  501 -0.00000000000E+00 -0.00000000000E+00 -0.22955976801E+02  0.22955976801E+02  0.00000000000E+00 0.  1.
         23    2    1    2    0    0  0.00000000000E+00  0.00000000000E+00  0.66929269853E+02  0.11284122345E+03  0.90849405874E+02 0.  0.
          2    1    3    3  502    0  0.36451862597E+02 -0.24539607351E+02  0.47760466246E+02  0.64899867117E+02  0.00000000000E+00 0. -1.
         -2    1    3    3    0  502 -0.36451862597E+02  0.24539607351E+02  0.19168803607E+02  0.47941356337E+02  0.00000000000E+00 0.  1.
<mgrwt>
<rscale>  0 0.90849406E+02</rscale>
<asrwt>0</asrwt>
<pdfrwt beam="1">  1        2 0.13828499E-01 0.90849406E+02</pdfrwt>
<pdfrwt beam="2">  1       -2 0.35316888E-02 0.90849406E+02</pdfrwt>
<totfact> 0.12000088E+05</totfact>
</mgrwt>
</event>
<event>
 5    1  0.3845386E+001  0.8728188E+02  0.7546771E-02  0.1309571E+00
          4   -1    0    0  501    0  0.00000000000E+00  0.00000000000E+00  0.22464775422E+02  0.22464775422E+02  0.00000000000E+00 0. -1.
         -4   -1    0    0    0  501 -0.00000000000E+00 -0.00000000000E+00 -0.84778566751E+02  0.84778566751E+02  0.00000000000E+00 0.  1.
         23    2    1    2    0    0  0.00000000000E+00  0.00000000000E+00 -0.62313791329E+02  0.10724334217E+03  0.87281875842E+02 0.  0.
          2    1    3    3  502    0  0.37909781867E+02 -0.21552659478E+02 -0.29077967117E+02  0.52413708735E+02  0.00000000000E+00 0. -1.
         -2    1    3    3    0  502 -0.37909781867E+02  0.21552659478E+02 -0.33235824213E+02  0.54829633437E+02  0.00000000000E+00 0.  1.
<mgrwt>
<rscale>  0 0.87281876E+02</rscale>
<asrwt>0</asrwt>
<pdfrwt beam="1">  1        4 0.34561193E-02 0.87281876E+02</pdfrwt>
<pdfrwt beam="2">  1       -4 0.13042856E-01 0.87281876E+02</pdfrwt>
<totfact> 0.29264134E+04</totfact>
</mgrwt>
</event>
<event>
 5    1  0.3845386E+001  0.1034784E+03  0.7546771E-02  0.1273147E+00
          1   -1    0    0  501    0  0.00000000000E+00  0.00000000000E+00  0.15250902145E+02  0.15250902145E+02  0.00000000000E+00 0. -1.
         -1   -1    0    0    0  501 -0.00000000000E+00 -0.00000000000E+00 -0.17552709437E+03  0.17552709437E+03  0.00000000000E+00 0.  1.
         23    2    1    2    0    0  0.00000000000E+00  0.00000000000E+00 -0.16027619223E+03  0.19077799652E+03  0.10347843331E+03 0.  0.
          2    1    3    3  502    0  0.33951003446E+02 -0.31058197256E+02 -0.36522457393E+02  0.58746677743E+02  0.00000000000E+00 0. -1.
         -2    1    3    3    0  502 -0.33951003446E+02  0.31058197256E+02 -0.12375373483E+03  0.13203131877E+03  0.00000000000E+00 0.  1.
<mgrwt>
<rscale>  0 0.10347843E+03</rscale>
<asrwt>0</asrwt>
<pdfrwt beam="1">  1        1 0.23462926E-02 0.10347843E+03</pdfrwt>
<pdfrwt beam="2">  1       -1 0.27004168E-01 0.10347843E+03</pdfrwt>
<totfact> 0.51699052E+04</totfact>
</mgrwt>
</event>
<event>
 5    1  0.3845386E+001  0.9782968E+02  0.7546771E-02  0.1284927E+00
         -2   -1    0    0    0  501 -0.00000000000E+00  0.00000000000E+00  0.12255565886E+03  0.12255565886E+03  0.00000000000E+00 0.  1.
          2   -1    0    0  501    0  0.00000000000E+00 -0.00000000000E+00 -0.19523059071E+02  0.19523059071E+02  0.00000000000E+00 0. -1.
         23    2    1    2    0    0  0.00000000000E+00  0.00000000000E+00  0.10303259979E+03  0.14207871793E+03  0.97829675814E+02 0.  0.
          2    1    3    3  502    0  0.22332780836E+02 -0.40378326448E+02  0.75091094524E+02  0.88135321088E+02  0.00000000000E+00 0. -1.
         -2    1    3    3    0  502 -0.22332780836E+02  0.40378326448E+02  0.27941505266E+02  0.53943396845E+02  0.00000000000E+00 0.  1.
<mgrwt>
<rscale>  0 0.97829676E+02</rscale>
<asrwt>0</asrwt>
<pdfrwt beam="2">  1        2 0.30035476E-02 0.97829676E+02</pdfrwt>
<pdfrwt beam="1">  1       -2 0.18854716E-01 0.97829676E+02</pdfrwt>
<totfact> 0.62751860E+04</totfact>
</mgrwt>
</event>
<event>
 5    1  0.3845386E+001  0.9034448E+02  0.7546771E-02  0.1302020E+00
         -4   -1    0    0    0  501 -0.00000000000E+00  0.00000000000E+00  0.16407763844E+02  0.16407763844E+02  0.00000000000E+00 0.  1.
          4   -1    0    0  501    0  0.00000000000E+00 -0.00000000000E+00 -0.12436375924E+03  0.12436375924E+03  0.00000000000E+00 0. -1.
         23    2    1    2    0    0  0.00000000000E+00  0.00000000000E+00 -0.10795599539E+03  0.14077152308E+03  0.90344478354E+02 0.  0.
          2    1    3    3  502    0  0.29780992789E+01 -0.41202263792E+02 -0.82456002311E+02  0.92225202271E+02  0.00000000000E+00 0. -1.
         -2    1    3    3    0  502 -0.29780992789E+01  0.41202263792E+02 -0.25499993083E+02  0.48546320809E+02  0.00000000000E+00 0.  1.
<mgrwt>
<rscale>  0 0.90344478E+02</rscale>
<asrwt>0</asrwt>
<pdfrwt beam="2">  1        4 0.19132886E-01 0.90344478E+02</pdfrwt>
<pdfrwt beam="1">  1       -4 0.25242713E-02 0.90344478E+02</pdfrwt>
<totfact> 0.24747697E+04</totfact>
</mgrwt>
</event>
<event>
 5    1  0.3845386E+001  0.9518725E+02  0.7546771E-02  0.1290755E+00
         -4   -1    0    0    0  501 -0.00000000000E+00  0.00000000000E+00  0.94040596161E+02  0.94040596161E+02  0.00000000000E+00 0.  1.
          4   -1    0    0  501    0  0.00000000000E+00 -0.00000000000E+00 -0.24086972622E+02  0.24086972622E+02  0.00000000000E+00 0. -1.
         23    2    1    2    0    0  0.00000000000E+00  0.00000000000E+00  0.69953623538E+02  0.11812756878E+03  0.95187252615E+02 0.  0.
          2    1    3    3  502    0 -0.23916593000E+02  0.38072087577E+02  0.15605013690E+02  0.47592055277E+02  0.00000000000E+00 0. -1.
         -2    1    3    3    0  502  0.23916593000E+02 -0.38072087577E+02  0.54348609848E+02  0.70535513506E+02  0.00000000000E+00 0.  1.
<mgrwt>
<rscale>  0 0.95187253E+02</rscale>
<asrwt>0</asrwt>
<pdfrwt beam="2">  1        4 0.37056881E-02 0.95187253E+02</pdfrwt>
<pdfrwt beam="1">  1       -4 0.14467784E-01 0.95187253E+02</pdfrwt>
<totfact> 0.22580107E+04</totfact>
</mgrwt>
</event>
<event>
 5    1  0.3845386E+001  0.8923631E+02  0.7546771E-02  0.1304712E+00
         -1   -1    0    0    0  501 -0.00000000000E+00  0.00000000000E+00  0.15372105791E+01  0.15372105791E+01  0.00000000000E+00 0.  1.
          1   -1    0    0  501    0  0.00000000000E+00 -0.00000000000E+00 -0.12950600021E+04  0.12950600021E+04  0.00000000000E+00 0. -1.
         23    2    1    2    0    0  0.00000000000E+00  0.00000000000E+00 -0.12935227915E+04  0.12965972127E+04  0.89236314038E+02 0.  0.
          2    1    3    3  502    0  0.10485076496E+02 -0.18085564897E+02 -0.12194978056E+04  0.12196769746E+04  0.00000000000E+00 0. -1.
         -2    1    3    3    0  502 -0.10485076496E+02  0.18085564897E+02 -0.74024985918E+02  0.76920238084E+02  0.00000000000E+00 0.  1.
<mgrwt>
<rscale>  0 0.89236314E+02</rscale>
<asrwt>0</asrwt>
<pdfrwt beam="2">  1        1 0.19924079E+00 0.89236314E+02</pdfrwt>
<pdfrwt beam="1">  1       -1 0.23649300E-03 0.89236314E+02</pdfrwt>
<totfact> 0.12949651E+05</totfact>
</mgrwt>
</event>
<event>
 5    1  0.3845386E+001  0.9101905E+02  0.7546771E-02  0.1300403E+00
          1   -1    0    0  501    0  0.00000000000E+00  0.00000000000E+00  0.19565225617E+02  0.19565225617E+02  0.00000000000E+00 0. -1.
         -1   -1    0    0    0  501 -0.00000000000E+00 -0.00000000000E+00 -0.10585703832E+03  0.10585703832E+03  0.00000000000E+00 0.  1.
         23    2    1    2    0    0  0.00000000000E+00  0.00000000000E+00 -0.86291812707E+02  0.12542226394E+03  0.91019049388E+02 0.  0.
          2    1    3    3  502    0 -0.32151906355E+02  0.31529220074E+02 -0.52211289261E+02  0.68948209020E+02  0.00000000000E+00 0. -1.
         -2    1    3    3    0  502  0.32151906355E+02 -0.31529220074E+02 -0.34080523446E+02  0.56474054920E+02  0.00000000000E+00 0.  1.
<mgrwt>
<rscale>  0 0.91019049E+02</rscale>
<asrwt>0</asrwt>
<pdfrwt beam="1">  1        1 0.30100347E-02 0.91019049E+02</pdfrwt>
<pdfrwt beam="2">  1       -1 0.16285698E-01 0.91019049E+02</pdfrwt>
<totfact> 0.80862621E+04</totfact>
</mgrwt>
</event>
<event>
 5    1  0.3845386E+001  0.9158381E+02  0.7546771E-02  0.1299061E+00
         -2   -1    0    0    0  501 -0.00000000000E+00  0.00000000000E+00  0.23439110692E+01  0.23439110692E+01  0.00000000000E+00 0.  1.
          2   -1    0    0  501    0  0.00000000000E+00 -0.00000000000E+00 -0.89461516776E+03  0.89461516776E+03  0.00000000000E+00 0. -1.
         23    2    1    2    0    0  0.00000000000E+00  0.00000000000E+00 -0.89227125670E+03  0.89695907883E+03  0.91583806306E+02 0.  0.
          2    1    3    3  502    0 -0.62056001105E+01 -0.30836645622E+02 -0.77206529198E+03  0.77270578053E+03  0.00000000000E+00 0. -1.
         -2    1    3    3    0  502  0.62056001105E+01  0.30836645622E+02 -0.12020596471E+03  0.12425329830E+03  0.00000000000E+00 0.  1.
<mgrwt>
<rscale>  0 0.91583806E+02</rscale>
<asrwt>0</asrwt>
<pdfrwt beam="2">  1        2 0.13763315E+00 0.91583806E+02</pdfrwt>
<pdfrwt beam="1">  1       -2 0.36060159E-03 0.91583806E+02</pdfrwt>
<totfact> 0.24488143E+05</totfact>
</mgrwt>
</event>
<event>
 5    1  0.3845386E+001  0.8890067E+02  0.7546771E-02  0.1305536E+00
          1   -1    0    0  501    0  0.00000000000E+00  0.00000000000E+00  0.82998351660E+02  0.82998351660E+02  0.00000000000E+00 0. -1.
         -1   -1    0    0    0  501 -0.00000000000E+00 -0.00000000000E+00 -0.23805681515E+02  0.23805681515E+02  0.00000000000E+00 0.  1.
         23    2    1    2    0    0  0.00000000000E+00  0.00000000000E+00  0.59192670145E+02  0.10680403318E+03  0.88900670997E+02 0.  0.
          2    1    3    3  502    0  0.23665602812E+02  0.14292360847E+02  0.71412511717E+02  0.76577275773E+02  0.00000000000E+00 0. -1.
         -2    1    3    3    0  502 -0.23665602812E+02 -0.14292360847E+02 -0.12219841572E+02  0.30226757403E+02  0.00000000000E+00 0.  1.
<mgrwt>
<rscale>  0 0.88900671E+02</rscale>
<asrwt>0</asrwt>
<pdfrwt beam="1">  1        1 0.12768977E-01 0.88900671E+02</pdfrwt>
<pdfrwt beam="2">  1       -1 0.36624126E-02 0.88900671E+02</pdfrwt>
<totfact> 0.10858645E+05</totfact>
</mgrwt>
</event>
<event>
 5    1  0.3845386E+001  0.8983403E+02  0.7546771E-02  0.1303254E+00
         -3   -1    0    0    0  501 -0.00000000000E+00  0.00000000000E+00  0.12946898837E+03  0.12946898837E+03  0.00000000000E+00 0.  1.
          3   -1    0    0  501    0  0.00000000000E+00 -0.00000000000E+00 -0.15583177075E+02  0.15583177075E+02  0.00000000000E+00 0. -1.
         23    2    1    2    0    0  0.00000000000E+00  0.00000000000E+00  0.11388581130E+03  0.14505216545E+03  0.89834028554E+02 0.  0.
          2    1    3    3  502    0 -0.14492285339E+02 -0.33834780001E+02  0.15375950249E+02  0.39890331136E+02  0.00000000000E+00 0. -1.
         -2    1    3    3    0  502  0.14492285339E+02  0.33834780001E+02  0.98509861048E+02  0.10516183431E+03  0.00000000000E+00 0.  1.
<mgrwt>
<rscale>  0 0.89834029E+02</rscale>
<asrwt>0</asrwt>
<pdfrwt beam="2">  1        3 0.23974120E-02 0.89834029E+02</pdfrwt>
<pdfrwt beam="1">  1       -3 0.19918305E-01 0.89834029E+02</pdfrwt>
<totfact> 0.32907444E+04</totfact>
</mgrwt>
</event>
<event>
 5    1  0.3845386E+001  0.9130118E+02  0.7546771E-02  0.1299731E+00
          1   -1    0    0  501    0  0.00000000000E+00  0.00000000000E+00  0.26746526896E+03  0.26746526896E+03  0.00000000000E+00 0. -1.
         -1   -1    0    0    0  501 -0.00000000000E+00 -0.00000000000E+00 -0.77915768444E+01  0.77915768444E+01  0.00000000000E+00 0.  1.
         23    2    1    2    0    0  0.00000000000E+00  0.00000000000E+00  0.25967369211E+03  0.27525684580E+03  0.91301176253E+02 0.  0.
          2    1    3    3  502    0 -0.16005433134E+02  0.17472062368E+02  0.24747402251E+03  0.24860578969E+03  0.00000000000E+00 0. -1.
         -2    1    3    3    0  502  0.16005433134E+02 -0.17472062368E+02  0.12199669605E+02  0.26651056108E+02  0.00000000000E+00 0.  1.
<mgrwt>
<rscale>  0 0.91301176E+02</rscale>
<asrwt>0</asrwt>
<pdfrwt beam="1">  1        1 0.41148496E-01 0.91301176E+02</pdfrwt>
<pdfrwt beam="2">  1       -1 0.11987043E-02 0.91301176E+02</pdfrwt>
<totfact> 0.12485623E+05</totfact>
</mgrwt>
</event>
<event>
 5    1  0.3845386E+001  0.9084776E+02  0.7546771E-02  0.1300812E+00
          2   -1    0    0  501    0  0.00000000000E+00  0.00000000000E+00  0.10391372680E+04  0.10391372680E+04  0.00000000000E+00 0. -1.
         -2   -1    0    0    0  501 -0.00000000000E+00 -0.00000000000E+00 -0.19856174110E+01  0.19856174110E+01  0.00000000000E+00 0.  1.
         23    2    1    2    0    0  0.00000000000E+00  0.00000000000E+00  0.10371516505E+04  0.10411228854E+04  0.90847763906E+02 0.  0.
          2    1    3    3  502    0  0.74710095721E+00 -0.28823467096E+02  0.92081960712E+03  0.92127091524E+03  0.00000000000E+00 0. -1.
         -2    1    3    3    0  502 -0.74710095721E+00  0.28823467096E+02  0.11633204343E+03  0.11985197013E+03  0.00000000000E+00 0.  1.
<mgrwt>
<rscale>  0 0.90847764E+02</rscale>
<asrwt>0</asrwt>
<pdfrwt beam="1">  1        2 0.15986684E+00 0.90847764E+02</pdfrwt>
<pdfrwt beam="2">  1       -2 0.30548043E-03 0.90847764E+02</pdfrwt>
<totfact> 0.25269018E+05</totfact>
</mgrwt>
</event>
<event>
 5    1  0.3845386E+001  0.9173634E+02  0.7546771E-02  0.1298701E+00
         -2   -1    0    0    0  501 -0.00000000000E+00  0.00000000000E+00  0.44077353688E+03  0.44077353688E+03  0.00000000000E+00 0. -1.
          2   -1    0    0  501    0  0.00000000000E+00 -0.00000000000E+00 -0.47731750375E+01  0.47731750375E+01  0.00000000000E+00 0.  1.
         23    2    1    2    0    0  0.00000000000E+00  0.00000000000E+00  0.43600036184E+03  0.44554671192E+03  0.91736344890E+02 0.  0.
          2    1    3    3  502    0 -0.15021195676E+02  0.23406996410E+02  0.39514860303E+03  0.39612616965E+03  0.00000000000E+00 0. -1.
         -2    1    3    3    0  502  0.15021195676E+02 -0.23406996410E+02  0.40851758810E+02  0.49420542271E+02  0.00000000000E+00 0.  1.
<mgrwt>
<rscale>  0 0.91736345E+02</rscale>
<asrwt>0</asrwt>
<pdfrwt beam="2">  1        2 0.73433497E-03 0.91736345E+02</pdfrwt>
<pdfrwt beam="1">  1       -2 0.67811281E-01 0.91736345E+02</pdfrwt>
<totfact> 0.39269734E+04</totfact>
</mgrwt>
</event>
<event>
 5    1  0.3845386E+001  0.9166619E+02  0.7546771E-02  0.1298866E+00
         -2   -1    0    0    0  501 -0.00000000000E+00  0.00000000000E+00  0.72927950532E+02  0.72927950532E+02  0.00000000000E+00 0.  1.
          2   -1    0    0  501    0  0.00000000000E+00 -0.00000000000E+00 -0.28804764329E+02  0.28804764329E+02  0.00000000000E+00 0. -1.
         23    2    1    2    0    0  0.00000000000E+00  0.00000000000E+00  0.44123186203E+02  0.10173271486E+03  0.91666186308E+02 0.  0.
          2    1    3    3  502    0  0.75249926206E+01 -0.33319385042E+02 -0.11853548567E+02  0.36156791162E+02  0.00000000000E+00 0. -1.
         -2    1    3    3    0  502 -0.75249926206E+01  0.33319385042E+02  0.55976734770E+02  0.65575923699E+02  0.00000000000E+00 0.  1.
<mgrwt>
<rscale>  0 0.91666186E+02</rscale>
<asrwt>0</asrwt>
<pdfrwt beam="2">  1        2 0.44315022E-02 0.91666186E+02</pdfrwt>
<pdfrwt beam="1">  1       -2 0.11219685E-01 0.91666186E+02</pdfrwt>
<totfact> 0.86120560E+04</totfact>
</mgrwt>
</event>
<event>
 5    1  0.3845386E+001  0.1017314E+03  0.7546771E-02  0.1276697E+00
          1   -1    0    0  501    0  0.00000000000E+00  0.00000000000E+00  0.46399384209E+02  0.46399384209E+02  0.00000000000E+00 0. -1.
         -1   -1    0    0    0  501 -0.00000000000E+00 -0.00000000000E+00 -0.55761883692E+02  0.55761883692E+02  0.00000000000E+00 0.  1.
         23    2    1    2    0    0  0.00000000000E+00  0.00000000000E+00 -0.93624994832E+01  0.10216126790E+03  0.10173135339E+03 0.  0.
          2    1    3    3  502    0 -0.38101553815E+02  0.22089707214E+02  0.20874940001E+02  0.48738554430E+02  0.00000000000E+00 0. -1.
         -2    1    3    3    0  502  0.38101553815E+02 -0.22089707214E+02 -0.30237439484E+02  0.53422713470E+02  0.00000000000E+00 0.  1.
<mgrwt>
<rscale>  0 0.10173135E+03</rscale>
<asrwt>0</asrwt>
<pdfrwt beam="1">  1        1 0.71383668E-02 0.10173135E+03</pdfrwt>
<pdfrwt beam="2">  1       -1 0.85787513E-02 0.10173135E+03</pdfrwt>
<totfact> 0.67988860E+04</totfact>
</mgrwt>
</event>
<event>
 5    1  0.3845386E+001  0.9070899E+02  0.7546771E-02  0.1301144E+00
          1   -1    0    0  501    0  0.00000000000E+00  0.00000000000E+00  0.30185470286E+02  0.30185470286E+02  0.00000000000E+00 0. -1.
         -1   -1    0    0    0  501 -0.00000000000E+00 -0.00000000000E+00 -0.68146365486E+02  0.68146365486E+02  0.00000000000E+00 0.  1.
         23    2    1    2    0    0  0.00000000000E+00  0.00000000000E+00 -0.37960895200E+02  0.98331835772E+02  0.90708987216E+02 0.  0.
          2    1    3    3  502    0  0.28404529262E+02  0.83229383626E+01  0.18272275333E+02  0.34784545871E+02  0.00000000000E+00 0. -1.
         -2    1    3    3    0  502 -0.28404529262E+02 -0.83229383626E+01 -0.56233170533E+02  0.63547289901E+02  0.00000000000E+00 0.  1.
<mgrwt>
<rscale>  0 0.90708987E+02</rscale>
<asrwt>0</asrwt>
<pdfrwt beam="1">  1        1 0.46439185E-02 0.90708987E+02</pdfrwt>
<pdfrwt beam="2">  1       -1 0.10484056E-01 0.90708987E+02</pdfrwt>
<totfact> 0.88060165E+04</totfact>
</mgrwt>
</event>
<event>
 5    1  0.3845386E+001  0.9168795E+02  0.7546771E-02  0.1298815E+00
         -1   -1    0    0    0  501 -0.00000000000E+00  0.00000000000E+00  0.18495411415E+02  0.18495411415E+02  0.00000000000E+00 0.  1.
          1   -1    0    0  501    0  0.00000000000E+00 -0.00000000000E+00 -0.11363197564E+03  0.11363197564E+03  0.00000000000E+00 0. -1.
         23    2    1    2    0    0  0.00000000000E+00  0.00000000000E+00 -0.95136564222E+02  0.13212738705E+03  0.91687952084E+02 0.  0.
          2    1    3    3  502    0  0.10009477319E+02 -0.44089468953E+02 -0.36631516239E+02  0.58188821011E+02  0.00000000000E+00 0.  1.
         -2    1    3    3    0  502 -0.10009477319E+02  0.44089468953E+02 -0.58505047984E+02  0.73938566042E+02  0.00000000000E+00 0. -1.
<mgrwt>
<rscale>  0 0.91687952E+02</rscale>
<asrwt>0</asrwt>
<pdfrwt beam="2">  1        1 0.17481842E-01 0.91687952E+02</pdfrwt>
<pdfrwt beam="1">  1       -1 0.28454479E-02 0.91687952E+02</pdfrwt>
<totfact> 0.10511963E+05</totfact>
</mgrwt>
</event>
<event>
 5    1  0.3845386E+001  0.9064458E+02  0.7546771E-02  0.1301298E+00
          3   -1    0    0  501    0  0.00000000000E+00  0.00000000000E+00  0.17647937480E+02  0.17647937480E+02  0.00000000000E+00 0. -1.
         -3   -1    0    0    0  501 -0.00000000000E+00 -0.00000000000E+00 -0.11639376885E+03  0.11639376885E+03  0.00000000000E+00 0.  1.
         23    2    1    2    0    0  0.00000000000E+00  0.00000000000E+00 -0.98745831370E+02  0.13404170633E+03  0.90644579665E+02 0.  0.
          2    1    3    3  502    0  0.26463723920E+02  0.20621458613E+02 -0.43122452548E+01  0.33825562791E+02  0.00000000000E+00 0. -1.
         -2    1    3    3    0  502 -0.26463723920E+02 -0.20621458613E+02 -0.94433586116E+02  0.10021614354E+03  0.00000000000E+00 0.  1.
<mgrwt>
<rscale>  0 0.90644580E+02</rscale>
<asrwt>0</asrwt>
<pdfrwt beam="1">  1        3 0.27150674E-02 0.90644580E+02</pdfrwt>
<pdfrwt beam="2">  1       -3 0.17906733E-01 0.90644580E+02</pdfrwt>
<totfact> 0.32830058E+04</totfact>
</mgrwt>
</event>
<event>
 5    1  0.3845386E+001  0.9104741E+02  0.7546771E-02  0.1300335E+00
         -2   -1    0    0    0  501 -0.00000000000E+00  0.00000000000E+00  0.19148274986E+02  0.19148274986E+02  0.00000000000E+00 0.  1.
          2   -1    0    0  501    0  0.00000000000E+00 -0.00000000000E+00 -0.10822946878E+03  0.10822946878E+03  0.00000000000E+00 0. -1.
         23    2    1    2    0    0  0.00000000000E+00  0.00000000000E+00 -0.89081193798E+02  0.12737774377E+03  0.91047408087E+02 0.  0.
          2    1    3    3  502    0  0.16598657351E+02 -0.21981419269E+02 -0.95248496362E+02  0.99151269674E+02  0.00000000000E+00 0. -1.
         -2    1    3    3    0  502 -0.16598657351E+02  0.21981419269E+02  0.61673025637E+01  0.28226474095E+02  0.00000000000E+00 0.  1.
<mgrwt>
<rscale>  0 0.91047408E+02</rscale>
<asrwt>0</asrwt>
<pdfrwt beam="2">  1        2 0.16650687E-01 0.91047408E+02</pdfrwt>
<pdfrwt beam="1">  1       -2 0.29458885E-02 0.91047408E+02</pdfrwt>
<totfact> 0.12619149E+05</totfact>
</mgrwt>
</event>
<event>
 5    1  0.3845386E+001  0.9639426E+02  0.7546771E-02  0.1288066E+00
         -1   -1    0    0    0  501 -0.00000000000E+00  0.00000000000E+00  0.54438549251E+03  0.54438549251E+03  0.00000000000E+00 0.  1.
          1   -1    0    0  501    0  0.00000000000E+00 -0.00000000000E+00 -0.42671295594E+01  0.42671295594E+01  0.00000000000E+00 0. -1.
         23    2    1    2    0    0  0.00000000000E+00  0.00000000000E+00  0.54011836296E+03  0.54865262207E+03  0.96394261796E+02 0.  0.
          2    1    3    3  502    0  0.79344012089E+01 -0.36538620400E+02  0.96956988245E+02  0.10391671219E+03  0.00000000000E+00 0. -1.
         -2    1    3    3    0  502 -0.79344012089E+01  0.36538620400E+02  0.44316137471E+03  0.44473590988E+03  0.00000000000E+00 0.  1.
<mgrwt>
<rscale>  0 0.96394262E+02</rscale>
<asrwt>0</asrwt>
<pdfrwt beam="2">  1        1 0.65648190E-03 0.96394262E+02</pdfrwt>
<pdfrwt beam="1">  1       -1 0.83751559E-01 0.96394262E+02</pdfrwt>
<totfact> 0.38478627E+04</totfact>
</mgrwt>
</event>
<event>
 5    1  0.3845386E+001  0.9096776E+02  0.7546771E-02  0.1300525E+00
          1   -1    0    0  501    0  0.00000000000E+00  0.00000000000E+00  0.19127190640E+02  0.19127190640E+02  0.00000000000E+00 0. -1.
         -1   -1    0    0    0  501 -0.00000000000E+00 -0.00000000000E+00 -0.10815928963E+03  0.10815928963E+03  0.00000000000E+00 0.  1.
         23    2    1    2    0    0  0.00000000000E+00  0.00000000000E+00 -0.89032098987E+02  0.12728648027E+03  0.90967760271E+02 0.  0.
          2    1    3    3  502    0 -0.72774924939E+01  0.31310849903E+02  0.50957956748E+00  0.32149508394E+02  0.00000000000E+00 0. -1.
         -2    1    3    3    0  502  0.72774924939E+01 -0.31310849903E+02 -0.89541678555E+02  0.95136971873E+02  0.00000000000E+00 0.  1.
<mgrwt>
<rscale>  0 0.90967760E+02</rscale>
<asrwt>0</asrwt>
<pdfrwt beam="1">  1        1 0.29426448E-02 0.90967760E+02</pdfrwt>
<pdfrwt beam="2">  1       -1 0.16639890E-01 0.90967760E+02</pdfrwt>
<totfact> 0.80646048E+04</totfact>
</mgrwt>
</event>
<event>
 5    1  0.3845386E+001  0.9092312E+02  0.7546771E-02  0.1300631E+00
          2   -1    0    0  501    0  0.00000000000E+00  0.00000000000E+00  0.74107655344E+03  0.74107655344E+03  0.00000000000E+00 0. -1.
         -2   -1    0    0    0  501 -0.00000000000E+00 -0.00000000000E+00 -0.27888530137E+01  0.27888530137E+01  0.00000000000E+00 0.  1.
         23    2    1    2    0    0  0.00000000000E+00  0.00000000000E+00  0.73828770042E+03  0.74386540645E+03  0.90923123118E+02 0.  0.
          2    1    3    3  502    0  0.43520752065E+02 -0.76211337248E+01  0.28155623197E+03  0.28500184087E+03  0.00000000000E+00 0. -1.
         -2    1    3    3    0  502 -0.43520752065E+02  0.76211337248E+01  0.45673146845E+03  0.45886356558E+03  0.00000000000E+00 0.  1.
<mgrwt>
<rscale>  0 0.90923123E+02</rscale>
<asrwt>0</asrwt>
<pdfrwt beam="1">  1        2 0.11401162E+00 0.90923123E+02</pdfrwt>
<pdfrwt beam="2">  1       -2 0.42905490E-03 0.90923123E+02</pdfrwt>
<totfact> 0.24193159E+05</totfact>
</mgrwt>
</event>
<event>
 5    1  0.3845386E+001  0.9334410E+02  0.7546771E-02  0.1294950E+00
          2   -1    0    0  501    0  0.00000000000E+00  0.00000000000E+00  0.25809052315E+04  0.25809052315E+04  0.00000000000E+00 0.  1.
         -2   -1    0    0    0  501 -0.00000000000E+00 -0.00000000000E+00 -0.84399855145E+00  0.84399855145E+00  0.00000000000E+00 0. -1.
         23    2    1    2    0    0  0.00000000000E+00  0.00000000000E+00  0.25800612330E+04  0.25817492301E+04  0.93344100550E+02 0.  0.
          2    1    3    3  502    0  0.14845420291E+02  0.29183485910E+02  0.37011598534E+03  0.37156144170E+03  0.00000000000E+00 0. -1.
         -2    1    3    3    0  502 -0.14845420291E+02 -0.29183485910E+02  0.22099452477E+04  0.22101877884E+04  0.00000000000E+00 0.  1.
<mgrwt>
<rscale>  0 0.93344101E+02</rscale>
<asrwt>0</asrwt>
<pdfrwt beam="1">  1        2 0.39705603E+00 0.93344101E+02</pdfrwt>
<pdfrwt beam="2">  1       -2 0.12984800E-03 0.93344101E+02</pdfrwt>
<totfact> 0.13217051E+05</totfact>
</mgrwt>
</event>
<event>
 5    1  0.3845386E+001  0.8538148E+02  0.7546771E-02  0.1314438E+00
          2   -1    0    0  501    0  0.00000000000E+00  0.00000000000E+00  0.81930704288E+03  0.81930704288E+03  0.00000000000E+00 0. -1.
         -2   -1    0    0    0  501 -0.00000000000E+00 -0.00000000000E+00 -0.22244399985E+01  0.22244399985E+01  0.00000000000E+00 0.  1.
         23    2    1    2    0    0  0.00000000000E+00  0.00000000000E+00  0.81708260288E+03  0.82153148287E+03  0.85381481768E+02 0.  0.
          2    1    3    3  502    0 -0.23878158377E+02  0.12035657931E+02  0.72874596699E+03  0.72923638686E+03  0.00000000000E+00 0. -1.
         -2    1    3    3    0  502  0.23878158377E+02 -0.12035657931E+02  0.88336635884E+02  0.92295096016E+02  0.00000000000E+00 0.  1.
<mgrwt>
<rscale>  0 0.85381482E+02</rscale>
<asrwt>0</asrwt>
<pdfrwt beam="1">  1        2 0.12604700E+00 0.85381482E+02</pdfrwt>
<pdfrwt beam="2">  1       -2 0.34222219E-03 0.85381482E+02</pdfrwt>
<totfact> 0.29079066E+05</totfact>
</mgrwt>
</event>
<event>
 5    1  0.3845386E+001  0.1127298E+03  0.7546771E-02  0.1255597E+00
          1   -1    0    0  501    0  0.00000000000E+00  0.00000000000E+00  0.20646481263E+04  0.20646481263E+04  0.00000000000E+00 0. -1.
         -1   -1    0    0    0  501 -0.00000000000E+00 -0.00000000000E+00 -0.15387619587E+01  0.15387619587E+01  0.00000000000E+00 0.  1.
         23    2    1    2    0    0  0.00000000000E+00  0.00000000000E+00  0.20631093644E+04  0.20661868883E+04  0.11272980076E+03 0.  0.
          2    1    3    3  502    0  0.15161028891E+02 -0.27798800293E+02  0.18862233348E+04  0.18864890932E+04  0.00000000000E+00 0. -1.
         -2    1    3    3    0  502 -0.15161028891E+02  0.27798800293E+02  0.17688602954E+03  0.17969779503E+03  0.00000000000E+00 0.  1.
<mgrwt>
<rscale>  0 0.11272980E+03</rscale>
<asrwt>0</asrwt>
<pdfrwt beam="1">  1        1 0.31763596E+00 0.11272980E+03</pdfrwt>
<pdfrwt beam="2">  1       -1 0.23673426E-03 0.11272980E+03</pdfrwt>
<totfact> 0.42944668E+04</totfact>
</mgrwt>
</event>
<event>
 5    1  0.3845386E+001  0.9355855E+02  0.7546771E-02  0.1294456E+00
          2   -1    0    0  501    0  0.00000000000E+00  0.00000000000E+00  0.20867024218E+04  0.20867024218E+04  0.00000000000E+00 0. -1.
         -2   -1    0    0    0  501 -0.00000000000E+00 -0.00000000000E+00 -0.10486884022E+01  0.10486884022E+01  0.00000000000E+00 0.  1.
         23    2    1    2    0    0  0.00000000000E+00  0.00000000000E+00  0.20856537334E+04  0.20877511103E+04  0.93558551265E+02 0.  0.
          2    1    3    3  502    0 -0.43161496822E+02  0.17592823137E+02  0.11317466784E+04  0.11327060370E+04  0.00000000000E+00 0. -1.
         -2    1    3    3    0  502  0.43161496822E+02 -0.17592823137E+02  0.95390705508E+03  0.95504507327E+03  0.00000000000E+00 0.  1.
<mgrwt>
<rscale>  0 0.93558551E+02</rscale>
<asrwt>0</asrwt>
<pdfrwt beam="1">  1        2 0.32102782E+00 0.93558551E+02</pdfrwt>
<pdfrwt beam="2">  1       -2 0.16133835E-03 0.93558551E+02</pdfrwt>
<totfact> 0.17627912E+05</totfact>
</mgrwt>
</event>
<event>
 5    1  0.3845386E+001  0.9183768E+02  0.7546771E-02  0.1298462E+00
          1   -1    0    0  501    0  0.00000000000E+00  0.00000000000E+00  0.38296440360E+03  0.38296440360E+03  0.00000000000E+00 0. -1.
         -1   -1    0    0    0  501 -0.00000000000E+00 -0.00000000000E+00 -0.55058380044E+01  0.55058380044E+01  0.00000000000E+00 0.  1.
         23    2    1    2    0    0  0.00000000000E+00  0.00000000000E+00  0.37745856560E+03  0.38847024161E+03  0.91837682194E+02 0.  0.
          2    1    3    3  502    0 -0.25006819548E+02  0.36147153918E+02  0.24493885915E+03  0.24885136625E+03  0.00000000000E+00 0. -1.
         -2    1    3    3    0  502  0.25006819548E+02 -0.36147153918E+02  0.13251970644E+03  0.13961887536E+03  0.00000000000E+00 0.  1.
<mgrwt>
<rscale>  0 0.91837682E+02</rscale>
<asrwt>0</asrwt>
<pdfrwt beam="1">  1        1 0.58917580E-01 0.91837682E+02</pdfrwt>
<pdfrwt beam="2">  1       -1 0.84705230E-03 0.91837682E+02</pdfrwt>
<totfact> 0.13136845E+05</totfact>
</mgrwt>
</event>
<event>
 5    1  0.3845386E+001  0.9739780E+02  0.7546771E-02  0.1285865E+00
         -2   -1    0    0    0  501 -0.00000000000E+00  0.00000000000E+00  0.13049918544E+03  0.13049918544E+03  0.00000000000E+00 0.  1.
          2   -1    0    0  501    0  0.00000000000E+00 -0.00000000000E+00 -0.18173161235E+02  0.18173161235E+02  0.00000000000E+00 0. -1.
         23    2    1    2    0    0  0.00000000000E+00  0.00000000000E+00  0.11232602420E+03  0.14867234667E+03  0.97397797471E+02 0.  0.
          2    1    3    3  502    0 -0.15541374032E+02  0.22158428990E+02 -0.56354243083E+01  0.27645764400E+02  0.00000000000E+00 0. -1.
         -2    1    3    3    0  502  0.15541374032E+02 -0.22158428990E+02  0.11796144851E+03  0.12102658227E+03  0.00000000000E+00 0.  1.
<mgrwt>
<rscale>  0 0.97397797E+02</rscale>
<asrwt>0</asrwt>
<pdfrwt beam="2">  1        2 0.27958710E-02 0.97397797E+02</pdfrwt>
<pdfrwt beam="1">  1       -2 0.20076797E-01 0.97397797E+02</pdfrwt>
<totfact> 0.62112867E+04</totfact>
</mgrwt>
</event>
<event>
 5    1  0.3845386E+001  0.9060765E+02  0.7546771E-02  0.1301387E+00
          2   -1    0    0  501    0  0.00000000000E+00  0.00000000000E+00  0.18015348128E+03  0.18015348128E+03  0.00000000000E+00 0. -1.
         -2   -1    0    0    0  501 -0.00000000000E+00 -0.00000000000E+00 -0.11392710593E+02  0.11392710593E+02  0.00000000000E+00 0.  1.
         23    2    1    2    0    0  0.00000000000E+00  0.00000000000E+00  0.16876077068E+03  0.19154619187E+03  0.90607648121E+02 0.  0.
          2    1    3    3  502    0 -0.22790589542E+02 -0.29188325388E+02  0.13955046813E+03  0.14438040887E+03  0.00000000000E+00 0. -1.
         -2    1    3    3    0  502  0.22790589542E+02  0.29188325388E+02  0.29210302555E+02  0.47165783000E+02  0.00000000000E+00 0.  1.
<mgrwt>
<rscale>  0 0.90607648E+02</rscale>
<asrwt>0</asrwt>
<pdfrwt beam="1">  1        2 0.27715918E-01 0.90607648E+02</pdfrwt>
<pdfrwt beam="2">  1       -2 0.17527248E-02 0.90607648E+02</pdfrwt>
<totfact> 0.15152984E+05</totfact>
</mgrwt>
</event>
<event>
 5    1  0.3845386E+001  0.9134873E+02  0.7546771E-02  0.1299618E+00
          2   -1    0    0  501    0  0.00000000000E+00  0.00000000000E+00  0.12595995285E+02  0.12595995285E+02  0.00000000000E+00 0. -1.
         -2   -1    0    0    0  501 -0.00000000000E+00 -0.00000000000E+00 -0.16561989574E+03  0.16561989574E+03  0.00000000000E+00 0.  1.
         23    2    1    2    0    0  0.00000000000E+00  0.00000000000E+00 -0.15302390046E+03  0.17821589103E+03  0.91348725791E+02 0.  0.
          2    1    3    3  502    0  0.41145338912E+02  0.17598846564E+02 -0.94338153383E+02  0.10441429738E+03  0.00000000000E+00 0. -1.
         -2    1    3    3    0  502 -0.41145338912E+02 -0.17598846564E+02 -0.58685747075E+02  0.73801593644E+02  0.00000000000E+00 0.  1.
<mgrwt>
<rscale>  0 0.91348726E+02</rscale>
<asrwt>0</asrwt>
<pdfrwt beam="1">  1        2 0.19378456E-02 0.91348726E+02</pdfrwt>
<pdfrwt beam="2">  1       -2 0.25479981E-01 0.91348726E+02</pdfrwt>
<totfact> 0.66990975E+04</totfact>
</mgrwt>
</event>
<event>
 5    1  0.3845386E+001  0.9215205E+02  0.7546771E-02  0.1297722E+00
         -2   -1    0    0    0  501 -0.00000000000E+00  0.00000000000E+00  0.22669683901E+03  0.22669683901E+03  0.00000000000E+00 0.  1.
          2   -1    0    0  501    0  0.00000000000E+00 -0.00000000000E+00 -0.93649301645E+01  0.93649301645E+01  0.00000000000E+00 0. -1.
         23    2    1    2    0    0  0.00000000000E+00  0.00000000000E+00  0.21733190885E+03  0.23606176918E+03  0.92152049698E+02 0.  0.
          2    1    3    3  502    0  0.42432761196E+02 -0.16594081488E+02  0.91085962314E+02  0.10184574264E+03  0.00000000000E+00 0. -1.
         -2    1    3    3    0  502 -0.42432761196E+02  0.16594081488E+02  0.12624594654E+03  0.13421602654E+03  0.00000000000E+00 0.  1.
<mgrwt>
<rscale>  0 0.92152050E+02</rscale>
<asrwt>0</asrwt>
<pdfrwt beam="2">  1        2 0.14407587E-02 0.92152050E+02</pdfrwt>
<pdfrwt beam="1">  1       -2 0.34876432E-01 0.92152050E+02</pdfrwt>
<totfact> 0.57314375E+04</totfact>
</mgrwt>
</event>
<event>
 5    1  0.3845386E+001  0.9096490E+02  0.7546771E-02  0.1300532E+00
         -3   -1    0    0    0  501 -0.00000000000E+00  0.00000000000E+00  0.27923205085E+03  0.27923205085E+03  0.00000000000E+00 0.  1.
          3   -1    0    0  501    0  0.00000000000E+00 -0.00000000000E+00 -0.74083655609E+01  0.74083655609E+01  0.00000000000E+00 0. -1.
         23    2    1    2    0    0  0.00000000000E+00  0.00000000000E+00  0.27182368529E+03  0.28664041642E+03  0.90964896725E+02 0.  0.
          2    1    3    3  502    0 -0.22533297387E+02 -0.22732451560E+02  0.34089564650E+02  0.46761226064E+02  0.00000000000E+00 0. -1.
         -2    1    3    3    0  502  0.22533297387E+02  0.22732451560E+02  0.23773412064E+03  0.23987919035E+03  0.00000000000E+00 0.  1.
<mgrwt>
<rscale>  0 0.90964897E+02</rscale>
<asrwt>0</asrwt>
<pdfrwt beam="2">  1        3 0.11397488E-02 0.90964897E+02</pdfrwt>
<pdfrwt beam="1">  1       -3 0.42958769E-01 0.90964897E+02</pdfrwt>
<totfact> 0.24704628E+04</totfact>
</mgrwt>
</event>
<event>
 5    1  0.3845386E+001  0.9169275E+02  0.7546771E-02  0.1298803E+00
          3   -1    0    0  501    0  0.00000000000E+00  0.00000000000E+00  0.54555086236E+02  0.54555086236E+02  0.00000000000E+00 0. -1.
         -3   -1    0    0    0  501 -0.00000000000E+00 -0.00000000000E+00 -0.38527850684E+02  0.38527850684E+02  0.00000000000E+00 0.  1.
         23    2    1    2    0    0  0.00000000000E+00  0.00000000000E+00  0.16027235552E+02  0.93082936920E+02  0.91692752528E+02 0.  0.
          2    1    3    3  502    0  0.43090497885E+02  0.52435745333E+01  0.22988680118E+02  0.49119909359E+02  0.00000000000E+00 0. -1.
         -2    1    3    3    0  502 -0.43090497885E+02 -0.52435745333E+01 -0.69614445661E+01  0.43963027561E+02  0.00000000000E+00 0.  1.
<mgrwt>
<rscale>  0 0.91692753E+02</rscale>
<asrwt>0</asrwt>
<pdfrwt beam="1">  1        3 0.83930902E-02 0.91692753E+02</pdfrwt>
<pdfrwt beam="2">  1       -3 0.59273617E-02 0.91692753E+02</pdfrwt>
<totfact> 0.34654942E+04</totfact>
</mgrwt>
</event>
<event>
 5    1  0.3845386E+001  0.9181595E+02  0.7546771E-02  0.1298513E+00
         -1   -1    0    0    0  501 -0.00000000000E+00  0.00000000000E+00  0.47433275209E+02  0.47433275209E+02  0.00000000000E+00 0. -1.
          1   -1    0    0  501    0  0.00000000000E+00 -0.00000000000E+00 -0.44431723764E+02  0.44431723764E+02  0.00000000000E+00 0.  1.
         23    2    1    2    0    0  0.00000000000E+00  0.00000000000E+00  0.30015514441E+01  0.91864998973E+02  0.91815950277E+02 0.  0.
          2    1    3    3  502    0  0.21539131711E+02  0.22179215296E+02  0.35455469145E+02  0.47041918310E+02  0.00000000000E+00 0. -1.
         -2    1    3    3    0  502 -0.21539131711E+02 -0.22179215296E+02 -0.32453917700E+02  0.44823080663E+02  0.00000000000E+00 0.  1.
<mgrwt>
<rscale>  0 0.91815950E+02</rscale>
<asrwt>0</asrwt>
<pdfrwt beam="2">  1        1 0.68356498E-02 0.91815950E+02</pdfrwt>
<pdfrwt beam="1">  1       -1 0.72974270E-02 0.91815950E+02</pdfrwt>
<totfact> 0.90322003E+04</totfact>
</mgrwt>
</event>
<event>
 5    1  0.3845386E+001  0.8990964E+02  0.7546771E-02  0.1303071E+00
          4   -1    0    0  501    0  0.00000000000E+00  0.00000000000E+00  0.18424062131E+03  0.18424062131E+03  0.00000000000E+00 0. -1.
         -4   -1    0    0    0  501 -0.00000000000E+00 -0.00000000000E+00 -0.10969003244E+02  0.10969003244E+02  0.00000000000E+00 0.  1.
         23    2    1    2    0    0  0.00000000000E+00  0.00000000000E+00  0.17327161807E+03  0.19520962455E+03  0.89909642929E+02 0.  0.
          2    1    3    3  502    0  0.12481205829E+02  0.24075309218E+02  0.16448191609E+03  0.16670243469E+03  0.00000000000E+00 0. -1.
         -2    1    3    3    0  502 -0.12481205829E+02 -0.24075309218E+02  0.87897019778E+01  0.28507189861E+02  0.00000000000E+00 0.  1.
<mgrwt>
<rscale>  0 0.89909643E+02</rscale>
<asrwt>0</asrwt>
<pdfrwt beam="1">  1        4 0.28344709E-01 0.89909643E+02</pdfrwt>
<pdfrwt beam="2">  1       -4 0.16875391E-02 0.89909643E+02</pdfrwt>
<totfact> 0.22410372E+04</totfact>
</mgrwt>
</event>
<event>
 5    1  0.3845386E+001  0.9108292E+02  0.7546771E-02  0.1300250E+00
          2   -1    0    0  501    0  0.00000000000E+00  0.00000000000E+00  0.55647350511E+02  0.55647350511E+02  0.00000000000E+00 0. -1.
         -2   -1    0    0    0  501 -0.00000000000E+00 -0.00000000000E+00 -0.37270861929E+02  0.37270861929E+02  0.00000000000E+00 0.  1.
         23    2    1    2    0    0  0.00000000000E+00  0.00000000000E+00  0.18376488581E+02  0.92918212440E+02  0.91082923045E+02 0.  0.
          2    1    3    3  502    0 -0.24537469470E+02  0.13811952536E+02  0.45702865973E+02  0.53680624056E+02  0.00000000000E+00 0. -1.
         -2    1    3    3    0  502  0.24537469470E+02 -0.13811952536E+02 -0.27326377392E+02  0.39237588384E+02  0.00000000000E+00 0.  1.
<mgrwt>
<rscale>  0 0.91082923E+02</rscale>
<asrwt>0</asrwt>
<pdfrwt beam="1">  1        2 0.85611309E-02 0.91082923E+02</pdfrwt>
<pdfrwt beam="2">  1       -2 0.57339788E-02 0.91082923E+02</pdfrwt>
<totfact> 0.10426612E+05</totfact>
</mgrwt>
</event>
<event>
 5    1  0.3845386E+001  0.9325162E+02  0.7546771E-02  0.1295163E+00
         -1   -1    0    0    0  501 -0.00000000000E+00  0.00000000000E+00  0.95844622848E+02  0.95844622848E+02  0.00000000000E+00 0.  1.
          1   -1    0    0  501    0  0.00000000000E+00 -0.00000000000E+00 -0.22682190497E+02  0.22682190497E+02  0.00000000000E+00 0. -1.
         23    2    1    2    0    0  0.00000000000E+00  0.00000000000E+00  0.73162432352E+02  0.11852681335E+03  0.93251616469E+02 0.  0.
          2    1    3    3  502    0  0.42765874474E+01 -0.33192883906E+02 -0.46818833989E+01  0.33793146855E+02  0.00000000000E+00 0. -1.
         -2    1    3    3    0  502 -0.42765874474E+01  0.33192883906E+02  0.77844315751E+02  0.84733666490E+02  0.00000000000E+00 0.  1.
<mgrwt>
<rscale>  0 0.93251616E+02</rscale>
<asrwt>0</asrwt>
<pdfrwt beam="2">  1        1 0.34895678E-02 0.93251616E+02</pdfrwt>
<pdfrwt beam="1">  1       -1 0.14745326E-01 0.93251616E+02</pdfrwt>
<totfact> 0.77391069E+04</totfact>
</mgrwt>
</event>
<event>
 5    1  0.3845386E+001  0.9364528E+02  0.7546771E-02  0.1294257E+00
          3   -1    0    0  501    0  0.00000000000E+00  0.00000000000E+00  0.16340249645E+02  0.16340249645E+02  0.00000000000E+00 0. -1.
         -3   -1    0    0    0  501 -0.00000000000E+00 -0.00000000000E+00 -0.13416928358E+03  0.13416928358E+03  0.00000000000E+00 0.  1.
         23    2    1    2    0    0  0.00000000000E+00  0.00000000000E+00 -0.11782903393E+03  0.15050953322E+03  0.93645279396E+02 0.  0.
          2    1    3    3  502    0  0.35826318373E+02 -0.28110548335E+02 -0.41408866104E+02  0.61550160096E+02  0.00000000000E+00 0. -1.
         -2    1    3    3    0  502 -0.35826318373E+02  0.28110548335E+02 -0.76420167831E+02  0.88959373127E+02  0.00000000000E+00 0.  1.
<mgrwt>
<rscale>  0 0.93645279E+02</rscale>
<asrwt>0</asrwt>
<pdfrwt beam="1">  1        3 0.25138846E-02 0.93645279E+02</pdfrwt>
<pdfrwt beam="2">  1       -3 0.20641428E-01 0.93645279E+02</pdfrwt>
<totfact> 0.29087888E+04</totfact>
</mgrwt>
</event>
<event>
 5    1  0.3845386E+001  0.9400445E+02  0.7546771E-02  0.1293434E+00
         -2   -1    0    0    0  501 -0.00000000000E+00  0.00000000000E+00  0.14817009959E+03  0.14817009959E+03  0.00000000000E+00 0.  1.
          2   -1    0    0  501    0  0.00000000000E+00 -0.00000000000E+00 -0.14909953125E+02  0.14909953125E+02  0.00000000000E+00 0. -1.
         23    2    1    2    0    0  0.00000000000E+00  0.00000000000E+00  0.13326014646E+03  0.16308005271E+03  0.94004451796E+02 0.  0.
          2    1    3    3  502    0  0.43509495074E+02  0.25938574773E+01  0.97145262832E+02  0.10647537907E+03  0.00000000000E+00 0. -1.
         -2    1    3    3    0  502 -0.43509495074E+02 -0.25938574773E+01  0.36114883632E+02  0.56604673640E+02  0.00000000000E+00 0.  1.
<mgrwt>
<rscale>  0 0.94004452E+02</rscale>
<asrwt>0</asrwt>
<pdfrwt beam="2">  1        2 0.22938390E-02 0.94004452E+02</pdfrwt>
<pdfrwt beam="1">  1       -2 0.22795399E-01 0.94004452E+02</pdfrwt>
<totfact> 0.64944522E+04</totfact>
</mgrwt>
</event>
<event>
 5    1  0.3845386E+001  0.9155589E+02  0.7546771E-02  0.1299127E+00
         -2   -1    0    0    0  501 -0.00000000000E+00  0.00000000000E+00  0.45226395440E+01  0.45226395440E+01  0.00000000000E+00 0.  1.
          2   -1    0    0  501    0  0.00000000000E+00 -0.00000000000E+00 -0.46336222825E+03  0.46336222825E+03  0.00000000000E+00 0. -1.
         23    2    1    2    0    0  0.00000000000E+00  0.00000000000E+00 -0.45883958871E+03  0.46788486780E+03  0.91555891929E+02 0.  0.
          2    1    3    3  502    0 -0.24029560371E+02  0.34715770465E+02 -0.31983383191E+03  0.32260856238E+03  0.00000000000E+00 0. -1.
         -2    1    3    3    0  502  0.24029560371E+02 -0.34715770465E+02 -0.13900575680E+03  0.14527630542E+03  0.00000000000E+00 0.  1.
<mgrwt>
<rscale>  0 0.91555892E+02</rscale>
<asrwt>0</asrwt>
<pdfrwt beam="2">  1        2 0.71286533E-01 0.91555892E+02</pdfrwt>
<pdfrwt beam="1">  1       -2 0.69579035E-03 0.91555892E+02</pdfrwt>
<totfact> 0.20782511E+05</totfact>
</mgrwt>
</event>
<event>
 5    1  0.3845386E+001  0.1088735E+03  0.7546771E-02  0.1262670E+00
         -2   -1    0    0    0  501 -0.00000000000E+00  0.00000000000E+00  0.18132072122E+03  0.18132072122E+03  0.00000000000E+00 0. -1.
          2   -1    0    0  501    0  0.00000000000E+00 -0.00000000000E+00 -0.16343199085E+02  0.16343199085E+02  0.00000000000E+00 0.  1.
         23    2    1    2    0    0  0.00000000000E+00  0.00000000000E+00  0.16497752214E+03  0.19766392031E+03  0.10887351643E+03 0.  0.
          2    1    3    3  502    0 -0.16998129758E+02 -0.49056944404E+02  0.11220153685E+03  0.12363132727E+03  0.00000000000E+00 0. -1.
         -2    1    3    3    0  502  0.16998129758E+02  0.49056944404E+02  0.52775985283E+02  0.74032593040E+02  0.00000000000E+00 0.  1.
<mgrwt>
<rscale>  0 0.10887352E+03</rscale>
<asrwt>0</asrwt>
<pdfrwt beam="2">  1        2 0.25143384E-02 0.10887352E+03</pdfrwt>
<pdfrwt beam="1">  1       -2 0.27895494E-01 0.10887352E+03</pdfrwt>
<totfact> 0.41305792E+04</totfact>
</mgrwt>
</event>
<event>
 5    1  0.3845386E+001  0.8645893E+02  0.7546771E-02  0.1311661E+00
          2   -1    0    0  501    0  0.00000000000E+00  0.00000000000E+00  0.12079021169E+04  0.12079021169E+04  0.00000000000E+00 0. -1.
         -2   -1    0    0    0  501 -0.00000000000E+00 -0.00000000000E+00 -0.15471341247E+01  0.15471341247E+01  0.00000000000E+00 0.  1.
         23    2    1    2    0    0  0.00000000000E+00  0.00000000000E+00  0.12063549828E+04  0.12094492511E+04  0.86458928618E+02 0.  0.
          2    1    3    3  502    0  0.30468613948E+02 -0.11194500335E+02  0.10025628328E+04  0.10030881751E+04  0.00000000000E+00 0. -1.
         -2    1    3    3    0  502 -0.30468613948E+02  0.11194500335E+02  0.20379215002E+03  0.20636107599E+03  0.00000000000E+00 0.  1.
<mgrwt>
<rscale>  0 0.86458929E+02</rscale>
<asrwt>0</asrwt>
<pdfrwt beam="1">  1        2 0.18583034E+00 0.86458929E+02</pdfrwt>
<pdfrwt beam="2">  1       -2 0.23802160E-03 0.86458929E+02</pdfrwt>
<totfact> 0.28571048E+05</totfact>
</mgrwt>
</event>
<event>
 5    1  0.3845386E+001  0.9096182E+02  0.7546771E-02  0.1300539E+00
         -1   -1    0    0    0  501 -0.00000000000E+00  0.00000000000E+00  0.98231570516E+00  0.98231570516E+00  0.00000000000E+00 0.  1.
          1   -1    0    0  501    0  0.00000000000E+00 -0.00000000000E+00 -0.21057517231E+04  0.21057517231E+04  0.00000000000E+00 0. -1.
         23    2    1    2    0    0  0.00000000000E+00  0.00000000000E+00 -0.21047694074E+04  0.21067340388E+04  0.90961815917E+02 0.  0.
          2    1    3    3  502    0  0.30420339004E+01 -0.27804088029E+02 -0.18830067292E+04  0.18832144496E+04  0.00000000000E+00 0. -1.
         -2    1    3    3    0  502 -0.30420339004E+01  0.27804088029E+02 -0.22176267821E+03  0.22351958913E+03  0.00000000000E+00 0.  1.
<mgrwt>
<rscale>  0 0.90961816E+02</rscale>
<asrwt>0</asrwt>
<pdfrwt beam="2">  1        1 0.32396439E+00 0.90961816E+02</pdfrwt>
<pdfrwt beam="1">  1       -1 0.15112429E-03 0.90961816E+02</pdfrwt>
<totfact> 0.73945201E+04</totfact>
</mgrwt>
</event>
<event>
 5    1  0.3845386E+001  0.9295898E+02  0.7546771E-02  0.1295840E+00
         -2   -1    0    0    0  501 -0.00000000000E+00  0.00000000000E+00  0.15700213076E+03  0.15700213076E+03  0.00000000000E+00 0.  1.
          2   -1    0    0  501    0  0.00000000000E+00 -0.00000000000E+00 -0.13759958349E+02  0.13759958349E+02  0.00000000000E+00 0. -1.
         23    2    1    2    0    0  0.00000000000E+00  0.00000000000E+00  0.14324217242E+03  0.17076208911E+03  0.92958975468E+02 0.  0.
          2    1    3    3  502    0 -0.21231032705E+02 -0.41070882804E+02  0.62855752660E+02  0.78028326949E+02  0.00000000000E+00 0. -1.
         -2    1    3    3    0  502  0.21231032705E+02  0.41070882804E+02  0.80386419755E+02  0.92733762164E+02  0.00000000000E+00 0.  1.
<mgrwt>
<rscale>  0 0.92958975E+02</rscale>
<asrwt>0</asrwt>
<pdfrwt beam="2">  1        2 0.21169168E-02 0.92958975E+02</pdfrwt>
<pdfrwt beam="1">  1       -2 0.24154173E-01 0.92958975E+02</pdfrwt>
<totfact> 0.65397699E+04</totfact>
</mgrwt>
</event>
<event>
 5    1  0.3845386E+001  0.8627963E+02  0.7546771E-02  0.1312120E+00
         -1   -1    0    0    0  501 -0.00000000000E+00  0.00000000000E+00  0.11548014048E+01  0.11548014048E+01  0.00000000000E+00 0.  1.
          1   -1    0    0  501    0  0.00000000000E+00 -0.00000000000E+00 -0.16115702147E+04  0.16115702147E+04  0.00000000000E+00 0. -1.
         23    2    1    2    0    0  0.00000000000E+00  0.00000000000E+00 -0.16104154132E+04  0.16127250161E+04  0.86279627904E+02 0.  0.
          2    1    3    3  502    0  0.90035792296E+01  0.23282019934E+02 -0.14628648119E+04  0.14630777747E+04  0.00000000000E+00 0. -1.
         -2    1    3    3    0  502 -0.90035792296E+01 -0.23282019934E+02 -0.14755060130E+03  0.14964724133E+03  0.00000000000E+00 0.  1.
<mgrwt>
<rscale>  0 0.86279628E+02</rscale>
<asrwt>0</asrwt>
<pdfrwt beam="2">  1        1 0.24793433E+00 0.86279628E+02</pdfrwt>
<pdfrwt beam="1">  1       -1 0.17766143E-03 0.86279628E+02</pdfrwt>
<totfact> 0.11998356E+05</totfact>
</mgrwt>
</event>
<event>
 5    1  0.3845386E+001  0.9140201E+02  0.7546771E-02  0.1299492E+00
          2   -1    0    0  501    0  0.00000000000E+00  0.00000000000E+00  0.64909090646E+03  0.64909090646E+03  0.00000000000E+00 0. -1.
         -2   -1    0    0    0  501 -0.00000000000E+00 -0.00000000000E+00 -0.32177032583E+01  0.32177032583E+01  0.00000000000E+00 0.  1.
         23    2    1    2    0    0  0.00000000000E+00  0.00000000000E+00  0.64587320320E+03  0.65230860972E+03  0.91402011459E+02 0.  0.
          2    1    3    3  502    0  0.12821540369E+02  0.41814443527E+02  0.41754627856E+03  0.41983060194E+03  0.00000000000E+00 0. -1.
         -2    1    3    3    0  502 -0.12821540369E+02 -0.41814443527E+02  0.22832692464E+03  0.23247800778E+03  0.00000000000E+00 0.  1.
<mgrwt>
<rscale>  0 0.91402011E+02</rscale>
<asrwt>0</asrwt>
<pdfrwt beam="1">  1        2 0.99860036E-01 0.91402011E+02</pdfrwt>
<pdfrwt beam="2">  1       -2 0.49503179E-03 0.91402011E+02</pdfrwt>
<totfact> 0.23125934E+05</totfact>
</mgrwt>
</event>
<event>
 5    1  0.3845386E+001  0.9112982E+02  0.7546771E-02  0.1300139E+00
          1   -1    0    0  501    0  0.00000000000E+00  0.00000000000E+00  0.40078241897E+02  0.40078241897E+02  0.00000000000E+00 0. -1.
         -1   -1    0    0    0  501 -0.00000000000E+00 -0.00000000000E+00 -0.51802694204E+02  0.51802694204E+02  0.00000000000E+00 0.  1.
         23    2    1    2    0    0  0.00000000000E+00  0.00000000000E+00 -0.11724452307E+02  0.91880936101E+02  0.91129817496E+02 0.  0.
          2    1    3    3  502    0  0.11565346797E+02  0.31497391129E+02  0.25219089342E+02  0.41974341707E+02  0.00000000000E+00 0. -1.
         -2    1    3    3    0  502 -0.11565346797E+02 -0.31497391129E+02 -0.36943541649E+02  0.49906594394E+02  0.00000000000E+00 0.  1.
<mgrwt>
<rscale>  0 0.91129817E+02</rscale>
<asrwt>0</asrwt>
<pdfrwt beam="1">  1        1 0.61658834E-02 0.91129817E+02</pdfrwt>
<pdfrwt beam="2">  1       -1 0.79696452E-02 0.91129817E+02</pdfrwt>
<totfact> 0.90823023E+04</totfact>
</mgrwt>
</event>
<event>
 5    1  0.3845386E+001  0.9159625E+02  0.7546771E-02  0.1299032E+00
          2   -1    0    0  501    0  0.00000000000E+00  0.00000000000E+00  0.96654553037E+03  0.96654553037E+03  0.00000000000E+00 0. -1.
         -2   -1    0    0    0  501 -0.00000000000E+00 -0.00000000000E+00 -0.21700665893E+01  0.21700665893E+01  0.00000000000E+00 0.  1.
         23    2    1    2    0    0  0.00000000000E+00  0.00000000000E+00  0.96437546378E+03  0.96871559696E+03  0.91596248013E+02 0.  0.
          2    1    3    3  502    0 -0.19132086925E+02 -0.25321073742E+02  0.13297781972E+03  0.13671245028E+03  0.00000000000E+00 0.  1.
         -2    1    3    3    0  502  0.19132086925E+02  0.25321073742E+02  0.83139764406E+03  0.83200314667E+03  0.00000000000E+00 0. -1.
<mgrwt>
<rscale>  0 0.91596248E+02</rscale>
<asrwt>0</asrwt>
<pdfrwt beam="1">  1        2 0.14869897E+00 0.91596248E+02</pdfrwt>
<pdfrwt beam="2">  1       -2 0.33385717E-03 0.91596248E+02</pdfrwt>
<totfact> 0.24654443E+05</totfact>
</mgrwt>
</event>
<event>
 5    1  0.3845386E+001  0.9169446E+02  0.7546771E-02  0.1298799E+00
          4   -1    0    0  501    0  0.00000000000E+00  0.00000000000E+00  0.13083864742E+03  0.13083864742E+03  0.00000000000E+00 0. -1.
         -4   -1    0    0    0  501 -0.00000000000E+00 -0.00000000000E+00 -0.16065348550E+02  0.16065348550E+02  0.00000000000E+00 0.  1.
         23    2    1    2    0    0  0.00000000000E+00  0.00000000000E+00  0.11477329887E+03  0.14690399597E+03  0.91694459475E+02 0.  0.
          2    1    3    3  502    0  0.61026554521E+00 -0.45542866283E+02  0.48993802073E+02  0.66894825919E+02  0.00000000000E+00 0. -1.
         -2    1    3    3    0  502 -0.61026554521E+00  0.45542866283E+02  0.65779496798E+02  0.80009170051E+02  0.00000000000E+00 0.  1.
<mgrwt>
<rscale>  0 0.91694459E+02</rscale>
<asrwt>0</asrwt>
<pdfrwt beam="1">  1        4 0.20129022E-01 0.91694459E+02</pdfrwt>
<pdfrwt beam="2">  1       -4 0.24715922E-02 0.91694459E+02</pdfrwt>
<totfact> 0.23468291E+04</totfact>
</mgrwt>
</event>
<event>
 5    1  0.3845386E+001  0.8373305E+02  0.7546771E-02  0.1318779E+00
          2   -1    0    0  501    0  0.00000000000E+00  0.00000000000E+00  0.10653607156E+04  0.10653607156E+04  0.00000000000E+00 0. -1.
         -2   -1    0    0    0  501 -0.00000000000E+00 -0.00000000000E+00 -0.16452699520E+01  0.16452699520E+01  0.00000000000E+00 0.  1.
         23    2    1    2    0    0  0.00000000000E+00  0.00000000000E+00  0.10637154456E+04  0.10670059855E+04  0.83733051382E+02 0.  0.
          2    1    3    3  502    0  0.34568259437E+02 -0.10562690927E+02  0.80105412904E+03  0.80186922416E+03  0.00000000000E+00 0. -1.
         -2    1    3    3    0  502 -0.34568259437E+02  0.10562690927E+02  0.26266131660E+03  0.26513676139E+03  0.00000000000E+00 0.  1.
<mgrwt>
<rscale>  0 0.83733051E+02</rscale>
<asrwt>0</asrwt>
<pdfrwt beam="1">  1        2 0.16390110E+00 0.83733051E+02</pdfrwt>
<pdfrwt beam="2">  1       -2 0.25311931E-03 0.83733051E+02</pdfrwt>
<totfact> 0.31295413E+05</totfact>
</mgrwt>
</event>
<event>
 5    1  0.3845386E+001  0.9067158E+02  0.7546771E-02  0.1301233E+00
          3   -1    0    0  501    0  0.00000000000E+00  0.00000000000E+00  0.19554330431E+03  0.19554330431E+03  0.00000000000E+00 0. -1.
         -3   -1    0    0    0  501 -0.00000000000E+00 -0.00000000000E+00 -0.10510889500E+02  0.10510889500E+02  0.00000000000E+00 0.  1.
         23    2    1    2    0    0  0.00000000000E+00  0.00000000000E+00  0.18503241481E+03  0.20605419381E+03  0.90671584613E+02 0.  0.
          2    1    3    3  502    0  0.27919258582E+02 -0.68896903581E-01  0.17368873963E+03  0.17591835612E+03  0.00000000000E+00 0. -1.
         -2    1    3    3    0  502 -0.27919258582E+02  0.68896903581E-01  0.11343675180E+02  0.30135837688E+02  0.00000000000E+00 0.  1.
<mgrwt>
<rscale>  0 0.90671585E+02</rscale>
<asrwt>0</asrwt>
<pdfrwt beam="1">  1        3 0.30083582E-01 0.90671585E+02</pdfrwt>
<pdfrwt beam="2">  1       -3 0.16170601E-02 0.90671585E+02</pdfrwt>
<totfact> 0.28613727E+04</totfact>
</mgrwt>
</event>
<event>
 5    1  0.3845386E+001  0.9246039E+02  0.7546771E-02  0.1297001E+00
          2   -1    0    0  501    0  0.00000000000E+00  0.00000000000E+00  0.13794077870E+04  0.13794077870E+04  0.00000000000E+00 0. -1.
         -2   -1    0    0    0  501 -0.00000000000E+00 -0.00000000000E+00 -0.15493830372E+01  0.15493830372E+01  0.00000000000E+00 0.  1.
         23    2    1    2    0    0  0.00000000000E+00  0.00000000000E+00  0.13778584039E+04  0.13809571700E+04  0.92460392095E+02 0.  0.
          2    1    3    3  502    0 -0.33408038256E+02  0.20138350739E+02  0.10594964429E+04  0.10602143004E+04  0.00000000000E+00 0. -1.
         -2    1    3    3    0  502  0.33408038256E+02 -0.20138350739E+02  0.31836196101E+03  0.32074286962E+03  0.00000000000E+00 0.  1.
<mgrwt>
<rscale>  0 0.92460392E+02</rscale>
<asrwt>0</asrwt>
<pdfrwt beam="1">  1        2 0.21221560E+00 0.92460392E+02</pdfrwt>
<pdfrwt beam="2">  1       -2 0.23836772E-03 0.92460392E+02</pdfrwt>
<totfact> 0.23361588E+05</totfact>
</mgrwt>
</event>
<event>
 5    1  0.3845386E+001  0.6150966E+02  0.7546771E-02  0.1391603E+00
         -3   -1    0    0    0  501 -0.00000000000E+00  0.00000000000E+00  0.19743480959E+03  0.19743480959E+03  0.00000000000E+00 0.  1.
          3   -1    0    0  501    0  0.00000000000E+00 -0.00000000000E+00 -0.47907435078E+01  0.47907435078E+01  0.00000000000E+00 0. -1.
         23    2    1    2    0    0  0.00000000000E+00  0.00000000000E+00  0.19264406608E+03  0.20222555310E+03  0.61509658827E+02 0.  0.
          2    1    3    3  502    0  0.15478232765E+02  0.23673812020E+02  0.13602498547E+03  0.13893459518E+03  0.00000000000E+00 0. -1.
         -2    1    3    3    0  502 -0.15478232765E+02 -0.23673812020E+02  0.56619080612E+02  0.63290957920E+02  0.00000000000E+00 0.  1.
<mgrwt>
<rscale>  0 0.61509659E+02</rscale>
<asrwt>0</asrwt>
<pdfrwt beam="2">  1        3 0.73703762E-03 0.61509659E+02</pdfrwt>
<pdfrwt beam="1">  1       -3 0.30374580E-01 0.61509659E+02</pdfrwt>
<totfact> 0.79951750E+04</totfact>
</mgrwt>
</event>
<event>
 5    1  0.3845386E+001  0.9058219E+02  0.7546771E-02  0.1301448E+00
          1   -1    0    0  501    0  0.00000000000E+00  0.00000000000E+00  0.63127826961E+02  0.63127826961E+02  0.00000000000E+00 0. -1.
         -1   -1    0    0    0  501 -0.00000000000E+00 -0.00000000000E+00 -0.32494119206E+02  0.32494119206E+02  0.00000000000E+00 0.  1.
         23    2    1    2    0    0  0.00000000000E+00  0.00000000000E+00  0.30633707755E+02  0.95621946167E+02  0.90582186648E+02 0.  0.
          2    1    3    3  502    0  0.27890794596E+01  0.31821000035E+02  0.49211333652E+02  0.58669501168E+02  0.00000000000E+00 0. -1.
         -2    1    3    3    0  502 -0.27890794596E+01 -0.31821000035E+02 -0.18577625896E+02  0.36952444999E+02  0.00000000000E+00 0.  1.
<mgrwt>
<rscale>  0 0.90582187E+02</rscale>
<asrwt>0</asrwt>
<pdfrwt beam="1">  1        1 0.97119734E-02 0.90582187E+02</pdfrwt>
<pdfrwt beam="2">  1       -1 0.49990953E-02 0.90582187E+02</pdfrwt>
<totfact> 0.98890713E+04</totfact>
</mgrwt>
</event>
<event>
 5    1  0.3845386E+001  0.9148895E+02  0.7546771E-02  0.1299286E+00
         -2   -1    0    0    0  501 -0.00000000000E+00  0.00000000000E+00  0.12447242177E+01  0.12447242177E+01  0.00000000000E+00 0.  1.
          2   -1    0    0  501    0  0.00000000000E+00 -0.00000000000E+00 -0.16811410149E+04  0.16811410149E+04  0.00000000000E+00 0. -1.
         23    2    1    2    0    0  0.00000000000E+00  0.00000000000E+00 -0.16798962906E+04  0.16823857391E+04  0.91488948723E+02 0.  0.
          2    1    3    3  502    0  0.81898300845E+00 -0.45530099077E+02 -0.76001165201E+03  0.76137465931E+03  0.00000000000E+00 0.  1.
         -2    1    3    3    0  502 -0.81898300845E+00  0.45530099077E+02 -0.91988463864E+03  0.92101107977E+03  0.00000000000E+00 0. -1.
<mgrwt>
<rscale>  0 0.91488949E+02</rscale>
<asrwt>0</asrwt>
<pdfrwt beam="2">  1        2 0.25863619E+00 0.91488949E+02</pdfrwt>
<pdfrwt beam="1">  1       -2 0.19149669E-03 0.91488949E+02</pdfrwt>
<totfact> 0.22170888E+05</totfact>
</mgrwt>
</event>
<event>
 5    1  0.3845386E+001  0.9223178E+02  0.7546771E-02  0.1297535E+00
         -2   -1    0    0    0  501 -0.00000000000E+00  0.00000000000E+00  0.15507363937E+02  0.15507363937E+02  0.00000000000E+00 0.  1.
          2   -1    0    0  501    0  0.00000000000E+00 -0.00000000000E+00 -0.13713971617E+03  0.13713971617E+03  0.00000000000E+00 0. -1.
         23    2    1    2    0    0  0.00000000000E+00  0.00000000000E+00 -0.12163235223E+03  0.15264708011E+03  0.92231783868E+02 0.  0.
          2    1    3    3  502    0 -0.31747891683E+02  0.30238420637E+02 -0.37155226611E+02  0.57470005859E+02  0.00000000000E+00 0.  1.
         -2    1    3    3    0  502  0.31747891683E+02 -0.30238420637E+02 -0.84477125620E+02  0.95177074246E+02  0.00000000000E+00 0. -1.
<mgrwt>
<rscale>  0 0.92231784E+02</rscale>
<asrwt>0</asrwt>
<pdfrwt beam="2">  1        2 0.21098419E-01 0.92231784E+02</pdfrwt>
<pdfrwt beam="1">  1       -2 0.23857482E-02 0.92231784E+02</pdfrwt>
<totfact> 0.13146766E+05</totfact>
</mgrwt>
</event>
<event>
 5    1  0.3845386E+001  0.8840176E+02  0.7546771E-02  0.1306769E+00
         -2   -1    0    0    0  501 -0.00000000000E+00  0.00000000000E+00  0.10673579379E+02  0.10673579379E+02  0.00000000000E+00 0.  1.
          2   -1    0    0  501    0  0.00000000000E+00 -0.00000000000E+00 -0.18304240468E+03  0.18304240468E+03  0.00000000000E+00 0. -1.
         23    2    1    2    0    0  0.00000000000E+00  0.00000000000E+00 -0.17236882530E+03  0.19371598406E+03  0.88401756454E+02 0.  0.
          2    1    3    3  502    0 -0.37240020632E+02 -0.22218032501E+02 -0.67428823872E+02  0.80169235955E+02  0.00000000000E+00 0. -1.
         -2    1    3    3    0  502  0.37240020632E+02  0.22218032501E+02 -0.10494000143E+03  0.11354674810E+03  0.00000000000E+00 0.  1.
<mgrwt>
<rscale>  0 0.88401756E+02</rscale>
<asrwt>0</asrwt>
<pdfrwt beam="2">  1        2 0.28160367E-01 0.88401756E+02</pdfrwt>
<pdfrwt beam="1">  1       -2 0.16420893E-02 0.88401756E+02</pdfrwt>
<totfact> 0.16283592E+05</totfact>
</mgrwt>
</event>
<event>
 5    1  0.3845386E+001  0.9170276E+02  0.7546771E-02  0.1298780E+00
          1   -1    0    0  501    0  0.00000000000E+00  0.00000000000E+00  0.53309166682E+03  0.53309166682E+03  0.00000000000E+00 0. -1.
         -1   -1    0    0    0  501 -0.00000000000E+00 -0.00000000000E+00 -0.39436918232E+01  0.39436918232E+01  0.00000000000E+00 0.  1.
         23    2    1    2    0    0  0.00000000000E+00  0.00000000000E+00  0.52914797500E+03  0.53703535864E+03  0.91702764352E+02 0.  0.
          2    1    3    3  502    0  0.35322530230E+02  0.16707568714E+02  0.40506632734E+03  0.40694662247E+03  0.00000000000E+00 0. -1.
         -2    1    3    3    0  502 -0.35322530230E+02 -0.16707568714E+02  0.12408164766E+03  0.13008873618E+03  0.00000000000E+00 0.  1.
<mgrwt>
<rscale>  0 0.91702764E+02</rscale>
<asrwt>0</asrwt>
<pdfrwt beam="1">  1        1 0.82014046E-01 0.91702764E+02</pdfrwt>
<pdfrwt beam="2">  1       -1 0.60672224E-03 0.91702764E+02</pdfrwt>
<totfact> 0.13812146E+05</totfact>
</mgrwt>
</event>
<event>
 5    1  0.3845386E+001  0.8017547E+02  0.7546771E-02  0.1328554E+00
         -2   -1    0    0    0  501 -0.00000000000E+00  0.00000000000E+00  0.19377143116E+03  0.19377143116E+03  0.00000000000E+00 0.  1.
          2   -1    0    0  501    0  0.00000000000E+00 -0.00000000000E+00 -0.82934131696E+01  0.82934131696E+01  0.00000000000E+00 0. -1.
         23    2    1    2    0    0  0.00000000000E+00  0.00000000000E+00  0.18547801799E+03  0.20206484433E+03  0.80175471038E+02 0.  0.
          2    1    3    3  502    0  0.22364196190E+02 -0.22074401531E+02  0.15547278993E+03  0.15861659713E+03  0.00000000000E+00 0.  1.
         -2    1    3    3    0  502 -0.22364196190E+02  0.22074401531E+02  0.30005228053E+02  0.43448247200E+02  0.00000000000E+00 0. -1.
<mgrwt>
<rscale>  0 0.80175471E+02</rscale>
<asrwt>0</asrwt>
<pdfrwt beam="2">  1        2 0.12759099E-02 0.80175471E+02</pdfrwt>
<pdfrwt beam="1">  1       -2 0.29810986E-01 0.80175471E+02</pdfrwt>
<totfact> 0.87625959E+04</totfact>
</mgrwt>
</event>
<event>
 5    1  0.3845386E+001  0.9179934E+02  0.7546771E-02  0.1298552E+00
          1   -1    0    0  501    0  0.00000000000E+00  0.00000000000E+00  0.25152314917E+03  0.25152314917E+03  0.00000000000E+00 0. -1.
         -1   -1    0    0    0  501 -0.00000000000E+00 -0.00000000000E+00 -0.83760861453E+01  0.83760861453E+01  0.00000000000E+00 0.  1.
         23    2    1    2    0    0  0.00000000000E+00  0.00000000000E+00  0.24314706303E+03  0.25989923532E+03  0.91799336926E+02 0.  0.
          2    1    3    3  502    0 -0.43820250242E+02 -0.45666116379E+01  0.85128233235E+02  0.95853452556E+02  0.00000000000E+00 0.  1.
         -2    1    3    3    0  502  0.43820250242E+02  0.45666116379E+01  0.15801882979E+03  0.16404578276E+03  0.00000000000E+00 0. -1.
<mgrwt>
<rscale>  0 0.91799337E+02</rscale>
<asrwt>0</asrwt>
<pdfrwt beam="1">  1        1 0.38695863E-01 0.91799337E+02</pdfrwt>
<pdfrwt beam="2">  1       -1 0.12886288E-02 0.91799337E+02</pdfrwt>
<totfact> 0.12158386E+05</totfact>
</mgrwt>
</event>
<event>
 5    1  0.3845386E+001  0.8704475E+02  0.7546771E-02  0.1310170E+00
         -3   -1    0    0    0  501 -0.00000000000E+00  0.00000000000E+00  0.44054479236E+03  0.44054479236E+03  0.00000000000E+00 0.  1.
          3   -1    0    0  501    0  0.00000000000E+00 -0.00000000000E+00 -0.42996701498E+01  0.42996701498E+01  0.00000000000E+00 0. -1.
         23    2    1    2    0    0  0.00000000000E+00  0.00000000000E+00  0.43624512221E+03  0.44484446251E+03  0.87044753854E+02 0.  0.
          2    1    3    3  502    0 -0.24018002484E+02 -0.36099766027E+02  0.19890552779E+03  0.20357668466E+03  0.00000000000E+00 0. -1.
         -2    1    3    3    0  502  0.24018002484E+02  0.36099766027E+02  0.23733959442E+03  0.24126777785E+03  0.00000000000E+00 0.  1.
<mgrwt>
<rscale>  0 0.87044754E+02</rscale>
<asrwt>0</asrwt>
<pdfrwt beam="2">  1        3 0.66148806E-03 0.87044754E+02</pdfrwt>
<pdfrwt beam="1">  1       -3 0.67776086E-01 0.87044754E+02</pdfrwt>
<totfact> 0.21848136E+04</totfact>
</mgrwt>
</event>
<event>
 5    1  0.3845386E+001  0.8942982E+02  0.7546771E-02  0.1304238E+00
         -1   -1    0    0    0  501 -0.00000000000E+00  0.00000000000E+00  0.23141502349E+01  0.23141502349E+01  0.00000000000E+00 0.  1.
          1   -1    0    0  501    0  0.00000000000E+00 -0.00000000000E+00 -0.86399891410E+03  0.86399891410E+03  0.00000000000E+00 0. -1.
         23    2    1    2    0    0  0.00000000000E+00  0.00000000000E+00 -0.86168476387E+03  0.86631306434E+03  0.89429822543E+02 0.  0.
          2    1    3    3  502    0 -0.98011607721E+01 -0.21486778808E+02 -0.63029646907E+02  0.67308846411E+02  0.00000000000E+00 0.  1.
         -2    1    3    3    0  502  0.98011607721E+01  0.21486778808E+02 -0.79865511696E+03  0.79900421792E+03  0.00000000000E+00 0. -1.
<mgrwt>
<rscale>  0 0.89429823E+02</rscale>
<asrwt>0</asrwt>
<pdfrwt beam="2">  1        1 0.13292262E+00 0.89429823E+02</pdfrwt>
<pdfrwt beam="1">  1       -1 0.35602390E-03 0.89429823E+02</pdfrwt>
<totfact> 0.14741258E+05</totfact>
</mgrwt>
</event>
<event>
 5    1  0.3845386E+001  0.9191273E+02  0.7546771E-02  0.1298285E+00
          2   -1    0    0  501    0  0.00000000000E+00  0.00000000000E+00  0.50533447096E+01  0.50533447096E+01  0.00000000000E+00 0. -1.
         -2   -1    0    0    0  501 -0.00000000000E+00 -0.00000000000E+00 -0.41793849170E+03  0.41793849170E+03  0.00000000000E+00 0.  1.
         23    2    1    2    0    0  0.00000000000E+00  0.00000000000E+00 -0.41288514699E+03  0.42299183641E+03  0.91912725256E+02 0.  0.
          2    1    3    3  502    0  0.80438446590E+01  0.44848289592E+02 -0.17886266856E+03  0.18457498942E+03  0.00000000000E+00 0.  1.
         -2    1    3    3    0  502 -0.80438446590E+01 -0.44848289592E+02 -0.23402247844E+03  0.23841684699E+03  0.00000000000E+00 0. -1.
<mgrwt>
<rscale>  0 0.91912725E+02</rscale>
<asrwt>0</asrwt>
<pdfrwt beam="1">  1        2 0.77743752E-03 0.91912725E+02</pdfrwt>
<pdfrwt beam="2">  1       -2 0.64298240E-01 0.91912725E+02</pdfrwt>
<totfact> 0.40573749E+04</totfact>
</mgrwt>
</event>
<event>
 5    1  0.3845386E+001  0.9130886E+02  0.7546771E-02  0.1299713E+00
          1   -1    0    0  501    0  0.00000000000E+00  0.00000000000E+00  0.15210655702E+03  0.15210655702E+03  0.00000000000E+00 0. -1.
         -1   -1    0    0    0  501 -0.00000000000E+00 -0.00000000000E+00 -0.13703070754E+02  0.13703070754E+02  0.00000000000E+00 0.  1.
         23    2    1    2    0    0  0.00000000000E+00  0.00000000000E+00  0.13840348627E+03  0.16580962777E+03  0.91308858562E+02 0.  0.
          2    1    3    3  502    0  0.26963407622E+01  0.36750280094E+02  0.11814656370E+03  0.12375970206E+03  0.00000000000E+00 0. -1.
         -2    1    3    3    0  502 -0.26963407622E+01 -0.36750280094E+02  0.20256922567E+02  0.42049925712E+02  0.00000000000E+00 0.  1.
<mgrwt>
<rscale>  0 0.91308859E+02</rscale>
<asrwt>0</asrwt>
<pdfrwt beam="1">  1        1 0.23401008E-01 0.91308859E+02</pdfrwt>
<pdfrwt beam="2">  1       -1 0.21081648E-02 0.91308859E+02</pdfrwt>
<totfact> 0.11198274E+05</totfact>
</mgrwt>
</event>
<event>
 5    1  0.3845386E+001  0.9025504E+02  0.7546771E-02  0.1302235E+00
          2   -1    0    0  501    0  0.00000000000E+00  0.00000000000E+00  0.45249181164E+03  0.45249181164E+03  0.00000000000E+00 0.  1.
         -2   -1    0    0    0  501 -0.00000000000E+00 -0.00000000000E+00 -0.45006185669E+01  0.45006185669E+01  0.00000000000E+00 0. -1.
         23    2    1    2    0    0  0.00000000000E+00  0.00000000000E+00  0.44799119307E+03  0.45699243021E+03  0.90255039723E+02 0.  0.
          2    1    3    3  502    0  0.32720529390E+02  0.16463708218E+02  0.90529971772E+02  0.97659421055E+02  0.00000000000E+00 0. -1.
         -2    1    3    3    0  502 -0.32720529390E+02 -0.16463708218E+02  0.35746122130E+03  0.35933300915E+03  0.00000000000E+00 0.  1.
<mgrwt>
<rscale>  0 0.90255040E+02</rscale>
<asrwt>0</asrwt>
<pdfrwt beam="1">  1        2 0.69614089E-01 0.90255040E+02</pdfrwt>
<pdfrwt beam="2">  1       -2 0.69240322E-03 0.90255040E+02</pdfrwt>
<totfact> 0.21411798E+05</totfact>
</mgrwt>
</event>
<event>
 5    1  0.3845386E+001  0.8653166E+02  0.7546771E-02  0.1311475E+00
          2   -1    0    0  501    0  0.00000000000E+00  0.00000000000E+00  0.13812761883E+02  0.13812761883E+02  0.00000000000E+00 0.  1.
         -2   -1    0    0    0  501 -0.00000000000E+00 -0.00000000000E+00 -0.13552191905E+03  0.13552191905E+03  0.00000000000E+00 0. -1.
         23    2    1    2    0    0  0.00000000000E+00  0.00000000000E+00 -0.12170915717E+03  0.14933468093E+03  0.86531658894E+02 0.  0.
          2    1    3    3  502    0 -0.36173193822E+02  0.43660795114E+01 -0.10112002326E+03  0.10748405326E+03  0.00000000000E+00 0. -1.
         -2    1    3    3    0  502  0.36173193822E+02 -0.43660795114E+01 -0.20589133913E+02  0.41850627676E+02  0.00000000000E+00 0.  1.
<mgrwt>
<rscale>  0 0.86531659E+02</rscale>
<asrwt>0</asrwt>
<pdfrwt beam="1">  1        2 0.21250402E-02 0.86531659E+02</pdfrwt>
<pdfrwt beam="2">  1       -2 0.20849527E-01 0.86531659E+02</pdfrwt>
<totfact> 0.82611687E+04</totfact>
</mgrwt>
</event>
<event>
 5    1  0.3845386E+001  0.9321253E+02  0.7546771E-02  0.1295253E+00
         -1   -1    0    0    0  501 -0.00000000000E+00  0.00000000000E+00  0.20870149155E+01  0.20870149155E+01  0.00000000000E+00 0.  1.
          1   -1    0    0  501    0  0.00000000000E+00 -0.00000000000E+00 -0.10407898752E+04  0.10407898752E+04  0.00000000000E+00 0. -1.
         23    2    1    2    0    0  0.00000000000E+00  0.00000000000E+00 -0.10387028603E+04  0.10428768901E+04  0.93212531206E+02 0.  0.
          2    1    3    3  502    0 -0.36168027896E+02  0.16508394454E+02 -0.79145402875E+03  0.79245197517E+03  0.00000000000E+00 0. -1.
         -2    1    3    3    0  502  0.36168027896E+02 -0.16508394454E+02 -0.24724883153E+03  0.25042491494E+03  0.00000000000E+00 0.  1.
<mgrwt>
<rscale>  0 0.93212531E+02</rscale>
<asrwt>0</asrwt>
<pdfrwt beam="2">  1        1 0.16012148E+00 0.93212531E+02</pdfrwt>
<pdfrwt beam="1">  1       -1 0.32107930E-03 0.93212531E+02</pdfrwt>
<totfact> 0.12683902E+05</totfact>
</mgrwt>
</event>
<event>
 5    1  0.3845386E+001  0.8428148E+02  0.7546771E-02  0.1317322E+00
         -3   -1    0    0    0  501 -0.00000000000E+00  0.00000000000E+00  0.86354717703E+01  0.86354717703E+01  0.00000000000E+00 0.  1.
          3   -1    0    0  501    0  0.00000000000E+00 -0.00000000000E+00 -0.20564506009E+03  0.20564506009E+03  0.00000000000E+00 0. -1.
         23    2    1    2    0    0  0.00000000000E+00  0.00000000000E+00 -0.19700958832E+03  0.21428053186E+03  0.84281483402E+02 0.  0.
          2    1    3    3  502    0  0.31458581438E+02  0.55281844489E+01 -0.16839361455E+03  0.17139606936E+03  0.00000000000E+00 0. -1.
         -2    1    3    3    0  502 -0.31458581438E+02 -0.55281844489E+01 -0.28615973766E+02  0.42884462501E+02  0.00000000000E+00 0.  1.
<mgrwt>
<rscale>  0 0.84281483E+02</rscale>
<asrwt>0</asrwt>
<pdfrwt beam="2">  1        3 0.31637700E-01 0.84281483E+02</pdfrwt>
<pdfrwt beam="1">  1       -3 0.13285342E-02 0.84281483E+02</pdfrwt>
<totfact> 0.34293092E+04</totfact>
</mgrwt>
</event>
<event>
 5    1  0.3845386E+001  0.9157604E+02  0.7546771E-02  0.1299079E+00
         -2   -1    0    0    0  501 -0.00000000000E+00  0.00000000000E+00  0.84318311792E+01  0.84318311792E+01  0.00000000000E+00 0.  1.
          2   -1    0    0  501    0  0.00000000000E+00 -0.00000000000E+00 -0.24864617559E+03  0.24864617559E+03  0.00000000000E+00 0. -1.
         23    2    1    2    0    0  0.00000000000E+00  0.00000000000E+00 -0.24021434441E+03  0.25707800677E+03  0.91576035641E+02 0.  0.
          2    1    3    3  502    0  0.36994714924E+02  0.15440261292E+02 -0.18221890096E+03  0.18657636096E+03  0.00000000000E+00 0. -1.
         -2    1    3    3    0  502 -0.36994714924E+02 -0.15440261292E+02 -0.57995443450E+02  0.70501645811E+02  0.00000000000E+00 0.  1.
<mgrwt>
<rscale>  0 0.91576036E+02</rscale>
<asrwt>0</asrwt>
<pdfrwt beam="2">  1        2 0.38253257E-01 0.91576036E+02</pdfrwt>
<pdfrwt beam="1">  1       -2 0.12972048E-02 0.91576036E+02</pdfrwt>
<totfact> 0.16557284E+05</totfact>
</mgrwt>
</event>
<event>
 5    1  0.3845386E+001  0.9220061E+02  0.7546771E-02  0.1297608E+00
         -2   -1    0    0    0  501 -0.00000000000E+00  0.00000000000E+00  0.20824902368E+01  0.20824902368E+01  0.00000000000E+00 0.  1.
          2   -1    0    0  501    0  0.00000000000E+00 -0.00000000000E+00 -0.10205272303E+04  0.10205272303E+04  0.00000000000E+00 0. -1.
         23    2    1    2    0    0  0.00000000000E+00  0.00000000000E+00 -0.10184447401E+04  0.10226097206E+04  0.92200607234E+02 0.  0.
          2    1    3    3  502    0  0.35024927786E+02  0.21449559414E+02 -0.74145101105E+03  0.74258765877E+03  0.00000000000E+00 0. -1.
         -2    1    3    3    0  502 -0.35024927786E+02 -0.21449559414E+02 -0.27699372903E+03  0.28002206179E+03  0.00000000000E+00 0.  1.
<mgrwt>
<rscale>  0 0.92200607E+02</rscale>
<asrwt>0</asrwt>
<pdfrwt beam="2">  1        2 0.15700417E+00 0.92200607E+02</pdfrwt>
<pdfrwt beam="1">  1       -2 0.32038315E-03 0.92200607E+02</pdfrwt>
<totfact> 0.24294520E+05</totfact>
</mgrwt>
</event>
<event>
 5    1  0.3845386E+001  0.8694929E+02  0.7546771E-02  0.1310412E+00
          3   -1    0    0  501    0  0.00000000000E+00  0.00000000000E+00  0.18624798365E+02  0.18624798365E+02  0.00000000000E+00 0. -1.
         -3   -1    0    0    0  501 -0.00000000000E+00 -0.00000000000E+00 -0.10148001858E+03  0.10148001858E+03  0.00000000000E+00 0.  1.
         23    2    1    2    0    0  0.00000000000E+00  0.00000000000E+00 -0.82855220218E+02  0.12010481695E+03  0.86949292904E+02 0.  0.
          2    1    3    3  502    0 -0.56002683279E+01  0.28489689221E+02  0.32687084305E+01  0.29218313642E+02  0.00000000000E+00 0. -1.
         -2    1    3    3    0  502  0.56002683279E+01 -0.28489689221E+02 -0.86123928648E+02  0.90886503305E+02  0.00000000000E+00 0.  1.
<mgrwt>
<rscale>  0 0.86949293E+02</rscale>
<asrwt>0</asrwt>
<pdfrwt beam="1">  1        3 0.28653536E-02 0.86949293E+02</pdfrwt>
<pdfrwt beam="2">  1       -3 0.15612311E-01 0.86949293E+02</pdfrwt>
<totfact> 0.37794748E+04</totfact>
</mgrwt>
</event>
<event>
 5    1  0.3845386E+001  0.1016931E+03  0.7546771E-02  0.1276775E+00
         -2   -1    0    0    0  501 -0.00000000000E+00  0.00000000000E+00  0.52706997323E+02  0.52706997323E+02  0.00000000000E+00 0.  1.
          2   -1    0    0  501    0  0.00000000000E+00 -0.00000000000E+00 -0.49051797975E+02  0.49051797975E+02  0.00000000000E+00 0. -1.
         23    2    1    2    0    0  0.00000000000E+00  0.00000000000E+00  0.36551993482E+01  0.10175879530E+03  0.10169312631E+03 0.  0.
          2    1    3    3  502    0 -0.26199478207E+02  0.94517985200E-01 -0.41777499851E+02  0.49313092437E+02  0.00000000000E+00 0. -1.
         -2    1    3    3    0  502  0.26199478207E+02 -0.94517985200E-01  0.45432699199E+02  0.52445702860E+02  0.00000000000E+00 0.  1.
<mgrwt>
<rscale>  0 0.10169313E+03</rscale>
<asrwt>0</asrwt>
<pdfrwt beam="2">  1        2 0.75464304E-02 0.10169313E+03</pdfrwt>
<pdfrwt beam="1">  1       -2 0.81087688E-02 0.10169313E+03</pdfrwt>
<totfact> 0.73366612E+04</totfact>
</mgrwt>
</event>
<event>
 5    1  0.3845386E+001  0.9191967E+02  0.7546771E-02  0.1298268E+00
          2   -1    0    0  501    0  0.00000000000E+00  0.00000000000E+00  0.53825087453E+02  0.53825087453E+02  0.00000000000E+00 0. -1.
         -2   -1    0    0    0  501 -0.00000000000E+00 -0.00000000000E+00 -0.39243900668E+02  0.39243900668E+02  0.00000000000E+00 0.  1.
         23    2    1    2    0    0  0.00000000000E+00  0.00000000000E+00  0.14581186786E+02  0.93068988121E+02  0.91919668960E+02 0.  0.
          2    1    3    3  502    0 -0.16619668951E+02 -0.22134287036E+02  0.44439488549E+02  0.52354638773E+02  0.00000000000E+00 0. -1.
         -2    1    3    3    0  502  0.16619668951E+02  0.22134287036E+02 -0.29858301763E+02  0.40714349348E+02  0.00000000000E+00 0.  1.
<mgrwt>
<rscale>  0 0.91919669E+02</rscale>
<asrwt>0</asrwt>
<pdfrwt beam="1">  1        2 0.82807827E-02 0.91919669E+02</pdfrwt>
<pdfrwt beam="2">  1       -2 0.60375232E-02 0.91919669E+02</pdfrwt>
<totfact> 0.10070125E+05</totfact>
</mgrwt>
</event>
<event>
 5    1  0.3845386E+001  0.9060026E+02  0.7546771E-02  0.1301405E+00
          1   -1    0    0  501    0  0.00000000000E+00  0.00000000000E+00  0.12618134358E+04  0.12618134358E+04  0.00000000000E+00 0. -1.
         -1   -1    0    0    0  501 -0.00000000000E+00 -0.00000000000E+00 -0.16263115815E+01  0.16263115815E+01  0.00000000000E+00 0.  1.
         23    2    1    2    0    0  0.00000000000E+00  0.00000000000E+00  0.12601871242E+04  0.12634397474E+04  0.90600260582E+02 0.  0.
          2    1    3    3  502    0 -0.41356036939E+02  0.15788729180E+02  0.76421143843E+03  0.76549247441E+03  0.00000000000E+00 0.  1.
         -2    1    3    3    0  502  0.41356036939E+02 -0.15788729180E+02  0.49597568582E+03  0.49794727300E+03  0.00000000000E+00 0. -1.
<mgrwt>
<rscale>  0 0.90600261E+02</rscale>
<asrwt>0</asrwt>
<pdfrwt beam="1">  1        1 0.19412436E+00 0.90600261E+02</pdfrwt>
<pdfrwt beam="2">  1       -1 0.25020279E-03 0.90600261E+02</pdfrwt>
<totfact> 0.12622137E+05</totfact>
</mgrwt>
</event>
<event>
 5    1  0.3845386E+001  0.9112540E+02  0.7546771E-02  0.1300149E+00
         -1   -1    0    0    0  501 -0.00000000000E+00  0.00000000000E+00  0.10694706306E+02  0.10694706306E+02  0.00000000000E+00 0.  1.
          1   -1    0    0  501    0  0.00000000000E+00 -0.00000000000E+00 -0.19411097176E+03  0.19411097176E+03  0.00000000000E+00 0. -1.
         23    2    1    2    0    0  0.00000000000E+00  0.00000000000E+00 -0.18341626545E+03  0.20480567806E+03  0.91125404444E+02 0.  0.
          2    1    3    3  502    0  0.15498539843E+02 -0.40820756800E+02 -0.62454080656E+02  0.76204009827E+02  0.00000000000E+00 0. -1.
         -2    1    3    3    0  502 -0.15498539843E+02  0.40820756800E+02 -0.12096218479E+03  0.12860166824E+03  0.00000000000E+00 0.  1.
<mgrwt>
<rscale>  0 0.91125404E+02</rscale>
<asrwt>0</asrwt>
<pdfrwt beam="2">  1        1 0.29863225E-01 0.91125404E+02</pdfrwt>
<pdfrwt beam="1">  1       -1 0.16453395E-02 0.91125404E+02</pdfrwt>
<totfact> 0.11790129E+05</totfact>
</mgrwt>
</event>
<event>
 5    1  0.3845386E+001  0.9453535E+02  0.7546771E-02  0.1292226E+00
         -2   -1    0    0    0  501 -0.00000000000E+00  0.00000000000E+00  0.93396359913E+02  0.93396359913E+02  0.00000000000E+00 0.  1.
          2   -1    0    0  501    0  0.00000000000E+00 -0.00000000000E+00 -0.23922059595E+02  0.23922059595E+02  0.00000000000E+00 0. -1.
         23    2    1    2    0    0  0.00000000000E+00  0.00000000000E+00  0.69474300318E+02  0.11731841951E+03  0.94535353975E+02 0.  0.
          2    1    3    3  502    0 -0.19091583654E+02  0.32598601235E+02 -0.51853373170E+00  0.37781294923E+02  0.00000000000E+00 0. -1.
         -2    1    3    3    0  502  0.19091583654E+02 -0.32598601235E+02  0.69992834050E+02  0.79537124584E+02  0.00000000000E+00 0.  1.
<mgrwt>
<rscale>  0 0.94535354E+02</rscale>
<asrwt>0</asrwt>
<pdfrwt beam="2">  1        2 0.36803169E-02 0.94535354E+02</pdfrwt>
<pdfrwt beam="1">  1       -2 0.14368671E-01 0.94535354E+02</pdfrwt>
<totfact> 0.74440756E+04</totfact>
</mgrwt>
</event>
<event>
 5    1  0.3845386E+001  0.9058618E+02  0.7546771E-02  0.1301438E+00
         -1   -1    0    0    0  501 -0.00000000000E+00  0.00000000000E+00  0.23535313688E+02  0.23535313688E+02  0.00000000000E+00 0.  1.
          1   -1    0    0  501    0  0.00000000000E+00 -0.00000000000E+00 -0.87165363045E+02  0.87165363045E+02  0.00000000000E+00 0. -1.
         23    2    1    2    0    0  0.00000000000E+00  0.00000000000E+00 -0.63630049357E+02  0.11070067673E+03  0.90586183537E+02 0.  0.
          2    1    3    3  502    0 -0.24526102166E+02 -0.36637097115E+02 -0.44494773152E+02  0.62638577653E+02  0.00000000000E+00 0. -1.
         -2    1    3    3    0  502  0.24526102166E+02  0.36637097115E+02 -0.19135276205E+02  0.48062099080E+02  0.00000000000E+00 0.  1.
<mgrwt>
<rscale>  0 0.90586184E+02</rscale>
<asrwt>0</asrwt>
<pdfrwt beam="2">  1        1 0.13410056E-01 0.90586184E+02</pdfrwt>
<pdfrwt beam="1">  1       -1 0.36208175E-02 0.90586184E+02</pdfrwt>
<totfact> 0.10396233E+05</totfact>
</mgrwt>
</event>
<event>
 5    1  0.3845386E+001  0.9629020E+02  0.7546771E-02  0.1288296E+00
         -3   -1    0    0    0  501 -0.00000000000E+00  0.00000000000E+00  0.23880188447E+01  0.23880188447E+01  0.00000000000E+00 0.  1.
          3   -1    0    0  501    0  0.00000000000E+00 -0.00000000000E+00 -0.97065850591E+03  0.97065850591E+03  0.00000000000E+00 0. -1.
         23    2    1    2    0    0  0.00000000000E+00  0.00000000000E+00 -0.96827048707E+03  0.97304652476E+03  0.96290203113E+02 0.  0.
          2    1    3    3  502    0  0.33162418062E+02 -0.13515705616E+02 -0.80932208044E+03  0.81011397356E+03  0.00000000000E+00 0. -1.
         -2    1    3    3    0  502 -0.33162418062E+02  0.13515705616E+02 -0.15894840663E+03  0.16293255120E+03  0.00000000000E+00 0.  1.
<mgrwt>
<rscale>  0 0.96290203E+02</rscale>
<asrwt>0</asrwt>
<pdfrwt beam="2">  1        3 0.14933191E+00 0.96290203E+02</pdfrwt>
<pdfrwt beam="1">  1       -3 0.36738792E-03 0.96290203E+02</pdfrwt>
<totfact> 0.89075527E+03</totfact>
</mgrwt>
</event>
<event>
 5    1  0.3845386E+001  0.9322628E+02  0.7546771E-02  0.1295222E+00
          1   -1    0    0  501    0  0.00000000000E+00  0.00000000000E+00  0.10302278135E+02  0.10302278135E+02  0.00000000000E+00 0. -1.
         -1   -1    0    0    0  501 -0.00000000000E+00 -0.00000000000E+00 -0.21090332447E+03  0.21090332447E+03  0.00000000000E+00 0.  1.
         23    2    1    2    0    0  0.00000000000E+00  0.00000000000E+00 -0.20060104633E+03  0.22120560261E+03  0.93226277590E+02 0.  0.
          2    1    3    3  502    0 -0.29811071235E+02  0.29562234683E+02 -0.14835500653E+03  0.15418117151E+03  0.00000000000E+00 0. -1.
         -2    1    3    3    0  502  0.29811071235E+02 -0.29562234683E+02 -0.52246039809E+02  0.67024431093E+02  0.00000000000E+00 0.  1.
<mgrwt>
<rscale>  0 0.93226278E+02</rscale>
<asrwt>0</asrwt>
<pdfrwt beam="1">  1        1 0.15849658E-02 0.93226278E+02</pdfrwt>
<pdfrwt beam="2">  1       -1 0.32446667E-01 0.93226278E+02</pdfrwt>
<totfact> 0.64503719E+04</totfact>
</mgrwt>
</event>
<event>
 5    1  0.3845386E+001  0.9065291E+02  0.7546771E-02  0.1301278E+00
          1   -1    0    0  501    0  0.00000000000E+00  0.00000000000E+00  0.91305436066E+02  0.91305436066E+02  0.00000000000E+00 0. -1.
         -1   -1    0    0    0  501 -0.00000000000E+00 -0.00000000000E+00 -0.22501263225E+02  0.22501263225E+02  0.00000000000E+00 0.  1.
         23    2    1    2    0    0  0.00000000000E+00  0.00000000000E+00  0.68804172840E+02  0.11380669929E+03  0.90652912822E+02 0.  0.
          2    1    3    3  502    0  0.37132702226E+02 -0.12639328516E+02  0.62916717398E+02  0.74142454289E+02  0.00000000000E+00 0. -1.
         -2    1    3    3    0  502 -0.37132702226E+02  0.12639328516E+02  0.58874554428E+01  0.39664245001E+02  0.00000000000E+00 0.  1.
<mgrwt>
<rscale>  0 0.90652913E+02</rscale>
<asrwt>0</asrwt>
<pdfrwt beam="1">  1        1 0.14046990E-01 0.90652913E+02</pdfrwt>
<pdfrwt beam="2">  1       -1 0.34617328E-02 0.90652913E+02</pdfrwt>
<totfact> 0.10453318E+05</totfact>
</mgrwt>
</event>
<event>
 5    1  0.3845386E+001  0.9120748E+02  0.7546771E-02  0.1299954E+00
         -2   -1    0    0    0  501 -0.00000000000E+00  0.00000000000E+00  0.21824686006E+01  0.21824686006E+01  0.00000000000E+00 0.  1.
          2   -1    0    0  501    0  0.00000000000E+00 -0.00000000000E+00 -0.95291217661E+03  0.95291217661E+03  0.00000000000E+00 0. -1.
         23    2    1    2    0    0  0.00000000000E+00  0.00000000000E+00 -0.95072970801E+03  0.95509464521E+03  0.91207475671E+02 0.  0.
          2    1    3    3  502    0 -0.33993024535E+01 -0.31244266334E+02 -0.82139636877E+03  0.82199741731E+03  0.00000000000E+00 0. -1.
         -2    1    3    3    0  502  0.33993024535E+01  0.31244266334E+02 -0.12933333924E+03  0.13309722790E+03  0.00000000000E+00 0.  1.
<mgrwt>
<rscale>  0 0.91207476E+02</rscale>
<asrwt>0</asrwt>
<pdfrwt beam="2">  1        2 0.14660177E+00 0.91207476E+02</pdfrwt>
<pdfrwt beam="1">  1       -2 0.33576464E-03 0.91207476E+02</pdfrwt>
<totfact> 0.24906763E+05</totfact>
</mgrwt>
</event>
<event>
 5    1  0.3845386E+001  0.8942775E+02  0.7546771E-02  0.1304243E+00
         -4   -1    0    0    0  501 -0.00000000000E+00  0.00000000000E+00  0.22169783224E+03  0.22169783224E+03  0.00000000000E+00 0.  1.
          4   -1    0    0  501    0  0.00000000000E+00 -0.00000000000E+00 -0.90182687323E+01  0.90182687323E+01  0.00000000000E+00 0. -1.
         23    2    1    2    0    0  0.00000000000E+00  0.00000000000E+00  0.21267956350E+03  0.23071610097E+03  0.89427750245E+02 0.  0.
          2    1    3    3  502    0  0.25353566929E+02  0.27934058424E+02  0.44410203264E+02  0.58269899005E+02  0.00000000000E+00 0. -1.
         -2    1    3    3    0  502 -0.25353566929E+02 -0.27934058424E+02  0.16826936024E+03  0.17244620196E+03  0.00000000000E+00 0.  1.
<mgrwt>
<rscale>  0 0.89427750E+02</rscale>
<asrwt>0</asrwt>
<pdfrwt beam="2">  1        4 0.13874261E-02 0.89427750E+02</pdfrwt>
<pdfrwt beam="1">  1       -4 0.34107355E-01 0.89427750E+02</pdfrwt>
<totfact> 0.21235499E+04</totfact>
</mgrwt>
</event>
<event>
 5    1  0.3845386E+001  0.8826482E+02  0.7546771E-02  0.1307109E+00
         -4   -1    0    0    0  501 -0.00000000000E+00  0.00000000000E+00  0.10517337167E+02  0.10517337167E+02  0.00000000000E+00 0.  1.
          4   -1    0    0  501    0  0.00000000000E+00 -0.00000000000E+00 -0.18518655467E+03  0.18518655467E+03  0.00000000000E+00 0. -1.
         23    2    1    2    0    0  0.00000000000E+00  0.00000000000E+00 -0.17466921750E+03  0.19570389183E+03  0.88264815962E+02 0.  0.
          2    1    3    3  502    0 -0.19981336271E+02 -0.28685742545E+02 -0.14705789035E+03  0.15115604103E+03  0.00000000000E+00 0. -1.
         -2    1    3    3    0  502  0.19981336271E+02  0.28685742545E+02 -0.27611327149E+02  0.44547850806E+02  0.00000000000E+00 0.  1.
<mgrwt>
<rscale>  0 0.88264816E+02</rscale>
<asrwt>0</asrwt>
<pdfrwt beam="2">  1        4 0.28490238E-01 0.88264816E+02</pdfrwt>
<pdfrwt beam="1">  1       -4 0.16180519E-02 0.88264816E+02</pdfrwt>
<totfact> 0.23517640E+04</totfact>
</mgrwt>
</event>
<event>
 5    1  0.3845386E+001  0.9167517E+02  0.7546771E-02  0.1298845E+00
          2   -1    0    0  501    0  0.00000000000E+00  0.00000000000E+00  0.41148229481E+03  0.41148229481E+03  0.00000000000E+00 0. -1.
         -2   -1    0    0    0  501 -0.00000000000E+00 -0.00000000000E+00 -0.51061352441E+01  0.51061352441E+01  0.00000000000E+00 0.  1.
         23    2    1    2    0    0  0.00000000000E+00  0.00000000000E+00  0.40637615956E+03  0.41658843005E+03  0.91675171073E+02 0.  0.
          2    1    3    3  502    0  0.28128930223E+01  0.39411842827E+02  0.30877339033E+03  0.31129120177E+03  0.00000000000E+00 0. -1.
         -2    1    3    3    0  502 -0.28128930223E+01 -0.39411842827E+02  0.97602769234E+02  0.10529722828E+03  0.00000000000E+00 0.  1.
<mgrwt>
<rscale>  0 0.91675171E+02</rscale>
<asrwt>0</asrwt>
<pdfrwt beam="1">  1        2 0.63304942E-01 0.91675171E+02</pdfrwt>
<pdfrwt beam="2">  1       -2 0.78555959E-03 0.91675171E+02</pdfrwt>
<totfact> 0.19874819E+05</totfact>
</mgrwt>
</event>
<event>
 5    1  0.3845386E+001  0.8097714E+02  0.7546771E-02  0.1326301E+00
          2   -1    0    0  501    0  0.00000000000E+00  0.00000000000E+00  0.64318729604E+03  0.64318729604E+03  0.00000000000E+00 0. -1.
         -2   -1    0    0    0  501 -0.00000000000E+00 -0.00000000000E+00 -0.25487513566E+01  0.25487513566E+01  0.00000000000E+00 0.  1.
         23    2    1    2    0    0  0.00000000000E+00  0.00000000000E+00  0.64063854469E+03  0.64573604740E+03  0.80977144759E+02 0.  0.
          2    1    3    3  502    0 -0.28093674902E+02  0.15453329993E+02  0.51747398576E+03  0.51846637877E+03  0.00000000000E+00 0. -1.
         -2    1    3    3    0  502  0.28093674902E+02 -0.15453329993E+02  0.12316455893E+03  0.12726966863E+03  0.00000000000E+00 0.  1.
<mgrwt>
<rscale>  0 0.80977145E+02</rscale>
<asrwt>0</asrwt>
<pdfrwt beam="1">  1        2 0.98951762E-01 0.80977145E+02</pdfrwt>
<pdfrwt beam="2">  1       -2 0.39211611E-03 0.80977145E+02</pdfrwt>
<totfact> 0.31699008E+05</totfact>
</mgrwt>
</event>
<event>
 5    1  0.3845386E+001  0.8347225E+02  0.7546771E-02  0.1319477E+00
          1   -1    0    0  501    0  0.00000000000E+00  0.00000000000E+00  0.42113042521E+02  0.42113042521E+02  0.00000000000E+00 0. -1.
         -1   -1    0    0    0  501 -0.00000000000E+00 -0.00000000000E+00 -0.41362581787E+02  0.41362581787E+02  0.00000000000E+00 0.  1.
         23    2    1    2    0    0  0.00000000000E+00  0.00000000000E+00  0.75046073417E+00  0.83475624309E+02  0.83472250853E+02 0.  0.
          2    1    3    3  502    0  0.93998350911E+01 -0.30932293100E+02  0.26772139786E+02  0.41975125073E+02  0.00000000000E+00 0. -1.
         -2    1    3    3    0  502 -0.93998350911E+01  0.30932293100E+02 -0.26021679052E+02  0.41500499236E+02  0.00000000000E+00 0.  1.
<mgrwt>
<rscale>  0 0.83472251E+02</rscale>
<asrwt>0</asrwt>
<pdfrwt beam="1">  1        1 0.64789296E-02 0.83472251E+02</pdfrwt>
<pdfrwt beam="2">  1       -1 0.63634741E-02 0.83472251E+02</pdfrwt>
<totfact> 0.11694584E+05</totfact>
</mgrwt>
</event>
<event>
 5    1  0.3845386E+001  0.9005052E+02  0.7546771E-02  0.1302729E+00
          1   -1    0    0  501    0  0.00000000000E+00  0.00000000000E+00  0.81104405976E+03  0.81104405976E+03  0.00000000000E+00 0. -1.
         -1   -1    0    0    0  501 -0.00000000000E+00 -0.00000000000E+00 -0.24995854475E+01  0.24995854475E+01  0.00000000000E+00 0.  1.
         23    2    1    2    0    0  0.00000000000E+00  0.00000000000E+00  0.80854447431E+03  0.81354364521E+03  0.90050517580E+02 0.  0.
          2    1    3    3  502    0 -0.34173639825E+02  0.16305749232E+02  0.18416895324E+03  0.18802105854E+03  0.00000000000E+00 0. -1.
         -2    1    3    3    0  502  0.34173639825E+02 -0.16305749232E+02  0.62437552108E+03  0.62552258667E+03  0.00000000000E+00 0.  1.
<mgrwt>
<rscale>  0 0.90050518E+02</rscale>
<asrwt>0</asrwt>
<pdfrwt beam="1">  1        1 0.12477580E+00 0.90050518E+02</pdfrwt>
<pdfrwt beam="2">  1       -1 0.38455225E-03 0.90050518E+02</pdfrwt>
<totfact> 0.14583245E+05</totfact>
</mgrwt>
</event>
<event>
 5    1  0.3845386E+001  0.8831807E+02  0.7546771E-02  0.1306977E+00
          1   -1    0    0  501    0  0.00000000000E+00  0.00000000000E+00  0.64042195112E+03  0.64042195112E+03  0.00000000000E+00 0. -1.
         -1   -1    0    0    0  501 -0.00000000000E+00 -0.00000000000E+00 -0.30448991244E+01  0.30448991244E+01  0.00000000000E+00 0.  1.
         23    2    1    2    0    0  0.00000000000E+00  0.00000000000E+00  0.63737705200E+03  0.64346685024E+03  0.88318066967E+02 0.  0.
          2    1    3    3  502    0 -0.21754788652E+02  0.15281775879E+02  0.57558021068E+03  0.57619387573E+03  0.00000000000E+00 0. -1.
         -2    1    3    3    0  502  0.21754788652E+02 -0.15281775879E+02  0.61796841317E+02  0.67272974515E+02  0.00000000000E+00 0.  1.
<mgrwt>
<rscale>  0 0.88318067E+02</rscale>
<asrwt>0</asrwt>
<pdfrwt beam="1">  1        1 0.98526347E-01 0.88318067E+02</pdfrwt>
<pdfrwt beam="2">  1       -1 0.46844653E-03 0.88318067E+02</pdfrwt>
<totfact> 0.15448610E+05</totfact>
</mgrwt>
</event>
<event>
 5    1  0.3845386E+001  0.8874657E+02  0.7546771E-02  0.1305916E+00
         -1   -1    0    0    0  501 -0.00000000000E+00  0.00000000000E+00  0.77263338436E+02  0.77263338436E+02  0.00000000000E+00 0.  1.
          1   -1    0    0  501    0  0.00000000000E+00 -0.00000000000E+00 -0.25484121467E+02  0.25484121467E+02  0.00000000000E+00 0. -1.
         23    2    1    2    0    0  0.00000000000E+00  0.00000000000E+00  0.51779216970E+02  0.10274745990E+03  0.88746567294E+02 0.  0.
          2    1    3    3  502    0  0.41549879949E+02  0.15315157660E+02  0.29172784034E+02  0.53028274592E+02  0.00000000000E+00 0.  1.
         -2    1    3    3    0  502 -0.41549879949E+02 -0.15315157660E+02  0.22606432936E+02  0.49719185311E+02  0.00000000000E+00 0. -1.
<mgrwt>
<rscale>  0 0.88746567E+02</rscale>
<asrwt>0</asrwt>
<pdfrwt beam="2">  1        1 0.39206341E-02 0.88746567E+02</pdfrwt>
<pdfrwt beam="1">  1       -1 0.11886667E-01 0.88746567E+02</pdfrwt>
<totfact> 0.91230010E+04</totfact>
</mgrwt>
</event>
<event>
 5    1  0.3845386E+001  0.9062891E+02  0.7546771E-02  0.1301336E+00
          2   -1    0    0  501    0  0.00000000000E+00  0.00000000000E+00  0.20796642183E+03  0.20796642183E+03  0.00000000000E+00 0. -1.
         -2   -1    0    0    0  501 -0.00000000000E+00 -0.00000000000E+00 -0.98737085950E+01  0.98737085950E+01  0.00000000000E+00 0.  1.
         23    2    1    2    0    0  0.00000000000E+00  0.00000000000E+00  0.19809271324E+03  0.21784013043E+03  0.90628910326E+02 0.  0.
          2    1    3    3  502    0 -0.26104664171E+02 -0.26046356527E+02  0.16234653068E+03  0.16648201766E+03  0.00000000000E+00 0. -1.
         -2    1    3    3    0  502  0.26104664171E+02  0.26046356527E+02  0.35746182559E+02  0.51358112771E+02  0.00000000000E+00 0.  1.
<mgrwt>
<rscale>  0 0.90628910E+02</rscale>
<asrwt>0</asrwt>
<pdfrwt beam="1">  1        2 0.31994831E-01 0.90628910E+02</pdfrwt>
<pdfrwt beam="2">  1       -2 0.15190322E-02 0.90628910E+02</pdfrwt>
<totfact> 0.15944864E+05</totfact>
</mgrwt>
</event>
<event>
 5    1  0.3845386E+001  0.9121044E+02  0.7546771E-02  0.1299947E+00
          1   -1    0    0  501    0  0.00000000000E+00  0.00000000000E+00  0.57220547111E+02  0.57220547111E+02  0.00000000000E+00 0. -1.
         -1   -1    0    0    0  501 -0.00000000000E+00 -0.00000000000E+00 -0.36347711540E+02  0.36347711540E+02  0.00000000000E+00 0.  1.
         23    2    1    2    0    0  0.00000000000E+00  0.00000000000E+00  0.20872835571E+02  0.93568258652E+02  0.91210436696E+02 0.  0.
          2    1    3    3  502    0  0.45774850207E+01 -0.28720343049E+02 -0.25600355479E+02  0.38745189051E+02  0.00000000000E+00 0.  1.
         -2    1    3    3    0  502 -0.45774850207E+01  0.28720343049E+02  0.46473191050E+02  0.54823069600E+02  0.00000000000E+00 0. -1.
<mgrwt>
<rscale>  0 0.91210437E+02</rscale>
<asrwt>0</asrwt>
<pdfrwt beam="1">  1        1 0.88031611E-02 0.91210437E+02</pdfrwt>
<pdfrwt beam="2">  1       -1 0.55919556E-02 0.91210437E+02</pdfrwt>
<totfact> 0.95585406E+04</totfact>
</mgrwt>
</event>
<event>
 5    1  0.3845386E+001  0.8325115E+02  0.7546771E-02  0.1320070E+00
         -2   -1    0    0    0  501 -0.00000000000E+00  0.00000000000E+00  0.21806443105E+01  0.21806443105E+01  0.00000000000E+00 0.  1.
          2   -1    0    0  501    0  0.00000000000E+00 -0.00000000000E+00 -0.79457631722E+03  0.79457631722E+03  0.00000000000E+00 0. -1.
         23    2    1    2    0    0  0.00000000000E+00  0.00000000000E+00 -0.79239567291E+03  0.79675696153E+03  0.83251145949E+02 0.  0.
          2    1    3    3  502    0  0.30189420974E+02  0.10711631006E+02 -0.65059163938E+03  0.65137978277E+03  0.00000000000E+00 0. -1.
         -2    1    3    3    0  502 -0.30189420974E+02 -0.10711631006E+02 -0.14180403353E+03  0.14537717876E+03  0.00000000000E+00 0.  1.
<mgrwt>
<rscale>  0 0.83251146E+02</rscale>
<asrwt>0</asrwt>
<pdfrwt beam="2">  1        2 0.12224253E+00 0.83251146E+02</pdfrwt>
<pdfrwt beam="1">  1       -2 0.33548368E-03 0.83251146E+02</pdfrwt>
<totfact> 0.30902925E+05</totfact>
</mgrwt>
</event>
<event>
 5    1  0.3845386E+001  0.9482489E+02  0.7546771E-02  0.1291571E+00
         -2   -1    0    0    0  501 -0.00000000000E+00  0.00000000000E+00  0.45550987841E+01  0.45550987841E+01  0.00000000000E+00 0.  1.
          2   -1    0    0  501    0  0.00000000000E+00 -0.00000000000E+00 -0.49349973464E+03  0.49349973464E+03  0.00000000000E+00 0. -1.
         23    2    1    2    0    0  0.00000000000E+00  0.00000000000E+00 -0.48894463586E+03  0.49805483342E+03  0.94824892116E+02 0.  0.
          2    1    3    3  502    0  0.45622283276E+02  0.12706349478E+02 -0.23261547114E+03  0.23738745010E+03  0.00000000000E+00 0. -1.
         -2    1    3    3    0  502 -0.45622283276E+02 -0.12706349478E+02 -0.25632916471E+03  0.26066738333E+03  0.00000000000E+00 0.  1.
<mgrwt>
<rscale>  0 0.94824892E+02</rscale>
<asrwt>0</asrwt>
<pdfrwt beam="2">  1        2 0.75922989E-01 0.94824892E+02</pdfrwt>
<pdfrwt beam="1">  1       -2 0.70078486E-03 0.94824892E+02</pdfrwt>
<totfact> 0.19336428E+05</totfact>
</mgrwt>
</event>
<event>
 5    1  0.3845386E+001  0.9189320E+02  0.7546771E-02  0.1298331E+00
         -2   -1    0    0    0  501 -0.00000000000E+00  0.00000000000E+00  0.24411139225E+01  0.24411139225E+01  0.00000000000E+00 0.  1.
          2   -1    0    0  501    0  0.00000000000E+00 -0.00000000000E+00 -0.86480603930E+03  0.86480603930E+03  0.00000000000E+00 0. -1.
         23    2    1    2    0    0  0.00000000000E+00  0.00000000000E+00 -0.86236492537E+03  0.86724715322E+03  0.91893200244E+02 0.  0.
          2    1    3    3  502    0  0.80921549025E+01  0.31446766075E+02 -0.73796949846E+03  0.73868353354E+03  0.00000000000E+00 0. -1.
         -2    1    3    3    0  502 -0.80921549025E+01 -0.31446766075E+02 -0.12439542692E+03  0.12856361968E+03  0.00000000000E+00 0.  1.
<mgrwt>
<rscale>  0 0.91893200E+02</rscale>
<asrwt>0</asrwt>
<pdfrwt beam="2">  1        2 0.13304703E+00 0.91893200E+02</pdfrwt>
<pdfrwt beam="1">  1       -2 0.37555614E-03 0.91893200E+02</pdfrwt>
<totfact> 0.24168147E+05</totfact>
</mgrwt>
</event>
<event>
 5    1  0.3845386E+001  0.9284480E+02  0.7546771E-02  0.1296105E+00
         -1   -1    0    0    0  501 -0.00000000000E+00  0.00000000000E+00  0.22603497984E+01  0.22603497984E+01  0.00000000000E+00 0.  1.
          1   -1    0    0  501    0  0.00000000000E+00 -0.00000000000E+00 -0.95340962255E+03  0.95340962255E+03  0.00000000000E+00 0. -1.
         23    2    1    2    0    0  0.00000000000E+00  0.00000000000E+00 -0.95114927275E+03  0.95566997235E+03  0.92844800567E+02 0.  0.
          2    1    3    3  502    0 -0.17366133944E+02  0.34252751757E+02 -0.74402899906E+03  0.74501945280E+03  0.00000000000E+00 0. -1.
         -2    1    3    3    0  502  0.17366133944E+02 -0.34252751757E+02 -0.20712027369E+03  0.21065051954E+03  0.00000000000E+00 0.  1.
<mgrwt>
<rscale>  0 0.92844801E+02</rscale>
<asrwt>0</asrwt>
<pdfrwt beam="2">  1        1 0.14667860E+00 0.92844801E+02</pdfrwt>
<pdfrwt beam="1">  1       -1 0.34774565E-03 0.92844801E+02</pdfrwt>
<totfact> 0.13116041E+05</totfact>
</mgrwt>
</event>
<event>
 5    1  0.3845386E+001  0.9370973E+02  0.7546771E-02  0.1294109E+00
         -4   -1    0    0    0  501 -0.00000000000E+00  0.00000000000E+00  0.28878721473E+02  0.28878721473E+02  0.00000000000E+00 0.  1.
          4   -1    0    0  501    0  0.00000000000E+00 -0.00000000000E+00 -0.76020629033E+02  0.76020629033E+02  0.00000000000E+00 0. -1.
         23    2    1    2    0    0  0.00000000000E+00  0.00000000000E+00 -0.47141907560E+02  0.10489935051E+03  0.93709734223E+02 0.  0.
          2    1    3    3  502    0  0.18677764909E+02  0.23591122958E+02 -0.63775886882E+02  0.70517825634E+02  0.00000000000E+00 0. -1.
         -2    1    3    3    0  502 -0.18677764909E+02 -0.23591122958E+02  0.16633979323E+02  0.34381524872E+02  0.00000000000E+00 0.  1.
<mgrwt>
<rscale>  0 0.93709734E+02</rscale>
<asrwt>0</asrwt>
<pdfrwt beam="2">  1        4 0.11695481E-01 0.93709734E+02</pdfrwt>
<pdfrwt beam="1">  1       -4 0.44428803E-02 0.93709734E+02</pdfrwt>
<totfact> 0.24280772E+04</totfact>
</mgrwt>
</event>
<event>
 5    1  0.3845386E+001  0.9067543E+02  0.7546771E-02  0.1301224E+00
          2   -1    0    0  501    0  0.00000000000E+00  0.00000000000E+00  0.31780225252E+02  0.31780225252E+02  0.00000000000E+00 0. -1.
         -2   -1    0    0    0  501 -0.00000000000E+00 -0.00000000000E+00 -0.64678843324E+02  0.64678843324E+02  0.00000000000E+00 0.  1.
         23    2    1    2    0    0  0.00000000000E+00  0.00000000000E+00 -0.32898618072E+02  0.96459068575E+02  0.90675425774E+02 0.  0.
          2    1    3    3  502    0 -0.19131641352E+02 -0.41094214314E+02 -0.15525555525E+02  0.47914476156E+02  0.00000000000E+00 0. -1.
         -2    1    3    3    0  502  0.19131641352E+02  0.41094214314E+02 -0.17373062547E+02  0.48544592420E+02  0.00000000000E+00 0.  1.
<mgrwt>
<rscale>  0 0.90675426E+02</rscale>
<asrwt>0</asrwt>
<pdfrwt beam="1">  1        2 0.48892654E-02 0.90675426E+02</pdfrwt>
<pdfrwt beam="2">  1       -2 0.99505913E-02 0.90675426E+02</pdfrwt>
<totfact> 0.91304193E+04</totfact>
</mgrwt>
</event>
<event>
 5    1  0.3845386E+001  0.9206572E+02  0.7546771E-02  0.1297925E+00
         -1   -1    0    0    0  501 -0.00000000000E+00  0.00000000000E+00  0.10677407899E+02  0.10677407899E+02  0.00000000000E+00 0.  1.
          1   -1    0    0  501    0  0.00000000000E+00 -0.00000000000E+00 -0.19845867464E+03  0.19845867464E+03  0.00000000000E+00 0. -1.
         23    2    1    2    0    0  0.00000000000E+00  0.00000000000E+00 -0.18778126675E+03  0.20913608254E+03  0.92065720443E+02 0.  0.
          2    1    3    3  502    0 -0.12332794631E+02 -0.35908939554E+02 -0.15301649402E+03  0.15765657996E+03  0.00000000000E+00 0. -1.
         -2    1    3    3    0  502  0.12332794631E+02  0.35908939554E+02 -0.34764772727E+02  0.51479502582E+02  0.00000000000E+00 0.  1.
<mgrwt>
<rscale>  0 0.92065720E+02</rscale>
<asrwt>0</asrwt>
<pdfrwt beam="2">  1        1 0.30532106E-01 0.92065720E+02</pdfrwt>
<pdfrwt beam="1">  1       -1 0.16426780E-02 0.92065720E+02</pdfrwt>
<totfact> 0.11518773E+05</totfact>
</mgrwt>
</event>
<event>
 5    1  0.3845386E+001  0.8869238E+02  0.7546771E-02  0.1306050E+00
         -1   -1    0    0    0  501 -0.00000000000E+00  0.00000000000E+00  0.58809796430E+02  0.58809796430E+02  0.00000000000E+00 0.  1.
          1   -1    0    0  501    0  0.00000000000E+00 -0.00000000000E+00 -0.33439746105E+02  0.33439746105E+02  0.00000000000E+00 0. -1.
         23    2    1    2    0    0  0.00000000000E+00  0.00000000000E+00  0.25370050325E+02  0.92249542534E+02  0.88692382110E+02 0.  0.
          2    1    3    3  502    0 -0.17271691144E+02 -0.39936600368E+02  0.37775997321E+01  0.43675091570E+02  0.00000000000E+00 0. -1.
         -2    1    3    3    0  502  0.17271691144E+02  0.39936600368E+02  0.21592450593E+02  0.48574450965E+02  0.00000000000E+00 0.  1.
<mgrwt>
<rscale>  0 0.88692382E+02</rscale>
<asrwt>0</asrwt>
<pdfrwt beam="2">  1        1 0.51445763E-02 0.88692382E+02</pdfrwt>
<pdfrwt beam="1">  1       -1 0.90476610E-02 0.88692382E+02</pdfrwt>
<totfact> 0.95399745E+04</totfact>
</mgrwt>
</event>
<event>
 5    1  0.3845386E+001  0.9220295E+02  0.7546771E-02  0.1297603E+00
         -1   -1    0    0    0  501 -0.00000000000E+00  0.00000000000E+00  0.92890831601E+00  0.92890831601E+00  0.00000000000E+00 0.  1.
          1   -1    0    0  501    0  0.00000000000E+00 -0.00000000000E+00 -0.22880042722E+04  0.22880042722E+04  0.00000000000E+00 0. -1.
         23    2    1    2    0    0  0.00000000000E+00  0.00000000000E+00 -0.22870753639E+04  0.22889331805E+04  0.92202954303E+02 0.  0.
          2    1    3    3  502    0 -0.38671772893E+02  0.86240227913E+01 -0.17286202757E+04  0.17290743007E+04  0.00000000000E+00 0. -1.
         -2    1    3    3    0  502  0.38671772893E+02 -0.86240227913E+01 -0.55845508821E+03  0.55985887984E+03  0.00000000000E+00 0.  1.
<mgrwt>
<rscale>  0 0.92202954E+02</rscale>
<asrwt>0</asrwt>
<pdfrwt beam="2">  1        1 0.35199452E+00 0.92202954E+02</pdfrwt>
<pdfrwt beam="1">  1       -1 0.14291147E-03 0.92202954E+02</pdfrwt>
<totfact> 0.61375350E+04</totfact>
</mgrwt>
</event>
<event>
 5    1  0.3845386E+001  0.9227140E+02  0.7546771E-02  0.1297443E+00
         -2   -1    0    0    0  501 -0.00000000000E+00  0.00000000000E+00  0.25484966173E+01  0.25484966173E+01  0.00000000000E+00 0.  1.
          2   -1    0    0  501    0  0.00000000000E+00 -0.00000000000E+00 -0.83519947828E+03  0.83519947828E+03  0.00000000000E+00 0. -1.
         23    2    1    2    0    0  0.00000000000E+00  0.00000000000E+00 -0.83265098167E+03  0.83774797490E+03  0.92271405000E+02 0.  0.
          2    1    3    3  502    0  0.39081024379E+02  0.24312948487E+02 -0.44511822792E+03  0.44749154490E+03  0.00000000000E+00 0. -1.
         -2    1    3    3    0  502 -0.39081024379E+02 -0.24312948487E+02 -0.38753275375E+03  0.39025643000E+03  0.00000000000E+00 0.  1.
<mgrwt>
<rscale>  0 0.92271405E+02</rscale>
<asrwt>0</asrwt>
<pdfrwt beam="2">  1        2 0.12849233E+00 0.92271405E+02</pdfrwt>
<pdfrwt beam="1">  1       -2 0.39207610E-03 0.92271405E+02</pdfrwt>
<totfact> 0.23787375E+05</totfact>
</mgrwt>
</event>
<event>
 5    1  0.3845386E+001  0.9268742E+02  0.7546771E-02  0.1296471E+00
         -1   -1    0    0    0  501 -0.00000000000E+00  0.00000000000E+00  0.40628758394E+02  0.40628758394E+02  0.00000000000E+00 0.  1.
          1   -1    0    0  501    0  0.00000000000E+00 -0.00000000000E+00 -0.52862538693E+02  0.52862538693E+02  0.00000000000E+00 0. -1.
         23    2    1    2    0    0  0.00000000000E+00  0.00000000000E+00 -0.12233780298E+02  0.93491297087E+02  0.92687416895E+02 0.  0.
          2    1    3    3  502    0 -0.99383062404E+01 -0.19491604117E+02 -0.47325186203E+02  0.52137949818E+02  0.00000000000E+00 0. -1.
         -2    1    3    3    0  502  0.99383062404E+01  0.19491604117E+02  0.35091405905E+02  0.41353347270E+02  0.00000000000E+00 0.  1.
<mgrwt>
<rscale>  0 0.92687417E+02</rscale>
<asrwt>0</asrwt>
<pdfrwt beam="2">  1        1 0.81326983E-02 0.92687417E+02</pdfrwt>
<pdfrwt beam="1">  1       -1 0.62505782E-02 0.92687417E+02</pdfrwt>
<totfact> 0.90307034E+04</totfact>
</mgrwt>
</event>
<event>
 5    1  0.3845386E+001  0.9333215E+02  0.7546771E-02  0.1294977E+00
         -1   -1    0    0    0  501 -0.00000000000E+00  0.00000000000E+00  0.20999712846E+02  0.20999712846E+02  0.00000000000E+00 0.  1.
          1   -1    0    0  501    0  0.00000000000E+00 -0.00000000000E+00 -0.10370250250E+03  0.10370250250E+03  0.00000000000E+00 0. -1.
         23    2    1    2    0    0  0.00000000000E+00  0.00000000000E+00 -0.82702789650E+02  0.12470221534E+03  0.93332154669E+02 0.  0.
          2    1    3    3  502    0 -0.79377690361E+01  0.37250056874E+02 -0.77380563521E+02  0.86245733374E+02  0.00000000000E+00 0. -1.
         -2    1    3    3    0  502  0.79377690361E+01 -0.37250056874E+02 -0.53222261291E+01  0.38456481968E+02  0.00000000000E+00 0.  1.
<mgrwt>
<rscale>  0 0.93332155E+02</rscale>
<asrwt>0</asrwt>
<pdfrwt beam="2">  1        1 0.15954231E-01 0.93332155E+02</pdfrwt>
<pdfrwt beam="1">  1       -1 0.32307251E-02 0.93332155E+02</pdfrwt>
<totfact> 0.98594847E+04</totfact>
</mgrwt>
</event>
<event>
 5    1  0.3845386E+001  0.9214788E+02  0.7546771E-02  0.1297732E+00
          1   -1    0    0  501    0  0.00000000000E+00  0.00000000000E+00  0.11063801302E+04  0.11063801302E+04  0.00000000000E+00 0. -1.
         -1   -1    0    0    0  501 -0.00000000000E+00 -0.00000000000E+00 -0.19186965779E+01  0.19186965779E+01  0.00000000000E+00 0.  1.
         23    2    1    2    0    0  0.00000000000E+00  0.00000000000E+00  0.11044614337E+04  0.11082988268E+04  0.92147876151E+02 0.  0.
          2    1    3    3  502    0  0.15709547378E+02 -0.33670512465E+02  0.87992246864E+03  0.88070655959E+03  0.00000000000E+00 0. -1.
         -2    1    3    3    0  502 -0.15709547378E+02  0.33670512465E+02  0.22453896502E+03  0.22759226722E+03  0.00000000000E+00 0.  1.
<mgrwt>
<rscale>  0 0.92147876E+02</rscale>
<asrwt>0</asrwt>
<pdfrwt beam="1">  1        1 0.17021182E+00 0.92147876E+02</pdfrwt>
<pdfrwt beam="2">  1       -1 0.29518497E-03 0.92147876E+02</pdfrwt>
<totfact> 0.12808064E+05</totfact>
</mgrwt>
</event>
<event>
 5    1  0.3845386E+001  0.9098190E+02  0.7546771E-02  0.1300491E+00
          1   -1    0    0  501    0  0.00000000000E+00  0.00000000000E+00  0.52463051669E+03  0.52463051669E+03  0.00000000000E+00 0. -1.
         -1   -1    0    0    0  501 -0.00000000000E+00 -0.00000000000E+00 -0.39445407387E+01  0.39445407387E+01  0.00000000000E+00 0.  1.
         23    2    1    2    0    0  0.00000000000E+00  0.00000000000E+00  0.52068597595E+03  0.52857505743E+03  0.90981898108E+02 0.  0.
          2    1    3    3  502    0 -0.38660358334E+02 -0.12382792149E+02  0.37961397110E+03  0.38177837014E+03  0.00000000000E+00 0. -1.
         -2    1    3    3    0  502  0.38660358334E+02  0.12382792149E+02  0.14107200485E+03  0.14679668729E+03  0.00000000000E+00 0.  1.
<mgrwt>
<rscale>  0 0.90981898E+02</rscale>
<asrwt>0</asrwt>
<pdfrwt beam="1">  1        1 0.80712332E-01 0.90981898E+02</pdfrwt>
<pdfrwt beam="2">  1       -1 0.60685284E-03 0.90981898E+02</pdfrwt>
<totfact> 0.14080976E+05</totfact>
</mgrwt>
</event>
<event>
 5    1  0.3845386E+001  0.9112581E+02  0.7546771E-02  0.1300148E+00
          1   -1    0    0  501    0  0.00000000000E+00  0.00000000000E+00  0.80105264354E+02  0.80105264354E+02  0.00000000000E+00 0. -1.
         -1   -1    0    0    0  501 -0.00000000000E+00 -0.00000000000E+00 -0.25915626593E+02  0.25915626593E+02  0.00000000000E+00 0.  1.
         23    2    1    2    0    0  0.00000000000E+00  0.00000000000E+00  0.54189637761E+02  0.10602089095E+03  0.91125805766E+02 0.  0.
          2    1    3    3  502    0 -0.27542024369E+01 -0.43088614170E+02  0.10164078660E+02  0.44356767209E+02  0.00000000000E+00 0. -1.
         -2    1    3    3    0  502  0.27542024369E+01  0.43088614170E+02  0.44025559102E+02  0.61664123738E+02  0.00000000000E+00 0.  1.
<mgrwt>
<rscale>  0 0.91125806E+02</rscale>
<asrwt>0</asrwt>
<pdfrwt beam="1">  1        1 0.12323887E-01 0.91125806E+02</pdfrwt>
<pdfrwt beam="2">  1       -1 0.39870195E-02 0.91125806E+02</pdfrwt>
<totfact> 0.10092019E+05</totfact>
</mgrwt>
</event>
<event>
 5    1  0.3845386E+001  0.9235603E+02  0.7546771E-02  0.1297244E+00
         -2   -1    0    0    0  501 -0.00000000000E+00  0.00000000000E+00  0.46392874709E+01  0.46392874709E+01  0.00000000000E+00 0.  1.
          2   -1    0    0  501    0  0.00000000000E+00 -0.00000000000E+00 -0.45964154446E+03  0.45964154446E+03  0.00000000000E+00 0. -1.
         23    2    1    2    0    0  0.00000000000E+00  0.00000000000E+00 -0.45500225699E+03  0.46428083193E+03  0.92356034092E+02 0.  0.
          2    1    3    3  502    0  0.39018633383E+02  0.31010423480E+01 -0.35067363326E+03  0.35285133878E+03  0.00000000000E+00 0. -1.
         -2    1    3    3    0  502 -0.39018633383E+02 -0.31010423480E+01 -0.10432862373E+03  0.11142949315E+03  0.00000000000E+00 0.  1.
<mgrwt>
<rscale>  0 0.92356034E+02</rscale>
<asrwt>0</asrwt>
<pdfrwt beam="2">  1        2 0.70714109E-01 0.92356034E+02</pdfrwt>
<pdfrwt beam="1">  1       -2 0.71373628E-03 0.92356034E+02</pdfrwt>
<totfact> 0.20252772E+05</totfact>
</mgrwt>
</event>
<event>
 5    1  0.3845386E+001  0.9118736E+02  0.7546771E-02  0.1300002E+00
          3   -1    0    0  501    0  0.00000000000E+00  0.00000000000E+00  0.75389075094E+02  0.75389075094E+02  0.00000000000E+00 0. -1.
         -3   -1    0    0    0  501 -0.00000000000E+00 -0.00000000000E+00 -0.27574071996E+02  0.27574071996E+02  0.00000000000E+00 0.  1.
         23    2    1    2    0    0  0.00000000000E+00  0.00000000000E+00  0.47815003098E+02  0.10296314709E+03  0.91187362816E+02 0.  0.
          2    1    3    3  502    0 -0.34346059891E+02 -0.29633616518E+02  0.29079488399E+02  0.53883389867E+02  0.00000000000E+00 0. -1.
         -2    1    3    3    0  502  0.34346059891E+02  0.29633616518E+02  0.18735514699E+02  0.49079757223E+02  0.00000000000E+00 0.  1.
<mgrwt>
<rscale>  0 0.91187363E+02</rscale>
<asrwt>0</asrwt>
<pdfrwt beam="1">  1        3 0.11598319E-01 0.91187363E+02</pdfrwt>
<pdfrwt beam="2">  1       -3 0.42421649E-02 0.91187363E+02</pdfrwt>
<totfact> 0.34442112E+04</totfact>
</mgrwt>
</event>
<event>
 5    1  0.3845386E+001  0.9316816E+02  0.7546771E-02  0.1295356E+00
          2   -1    0    0  501    0  0.00000000000E+00  0.00000000000E+00  0.55205838222E+03  0.55205838222E+03  0.00000000000E+00 0. -1.
         -2   -1    0    0    0  501 -0.00000000000E+00 -0.00000000000E+00 -0.39308824972E+01  0.39308824972E+01  0.00000000000E+00 0.  1.
         23    2    1    2    0    0  0.00000000000E+00  0.00000000000E+00  0.54812749972E+03  0.55598926471E+03  0.93168162632E+02 0.  0.
          2    1    3    3  502    0 -0.36342166818E+02 -0.20885472534E+02  0.15277031622E+03  0.15841630462E+03  0.00000000000E+00 0. -1.
         -2    1    3    3    0  502  0.36342166818E+02  0.20885472534E+02  0.39535718350E+03  0.39757296009E+03  0.00000000000E+00 0.  1.
<mgrwt>
<rscale>  0 0.93168163E+02</rscale>
<asrwt>0</asrwt>
<pdfrwt beam="1">  1        2 0.84931997E-01 0.93168163E+02</pdfrwt>
<pdfrwt beam="2">  1       -2 0.60475159E-03 0.93168163E+02</pdfrwt>
<totfact> 0.20996891E+05</totfact>
</mgrwt>
</event>
<event>
 5    1  0.3845386E+001  0.8962924E+02  0.7546771E-02  0.1303752E+00
         -2   -1    0    0    0  501 -0.00000000000E+00  0.00000000000E+00  0.10564369950E+01  0.10564369950E+01  0.00000000000E+00 0.  1.
          2   -1    0    0  501    0  0.00000000000E+00 -0.00000000000E+00 -0.19010601818E+04  0.19010601818E+04  0.00000000000E+00 0. -1.
         23    2    1    2    0    0  0.00000000000E+00  0.00000000000E+00 -0.19000037448E+04  0.19021166188E+04  0.89629243123E+02 0.  0.
          2    1    3    3  502    0  0.73557129380E+01  0.42774555961E+02 -0.71312994828E+03  0.71444950297E+03  0.00000000000E+00 0.  1.
         -2    1    3    3    0  502 -0.73557129380E+01 -0.42774555961E+02 -0.11868737966E+04  0.11876671159E+04  0.00000000000E+00 0. -1.
<mgrwt>
<rscale>  0 0.89629243E+02</rscale>
<asrwt>0</asrwt>
<pdfrwt beam="2">  1        2 0.29247070E+00 0.89629243E+02</pdfrwt>
<pdfrwt beam="1">  1       -2 0.16252882E-03 0.89629243E+02</pdfrwt>
<totfact> 0.21521594E+05</totfact>
</mgrwt>
</event>
<event>
 5    1  0.3845386E+001  0.9112996E+02  0.7546771E-02  0.1300138E+00
         -2   -1    0    0    0  501 -0.00000000000E+00  0.00000000000E+00  0.19767460822E+01  0.19767460822E+01  0.00000000000E+00 0.  1.
          2   -1    0    0  501    0  0.00000000000E+00 -0.00000000000E+00 -0.10502955524E+04  0.10502955524E+04  0.00000000000E+00 0. -1.
         23    2    1    2    0    0  0.00000000000E+00  0.00000000000E+00 -0.10483188063E+04  0.10522722985E+04  0.91129964740E+02 0.  0.
          2    1    3    3  502    0 -0.13073167410E+02 -0.42941355135E+02 -0.61456533554E+03  0.61620241750E+03  0.00000000000E+00 0. -1.
         -2    1    3    3    0  502  0.13073167410E+02  0.42941355135E+02 -0.43375347076E+03  0.43606988096E+03  0.00000000000E+00 0.  1.
<mgrwt>
<rscale>  0 0.91129965E+02</rscale>
<asrwt>0</asrwt>
<pdfrwt beam="2">  1        2 0.16158417E+00 0.91129965E+02</pdfrwt>
<pdfrwt beam="1">  1       -2 0.30411433E-03 0.91129965E+02</pdfrwt>
<totfact> 0.25066490E+05</totfact>
</mgrwt>
</event>
<event>
 5    1  0.3845386E+001  0.8998292E+02  0.7546771E-02  0.1302893E+00
          1   -1    0    0  501    0  0.00000000000E+00  0.00000000000E+00  0.41628625017E+03  0.41628625017E+03  0.00000000000E+00 0. -1.
         -1   -1    0    0    0  501 -0.00000000000E+00 -0.00000000000E+00 -0.48625954632E+01  0.48625954632E+01  0.00000000000E+00 0.  1.
         23    2    1    2    0    0  0.00000000000E+00  0.00000000000E+00  0.41142365470E+03  0.42114884563E+03  0.89982923523E+02 0.  0.
          2    1    3    3  502    0  0.54895948882E+01 -0.35180136623E+02  0.33443797360E+03  0.33632801824E+03  0.00000000000E+00 0. -1.
         -2    1    3    3    0  502 -0.54895948882E+01  0.35180136623E+02  0.76985681104E+02  0.84820827395E+02  0.00000000000E+00 0.  1.
<mgrwt>
<rscale>  0 0.89982924E+02</rscale>
<asrwt>0</asrwt>
<pdfrwt beam="1">  1        1 0.64044011E-01 0.89982924E+02</pdfrwt>
<pdfrwt beam="2">  1       -1 0.74809194E-03 0.89982924E+02</pdfrwt>
<totfact> 0.14058763E+05</totfact>
</mgrwt>
</event>
<event>
 5    1  0.3845386E+001  0.9084711E+02  0.7546771E-02  0.1300813E+00
         -1   -1    0    0    0  501 -0.00000000000E+00  0.00000000000E+00  0.10555166210E+02  0.10555166210E+02  0.00000000000E+00 0.  1.
          1   -1    0    0  501    0  0.00000000000E+00 -0.00000000000E+00 -0.19547767034E+03  0.19547767034E+03  0.00000000000E+00 0. -1.
         23    2    1    2    0    0  0.00000000000E+00  0.00000000000E+00 -0.18492250413E+03  0.20603283655E+03  0.90847108942E+02 0.  0.
          2    1    3    3  502    0 -0.33578374964E+02  0.28900239173E+02 -0.11520466798E+03  0.12342952083E+03  0.00000000000E+00 0. -1.
         -2    1    3    3    0  502  0.33578374964E+02 -0.28900239173E+02 -0.69717836155E+02  0.82603315718E+02  0.00000000000E+00 0.  1.
<mgrwt>
<rscale>  0 0.90847109E+02</rscale>
<asrwt>0</asrwt>
<pdfrwt beam="2">  1        1 0.30073490E-01 0.90847109E+02</pdfrwt>
<pdfrwt beam="1">  1       -1 0.16238716E-02 0.90847109E+02</pdfrwt>
<totfact> 0.11903370E+05</totfact>
</mgrwt>
</event>
<event>
 5    1  0.3845386E+001  0.9053782E+02  0.7546771E-02  0.1301554E+00
          2   -1    0    0  501    0  0.00000000000E+00  0.00000000000E+00  0.69839576594E+03  0.69839576594E+03  0.00000000000E+00 0. -1.
         -2   -1    0    0    0  501 -0.00000000000E+00 -0.00000000000E+00 -0.29342594688E+01  0.29342594688E+01  0.00000000000E+00 0.  1.
         23    2    1    2    0    0  0.00000000000E+00  0.00000000000E+00  0.69546150647E+03  0.70133002541E+03  0.90537823900E+02 0.  0.
          2    1    3    3  502    0 -0.41314361816E+01  0.32291430830E+02  0.10406555625E+03  0.10903873288E+03  0.00000000000E+00 0. -1.
         -2    1    3    3    0  502  0.41314361816E+01 -0.32291430830E+02  0.59139595022E+03  0.59229129253E+03  0.00000000000E+00 0.  1.
<mgrwt>
<rscale>  0 0.90537824E+02</rscale>
<asrwt>0</asrwt>
<pdfrwt beam="1">  1        2 0.10744537E+00 0.90537824E+02</pdfrwt>
<pdfrwt beam="2">  1       -2 0.45142509E-03 0.90537824E+02</pdfrwt>
<totfact> 0.24145214E+05</totfact>
</mgrwt>
</event>
<event>
 5    1  0.3845386E+001  0.9320075E+02  0.7546771E-02  0.1295281E+00
         -1   -1    0    0    0  501 -0.00000000000E+00  0.00000000000E+00  0.53963473559E+01  0.53963473559E+01  0.00000000000E+00 0.  1.
          1   -1    0    0  501    0  0.00000000000E+00 -0.00000000000E+00 -0.40241940261E+03  0.40241940261E+03  0.00000000000E+00 0. -1.
         23    2    1    2    0    0  0.00000000000E+00  0.00000000000E+00 -0.39702305526E+03  0.40781574997E+03  0.93200748479E+02 0.  0.
          2    1    3    3  502    0 -0.38393194414E+02  0.13018377345E+02 -0.29906433218E+03  0.30179958633E+03  0.00000000000E+00 0. -1.
         -2    1    3    3    0  502  0.38393194414E+02 -0.13018377345E+02 -0.97958723076E+02  0.10601616364E+03  0.00000000000E+00 0.  1.
<mgrwt>
<rscale>  0 0.93200748E+02</rscale>
<asrwt>0</asrwt>
<pdfrwt beam="2">  1        1 0.61910679E-01 0.93200748E+02</pdfrwt>
<pdfrwt beam="1">  1       -1 0.83020726E-03 0.93200748E+02</pdfrwt>
<totfact> 0.12736675E+05</totfact>
</mgrwt>
</event>
<event>
 5    1  0.3845386E+001  0.9226270E+02  0.7546771E-02  0.1297463E+00
         -2   -1    0    0    0  501 -0.00000000000E+00  0.00000000000E+00  0.99594194138E+01  0.99594194138E+01  0.00000000000E+00 0.  1.
          2   -1    0    0  501    0  0.00000000000E+00 -0.00000000000E+00 -0.21367726251E+03  0.21367726251E+03  0.00000000000E+00 0. -1.
         23    2    1    2    0    0  0.00000000000E+00  0.00000000000E+00 -0.20371784310E+03  0.22363668192E+03  0.92262700514E+02 0.  0.
          2    1    3    3  502    0 -0.25464347132E+02 -0.35237527762E+02 -0.13925204962E+03  0.14588094344E+03  0.00000000000E+00 0. -1.
         -2    1    3    3    0  502  0.25464347132E+02  0.35237527762E+02 -0.64465793479E+02  0.77755738480E+02  0.00000000000E+00 0.  1.
<mgrwt>
<rscale>  0 0.92262701E+02</rscale>
<asrwt>0</asrwt>
<pdfrwt beam="2">  1        2 0.32873427E-01 0.92262701E+02</pdfrwt>
<pdfrwt beam="1">  1       -2 0.15322183E-02 0.92262701E+02</pdfrwt>
<totfact> 0.15347233E+05</totfact>
</mgrwt>
</event>
<event>
 5    1  0.3845386E+001  0.9091725E+02  0.7546771E-02  0.1300646E+00
          1   -1    0    0  501    0  0.00000000000E+00  0.00000000000E+00  0.56182229795E+02  0.56182229795E+02  0.00000000000E+00 0. -1.
         -1   -1    0    0    0  501 -0.00000000000E+00 -0.00000000000E+00 -0.36781850350E+02  0.36781850350E+02  0.00000000000E+00 0.  1.
         23    2    1    2    0    0  0.00000000000E+00  0.00000000000E+00  0.19400379445E+02  0.92964080145E+02  0.90917245199E+02 0.  0.
          2    1    3    3  502    0  0.42895073311E+02 -0.14460229415E+02  0.13965530754E+02  0.47372160583E+02  0.00000000000E+00 0.  1.
         -2    1    3    3    0  502 -0.42895073311E+02  0.14460229415E+02  0.54348486908E+01  0.45591919562E+02  0.00000000000E+00 0. -1.
<mgrwt>
<rscale>  0 0.90917245E+02</rscale>
<asrwt>0</asrwt>
<pdfrwt beam="1">  1        1 0.86434200E-02 0.90917245E+02</pdfrwt>
<pdfrwt beam="2">  1       -1 0.56587462E-02 0.90917245E+02</pdfrwt>
<totfact> 0.96179471E+04</totfact>
</mgrwt>
</event>
<event>
 5    1  0.3845386E+001  0.7682636E+02  0.7546771E-02  0.1338307E+00
          2   -1    0    0  501    0  0.00000000000E+00  0.00000000000E+00  0.56535526233E+02  0.56535526233E+02  0.00000000000E+00 0. -1.
         -2   -1    0    0    0  501 -0.00000000000E+00 -0.00000000000E+00 -0.26099915289E+02  0.26099915289E+02  0.00000000000E+00 0.  1.
         23    2    1    2    0    0  0.00000000000E+00  0.00000000000E+00  0.30435610944E+02  0.82635441521E+02  0.76826361243E+02 0.  0.
          2    1    3    3  502    0 -0.15379111303E+02  0.19488143431E+02 -0.16311929325E+02  0.29704946341E+02  0.00000000000E+00 0.  1.
         -2    1    3    3    0  502  0.15379111303E+02 -0.19488143431E+02  0.46747540269E+02  0.52930495180E+02  0.00000000000E+00 0. -1.
<mgrwt>
<rscale>  0 0.76826361E+02</rscale>
<asrwt>0</asrwt>
<pdfrwt beam="1">  1        2 0.86977732E-02 0.76826361E+02</pdfrwt>
<pdfrwt beam="2">  1       -2 0.40153716E-02 0.76826361E+02</pdfrwt>
<totfact> 0.16823653E+05</totfact>
</mgrwt>
</event>
<event>
 5    1  0.3845386E+001  0.9102988E+02  0.7546771E-02  0.1300377E+00
         -1   -1    0    0    0  501 -0.00000000000E+00  0.00000000000E+00  0.33861753667E+01  0.33861753667E+01  0.00000000000E+00 0.  1.
          1   -1    0    0  501    0  0.00000000000E+00 -0.00000000000E+00 -0.61178456272E+03  0.61178456272E+03  0.00000000000E+00 0. -1.
         23    2    1    2    0    0  0.00000000000E+00  0.00000000000E+00 -0.60839838735E+03  0.61517073808E+03  0.91029881160E+02 0.  0.
          2    1    3    3  502    0  0.32287082013E+02  0.28609121914E+02 -0.40228708674E+03  0.40459342268E+03  0.00000000000E+00 0. -1.
         -2    1    3    3    0  502 -0.32287082013E+02 -0.28609121914E+02 -0.20611130061E+03  0.21057731540E+03  0.00000000000E+00 0.  1.
<mgrwt>
<rscale>  0 0.91029881E+02</rscale>
<asrwt>0</asrwt>
<pdfrwt beam="2">  1        1 0.94120617E-01 0.91029881E+02</pdfrwt>
<pdfrwt beam="1">  1       -1 0.52095053E-03 0.91029881E+02</pdfrwt>
<totfact> 0.14234802E+05</totfact>
</mgrwt>
</event>
<event>
 5    1  0.3845386E+001  0.9156132E+02  0.7546771E-02  0.1299114E+00
          1   -1    0    0  501    0  0.00000000000E+00  0.00000000000E+00  0.74049388700E+02  0.74049388700E+02  0.00000000000E+00 0. -1.
         -1   -1    0    0    0  501 -0.00000000000E+00 -0.00000000000E+00 -0.28303664391E+02  0.28303664391E+02  0.00000000000E+00 0.  1.
         23    2    1    2    0    0  0.00000000000E+00  0.00000000000E+00  0.45745724309E+02  0.10235305309E+03  0.91561324721E+02 0.  0.
          2    1    3    3  502    0 -0.40173666675E+02 -0.88421172800E+01  0.45335033315E+02  0.61215780464E+02  0.00000000000E+00 0. -1.
         -2    1    3    3    0  502  0.40173666675E+02  0.88421172800E+01  0.41069099316E+00  0.41137272627E+02  0.00000000000E+00 0.  1.
<mgrwt>
<rscale>  0 0.91561325E+02</rscale>
<asrwt>0</asrwt>
<pdfrwt beam="1">  1        1 0.11392214E-01 0.91561325E+02</pdfrwt>
<pdfrwt beam="2">  1       -1 0.43544099E-02 0.91561325E+02</pdfrwt>
<totfact> 0.98383457E+04</totfact>
</mgrwt>
</event>
<event>
 5    1  0.3845386E+001  0.8427238E+02  0.7546771E-02  0.1317346E+00
         -2   -1    0    0    0  501 -0.00000000000E+00  0.00000000000E+00  0.85348101902E+01  0.85348101902E+01  0.00000000000E+00 0.  1.
          2   -1    0    0  501    0  0.00000000000E+00 -0.00000000000E+00 -0.20802554432E+03  0.20802554432E+03  0.00000000000E+00 0. -1.
         23    2    1    2    0    0  0.00000000000E+00  0.00000000000E+00 -0.19949073413E+03  0.21656035451E+03  0.84272380660E+02 0.  0.
          2    1    3    3  502    0 -0.37859303692E+02 -0.17056192263E+02 -0.81354387986E+02  0.91338803447E+02  0.00000000000E+00 0. -1.
         -2    1    3    3    0  502  0.37859303692E+02  0.17056192263E+02 -0.11813634615E+03  0.12522155107E+03  0.00000000000E+00 0.  1.
<mgrwt>
<rscale>  0 0.84272381E+02</rscale>
<asrwt>0</asrwt>
<pdfrwt beam="2">  1        2 0.32003928E-01 0.84272381E+02</pdfrwt>
<pdfrwt beam="1">  1       -2 0.13130478E-02 0.84272381E+02</pdfrwt>
<totfact> 0.19370207E+05</totfact>
</mgrwt>
</event>
<event>
 5    1  0.3845386E+001  0.9876796E+02  0.7546771E-02  0.1282908E+00
          1   -1    0    0  501    0  0.00000000000E+00  0.00000000000E+00  0.42066570097E+02  0.42066570097E+02  0.00000000000E+00 0. -1.
         -1   -1    0    0    0  501 -0.00000000000E+00 -0.00000000000E+00 -0.57974238257E+02  0.57974238257E+02  0.00000000000E+00 0.  1.
         23    2    1    2    0    0  0.00000000000E+00  0.00000000000E+00 -0.15907668160E+02  0.10004080835E+03  0.98767957505E+02 0.  0.
          2    1    3    3  502    0  0.36027222565E+02  0.10919568335E+02  0.24420230559E+02  0.44872546160E+02  0.00000000000E+00 0. -1.
         -2    1    3    3    0  502 -0.36027222565E+02 -0.10919568335E+02 -0.40327898719E+02  0.55168262193E+02  0.00000000000E+00 0.  1.
<mgrwt>
<rscale>  0 0.98767958E+02</rscale>
<asrwt>0</asrwt>
<pdfrwt beam="1">  1        1 0.64717800E-02 0.98767958E+02</pdfrwt>
<pdfrwt beam="2">  1       -1 0.89191136E-02 0.98767958E+02</pdfrwt>
<totfact> 0.72801366E+04</totfact>
</mgrwt>
</event>
<event>
 5    1  0.3845386E+001  0.9106985E+02  0.7546771E-02  0.1300281E+00
         -2   -1    0    0    0  501 -0.00000000000E+00  0.00000000000E+00  0.12918878762E+01  0.12918878762E+01  0.00000000000E+00 0.  1.
          2   -1    0    0  501    0  0.00000000000E+00 -0.00000000000E+00 -0.16049606773E+04  0.16049606773E+04  0.00000000000E+00 0. -1.
         23    2    1    2    0    0  0.00000000000E+00  0.00000000000E+00 -0.16036687894E+04  0.16062525652E+04  0.91069846619E+02 0.  0.
          2    1    3    3  502    0  0.17306178225E+02 -0.24503921118E+02 -0.14060301686E+04  0.14063501630E+04  0.00000000000E+00 0.  1.
         -2    1    3    3    0  502 -0.17306178225E+02  0.24503921118E+02 -0.19763862082E+03  0.19990240217E+03  0.00000000000E+00 0. -1.
<mgrwt>
<rscale>  0 0.91069847E+02</rscale>
<asrwt>0</asrwt>
<pdfrwt beam="2">  1        2 0.24691753E+00 0.91069847E+02</pdfrwt>
<pdfrwt beam="1">  1       -2 0.19875158E-03 0.91069847E+02</pdfrwt>
<totfact> 0.22991399E+05</totfact>
</mgrwt>
</event>
<event>
 5    1  0.3845386E+001  0.9264103E+02  0.7546771E-02  0.1296579E+00
          2   -1    0    0  501    0  0.00000000000E+00  0.00000000000E+00  0.15043422091E+04  0.15043422091E+04  0.00000000000E+00 0. -1.
         -2   -1    0    0    0  501 -0.00000000000E+00 -0.00000000000E+00 -0.14262645630E+01  0.14262645630E+01  0.00000000000E+00 0.  1.
         23    2    1    2    0    0  0.00000000000E+00  0.00000000000E+00  0.15029159445E+04  0.15057684737E+04  0.92641027269E+02 0.  0.
          2    1    3    3  502    0  0.33472340342E+01  0.31641388541E+02  0.20430374732E+03  0.20676654133E+03  0.00000000000E+00 0.  1.
         -2    1    3    3    0  502 -0.33472340342E+01 -0.31641388541E+02  0.12986121972E+04  0.12990019323E+04  0.00000000000E+00 0. -1.
<mgrwt>
<rscale>  0 0.92641027E+02</rscale>
<asrwt>0</asrwt>
<pdfrwt beam="1">  1        2 0.23143599E+00 0.92641027E+02</pdfrwt>
<pdfrwt beam="2">  1       -2 0.21942652E-03 0.92641027E+02</pdfrwt>
<totfact> 0.22601188E+05</totfact>
</mgrwt>
</event>
<event>
 5    1  0.3845386E+001  0.9176634E+02  0.7546771E-02  0.1298630E+00
          2   -1    0    0  501    0  0.00000000000E+00  0.00000000000E+00  0.15132163393E+04  0.15132163393E+04  0.00000000000E+00 0. -1.
         -2   -1    0    0    0  501 -0.00000000000E+00 -0.00000000000E+00 -0.13912519001E+01  0.13912519001E+01  0.00000000000E+00 0.  1.
         23    2    1    2    0    0  0.00000000000E+00  0.00000000000E+00  0.15118250874E+04  0.15146075912E+04  0.91766336036E+02 0.  0.
          2    1    3    3  502    0 -0.34731467475E+02  0.29943572605E+02  0.78133639070E+03  0.78268093614E+03  0.00000000000E+00 0. -1.
         -2    1    3    3    0  502  0.34731467475E+02 -0.29943572605E+02  0.73048869673E+03  0.73192665509E+03  0.00000000000E+00 0.  1.
<mgrwt>
<rscale>  0 0.91766336E+02</rscale>
<asrwt>0</asrwt>
<pdfrwt beam="1">  1        2 0.23280120E+00 0.91766336E+02</pdfrwt>
<pdfrwt beam="2">  1       -2 0.21403996E-03 0.91766336E+02</pdfrwt>
<totfact> 0.23121065E+05</totfact>
</mgrwt>
</event>
<event>
 5    1  0.3845386E+001  0.8999754E+02  0.7546771E-02  0.1302858E+00
         -2   -1    0    0    0  501 -0.00000000000E+00  0.00000000000E+00  0.16518257664E+01  0.16518257664E+01  0.00000000000E+00 0.  1.
          2   -1    0    0  501    0  0.00000000000E+00 -0.00000000000E+00 -0.12258491343E+04  0.12258491343E+04  0.00000000000E+00 0. -1.
         23    2    1    2    0    0  0.00000000000E+00  0.00000000000E+00 -0.12241973086E+04  0.12275009601E+04  0.89997537430E+02 0.  0.
          2    1    3    3  502    0  0.96032850821E+01  0.17783268973E+02 -0.63735183884E+02  0.66862855193E+02  0.00000000000E+00 0.  1.
         -2    1    3    3    0  502 -0.96032850821E+01 -0.17783268973E+02 -0.11604621247E+04  0.11606381049E+04  0.00000000000E+00 0. -1.
<mgrwt>
<rscale>  0 0.89997537E+02</rscale>
<asrwt>0</asrwt>
<pdfrwt beam="2">  1        2 0.18859266E+00 0.89997537E+02</pdfrwt>
<pdfrwt beam="1">  1       -2 0.25412639E-03 0.89997537E+02</pdfrwt>
<totfact> 0.25669103E+05</totfact>
</mgrwt>
</event>
<event>
 5    1  0.3845386E+001  0.9099048E+02  0.7546771E-02  0.1300471E+00
          2   -1    0    0  501    0  0.00000000000E+00  0.00000000000E+00  0.11129116676E+04  0.11129116676E+04  0.00000000000E+00 0. -1.
         -2   -1    0    0    0  501 -0.00000000000E+00 -0.00000000000E+00 -0.18598213572E+01  0.18598213572E+01  0.00000000000E+00 0.  1.
         23    2    1    2    0    0  0.00000000000E+00  0.00000000000E+00  0.11110518462E+04  0.11147714889E+04  0.90990480557E+02 0.  0.
          2    1    3    3  502    0 -0.29933093536E+02  0.33846856474E+02  0.62060571125E+03  0.62224838177E+03  0.00000000000E+00 0.  1.
         -2    1    3    3    0  502  0.29933093536E+02 -0.33846856474E+02  0.49044613498E+03  0.49252310717E+03  0.00000000000E+00 0. -1.
<mgrwt>
<rscale>  0 0.90990481E+02</rscale>
<asrwt>0</asrwt>
<pdfrwt beam="1">  1        2 0.17121665E+00 0.90990481E+02</pdfrwt>
<pdfrwt beam="2">  1       -2 0.28612725E-03 0.90990481E+02</pdfrwt>
<totfact> 0.25143598E+05</totfact>
</mgrwt>
</event>
<event>
 5    1  0.3845386E+001  0.9076645E+02  0.7546771E-02  0.1301006E+00
          4   -1    0    0  501    0  0.00000000000E+00  0.00000000000E+00  0.27051864939E+02  0.27051864939E+02  0.00000000000E+00 0. -1.
         -4   -1    0    0    0  501 -0.00000000000E+00 -0.00000000000E+00 -0.76136601887E+02  0.76136601887E+02  0.00000000000E+00 0.  1.
         23    2    1    2    0    0  0.00000000000E+00  0.00000000000E+00 -0.49084736949E+02  0.10318846683E+03  0.90766449113E+02 0.  0.
          2    1    3    3  502    0 -0.66822627380E+01  0.33275738558E+02  0.97091076244E+01  0.35301475646E+02  0.00000000000E+00 0. -1.
         -2    1    3    3    0  502  0.66822627380E+01 -0.33275738558E+02 -0.58793844573E+02  0.67886991181E+02  0.00000000000E+00 0.  1.
<mgrwt>
<rscale>  0 0.90766449E+02</rscale>
<asrwt>0</asrwt>
<pdfrwt beam="1">  1        4 0.41618254E-02 0.90766449E+02</pdfrwt>
<pdfrwt beam="2">  1       -4 0.11713323E-01 0.90766449E+02</pdfrwt>
<totfact> 0.26584951E+04</totfact>
</mgrwt>
</event>
<event>
 5    1  0.3845386E+001  0.9160951E+02  0.7546771E-02  0.1299000E+00
         -2   -1    0    0    0  501 -0.00000000000E+00  0.00000000000E+00  0.53414928534E+02  0.53414928534E+02  0.00000000000E+00 0.  1.
          2   -1    0    0  501    0  0.00000000000E+00 -0.00000000000E+00 -0.39278824910E+02  0.39278824910E+02  0.00000000000E+00 0. -1.
         23    2    1    2    0    0  0.00000000000E+00  0.00000000000E+00  0.14136103624E+02  0.92693753443E+02  0.91609510979E+02 0.  0.
          2    1    3    3  502    0 -0.33935111331E+02  0.13938069228E+02 -0.20683075510E+02  0.42114738126E+02  0.00000000000E+00 0. -1.
         -2    1    3    3    0  502  0.33935111331E+02 -0.13938069228E+02  0.34819179134E+02  0.50579015317E+02  0.00000000000E+00 0.  1.
<mgrwt>
<rscale>  0 0.91609511E+02</rscale>
<asrwt>0</asrwt>
<pdfrwt beam="2">  1        2 0.60428962E-02 0.91609511E+02</pdfrwt>
<pdfrwt beam="1">  1       -2 0.82176813E-02 0.91609511E+02</pdfrwt>
<totfact> 0.93643444E+04</totfact>
</mgrwt>
</event>
<event>
 5    1  0.3845386E+001  0.9349979E+02  0.7546771E-02  0.1294591E+00
          2   -1    0    0  501    0  0.00000000000E+00  0.00000000000E+00  0.12448174819E+02  0.12448174819E+02  0.00000000000E+00 0. -1.
         -2   -1    0    0    0  501 -0.00000000000E+00 -0.00000000000E+00 -0.17557215455E+03  0.17557215455E+03  0.00000000000E+00 0.  1.
         23    2    1    2    0    0  0.00000000000E+00  0.00000000000E+00 -0.16312397973E+03  0.18802032937E+03  0.93499794079E+02 0.  0.
          2    1    3    3  502    0 -0.13438932607E+02 -0.29493667495E+02 -0.13812540114E+02  0.35231627784E+02  0.00000000000E+00 0. -1.
         -2    1    3    3    0  502  0.13438932607E+02  0.29493667495E+02 -0.14931143961E+03  0.15278870158E+03  0.00000000000E+00 0.  1.
<mgrwt>
<rscale>  0 0.93499794E+02</rscale>
<asrwt>0</asrwt>
<pdfrwt beam="1">  1        2 0.19151037E-02 0.93499794E+02</pdfrwt>
<pdfrwt beam="2">  1       -2 0.27011102E-01 0.93499794E+02</pdfrwt>
<totfact> 0.61706369E+04</totfact>
</mgrwt>
</event>
<event>
 5    1  0.3845386E+001  0.9378214E+02  0.7546771E-02  0.1293943E+00
         -1   -1    0    0    0  501 -0.00000000000E+00  0.00000000000E+00  0.33202475915E+03  0.33202475915E+03  0.00000000000E+00 0. -1.
          1   -1    0    0  501    0  0.00000000000E+00 -0.00000000000E+00 -0.66223146208E+01  0.66223146208E+01  0.00000000000E+00 0.  1.
         23    2    1    2    0    0  0.00000000000E+00  0.00000000000E+00  0.32540244453E+03  0.33864707377E+03  0.93782139386E+02 0.  0.
          2    1    3    3  502    0  0.24702796619E+02 -0.30610811561E+02  0.70530733331E+02  0.80757874473E+02  0.00000000000E+00 0.  1.
         -2    1    3    3    0  502 -0.24702796619E+02  0.30610811561E+02  0.25487171119E+03  0.25788919929E+03  0.00000000000E+00 0. -1.
<mgrwt>
<rscale>  0 0.93782139E+02</rscale>
<asrwt>0</asrwt>
<pdfrwt beam="2">  1        1 0.10188179E-02 0.93782139E+02</pdfrwt>
<pdfrwt beam="1">  1       -1 0.51080719E-01 0.93782139E+02</pdfrwt>
<totfact> 0.53977168E+04</totfact>
</mgrwt>
</event>
<event>
 5    1  0.3845386E+001  0.9118909E+02  0.7546771E-02  0.1299997E+00
          3   -1    0    0  501    0  0.00000000000E+00  0.00000000000E+00  0.28204778006E+01  0.28204778006E+01  0.00000000000E+00 0. -1.
         -3   -1    0    0    0  501 -0.00000000000E+00 -0.00000000000E+00 -0.73706036914E+03  0.73706036914E+03  0.00000000000E+00 0.  1.
         23    2    1    2    0    0  0.00000000000E+00  0.00000000000E+00 -0.73423989134E+03  0.73988084694E+03  0.91189087261E+02 0.  0.
          2    1    3    3  502    0  0.14781257180E+02  0.37651667734E+02 -0.19639861595E+03  0.20052069717E+03  0.00000000000E+00 0. -1.
         -2    1    3    3    0  502 -0.14781257180E+02 -0.37651667734E+02 -0.53784127539E+03  0.53936014977E+03  0.00000000000E+00 0.  1.
<mgrwt>
<rscale>  0 0.91189087E+02</rscale>
<asrwt>0</asrwt>
<pdfrwt beam="1">  1        3 0.43391958E-03 0.91189087E+02</pdfrwt>
<pdfrwt beam="2">  1       -3 0.11339392E+00 0.91189087E+02</pdfrwt>
<totfact> 0.13248797E+04</totfact>
</mgrwt>
</event>
<event>
 5    1  0.3845386E+001  0.8984207E+02  0.7546771E-02  0.1303235E+00
          2   -1    0    0  501    0  0.00000000000E+00  0.00000000000E+00  0.32983498243E+03  0.32983498243E+03  0.00000000000E+00 0. -1.
         -2   -1    0    0    0  501 -0.00000000000E+00 -0.00000000000E+00 -0.61179058417E+01  0.61179058417E+01  0.00000000000E+00 0.  1.
         23    2    1    2    0    0  0.00000000000E+00  0.00000000000E+00  0.32371707659E+03  0.33595288828E+03  0.89842069563E+02 0.  0.
          2    1    3    3  502    0 -0.46615222847E+01 -0.40058921630E+02  0.23584258752E+03  0.23926590455E+03  0.00000000000E+00 0. -1.
         -2    1    3    3    0  502  0.46615222847E+01  0.40058921630E+02  0.87874489067E+02  0.96686983721E+02  0.00000000000E+00 0.  1.
<mgrwt>
<rscale>  0 0.89842070E+02</rscale>
<asrwt>0</asrwt>
<pdfrwt beam="1">  1        2 0.50743830E-01 0.89842070E+02</pdfrwt>
<pdfrwt beam="2">  1       -2 0.94121654E-03 0.89842070E+02</pdfrwt>
<totfact> 0.19353722E+05</totfact>
</mgrwt>
</event>
<event>
 5    1  0.3845386E+001  0.9218703E+02  0.7546771E-02  0.1297640E+00
         -1   -1    0    0    0  501 -0.00000000000E+00  0.00000000000E+00  0.64945657149E+02  0.64945657149E+02  0.00000000000E+00 0.  1.
          1   -1    0    0  501    0  0.00000000000E+00 -0.00000000000E+00 -0.32713692682E+02  0.32713692682E+02  0.00000000000E+00 0. -1.
         23    2    1    2    0    0  0.00000000000E+00  0.00000000000E+00  0.32231964468E+02  0.97659349831E+02  0.92187033122E+02 0.  0.
          2    1    3    3  502    0  0.20695863532E+02  0.13111114887E+02 -0.25245142959E+02  0.35178648978E+02  0.00000000000E+00 0. -1.
         -2    1    3    3    0  502 -0.20695863532E+02 -0.13111114887E+02  0.57477107427E+02  0.62480700853E+02  0.00000000000E+00 0.  1.
<mgrwt>
<rscale>  0 0.92187033E+02</rscale>
<asrwt>0</asrwt>
<pdfrwt beam="2">  1        1 0.50328758E-02 0.92187033E+02</pdfrwt>
<pdfrwt beam="1">  1       -1 0.99916395E-02 0.92187033E+02</pdfrwt>
<totfact> 0.85161409E+04</totfact>
</mgrwt>
</event>
<event>
 5    1  0.3845386E+001  0.9040096E+02  0.7546771E-02  0.1301884E+00
          1   -1    0    0  501    0  0.00000000000E+00  0.00000000000E+00  0.11422085528E+03  0.11422085528E+03  0.00000000000E+00 0. -1.
         -1   -1    0    0    0  501 -0.00000000000E+00 -0.00000000000E+00 -0.17887129426E+02  0.17887129426E+02  0.00000000000E+00 0.  1.
         23    2    1    2    0    0  0.00000000000E+00  0.00000000000E+00  0.96333725857E+02  0.13210798471E+03  0.90400956225E+02 0.  0.
          2    1    3    3  502    0  0.21593960830E+02  0.17167229149E+02  0.10049219179E+03  0.10420985323E+03  0.00000000000E+00 0. -1.
         -2    1    3    3    0  502 -0.21593960830E+02 -0.17167229149E+02 -0.41584659285E+01  0.27898131476E+02  0.00000000000E+00 0.  1.
<mgrwt>
<rscale>  0 0.90400956E+02</rscale>
<asrwt>0</asrwt>
<pdfrwt beam="1">  1        1 0.17572439E-01 0.90400956E+02</pdfrwt>
<pdfrwt beam="2">  1       -1 0.27518661E-02 0.90400956E+02</pdfrwt>
<totfact> 0.10932977E+05</totfact>
</mgrwt>
</event>
<event>
 5    1  0.3845386E+001  0.9211882E+02  0.7546771E-02  0.1297800E+00
          3   -1    0    0  501    0  0.00000000000E+00  0.00000000000E+00  0.87599507009E+02  0.87599507009E+02  0.00000000000E+00 0. -1.
         -3   -1    0    0    0  501 -0.00000000000E+00 -0.00000000000E+00 -0.24217822595E+02  0.24217822595E+02  0.00000000000E+00 0.  1.
         23    2    1    2    0    0  0.00000000000E+00  0.00000000000E+00  0.63381684414E+02  0.11181732960E+03  0.92118821532E+02 0.  0.
          2    1    3    3  502    0 -0.26067167806E+00 -0.27270520242E+02 -0.13363975776E+02  0.30370134550E+02  0.00000000000E+00 0.  1.
         -2    1    3    3    0  502  0.26067167806E+00  0.27270520242E+02  0.76745660190E+02  0.81447195053E+02  0.00000000000E+00 0. -1.
<mgrwt>
<rscale>  0 0.92118822E+02</rscale>
<asrwt>0</asrwt>
<pdfrwt beam="1">  1        3 0.13476847E-01 0.92118822E+02</pdfrwt>
<pdfrwt beam="2">  1       -3 0.37258189E-02 0.92118822E+02</pdfrwt>
<totfact> 0.32881987E+04</totfact>
</mgrwt>
</event>
<event>
 5    1  0.3845386E+001  0.9101743E+02  0.7546771E-02  0.1300406E+00
         -1   -1    0    0    0  501 -0.00000000000E+00  0.00000000000E+00  0.32489852612E+03  0.32489852612E+03  0.00000000000E+00 0.  1.
          1   -1    0    0  501    0  0.00000000000E+00 -0.00000000000E+00 -0.63744306025E+01  0.63744306025E+01  0.00000000000E+00 0. -1.
         23    2    1    2    0    0  0.00000000000E+00  0.00000000000E+00  0.31852409552E+03  0.33127295672E+03  0.91017429268E+02 0.  0.
          2    1    3    3  502    0 -0.15269125549E+02 -0.28316970533E+02  0.42109710481E+02  0.52992685646E+02  0.00000000000E+00 0. -1.
         -2    1    3    3    0  502  0.15269125549E+02  0.28316970533E+02  0.27641438504E+03  0.27828027108E+03  0.00000000000E+00 0.  1.
<mgrwt>
<rscale>  0 0.91017429E+02</rscale>
<asrwt>0</asrwt>
<pdfrwt beam="2">  1        1 0.98068188E-03 0.91017429E+02</pdfrwt>
<pdfrwt beam="1">  1       -1 0.49984376E-01 0.91017429E+02</pdfrwt>
<totfact> 0.58921303E+04</totfact>
</mgrwt>
</event>
<event>
 5    1  0.3845386E+001  0.9290573E+02  0.7546771E-02  0.1295964E+00
          4   -1    0    0  501    0  0.00000000000E+00  0.00000000000E+00  0.21568654366E+03  0.21568654366E+03  0.00000000000E+00 0. -1.
         -4   -1    0    0    0  501 -0.00000000000E+00 -0.00000000000E+00 -0.10004651388E+02  0.10004651388E+02  0.00000000000E+00 0.  1.
         23    2    1    2    0    0  0.00000000000E+00  0.00000000000E+00  0.20568189227E+03  0.22569119505E+03  0.92905730252E+02 0.  0.
          2    1    3    3  502    0  0.61855227012E+00 -0.40769062154E+02  0.15690851090E+03  0.16211964664E+03  0.00000000000E+00 0. -1.
         -2    1    3    3    0  502 -0.61855227012E+00  0.40769062154E+02  0.48773381376E+02  0.63571548406E+02  0.00000000000E+00 0.  1.
<mgrwt>
<rscale>  0 0.92905730E+02</rscale>
<asrwt>0</asrwt>
<pdfrwt beam="1">  1        4 0.33182542E-01 0.92905730E+02</pdfrwt>
<pdfrwt beam="2">  1       -4 0.15391773E-02 0.92905730E+02</pdfrwt>
<totfact> 0.19359531E+04</totfact>
</mgrwt>
</event>
<event>
 5    1  0.3845386E+001  0.9498242E+02  0.7546771E-02  0.1291216E+00
          1   -1    0    0  501    0  0.00000000000E+00  0.00000000000E+00  0.56113948481E+03  0.56113948481E+03  0.00000000000E+00 0. -1.
         -1   -1    0    0    0  501 -0.00000000000E+00 -0.00000000000E+00 -0.40193485667E+01  0.40193485667E+01  0.00000000000E+00 0.  1.
         23    2    1    2    0    0  0.00000000000E+00  0.00000000000E+00  0.55712013624E+03  0.56515883338E+03  0.94982423300E+02 0.  0.
          2    1    3    3  502    0 -0.27017463681E+02  0.52105930809E+01  0.50887908006E+03  0.50962242077E+03  0.00000000000E+00 0. -1.
         -2    1    3    3    0  502  0.27017463681E+02 -0.52105930809E+01  0.48241056179E+02  0.55536412607E+02  0.00000000000E+00 0.  1.
<mgrwt>
<rscale>  0 0.94982423E+02</rscale>
<asrwt>0</asrwt>
<pdfrwt beam="1">  1        1 0.86329089E-01 0.94982423E+02</pdfrwt>
<pdfrwt beam="2">  1       -1 0.61836176E-03 0.94982423E+02</pdfrwt>
<totfact> 0.12641617E+05</totfact>
</mgrwt>
</event>
<event>
 5    1  0.3845386E+001  0.9181642E+02  0.7546771E-02  0.1298512E+00
          3   -1    0    0  501    0  0.00000000000E+00  0.00000000000E+00  0.38352731299E+03  0.38352731299E+03  0.00000000000E+00 0. -1.
         -3   -1    0    0    0  501 -0.00000000000E+00 -0.00000000000E+00 -0.54952114619E+01  0.54952114619E+01  0.00000000000E+00 0.  1.
         23    2    1    2    0    0  0.00000000000E+00  0.00000000000E+00  0.37803210153E+03  0.38902252446E+03  0.91816418713E+02 0.  0.
          2    1    3    3  502    0  0.25168078170E+02  0.40113333608E+01  0.35080141350E+03  0.35172596530E+03  0.00000000000E+00 0. -1.
         -2    1    3    3    0  502 -0.25168078170E+02 -0.40113333608E+01  0.27230688037E+02  0.37296559159E+02  0.00000000000E+00 0.  1.
<mgrwt>
<rscale>  0 0.91816419E+02</rscale>
<asrwt>0</asrwt>
<pdfrwt beam="1">  1        3 0.59004181E-01 0.91816419E+02</pdfrwt>
<pdfrwt beam="2">  1       -3 0.84541745E-03 0.91816419E+02</pdfrwt>
<totfact> 0.20561604E+04</totfact>
</mgrwt>
</event>
<event>
 5    1  0.3845386E+001  0.9252665E+02  0.7546771E-02  0.1296846E+00
          1   -1    0    0  501    0  0.00000000000E+00  0.00000000000E+00  0.78461945994E+03  0.78461945994E+03  0.00000000000E+00 0. -1.
         -1   -1    0    0    0  501 -0.00000000000E+00 -0.00000000000E+00 -0.27278130271E+01  0.27278130271E+01  0.00000000000E+00 0.  1.
         23    2    1    2    0    0  0.00000000000E+00  0.00000000000E+00  0.78189164691E+03  0.78734727296E+03  0.92526648790E+02 0.  0.
          2    1    3    3  502    0  0.34093340999E+02 -0.18154467209E+02  0.60761932131E+03  0.60884577703E+03  0.00000000000E+00 0. -1.
         -2    1    3    3    0  502 -0.34093340999E+02  0.18154467209E+02  0.17427232560E+03  0.17850149594E+03  0.00000000000E+00 0.  1.
<mgrwt>
<rscale>  0 0.92526649E+02</rscale>
<asrwt>0</asrwt>
<pdfrwt beam="1">  1        1 0.12071051E+00 0.92526649E+02</pdfrwt>
<pdfrwt beam="2">  1       -1 0.41966417E-03 0.92526649E+02</pdfrwt>
<totfact> 0.13612368E+05</totfact>
</mgrwt>
</event>
<event>
 5    1  0.3845386E+001  0.7921388E+02  0.7546771E-02  0.1331297E+00
          1   -1    0    0  501    0  0.00000000000E+00  0.00000000000E+00  0.55812874311E+03  0.55812874311E+03  0.00000000000E+00 0. -1.
         -1   -1    0    0    0  501 -0.00000000000E+00 -0.00000000000E+00 -0.28106589051E+01  0.28106589051E+01  0.00000000000E+00 0.  1.
         23    2    1    2    0    0  0.00000000000E+00  0.00000000000E+00  0.55531808421E+03  0.56093940202E+03  0.79213875604E+02 0.  0.
          2    1    3    3  502    0  0.22187271499E+02 -0.19256003696E+02  0.46576672565E+03  0.46669230915E+03  0.00000000000E+00 0. -1.
         -2    1    3    3    0  502 -0.22187271499E+02  0.19256003696E+02  0.89551358553E+02  0.94247092866E+02  0.00000000000E+00 0.  1.
<mgrwt>
<rscale>  0 0.79213876E+02</rscale>
<asrwt>0</asrwt>
<pdfrwt beam="1">  1        1 0.85865872E-01 0.79213876E+02</pdfrwt>
<pdfrwt beam="2">  1       -1 0.43240951E-03 0.79213876E+02</pdfrwt>
<totfact> 0.20386148E+05</totfact>
</mgrwt>
</event>
<event>
 5    1  0.3845386E+001  0.9277716E+02  0.7546771E-02  0.1296262E+00
          1   -1    0    0  501    0  0.00000000000E+00  0.00000000000E+00  0.35968827748E+03  0.35968827748E+03  0.00000000000E+00 0.  1.
         -1   -1    0    0    0  501 -0.00000000000E+00 -0.00000000000E+00 -0.59826814679E+01  0.59826814679E+01  0.00000000000E+00 0. -1.
         23    2    1    2    0    0  0.00000000000E+00  0.00000000000E+00  0.35370559601E+03  0.36567095894E+03  0.92777160808E+02 0.  0.
          2    1    3    3  502    0  0.40167562698E+02 -0.15717723285E+02  0.10956916668E+03  0.11775348065E+03  0.00000000000E+00 0. -1.
         -2    1    3    3    0  502 -0.40167562698E+02  0.15717723285E+02  0.24413642932E+03  0.24791747829E+03  0.00000000000E+00 0.  1.
<mgrwt>
<rscale>  0 0.92777161E+02</rscale>
<asrwt>0</asrwt>
<pdfrwt beam="1">  1        1 0.55336641E-01 0.92777161E+02</pdfrwt>
<pdfrwt beam="2">  1       -1 0.92041281E-03 0.92777161E+02</pdfrwt>
<totfact> 0.12647569E+05</totfact>
</mgrwt>
</event>
<event>
 5    1  0.3845386E+001  0.9338065E+02  0.7546771E-02  0.1294865E+00
          2   -1    0    0  501    0  0.00000000000E+00  0.00000000000E+00  0.55993483224E+03  0.55993483224E+03  0.00000000000E+00 0. -1.
         -2   -1    0    0    0  501 -0.00000000000E+00 -0.00000000000E+00 -0.38932856432E+01  0.38932856432E+01  0.00000000000E+00 0.  1.
         23    2    1    2    0    0  0.00000000000E+00  0.00000000000E+00  0.55604154660E+03  0.56382811788E+03  0.93380645607E+02 0.  0.
          2    1    3    3  502    0 -0.14984025969E+02 -0.34912208888E+02  0.44189345628E+03  0.44352362966E+03  0.00000000000E+00 0. -1.
         -2    1    3    3    0  502  0.14984025969E+02  0.34912208888E+02  0.11414809032E+03  0.12030448822E+03  0.00000000000E+00 0.  1.
<mgrwt>
<rscale>  0 0.93380646E+02</rscale>
<asrwt>0</asrwt>
<pdfrwt beam="1">  1        2 0.86143756E-01 0.93380646E+02</pdfrwt>
<pdfrwt beam="2">  1       -2 0.59896747E-03 0.93380646E+02</pdfrwt>
<totfact> 0.20960588E+05</totfact>
</mgrwt>
</event>
<event>
 5    1  0.3845386E+001  0.8861342E+02  0.7546771E-02  0.1306245E+00
         -1   -1    0    0    0  501 -0.00000000000E+00  0.00000000000E+00  0.97944826210E+01  0.97944826210E+01  0.00000000000E+00 0.  1.
          1   -1    0    0  501    0  0.00000000000E+00 -0.00000000000E+00 -0.20042760056E+03  0.20042760056E+03  0.00000000000E+00 0. -1.
         23    2    1    2    0    0  0.00000000000E+00  0.00000000000E+00 -0.19063311794E+03  0.21022208318E+03  0.88613422244E+02 0.  0.
          2    1    3    3  502    0 -0.47354104704E+01  0.26047843904E+02 -0.11033980076E+02  0.28682102446E+02  0.00000000000E+00 0.  1.
         -2    1    3    3    0  502  0.47354104704E+01 -0.26047843904E+02 -0.17959913786E+03  0.18153998073E+03  0.00000000000E+00 0. -1.
<mgrwt>
<rscale>  0 0.88613422E+02</rscale>
<asrwt>0</asrwt>
<pdfrwt beam="2">  1        1 0.30835016E-01 0.88613422E+02</pdfrwt>
<pdfrwt beam="1">  1       -1 0.15068435E-02 0.88613422E+02</pdfrwt>
<totfact> 0.12784784E+05</totfact>
</mgrwt>
</event>
<event>
 5    1  0.3845386E+001  0.9126718E+02  0.7546771E-02  0.1299812E+00
         -1   -1    0    0    0  501 -0.00000000000E+00  0.00000000000E+00  0.57479325808E+02  0.57479325808E+02  0.00000000000E+00 0.  1.
          1   -1    0    0  501    0  0.00000000000E+00 -0.00000000000E+00 -0.36229104619E+02  0.36229104619E+02  0.00000000000E+00 0. -1.
         23    2    1    2    0    0  0.00000000000E+00  0.00000000000E+00  0.21250221189E+02  0.93708430428E+02  0.91267179383E+02 0.  0.
          2    1    3    3  502    0  0.28730707894E+02  0.48027767197E+01 -0.25441453261E+02  0.38675415761E+02  0.00000000000E+00 0. -1.
         -2    1    3    3    0  502 -0.28730707894E+02 -0.48027767197E+01  0.46691674450E+02  0.55033014666E+02  0.00000000000E+00 0.  1.
<mgrwt>
<rscale>  0 0.91267179E+02</rscale>
<asrwt>0</asrwt>
<pdfrwt beam="2">  1        1 0.55737084E-02 0.91267179E+02</pdfrwt>
<pdfrwt beam="1">  1       -1 0.88429732E-02 0.91267179E+02</pdfrwt>
<totfact> 0.89049015E+04</totfact>
</mgrwt>
</event>
<event>
 5    1  0.3845386E+001  0.9552379E+02  0.7546771E-02  0.1290001E+00
         -1   -1    0    0    0  501 -0.00000000000E+00  0.00000000000E+00  0.26652245798E+02  0.26652245798E+02  0.00000000000E+00 0.  1.
          1   -1    0    0  501    0  0.00000000000E+00 -0.00000000000E+00 -0.85591230858E+02  0.85591230858E+02  0.00000000000E+00 0. -1.
         23    2    1    2    0    0  0.00000000000E+00  0.00000000000E+00 -0.58938985060E+02  0.11224347666E+03  0.95523788095E+02 0.  0.
          2    1    3    3  502    0 -0.41313569172E+02  0.13430120622E+02 -0.52793779078E+02  0.68369307785E+02  0.00000000000E+00 0. -1.
         -2    1    3    3    0  502  0.41313569172E+02 -0.13430120622E+02 -0.61452059826E+01  0.43874168872E+02  0.00000000000E+00 0.  1.
<mgrwt>
<rscale>  0 0.95523788E+02</rscale>
<asrwt>0</asrwt>
<pdfrwt beam="2">  1        1 0.13167882E-01 0.95523788E+02</pdfrwt>
<pdfrwt beam="1">  1       -1 0.41003455E-02 0.95523788E+02</pdfrwt>
<totfact> 0.89591300E+04</totfact>
</mgrwt>
</event>
<event>
 5    1  0.3845386E+001  0.8778268E+02  0.7546771E-02  0.1308312E+00
          1   -1    0    0  501    0  0.00000000000E+00  0.00000000000E+00  0.20336442450E+03  0.20336442450E+03  0.00000000000E+00 0. -1.
         -1   -1    0    0    0  501 -0.00000000000E+00 -0.00000000000E+00 -0.94728934529E+01  0.94728934529E+01  0.00000000000E+00 0.  1.
         23    2    1    2    0    0  0.00000000000E+00  0.00000000000E+00  0.19389153104E+03  0.21283731795E+03  0.87782675406E+02 0.  0.
          2    1    3    3  502    0 -0.25885409219E+02 -0.85799454450E+01  0.18033133262E+03  0.18238163120E+03  0.00000000000E+00 0. -1.
         -2    1    3    3    0  502  0.25885409219E+02  0.85799454450E+01  0.13560198426E+02  0.30455686753E+02  0.00000000000E+00 0.  1.
<mgrwt>
<rscale>  0 0.87782675E+02</rscale>
<asrwt>0</asrwt>
<pdfrwt beam="1">  1        1 0.31286831E-01 0.87782675E+02</pdfrwt>
<pdfrwt beam="2">  1       -1 0.14573684E-02 0.87782675E+02</pdfrwt>
<totfact> 0.13147154E+05</totfact>
</mgrwt>
</event>
<event>
 5    1  0.3845386E+001  0.8878368E+02  0.7546771E-02  0.1305824E+00
         -1   -1    0    0    0  501 -0.00000000000E+00  0.00000000000E+00  0.25722922239E+02  0.25722922239E+02  0.00000000000E+00 0.  1.
          1   -1    0    0  501    0  0.00000000000E+00 -0.00000000000E+00 -0.76610084536E+02  0.76610084536E+02  0.00000000000E+00 0. -1.
         23    2    1    2    0    0  0.00000000000E+00  0.00000000000E+00 -0.50887162297E+02  0.10233300678E+03  0.88783675239E+02 0.  0.
          2    1    3    3  502    0  0.21525323816E+02 -0.34031292560E+02 -0.46981269711E+02  0.61876555676E+02  0.00000000000E+00 0. -1.
         -2    1    3    3    0  502 -0.21525323816E+02  0.34031292560E+02 -0.39058925863E+01  0.40456451099E+02  0.00000000000E+00 0.  1.
<mgrwt>
<rscale>  0 0.88783675E+02</rscale>
<asrwt>0</asrwt>
<pdfrwt beam="2">  1        1 0.11786167E-01 0.88783675E+02</pdfrwt>
<pdfrwt beam="1">  1       -1 0.39573727E-02 0.88783675E+02</pdfrwt>
<totfact> 0.10762950E+05</totfact>
</mgrwt>
</event>
<event>
 5    1  0.3845386E+001  0.9178270E+02  0.7546771E-02  0.1298591E+00
         -1   -1    0    0    0  501 -0.00000000000E+00  0.00000000000E+00  0.11361116332E+01  0.11361116332E+01  0.00000000000E+00 0.  1.
          1   -1    0    0  501    0  0.00000000000E+00 -0.00000000000E+00 -0.18537050098E+04  0.18537050098E+04  0.00000000000E+00 0. -1.
         23    2    1    2    0    0  0.00000000000E+00  0.00000000000E+00 -0.18525688981E+04  0.18548411214E+04  0.91782696106E+02 0.  0.
          2    1    3    3  502    0 -0.41197999404E+02 -0.18784405175E+02 -0.77520670166E+03  0.77652788703E+03  0.00000000000E+00 0.  1.
         -2    1    3    3    0  502  0.41197999404E+02  0.18784405175E+02 -0.10773621965E+04  0.10783132344E+04  0.00000000000E+00 0. -1.
<mgrwt>
<rscale>  0 0.91782696E+02</rscale>
<asrwt>0</asrwt>
<pdfrwt beam="2">  1        1 0.28518559E+00 0.91782696E+02</pdfrwt>
<pdfrwt beam="1">  1       -1 0.17478628E-03 0.91782696E+02</pdfrwt>
<totfact> 0.87108684E+04</totfact>
</mgrwt>
</event>
<event>
 5    1  0.3845386E+001  0.9684370E+02  0.7546771E-02  0.1287077E+00
          2   -1    0    0  501    0  0.00000000000E+00  0.00000000000E+00  0.26994834802E+04  0.26994834802E+04  0.00000000000E+00 0. -1.
         -2   -1    0    0    0  501 -0.00000000000E+00 -0.00000000000E+00 -0.86856458725E+00  0.86856458725E+00  0.00000000000E+00 0.  1.
         23    2    1    2    0    0  0.00000000000E+00  0.00000000000E+00  0.26986149156E+04  0.27003520448E+04  0.96843704075E+02 0.  0.
          2    1    3    3  502    0  0.18828543338E+02 -0.42593524650E+02  0.97943858184E+03  0.98054508207E+03  0.00000000000E+00 0.  1.
         -2    1    3    3    0  502 -0.18828543338E+02  0.42593524650E+02  0.17191763338E+04  0.17198069627E+04  0.00000000000E+00 0. -1.
<mgrwt>
<rscale>  0 0.96843704E+02</rscale>
<asrwt>0</asrwt>
<pdfrwt beam="1">  1        2 0.41529843E+00 0.96843704E+02</pdfrwt>
<pdfrwt beam="2">  1       -2 0.13362748E-03 0.96843704E+02</pdfrwt>
<totfact> 0.11011567E+05</totfact>
</mgrwt>
</event>
<event>
 5    1  0.3845386E+001  0.9091944E+02  0.7546771E-02  0.1300640E+00
         -2   -1    0    0    0  501 -0.00000000000E+00  0.00000000000E+00  0.77138089535E+00  0.77138089535E+00  0.00000000000E+00 0. -1.
          2   -1    0    0  501    0  0.00000000000E+00 -0.00000000000E+00 -0.26790736010E+04  0.26790736010E+04  0.00000000000E+00 0.  1.
         23    2    1    2    0    0  0.00000000000E+00  0.00000000000E+00 -0.26783022201E+04  0.26798449819E+04  0.90919441112E+02 0.  0.
          2    1    3    3  502    0 -0.82935667797E+01 -0.38484906560E+02 -0.20091566782E+04  0.20095423431E+04  0.00000000000E+00 0.  1.
         -2    1    3    3    0  502  0.82935667797E+01  0.38484906560E+02 -0.66914554190E+03  0.67030263876E+03  0.00000000000E+00 0. -1.
<mgrwt>
<rscale>  0 0.90919441E+02</rscale>
<asrwt>0</asrwt>
<pdfrwt beam="2">  1        2 0.41217026E+00 0.90919441E+02</pdfrwt>
<pdfrwt beam="1">  1       -2 0.11867252E-03 0.90919441E+02</pdfrwt>
<totfact> 0.13223653E+05</totfact>
</mgrwt>
</event>
<event>
 5    1  0.3845386E+001  0.1066820E+03  0.7546771E-02  0.1266841E+00
          2   -1    0    0  501    0  0.00000000000E+00  0.00000000000E+00  0.54638998792E+03  0.54638998792E+03  0.00000000000E+00 0. -1.
         -2   -1    0    0    0  501 -0.00000000000E+00 -0.00000000000E+00 -0.52073803595E+01  0.52073803595E+01  0.00000000000E+00 0.  1.
         23    2    1    2    0    0  0.00000000000E+00  0.00000000000E+00  0.54118260756E+03  0.55159736828E+03  0.10668196646E+03 0.  0.
          2    1    3    3  502    0  0.24155793273E+02 -0.24055846549E+02  0.48271189500E+03  0.48391420694E+03  0.00000000000E+00 0. -1.
         -2    1    3    3    0  502 -0.24155793273E+02  0.24055846549E+02  0.58470712560E+02  0.67683161341E+02  0.00000000000E+00 0.  1.
<mgrwt>
<rscale>  0 0.10668197E+03</rscale>
<asrwt>0</asrwt>
<pdfrwt beam="1">  1        2 0.84059953E-01 0.10668197E+03</pdfrwt>
<pdfrwt beam="2">  1       -2 0.80113587E-03 0.10668197E+03</pdfrwt>
<totfact> 0.14581687E+05</totfact>
</mgrwt>
</event>
<event>
 5    1  0.3845386E+001  0.9064243E+02  0.7546771E-02  0.1301303E+00
          1   -1    0    0  501    0  0.00000000000E+00  0.00000000000E+00  0.32304769599E+03  0.32304769599E+03  0.00000000000E+00 0. -1.
         -1   -1    0    0    0  501 -0.00000000000E+00 -0.00000000000E+00 -0.63582324444E+01  0.63582324444E+01  0.00000000000E+00 0.  1.
         23    2    1    2    0    0  0.00000000000E+00  0.00000000000E+00  0.31668946355E+03  0.32940592844E+03  0.90642425867E+02 0.  0.
          2    1    3    3  502    0 -0.28211538658E+02 -0.14697023906E+02  0.27566107856E+03  0.27749040282E+03  0.00000000000E+00 0. -1.
         -2    1    3    3    0  502  0.28211538658E+02  0.14697023906E+02  0.41028384986E+02  0.51915525614E+02  0.00000000000E+00 0.  1.
<mgrwt>
<rscale>  0 0.90642426E+02</rscale>
<asrwt>0</asrwt>
<pdfrwt beam="1">  1        1 0.49699633E-01 0.90642426E+02</pdfrwt>
<pdfrwt beam="2">  1       -1 0.97818986E-03 0.90642426E+02</pdfrwt>
<totfact> 0.13196822E+05</totfact>
</mgrwt>
</event>
<event>
 5    1  0.3845386E+001  0.9043049E+02  0.7546771E-02  0.1301813E+00
         -1   -1    0    0    0  501 -0.00000000000E+00  0.00000000000E+00  0.26595964294E+01  0.26595964294E+01  0.00000000000E+00 0.  1.
          1   -1    0    0  501    0  0.00000000000E+00 -0.00000000000E+00 -0.76869500751E+03  0.76869500751E+03  0.00000000000E+00 0. -1.
         23    2    1    2    0    0  0.00000000000E+00  0.00000000000E+00 -0.76603541108E+03  0.77135460393E+03  0.90430492584E+02 0.  0.
          2    1    3    3  502    0  0.32467960538E+02 -0.25170665629E+02 -0.54411312876E+03  0.54566182545E+03  0.00000000000E+00 0. -1.
         -2    1    3    3    0  502 -0.32467960538E+02  0.25170665629E+02 -0.22192228232E+03  0.22569277848E+03  0.00000000000E+00 0.  1.
<mgrwt>
<rscale>  0 0.90430493E+02</rscale>
<asrwt>0</asrwt>
<pdfrwt beam="2">  1        1 0.11826087E+00 0.90430493E+02</pdfrwt>
<pdfrwt beam="1">  1       -1 0.40916832E-03 0.90430493E+02</pdfrwt>
<totfact> 0.14483183E+05</totfact>
</mgrwt>
</event>
<event>
 5    1  0.3845386E+001  0.9062435E+02  0.7546771E-02  0.1301347E+00
          2   -1    0    0  501    0  0.00000000000E+00  0.00000000000E+00  0.12003961063E+03  0.12003961063E+03  0.00000000000E+00 0. -1.
         -2   -1    0    0    0  501 -0.00000000000E+00 -0.00000000000E+00 -0.17104296763E+02  0.17104296763E+02  0.00000000000E+00 0.  1.
         23    2    1    2    0    0  0.00000000000E+00  0.00000000000E+00  0.10293531386E+03  0.13714390739E+03  0.90624348238E+02 0.  0.
          2    1    3    3  502    0 -0.21160458717E+02  0.39923129373E+02  0.56615591828E+02  0.72435809584E+02  0.00000000000E+00 0. -1.
         -2    1    3    3    0  502  0.21160458717E+02 -0.39923129373E+02  0.46319722034E+02  0.64708097804E+02  0.00000000000E+00 0.  1.
<mgrwt>
<rscale>  0 0.90624348E+02</rscale>
<asrwt>0</asrwt>
<pdfrwt beam="1">  1        2 0.18467632E-01 0.90624348E+02</pdfrwt>
<pdfrwt beam="2">  1       -2 0.26314303E-02 0.90624348E+02</pdfrwt>
<totfact> 0.13205215E+05</totfact>
</mgrwt>
</event>
<event>
 5    1  0.3845386E+001  0.8983953E+02  0.7546771E-02  0.1303241E+00
          2   -1    0    0  501    0  0.00000000000E+00  0.00000000000E+00  0.20235376985E+03  0.20235376985E+03  0.00000000000E+00 0. -1.
         -2   -1    0    0    0  501 -0.00000000000E+00 -0.00000000000E+00 -0.99715730664E+01  0.99715730664E+01  0.00000000000E+00 0.  1.
         23    2    1    2    0    0  0.00000000000E+00  0.00000000000E+00  0.19238219679E+03  0.21232534292E+03  0.89839532531E+02 0.  0.
          2    1    3    3  502    0 -0.40135549665E+02 -0.23394341098E+01  0.14354438611E+03  0.14906819273E+03  0.00000000000E+00 0. -1.
         -2    1    3    3    0  502  0.40135549665E+02  0.23394341098E+01  0.48837810676E+02  0.63257150193E+02  0.00000000000E+00 0.  1.
<mgrwt>
<rscale>  0 0.89839533E+02</rscale>
<asrwt>0</asrwt>
<pdfrwt beam="1">  1        2 0.31131346E-01 0.89839533E+02</pdfrwt>
<pdfrwt beam="2">  1       -2 0.15340883E-02 0.89839533E+02</pdfrwt>
<totfact> 0.16162865E+05</totfact>
</mgrwt>
</event>
<event>
 5    1  0.3845386E+001  0.9136923E+02  0.7546771E-02  0.1299569E+00
          2   -1    0    0  501    0  0.00000000000E+00  0.00000000000E+00  0.11620112939E+03  0.11620112939E+03  0.00000000000E+00 0.  1.
         -2   -1    0    0    0  501 -0.00000000000E+00 -0.00000000000E+00 -0.17960962582E+02  0.17960962582E+02  0.00000000000E+00 0. -1.
         23    2    1    2    0    0  0.00000000000E+00  0.00000000000E+00  0.98240166813E+02  0.13416209198E+03  0.91369231957E+02 0.  0.
          2    1    3    3  502    0 -0.43582882072E+02  0.13618252717E+02  0.51277969956E+02  0.68661158012E+02  0.00000000000E+00 0. -1.
         -2    1    3    3    0  502  0.43582882072E+02 -0.13618252717E+02  0.46962196857E+02  0.65500933965E+02  0.00000000000E+00 0.  1.
<mgrwt>
<rscale>  0 0.91369232E+02</rscale>
<asrwt>0</asrwt>
<pdfrwt beam="1">  1        2 0.17877096E-01 0.91369232E+02</pdfrwt>
<pdfrwt beam="2">  1       -2 0.27632251E-02 0.91369232E+02</pdfrwt>
<totfact> 0.12779890E+05</totfact>
</mgrwt>
</event>
<event>
 5    1  0.3845386E+001  0.9217288E+02  0.7546771E-02  0.1297673E+00
         -1   -1    0    0    0  501 -0.00000000000E+00  0.00000000000E+00  0.17607966435E+03  0.17607966435E+03  0.00000000000E+00 0.  1.
          1   -1    0    0  501    0  0.00000000000E+00 -0.00000000000E+00 -0.12062495494E+02  0.12062495494E+02  0.00000000000E+00 0. -1.
         23    2    1    2    0    0  0.00000000000E+00  0.00000000000E+00  0.16401716886E+03  0.18814215984E+03  0.92172884467E+02 0.  0.
          2    1    3    3  502    0 -0.44428646090E+02 -0.70992625754E+00  0.10697053011E+03  0.11583221875E+03  0.00000000000E+00 0. -1.
         -2    1    3    3    0  502  0.44428646090E+02  0.70992625754E+00  0.57046638750E+02  0.72309941097E+02  0.00000000000E+00 0.  1.
<mgrwt>
<rscale>  0 0.92172884E+02</rscale>
<asrwt>0</asrwt>
<pdfrwt beam="2">  1        1 0.18557687E-02 0.92172884E+02</pdfrwt>
<pdfrwt beam="1">  1       -1 0.27089177E-01 0.92172884E+02</pdfrwt>
<totfact> 0.69879235E+04</totfact>
</mgrwt>
</event>
<event>
 5    1  0.3845386E+001  0.9078389E+02  0.7546771E-02  0.1300964E+00
         -4   -1    0    0    0  501 -0.00000000000E+00  0.00000000000E+00  0.41424267862E+01  0.41424267862E+01  0.00000000000E+00 0.  1.
          4   -1    0    0  501    0  0.00000000000E+00 -0.00000000000E+00 -0.49739653669E+03  0.49739653669E+03  0.00000000000E+00 0. -1.
         23    2    1    2    0    0  0.00000000000E+00  0.00000000000E+00 -0.49325410990E+03  0.50153896347E+03  0.90783891456E+02 0.  0.
          2    1    3    3  502    0 -0.34014280087E+02 -0.21335953586E+01 -0.41226233395E+03  0.41366865421E+03  0.00000000000E+00 0. -1.
         -2    1    3    3    0  502  0.34014280087E+02  0.21335953586E+01 -0.80991775950E+02  0.87870309266E+02  0.00000000000E+00 0.  1.
<mgrwt>
<rscale>  0 0.90783891E+02</rscale>
<asrwt>0</asrwt>
<pdfrwt beam="2">  1        4 0.76522571E-01 0.90783891E+02</pdfrwt>
<pdfrwt beam="1">  1       -4 0.63729621E-03 0.90783891E+02</pdfrwt>
<totfact> 0.13191202E+04</totfact>
</mgrwt>
</event>
<event>
 5    1  0.3845386E+001  0.9345639E+02  0.7546771E-02  0.1294691E+00
          1   -1    0    0  501    0  0.00000000000E+00  0.00000000000E+00  0.40945113739E+02  0.40945113739E+02  0.00000000000E+00 0. -1.
         -1   -1    0    0    0  501 -0.00000000000E+00 -0.00000000000E+00 -0.53328078403E+02  0.53328078403E+02  0.00000000000E+00 0.  1.
         23    2    1    2    0    0  0.00000000000E+00  0.00000000000E+00 -0.12382964665E+02  0.94273192142E+02  0.93456390593E+02 0.  0.
          2    1    3    3  502    0 -0.42897907679E+02  0.27963445959E+01  0.12284552732E+02  0.44709733416E+02  0.00000000000E+00 0. -1.
         -2    1    3    3    0  502  0.42897907679E+02 -0.27963445959E+01 -0.24667517397E+02  0.49563458726E+02  0.00000000000E+00 0.  1.
<mgrwt>
<rscale>  0 0.93456391E+02</rscale>
<asrwt>0</asrwt>
<pdfrwt beam="1">  1        1 0.62992482E-02 0.93456391E+02</pdfrwt>
<pdfrwt beam="2">  1       -1 0.82043198E-02 0.93456391E+02</pdfrwt>
<totfact> 0.84844144E+04</totfact>
</mgrwt>
</event>
<event>
 5    1  0.3845386E+001  0.9054063E+02  0.7546771E-02  0.1301548E+00
          2   -1    0    0  501    0  0.00000000000E+00  0.00000000000E+00  0.31041793309E+02  0.31041793309E+02  0.00000000000E+00 0. -1.
         -2   -1    0    0    0  501 -0.00000000000E+00 -0.00000000000E+00 -0.66020708918E+02  0.66020708918E+02  0.00000000000E+00 0.  1.
         23    2    1    2    0    0  0.00000000000E+00  0.00000000000E+00 -0.34978915609E+02  0.97062502227E+02  0.90540625143E+02 0.  0.
          2    1    3    3  502    0 -0.36398490416E+02 -0.14911297637E+01  0.11322655060E+02  0.38148081081E+02  0.00000000000E+00 0. -1.
         -2    1    3    3    0  502  0.36398490416E+02  0.14911297637E+01 -0.46301570669E+02  0.58914421146E+02  0.00000000000E+00 0.  1.
<mgrwt>
<rscale>  0 0.90540625E+02</rscale>
<asrwt>0</asrwt>
<pdfrwt beam="1">  1        2 0.47756605E-02 0.90540625E+02</pdfrwt>
<pdfrwt beam="2">  1       -2 0.10157032E-01 0.90540625E+02</pdfrwt>
<totfact> 0.91139714E+04</totfact>
</mgrwt>
</event>
<event>
 5    1  0.3845386E+001  0.9084454E+02  0.7546771E-02  0.1300819E+00
          2   -1    0    0  501    0  0.00000000000E+00  0.00000000000E+00  0.54520082913E+01  0.54520082913E+01  0.00000000000E+00 0. -1.
         -2   -1    0    0    0  501 -0.00000000000E+00 -0.00000000000E+00 -0.37842620475E+03  0.37842620475E+03  0.00000000000E+00 0.  1.
         23    2    1    2    0    0  0.00000000000E+00  0.00000000000E+00 -0.37297419646E+03  0.38387821304E+03  0.90844544271E+02 0.  0.
          2    1    3    3  502    0 -0.12166177981E+02  0.28394490619E+02 -0.45770707536E+02  0.55219748755E+02  0.00000000000E+00 0. -1.
         -2    1    3    3    0  502  0.12166177981E+02 -0.28394490619E+02 -0.32720348892E+03  0.32865846429E+03  0.00000000000E+00 0.  1.
<mgrwt>
<rscale>  0 0.90844544E+02</rscale>
<asrwt>0</asrwt>
<pdfrwt beam="1">  1        2 0.83877051E-03 0.90844544E+02</pdfrwt>
<pdfrwt beam="2">  1       -2 0.58219416E-01 0.90844544E+02</pdfrwt>
<totfact> 0.44714584E+04</totfact>
</mgrwt>
</event>
<event>
 5    1  0.3845386E+001  0.9121404E+02  0.7546771E-02  0.1299938E+00
          3   -1    0    0  501    0  0.00000000000E+00  0.00000000000E+00  0.81219940455E+02  0.81219940455E+02  0.00000000000E+00 0. -1.
         -3   -1    0    0    0  501 -0.00000000000E+00 -0.00000000000E+00 -0.25609479344E+02  0.25609479344E+02  0.00000000000E+00 0.  1.
         23    2    1    2    0    0  0.00000000000E+00  0.00000000000E+00  0.55610461111E+02  0.10682941980E+03  0.91214042502E+02 0.  0.
          2    1    3    3  502    0  0.23985548157E+02  0.15913443600E+02  0.69237334706E+02  0.74982349422E+02  0.00000000000E+00 0. -1.
         -2    1    3    3    0  502 -0.23985548157E+02 -0.15913443600E+02 -0.13626873596E+02  0.31847070377E+02  0.00000000000E+00 0.  1.
<mgrwt>
<rscale>  0 0.91214043E+02</rscale>
<asrwt>0</asrwt>
<pdfrwt beam="1">  1        3 0.12495375E-01 0.91214043E+02</pdfrwt>
<pdfrwt beam="2">  1       -3 0.39399199E-02 0.91214043E+02</pdfrwt>
<totfact> 0.34134018E+04</totfact>
</mgrwt>
</event>
<event>
 5    1  0.3845386E+001  0.8942622E+02  0.7546771E-02  0.1304247E+00
         -1   -1    0    0    0  501 -0.00000000000E+00  0.00000000000E+00  0.88849323655E+01  0.88849323655E+01  0.00000000000E+00 0.  1.
          1   -1    0    0  501    0  0.00000000000E+00 -0.00000000000E+00 -0.22501717074E+03  0.22501717074E+03  0.00000000000E+00 0. -1.
         23    2    1    2    0    0  0.00000000000E+00  0.00000000000E+00 -0.21613223838E+03  0.23390210311E+03  0.89426223070E+02 0.  0.
          2    1    3    3  502    0 -0.33553871901E+02  0.45016236854E+01 -0.18446345637E+03  0.18754437787E+03  0.00000000000E+00 0. -1.
         -2    1    3    3    0  502  0.33553871901E+02 -0.45016236854E+01 -0.31668782010E+02  0.46357725239E+02  0.00000000000E+00 0.  1.
<mgrwt>
<rscale>  0 0.89426223E+02</rscale>
<asrwt>0</asrwt>
<pdfrwt beam="2">  1        1 0.34618024E-01 0.89426223E+02</pdfrwt>
<pdfrwt beam="1">  1       -1 0.13669127E-02 0.89426223E+02</pdfrwt>
<totfact> 0.12759653E+05</totfact>
</mgrwt>
</event>
<event>
 5    1  0.3845386E+001  0.9214745E+02  0.7546771E-02  0.1297733E+00
         -1   -1    0    0    0  501 -0.00000000000E+00  0.00000000000E+00  0.23090463235E+01  0.23090463235E+01  0.00000000000E+00 0.  1.
          1   -1    0    0  501    0  0.00000000000E+00 -0.00000000000E+00 -0.91933535872E+03  0.91933535872E+03  0.00000000000E+00 0. -1.
         23    2    1    2    0    0  0.00000000000E+00  0.00000000000E+00 -0.91702631239E+03  0.92164440504E+03  0.92147445545E+02 0.  0.
          2    1    3    3  502    0  0.20216408469E+02 -0.76560767838E+01 -0.86546277803E+03  0.86573271790E+03  0.00000000000E+00 0. -1.
         -2    1    3    3    0  502 -0.20216408469E+02  0.76560767838E+01 -0.51563534362E+02  0.55911687141E+02  0.00000000000E+00 0.  1.
<mgrwt>
<rscale>  0 0.92147446E+02</rscale>
<asrwt>0</asrwt>
<pdfrwt beam="2">  1        1 0.14143621E+00 0.92147446E+02</pdfrwt>
<pdfrwt beam="1">  1       -1 0.35523788E-03 0.92147446E+02</pdfrwt>
<totfact> 0.13481085E+05</totfact>
</mgrwt>
</event>
<event>
 5    1  0.3845386E+001  0.8636787E+02  0.7546771E-02  0.1311894E+00
         -3   -1    0    0    0  501 -0.00000000000E+00  0.00000000000E+00  0.11030262021E+04  0.11030262021E+04  0.00000000000E+00 0.  1.
          3   -1    0    0  501    0  0.00000000000E+00 -0.00000000000E+00 -0.16906691787E+01  0.16906691787E+01  0.00000000000E+00 0. -1.
         23    2    1    2    0    0  0.00000000000E+00  0.00000000000E+00  0.11013355330E+04  0.11047168713E+04  0.86367873733E+02 0.  0.
          2    1    3    3  502    0  0.10205358666E+02 -0.36845267945E+02  0.29385244242E+03  0.29632917681E+03  0.00000000000E+00 0. -1.
         -2    1    3    3    0  502 -0.10205358666E+02  0.36845267945E+02  0.80748309055E+03  0.80838769451E+03  0.00000000000E+00 0.  1.
<mgrwt>
<rscale>  0 0.86367874E+02</rscale>
<asrwt>0</asrwt>
<pdfrwt beam="2">  1        3 0.26010383E-03 0.86367874E+02</pdfrwt>
<pdfrwt beam="1">  1       -3 0.16969576E+00 0.86367874E+02</pdfrwt>
<totfact> 0.10349092E+04</totfact>
</mgrwt>
</event>
<event>
 5    1  0.3845386E+001  0.8930157E+02  0.7546771E-02  0.1304552E+00
          1   -1    0    0  501    0  0.00000000000E+00  0.00000000000E+00  0.20360514101E+03  0.20360514101E+03  0.00000000000E+00 0. -1.
         -1   -1    0    0    0  501 -0.00000000000E+00 -0.00000000000E+00 -0.97919556703E+01  0.97919556703E+01  0.00000000000E+00 0.  1.
         23    2    1    2    0    0  0.00000000000E+00  0.00000000000E+00  0.19381318534E+03  0.21339709668E+03  0.89301568072E+02 0.  0.
          2    1    3    3  502    0  0.19490440902E+02  0.96960121663E+01  0.19006520480E+03  0.19130779392E+03  0.00000000000E+00 0. -1.
         -2    1    3    3    0  502 -0.19490440902E+02 -0.96960121663E+01  0.37479805433E+01  0.22089302765E+02  0.00000000000E+00 0.  1.
<mgrwt>
<rscale>  0 0.89301568E+02</rscale>
<asrwt>0</asrwt>
<pdfrwt beam="1">  1        1 0.31323865E-01 0.89301568E+02</pdfrwt>
<pdfrwt beam="2">  1       -1 0.15064549E-02 0.89301568E+02</pdfrwt>
<totfact> 0.12561278E+05</totfact>
</mgrwt>
</event>
<event>
 5    1  0.3845386E+001  0.8863811E+02  0.7546771E-02  0.1306184E+00
          2   -1    0    0  501    0  0.00000000000E+00  0.00000000000E+00  0.29791762666E+03  0.29791762666E+03  0.00000000000E+00 0. -1.
         -2   -1    0    0    0  501 -0.00000000000E+00 -0.00000000000E+00 -0.65930254349E+01  0.65930254349E+01  0.00000000000E+00 0.  1.
         23    2    1    2    0    0  0.00000000000E+00  0.00000000000E+00  0.29132460123E+03  0.30451065210E+03  0.88638106706E+02 0.  0.
          2    1    3    3  502    0  0.11578003581E+02  0.25222829984E+02  0.26436832357E+03  0.26582108988E+03  0.00000000000E+00 0. -1.
         -2    1    3    3    0  502 -0.11578003581E+02 -0.25222829984E+02  0.26956277663E+02  0.38689562220E+02  0.00000000000E+00 0.  1.
<mgrwt>
<rscale>  0 0.88638107E+02</rscale>
<asrwt>0</asrwt>
<pdfrwt beam="1">  1        2 0.45833470E-01 0.88638107E+02</pdfrwt>
<pdfrwt beam="2">  1       -2 0.10143118E-02 0.88638107E+02</pdfrwt>
<totfact> 0.19318927E+05</totfact>
</mgrwt>
</event>
<event>
 5    1  0.3845386E+001  0.9297655E+02  0.7546771E-02  0.1295800E+00
          1   -1    0    0  501    0  0.00000000000E+00  0.00000000000E+00  0.12511489373E+03  0.12511489373E+03  0.00000000000E+00 0. -1.
         -1   -1    0    0    0  501 -0.00000000000E+00 -0.00000000000E+00 -0.17273401862E+02  0.17273401862E+02  0.00000000000E+00 0.  1.
         23    2    1    2    0    0  0.00000000000E+00  0.00000000000E+00  0.10784149187E+03  0.14238829559E+03  0.92976552707E+02 0.  0.
          2    1    3    3  502    0 -0.19002717548E+01  0.20245361887E+02  0.11794301764E+03  0.11968308620E+03  0.00000000000E+00 0. -1.
         -2    1    3    3    0  502  0.19002717548E+01 -0.20245361887E+02 -0.10101525776E+02  0.22705209395E+02  0.00000000000E+00 0.  1.
<mgrwt>
<rscale>  0 0.92976553E+02</rscale>
<asrwt>0</asrwt>
<pdfrwt beam="1">  1        1 0.19248445E-01 0.92976553E+02</pdfrwt>
<pdfrwt beam="2">  1       -1 0.26574465E-02 0.92976553E+02</pdfrwt>
<totfact> 0.10291979E+05</totfact>
</mgrwt>
</event>
<event>
 5    1  0.3845386E+001  0.9057643E+02  0.7546771E-02  0.1301462E+00
          1   -1    0    0  501    0  0.00000000000E+00  0.00000000000E+00  0.46704079716E+03  0.46704079716E+03  0.00000000000E+00 0. -1.
         -1   -1    0    0    0  501 -0.00000000000E+00 -0.00000000000E+00 -0.43915271791E+01  0.43915271791E+01  0.00000000000E+00 0.  1.
         23    2    1    2    0    0  0.00000000000E+00  0.00000000000E+00  0.46264926998E+03  0.47143232434E+03  0.90576428600E+02 0.  0.
          2    1    3    3  502    0  0.40834632554E+02  0.17410947634E+02  0.18465116302E+03  0.18991224373E+03  0.00000000000E+00 0.  1.
         -2    1    3    3    0  502 -0.40834632554E+02 -0.17410947634E+02  0.27799810696E+03  0.28152008061E+03  0.00000000000E+00 0. -1.
<mgrwt>
<rscale>  0 0.90576429E+02</rscale>
<asrwt>0</asrwt>
<pdfrwt beam="1">  1        1 0.71852391E-01 0.90576429E+02</pdfrwt>
<pdfrwt beam="2">  1       -1 0.67561993E-03 0.90576429E+02</pdfrwt>
<totfact> 0.14050663E+05</totfact>
</mgrwt>
</event>
<event>
 5    1  0.3845386E+001  0.9357106E+02  0.7546771E-02  0.1294427E+00
          2   -1    0    0  501    0  0.00000000000E+00  0.00000000000E+00  0.87307658412E+03  0.87307658412E+03  0.00000000000E+00 0. -1.
         -2   -1    0    0    0  501 -0.00000000000E+00 -0.00000000000E+00 -0.25070946442E+01  0.25070946442E+01  0.00000000000E+00 0.  1.
         23    2    1    2    0    0  0.00000000000E+00  0.00000000000E+00  0.87056948948E+03  0.87558367877E+03  0.93571055954E+02 0.  0.
          2    1    3    3  502    0 -0.31127470400E+02 -0.94233294329E+01  0.12056825024E+03  0.12487762617E+03  0.00000000000E+00 0.  1.
         -2    1    3    3    0  502  0.31127470400E+02  0.94233294329E+01  0.75000123924E+03  0.75070605260E+03  0.00000000000E+00 0. -1.
<mgrwt>
<rscale>  0 0.93571056E+02</rscale>
<asrwt>0</asrwt>
<pdfrwt beam="1">  1        2 0.13431923E+00 0.93571056E+02</pdfrwt>
<pdfrwt beam="2">  1       -2 0.38570757E-03 0.93571056E+02</pdfrwt>
<totfact> 0.23070413E+05</totfact>
</mgrwt>
</event>
<event>
 5    1  0.3845386E+001  0.9213087E+02  0.7546771E-02  0.1297772E+00
          2   -1    0    0  501    0  0.00000000000E+00  0.00000000000E+00  0.16233689821E+03  0.16233689821E+03  0.00000000000E+00 0.  1.
         -2   -1    0    0    0  501 -0.00000000000E+00 -0.00000000000E+00 -0.13071730198E+02  0.13071730198E+02  0.00000000000E+00 0. -1.
         23    2    1    2    0    0  0.00000000000E+00  0.00000000000E+00  0.14926516801E+03  0.17540862841E+03  0.92130866373E+02 0.  0.
          2    1    3    3  502    0  0.28412405465E+02 -0.34719470964E+01  0.59148505668E+01  0.29228490522E+02  0.00000000000E+00 0. -1.
         -2    1    3    3    0  502 -0.28412405465E+02  0.34719470964E+01  0.14335031745E+03  0.14618013789E+03  0.00000000000E+00 0.  1.
<mgrwt>
<rscale>  0 0.92130866E+02</rscale>
<asrwt>0</asrwt>
<pdfrwt beam="1">  1        2 0.24974906E-01 0.92130866E+02</pdfrwt>
<pdfrwt beam="2">  1       -2 0.20110355E-02 0.92130866E+02</pdfrwt>
<totfact> 0.13965661E+05</totfact>
</mgrwt>
</event>
<event>
 5    1  0.3845386E+001  0.9166062E+02  0.7546771E-02  0.1298879E+00
         -2   -1    0    0    0  501 -0.00000000000E+00  0.00000000000E+00  0.62072437256E+01  0.62072437256E+01  0.00000000000E+00 0.  1.
          2   -1    0    0  501    0  0.00000000000E+00 -0.00000000000E+00 -0.33838164629E+03  0.33838164629E+03  0.00000000000E+00 0. -1.
         23    2    1    2    0    0  0.00000000000E+00  0.00000000000E+00 -0.33217440256E+03  0.34458889001E+03  0.91660620787E+02 0.  0.
          2    1    3    3  502    0  0.12610901782E+02 -0.33978191091E+02 -0.60631855210E+02  0.70638333642E+02  0.00000000000E+00 0. -1.
         -2    1    3    3    0  502 -0.12610901782E+02  0.33978191091E+02 -0.27154254735E+03  0.27395055637E+03  0.00000000000E+00 0.  1.
<mgrwt>
<rscale>  0 0.91660621E+02</rscale>
<asrwt>0</asrwt>
<pdfrwt beam="2">  1        2 0.52058726E-01 0.91660621E+02</pdfrwt>
<pdfrwt beam="1">  1       -2 0.95496037E-03 0.91660621E+02</pdfrwt>
<totfact> 0.18522496E+05</totfact>
</mgrwt>
</event>
<event>
 5    1  0.3845386E+001  0.9269730E+02  0.7546771E-02  0.1296448E+00
         -2   -1    0    0    0  501 -0.00000000000E+00  0.00000000000E+00  0.10808496219E+03  0.10808496219E+03  0.00000000000E+00 0.  1.
          2   -1    0    0  501    0  0.00000000000E+00 -0.00000000000E+00 -0.19875080029E+02  0.19875080029E+02  0.00000000000E+00 0. -1.
         23    2    1    2    0    0  0.00000000000E+00  0.00000000000E+00  0.88209882159E+02  0.12796004222E+03  0.92697298201E+02 0.  0.
          2    1    3    3  502    0 -0.44481393217E+02 -0.11021037009E+02  0.34527293083E+02  0.57377622528E+02  0.00000000000E+00 0. -1.
         -2    1    3    3    0  502  0.44481393217E+02  0.11021037009E+02  0.53682589076E+02  0.70582419689E+02  0.00000000000E+00 0.  1.
<mgrwt>
<rscale>  0 0.92697298E+02</rscale>
<asrwt>0</asrwt>
<pdfrwt beam="2">  1        2 0.30577047E-02 0.92697298E+02</pdfrwt>
<pdfrwt beam="1">  1       -2 0.16628455E-01 0.92697298E+02</pdfrwt>
<totfact> 0.74790031E+04</totfact>
</mgrwt>
</event>
<event>
 5    1  0.3845386E+001  0.8941520E+02  0.7546771E-02  0.1304274E+00
          2   -1    0    0  501    0  0.00000000000E+00  0.00000000000E+00  0.70818576709E+03  0.70818576709E+03  0.00000000000E+00 0. -1.
         -2   -1    0    0    0  501 -0.00000000000E+00 -0.00000000000E+00 -0.28223803552E+01  0.28223803552E+01  0.00000000000E+00 0.  1.
         23    2    1    2    0    0  0.00000000000E+00  0.00000000000E+00  0.70536338674E+03  0.71100814745E+03  0.89415202217E+02 0.  0.
          2    1    3    3  502    0 -0.29236330340E+02  0.12216741037E+02  0.10188494815E+03  0.10669842751E+03  0.00000000000E+00 0.  1.
         -2    1    3    3    0  502  0.29236330340E+02 -0.12216741037E+02  0.60347843858E+03  0.60430971994E+03  0.00000000000E+00 0. -1.
<mgrwt>
<rscale>  0 0.89415202E+02</rscale>
<asrwt>0</asrwt>
<pdfrwt beam="1">  1        2 0.10895152E+00 0.89415202E+02</pdfrwt>
<pdfrwt beam="2">  1       -2 0.43421293E-03 0.89415202E+02</pdfrwt>
<totfact> 0.25032028E+05</totfact>
</mgrwt>
</event>
<event>
 5    1  0.3845386E+001  0.9202607E+02  0.7546771E-02  0.1298018E+00
          1   -1    0    0  501    0  0.00000000000E+00  0.00000000000E+00  0.13013886926E+02  0.13013886926E+02  0.00000000000E+00 0. -1.
         -1   -1    0    0    0  501 -0.00000000000E+00 -0.00000000000E+00 -0.16268768926E+03  0.16268768926E+03  0.00000000000E+00 0.  1.
         23    2    1    2    0    0  0.00000000000E+00  0.00000000000E+00 -0.14967380234E+03  0.17570157619E+03  0.92026065706E+02 0.  0.
          2    1    3    3  502    0 -0.55263066907E+01 -0.27288332841E+02 -0.48942591100E+01  0.28269187238E+02  0.00000000000E+00 0. -1.
         -2    1    3    3    0  502  0.55263066907E+01  0.27288332841E+02 -0.14477954323E+03  0.14743238895E+03  0.00000000000E+00 0.  1.
<mgrwt>
<rscale>  0 0.92026066E+02</rscale>
<asrwt>0</asrwt>
<pdfrwt beam="1">  1        1 0.20021365E-02 0.92026066E+02</pdfrwt>
<pdfrwt beam="2">  1       -1 0.25028875E-01 0.92026066E+02</pdfrwt>
<totfact> 0.71594796E+04</totfact>
</mgrwt>
</event>
<event>
 5    1  0.3845386E+001  0.9032886E+02  0.7546771E-02  0.1302057E+00
          3   -1    0    0  501    0  0.00000000000E+00  0.00000000000E+00  0.47199465820E+02  0.47199465820E+02  0.00000000000E+00 0. -1.
         -3   -1    0    0    0  501 -0.00000000000E+00 -0.00000000000E+00 -0.43217132242E+02  0.43217132242E+02  0.00000000000E+00 0.  1.
         23    2    1    2    0    0  0.00000000000E+00  0.00000000000E+00  0.39823335778E+01  0.90416598061E+02  0.90328855989E+02 0.  0.
          2    1    3    3  502    0 -0.10067049952E+02 -0.34629267418E+02  0.29207537633E+02  0.46407024373E+02  0.00000000000E+00 0. -1.
         -2    1    3    3    0  502  0.10067049952E+02  0.34629267418E+02 -0.25225204055E+02  0.44009573688E+02  0.00000000000E+00 0.  1.
<mgrwt>
<rscale>  0 0.90328856E+02</rscale>
<asrwt>0</asrwt>
<pdfrwt beam="1">  1        3 0.72614563E-02 0.90328856E+02</pdfrwt>
<pdfrwt beam="2">  1       -3 0.66487895E-02 0.90328856E+02</pdfrwt>
<totfact> 0.36308460E+04</totfact>
</mgrwt>
</event>
<event>
 5    1  0.3845386E+001  0.9400802E+02  0.7546771E-02  0.1293426E+00
          2   -1    0    0  501    0  0.00000000000E+00  0.00000000000E+00  0.37504147907E+03  0.37504147907E+03  0.00000000000E+00 0. -1.
         -2   -1    0    0    0  501 -0.00000000000E+00 -0.00000000000E+00 -0.58910202347E+01  0.58910202347E+01  0.00000000000E+00 0.  1.
         23    2    1    2    0    0  0.00000000000E+00  0.00000000000E+00  0.36915045884E+03  0.38093249931E+03  0.94008019702E+02 0.  0.
          2    1    3    3  502    0  0.10792000437E+02 -0.31198661872E+02  0.32015830557E+03  0.32185581306E+03  0.00000000000E+00 0. -1.
         -2    1    3    3    0  502 -0.10792000437E+02  0.31198661872E+02  0.48992153271E+02  0.59076686249E+02  0.00000000000E+00 0.  1.
<mgrwt>
<rscale>  0 0.94008020E+02</rscale>
<asrwt>0</asrwt>
<pdfrwt beam="1">  1        2 0.57698671E-01 0.94008020E+02</pdfrwt>
<pdfrwt beam="2">  1       -2 0.90631110E-03 0.94008020E+02</pdfrwt>
<totfact> 0.17978657E+05</totfact>
</mgrwt>
</event>
<event>
 5    1  0.3845386E+001  0.5505849E+02  0.7546771E-02  0.1419822E+00
          1   -1    0    0  501    0  0.00000000000E+00  0.00000000000E+00  0.96073240753E+01  0.96073240753E+01  0.00000000000E+00 0. -1.
         -1   -1    0    0    0  501 -0.00000000000E+00 -0.00000000000E+00 -0.78883499102E+02  0.78883499102E+02  0.00000000000E+00 0.  1.
         23    2    1    2    0    0  0.00000000000E+00  0.00000000000E+00 -0.69276175026E+02  0.88490823177E+02  0.55058490356E+02 0.  0.
          2    1    3    3  502    0 -0.24157581736E+02  0.28269568270E+01 -0.13913184496E+02  0.28020655651E+02  0.00000000000E+00 0. -1.
         -2    1    3    3    0  502  0.24157581736E+02 -0.28269568270E+01 -0.55362990530E+02  0.60470167526E+02  0.00000000000E+00 0.  1.
<mgrwt>
<rscale>  0 0.55058490E+02</rscale>
<asrwt>0</asrwt>
<pdfrwt beam="1">  1        1 0.14780499E-02 0.55058490E+02</pdfrwt>
<pdfrwt beam="2">  1       -1 0.12135923E-01 0.55058490E+02</pdfrwt>
<totfact> 0.30396674E+05</totfact>
</mgrwt>
</event>
<event>
 5    1  0.3845386E+001  0.8842254E+02  0.7546771E-02  0.1306717E+00
          4   -1    0    0  501    0  0.00000000000E+00  0.00000000000E+00  0.88054009957E+01  0.88054009957E+01  0.00000000000E+00 0. -1.
         -4   -1    0    0    0  501 -0.00000000000E+00 -0.00000000000E+00 -0.22198152338E+03  0.22198152338E+03  0.00000000000E+00 0.  1.
         23    2    1    2    0    0  0.00000000000E+00  0.00000000000E+00 -0.21317612238E+03  0.23078692437E+03  0.88422538461E+02 0.  0.
          2    1    3    3  502    0 -0.10958533407E+02 -0.34228250313E+02 -0.17379225699E+03  0.17746946544E+03  0.00000000000E+00 0. -1.
         -2    1    3    3    0  502  0.10958533407E+02  0.34228250313E+02 -0.39383865393E+02  0.53317458934E+02  0.00000000000E+00 0.  1.
<mgrwt>
<rscale>  0 0.88422538E+02</rscale>
<asrwt>0</asrwt>
<pdfrwt beam="1">  1        4 0.13546771E-02 0.88422538E+02</pdfrwt>
<pdfrwt beam="2">  1       -4 0.34151002E-01 0.88422538E+02</pdfrwt>
<totfact> 0.21879914E+04</totfact>
</mgrwt>
</event>
<event>
 5    1  0.3845386E+001  0.8983223E+02  0.7546771E-02  0.1303258E+00
         -4   -1    0    0    0  501 -0.00000000000E+00  0.00000000000E+00  0.91304119769E+03  0.91304119769E+03  0.00000000000E+00 0.  1.
          4   -1    0    0  501    0  0.00000000000E+00 -0.00000000000E+00 -0.22096015031E+01  0.22096015031E+01  0.00000000000E+00 0. -1.
         23    2    1    2    0    0  0.00000000000E+00  0.00000000000E+00  0.91083159619E+03  0.91525079920E+03  0.89832225906E+02 0.  0.
          2    1    3    3  502    0  0.31095426210E+02  0.31860196727E+02  0.51608586596E+03  0.51800252771E+03  0.00000000000E+00 0. -1.
         -2    1    3    3    0  502 -0.31095426210E+02 -0.31860196727E+02  0.39474573023E+03  0.39724827149E+03  0.00000000000E+00 0.  1.
<mgrwt>
<rscale>  0 0.89832226E+02</rscale>
<asrwt>0</asrwt>
<pdfrwt beam="2">  1        4 0.33993942E-03 0.89832226E+02</pdfrwt>
<pdfrwt beam="1">  1       -4 0.14046758E+00 0.89832226E+02</pdfrwt>
<totfact> 0.81217202E+03</totfact>
</mgrwt>
</event>
<event>
 5    1  0.3845386E+001  0.9273770E+02  0.7546771E-02  0.1296354E+00
         -1   -1    0    0    0  501 -0.00000000000E+00  0.00000000000E+00  0.47641539469E+03  0.47641539469E+03  0.00000000000E+00 0.  1.
          1   -1    0    0  501    0  0.00000000000E+00 -0.00000000000E+00 -0.45130155281E+01  0.45130155281E+01  0.00000000000E+00 0. -1.
         23    2    1    2    0    0  0.00000000000E+00  0.00000000000E+00  0.47190237916E+03  0.48092841022E+03  0.92737696198E+02 0.  0.
          2    1    3    3  502    0  0.23651181465E+02 -0.26374290886E+01  0.44233017720E+03  0.44296988619E+03  0.00000000000E+00 0.  1.
         -2    1    3    3    0  502 -0.23651181465E+02  0.26374290886E+01  0.29572201964E+02  0.37958524021E+02  0.00000000000E+00 0. -1.
<mgrwt>
<rscale>  0 0.92737696E+02</rscale>
<asrwt>0</asrwt>
<pdfrwt beam="2">  1        1 0.69431046E-03 0.92737696E+02</pdfrwt>
<pdfrwt beam="1">  1       -1 0.73294636E-01 0.92737696E+02</pdfrwt>
<totfact> 0.46323584E+04</totfact>
</mgrwt>
</event>
<event>
 5    1  0.3845386E+001  0.8837808E+02  0.7546771E-02  0.1306828E+00
          4   -1    0    0  501    0  0.00000000000E+00  0.00000000000E+00  0.23786636945E+03  0.23786636945E+03  0.00000000000E+00 0. -1.
         -4   -1    0    0    0  501 -0.00000000000E+00 -0.00000000000E+00 -0.82091107702E+01  0.82091107702E+01  0.00000000000E+00 0.  1.
         23    2    1    2    0    0  0.00000000000E+00  0.00000000000E+00  0.22965725868E+03  0.24607548022E+03  0.88378082697E+02 0.  0.
          2    1    3    3  502    0  0.22447808714E+02 -0.35688346543E+02  0.15167360069E+03  0.15742440516E+03  0.00000000000E+00 0. -1.
         -2    1    3    3    0  502 -0.22447808714E+02  0.35688346543E+02  0.77983657989E+02  0.88651075055E+02  0.00000000000E+00 0.  1.
<mgrwt>
<rscale>  0 0.88378083E+02</rscale>
<asrwt>0</asrwt>
<pdfrwt beam="1">  1        4 0.36594821E-01 0.88378083E+02</pdfrwt>
<pdfrwt beam="2">  1       -4 0.12629403E-02 0.88378083E+02</pdfrwt>
<totfact> 0.21296659E+04</totfact>
</mgrwt>
</event>
<event>
 5    1  0.3845386E+001  0.8596953E+02  0.7546771E-02  0.1312916E+00
          3   -1    0    0  501    0  0.00000000000E+00  0.00000000000E+00  0.16075930427E+03  0.16075930427E+03  0.00000000000E+00 0. -1.
         -3   -1    0    0    0  501 -0.00000000000E+00 -0.00000000000E+00 -0.11493517874E+02  0.11493517874E+02  0.00000000000E+00 0.  1.
         23    2    1    2    0    0  0.00000000000E+00  0.00000000000E+00  0.14926578639E+03  0.17225282214E+03  0.85969528021E+02 0.  0.
          2    1    3    3  502    0 -0.23520113629E+02  0.26371326616E+02  0.12367310870E+03  0.12862223924E+03  0.00000000000E+00 0. -1.
         -2    1    3    3    0  502  0.23520113629E+02 -0.26371326616E+02  0.25592677698E+02  0.43630582902E+02  0.00000000000E+00 0.  1.
<mgrwt>
<rscale>  0 0.85969528E+02</rscale>
<asrwt>0</asrwt>
<pdfrwt beam="1">  1        3 0.24732199E-01 0.85969528E+02</pdfrwt>
<pdfrwt beam="2">  1       -3 0.17682336E-02 0.85969528E+02</pdfrwt>
<totfact> 0.35140277E+04</totfact>
</mgrwt>
</event>
<event>
 5    1  0.3845386E+001  0.9325389E+02  0.7546771E-02  0.1295158E+00
         -2   -1    0    0    0  501 -0.00000000000E+00  0.00000000000E+00  0.30821487907E+03  0.30821487907E+03  0.00000000000E+00 0.  1.
          2   -1    0    0  501    0  0.00000000000E+00 -0.00000000000E+00 -0.70537546976E+01  0.70537546976E+01  0.00000000000E+00 0. -1.
         23    2    1    2    0    0  0.00000000000E+00  0.00000000000E+00  0.30116112437E+03  0.31526863376E+03  0.93253893240E+02 0.  0.
          2    1    3    3  502    0  0.20447115455E+02 -0.30092679075E+01  0.92774316423E+01  0.22654159919E+02  0.00000000000E+00 0. -1.
         -2    1    3    3    0  502 -0.20447115455E+02  0.30092679075E+01  0.29188369273E+03  0.29261447384E+03  0.00000000000E+00 0.  1.
<mgrwt>
<rscale>  0 0.93253893E+02</rscale>
<asrwt>0</asrwt>
<pdfrwt beam="2">  1        2 0.10851933E-02 0.93253893E+02</pdfrwt>
<pdfrwt beam="1">  1       -2 0.47417663E-01 0.93253893E+02</pdfrwt>
<totfact> 0.47390612E+04</totfact>
</mgrwt>
</event>
<event>
 5    1  0.3845386E+001  0.9011664E+02  0.7546771E-02  0.1302569E+00
         -1   -1    0    0    0  501 -0.00000000000E+00  0.00000000000E+00  0.19695312701E+01  0.19695312701E+01  0.00000000000E+00 0.  1.
          1   -1    0    0  501    0  0.00000000000E+00 -0.00000000000E+00 -0.10308302153E+04  0.10308302153E+04  0.00000000000E+00 0. -1.
         23    2    1    2    0    0  0.00000000000E+00  0.00000000000E+00 -0.10288606840E+04  0.10327997466E+04  0.90116643151E+02 0.  0.
          2    1    3    3  502    0  0.17866214745E+02  0.37908945657E+02 -0.70412570689E+03  0.70537174660E+03  0.00000000000E+00 0. -1.
         -2    1    3    3    0  502 -0.17866214745E+02 -0.37908945657E+02 -0.32473497715E+03  0.32742799999E+03  0.00000000000E+00 0.  1.
<mgrwt>
<rscale>  0 0.90116643E+02</rscale>
<asrwt>0</asrwt>
<pdfrwt beam="2">  1        1 0.15858917E+00 0.90116643E+02</pdfrwt>
<pdfrwt beam="1">  1       -1 0.30300498E-03 0.90116643E+02</pdfrwt>
<totfact> 0.13909339E+05</totfact>
</mgrwt>
</event>
<event>
 5    1  0.3845386E+001  0.9118246E+02  0.7546771E-02  0.1300013E+00
          1   -1    0    0  501    0  0.00000000000E+00  0.00000000000E+00  0.29180556729E+03  0.29180556729E+03  0.00000000000E+00 0. -1.
         -1   -1    0    0    0  501 -0.00000000000E+00 -0.00000000000E+00 -0.71231006016E+01  0.71231006016E+01  0.00000000000E+00 0.  1.
         23    2    1    2    0    0  0.00000000000E+00  0.00000000000E+00  0.28468246669E+03  0.29892866789E+03  0.91182463488E+02 0.  0.
          2    1    3    3  502    0  0.30886660008E+02  0.29512453112E+02  0.90135031403E+02  0.99746150508E+02  0.00000000000E+00 0.  1.
         -2    1    3    3    0  502 -0.30886660008E+02 -0.29512453112E+02  0.19454743529E+03  0.19918251739E+03  0.00000000000E+00 0. -1.
<mgrwt>
<rscale>  0 0.91182463E+02</rscale>
<asrwt>0</asrwt>
<pdfrwt beam="1">  1        1 0.44893155E-01 0.91182463E+02</pdfrwt>
<pdfrwt beam="2">  1       -1 0.10958619E-02 0.91182463E+02</pdfrwt>
<totfact> 0.12742372E+05</totfact>
</mgrwt>
</event>
<event>
 5    1  0.3845386E+001  0.8952030E+02  0.7546771E-02  0.1304018E+00
          1   -1    0    0  501    0  0.00000000000E+00  0.00000000000E+00  0.14026005262E+02  0.14026005262E+02  0.00000000000E+00 0. -1.
         -1   -1    0    0    0  501 -0.00000000000E+00 -0.00000000000E+00 -0.14283973263E+03  0.14283973263E+03  0.00000000000E+00 0.  1.
         23    2    1    2    0    0  0.00000000000E+00  0.00000000000E+00 -0.12881372737E+03  0.15686573789E+03  0.89520295833E+02 0.  0.
          2    1    3    3  502    0 -0.41608126705E+02 -0.85752875677E+01 -0.39706433753E+02  0.58149571332E+02  0.00000000000E+00 0. -1.
         -2    1    3    3    0  502  0.41608126705E+02  0.85752875677E+01 -0.89107293617E+02  0.98716166561E+02  0.00000000000E+00 0.  1.
<mgrwt>
<rscale>  0 0.89520296E+02</rscale>
<asrwt>0</asrwt>
<pdfrwt beam="1">  1        1 0.21578469E-02 0.89520296E+02</pdfrwt>
<pdfrwt beam="2">  1       -1 0.21975344E-01 0.89520296E+02</pdfrwt>
<totfact> 0.79315640E+04</totfact>
</mgrwt>
</event>
<event>
 5    1  0.3845386E+001  0.9137629E+02  0.7546771E-02  0.1299553E+00
         -3   -1    0    0    0  501 -0.00000000000E+00  0.00000000000E+00  0.11291571114E+03  0.11291571114E+03  0.00000000000E+00 0.  1.
          3   -1    0    0  501    0  0.00000000000E+00 -0.00000000000E+00 -0.18486414062E+02  0.18486414062E+02  0.00000000000E+00 0. -1.
         23    2    1    2    0    0  0.00000000000E+00  0.00000000000E+00  0.94429297076E+02  0.13140212520E+03  0.91376289927E+02 0.  0.
          2    1    3    3  502    0  0.12650476853E+02 -0.43855155174E+02  0.44303780391E+02  0.63609230123E+02  0.00000000000E+00 0. -1.
         -2    1    3    3    0  502 -0.12650476853E+02  0.43855155174E+02  0.50125516685E+02  0.67792895077E+02  0.00000000000E+00 0.  1.
<mgrwt>
<rscale>  0 0.91376290E+02</rscale>
<asrwt>0</asrwt>
<pdfrwt beam="2">  1        3 0.28440638E-02 0.91376290E+02</pdfrwt>
<pdfrwt beam="1">  1       -3 0.17371647E-01 0.91376290E+02</pdfrwt>
<totfact> 0.32293121E+04</totfact>
</mgrwt>
</event>
<event>
 5    1  0.3845386E+001  0.8853128E+02  0.7546771E-02  0.1306448E+00
         -3   -1    0    0    0  501 -0.00000000000E+00  0.00000000000E+00  0.12380209030E+02  0.12380209030E+02  0.00000000000E+00 0.  1.
          3   -1    0    0  501    0  0.00000000000E+00 -0.00000000000E+00 -0.15827253159E+03  0.15827253159E+03  0.00000000000E+00 0. -1.
         23    2    1    2    0    0  0.00000000000E+00  0.00000000000E+00 -0.14589232256E+03  0.17065274062E+03  0.88531283167E+02 0.  0.
          2    1    3    3  502    0 -0.39980369400E+02  0.16407226605E+02 -0.91416938003E+02  0.10111717745E+03  0.00000000000E+00 0. -1.
         -2    1    3    3    0  502  0.39980369400E+02 -0.16407226605E+02 -0.54475384554E+02  0.69535563164E+02  0.00000000000E+00 0.  1.
<mgrwt>
<rscale>  0 0.88531283E+02</rscale>
<asrwt>0</asrwt>
<pdfrwt beam="2">  1        3 0.24349619E-01 0.88531283E+02</pdfrwt>
<pdfrwt beam="1">  1       -3 0.19046476E-02 0.88531283E+02</pdfrwt>
<totfact> 0.32574267E+04</totfact>
</mgrwt>
</event>
<event>
 5    1  0.3845386E+001  0.8933178E+02  0.7546771E-02  0.1304478E+00
         -2   -1    0    0    0  501 -0.00000000000E+00  0.00000000000E+00  0.93312341298E+01  0.93312341298E+01  0.00000000000E+00 0.  1.
          2   -1    0    0  501    0  0.00000000000E+00 -0.00000000000E+00 -0.21380255568E+03  0.21380255568E+03  0.00000000000E+00 0. -1.
         23    2    1    2    0    0  0.00000000000E+00  0.00000000000E+00 -0.20447132155E+03  0.22313378981E+03  0.89331779443E+02 0.  0.
          2    1    3    3  502    0 -0.18266921451E+02 -0.27337052835E+02 -0.17775246095E+03  0.18076761948E+03  0.00000000000E+00 0. -1.
         -2    1    3    3    0  502  0.18266921451E+02  0.27337052835E+02 -0.26718860598E+02  0.42366170333E+02  0.00000000000E+00 0.  1.
<mgrwt>
<rscale>  0 0.89331779E+02</rscale>
<asrwt>0</asrwt>
<pdfrwt beam="2">  1        2 0.32892700E-01 0.89331779E+02</pdfrwt>
<pdfrwt beam="1">  1       -2 0.14355745E-02 0.89331779E+02</pdfrwt>
<totfact> 0.16741135E+05</totfact>
</mgrwt>
</event>
<event>
 5    1  0.3845386E+001  0.9173689E+02  0.7546771E-02  0.1298699E+00
         -1   -1    0    0    0  501 -0.00000000000E+00  0.00000000000E+00  0.32517714138E+03  0.32517714138E+03  0.00000000000E+00 0. -1.
          1   -1    0    0  501    0  0.00000000000E+00 -0.00000000000E+00 -0.64700560370E+01  0.64700560370E+01  0.00000000000E+00 0.  1.
         23    2    1    2    0    0  0.00000000000E+00  0.00000000000E+00  0.31870708535E+03  0.33164719742E+03  0.91736891744E+02 0.  0.
          2    1    3    3  502    0  0.18599031085E+02  0.41800051166E+02  0.17120461331E+03  0.17721226779E+03  0.00000000000E+00 0. -1.
         -2    1    3    3    0  502 -0.18599031085E+02 -0.41800051166E+02  0.14750247203E+03  0.15443492963E+03  0.00000000000E+00 0.  1.
<mgrwt>
<rscale>  0 0.91736892E+02</rscale>
<asrwt>0</asrwt>
<pdfrwt beam="2">  1        1 0.99539349E-03 0.91736892E+02</pdfrwt>
<pdfrwt beam="1">  1       -1 0.50027240E-01 0.91736892E+02</pdfrwt>
<totfact> 0.57697996E+04</totfact>
</mgrwt>
</event>
<event>
 5    1  0.3845386E+001  0.9430064E+02  0.7546771E-02  0.1292759E+00
         -2   -1    0    0    0  501 -0.00000000000E+00  0.00000000000E+00  0.42163622608E+02  0.42163622608E+02  0.00000000000E+00 0.  1.
          2   -1    0    0  501    0  0.00000000000E+00 -0.00000000000E+00 -0.52726794573E+02  0.52726794573E+02  0.00000000000E+00 0. -1.
         23    2    1    2    0    0  0.00000000000E+00  0.00000000000E+00 -0.10563171965E+02  0.94890417181E+02  0.94300639822E+02 0.  0.
          2    1    3    3  502    0  0.25811482718E+02  0.42639246311E+01 -0.44753682458E+02  0.51839230192E+02  0.00000000000E+00 0. -1.
         -2    1    3    3    0  502 -0.25811482718E+02 -0.42639246311E+01  0.34190510493E+02  0.43051186989E+02  0.00000000000E+00 0.  1.
<mgrwt>
<rscale>  0 0.94300640E+02</rscale>
<asrwt>0</asrwt>
<pdfrwt beam="2">  1        2 0.81118145E-02 0.94300640E+02</pdfrwt>
<pdfrwt beam="1">  1       -2 0.64867112E-02 0.94300640E+02</pdfrwt>
<totfact> 0.93097635E+04</totfact>
</mgrwt>
</event>
<event>
 5    1  0.3845386E+001  0.8986869E+02  0.7546771E-02  0.1303170E+00
          1   -1    0    0  501    0  0.00000000000E+00  0.00000000000E+00  0.26241818184E+03  0.26241818184E+03  0.00000000000E+00 0. -1.
         -1   -1    0    0    0  501 -0.00000000000E+00 -0.00000000000E+00 -0.76941900019E+01  0.76941900019E+01  0.00000000000E+00 0.  1.
         23    2    1    2    0    0  0.00000000000E+00  0.00000000000E+00  0.25472399184E+03  0.27011237184E+03  0.89868689788E+02 0.  0.
          2    1    3    3  502    0  0.27230145500E+00  0.32718439974E+02  0.21992990027E+03  0.22235046997E+03  0.00000000000E+00 0. -1.
         -2    1    3    3    0  502 -0.27230145500E+00 -0.32718439974E+02  0.34794091565E+02  0.47761901870E+02  0.00000000000E+00 0.  1.
<mgrwt>
<rscale>  0 0.89868690E+02</rscale>
<asrwt>0</asrwt>
<pdfrwt beam="1">  1        1 0.40372021E-01 0.89868690E+02</pdfrwt>
<pdfrwt beam="2">  1       -1 0.11837217E-02 0.89868690E+02</pdfrwt>
<totfact> 0.12974975E+05</totfact>
</mgrwt>
</event>
<event>
 5    1  0.3845386E+001  0.9266677E+02  0.7546771E-02  0.1296519E+00
         -4   -1    0    0    0  501 -0.00000000000E+00  0.00000000000E+00  0.31938925130E+02  0.31938925130E+02  0.00000000000E+00 0.  1.
          4   -1    0    0  501    0  0.00000000000E+00 -0.00000000000E+00 -0.67215238209E+02  0.67215238209E+02  0.00000000000E+00 0. -1.
         23    2    1    2    0    0  0.00000000000E+00  0.00000000000E+00 -0.35276313080E+02  0.99154163339E+02  0.92666767738E+02 0.  0.
          2    1    3    3  502    0 -0.31770461212E+02  0.17897660286E+01 -0.53674026762E+02  0.62397649130E+02  0.00000000000E+00 0. -1.
         -2    1    3    3    0  502  0.31770461212E+02 -0.17897660286E+01  0.18397713682E+02  0.36756514209E+02  0.00000000000E+00 0.  1.
<mgrwt>
<rscale>  0 0.92666768E+02</rscale>
<asrwt>0</asrwt>
<pdfrwt beam="2">  1        4 0.10340806E-01 0.92666768E+02</pdfrwt>
<pdfrwt beam="1">  1       -4 0.49136808E-02 0.92666768E+02</pdfrwt>
<totfact> 0.25367651E+04</totfact>
</mgrwt>
</event>
<event>
 5    1  0.3845386E+001  0.9011081E+02  0.7546771E-02  0.1302584E+00
         -4   -1    0    0    0  501 -0.00000000000E+00  0.00000000000E+00  0.10717841745E+04  0.10717841745E+04  0.00000000000E+00 0. -1.
          4   -1    0    0  501    0  0.00000000000E+00 -0.00000000000E+00 -0.18940282831E+01  0.18940282831E+01  0.00000000000E+00 0.  1.
         23    2    1    2    0    0  0.00000000000E+00  0.00000000000E+00  0.10698901462E+04  0.10736782028E+04  0.90110810447E+02 0.  0.
          2    1    3    3  502    0  0.44721489111E+02 -0.52199226215E+01  0.51525682170E+03  0.51722031233E+03  0.00000000000E+00 0. -1.
         -2    1    3    3    0  502 -0.44721489111E+02  0.52199226215E+01  0.55463332449E+03  0.55645789042E+03  0.00000000000E+00 0.  1.
<mgrwt>
<rscale>  0 0.90110810E+02</rscale>
<asrwt>0</asrwt>
<pdfrwt beam="2">  1        4 0.29138982E-03 0.90110810E+02</pdfrwt>
<pdfrwt beam="1">  1       -4 0.16488939E+00 0.90110810E+02</pdfrwt>
<totfact> 0.67792438E+03</totfact>
</mgrwt>
</event>
<event>
 5    1  0.3845386E+001  0.9610644E+02  0.7546771E-02  0.1288703E+00
         -2   -1    0    0    0  501 -0.00000000000E+00  0.00000000000E+00  0.13764565066E+01  0.13764565066E+01  0.00000000000E+00 0.  1.
          2   -1    0    0  501    0  0.00000000000E+00 -0.00000000000E+00 -0.16775771854E+04  0.16775771854E+04  0.00000000000E+00 0. -1.
         23    2    1    2    0    0  0.00000000000E+00  0.00000000000E+00 -0.16762007289E+04  0.16789536419E+04  0.96106441660E+02 0.  0.
          2    1    3    3  502    0  0.24893346272E+02 -0.32983024109E+02 -0.12665732291E+04  0.12672471358E+04  0.00000000000E+00 0. -1.
         -2    1    3    3    0  502 -0.24893346272E+02  0.32983024109E+02 -0.40962749977E+03  0.41170650607E+03  0.00000000000E+00 0.  1.
<mgrwt>
<rscale>  0 0.96106442E+02</rscale>
<asrwt>0</asrwt>
<pdfrwt beam="2">  1        2 0.25808771E+00 0.96106442E+02</pdfrwt>
<pdfrwt beam="1">  1       -2 0.21176343E-03 0.96106442E+02</pdfrwt>
<totfact> 0.19488230E+05</totfact>
</mgrwt>
</event>
<event>
 5    1  0.3845386E+001  0.8984516E+02  0.7546771E-02  0.1303227E+00
         -2   -1    0    0    0  501 -0.00000000000E+00  0.00000000000E+00  0.35394609519E+02  0.35394609519E+02  0.00000000000E+00 0.  1.
          2   -1    0    0  501    0  0.00000000000E+00 -0.00000000000E+00 -0.57015414086E+02  0.57015414086E+02  0.00000000000E+00 0. -1.
         23    2    1    2    0    0  0.00000000000E+00  0.00000000000E+00 -0.21620804567E+02  0.92410023604E+02  0.89845162766E+02 0.  0.
          2    1    3    3  502    0  0.38051486516E+02 -0.21344707033E+02 -0.21817599731E+02  0.48780321878E+02  0.00000000000E+00 0.  1.
         -2    1    3    3    0  502 -0.38051486516E+02  0.21344707033E+02  0.19679516457E+00  0.43629701727E+02  0.00000000000E+00 0. -1.
<mgrwt>
<rscale>  0 0.89845163E+02</rscale>
<asrwt>0</asrwt>
<pdfrwt beam="2">  1        2 0.87716022E-02 0.89845163E+02</pdfrwt>
<pdfrwt beam="1">  1       -2 0.54453245E-02 0.89845163E+02</pdfrwt>
<totfact> 0.10907116E+05</totfact>
</mgrwt>
</event>
<event>
 5    1  0.3845386E+001  0.9148310E+02  0.7546771E-02  0.1299299E+00
         -1   -1    0    0    0  501 -0.00000000000E+00  0.00000000000E+00  0.10358676699E+02  0.10358676699E+02  0.00000000000E+00 0.  1.
          1   -1    0    0  501    0  0.00000000000E+00 -0.00000000000E+00 -0.20198422699E+03  0.20198422699E+03  0.00000000000E+00 0. -1.
         23    2    1    2    0    0  0.00000000000E+00  0.00000000000E+00 -0.19162555029E+03  0.21234290369E+03  0.91483098018E+02 0.  0.
          2    1    3    3  502    0  0.20177207681E+02  0.36723062678E+02 -0.13839664075E+03  0.14460059893E+03  0.00000000000E+00 0.  1.
         -2    1    3    3    0  502 -0.20177207681E+02 -0.36723062678E+02 -0.53228909542E+02  0.67742304753E+02  0.00000000000E+00 0. -1.
<mgrwt>
<rscale>  0 0.91483098E+02</rscale>
<asrwt>0</asrwt>
<pdfrwt beam="2">  1        1 0.31074495E-01 0.91483098E+02</pdfrwt>
<pdfrwt beam="1">  1       -1 0.15936426E-02 0.91483098E+02</pdfrwt>
<totfact> 0.11757010E+05</totfact>
</mgrwt>
</event>
<event>
 5    1  0.3845386E+001  0.9125783E+02  0.7546771E-02  0.1299834E+00
         -1   -1    0    0    0  501 -0.00000000000E+00  0.00000000000E+00  0.42199334135E+02  0.42199334135E+02  0.00000000000E+00 0.  1.
          1   -1    0    0  501    0  0.00000000000E+00 -0.00000000000E+00 -0.49337222920E+02  0.49337222920E+02  0.00000000000E+00 0. -1.
         23    2    1    2    0    0  0.00000000000E+00  0.00000000000E+00 -0.71378887850E+01  0.91536557055E+02  0.91257831560E+02 0.  0.
          2    1    3    3  502    0 -0.33944786249E+02 -0.20190118097E+02 -0.26488428640E+02  0.47555506875E+02  0.00000000000E+00 0. -1.
         -2    1    3    3    0  502  0.33944786249E+02  0.20190118097E+02  0.19350539855E+02  0.43981050180E+02  0.00000000000E+00 0.  1.
<mgrwt>
<rscale>  0 0.91257832E+02</rscale>
<asrwt>0</asrwt>
<pdfrwt beam="2">  1        1 0.75903420E-02 0.91257832E+02</pdfrwt>
<pdfrwt beam="1">  1       -1 0.64922053E-02 0.91257832E+02</pdfrwt>
<totfact> 0.93343952E+04</totfact>
</mgrwt>
</event>
<event>
 5    1  0.3845386E+001  0.1021487E+03  0.7546771E-02  0.1275841E+00
         -4   -1    0    0    0  501 -0.00000000000E+00  0.00000000000E+00  0.99059386490E+01  0.99059386490E+01  0.00000000000E+00 0.  1.
          4   -1    0    0  501    0  0.00000000000E+00 -0.00000000000E+00 -0.26333580159E+03  0.26333580159E+03  0.00000000000E+00 0. -1.
         23    2    1    2    0    0  0.00000000000E+00  0.00000000000E+00 -0.25342986294E+03  0.27324174024E+03  0.10214868173E+03 0.  0.
          2    1    3    3  502    0  0.13838174078E+02 -0.27874264679E+02 -0.23504571978E+03  0.23709694237E+03  0.00000000000E+00 0. -1.
         -2    1    3    3    0  502 -0.13838174078E+02  0.27874264679E+02 -0.18384143155E+02  0.36144797865E+02  0.00000000000E+00 0.  1.
<mgrwt>
<rscale>  0 0.10214868E+03</rscale>
<asrwt>0</asrwt>
<pdfrwt beam="2">  1        4 0.40513195E-01 0.10214868E+03</pdfrwt>
<pdfrwt beam="1">  1       -4 0.15239907E-02 0.10214868E+03</pdfrwt>
<totfact> 0.13759292E+04</totfact>
</mgrwt>
</event>
<event>
 5    1  0.3845386E+001  0.1047245E+03  0.7546771E-02  0.1270663E+00
         -2   -1    0    0    0  501 -0.00000000000E+00  0.00000000000E+00  0.61779932644E+02  0.61779932644E+02  0.00000000000E+00 0. -1.
          2   -1    0    0  501    0  0.00000000000E+00 -0.00000000000E+00 -0.44380187930E+02  0.44380187930E+02  0.00000000000E+00 0.  1.
         23    2    1    2    0    0  0.00000000000E+00  0.00000000000E+00  0.17399744713E+02  0.10616012057E+03  0.10472449610E+03 0.  0.
          2    1    3    3  502    0  0.49069059290E+01  0.43092324828E+02  0.38441101567E+02  0.57954676037E+02  0.00000000000E+00 0.  1.
         -2    1    3    3    0  502 -0.49069059290E+01 -0.43092324828E+02 -0.21041356853E+02  0.48205444538E+02  0.00000000000E+00 0. -1.
<mgrwt>
<rscale>  0 0.10472450E+03</rscale>
<asrwt>0</asrwt>
<pdfrwt beam="2">  1        2 0.68277212E-02 0.10472450E+03</pdfrwt>
<pdfrwt beam="1">  1       -2 0.95046050E-02 0.10472450E+03</pdfrwt>
<totfact> 0.65388772E+04</totfact>
</mgrwt>
</event>
<event>
 5    1  0.3845386E+001  0.9479717E+02  0.7546771E-02  0.1291634E+00
          1   -1    0    0  501    0  0.00000000000E+00  0.00000000000E+00  0.30580907375E+02  0.30580907375E+02  0.00000000000E+00 0. -1.
         -1   -1    0    0    0  501 -0.00000000000E+00 -0.00000000000E+00 -0.73464986029E+02  0.73464986029E+02  0.00000000000E+00 0.  1.
         23    2    1    2    0    0  0.00000000000E+00  0.00000000000E+00 -0.42884078654E+02  0.10404589340E+03  0.94797171542E+02 0.  0.
          2    1    3    3  502    0  0.38870952368E+02  0.11685552461E+01 -0.51183968140E+02  0.64281529649E+02  0.00000000000E+00 0. -1.
         -2    1    3    3    0  502 -0.38870952368E+02 -0.11685552461E+01  0.82998894861E+01  0.39764363755E+02  0.00000000000E+00 0.  1.
<mgrwt>
<rscale>  0 0.94797172E+02</rscale>
<asrwt>0</asrwt>
<pdfrwt beam="1">  1        1 0.47047550E-02 0.94797172E+02</pdfrwt>
<pdfrwt beam="2">  1       -1 0.11302305E-01 0.94797172E+02</pdfrwt>
<totfact> 0.77725309E+04</totfact>
</mgrwt>
</event>
<event>
 5    1  0.3845386E+001  0.9255555E+02  0.7546771E-02  0.1296778E+00
          2   -1    0    0  501    0  0.00000000000E+00  0.00000000000E+00  0.90249542154E+03  0.90249542154E+03  0.00000000000E+00 0. -1.
         -2   -1    0    0    0  501 -0.00000000000E+00 -0.00000000000E+00 -0.23730117561E+01  0.23730117561E+01  0.00000000000E+00 0.  1.
         23    2    1    2    0    0  0.00000000000E+00  0.00000000000E+00  0.90012240978E+03  0.90486843329E+03  0.92555545380E+02 0.  0.
          2    1    3    3  502    0 -0.30599379751E+02 -0.33974869322E+02  0.51989194746E+03  0.52189869786E+03  0.00000000000E+00 0. -1.
         -2    1    3    3    0  502  0.30599379751E+02  0.33974869322E+02  0.38023046232E+03  0.38296973544E+03  0.00000000000E+00 0.  1.
<mgrwt>
<rscale>  0 0.92555545E+02</rscale>
<asrwt>0</asrwt>
<pdfrwt beam="1">  1        2 0.13884518E+00 0.92555545E+02</pdfrwt>
<pdfrwt beam="2">  1       -2 0.36507945E-03 0.92555545E+02</pdfrwt>
<totfact> 0.23839774E+05</totfact>
</mgrwt>
</event>
<event>
 5    1  0.3845386E+001  0.9021770E+02  0.7546771E-02  0.1302325E+00
          3   -1    0    0  501    0  0.00000000000E+00  0.00000000000E+00  0.10704586595E+03  0.10704586595E+03  0.00000000000E+00 0. -1.
         -3   -1    0    0    0  501 -0.00000000000E+00 -0.00000000000E+00 -0.19008752555E+02  0.19008752555E+02  0.00000000000E+00 0.  1.
         23    2    1    2    0    0  0.00000000000E+00  0.00000000000E+00  0.88037113392E+02  0.12605461850E+03  0.90217700653E+02 0.  0.
          2    1    3    3  502    0 -0.43011599667E+02  0.36832636373E+01  0.62302715956E+02  0.75797048441E+02  0.00000000000E+00 0. -1.
         -2    1    3    3    0  502  0.43011599667E+02 -0.36832636373E+01  0.25734397436E+02  0.50257570060E+02  0.00000000000E+00 0.  1.
<mgrwt>
<rscale>  0 0.90217701E+02</rscale>
<asrwt>0</asrwt>
<pdfrwt beam="1">  1        3 0.16468594E-01 0.90217701E+02</pdfrwt>
<pdfrwt beam="2">  1       -3 0.29244235E-02 0.90217701E+02</pdfrwt>
<totfact> 0.33791701E+04</totfact>
</mgrwt>
</event>
<event>
 5    1  0.3845386E+001  0.8897111E+02  0.7546771E-02  0.1305363E+00
          1   -1    0    0  501    0  0.00000000000E+00  0.00000000000E+00  0.55463469485E+03  0.55463469485E+03  0.00000000000E+00 0. -1.
         -1   -1    0    0    0  501 -0.00000000000E+00 -0.00000000000E+00 -0.35680501994E+01  0.35680501994E+01  0.00000000000E+00 0.  1.
         23    2    1    2    0    0  0.00000000000E+00  0.00000000000E+00  0.55106664465E+03  0.55820274505E+03  0.88971106177E+02 0.  0.
          2    1    3    3  502    0 -0.16353990173E+02 -0.40901039679E+02  0.23654551367E+03  0.24061198657E+03  0.00000000000E+00 0. -1.
         -2    1    3    3    0  502  0.16353990173E+02  0.40901039679E+02  0.31452113098E+03  0.31759075848E+03  0.00000000000E+00 0.  1.
<mgrwt>
<rscale>  0 0.88971106E+02</rscale>
<asrwt>0</asrwt>
<pdfrwt beam="1">  1        1 0.85328346E-01 0.88971106E+02</pdfrwt>
<pdfrwt beam="2">  1       -1 0.54893124E-03 0.88971106E+02</pdfrwt>
<totfact> 0.15018199E+05</totfact>
</mgrwt>
</event>
<event>
 5    1  0.3845386E+001  0.9100621E+02  0.7546771E-02  0.1300433E+00
         -2   -1    0    0    0  501 -0.00000000000E+00  0.00000000000E+00  0.16048029103E+02  0.16048029103E+02  0.00000000000E+00 0. -1.
          2   -1    0    0  501    0  0.00000000000E+00 -0.00000000000E+00 -0.12902098449E+03  0.12902098449E+03  0.00000000000E+00 0.  1.
         23    2    1    2    0    0  0.00000000000E+00  0.00000000000E+00 -0.11297295539E+03  0.14506901360E+03  0.91006208889E+02 0.  0.
          2    1    3    3  502    0 -0.23567064671E+02  0.38911815201E+02 -0.54895121948E+02  0.71295233453E+02  0.00000000000E+00 0. -1.
         -2    1    3    3    0  502  0.23567064671E+02 -0.38911815201E+02 -0.58077833441E+02  0.73773780143E+02  0.00000000000E+00 0.  1.
<mgrwt>
<rscale>  0 0.91006209E+02</rscale>
<asrwt>0</asrwt>
<pdfrwt beam="2">  1        2 0.19849382E-01 0.91006209E+02</pdfrwt>
<pdfrwt beam="1">  1       -2 0.24689276E-02 0.91006209E+02</pdfrwt>
<totfact> 0.13363207E+05</totfact>
</mgrwt>
</event>
<event>
 5    1  0.3845386E+001  0.8490663E+02  0.7546771E-02  0.1315677E+00
          4   -1    0    0  501    0  0.00000000000E+00  0.00000000000E+00  0.43537768659E+02  0.43537768659E+02  0.00000000000E+00 0. -1.
         -4   -1    0    0    0  501 -0.00000000000E+00 -0.00000000000E+00 -0.41395871677E+02  0.41395871677E+02  0.00000000000E+00 0.  1.
         23    2    1    2    0    0  0.00000000000E+00  0.00000000000E+00  0.21418969822E+01  0.84933640337E+02  0.84906628352E+02 0.  0.
          2    1    3    3  502    0  0.11789872216E+02  0.25289434174E+02  0.33076866578E+02  0.43273960650E+02  0.00000000000E+00 0. -1.
         -2    1    3    3    0  502 -0.11789872216E+02 -0.25289434174E+02 -0.30934969596E+02  0.41659679687E+02  0.00000000000E+00 0.  1.
<mgrwt>
<rscale>  0 0.84906628E+02</rscale>
<asrwt>0</asrwt>
<pdfrwt beam="1">  1        4 0.66981183E-02 0.84906628E+02</pdfrwt>
<pdfrwt beam="2">  1       -4 0.63685956E-02 0.84906628E+02</pdfrwt>
<totfact> 0.33242514E+04</totfact>
</mgrwt>
</event>
<event>
 5    1  0.3845386E+001  0.8666300E+02  0.7546771E-02  0.1311140E+00
          3   -1    0    0  501    0  0.00000000000E+00  0.00000000000E+00  0.26776378192E+03  0.26776378192E+03  0.00000000000E+00 0. -1.
         -3   -1    0    0    0  501 -0.00000000000E+00 -0.00000000000E+00 -0.70122211276E+01  0.70122211276E+01  0.00000000000E+00 0.  1.
         23    2    1    2    0    0  0.00000000000E+00  0.00000000000E+00  0.26075156080E+03  0.27477600305E+03  0.86662998997E+02 0.  0.
          2    1    3    3  502    0 -0.19086791044E+02  0.18649432586E+02  0.22131876270E+02  0.34668817046E+02  0.00000000000E+00 0.  1.
         -2    1    3    3    0  502  0.19086791044E+02 -0.18649432586E+02  0.23861968453E+03  0.24010718601E+03  0.00000000000E+00 0. -1.
<mgrwt>
<rscale>  0 0.86662999E+02</rscale>
<asrwt>0</asrwt>
<pdfrwt beam="1">  1        3 0.41194420E-01 0.86662999E+02</pdfrwt>
<pdfrwt beam="2">  1       -3 0.10788035E-02 0.86662999E+02</pdfrwt>
<totfact> 0.28684933E+04</totfact>
</mgrwt>
</event>
<event>
 5    1  0.3845386E+001  0.9074782E+02  0.7546771E-02  0.1301051E+00
         -4   -1    0    0    0  501 -0.00000000000E+00  0.00000000000E+00  0.56635791932E+01  0.56635791932E+01  0.00000000000E+00 0. -1.
          4   -1    0    0  501    0  0.00000000000E+00 -0.00000000000E+00 -0.36351422169E+03  0.36351422169E+03  0.00000000000E+00 0.  1.
         23    2    1    2    0    0  0.00000000000E+00  0.00000000000E+00 -0.35785064249E+03  0.36917780088E+03  0.90747817216E+02 0.  0.
          2    1    3    3  502    0 -0.86491913050E+00 -0.41776562108E+02 -0.10697932534E+03  0.11485036037E+03  0.00000000000E+00 0. -1.
         -2    1    3    3    0  502  0.86491913050E+00  0.41776562108E+02 -0.25087131715E+03  0.25432744051E+03  0.00000000000E+00 0.  1.
<mgrwt>
<rscale>  0 0.90747817E+02</rscale>
<asrwt>0</asrwt>
<pdfrwt beam="2">  1        4 0.55925260E-01 0.90747817E+02</pdfrwt>
<pdfrwt beam="1">  1       -4 0.87131995E-03 0.90747817E+02</pdfrwt>
<totfact> 0.16099068E+04</totfact>
</mgrwt>
</event>
<event>
 5    1  0.3845386E+001  0.9301448E+02  0.7546771E-02  0.1295712E+00
         -1   -1    0    0    0  501 -0.00000000000E+00  0.00000000000E+00  0.39314324332E+01  0.39314324332E+01  0.00000000000E+00 0.  1.
          1   -1    0    0  501    0  0.00000000000E+00 -0.00000000000E+00 -0.55016169918E+03  0.55016169918E+03  0.00000000000E+00 0. -1.
         23    2    1    2    0    0  0.00000000000E+00  0.00000000000E+00 -0.54623026675E+03  0.55409313161E+03  0.93014483768E+02 0.  0.
          2    1    3    3  502    0  0.39108510644E+02 -0.49350037496E+01 -0.42013439378E+03  0.42197954773E+03  0.00000000000E+00 0. -1.
         -2    1    3    3    0  502 -0.39108510644E+02  0.49350037496E+01 -0.12609587296E+03  0.13211358388E+03  0.00000000000E+00 0.  1.
<mgrwt>
<rscale>  0 0.93014484E+02</rscale>
<asrwt>0</asrwt>
<pdfrwt beam="2">  1        1 0.84640322E-01 0.93014484E+02</pdfrwt>
<pdfrwt beam="1">  1       -1 0.60483533E-03 0.93014484E+02</pdfrwt>
<totfact> 0.13341536E+05</totfact>
</mgrwt>
</event>
<event>
 5    1  0.3845386E+001  0.9388510E+02  0.7546771E-02  0.1293707E+00
         -2   -1    0    0    0  501 -0.00000000000E+00  0.00000000000E+00  0.30467014502E+01  0.30467014502E+01  0.00000000000E+00 0.  1.
          2   -1    0    0  501    0  0.00000000000E+00 -0.00000000000E+00 -0.72327501544E+03  0.72327501544E+03  0.00000000000E+00 0. -1.
         23    2    1    2    0    0  0.00000000000E+00  0.00000000000E+00 -0.72022831399E+03  0.72632171689E+03  0.93885100808E+02 0.  0.
          2    1    3    3  502    0 -0.41906783747E+02 -0.20392694591E+02 -0.40357700690E+03  0.40625908115E+03  0.00000000000E+00 0. -1.
         -2    1    3    3    0  502  0.41906783747E+02  0.20392694591E+02 -0.31665130709E+03  0.32006263574E+03  0.00000000000E+00 0.  1.
<mgrwt>
<rscale>  0 0.93885101E+02</rscale>
<asrwt>0</asrwt>
<pdfrwt beam="2">  1        2 0.11127315E+00 0.93885101E+02</pdfrwt>
<pdfrwt beam="1">  1       -2 0.46872299E-03 0.93885101E+02</pdfrwt>
<totfact> 0.22113124E+05</totfact>
</mgrwt>
</event>
<event>
 5    1  0.3845386E+001  0.8208943E+02  0.7546771E-02  0.1323224E+00
         -4   -1    0    0    0  501 -0.00000000000E+00  0.00000000000E+00  0.10576186274E+03  0.10576186274E+03  0.00000000000E+00 0.  1.
          4   -1    0    0  501    0  0.00000000000E+00 -0.00000000000E+00 -0.15928885660E+02  0.15928885660E+02  0.00000000000E+00 0. -1.
         23    2    1    2    0    0  0.00000000000E+00  0.00000000000E+00  0.89832977083E+02  0.12169074840E+03  0.82089429741E+02 0.  0.
          2    1    3    3  502    0 -0.24381748254E+02  0.23874387423E+02  0.78727701816E+02  0.85805052625E+02  0.00000000000E+00 0. -1.
         -2    1    3    3    0  502  0.24381748254E+02 -0.23874387423E+02  0.11105275267E+02  0.35885695778E+02  0.00000000000E+00 0.  1.
<mgrwt>
<rscale>  0 0.82089430E+02</rscale>
<asrwt>0</asrwt>
<pdfrwt beam="2">  1        4 0.24505979E-02 0.82089430E+02</pdfrwt>
<pdfrwt beam="1">  1       -4 0.16271055E-01 0.82089430E+02</pdfrwt>
<totfact> 0.33349423E+04</totfact>
</mgrwt>
</event>
<event>
 5    1  0.3845386E+001  0.9167010E+02  0.7546771E-02  0.1298857E+00
         -2   -1    0    0    0  501 -0.00000000000E+00  0.00000000000E+00  0.37076998605E+01  0.37076998605E+01  0.00000000000E+00 0.  1.
          2   -1    0    0  501    0  0.00000000000E+00 -0.00000000000E+00 -0.56661859778E+03  0.56661859778E+03  0.00000000000E+00 0. -1.
         23    2    1    2    0    0  0.00000000000E+00  0.00000000000E+00 -0.56291089792E+03  0.57032629764E+03  0.91670097544E+02 0.  0.
          2    1    3    3  502    0  0.38819096727E+02  0.24311440946E+02 -0.29201968113E+03  0.29559002452E+03  0.00000000000E+00 0. -1.
         -2    1    3    3    0  502 -0.38819096727E+02 -0.24311440946E+02 -0.27089121679E+03  0.27473627311E+03  0.00000000000E+00 0.  1.
<mgrwt>
<rscale>  0 0.91670098E+02</rscale>
<asrwt>0</asrwt>
<pdfrwt beam="2">  1        2 0.87172069E-01 0.91670098E+02</pdfrwt>
<pdfrwt beam="1">  1       -2 0.57041552E-03 0.91670098E+02</pdfrwt>
<totfact> 0.22090869E+05</totfact>
</mgrwt>
</event>
<event>
 5    1  0.3845386E+001  0.9358970E+02  0.7546771E-02  0.1294384E+00
         -1   -1    0    0    0  501 -0.00000000000E+00  0.00000000000E+00  0.27002527237E+03  0.27002527237E+03  0.00000000000E+00 0.  1.
          1   -1    0    0  501    0  0.00000000000E+00 -0.00000000000E+00 -0.81094553318E+01  0.81094553318E+01  0.00000000000E+00 0. -1.
         23    2    1    2    0    0  0.00000000000E+00  0.00000000000E+00  0.26191581704E+03  0.27813472771E+03  0.93589697826E+02 0.  0.
          2    1    3    3  502    0 -0.22951628735E+01  0.45821461998E+02  0.10357753257E+03  0.11328362373E+03  0.00000000000E+00 0. -1.
         -2    1    3    3    0  502  0.22951628735E+01 -0.45821461998E+02  0.15833828447E+03  0.16485110397E+03  0.00000000000E+00 0.  1.
<mgrwt>
<rscale>  0 0.93589698E+02</rscale>
<asrwt>0</asrwt>
<pdfrwt beam="2">  1        1 0.12476087E-02 0.93589698E+02</pdfrwt>
<pdfrwt beam="1">  1       -1 0.41542343E-01 0.93589698E+02</pdfrwt>
<totfact> 0.58875763E+04</totfact>
</mgrwt>
</event>
<event>
 5    1  0.3845386E+001  0.9091742E+02  0.7546771E-02  0.1300645E+00
         -2   -1    0    0    0  501 -0.00000000000E+00  0.00000000000E+00  0.17469768863E+01  0.17469768863E+01  0.00000000000E+00 0. -1.
          2   -1    0    0  501    0  0.00000000000E+00 -0.00000000000E+00 -0.11828973907E+04  0.11828973907E+04  0.00000000000E+00 0.  1.
         23    2    1    2    0    0  0.00000000000E+00  0.00000000000E+00 -0.11811504138E+04  0.11846443676E+04  0.90917421882E+02 0.  0.
          2    1    3    3  502    0  0.30037336528E+02 -0.25690482681E+02 -0.29798171657E+03  0.30059165972E+03  0.00000000000E+00 0. -1.
         -2    1    3    3    0  502 -0.30037336528E+02  0.25690482681E+02 -0.88316869728E+03  0.88405270790E+03  0.00000000000E+00 0.  1.
<mgrwt>
<rscale>  0 0.90917422E+02</rscale>
<asrwt>0</asrwt>
<pdfrwt beam="2">  1        2 0.18198371E+00 0.90917422E+02</pdfrwt>
<pdfrwt beam="1">  1       -2 0.26876642E-03 0.90917422E+02</pdfrwt>
<totfact> 0.25092738E+05</totfact>
</mgrwt>
</event>
<event>
 5    1  0.3845386E+001  0.9225374E+02  0.7546771E-02  0.1297484E+00
          2   -1    0    0  501    0  0.00000000000E+00  0.00000000000E+00  0.15346996751E+04  0.15346996751E+04  0.00000000000E+00 0. -1.
         -2   -1    0    0    0  501 -0.00000000000E+00 -0.00000000000E+00 -0.13863872187E+01  0.13863872187E+01  0.00000000000E+00 0.  1.
         23    2    1    2    0    0  0.00000000000E+00  0.00000000000E+00  0.15333132878E+04  0.15360860623E+04  0.92253737356E+02 0.  0.
          2    1    3    3  502    0 -0.11878243322E+02 -0.26924106597E+02  0.13580923457E+04  0.13584111379E+04  0.00000000000E+00 0. -1.
         -2    1    3    3    0  502  0.11878243322E+02  0.26924106597E+02  0.17522094216E+03  0.17767492437E+03  0.00000000000E+00 0.  1.
<mgrwt>
<rscale>  0 0.92253737E+02</rscale>
<asrwt>0</asrwt>
<pdfrwt beam="1">  1        2 0.23610628E+00 0.92253737E+02</pdfrwt>
<pdfrwt beam="2">  1       -2 0.21329157E-03 0.92253737E+02</pdfrwt>
<totfact> 0.22671567E+05</totfact>
</mgrwt>
</event>
<event>
 5    1  0.3845386E+001  0.9155678E+02  0.7546771E-02  0.1299125E+00
         -1   -1    0    0    0  501 -0.00000000000E+00  0.00000000000E+00  0.13454179720E+03  0.13454179720E+03  0.00000000000E+00 0.  1.
          1   -1    0    0  501    0  0.00000000000E+00 -0.00000000000E+00 -0.15576282363E+02  0.15576282363E+02  0.00000000000E+00 0. -1.
         23    2    1    2    0    0  0.00000000000E+00  0.00000000000E+00  0.11896551484E+03  0.15011807956E+03  0.91556780696E+02 0.  0.
          2    1    3    3  502    0  0.30542136672E+02 -0.63211021762E+01  0.45401004047E+01  0.31518105224E+02  0.00000000000E+00 0. -1.
         -2    1    3    3    0  502 -0.30542136672E+02  0.63211021762E+01  0.11442541443E+03  0.11859997434E+03  0.00000000000E+00 0.  1.
<mgrwt>
<rscale>  0 0.91556781E+02</rscale>
<asrwt>0</asrwt>
<pdfrwt beam="2">  1        1 0.23963512E-02 0.91556781E+02</pdfrwt>
<pdfrwt beam="1">  1       -1 0.20698737E-01 0.91556781E+02</pdfrwt>
<totfact> 0.75830141E+04</totfact>
</mgrwt>
</event>
<event>
 5    1  0.3845386E+001  0.9097806E+02  0.7546771E-02  0.1300500E+00
         -1   -1    0    0    0  501 -0.00000000000E+00  0.00000000000E+00  0.57849963440E+01  0.57849963440E+01  0.00000000000E+00 0.  1.
          1   -1    0    0  501    0  0.00000000000E+00 -0.00000000000E+00 -0.35769284879E+03  0.35769284879E+03  0.00000000000E+00 0. -1.
         23    2    1    2    0    0  0.00000000000E+00  0.00000000000E+00 -0.35190785244E+03  0.36347784513E+03  0.90978059389E+02 0.  0.
          2    1    3    3  502    0 -0.54248876284E+01  0.28270633029E+02 -0.35233848641E+02  0.45498155871E+02  0.00000000000E+00 0.  1.
         -2    1    3    3    0  502  0.54248876284E+01 -0.28270633029E+02 -0.31667400380E+03  0.31797968926E+03  0.00000000000E+00 0. -1.
<mgrwt>
<rscale>  0 0.90978059E+02</rscale>
<asrwt>0</asrwt>
<pdfrwt beam="2">  1        1 0.55029655E-01 0.90978059E+02</pdfrwt>
<pdfrwt beam="1">  1       -1 0.88999967E-03 0.90978059E+02</pdfrwt>
<totfact> 0.13311232E+05</totfact>
</mgrwt>
</event>
<event>
 5    1  0.3845386E+001  0.9361897E+02  0.7546771E-02  0.1294317E+00
         -1   -1    0    0    0  501 -0.00000000000E+00  0.00000000000E+00  0.35818719373E+02  0.35818719373E+02  0.00000000000E+00 0.  1.
          1   -1    0    0  501    0  0.00000000000E+00 -0.00000000000E+00 -0.61172701097E+02  0.61172701097E+02  0.00000000000E+00 0. -1.
         23    2    1    2    0    0  0.00000000000E+00  0.00000000000E+00 -0.25353981724E+02  0.96991420470E+02  0.93618968460E+02 0.  0.
          2    1    3    3  502    0  0.29183493284E+02  0.29295080278E+02 -0.35404652312E+02  0.54436820390E+02  0.00000000000E+00 0. -1.
         -2    1    3    3    0  502 -0.29183493284E+02 -0.29295080278E+02  0.10050670588E+02  0.42554600081E+02  0.00000000000E+00 0.  1.
<mgrwt>
<rscale>  0 0.93618968E+02</rscale>
<asrwt>0</asrwt>
<pdfrwt beam="2">  1        1 0.94111847E-02 0.93618968E+02</pdfrwt>
<pdfrwt beam="1">  1       -1 0.55105723E-02 0.93618968E+02</pdfrwt>
<totfact> 0.89807246E+04</totfact>
</mgrwt>
</event>
<event>
 5    1  0.3845386E+001  0.9156245E+02  0.7546771E-02  0.1299112E+00
         -1   -1    0    0    0  501 -0.00000000000E+00  0.00000000000E+00  0.57905726897E+01  0.57905726897E+01  0.00000000000E+00 0.  1.
          1   -1    0    0  501    0  0.00000000000E+00 -0.00000000000E+00 -0.36195395722E+03  0.36195395722E+03  0.00000000000E+00 0. -1.
         23    2    1    2    0    0  0.00000000000E+00  0.00000000000E+00 -0.35616338453E+03  0.36774452991E+03  0.91562452994E+02 0.  0.
          2    1    3    3  502    0 -0.28254884483E+02  0.35996035746E+02 -0.17259295740E+03  0.17855638334E+03  0.00000000000E+00 0. -1.
         -2    1    3    3    0  502  0.28254884483E+02 -0.35996035746E+02 -0.18357042713E+03  0.18918814657E+03  0.00000000000E+00 0.  1.
<mgrwt>
<rscale>  0 0.91562453E+02</rscale>
<asrwt>0</asrwt>
<pdfrwt beam="2">  1        1 0.55685254E-01 0.91562453E+02</pdfrwt>
<pdfrwt beam="1">  1       -1 0.89085686E-03 0.91562453E+02</pdfrwt>
<totfact> 0.13113711E+05</totfact>
</mgrwt>
</event>
<event>
 5    1  0.3845386E+001  0.9102834E+02  0.7546771E-02  0.1300380E+00
          1   -1    0    0  501    0  0.00000000000E+00  0.00000000000E+00  0.16293806277E+01  0.16293806277E+01  0.00000000000E+00 0. -1.
         -1   -1    0    0    0  501 -0.00000000000E+00 -0.00000000000E+00 -0.12713662668E+04  0.12713662668E+04  0.00000000000E+00 0.  1.
         23    2    1    2    0    0  0.00000000000E+00  0.00000000000E+00 -0.12697368861E+04  0.12729956474E+04  0.91028337693E+02 0.  0.
          2    1    3    3  502    0 -0.31634775562E+02 -0.32438968926E+02 -0.57472839006E+03  0.57651172414E+03  0.00000000000E+00 0. -1.
         -2    1    3    3    0  502  0.31634775562E+02  0.32438968926E+02 -0.69500849607E+03  0.69648392324E+03  0.00000000000E+00 0.  1.
<mgrwt>
<rscale>  0 0.91028338E+02</rscale>
<asrwt>0</asrwt>
<pdfrwt beam="1">  1        1 0.25067351E-03 0.91028338E+02</pdfrwt>
<pdfrwt beam="2">  1       -1 0.19559515E+00 0.91028338E+02</pdfrwt>
<totfact> 0.18480351E+04</totfact>
</mgrwt>
</event>
<event>
 5    1  0.3845386E+001  0.9112281E+02  0.7546771E-02  0.1300155E+00
          2   -1    0    0  501    0  0.00000000000E+00  0.00000000000E+00  0.18513822979E+03  0.18513822979E+03  0.00000000000E+00 0. -1.
         -2   -1    0    0    0  501 -0.00000000000E+00 -0.00000000000E+00 -0.11212387960E+02  0.11212387960E+02  0.00000000000E+00 0.  1.
         23    2    1    2    0    0  0.00000000000E+00  0.00000000000E+00  0.17392584183E+03  0.19635061774E+03  0.91122810723E+02 0.  0.
          2    1    3    3  502    0 -0.33714174812E+02  0.31544286670E+01  0.15264856068E+03  0.15635913495E+03  0.00000000000E+00 0. -1.
         -2    1    3    3    0  502  0.33714174812E+02 -0.31544286670E+01  0.21277281144E+02  0.39991482798E+02  0.00000000000E+00 0.  1.
<mgrwt>
<rscale>  0 0.91122811E+02</rscale>
<asrwt>0</asrwt>
<pdfrwt beam="1">  1        2 0.28482802E-01 0.91122811E+02</pdfrwt>
<pdfrwt beam="2">  1       -2 0.17249829E-02 0.91122811E+02</pdfrwt>
<totfact> 0.15068756E+05</totfact>
</mgrwt>
</event>
<event>
 5    1  0.3845386E+001  0.8595508E+02  0.7546771E-02  0.1312954E+00
          1   -1    0    0  501    0  0.00000000000E+00  0.00000000000E+00  0.17758788619E+03  0.17758788619E+03  0.00000000000E+00 0.  1.
         -1   -1    0    0    0  501 -0.00000000000E+00 -0.00000000000E+00 -0.10400873121E+02  0.10400873121E+02  0.00000000000E+00 0. -1.
         23    2    1    2    0    0  0.00000000000E+00  0.00000000000E+00  0.16718701307E+03  0.18798875931E+03  0.85955082969E+02 0.  0.
          2    1    3    3  502    0  0.19017110338E+02 -0.25144068351E+02  0.19710651206E+02  0.37180430737E+02  0.00000000000E+00 0. -1.
         -2    1    3    3    0  502 -0.19017110338E+02  0.25144068351E+02  0.14747636186E+03  0.15080832857E+03  0.00000000000E+00 0.  1.
<mgrwt>
<rscale>  0 0.85955083E+02</rscale>
<asrwt>0</asrwt>
<pdfrwt beam="1">  1        1 0.27321211E-01 0.85955083E+02</pdfrwt>
<pdfrwt beam="2">  1       -1 0.16001345E-02 0.85955083E+02</pdfrwt>
<totfact> 0.13552169E+05</totfact>
</mgrwt>
</event>
<event>
 5    1  0.3845386E+001  0.8880983E+02  0.7546771E-02  0.1305760E+00
         -1   -1    0    0    0  501 -0.00000000000E+00  0.00000000000E+00  0.66856148056E+02  0.66856148056E+02  0.00000000000E+00 0.  1.
          1   -1    0    0  501    0  0.00000000000E+00 -0.00000000000E+00 -0.29493122293E+02  0.29493122293E+02  0.00000000000E+00 0. -1.
         23    2    1    2    0    0  0.00000000000E+00  0.00000000000E+00  0.37363025763E+02  0.96349270348E+02  0.88809831677E+02 0.  0.
          2    1    3    3  502    0 -0.10976149043E+02  0.36909734472E+02 -0.53089347142E+01  0.38871443688E+02  0.00000000000E+00 0. -1.
         -2    1    3    3    0  502  0.10976149043E+02 -0.36909734472E+02  0.42671960477E+02  0.57477826660E+02  0.00000000000E+00 0.  1.
<mgrwt>
<rscale>  0 0.88809832E+02</rscale>
<asrwt>0</asrwt>
<pdfrwt beam="2">  1        1 0.45374034E-02 0.88809832E+02</pdfrwt>
<pdfrwt beam="1">  1       -1 0.10285561E-01 0.88809832E+02</pdfrwt>
<totfact> 0.93210797E+04</totfact>
</mgrwt>
</event>
<event>
 5    1  0.3845386E+001  0.9086565E+02  0.7546771E-02  0.1300769E+00
          1   -1    0    0  501    0  0.00000000000E+00  0.00000000000E+00  0.47719028802E+01  0.47719028802E+01  0.00000000000E+00 0. -1.
         -1   -1    0    0    0  501 -0.00000000000E+00 -0.00000000000E+00 -0.43256154320E+03  0.43256154320E+03  0.00000000000E+00 0.  1.
         23    2    1    2    0    0  0.00000000000E+00  0.00000000000E+00 -0.42778964032E+03  0.43733344608E+03  0.90865651902E+02 0.  0.
          2    1    3    3  502    0  0.30336634279E+02 -0.29513102929E+02 -0.13439965055E+03  0.14090635434E+03  0.00000000000E+00 0. -1.
         -2    1    3    3    0  502 -0.30336634279E+02  0.29513102929E+02 -0.29338998977E+03  0.29642709174E+03  0.00000000000E+00 0.  1.
<mgrwt>
<rscale>  0 0.90865652E+02</rscale>
<asrwt>0</asrwt>
<pdfrwt beam="1">  1        1 0.73413847E-03 0.90865652E+02</pdfrwt>
<pdfrwt beam="2">  1       -1 0.66547970E-01 0.90865652E+02</pdfrwt>
<totfact> 0.51612976E+04</totfact>
</mgrwt>
</event>
<event>
 5    1  0.3845386E+001  0.8711659E+02  0.7546771E-02  0.1309988E+00
          1   -1    0    0  501    0  0.00000000000E+00  0.00000000000E+00  0.93434496410E+01  0.93434496410E+01  0.00000000000E+00 0. -1.
         -1   -1    0    0    0  501 -0.00000000000E+00 -0.00000000000E+00 -0.20306472121E+03  0.20306472121E+03  0.00000000000E+00 0.  1.
         23    2    1    2    0    0  0.00000000000E+00  0.00000000000E+00 -0.19372127156E+03  0.21240817085E+03  0.87116588465E+02 0.  0.
          2    1    3    3  502    0 -0.33861162276E+02 -0.27277630190E+02 -0.10316120534E+03  0.11195035376E+03  0.00000000000E+00 0. -1.
         -2    1    3    3    0  502  0.33861162276E+02  0.27277630190E+02 -0.90560066222E+02  0.10045781709E+03  0.00000000000E+00 0.  1.
<mgrwt>
<rscale>  0 0.87116588E+02</rscale>
<asrwt>0</asrwt>
<pdfrwt beam="1">  1        1 0.14374539E-02 0.87116588E+02</pdfrwt>
<pdfrwt beam="2">  1       -1 0.31240725E-01 0.87116588E+02</pdfrwt>
<totfact> 0.77814845E+04</totfact>
</mgrwt>
</event>
<event>
 5    1  0.3845386E+001  0.8952480E+02  0.7546771E-02  0.1304007E+00
         -4   -1    0    0    0  501 -0.00000000000E+00  0.00000000000E+00  0.36988408783E+02  0.36988408783E+02  0.00000000000E+00 0.  1.
          4   -1    0    0  501    0  0.00000000000E+00 -0.00000000000E+00 -0.54170283327E+02  0.54170283327E+02  0.00000000000E+00 0. -1.
         23    2    1    2    0    0  0.00000000000E+00  0.00000000000E+00 -0.17181874544E+02  0.91158692110E+02  0.89524802901E+02 0.  0.
          2    1    3    3  502    0  0.13963830486E+02 -0.28192181680E+02  0.23831752623E+02  0.39468216362E+02  0.00000000000E+00 0.  1.
         -2    1    3    3    0  502 -0.13963830486E+02  0.28192181680E+02 -0.41013627167E+02  0.51690475749E+02  0.00000000000E+00 0. -1.
<mgrwt>
<rscale>  0 0.89524803E+02</rscale>
<asrwt>0</asrwt>
<pdfrwt beam="2">  1        4 0.83338898E-02 0.89524803E+02</pdfrwt>
<pdfrwt beam="1">  1       -4 0.56905244E-02 0.89524803E+02</pdfrwt>
<totfact> 0.28388268E+04</totfact>
</mgrwt>
</event>
<event>
 5    1  0.3845386E+001  0.9259346E+02  0.7546771E-02  0.1296690E+00
         -2   -1    0    0    0  501 -0.00000000000E+00  0.00000000000E+00  0.84679504678E+00  0.84679504678E+00  0.00000000000E+00 0.  1.
          2   -1    0    0  501    0  0.00000000000E+00 -0.00000000000E+00 -0.25311760278E+04  0.25311760278E+04  0.00000000000E+00 0. -1.
         23    2    1    2    0    0  0.00000000000E+00  0.00000000000E+00 -0.25303292328E+04  0.25320228229E+04  0.92593462466E+02 0.  0.
          2    1    3    3  502    0 -0.42051513276E+01  0.29773598511E+02 -0.22278058322E+04  0.22280087469E+04  0.00000000000E+00 0. -1.
         -2    1    3    3    0  502  0.42051513276E+01 -0.29773598511E+02 -0.30252340057E+03  0.30401407592E+03  0.00000000000E+00 0.  1.
<mgrwt>
<rscale>  0 0.92593462E+02</rscale>
<asrwt>0</asrwt>
<pdfrwt beam="2">  1        2 0.38940931E+00 0.92593462E+02</pdfrwt>
<pdfrwt beam="1">  1       -2 0.13027696E-03 0.92593462E+02</pdfrwt>
<totfact> 0.13967424E+05</totfact>
</mgrwt>
</event>
<event>
 5    1  0.3845386E+001  0.9017884E+02  0.7546771E-02  0.1302419E+00
         -4   -1    0    0    0  501 -0.00000000000E+00  0.00000000000E+00  0.19955052089E+02  0.19955052089E+02  0.00000000000E+00 0. -1.
          4   -1    0    0  501    0  0.00000000000E+00 -0.00000000000E+00 -0.10188175571E+03  0.10188175571E+03  0.00000000000E+00 0.  1.
         23    2    1    2    0    0  0.00000000000E+00  0.00000000000E+00 -0.81926703625E+02  0.12183680780E+03  0.90178838808E+02 0.  0.
          2    1    3    3  502    0  0.33563718912E+02 -0.23066882222E+02 -0.14819375777E+02  0.43338414612E+02  0.00000000000E+00 0. -1.
         -2    1    3    3    0  502 -0.33563718912E+02  0.23066882222E+02 -0.67107327849E+02  0.78498393191E+02  0.00000000000E+00 0.  1.
<mgrwt>
<rscale>  0 0.90178839E+02</rscale>
<asrwt>0</asrwt>
<pdfrwt beam="2">  1        4 0.15674116E-01 0.90178839E+02</pdfrwt>
<pdfrwt beam="1">  1       -4 0.30700080E-02 0.90178839E+02</pdfrwt>
<totfact> 0.25926705E+04</totfact>
</mgrwt>
</event>
<event>
 5    1  0.3845386E+001  0.9105700E+02  0.7546771E-02  0.1300312E+00
          3   -1    0    0  501    0  0.00000000000E+00  0.00000000000E+00  0.33900486974E+03  0.33900486974E+03  0.00000000000E+00 0.  1.
         -3   -1    0    0    0  501 -0.00000000000E+00 -0.00000000000E+00 -0.61144970588E+01  0.61144970588E+01  0.00000000000E+00 0. -1.
         23    2    1    2    0    0  0.00000000000E+00  0.00000000000E+00  0.33289037268E+03  0.34511936679E+03  0.91056999268E+02 0.  0.
          2    1    3    3  502    0 -0.13535723741E+02  0.27147912311E+02  0.37768773951E+02  0.48442803861E+02  0.00000000000E+00 0. -1.
         -2    1    3    3    0  502  0.13535723741E+02 -0.27147912311E+02  0.29512159873E+03  0.29667656293E+03  0.00000000000E+00 0.  1.
<mgrwt>
<rscale>  0 0.91056999E+02</rscale>
<asrwt>0</asrwt>
<pdfrwt beam="1">  1        3 0.52154581E-01 0.91056999E+02</pdfrwt>
<pdfrwt beam="2">  1       -3 0.94069212E-03 0.91056999E+02</pdfrwt>
<totfact> 0.22463534E+04</totfact>
</mgrwt>
</event>
<event>
 5    1  0.3845386E+001  0.9098178E+02  0.7546771E-02  0.1300491E+00
         -1   -1    0    0    0  501 -0.00000000000E+00  0.00000000000E+00  0.86521065064E+01  0.86521065064E+01  0.00000000000E+00 0.  1.
          1   -1    0    0  501    0  0.00000000000E+00 -0.00000000000E+00 -0.23918117587E+03  0.23918117587E+03  0.00000000000E+00 0. -1.
         23    2    1    2    0    0  0.00000000000E+00  0.00000000000E+00 -0.23052906936E+03  0.24783328238E+03  0.90981778570E+02 0.  0.
          2    1    3    3  502    0 -0.61238775525E+01  0.37008342603E+02 -0.45162093062E+02  0.58708891560E+02  0.00000000000E+00 0.  1.
         -2    1    3    3    0  502  0.61238775525E+01 -0.37008342603E+02 -0.18536697630E+03  0.18912439082E+03  0.00000000000E+00 0. -1.
<mgrwt>
<rscale>  0 0.90981779E+02</rscale>
<asrwt>0</asrwt>
<pdfrwt beam="2">  1        1 0.36797105E-01 0.90981779E+02</pdfrwt>
<pdfrwt beam="1">  1       -1 0.13310933E-02 0.90981779E+02</pdfrwt>
<totfact> 0.12331224E+05</totfact>
</mgrwt>
</event>
<event>
 5    1  0.3845386E+001  0.9222029E+02  0.7546771E-02  0.1297562E+00
         -3   -1    0    0    0  501 -0.00000000000E+00  0.00000000000E+00  0.31020204401E+03  0.31020204401E+03  0.00000000000E+00 0.  1.
          3   -1    0    0  501    0  0.00000000000E+00 -0.00000000000E+00 -0.68540662664E+01  0.68540662664E+01  0.00000000000E+00 0. -1.
         23    2    1    2    0    0  0.00000000000E+00  0.00000000000E+00  0.30334797775E+03  0.31705611028E+03  0.92220287695E+02 0.  0.
          2    1    3    3  502    0 -0.35716093964E+02  0.84273714359E+01  0.55686716782E+02  0.66690856819E+02  0.00000000000E+00 0. -1.
         -2    1    3    3    0  502  0.35716093964E+02 -0.84273714359E+01  0.24766126096E+03  0.25036525346E+03  0.00000000000E+00 0.  1.
<mgrwt>
<rscale>  0 0.92220288E+02</rscale>
<asrwt>0</asrwt>
<pdfrwt beam="2">  1        3 0.10544720E-02 0.92220288E+02</pdfrwt>
<pdfrwt beam="1">  1       -3 0.47723380E-01 0.92220288E+02</pdfrwt>
<totfact> 0.22673013E+04</totfact>
</mgrwt>
</event>
<event>
 5    1  0.3845386E+001  0.9054674E+02  0.7546771E-02  0.1301533E+00
          2   -1    0    0  501    0  0.00000000000E+00  0.00000000000E+00  0.43883152281E+03  0.43883152281E+03  0.00000000000E+00 0. -1.
         -2   -1    0    0    0  501 -0.00000000000E+00 -0.00000000000E+00 -0.46707629377E+01  0.46707629377E+01  0.00000000000E+00 0.  1.
         23    2    1    2    0    0  0.00000000000E+00  0.00000000000E+00  0.43416075987E+03  0.44350228575E+03  0.90546739591E+02 0.  0.
          2    1    3    3  502    0  0.28020180059E+02 -0.24406925962E+01  0.39084656938E+03  0.39185728048E+03  0.00000000000E+00 0. -1.
         -2    1    3    3    0  502 -0.28020180059E+02  0.24406925962E+01  0.43314190495E+02  0.51645005268E+02  0.00000000000E+00 0.  1.
<mgrwt>
<rscale>  0 0.90546740E+02</rscale>
<asrwt>0</asrwt>
<pdfrwt beam="1">  1        2 0.67512510E-01 0.90546740E+02</pdfrwt>
<pdfrwt beam="2">  1       -2 0.71857926E-03 0.90546740E+02</pdfrwt>
<totfact> 0.21007088E+05</totfact>
</mgrwt>
</event>
<event>
 5    1  0.3845386E+001  0.8917022E+02  0.7546771E-02  0.1304874E+00
         -2   -1    0    0    0  501 -0.00000000000E+00  0.00000000000E+00  0.14995131822E+01  0.14995131822E+01  0.00000000000E+00 0.  1.
          2   -1    0    0  501    0  0.00000000000E+00 -0.00000000000E+00 -0.13256517109E+04  0.13256517109E+04  0.00000000000E+00 0. -1.
         23    2    1    2    0    0  0.00000000000E+00  0.00000000000E+00 -0.13241521977E+04  0.13271512241E+04  0.89170224078E+02 0.  0.
          2    1    3    3  502    0  0.24906713917E+02  0.20954600491E+01 -0.12115713119E+04  0.12118291048E+04  0.00000000000E+00 0. -1.
         -2    1    3    3    0  502 -0.24906713917E+02 -0.20954600491E+01 -0.11258088583E+03  0.11532211933E+03  0.00000000000E+00 0.  1.
<mgrwt>
<rscale>  0 0.89170224E+02</rscale>
<asrwt>0</asrwt>
<pdfrwt beam="2">  1        2 0.20394724E+00 0.89170224E+02</pdfrwt>
<pdfrwt beam="1">  1       -2 0.23069340E-03 0.89170224E+02</pdfrwt>
<totfact> 0.25946604E+05</totfact>
</mgrwt>
</event>
<event>
 5    1  0.3845386E+001  0.9065278E+02  0.7546771E-02  0.1301279E+00
          4   -1    0    0  501    0  0.00000000000E+00  0.00000000000E+00  0.17147920874E+04  0.17147920874E+04  0.00000000000E+00 0. -1.
         -4   -1    0    0    0  501 -0.00000000000E+00 -0.00000000000E+00 -0.11980937388E+01  0.11980937388E+01  0.00000000000E+00 0.  1.
         23    2    1    2    0    0  0.00000000000E+00  0.00000000000E+00  0.17135939937E+04  0.17159901812E+04  0.90652780723E+02 0.  0.
          2    1    3    3  502    0  0.33405336348E+02  0.26721805889E+01  0.14345038563E+04  0.14348952473E+04  0.00000000000E+00 0. -1.
         -2    1    3    3    0  502 -0.33405336348E+02 -0.26721805889E+01  0.27909013738E+03  0.28109493383E+03  0.00000000000E+00 0.  1.
<mgrwt>
<rscale>  0 0.90652781E+02</rscale>
<asrwt>0</asrwt>
<pdfrwt beam="1">  1        4 0.26381220E+00 0.90652781E+02</pdfrwt>
<pdfrwt beam="2">  1       -4 0.18432349E-03 0.90652781E+02</pdfrwt>
<totfact> 0.33318540E+03</totfact>
</mgrwt>
</event>
<event>
 5    1  0.3845386E+001  0.9329710E+02  0.7546771E-02  0.1295058E+00
         -1   -1    0    0    0  501 -0.00000000000E+00  0.00000000000E+00  0.88105926930E+00  0.88105926930E+00  0.00000000000E+00 0.  1.
          1   -1    0    0  501    0  0.00000000000E+00 -0.00000000000E+00 -0.24698536037E+04  0.24698536037E+04  0.00000000000E+00 0. -1.
         23    2    1    2    0    0  0.00000000000E+00  0.00000000000E+00 -0.24689725444E+04  0.24707346629E+04  0.93297104164E+02 0.  0.
          2    1    3    3  502    0 -0.21861943760E+02 -0.38787967780E+02 -0.86597445099E+03  0.86711833149E+03  0.00000000000E+00 0. -1.
         -2    1    3    3    0  502  0.21861943760E+02  0.38787967780E+02 -0.16029980934E+04  0.16036163315E+04  0.00000000000E+00 0.  1.
<mgrwt>
<rscale>  0 0.93297104E+02</rscale>
<asrwt>0</asrwt>
<pdfrwt beam="2">  1        1 0.37997768E+00 0.93297104E+02</pdfrwt>
<pdfrwt beam="1">  1       -1 0.13554751E-03 0.93297104E+02</pdfrwt>
<totfact> 0.50589567E+04</totfact>
</mgrwt>
</event>
<event>
 5    1  0.3845386E+001  0.9131691E+02  0.7546771E-02  0.1299694E+00
         -2   -1    0    0    0  501 -0.00000000000E+00  0.00000000000E+00  0.15675589028E+01  0.15675589028E+01  0.00000000000E+00 0. -1.
          2   -1    0    0  501    0  0.00000000000E+00 -0.00000000000E+00 -0.13298987709E+04  0.13298987709E+04  0.00000000000E+00 0.  1.
         23    2    1    2    0    0  0.00000000000E+00  0.00000000000E+00 -0.13283312120E+04  0.13314663298E+04  0.91316913178E+02 0.  0.
          2    1    3    3  502    0 -0.37725846440E+02 -0.20859104461E+02 -0.88353297463E+03  0.88458400335E+03  0.00000000000E+00 0.  1.
         -2    1    3    3    0  502  0.37725846440E+02  0.20859104461E+02 -0.44479823733E+03  0.44688232641E+03  0.00000000000E+00 0. -1.
<mgrwt>
<rscale>  0 0.91316913E+02</rscale>
<asrwt>0</asrwt>
<pdfrwt beam="2">  1        2 0.20460053E+00 0.91316913E+02</pdfrwt>
<pdfrwt beam="1">  1       -2 0.24116206E-03 0.91316913E+02</pdfrwt>
<totfact> 0.24355213E+05</totfact>
</mgrwt>
</event>
<event>
 5    1  0.3845386E+001  0.9539218E+02  0.7546771E-02  0.1290295E+00
         -1   -1    0    0    0  501 -0.00000000000E+00  0.00000000000E+00  0.11363107461E+03  0.11363107461E+03  0.00000000000E+00 0.  1.
          1   -1    0    0  501    0  0.00000000000E+00 -0.00000000000E+00 -0.20020199356E+02  0.20020199356E+02  0.00000000000E+00 0. -1.
         23    2    1    2    0    0  0.00000000000E+00  0.00000000000E+00  0.93610875253E+02  0.13365127396E+03  0.95392175082E+02 0.  0.
          2    1    3    3  502    0  0.44207921838E+02 -0.52187442802E+01  0.22808997136E+02  0.50018256621E+02  0.00000000000E+00 0. -1.
         -2    1    3    3    0  502 -0.44207921838E+02  0.52187442802E+01  0.70801878117E+02  0.83633017344E+02  0.00000000000E+00 0.  1.
<mgrwt>
<rscale>  0 0.95392175E+02</rscale>
<asrwt>0</asrwt>
<pdfrwt beam="2">  1        1 0.30800307E-02 0.95392175E+02</pdfrwt>
<pdfrwt beam="1">  1       -1 0.17481703E-01 0.95392175E+02</pdfrwt>
<totfact> 0.70637779E+04</totfact>
</mgrwt>
</event>
<event>
 5    1  0.3845386E+001  0.8958036E+02  0.7546771E-02  0.1303871E+00
          2   -1    0    0  501    0  0.00000000000E+00  0.00000000000E+00  0.34571629438E+03  0.34571629438E+03  0.00000000000E+00 0. -1.
         -2   -1    0    0    0  501 -0.00000000000E+00 -0.00000000000E+00 -0.58029087833E+01  0.58029087833E+01  0.00000000000E+00 0.  1.
         23    2    1    2    0    0  0.00000000000E+00  0.00000000000E+00  0.33991338560E+03  0.35151920316E+03  0.89580357695E+02 0.  0.
          2    1    3    3  502    0  0.78537090005E+00 -0.20564459743E+02  0.13847600865E+02  0.24804633876E+02  0.00000000000E+00 0.  1.
         -2    1    3    3    0  502 -0.78537090005E+00  0.20564459743E+02  0.32606578473E+03  0.32671456929E+03  0.00000000000E+00 0. -1.
<mgrwt>
<rscale>  0 0.89580358E+02</rscale>
<asrwt>0</asrwt>
<pdfrwt beam="1">  1        2 0.53187106E-01 0.89580358E+02</pdfrwt>
<pdfrwt beam="2">  1       -2 0.89275547E-03 0.89580358E+02</pdfrwt>
<totfact> 0.19844021E+05</totfact>
</mgrwt>
</event>
<event>
 5    1  0.3845386E+001  0.9033693E+02  0.7546771E-02  0.1302038E+00
          1   -1    0    0  501    0  0.00000000000E+00  0.00000000000E+00  0.75481826580E+02  0.75481826580E+02  0.00000000000E+00 0.  1.
         -1   -1    0    0    0  501 -0.00000000000E+00 -0.00000000000E+00 -0.27028894748E+02  0.27028894748E+02  0.00000000000E+00 0. -1.
         23    2    1    2    0    0  0.00000000000E+00  0.00000000000E+00  0.48452931832E+02  0.10251072133E+03  0.90336932559E+02 0.  0.
          2    1    3    3  502    0  0.31390703498E+02 -0.50532424171E+01 -0.12179324789E+02  0.34047723527E+02  0.00000000000E+00 0. -1.
         -2    1    3    3    0  502 -0.31390703498E+02  0.50532424171E+01  0.60632256621E+02  0.68462997802E+02  0.00000000000E+00 0.  1.
<mgrwt>
<rscale>  0 0.90336933E+02</rscale>
<asrwt>0</asrwt>
<pdfrwt beam="1">  1        1 0.11612589E-01 0.90336933E+02</pdfrwt>
<pdfrwt beam="2">  1       -1 0.41582915E-02 0.90336933E+02</pdfrwt>
<totfact> 0.10239913E+05</totfact>
</mgrwt>
</event>
<event>
 5    1  0.3845386E+001  0.9088919E+02  0.7546771E-02  0.1300713E+00
          1   -1    0    0  501    0  0.00000000000E+00  0.00000000000E+00  0.20914498379E+03  0.20914498379E+03  0.00000000000E+00 0. -1.
         -1   -1    0    0    0  501 -0.00000000000E+00 -0.00000000000E+00 -0.98745431396E+01  0.98745431396E+01  0.00000000000E+00 0.  1.
         23    2    1    2    0    0  0.00000000000E+00  0.00000000000E+00  0.19927044065E+03  0.21901952693E+03  0.90889188903E+02 0.  0.
          2    1    3    3  502    0 -0.17195791159E+02 -0.12924763815E+02  0.19609917810E+03  0.19727552409E+03  0.00000000000E+00 0. -1.
         -2    1    3    3    0  502  0.17195791159E+02  0.12924763815E+02  0.31712625478E+01  0.21744002838E+02  0.00000000000E+00 0.  1.
<mgrwt>
<rscale>  0 0.90889189E+02</rscale>
<asrwt>0</asrwt>
<pdfrwt beam="1">  1        1 0.32176148E-01 0.90889189E+02</pdfrwt>
<pdfrwt beam="2">  1       -1 0.15191606E-02 0.90889189E+02</pdfrwt>
<totfact> 0.12045472E+05</totfact>
</mgrwt>
</event>
<event>
 5    1  0.3845386E+001  0.9138175E+02  0.7546771E-02  0.1299540E+00
          1   -1    0    0  501    0  0.00000000000E+00  0.00000000000E+00  0.17094476620E+03  0.17094476620E+03  0.00000000000E+00 0. -1.
         -1   -1    0    0    0  501 -0.00000000000E+00 -0.00000000000E+00 -0.12212458504E+02  0.12212458504E+02  0.00000000000E+00 0.  1.
         23    2    1    2    0    0  0.00000000000E+00  0.00000000000E+00  0.15873230770E+03  0.18315722471E+03  0.91381745743E+02 0.  0.
          2    1    3    3  502    0  0.26236765776E+02  0.14384346011E+02  0.14857660588E+03  0.15155951011E+03  0.00000000000E+00 0. -1.
         -2    1    3    3    0  502 -0.26236765776E+02 -0.14384346011E+02  0.10155701817E+02  0.31597714600E+02  0.00000000000E+00 0.  1.
<mgrwt>
<rscale>  0 0.91381746E+02</rscale>
<asrwt>0</asrwt>
<pdfrwt beam="1">  1        1 0.26299193E-01 0.91381746E+02</pdfrwt>
<pdfrwt beam="2">  1       -1 0.18788399E-02 0.91381746E+02</pdfrwt>
<totfact> 0.11420304E+05</totfact>
</mgrwt>
</event>
<event>
 5    1  0.3845386E+001  0.8573375E+02  0.7546771E-02  0.1313525E+00
          2   -1    0    0  501    0  0.00000000000E+00  0.00000000000E+00  0.18934496851E+04  0.18934496851E+04  0.00000000000E+00 0. -1.
         -2   -1    0    0    0  501 -0.00000000000E+00 -0.00000000000E+00 -0.97048728200E+00  0.97048728200E+00  0.00000000000E+00 0.  1.
         23    2    1    2    0    0  0.00000000000E+00  0.00000000000E+00  0.18924791978E+04  0.18944201724E+04  0.85733746880E+02 0.  0.
          2    1    3    3  502    0  0.28358250196E+02 -0.95745072372E+01  0.26815719818E+03  0.26982243139E+03  0.00000000000E+00 0.  1.
         -2    1    3    3    0  502 -0.28358250196E+02  0.95745072372E+01  0.16243219996E+04  0.16245977410E+04  0.00000000000E+00 0. -1.
<mgrwt>
<rscale>  0 0.85733747E+02</rscale>
<asrwt>0</asrwt>
<pdfrwt beam="1">  1        2 0.29129699E+00 0.85733747E+02</pdfrwt>
<pdfrwt beam="2">  1       -2 0.14930725E-03 0.85733747E+02</pdfrwt>
<totfact> 0.24270949E+05</totfact>
</mgrwt>
</event>
<event>
 5    1  0.3845386E+001  0.9299697E+02  0.7546771E-02  0.1295752E+00
         -1   -1    0    0    0  501 -0.00000000000E+00  0.00000000000E+00  0.28087023340E+01  0.28087023340E+01  0.00000000000E+00 0.  1.
          1   -1    0    0  501    0  0.00000000000E+00 -0.00000000000E+00 -0.76978939193E+03  0.76978939193E+03  0.00000000000E+00 0. -1.
         23    2    1    2    0    0  0.00000000000E+00  0.00000000000E+00 -0.76698068959E+03  0.77259809426E+03  0.92996973322E+02 0.  0.
          2    1    3    3  502    0  0.15828477385E+02  0.34120772959E+02 -0.15637611578E+03  0.16083611980E+03  0.00000000000E+00 0.  1.
         -2    1    3    3    0  502 -0.15828477385E+02 -0.34120772959E+02 -0.61060457381E+03  0.61176197446E+03  0.00000000000E+00 0. -1.
<mgrwt>
<rscale>  0 0.92996973E+02</rscale>
<asrwt>0</asrwt>
<pdfrwt beam="2">  1        1 0.11842940E+00 0.92996973E+02</pdfrwt>
<pdfrwt beam="1">  1       -1 0.43210709E-03 0.92996973E+02</pdfrwt>
<totfact> 0.13448415E+05</totfact>
</mgrwt>
</event>
<event>
 5    1  0.3845386E+001  0.9181199E+02  0.7546771E-02  0.1298522E+00
          1   -1    0    0  501    0  0.00000000000E+00  0.00000000000E+00  0.39550114807E+03  0.39550114807E+03  0.00000000000E+00 0. -1.
         -1   -1    0    0    0  501 -0.00000000000E+00 -0.00000000000E+00 -0.53283290561E+01  0.53283290561E+01  0.00000000000E+00 0.  1.
         23    2    1    2    0    0  0.00000000000E+00  0.00000000000E+00  0.39017281901E+03  0.40082947712E+03  0.91811987430E+02 0.  0.
          2    1    3    3  502    0  0.13917727152E+02  0.29996733295E+02  0.33409696697E+03  0.33572949003E+03  0.00000000000E+00 0. -1.
         -2    1    3    3    0  502 -0.13917727152E+02 -0.29996733295E+02  0.56075852044E+02  0.65099987096E+02  0.00000000000E+00 0.  1.
<mgrwt>
<rscale>  0 0.91811987E+02</rscale>
<asrwt>0</asrwt>
<pdfrwt beam="1">  1        1 0.60846307E-01 0.91811987E+02</pdfrwt>
<pdfrwt beam="2">  1       -1 0.81974324E-03 0.91811987E+02</pdfrwt>
<totfact> 0.13217918E+05</totfact>
</mgrwt>
</event>
<event>
 5    1  0.3845386E+001  0.9107736E+02  0.7546771E-02  0.1300263E+00
         -2   -1    0    0    0  501 -0.00000000000E+00  0.00000000000E+00  0.18864609234E+02  0.18864609234E+02  0.00000000000E+00 0.  1.
          2   -1    0    0  501    0  0.00000000000E+00 -0.00000000000E+00 -0.10992919056E+03  0.10992919056E+03  0.00000000000E+00 0. -1.
         23    2    1    2    0    0  0.00000000000E+00  0.00000000000E+00 -0.91064581322E+02  0.12879379979E+03  0.91077356642E+02 0.  0.
          2    1    3    3  502    0  0.42695532735E+02 -0.92833209369E+01 -0.27385138715E+02  0.51565825753E+02  0.00000000000E+00 0.  1.
         -2    1    3    3    0  502 -0.42695532735E+02  0.92833209369E+01 -0.63679442607E+02  0.77227974037E+02  0.00000000000E+00 0. -1.
<mgrwt>
<rscale>  0 0.91077357E+02</rscale>
<asrwt>0</asrwt>
<pdfrwt beam="2">  1        2 0.16912183E-01 0.91077357E+02</pdfrwt>
<pdfrwt beam="1">  1       -2 0.29022476E-02 0.91077357E+02</pdfrwt>
<totfact> 0.12669168E+05</totfact>
</mgrwt>
</event>
<event>
 5    1  0.3845386E+001  0.9249497E+02  0.7546771E-02  0.1296920E+00
          2   -1    0    0  501    0  0.00000000000E+00  0.00000000000E+00  0.18736367363E+03  0.18736367363E+03  0.00000000000E+00 0. -1.
         -2   -1    0    0    0  501 -0.00000000000E+00 -0.00000000000E+00 -0.11415393346E+02  0.11415393346E+02  0.00000000000E+00 0.  1.
         23    2    1    2    0    0  0.00000000000E+00  0.00000000000E+00  0.17594828029E+03  0.19877906698E+03  0.92494973557E+02 0.  0.
          2    1    3    3  502    0  0.13017720465E+02 -0.43355055857E+02  0.67619267470E+02  0.81372521453E+02  0.00000000000E+00 0. -1.
         -2    1    3    3    0  502 -0.13017720465E+02  0.43355055857E+02  0.10832901282E+03  0.11740654553E+03  0.00000000000E+00 0.  1.
<mgrwt>
<rscale>  0 0.92494974E+02</rscale>
<asrwt>0</asrwt>
<pdfrwt beam="1">  1        2 0.28825178E-01 0.92494974E+02</pdfrwt>
<pdfrwt beam="2">  1       -2 0.17562145E-02 0.92494974E+02</pdfrwt>
<totfact> 0.14534424E+05</totfact>
</mgrwt>
</event>
<event>
 5    1  0.3845386E+001  0.8895147E+02  0.7546771E-02  0.1305411E+00
          4   -1    0    0  501    0  0.00000000000E+00  0.00000000000E+00  0.29986338317E+02  0.29986338317E+02  0.00000000000E+00 0. -1.
         -4   -1    0    0    0  501 -0.00000000000E+00 -0.00000000000E+00 -0.65966406898E+02  0.65966406898E+02  0.00000000000E+00 0.  1.
         23    2    1    2    0    0  0.00000000000E+00  0.00000000000E+00 -0.35980068581E+02  0.95952745215E+02  0.88951469798E+02 0.  0.
          2    1    3    3  502    0  0.24643173394E+02 -0.31473082348E+02  0.30447923512E+01  0.40088797286E+02  0.00000000000E+00 0. -1.
         -2    1    3    3    0  502 -0.24643173394E+02  0.31473082348E+02 -0.39024860932E+02  0.55863947928E+02  0.00000000000E+00 0.  1.
<mgrwt>
<rscale>  0 0.88951470E+02</rscale>
<asrwt>0</asrwt>
<pdfrwt beam="1">  1        4 0.46132829E-02 0.88951470E+02</pdfrwt>
<pdfrwt beam="2">  1       -4 0.10148678E-01 0.88951470E+02</pdfrwt>
<totfact> 0.28556081E+04</totfact>
</mgrwt>
</event>
<event>
 5    1  0.3845386E+001  0.8990697E+02  0.7546771E-02  0.1303077E+00
          3   -1    0    0  501    0  0.00000000000E+00  0.00000000000E+00  0.25942046071E+02  0.25942046071E+02  0.00000000000E+00 0. -1.
         -3   -1    0    0    0  501 -0.00000000000E+00 -0.00000000000E+00 -0.77897312705E+02  0.77897312705E+02  0.00000000000E+00 0.  1.
         23    2    1    2    0    0  0.00000000000E+00  0.00000000000E+00 -0.51955266634E+02  0.10383935878E+03  0.89906966917E+02 0.  0.
          2    1    3    3  502    0  0.39917244948E+02  0.12436788131E+02 -0.45052233107E+02  0.61463516424E+02  0.00000000000E+00 0.  1.
         -2    1    3    3    0  502 -0.39917244948E+02 -0.12436788131E+02 -0.69030335274E+01  0.42375842353E+02  0.00000000000E+00 0. -1.
<mgrwt>
<rscale>  0 0.89906967E+02</rscale>
<asrwt>0</asrwt>
<pdfrwt beam="1">  1        3 0.39910841E-02 0.89906967E+02</pdfrwt>
<pdfrwt beam="2">  1       -3 0.11984202E-01 0.89906967E+02</pdfrwt>
<totfact> 0.35724849E+04</totfact>
</mgrwt>
</event>
<event>
 5    1  0.3845386E+001  0.1096889E+03  0.7546771E-02  0.1261147E+00
         -2   -1    0    0    0  501 -0.00000000000E+00  0.00000000000E+00  0.16623563932E+03  0.16623563932E+03  0.00000000000E+00 0.  1.
          2   -1    0    0  501    0  0.00000000000E+00 -0.00000000000E+00 -0.18094293308E+02  0.18094293308E+02  0.00000000000E+00 0. -1.
         23    2    1    2    0    0  0.00000000000E+00  0.00000000000E+00  0.14814134601E+03  0.18432993262E+03  0.10968894960E+03 0.  0.
          2    1    3    3  502    0 -0.15329920200E+02  0.23688190916E+02 -0.49614972869E+01  0.28648792253E+02  0.00000000000E+00 0. -1.
         -2    1    3    3    0  502  0.15329920200E+02 -0.23688190916E+02  0.15310284330E+03  0.15568114037E+03  0.00000000000E+00 0.  1.
<mgrwt>
<rscale>  0 0.10968895E+03</rscale>
<asrwt>0</asrwt>
<pdfrwt beam="2">  1        2 0.27837375E-02 0.10968895E+03</pdfrwt>
<pdfrwt beam="1">  1       -2 0.25574713E-01 0.10968895E+03</pdfrwt>
<totfact> 0.42009508E+04</totfact>
</mgrwt>
</event>
<event>
 5    1  0.3845386E+001  0.8976577E+02  0.7546771E-02  0.1303420E+00
          1   -1    0    0  501    0  0.00000000000E+00  0.00000000000E+00  0.69935036651E+03  0.69935036651E+03  0.00000000000E+00 0. -1.
         -1   -1    0    0    0  501 -0.00000000000E+00 -0.00000000000E+00 -0.28804926224E+01  0.28804926224E+01  0.00000000000E+00 0.  1.
         23    2    1    2    0    0  0.00000000000E+00  0.00000000000E+00  0.69646987389E+03  0.70223085913E+03  0.89765774574E+02 0.  0.
          2    1    3    3  502    0  0.30173186166E+02 -0.32620687644E+02  0.39767627984E+03  0.40015116390E+03  0.00000000000E+00 0. -1.
         -2    1    3    3    0  502 -0.30173186166E+02  0.32620687644E+02  0.29879359405E+03  0.30207969523E+03  0.00000000000E+00 0.  1.
<mgrwt>
<rscale>  0 0.89765775E+02</rscale>
<asrwt>0</asrwt>
<pdfrwt beam="1">  1        1 0.10759223E+00 0.89765775E+02</pdfrwt>
<pdfrwt beam="2">  1       -1 0.44315327E-03 0.89765775E+02</pdfrwt>
<totfact> 0.14815861E+05</totfact>
</mgrwt>
</event>
<event>
 5    1  0.3845386E+001  0.9063429E+02  0.7546771E-02  0.1301323E+00
         -1   -1    0    0    0  501 -0.00000000000E+00  0.00000000000E+00  0.37973109987E+02  0.37973109987E+02  0.00000000000E+00 0.  1.
          1   -1    0    0  501    0  0.00000000000E+00 -0.00000000000E+00 -0.54081524356E+02  0.54081524356E+02  0.00000000000E+00 0. -1.
         23    2    1    2    0    0  0.00000000000E+00  0.00000000000E+00 -0.16108414369E+02  0.92054634343E+02  0.90634290920E+02 0.  0.
          2    1    3    3  502    0 -0.18418799893E+02 -0.22578630572E+02 -0.43305414111E+02  0.52195839291E+02  0.00000000000E+00 0. -1.
         -2    1    3    3    0  502  0.18418799893E+02  0.22578630572E+02  0.27196999742E+02  0.39858795052E+02  0.00000000000E+00 0.  1.
<mgrwt>
<rscale>  0 0.90634291E+02</rscale>
<asrwt>0</asrwt>
<pdfrwt beam="2">  1        1 0.83202345E-02 0.90634291E+02</pdfrwt>
<pdfrwt beam="1">  1       -1 0.58420169E-02 0.90634291E+02</pdfrwt>
<totfact> 0.96463712E+04</totfact>
</mgrwt>
</event>
<event>
 5    1  0.3845386E+001  0.8626766E+02  0.7546771E-02  0.1312150E+00
         -2   -1    0    0    0  501 -0.00000000000E+00  0.00000000000E+00  0.25612503378E+01  0.25612503378E+01  0.00000000000E+00 0.  1.
          2   -1    0    0  501    0  0.00000000000E+00 -0.00000000000E+00 -0.72641374441E+03  0.72641374441E+03  0.00000000000E+00 0. -1.
         23    2    1    2    0    0  0.00000000000E+00  0.00000000000E+00 -0.72385249407E+03  0.72897499475E+03  0.86267663658E+02 0.  0.
          2    1    3    3  502    0 -0.38477472105E+02  0.19442575861E+02 -0.37387009139E+03  0.37634741244E+03  0.00000000000E+00 0. -1.
         -2    1    3    3    0  502  0.38477472105E+02 -0.19442575861E+02 -0.34998240268E+03  0.35262758230E+03  0.00000000000E+00 0.  1.
<mgrwt>
<rscale>  0 0.86267664E+02</rscale>
<asrwt>0</asrwt>
<pdfrwt beam="2">  1        2 0.11175603E+00 0.86267664E+02</pdfrwt>
<pdfrwt beam="1">  1       -2 0.39403826E-03 0.86267664E+02</pdfrwt>
<totfact> 0.27659008E+05</totfact>
</mgrwt>
</event>
<event>
 5    1  0.3845386E+001  0.9162945E+02  0.7546771E-02  0.1298953E+00
         -3   -1    0    0    0  501 -0.00000000000E+00  0.00000000000E+00  0.15556495935E+03  0.15556495935E+03  0.00000000000E+00 0.  1.
          3   -1    0    0  501    0  0.00000000000E+00 -0.00000000000E+00 -0.13492684964E+02  0.13492684964E+02  0.00000000000E+00 0. -1.
         23    2    1    2    0    0  0.00000000000E+00  0.00000000000E+00  0.14207227438E+03  0.16905764431E+03  0.91629449150E+02 0.  0.
          2    1    3    3  502    0  0.39215217935E+02 -0.12847481916E+02  0.10775599541E+03  0.11538737217E+03  0.00000000000E+00 0. -1.
         -2    1    3    3    0  502 -0.39215217935E+02  0.12847481916E+02  0.34316278974E+02  0.53670272143E+02  0.00000000000E+00 0.  1.
<mgrwt>
<rscale>  0 0.91629449E+02</rscale>
<asrwt>0</asrwt>
<pdfrwt beam="2">  1        3 0.20757978E-02 0.91629449E+02</pdfrwt>
<pdfrwt beam="1">  1       -3 0.23933069E-01 0.91629449E+02</pdfrwt>
<totfact> 0.29778462E+04</totfact>
</mgrwt>
</event>
<event>
 5    1  0.3845386E+001  0.8942088E+02  0.7546771E-02  0.1304260E+00
          2   -1    0    0  501    0  0.00000000000E+00  0.00000000000E+00  0.11349759556E+04  0.11349759556E+04  0.00000000000E+00 0. -1.
         -2   -1    0    0    0  501 -0.00000000000E+00 -0.00000000000E+00 -0.17612914944E+01  0.17612914944E+01  0.00000000000E+00 0.  1.
         23    2    1    2    0    0  0.00000000000E+00  0.00000000000E+00  0.11332146641E+04  0.11367372471E+04  0.89420881164E+02 0.  0.
          2    1    3    3  502    0 -0.44334377867E+02 -0.51783270156E+01  0.59944168879E+03  0.60110123140E+03  0.00000000000E+00 0. -1.
         -2    1    3    3    0  502  0.44334377867E+02  0.51783270156E+01  0.53377297535E+03  0.53563601573E+03  0.00000000000E+00 0.  1.
<mgrwt>
<rscale>  0 0.89420881E+02</rscale>
<asrwt>0</asrwt>
<pdfrwt beam="1">  1        2 0.17461110E+00 0.89420881E+02</pdfrwt>
<pdfrwt beam="2">  1       -2 0.27096883E-03 0.89420881E+02</pdfrwt>
<totfact> 0.26295615E+05</totfact>
</mgrwt>
</event>
<event>
 5    1  0.3845386E+001  0.8423528E+02  0.7546771E-02  0.1317445E+00
          1   -1    0    0  501    0  0.00000000000E+00  0.00000000000E+00  0.88180160921E+02  0.88180160921E+02  0.00000000000E+00 0. -1.
         -1   -1    0    0    0  501 -0.00000000000E+00 -0.00000000000E+00 -0.20116721676E+02  0.20116721676E+02  0.00000000000E+00 0.  1.
         23    2    1    2    0    0  0.00000000000E+00  0.00000000000E+00  0.68063439245E+02  0.10829688260E+03  0.84235283691E+02 0.  0.
          2    1    3    3  502    0  0.20936062783E+02  0.22546775912E+02  0.71008782007E+02  0.77388131848E+02  0.00000000000E+00 0. -1.
         -2    1    3    3    0  502 -0.20936062783E+02 -0.22546775912E+02 -0.29453427618E+01  0.30908750749E+02  0.00000000000E+00 0.  1.
<mgrwt>
<rscale>  0 0.84235284E+02</rscale>
<asrwt>0</asrwt>
<pdfrwt beam="1">  1        1 0.13566178E-01 0.84235284E+02</pdfrwt>
<pdfrwt beam="2">  1       -1 0.30948803E-02 0.84235284E+02</pdfrwt>
<totfact> 0.12691380E+05</totfact>
</mgrwt>
</event>
<event>
 5    1  0.3845386E+001  0.9421855E+02  0.7546771E-02  0.1292946E+00
         -2   -1    0    0    0  501 -0.00000000000E+00  0.00000000000E+00  0.23939804764E+01  0.23939804764E+01  0.00000000000E+00 0.  1.
          2   -1    0    0  501    0  0.00000000000E+00 -0.00000000000E+00 -0.92702673009E+03  0.92702673009E+03  0.00000000000E+00 0. -1.
         23    2    1    2    0    0  0.00000000000E+00  0.00000000000E+00 -0.92463274962E+03  0.92942071057E+03  0.94218552163E+02 0.  0.
          2    1    3    3  502    0 -0.43972244154E+02 -0.15349385541E+02 -0.53215410532E+03  0.53418831296E+03  0.00000000000E+00 0. -1.
         -2    1    3    3    0  502  0.43972244154E+02  0.15349385541E+02 -0.39247864430E+03  0.39523239761E+03  0.00000000000E+00 0.  1.
<mgrwt>
<rscale>  0 0.94218552E+02</rscale>
<asrwt>0</asrwt>
<pdfrwt beam="2">  1        2 0.14261958E+00 0.94218552E+02</pdfrwt>
<pdfrwt beam="1">  1       -2 0.36830447E-03 0.94218552E+02</pdfrwt>
<totfact> 0.22807692E+05</totfact>
</mgrwt>
</event>
<event>
 5    1  0.3845386E+001  0.9234714E+02  0.7546771E-02  0.1297265E+00
         -3   -1    0    0    0  501 -0.00000000000E+00  0.00000000000E+00  0.86128008008E+02  0.86128008008E+02  0.00000000000E+00 0.  1.
          3   -1    0    0  501    0  0.00000000000E+00 -0.00000000000E+00 -0.24753836988E+02  0.24753836988E+02  0.00000000000E+00 0. -1.
         23    2    1    2    0    0  0.00000000000E+00  0.00000000000E+00  0.61374171020E+02  0.11088184500E+03  0.92347142248E+02 0.  0.
          2    1    3    3  502    0 -0.45880755611E+02  0.42072759823E+01  0.34339635651E+02  0.57462644242E+02  0.00000000000E+00 0. -1.
         -2    1    3    3    0  502  0.45880755611E+02 -0.42072759823E+01  0.27034535369E+02  0.53419200754E+02  0.00000000000E+00 0.  1.
<mgrwt>
<rscale>  0 0.92347142E+02</rscale>
<asrwt>0</asrwt>
<pdfrwt beam="2">  1        3 0.38082827E-02 0.92347142E+02</pdfrwt>
<pdfrwt beam="1">  1       -3 0.13250463E-01 0.92347142E+02</pdfrwt>
<totfact> 0.32726436E+04</totfact>
</mgrwt>
</event>
<event>
 5    1  0.3845386E+001  0.8285577E+02  0.7546771E-02  0.1321137E+00
          1   -1    0    0  501    0  0.00000000000E+00  0.00000000000E+00  0.27747532619E+02  0.27747532619E+02  0.00000000000E+00 0. -1.
         -1   -1    0    0    0  501 -0.00000000000E+00 -0.00000000000E+00 -0.61853061376E+02  0.61853061376E+02  0.00000000000E+00 0.  1.
         23    2    1    2    0    0  0.00000000000E+00  0.00000000000E+00 -0.34105528757E+02  0.89600593995E+02  0.82855774407E+02 0.  0.
          2    1    3    3  502    0 -0.85672855720E+01 -0.33110184138E+02 -0.42335136639E+02  0.54423767510E+02  0.00000000000E+00 0. -1.
         -2    1    3    3    0  502  0.85672855720E+01  0.33110184138E+02  0.82296078826E+01  0.35176826486E+02  0.00000000000E+00 0.  1.
<mgrwt>
<rscale>  0 0.82855774E+02</rscale>
<asrwt>0</asrwt>
<pdfrwt beam="1">  1        1 0.42688512E-02 0.82855774E+02</pdfrwt>
<pdfrwt beam="2">  1       -1 0.95158555E-02 0.82855774E+02</pdfrwt>
<totfact> 0.11249334E+05</totfact>
</mgrwt>
</event>
<event>
 5    1  0.3845386E+001  0.9169959E+02  0.7546771E-02  0.1298787E+00
         -2   -1    0    0    0  501 -0.00000000000E+00  0.00000000000E+00  0.81719329752E+00  0.81719329752E+00  0.00000000000E+00 0.  1.
          2   -1    0    0  501    0  0.00000000000E+00 -0.00000000000E+00 -0.25724683909E+04  0.25724683909E+04  0.00000000000E+00 0. -1.
         23    2    1    2    0    0  0.00000000000E+00  0.00000000000E+00 -0.25716511976E+04  0.25732855842E+04  0.91699594921E+02 0.  0.
          2    1    3    3  502    0  0.36672512188E+02 -0.60456989485E+01 -0.20392193684E+04  0.20395580541E+04  0.00000000000E+00 0. -1.
         -2    1    3    3    0  502 -0.36672512188E+02  0.60456989485E+01 -0.53243182929E+03  0.53372753017E+03  0.00000000000E+00 0.  1.
<mgrwt>
<rscale>  0 0.91699595E+02</rscale>
<asrwt>0</asrwt>
<pdfrwt beam="2">  1        2 0.39575351E+00 0.91699595E+02</pdfrwt>
<pdfrwt beam="1">  1       -2 0.12572549E-03 0.91699595E+02</pdfrwt>
<totfact> 0.13937203E+05</totfact>
</mgrwt>
</event>
<event>
 5    1  0.3845386E+001  0.9194985E+02  0.7546771E-02  0.1298197E+00
          2   -1    0    0  501    0  0.00000000000E+00  0.00000000000E+00  0.10713318286E+03  0.10713318286E+03  0.00000000000E+00 0. -1.
         -2   -1    0    0    0  501 -0.00000000000E+00 -0.00000000000E+00 -0.19729590685E+02  0.19729590685E+02  0.00000000000E+00 0.  1.
         23    2    1    2    0    0  0.00000000000E+00  0.00000000000E+00  0.87403592175E+02  0.12686277354E+03  0.91949852562E+02 0.  0.
          2    1    3    3  502    0  0.39073440048E+02 -0.22479543082E+02  0.31236322377E+02  0.54843152809E+02  0.00000000000E+00 0. -1.
         -2    1    3    3    0  502 -0.39073440048E+02  0.22479543082E+02  0.56167269797E+02  0.72019620735E+02  0.00000000000E+00 0.  1.
<mgrwt>
<rscale>  0 0.91949853E+02</rscale>
<asrwt>0</asrwt>
<pdfrwt beam="1">  1        2 0.16482028E-01 0.91949853E+02</pdfrwt>
<pdfrwt beam="2">  1       -2 0.30353217E-02 0.91949853E+02</pdfrwt>
<totfact> 0.12242737E+05</totfact>
</mgrwt>
</event>
<event>
 5    1  0.3845386E+001  0.9055661E+02  0.7546771E-02  0.1301509E+00
          4   -1    0    0  501    0  0.00000000000E+00  0.00000000000E+00  0.12191671169E+03  0.12191671169E+03  0.00000000000E+00 0. -1.
         -4   -1    0    0    0  501 -0.00000000000E+00 -0.00000000000E+00 -0.16815781784E+02  0.16815781784E+02  0.00000000000E+00 0.  1.
         23    2    1    2    0    0  0.00000000000E+00  0.00000000000E+00  0.10510092991E+03  0.13873249348E+03  0.90556608144E+02 0.  0.
          2    1    3    3  502    0  0.82901803013E+01 -0.22120557708E+02  0.11172759564E+03  0.11419764354E+03  0.00000000000E+00 0. -1.
         -2    1    3    3    0  502 -0.82901803013E+01  0.22120557708E+02 -0.66266657299E+01  0.24534849937E+02  0.00000000000E+00 0.  1.
<mgrwt>
<rscale>  0 0.90556608E+02</rscale>
<asrwt>0</asrwt>
<pdfrwt beam="1">  1        4 0.18756417E-01 0.90556608E+02</pdfrwt>
<pdfrwt beam="2">  1       -4 0.25870434E-02 0.90556608E+02</pdfrwt>
<totfact> 0.24701101E+04</totfact>
</mgrwt>
</event>
<event>
 5    1  0.3845386E+001  0.8842676E+02  0.7546771E-02  0.1306707E+00
          1   -1    0    0  501    0  0.00000000000E+00  0.00000000000E+00  0.30087304182E+02  0.30087304182E+02  0.00000000000E+00 0. -1.
         -1   -1    0    0    0  501 -0.00000000000E+00 -0.00000000000E+00 -0.64971691653E+02  0.64971691653E+02  0.00000000000E+00 0.  1.
         23    2    1    2    0    0  0.00000000000E+00  0.00000000000E+00 -0.34884387471E+02  0.95058995835E+02  0.88426761786E+02 0.  0.
          2    1    3    3  502    0 -0.13047539408E+02  0.15862188744E+02  0.24647633301E+02  0.32083533840E+02  0.00000000000E+00 0. -1.
         -2    1    3    3    0  502  0.13047539408E+02 -0.15862188744E+02 -0.59532020771E+02  0.62975461995E+02  0.00000000000E+00 0.  1.
<mgrwt>
<rscale>  0 0.88426762E+02</rscale>
<asrwt>0</asrwt>
<pdfrwt beam="1">  1        1 0.46288160E-02 0.88426762E+02</pdfrwt>
<pdfrwt beam="2">  1       -1 0.99956450E-02 0.88426762E+02</pdfrwt>
<totfact> 0.94663222E+04</totfact>
</mgrwt>
</event>
<event>
 5    1  0.3845386E+001  0.9217821E+02  0.7546771E-02  0.1297661E+00
         -1   -1    0    0    0  501 -0.00000000000E+00  0.00000000000E+00  0.12792527013E+01  0.12792527013E+01  0.00000000000E+00 0.  1.
          1   -1    0    0  501    0  0.00000000000E+00 -0.00000000000E+00 -0.16605051383E+04  0.16605051383E+04  0.00000000000E+00 0. -1.
         23    2    1    2    0    0  0.00000000000E+00  0.00000000000E+00 -0.16592258856E+04  0.16617843910E+04  0.92178211825E+02 0.  0.
          2    1    3    3  502    0 -0.25612328270E+02  0.20701916166E+02 -0.14108976926E+04  0.14112819916E+04  0.00000000000E+00 0. -1.
         -2    1    3    3    0  502  0.25612328270E+02 -0.20701916166E+02 -0.24832819300E+03  0.25050239945E+03  0.00000000000E+00 0.  1.
<mgrwt>
<rscale>  0 0.92178212E+02</rscale>
<asrwt>0</asrwt>
<pdfrwt beam="2">  1        1 0.25546191E+00 0.92178212E+02</pdfrwt>
<pdfrwt beam="1">  1       -1 0.19680843E-03 0.92178212E+02</pdfrwt>
<totfact> 0.97783406E+04</totfact>
</mgrwt>
</event>
<event>
 5    1  0.3845386E+001  0.9151999E+02  0.7546771E-02  0.1299212E+00
          4   -1    0    0  501    0  0.00000000000E+00  0.00000000000E+00  0.24005091192E+02  0.24005091192E+02  0.00000000000E+00 0. -1.
         -4   -1    0    0    0  501 -0.00000000000E+00 -0.00000000000E+00 -0.87230540557E+02  0.87230540557E+02  0.00000000000E+00 0.  1.
         23    2    1    2    0    0  0.00000000000E+00  0.00000000000E+00 -0.63225449365E+02  0.11123563175E+03  0.91519988654E+02 0.  0.
          2    1    3    3  502    0  0.40168380338E+02  0.20143242766E+02 -0.42119510007E+02  0.61589789181E+02  0.00000000000E+00 0.  1.
         -2    1    3    3    0  502 -0.40168380338E+02 -0.20143242766E+02 -0.21105939359E+02  0.49645842568E+02  0.00000000000E+00 0. -1.
<mgrwt>
<rscale>  0 0.91519989E+02</rscale>
<asrwt>0</asrwt>
<pdfrwt beam="1">  1        4 0.36930909E-02 0.91519989E+02</pdfrwt>
<pdfrwt beam="2">  1       -4 0.13420083E-01 0.91519989E+02</pdfrwt>
<totfact> 0.25518419E+04</totfact>
</mgrwt>
</event>
<event>
 5    1  0.3845386E+001  0.9158704E+02  0.7546771E-02  0.1299053E+00
         -3   -1    0    0    0  501 -0.00000000000E+00  0.00000000000E+00  0.35705367854E+02  0.35705367854E+02  0.00000000000E+00 0.  1.
          3   -1    0    0  501    0  0.00000000000E+00 -0.00000000000E+00 -0.58731960420E+02  0.58731960420E+02  0.00000000000E+00 0. -1.
         23    2    1    2    0    0  0.00000000000E+00  0.00000000000E+00 -0.23026592566E+02  0.94437328275E+02  0.91587035144E+02 0.  0.
          2    1    3    3  502    0 -0.10682384687E+02 -0.27824239389E+02 -0.47362289810E+02  0.55959701002E+02  0.00000000000E+00 0. -1.
         -2    1    3    3    0  502  0.10682384687E+02  0.27824239389E+02  0.24335697244E+02  0.38477627273E+02  0.00000000000E+00 0.  1.
<mgrwt>
<rscale>  0 0.91587035E+02</rscale>
<asrwt>0</asrwt>
<pdfrwt beam="2">  1        3 0.90356862E-02 0.91587035E+02</pdfrwt>
<pdfrwt beam="1">  1       -3 0.54931335E-02 0.91587035E+02</pdfrwt>
<totfact> 0.34662264E+04</totfact>
</mgrwt>
</event>
<event>
 5    1  0.3845386E+001  0.9245394E+02  0.7546771E-02  0.1297016E+00
         -3   -1    0    0    0  501 -0.00000000000E+00  0.00000000000E+00  0.16373470057E+02  0.16373470057E+02  0.00000000000E+00 0.  1.
          3   -1    0    0  501    0  0.00000000000E+00 -0.00000000000E+00 -0.13051191383E+03  0.13051191383E+03  0.00000000000E+00 0. -1.
         23    2    1    2    0    0  0.00000000000E+00  0.00000000000E+00 -0.11413844377E+03  0.14688538388E+03  0.92453943413E+02 0.  0.
          2    1    3    3  502    0  0.27997569954E+02  0.34455100840E+02 -0.36604964500E+02  0.57540779655E+02  0.00000000000E+00 0. -1.
         -2    1    3    3    0  502 -0.27997569954E+02 -0.34455100840E+02 -0.77533479270E+02  0.89344604229E+02  0.00000000000E+00 0.  1.
<mgrwt>
<rscale>  0 0.92453943E+02</rscale>
<asrwt>0</asrwt>
<pdfrwt beam="2">  1        3 0.20078756E-01 0.92453943E+02</pdfrwt>
<pdfrwt beam="1">  1       -3 0.25189954E-02 0.92453943E+02</pdfrwt>
<totfact> 0.30331220E+04</totfact>
</mgrwt>
</event>
<event>
 5    1  0.3845386E+001  0.9175233E+02  0.7546771E-02  0.1298663E+00
          2   -1    0    0  501    0  0.00000000000E+00  0.00000000000E+00  0.15212386165E+03  0.15212386165E+03  0.00000000000E+00 0. -1.
         -2   -1    0    0    0  501 -0.00000000000E+00 -0.00000000000E+00 -0.13834928084E+02  0.13834928084E+02  0.00000000000E+00 0.  1.
         23    2    1    2    0    0  0.00000000000E+00  0.00000000000E+00  0.13828893356E+03  0.16595878973E+03  0.91752333719E+02 0.  0.
          2    1    3    3  502    0  0.23522849599E+02 -0.39259801086E+02  0.63434296573E+02  0.78221265754E+02  0.00000000000E+00 0. -1.
         -2    1    3    3    0  502 -0.23522849599E+02  0.39259801086E+02  0.74854636991E+02  0.87737523977E+02  0.00000000000E+00 0.  1.
<mgrwt>
<rscale>  0 0.91752334E+02</rscale>
<asrwt>0</asrwt>
<pdfrwt beam="1">  1        2 0.23403670E-01 0.91752334E+02</pdfrwt>
<pdfrwt beam="2">  1       -2 0.21284506E-02 0.91752334E+02</pdfrwt>
<totfact> 0.13810033E+05</totfact>
</mgrwt>
</event>
<event>
 5    1  0.3845386E+001  0.9175259E+02  0.7546771E-02  0.1298662E+00
          1   -1    0    0  501    0  0.00000000000E+00  0.00000000000E+00  0.12761958750E+04  0.12761958750E+04  0.00000000000E+00 0. -1.
         -1   -1    0    0    0  501 -0.00000000000E+00 -0.00000000000E+00 -0.16491469035E+01  0.16491469035E+01  0.00000000000E+00 0.  1.
         23    2    1    2    0    0  0.00000000000E+00  0.00000000000E+00  0.12745467281E+04  0.12778450219E+04  0.91752590711E+02 0.  0.
          2    1    3    3  502    0 -0.21562887907E+02  0.12339996049E+02  0.11743965014E+04  0.11746592596E+04  0.00000000000E+00 0. -1.
         -2    1    3    3    0  502  0.21562887907E+02 -0.12339996049E+02  0.10015022675E+03  0.10318576237E+03  0.00000000000E+00 0.  1.
<mgrwt>
<rscale>  0 0.91752591E+02</rscale>
<asrwt>0</asrwt>
<pdfrwt beam="1">  1        1 0.19633704E+00 0.91752591E+02</pdfrwt>
<pdfrwt beam="2">  1       -1 0.25371593E-03 0.91752591E+02</pdfrwt>
<totfact> 0.12131836E+05</totfact>
</mgrwt>
</event>
<event>
 5    1  0.3845386E+001  0.9205198E+02  0.7546771E-02  0.1297957E+00
          1   -1    0    0  501    0  0.00000000000E+00  0.00000000000E+00  0.96891323707E+03  0.96891323707E+03  0.00000000000E+00 0. -1.
         -1   -1    0    0    0  501 -0.00000000000E+00 -0.00000000000E+00 -0.21863584823E+01  0.21863584823E+01  0.00000000000E+00 0.  1.
         23    2    1    2    0    0  0.00000000000E+00  0.00000000000E+00  0.96672687859E+03  0.97109959556E+03  0.92051978240E+02 0.  0.
          2    1    3    3  502    0  0.10664725346E+01  0.39867831476E+02  0.72572826305E+03  0.72682328880E+03  0.00000000000E+00 0. -1.
         -2    1    3    3    0  502 -0.10664725346E+01 -0.39867831476E+02  0.24099861554E+03  0.24427630676E+03  0.00000000000E+00 0.  1.
<mgrwt>
<rscale>  0 0.92051978E+02</rscale>
<asrwt>0</asrwt>
<pdfrwt beam="1">  1        1 0.14906323E+00 0.92051978E+02</pdfrwt>
<pdfrwt beam="2">  1       -1 0.33636362E-03 0.92051978E+02</pdfrwt>
<totfact> 0.13367716E+05</totfact>
</mgrwt>
</event>
<event>
 5    1  0.3845386E+001  0.8935363E+02  0.7546771E-02  0.1304425E+00
         -2   -1    0    0    0  501 -0.00000000000E+00  0.00000000000E+00  0.23442780617E+01  0.23442780617E+01  0.00000000000E+00 0.  1.
          2   -1    0    0  501    0  0.00000000000E+00 -0.00000000000E+00 -0.85144239976E+03  0.85144239976E+03  0.00000000000E+00 0. -1.
         23    2    1    2    0    0  0.00000000000E+00  0.00000000000E+00 -0.84909812170E+03  0.85378667782E+03  0.89353628658E+02 0.  0.
          2    1    3    3  502    0 -0.33838938966E+02  0.26731498513E+02 -0.53613207533E+03  0.53786359702E+03  0.00000000000E+00 0. -1.
         -2    1    3    3    0  502  0.33838938966E+02 -0.26731498513E+02 -0.31296604637E+03  0.31592308080E+03  0.00000000000E+00 0.  1.
<mgrwt>
<rscale>  0 0.89353629E+02</rscale>
<asrwt>0</asrwt>
<pdfrwt beam="2">  1        2 0.13099123E+00 0.89353629E+02</pdfrwt>
<pdfrwt beam="1">  1       -2 0.36065790E-03 0.89353629E+02</pdfrwt>
<totfact> 0.25962225E+05</totfact>
</mgrwt>
</event>
<event>
 5    1  0.3845386E+001  0.8575953E+02  0.7546771E-02  0.1313458E+00
          2   -1    0    0  501    0  0.00000000000E+00  0.00000000000E+00  0.26183327951E+01  0.26183327951E+01  0.00000000000E+00 0. -1.
         -2   -1    0    0    0  501 -0.00000000000E+00 -0.00000000000E+00 -0.70223090647E+03  0.70223090647E+03  0.00000000000E+00 0.  1.
         23    2    1    2    0    0  0.00000000000E+00  0.00000000000E+00 -0.69961257367E+03  0.70484923926E+03  0.85759529199E+02 0.  0.
          2    1    3    3  502    0  0.39550019160E+02 -0.16444226046E+02 -0.33325049834E+03  0.33599183208E+03  0.00000000000E+00 0. -1.
         -2    1    3    3    0  502 -0.39550019160E+02  0.16444226046E+02 -0.36636207533E+03  0.36885740718E+03  0.00000000000E+00 0.  1.
<mgrwt>
<rscale>  0 0.85759529E+02</rscale>
<asrwt>0</asrwt>
<pdfrwt beam="1">  1        2 0.40282019E-03 0.85759529E+02</pdfrwt>
<pdfrwt beam="2">  1       -2 0.10803559E+00 0.85759529E+02</pdfrwt>
<totfact> 0.31758169E+04</totfact>
</mgrwt>
</event>
<event>
 5    1  0.3845386E+001  0.9210136E+02  0.7546771E-02  0.1297841E+00
          2   -1    0    0  501    0  0.00000000000E+00  0.00000000000E+00  0.62854521954E+02  0.62854521954E+02  0.00000000000E+00 0. -1.
         -2   -1    0    0    0  501 -0.00000000000E+00 -0.00000000000E+00 -0.33739261307E+02  0.33739261307E+02  0.00000000000E+00 0.  1.
         23    2    1    2    0    0  0.00000000000E+00  0.00000000000E+00  0.29115260647E+02  0.96593783261E+02  0.92101360262E+02 0.  0.
          2    1    3    3  502    0  0.55442041877E+00  0.25193777419E+02  0.54981571921E+02  0.60481460412E+02  0.00000000000E+00 0. -1.
         -2    1    3    3    0  502 -0.55442041877E+00 -0.25193777419E+02 -0.25866311274E+02  0.36112322849E+02  0.00000000000E+00 0.  1.
<mgrwt>
<rscale>  0 0.92101360E+02</rscale>
<asrwt>0</asrwt>
<pdfrwt beam="1">  1        2 0.96699264E-02 0.92101360E+02</pdfrwt>
<pdfrwt beam="2">  1       -2 0.51906556E-02 0.92101360E+02</pdfrwt>
<totfact> 0.10439493E+05</totfact>
</mgrwt>
</event>
<event>
 5    1  0.3845386E+001  0.9168637E+02  0.7546771E-02  0.1298819E+00
          1   -1    0    0  501    0  0.00000000000E+00  0.00000000000E+00  0.70784182844E+02  0.70784182844E+02  0.00000000000E+00 0. -1.
         -1   -1    0    0    0  501 -0.00000000000E+00 -0.00000000000E+00 -0.29690214338E+02  0.29690214338E+02  0.00000000000E+00 0.  1.
         23    2    1    2    0    0  0.00000000000E+00  0.00000000000E+00  0.41093968506E+02  0.10047439718E+03  0.91686368897E+02 0.  0.
          2    1    3    3  502    0  0.23272060474E+02  0.37150415489E+02  0.35243431676E+02  0.56248036819E+02  0.00000000000E+00 0. -1.
         -2    1    3    3    0  502 -0.23272060474E+02 -0.37150415489E+02  0.58505368300E+01  0.44226360362E+02  0.00000000000E+00 0.  1.
<mgrwt>
<rscale>  0 0.91686369E+02</rscale>
<asrwt>0</asrwt>
<pdfrwt beam="1">  1        1 0.10889874E-01 0.91686369E+02</pdfrwt>
<pdfrwt beam="2">  1       -1 0.45677253E-02 0.91686369E+02</pdfrwt>
<totfact> 0.97328008E+04</totfact>
</mgrwt>
</event>
<event>
 5    1  0.3845386E+001  0.8881191E+02  0.7546771E-02  0.1305755E+00
          1   -1    0    0  501    0  0.00000000000E+00  0.00000000000E+00  0.72977726166E+03  0.72977726166E+03  0.00000000000E+00 0. -1.
         -1   -1    0    0    0  501 -0.00000000000E+00 -0.00000000000E+00 -0.27020420006E+01  0.27020420006E+01  0.00000000000E+00 0.  1.
         23    2    1    2    0    0  0.00000000000E+00  0.00000000000E+00  0.72707521966E+03  0.73247930366E+03  0.88811909384E+02 0.  0.
          2    1    3    3  502    0  0.41049995736E+02  0.91389926570E+01  0.48112370299E+03  0.48295821860E+03  0.00000000000E+00 0. -1.
         -2    1    3    3    0  502 -0.41049995736E+02 -0.91389926570E+01  0.24595151667E+03  0.24952108506E+03  0.00000000000E+00 0.  1.
<mgrwt>
<rscale>  0 0.88811909E+02</rscale>
<asrwt>0</asrwt>
<pdfrwt beam="1">  1        1 0.11227327E+00 0.88811909E+02</pdfrwt>
<pdfrwt beam="2">  1       -1 0.41569935E-03 0.88811909E+02</pdfrwt>
<totfact> 0.15226589E+05</totfact>
</mgrwt>
</event>
<event>
 5    1  0.3845386E+001  0.8709643E+02  0.7546771E-02  0.1310039E+00
         -4   -1    0    0    0  501 -0.00000000000E+00  0.00000000000E+00  0.26012024320E+02  0.26012024320E+02  0.00000000000E+00 0. -1.
          4   -1    0    0  501    0  0.00000000000E+00 -0.00000000000E+00 -0.72906559192E+02  0.72906559192E+02  0.00000000000E+00 0.  1.
         23    2    1    2    0    0  0.00000000000E+00  0.00000000000E+00 -0.46894534872E+02  0.98918583511E+02  0.87096433699E+02 0.  0.
          2    1    3    3  502    0  0.41554490616E+02 -0.12652079959E+02 -0.19928981939E+02  0.47791370966E+02  0.00000000000E+00 0. -1.
         -2    1    3    3    0  502 -0.41554490616E+02  0.12652079959E+02 -0.26965552933E+02  0.51127212545E+02  0.00000000000E+00 0.  1.
<mgrwt>
<rscale>  0 0.87096434E+02</rscale>
<asrwt>0</asrwt>
<pdfrwt beam="2">  1        4 0.11216394E-01 0.87096434E+02</pdfrwt>
<pdfrwt beam="1">  1       -4 0.40018499E-02 0.87096434E+02</pdfrwt>
<totfact> 0.30012011E+04</totfact>
</mgrwt>
</event>
<event>
 5    1  0.3845386E+001  0.9071062E+02  0.7546771E-02  0.1301140E+00
         -1   -1    0    0    0  501 -0.00000000000E+00  0.00000000000E+00  0.12997030553E+01  0.12997030553E+01  0.00000000000E+00 0.  1.
          1   -1    0    0  501    0  0.00000000000E+00 -0.00000000000E+00 -0.15827494152E+04  0.15827494152E+04  0.00000000000E+00 0. -1.
         23    2    1    2    0    0  0.00000000000E+00  0.00000000000E+00 -0.15814497121E+04  0.15840491183E+04  0.90710622327E+02 0.  0.
          2    1    3    3  502    0 -0.34003911295E+02  0.28838328833E+02 -0.64547048680E+03  0.64700855058E+03  0.00000000000E+00 0. -1.
         -2    1    3    3    0  502  0.34003911295E+02 -0.28838328833E+02 -0.93597922534E+03  0.93704056768E+03  0.00000000000E+00 0.  1.
<mgrwt>
<rscale>  0 0.90710622E+02</rscale>
<asrwt>0</asrwt>
<pdfrwt beam="2">  1        1 0.24350154E+00 0.90710622E+02</pdfrwt>
<pdfrwt beam="1">  1       -1 0.19995298E-03 0.90710622E+02</pdfrwt>
<totfact> 0.10690623E+05</totfact>
</mgrwt>
</event>
<event>
 5    1  0.3845386E+001  0.8997798E+02  0.7546771E-02  0.1302905E+00
          1   -1    0    0  501    0  0.00000000000E+00  0.00000000000E+00  0.93802405099E+02  0.93802405099E+02  0.00000000000E+00 0. -1.
         -1   -1    0    0    0  501 -0.00000000000E+00 -0.00000000000E+00 -0.21577370878E+02  0.21577370878E+02  0.00000000000E+00 0.  1.
         23    2    1    2    0    0  0.00000000000E+00  0.00000000000E+00  0.72225034221E+02  0.11537977598E+03  0.89977981396E+02 0.  0.
          2    1    3    3  502    0  0.36487742262E+02 -0.56027222621E+01  0.69087205909E+02  0.78331269953E+02  0.00000000000E+00 0. -1.
         -2    1    3    3    0  502 -0.36487742262E+02  0.56027222621E+01  0.31378283123E+01  0.37048506024E+02  0.00000000000E+00 0.  1.
<mgrwt>
<rscale>  0 0.89977981E+02</rscale>
<asrwt>0</asrwt>
<pdfrwt beam="1">  1        1 0.14431139E-01 0.89977981E+02</pdfrwt>
<pdfrwt beam="2">  1       -1 0.33195956E-02 0.89977981E+02</pdfrwt>
<totfact> 0.10715332E+05</totfact>
</mgrwt>
</event>
<event>
 5    1  0.3845386E+001  0.9029945E+02  0.7546771E-02  0.1302128E+00
         -3   -1    0    0    0  501 -0.00000000000E+00  0.00000000000E+00  0.52452515756E+01  0.52452515756E+01  0.00000000000E+00 0.  1.
          3   -1    0    0  501    0  0.00000000000E+00 -0.00000000000E+00 -0.38863675240E+03  0.38863675240E+03  0.00000000000E+00 0. -1.
         23    2    1    2    0    0  0.00000000000E+00  0.00000000000E+00 -0.38339150083E+03  0.39388200398E+03  0.90299447128E+02 0.  0.
          2    1    3    3  502    0 -0.30583674368E+02 -0.29859892209E+02 -0.25513529985E+03  0.25869092664E+03  0.00000000000E+00 0. -1.
         -2    1    3    3    0  502  0.30583674368E+02  0.29859892209E+02 -0.12825620098E+03  0.13519107733E+03  0.00000000000E+00 0.  1.
<mgrwt>
<rscale>  0 0.90299447E+02</rscale>
<asrwt>0</asrwt>
<pdfrwt beam="2">  1        3 0.59790265E-01 0.90299447E+02</pdfrwt>
<pdfrwt beam="1">  1       -3 0.80696184E-03 0.90299447E+02</pdfrwt>
<totfact> 0.21345006E+04</totfact>
</mgrwt>
</event>
<event>
 5    1  0.3845386E+001  0.8708410E+02  0.7546771E-02  0.1310071E+00
         -2   -1    0    0    0  501 -0.00000000000E+00  0.00000000000E+00  0.18666285168E+01  0.18666285168E+01  0.00000000000E+00 0.  1.
          2   -1    0    0  501    0  0.00000000000E+00 -0.00000000000E+00 -0.10156868004E+04  0.10156868004E+04  0.00000000000E+00 0. -1.
         23    2    1    2    0    0  0.00000000000E+00  0.00000000000E+00 -0.10138201719E+04  0.10175534289E+04  0.87084096039E+02 0.  0.
          2    1    3    3  502    0  0.39918839897E+02  0.10089229413E+02 -0.67240618200E+03  0.67366562917E+03  0.00000000000E+00 0. -1.
         -2    1    3    3    0  502 -0.39918839897E+02 -0.10089229413E+02 -0.34141398988E+03  0.34388779975E+03  0.00000000000E+00 0.  1.
<mgrwt>
<rscale>  0 0.87084096E+02</rscale>
<asrwt>0</asrwt>
<pdfrwt beam="2">  1        2 0.15625954E+00 0.87084096E+02</pdfrwt>
<pdfrwt beam="1">  1       -2 0.28717356E-03 0.87084096E+02</pdfrwt>
<totfact> 0.28223749E+05</totfact>
</mgrwt>
</event>
<event>
 5    1  0.3845386E+001  0.9228800E+02  0.7546771E-02  0.1297404E+00
         -2   -1    0    0    0  501 -0.00000000000E+00  0.00000000000E+00  0.34098455903E+01  0.34098455903E+01  0.00000000000E+00 0.  1.
          2   -1    0    0  501    0  0.00000000000E+00 -0.00000000000E+00 -0.62444722367E+03  0.62444722367E+03  0.00000000000E+00 0. -1.
         23    2    1    2    0    0  0.00000000000E+00  0.00000000000E+00 -0.62103737808E+03  0.62785706926E+03  0.92287997313E+02 0.  0.
          2    1    3    3  502    0  0.54647844142E+01 -0.36107451221E+02 -0.50242021647E+03  0.50374565588E+03  0.00000000000E+00 0. -1.
         -2    1    3    3    0  502 -0.54647844142E+01  0.36107451221E+02 -0.11861716161E+03  0.12411141338E+03  0.00000000000E+00 0.  1.
<mgrwt>
<rscale>  0 0.92287997E+02</rscale>
<asrwt>0</asrwt>
<pdfrwt beam="2">  1        2 0.96068819E-01 0.92287997E+02</pdfrwt>
<pdfrwt beam="1">  1       -2 0.52459154E-03 0.92287997E+02</pdfrwt>
<totfact> 0.22313140E+05</totfact>
</mgrwt>
</event>
<event>
 5    1  0.3845386E+001  0.9211722E+02  0.7546771E-02  0.1297804E+00
          1   -1    0    0  501    0  0.00000000000E+00  0.00000000000E+00  0.93228900638E+02  0.93228900638E+02  0.00000000000E+00 0. -1.
         -1   -1    0    0    0  501 -0.00000000000E+00 -0.00000000000E+00 -0.22754696530E+02  0.22754696530E+02  0.00000000000E+00 0.  1.
         23    2    1    2    0    0  0.00000000000E+00  0.00000000000E+00  0.70474204107E+02  0.11598359717E+03  0.92117215369E+02 0.  0.
          2    1    3    3  502    0  0.32272349442E+02 -0.32799204755E+02  0.32686721534E+02  0.56442130858E+02  0.00000000000E+00 0. -1.
         -2    1    3    3    0  502 -0.32272349442E+02  0.32799204755E+02  0.37787482573E+02  0.59541466310E+02  0.00000000000E+00 0.  1.
<mgrwt>
<rscale>  0 0.92117215E+02</rscale>
<asrwt>0</asrwt>
<pdfrwt beam="1">  1        1 0.14342908E-01 0.92117215E+02</pdfrwt>
<pdfrwt beam="2">  1       -1 0.35007226E-02 0.92117215E+02</pdfrwt>
<totfact> 0.10039284E+05</totfact>
</mgrwt>
</event>
<event>
 5    1  0.3845386E+001  0.8808381E+02  0.7546771E-02  0.1307560E+00
          3   -1    0    0  501    0  0.00000000000E+00  0.00000000000E+00  0.22582052033E+03  0.22582052033E+03  0.00000000000E+00 0. -1.
         -3   -1    0    0    0  501 -0.00000000000E+00 -0.00000000000E+00 -0.85895170314E+01  0.85895170314E+01  0.00000000000E+00 0.  1.
         23    2    1    2    0    0  0.00000000000E+00  0.00000000000E+00  0.21723100330E+03  0.23441003736E+03  0.88083805673E+02 0.  0.
          2    1    3    3  502    0 -0.23940700997E+02 -0.25260881253E+02  0.18043974190E+03  0.18376552926E+03  0.00000000000E+00 0. -1.
         -2    1    3    3    0  502  0.23940700997E+02  0.25260881253E+02  0.36791261399E+02  0.50644508106E+02  0.00000000000E+00 0.  1.
<mgrwt>
<rscale>  0 0.88083806E+02</rscale>
<asrwt>0</asrwt>
<pdfrwt beam="1">  1        3 0.34741614E-01 0.88083806E+02</pdfrwt>
<pdfrwt beam="2">  1       -3 0.13214643E-02 0.88083806E+02</pdfrwt>
<totfact> 0.29413739E+04</totfact>
</mgrwt>
</event>
<event>
 5    1  0.3845386E+001  0.9408428E+02  0.7546771E-02  0.1293252E+00
         -1   -1    0    0    0  501 -0.00000000000E+00  0.00000000000E+00  0.18328721866E+03  0.18328721866E+03  0.00000000000E+00 0.  1.
          1   -1    0    0  501    0  0.00000000000E+00 -0.00000000000E+00 -0.12073743226E+02  0.12073743226E+02  0.00000000000E+00 0. -1.
         23    2    1    2    0    0  0.00000000000E+00  0.00000000000E+00  0.17121347544E+03  0.19536096189E+03  0.94084277426E+02 0.  0.
          2    1    3    3  502    0 -0.10487287072E+02  0.36845531217E+02  0.28916082167E+02  0.47997043333E+02  0.00000000000E+00 0. -1.
         -2    1    3    3    0  502  0.10487287072E+02 -0.36845531217E+02  0.14229739327E+03  0.14736391856E+03  0.00000000000E+00 0.  1.
<mgrwt>
<rscale>  0 0.94084277E+02</rscale>
<asrwt>0</asrwt>
<pdfrwt beam="2">  1        1 0.18574991E-02 0.94084277E+02</pdfrwt>
<pdfrwt beam="1">  1       -1 0.28198032E-01 0.94084277E+02</pdfrwt>
<totfact> 0.65536286E+04</totfact>
</mgrwt>
</event>
<event>
 5    1  0.3845386E+001  0.9213457E+02  0.7546771E-02  0.1297763E+00
         -2   -1    0    0    0  501 -0.00000000000E+00  0.00000000000E+00  0.15674407780E+02  0.15674407780E+02  0.00000000000E+00 0.  1.
          2   -1    0    0  501    0  0.00000000000E+00 -0.00000000000E+00 -0.13539233675E+03  0.13539233675E+03  0.00000000000E+00 0. -1.
         23    2    1    2    0    0  0.00000000000E+00  0.00000000000E+00 -0.11971792897E+03  0.15106674453E+03  0.92134568900E+02 0.  0.
          2    1    3    3  502    0 -0.25667576563E+02  0.33231395557E+02 -0.28790453652E+02  0.50912084604E+02  0.00000000000E+00 0.  1.
         -2    1    3    3    0  502  0.25667576563E+02 -0.33231395557E+02 -0.90927475321E+02  0.10015465993E+03  0.00000000000E+00 0. -1.
<mgrwt>
<rscale>  0 0.92134569E+02</rscale>
<asrwt>0</asrwt>
<pdfrwt beam="2">  1        2 0.20829590E-01 0.92134569E+02</pdfrwt>
<pdfrwt beam="1">  1       -2 0.24114474E-02 0.92134569E+02</pdfrwt>
<totfact> 0.13128446E+05</totfact>
</mgrwt>
</event>
<event>
 5    1  0.3845386E+001  0.9199959E+02  0.7546771E-02  0.1298080E+00
          1   -1    0    0  501    0  0.00000000000E+00  0.00000000000E+00  0.15881123371E+02  0.15881123371E+02  0.00000000000E+00 0. -1.
         -1   -1    0    0    0  501 -0.00000000000E+00 -0.00000000000E+00 -0.13323875073E+03  0.13323875073E+03  0.00000000000E+00 0.  1.
         23    2    1    2    0    0  0.00000000000E+00  0.00000000000E+00 -0.11735762735E+03  0.14911987410E+03  0.91999587782E+02 0.  0.
          2    1    3    3  502    0  0.36784949185E+02  0.15475762549E+01 -0.13981029381E+02  0.39382694948E+02  0.00000000000E+00 0. -1.
         -2    1    3    3    0  502 -0.36784949185E+02 -0.15475762549E+01 -0.10337659797E+03  0.10973717915E+03  0.00000000000E+00 0.  1.
<mgrwt>
<rscale>  0 0.91999588E+02</rscale>
<asrwt>0</asrwt>
<pdfrwt beam="1">  1        1 0.24432498E-02 0.91999588E+02</pdfrwt>
<pdfrwt beam="2">  1       -1 0.20498269E-01 0.91999588E+02</pdfrwt>
<totfact> 0.75046545E+04</totfact>
</mgrwt>
</event>
<event>
 5    1  0.3845386E+001  0.9662305E+02  0.7546771E-02  0.1287562E+00
          1   -1    0    0  501    0  0.00000000000E+00  0.00000000000E+00  0.45858819995E+03  0.45858819995E+03  0.00000000000E+00 0. -1.
         -1   -1    0    0    0  501 -0.00000000000E+00 -0.00000000000E+00 -0.50895410784E+01  0.50895410784E+01  0.00000000000E+00 0.  1.
         23    2    1    2    0    0  0.00000000000E+00  0.00000000000E+00  0.45349865887E+03  0.46367774102E+03  0.96623050701E+02 0.  0.
          2    1    3    3  502    0  0.35806464426E+02  0.31744413318E+01  0.38164261041E+03  0.38333179108E+03  0.00000000000E+00 0. -1.
         -2    1    3    3    0  502 -0.35806464426E+02 -0.31744413318E+01  0.71856048462E+02  0.80345949948E+02  0.00000000000E+00 0.  1.
<mgrwt>
<rscale>  0 0.96623051E+02</rscale>
<asrwt>0</asrwt>
<pdfrwt beam="1">  1        1 0.70551998E-01 0.96623051E+02</pdfrwt>
<pdfrwt beam="2">  1       -1 0.78300668E-03 0.96623051E+02</pdfrwt>
<totfact> 0.11802518E+05</totfact>
</mgrwt>
</event>
<event>
 5    1  0.3845386E+001  0.9068221E+02  0.7546771E-02  0.1301208E+00
          1   -1    0    0  501    0  0.00000000000E+00  0.00000000000E+00  0.10104637080E+03  0.10104637080E+03  0.00000000000E+00 0. -1.
         -1   -1    0    0    0  501 -0.00000000000E+00 -0.00000000000E+00 -0.20345272527E+02  0.20345272527E+02  0.00000000000E+00 0.  1.
         23    2    1    2    0    0  0.00000000000E+00  0.00000000000E+00  0.80701098273E+02  0.12139164333E+03  0.90682213291E+02 0.  0.
          2    1    3    3  502    0  0.21332024310E+02 -0.29372583275E+02  0.76716789380E+02  0.84872078342E+02  0.00000000000E+00 0. -1.
         -2    1    3    3    0  502 -0.21332024310E+02  0.29372583275E+02  0.39843088939E+01  0.36519564986E+02  0.00000000000E+00 0.  1.
<mgrwt>
<rscale>  0 0.90682213E+02</rscale>
<asrwt>0</asrwt>
<pdfrwt beam="1">  1        1 0.15545595E-01 0.90682213E+02</pdfrwt>
<pdfrwt beam="2">  1       -1 0.31300420E-02 0.90682213E+02</pdfrwt>
<totfact> 0.10619438E+05</totfact>
</mgrwt>
</event>
<event>
 5    1  0.3845386E+001  0.9172123E+02  0.7546771E-02  0.1298736E+00
          2   -1    0    0  501    0  0.00000000000E+00  0.00000000000E+00  0.48780099952E+01  0.48780099952E+01  0.00000000000E+00 0. -1.
         -2   -1    0    0    0  501 -0.00000000000E+00 -0.00000000000E+00 -0.43115856540E+03  0.43115856540E+03  0.00000000000E+00 0.  1.
         23    2    1    2    0    0  0.00000000000E+00  0.00000000000E+00 -0.42628055540E+03  0.43603657539E+03  0.91721225276E+02 0.  0.
          2    1    3    3  502    0 -0.19121929047E+02 -0.71406829969E+01 -0.17907044181E+02  0.27153264177E+02  0.00000000000E+00 0. -1.
         -2    1    3    3    0  502  0.19121929047E+02  0.71406829969E+01 -0.40837351122E+03  0.40888331121E+03  0.00000000000E+00 0.  1.
<mgrwt>
<rscale>  0 0.91721225E+02</rscale>
<asrwt>0</asrwt>
<pdfrwt beam="1">  1        2 0.75046306E-03 0.91721225E+02</pdfrwt>
<pdfrwt beam="2">  1       -2 0.66332088E-01 0.91721225E+02</pdfrwt>
<totfact> 0.39910507E+04</totfact>
</mgrwt>
</event>
<event>
 5    1  0.3845386E+001  0.8884119E+02  0.7546771E-02  0.1305682E+00
          1   -1    0    0  501    0  0.00000000000E+00  0.00000000000E+00  0.14785830252E+03  0.14785830252E+03  0.00000000000E+00 0. -1.
         -1   -1    0    0    0  501 -0.00000000000E+00 -0.00000000000E+00 -0.13345135442E+02  0.13345135442E+02  0.00000000000E+00 0.  1.
         23    2    1    2    0    0  0.00000000000E+00  0.00000000000E+00  0.13451316707E+03  0.16120343796E+03  0.88841185792E+02 0.  0.
          2    1    3    3  502    0 -0.42713292548E+01 -0.27538160531E+02  0.13002388542E+03  0.13297670969E+03  0.00000000000E+00 0. -1.
         -2    1    3    3    0  502  0.42713292548E+01  0.27538160531E+02  0.44892816515E+01  0.28226728269E+02  0.00000000000E+00 0.  1.
<mgrwt>
<rscale>  0 0.88841186E+02</rscale>
<asrwt>0</asrwt>
<pdfrwt beam="1">  1        1 0.22747430E-01 0.88841186E+02</pdfrwt>
<pdfrwt beam="2">  1       -1 0.20530979E-02 0.88841186E+02</pdfrwt>
<totfact> 0.11993105E+05</totfact>
</mgrwt>
</event>
<event>
 5    1  0.3845386E+001  0.9078432E+02  0.7546771E-02  0.1300963E+00
          1   -1    0    0  501    0  0.00000000000E+00  0.00000000000E+00  0.55132536372E+01  0.55132536372E+01  0.00000000000E+00 0. -1.
         -1   -1    0    0    0  501 -0.00000000000E+00 -0.00000000000E+00 -0.37372637915E+03  0.37372637915E+03  0.00000000000E+00 0.  1.
         23    2    1    2    0    0  0.00000000000E+00  0.00000000000E+00 -0.36821312551E+03  0.37923963278E+03  0.90784322857E+02 0.  0.
          2    1    3    3  502    0 -0.39380042771E+02 -0.17960900922E+02 -0.12697172849E+03  0.13414619475E+03  0.00000000000E+00 0. -1.
         -2    1    3    3    0  502  0.39380042771E+02  0.17960900922E+02 -0.24124139702E+03  0.24509343803E+03  0.00000000000E+00 0.  1.
<mgrwt>
<rscale>  0 0.90784323E+02</rscale>
<asrwt>0</asrwt>
<pdfrwt beam="1">  1        1 0.84819288E-03 0.90784323E+02</pdfrwt>
<pdfrwt beam="2">  1       -1 0.57496365E-01 0.90784323E+02</pdfrwt>
<totfact> 0.55721136E+04</totfact>
</mgrwt>
</event>
<event>
 5    1  0.3845386E+001  0.9084407E+02  0.7546771E-02  0.1300820E+00
         -1   -1    0    0    0  501 -0.00000000000E+00  0.00000000000E+00  0.11893417680E+01  0.11893417680E+01  0.00000000000E+00 0.  1.
          1   -1    0    0  501    0  0.00000000000E+00 -0.00000000000E+00 -0.17347086088E+04  0.17347086088E+04  0.00000000000E+00 0. -1.
         23    2    1    2    0    0  0.00000000000E+00  0.00000000000E+00 -0.17335192671E+04  0.17358979506E+04  0.90844073087E+02 0.  0.
          2    1    3    3  502    0 -0.21423633149E+02 -0.13235184846E+02 -0.15891078897E+04  0.15893074050E+04  0.00000000000E+00 0. -1.
         -2    1    3    3    0  502  0.21423633149E+02  0.13235184846E+02 -0.14441137733E+03  0.14659054566E+03  0.00000000000E+00 0.  1.
<mgrwt>
<rscale>  0 0.90844073E+02</rscale>
<asrwt>0</asrwt>
<pdfrwt beam="2">  1        1 0.26687661E+00 0.90844073E+02</pdfrwt>
<pdfrwt beam="1">  1       -1 0.18297678E-03 0.90844073E+02</pdfrwt>
<totfact> 0.96974046E+04</totfact>
</mgrwt>
</event>
<event>
 5    1  0.3845386E+001  0.8899460E+02  0.7546771E-02  0.1305305E+00
         -2   -1    0    0    0  501 -0.00000000000E+00  0.00000000000E+00  0.89483409556E+02  0.89483409556E+02  0.00000000000E+00 0.  1.
          2   -1    0    0  501    0  0.00000000000E+00 -0.00000000000E+00 -0.22127113578E+02  0.22127113578E+02  0.00000000000E+00 0. -1.
         23    2    1    2    0    0  0.00000000000E+00  0.00000000000E+00  0.67356295978E+02  0.11161052313E+03  0.88994596839E+02 0.  0.
          2    1    3    3  502    0  0.30640290379E+02 -0.30054128842E+02  0.18949148341E+02  0.46916396684E+02  0.00000000000E+00 0. -1.
         -2    1    3    3    0  502 -0.30640290379E+02  0.30054128842E+02  0.48407147636E+02  0.64694126451E+02  0.00000000000E+00 0.  1.
<mgrwt>
<rscale>  0 0.88994597E+02</rscale>
<asrwt>0</asrwt>
<pdfrwt beam="2">  1        2 0.34041714E-02 0.88994597E+02</pdfrwt>
<pdfrwt beam="1">  1       -2 0.13766678E-01 0.88994597E+02</pdfrwt>
<totfact> 0.87528185E+04</totfact>
</mgrwt>
</event>
<event>
 5    1  0.3845386E+001  0.9136387E+02  0.7546771E-02  0.1299582E+00
         -1   -1    0    0    0  501 -0.00000000000E+00  0.00000000000E+00  0.31899562200E+01  0.31899562200E+01  0.00000000000E+00 0.  1.
          1   -1    0    0  501    0  0.00000000000E+00 -0.00000000000E+00 -0.65419049515E+03  0.65419049515E+03  0.00000000000E+00 0. -1.
         23    2    1    2    0    0  0.00000000000E+00  0.00000000000E+00 -0.65100053893E+03  0.65738045137E+03  0.91363866798E+02 0.  0.
          2    1    3    3  502    0 -0.41024696639E+02  0.13961718659E+02 -0.42949099461E+03  0.43167171528E+03  0.00000000000E+00 0. -1.
         -2    1    3    3    0  502  0.41024696639E+02 -0.13961718659E+02 -0.22150954432E+03  0.22570873609E+03  0.00000000000E+00 0.  1.
<mgrwt>
<rscale>  0 0.91363867E+02</rscale>
<asrwt>0</asrwt>
<pdfrwt beam="2">  1        1 0.10064473E+00 0.91363867E+02</pdfrwt>
<pdfrwt beam="1">  1       -1 0.49076232E-03 0.91363867E+02</pdfrwt>
<totfact> 0.14133619E+05</totfact>
</mgrwt>
</event>
<event>
 5    1  0.3845386E+001  0.8978851E+02  0.7546771E-02  0.1303365E+00
         -2   -1    0    0    0  501 -0.00000000000E+00  0.00000000000E+00  0.33539250471E+01  0.33539250471E+01  0.00000000000E+00 0.  1.
          2   -1    0    0  501    0  0.00000000000E+00 -0.00000000000E+00 -0.60093592605E+03  0.60093592605E+03  0.00000000000E+00 0. -1.
         23    2    1    2    0    0  0.00000000000E+00  0.00000000000E+00 -0.59758200100E+03  0.60428985110E+03  0.89788508264E+02 0.  0.
          2    1    3    3  502    0  0.34696111526E+02 -0.45257576281E+00 -0.10707404190E+03  0.11255609903E+03  0.00000000000E+00 0.  1.
         -2    1    3    3    0  502 -0.34696111526E+02  0.45257576281E+00 -0.49050795910E+03  0.49173375206E+03  0.00000000000E+00 0. -1.
<mgrwt>
<rscale>  0 0.89788508E+02</rscale>
<asrwt>0</asrwt>
<pdfrwt beam="2">  1        2 0.92451497E-01 0.89788508E+02</pdfrwt>
<pdfrwt beam="1">  1       -2 0.51598949E-03 0.89788508E+02</pdfrwt>
<totfact> 0.23736801E+05</totfact>
</mgrwt>
</event>
<event>
 5    1  0.3845386E+001  0.9247601E+02  0.7546771E-02  0.1296964E+00
          4   -1    0    0  501    0  0.00000000000E+00  0.00000000000E+00  0.13081814445E+02  0.13081814445E+02  0.00000000000E+00 0. -1.
         -4   -1    0    0    0  501 -0.00000000000E+00 -0.00000000000E+00 -0.16342938440E+03  0.16342938440E+03  0.00000000000E+00 0.  1.
         23    2    1    2    0    0  0.00000000000E+00  0.00000000000E+00 -0.15034756996E+03  0.17651119885E+03  0.92476005140E+02 0.  0.
          2    1    3    3  502    0 -0.38316577034E+02  0.17602096514E+02 -0.38960349668E+02  0.57409953175E+02  0.00000000000E+00 0. -1.
         -2    1    3    3    0  502  0.38316577034E+02 -0.17602096514E+02 -0.11138722029E+03  0.11910124567E+03  0.00000000000E+00 0.  1.
<mgrwt>
<rscale>  0 0.92476005E+02</rscale>
<asrwt>0</asrwt>
<pdfrwt beam="1">  1        4 0.20125868E-02 0.92476005E+02</pdfrwt>
<pdfrwt beam="2">  1       -4 0.25142982E-01 0.92476005E+02</pdfrwt>
<totfact> 0.21571707E+04</totfact>
</mgrwt>
</event>
<event>
 5    1  0.3845386E+001  0.9158511E+02  0.7546771E-02  0.1299058E+00
         -1   -1    0    0    0  501 -0.00000000000E+00  0.00000000000E+00  0.81422214876E+02  0.81422214876E+02  0.00000000000E+00 0.  1.
          1   -1    0    0  501    0  0.00000000000E+00 -0.00000000000E+00 -0.25754125664E+02  0.25754125664E+02  0.00000000000E+00 0. -1.
         23    2    1    2    0    0  0.00000000000E+00  0.00000000000E+00  0.55668089212E+02  0.10717634054E+03  0.91585106950E+02 0.  0.
          2    1    3    3  502    0 -0.11035778727E+02  0.27143708519E+02  0.69015581009E+02  0.74978128453E+02  0.00000000000E+00 0. -1.
         -2    1    3    3    0  502  0.11035778727E+02 -0.27143708519E+02 -0.13347491798E+02  0.32198212086E+02  0.00000000000E+00 0.  1.
<mgrwt>
<rscale>  0 0.91585107E+02</rscale>
<asrwt>0</asrwt>
<pdfrwt beam="2">  1        1 0.39621732E-02 0.91585107E+02</pdfrwt>
<pdfrwt beam="1">  1       -1 0.12526494E-01 0.91585107E+02</pdfrwt>
<totfact> 0.83436667E+04</totfact>
</mgrwt>
</event>
<event>
 5    1  0.3845386E+001  0.9637878E+02  0.7546771E-02  0.1288101E+00
         -2   -1    0    0    0  501 -0.00000000000E+00  0.00000000000E+00  0.34885477397E+01  0.34885477397E+01  0.00000000000E+00 0.  1.
          2   -1    0    0  501    0  0.00000000000E+00 -0.00000000000E+00 -0.66566879246E+03  0.66566879246E+03  0.00000000000E+00 0. -1.
         23    2    1    2    0    0  0.00000000000E+00  0.00000000000E+00 -0.66218024472E+03  0.66915734020E+03  0.96378781095E+02 0.  0.
          2    1    3    3  502    0  0.11427086982E+01 -0.29128615084E+02 -0.59750896427E+03  0.59821964560E+03  0.00000000000E+00 0. -1.
         -2    1    3    3    0  502 -0.11427086982E+01  0.29128615084E+02 -0.64671280446E+02  0.70937694595E+02  0.00000000000E+00 0.  1.
<mgrwt>
<rscale>  0 0.96378781E+02</rscale>
<asrwt>0</asrwt>
<pdfrwt beam="2">  1        2 0.10241049E+00 0.96378781E+02</pdfrwt>
<pdfrwt beam="1">  1       -2 0.53670014E-03 0.96378781E+02</pdfrwt>
<totfact> 0.20227523E+05</totfact>
</mgrwt>
</event>
<event>
 5    1  0.3845386E+001  0.9165159E+02  0.7546771E-02  0.1298901E+00
          1   -1    0    0  501    0  0.00000000000E+00  0.00000000000E+00  0.74559235764E+03  0.74559235764E+03  0.00000000000E+00 0. -1.
         -1   -1    0    0    0  501 -0.00000000000E+00 -0.00000000000E+00 -0.28165573864E+01  0.28165573864E+01  0.00000000000E+00 0.  1.
         23    2    1    2    0    0  0.00000000000E+00  0.00000000000E+00  0.74277580025E+03  0.74840891503E+03  0.91651593813E+02 0.  0.
          2    1    3    3  502    0  0.18598159124E+02  0.27059431074E+02  0.11035034843E+03  0.11513167996E+03  0.00000000000E+00 0. -1.
         -2    1    3    3    0  502 -0.18598159124E+02 -0.27059431074E+02  0.63242545183E+03  0.63327723506E+03  0.00000000000E+00 0.  1.
<mgrwt>
<rscale>  0 0.91651594E+02</rscale>
<asrwt>0</asrwt>
<pdfrwt beam="1">  1        1 0.11470636E+00 0.91651594E+02</pdfrwt>
<pdfrwt beam="2">  1       -1 0.43331711E-03 0.91651594E+02</pdfrwt>
<totfact> 0.14000771E+05</totfact>
</mgrwt>
</event>
<event>
 5    1  0.3845386E+001  0.9237915E+02  0.7546771E-02  0.1297190E+00
          1   -1    0    0  501    0  0.00000000000E+00  0.00000000000E+00  0.69458932539E+02  0.69458932539E+02  0.00000000000E+00 0. -1.
         -1   -1    0    0    0  501 -0.00000000000E+00 -0.00000000000E+00 -0.30715661463E+02  0.30715661463E+02  0.00000000000E+00 0.  1.
         23    2    1    2    0    0  0.00000000000E+00  0.00000000000E+00  0.38743271076E+02  0.10017459400E+03  0.92379154736E+02 0.  0.
          2    1    3    3  502    0  0.13117963461E+02 -0.41184855565E+02  0.37030934084E+02  0.56917162372E+02  0.00000000000E+00 0. -1.
         -2    1    3    3    0  502 -0.13117963461E+02  0.41184855565E+02  0.17123369915E+01  0.43257431630E+02  0.00000000000E+00 0.  1.
<mgrwt>
<rscale>  0 0.92379155E+02</rscale>
<asrwt>0</asrwt>
<pdfrwt beam="1">  1        1 0.10685990E-01 0.92379155E+02</pdfrwt>
<pdfrwt beam="2">  1       -1 0.47254864E-02 0.92379155E+02</pdfrwt>
<totfact> 0.95044468E+04</totfact>
</mgrwt>
</event>
<event>
 5    1  0.3845386E+001  0.9157826E+02  0.7546771E-02  0.1299074E+00
          2   -1    0    0  501    0  0.00000000000E+00  0.00000000000E+00  0.50221152318E+02  0.50221152318E+02  0.00000000000E+00 0. -1.
         -2   -1    0    0    0  501 -0.00000000000E+00 -0.00000000000E+00 -0.41748236899E+02  0.41748236899E+02  0.00000000000E+00 0.  1.
         23    2    1    2    0    0  0.00000000000E+00  0.00000000000E+00  0.84729154194E+01  0.91969389217E+02  0.91578263017E+02 0.  0.
          2    1    3    3  502    0 -0.17376754808E+02 -0.23865316163E+02  0.39387944302E+02  0.49223115297E+02  0.00000000000E+00 0. -1.
         -2    1    3    3    0  502  0.17376754808E+02  0.23865316163E+02 -0.30915028883E+02  0.42746273920E+02  0.00000000000E+00 0.  1.
<mgrwt>
<rscale>  0 0.91578263E+02</rscale>
<asrwt>0</asrwt>
<pdfrwt beam="1">  1        2 0.77263311E-02 0.91578263E+02</pdfrwt>
<pdfrwt beam="2">  1       -2 0.64228057E-02 0.91578263E+02</pdfrwt>
<totfact> 0.99932395E+04</totfact>
</mgrwt>
</event>
<event>
 5    1  0.3845386E+001  0.8782791E+02  0.7546771E-02  0.1308199E+00
         -2   -1    0    0    0  501 -0.00000000000E+00  0.00000000000E+00  0.13739931648E+01  0.13739931648E+01  0.00000000000E+00 0.  1.
          2   -1    0    0  501    0  0.00000000000E+00 -0.00000000000E+00 -0.14035262354E+04  0.14035262354E+04  0.00000000000E+00 0. -1.
         23    2    1    2    0    0  0.00000000000E+00  0.00000000000E+00 -0.14021522422E+04  0.14049002285E+04  0.87827910233E+02 0.  0.
          2    1    3    3  502    0  0.22594121048E+02 -0.30777009134E+02 -0.10481267289E+04  0.10488218908E+04  0.00000000000E+00 0. -1.
         -2    1    3    3    0  502 -0.22594121048E+02  0.30777009134E+02 -0.35402551327E+03  0.35607833779E+03  0.00000000000E+00 0.  1.
<mgrwt>
<rscale>  0 0.87827910E+02</rscale>
<asrwt>0</asrwt>
<pdfrwt beam="2">  1        2 0.21592661E+00 0.87827910E+02</pdfrwt>
<pdfrwt beam="1">  1       -2 0.21138405E-03 0.87827910E+02</pdfrwt>
<totfact> 0.26617409E+05</totfact>
</mgrwt>
</event>
<event>
 5    1  0.3845386E+001  0.9051784E+02  0.7546771E-02  0.1301603E+00
          3   -1    0    0  501    0  0.00000000000E+00  0.00000000000E+00  0.29905991410E+02  0.29905991410E+02  0.00000000000E+00 0. -1.
         -3   -1    0    0    0  501 -0.00000000000E+00 -0.00000000000E+00 -0.68493625439E+02  0.68493625439E+02  0.00000000000E+00 0.  1.
         23    2    1    2    0    0  0.00000000000E+00  0.00000000000E+00 -0.38587634029E+02  0.98399616848E+02  0.90517838551E+02 0.  0.
          2    1    3    3  502    0 -0.18615351177E+02  0.24645976964E+02  0.16668702510E+02  0.35097024423E+02  0.00000000000E+00 0. -1.
         -2    1    3    3    0  502  0.18615351177E+02 -0.24645976964E+02 -0.55256336540E+02  0.63302592425E+02  0.00000000000E+00 0.  1.
<mgrwt>
<rscale>  0 0.90517839E+02</rscale>
<asrwt>0</asrwt>
<pdfrwt beam="1">  1        3 0.46009218E-02 0.90517839E+02</pdfrwt>
<pdfrwt beam="2">  1       -3 0.10537481E-01 0.90517839E+02</pdfrwt>
<totfact> 0.35484248E+04</totfact>
</mgrwt>
</event>
<event>
 5    1  0.3845386E+001  0.9220181E+02  0.7546771E-02  0.1297606E+00
         -2   -1    0    0    0  501 -0.00000000000E+00  0.00000000000E+00  0.90965959133E+01  0.90965959133E+01  0.00000000000E+00 0. -1.
          2   -1    0    0  501    0  0.00000000000E+00 -0.00000000000E+00 -0.23363612190E+03  0.23363612190E+03  0.00000000000E+00 0.  1.
         23    2    1    2    0    0  0.00000000000E+00  0.00000000000E+00 -0.22453952598E+03  0.24273271781E+03  0.92201808912E+02 0.  0.
          2    1    3    3  502    0 -0.29149461798E+02  0.33679172341E+02 -0.80974114191E+02  0.92416367283E+02  0.00000000000E+00 0. -1.
         -2    1    3    3    0  502  0.29149461798E+02 -0.33679172341E+02 -0.14356541179E+03  0.15031635053E+03  0.00000000000E+00 0.  1.
<mgrwt>
<rscale>  0 0.92201809E+02</rscale>
<asrwt>0</asrwt>
<pdfrwt beam="2">  1        2 0.35944016E-01 0.92201809E+02</pdfrwt>
<pdfrwt beam="1">  1       -2 0.13994764E-02 0.92201809E+02</pdfrwt>
<totfact> 0.15887429E+05</totfact>
</mgrwt>
</event>
<event>
 5    1  0.3845386E+001  0.9293793E+02  0.7546771E-02  0.1295889E+00
         -1   -1    0    0    0  501 -0.00000000000E+00  0.00000000000E+00  0.78043778365E+01  0.78043778365E+01  0.00000000000E+00 0.  1.
          1   -1    0    0  501    0  0.00000000000E+00 -0.00000000000E+00 -0.27668635041E+03  0.27668635041E+03  0.00000000000E+00 0. -1.
         23    2    1    2    0    0  0.00000000000E+00  0.00000000000E+00 -0.26888197258E+03  0.28449072825E+03  0.92937932424E+02 0.  0.
          2    1    3    3  502    0 -0.38803032106E+02  0.24619047829E+02 -0.11332350551E+03  0.12228650669E+03  0.00000000000E+00 0. -1.
         -2    1    3    3    0  502  0.38803032106E+02 -0.24619047829E+02 -0.15555846706E+03  0.16220422156E+03  0.00000000000E+00 0.  1.
<mgrwt>
<rscale>  0 0.92937932E+02</rscale>
<asrwt>0</asrwt>
<pdfrwt beam="2">  1        1 0.42567133E-01 0.92937932E+02</pdfrwt>
<pdfrwt beam="1">  1       -1 0.12006734E-02 0.92937932E+02</pdfrwt>
<totfact> 0.11985567E+05</totfact>
</mgrwt>
</event>
<event>
 5    1  0.3845386E+001  0.9080887E+02  0.7546771E-02  0.1300905E+00
          2   -1    0    0  501    0  0.00000000000E+00  0.00000000000E+00  0.23292182758E+04  0.23292182758E+04  0.00000000000E+00 0. -1.
         -2   -1    0    0    0  501 -0.00000000000E+00 -0.00000000000E+00 -0.88508774632E+00  0.88508774632E+00  0.00000000000E+00 0.  1.
         23    2    1    2    0    0  0.00000000000E+00  0.00000000000E+00  0.23283331880E+04  0.23301033635E+04  0.90808866404E+02 0.  0.
          2    1    3    3  502    0 -0.35398149046E+02 -0.25085716040E+02  0.15076968116E+04  0.15083209200E+04  0.00000000000E+00 0.  1.
         -2    1    3    3    0  502  0.35398149046E+02  0.25085716040E+02  0.82063637646E+03  0.82178244351E+03  0.00000000000E+00 0. -1.
<mgrwt>
<rscale>  0 0.90808866E+02</rscale>
<asrwt>0</asrwt>
<pdfrwt beam="1">  1        2 0.35833637E+00 0.90808866E+02</pdfrwt>
<pdfrwt beam="2">  1       -2 0.13616921E-03 0.90808866E+02</pdfrwt>
<totfact> 0.16707032E+05</totfact>
</mgrwt>
</event>
<event>
 5    1  0.3845386E+001  0.9114808E+02  0.7546771E-02  0.1300095E+00
          2   -1    0    0  501    0  0.00000000000E+00  0.00000000000E+00  0.91098779174E+03  0.91098779174E+03  0.00000000000E+00 0. -1.
         -2   -1    0    0    0  501 -0.00000000000E+00 -0.00000000000E+00 -0.22799351881E+01  0.22799351881E+01  0.00000000000E+00 0.  1.
         23    2    1    2    0    0  0.00000000000E+00  0.00000000000E+00  0.90870785655E+03  0.91326772693E+03  0.91148080008E+02 0.  0.
          2    1    3    3  502    0  0.19533207202E+02 -0.53780928473E+01  0.86338495201E+03  0.86362262906E+03  0.00000000000E+00 0. -1.
         -2    1    3    3    0  502 -0.19533207202E+02  0.53780928473E+01  0.45322904543E+02  0.49645097870E+02  0.00000000000E+00 0.  1.
<mgrwt>
<rscale>  0 0.91148080E+02</rscale>
<asrwt>0</asrwt>
<pdfrwt beam="1">  1        2 0.14015168E+00 0.91148080E+02</pdfrwt>
<pdfrwt beam="2">  1       -2 0.35075999E-03 0.91148080E+02</pdfrwt>
<totfact> 0.24847538E+05</totfact>
</mgrwt>
</event>
<event>
 5    1  0.3845386E+001  0.8061440E+02  0.7546771E-02  0.1327317E+00
          1   -1    0    0  501    0  0.00000000000E+00  0.00000000000E+00  0.72270166853E+03  0.72270166853E+03  0.00000000000E+00 0. -1.
         -1   -1    0    0    0  501 -0.00000000000E+00 -0.00000000000E+00 -0.22480514641E+01  0.22480514641E+01  0.00000000000E+00 0.  1.
         23    2    1    2    0    0  0.00000000000E+00  0.00000000000E+00  0.72045361706E+03  0.72494971999E+03  0.80614404272E+02 0.  0.
          2    1    3    3  502    0  0.32644379137E+02  0.15662313205E+02  0.51950537642E+03  0.52076558994E+03  0.00000000000E+00 0. -1.
         -2    1    3    3    0  502 -0.32644379137E+02 -0.15662313205E+02  0.20094824064E+03  0.20418413004E+03  0.00000000000E+00 0.  1.
<mgrwt>
<rscale>  0 0.80614404E+02</rscale>
<asrwt>0</asrwt>
<pdfrwt beam="1">  1        1 0.11118469E+00 0.80614404E+02</pdfrwt>
<pdfrwt beam="2">  1       -1 0.34585465E-03 0.80614404E+02</pdfrwt>
<totfact> 0.19639694E+05</totfact>
</mgrwt>
</event>
<event>
 5    1  0.3845386E+001  0.9375458E+02  0.7546771E-02  0.1294006E+00
          1   -1    0    0  501    0  0.00000000000E+00  0.00000000000E+00  0.13576295182E+04  0.13576295182E+04  0.00000000000E+00 0. -1.
         -1   -1    0    0    0  501 -0.00000000000E+00 -0.00000000000E+00 -0.16186157219E+01  0.16186157219E+01  0.00000000000E+00 0.  1.
         23    2    1    2    0    0  0.00000000000E+00  0.00000000000E+00  0.13560109025E+04  0.13592481339E+04  0.93754583520E+02 0.  0.
          2    1    3    3  502    0 -0.12032279409E+02  0.16015477197E+02  0.12924528328E+04  0.12926080598E+04  0.00000000000E+00 0. -1.
         -2    1    3    3    0  502  0.12032279409E+02 -0.16015477197E+02  0.63558069745E+02  0.66640074185E+02  0.00000000000E+00 0.  1.
<mgrwt>
<rscale>  0 0.93754584E+02</rscale>
<asrwt>0</asrwt>
<pdfrwt beam="1">  1        1 0.20886517E+00 0.93754584E+02</pdfrwt>
<pdfrwt beam="2">  1       -1 0.24901889E-03 0.93754584E+02</pdfrwt>
<totfact> 0.11040028E+05</totfact>
</mgrwt>
</event>
<event>
 5    1  0.3845386E+001  0.9260649E+02  0.7546771E-02  0.1296660E+00
          4   -1    0    0  501    0  0.00000000000E+00  0.00000000000E+00  0.57492174663E+02  0.57492174663E+02  0.00000000000E+00 0. -1.
         -4   -1    0    0    0  501 -0.00000000000E+00 -0.00000000000E+00 -0.37291868884E+02  0.37291868884E+02  0.00000000000E+00 0.  1.
         23    2    1    2    0    0  0.00000000000E+00  0.00000000000E+00  0.20200305778E+02  0.94784043547E+02  0.92606493064E+02 0.  0.
          2    1    3    3  502    0 -0.34392969147E+02 -0.16685137125E+02  0.36843469718E+02  0.53091537823E+02  0.00000000000E+00 0. -1.
         -2    1    3    3    0  502  0.34392969147E+02  0.16685137125E+02 -0.16643163940E+02  0.41692505724E+02  0.00000000000E+00 0.  1.
<mgrwt>
<rscale>  0 0.92606493E+02</rscale>
<asrwt>0</asrwt>
<pdfrwt beam="1">  1        4 0.88449500E-02 0.92606493E+02</pdfrwt>
<pdfrwt beam="2">  1       -4 0.57372105E-02 0.92606493E+02</pdfrwt>
<totfact> 0.25675684E+04</totfact>
</mgrwt>
</event>
<event>
 5    1  0.3845386E+001  0.8896327E+02  0.7546771E-02  0.1305382E+00
         -2   -1    0    0    0  501 -0.00000000000E+00  0.00000000000E+00  0.29840786525E+01  0.29840786525E+01  0.00000000000E+00 0. -1.
          2   -1    0    0  501    0  0.00000000000E+00 -0.00000000000E+00 -0.66305748891E+03  0.66305748891E+03  0.00000000000E+00 0.  1.
         23    2    1    2    0    0  0.00000000000E+00  0.00000000000E+00 -0.66007341026E+03  0.66604156756E+03  0.88963266532E+02 0.  0.
          2    1    3    3  502    0 -0.36518618399E+02  0.31858824647E+01 -0.14139906654E+03  0.14607345877E+03  0.00000000000E+00 0. -1.
         -2    1    3    3    0  502  0.36518618399E+02 -0.31858824647E+01 -0.51867434372E+03  0.51996810880E+03  0.00000000000E+00 0.  1.
<mgrwt>
<rscale>  0 0.88963267E+02</rscale>
<asrwt>0</asrwt>
<pdfrwt beam="2">  1        2 0.10200891E+00 0.88963267E+02</pdfrwt>
<pdfrwt beam="1">  1       -2 0.45908875E-03 0.88963267E+02</pdfrwt>
<totfact> 0.24970041E+05</totfact>
</mgrwt>
</event>
<event>
 5    1  0.3845386E+001  0.9229393E+02  0.7546771E-02  0.1297390E+00
         -2   -1    0    0    0  501 -0.00000000000E+00  0.00000000000E+00  0.31226864428E+02  0.31226864428E+02  0.00000000000E+00 0.  1.
          2   -1    0    0  501    0  0.00000000000E+00 -0.00000000000E+00 -0.68195841692E+02  0.68195841692E+02  0.00000000000E+00 0. -1.
         23    2    1    2    0    0  0.00000000000E+00  0.00000000000E+00 -0.36968977264E+02  0.99422706121E+02  0.92293928361E+02 0.  0.
          2    1    3    3  502    0 -0.59270751131E+01  0.45738540518E+02 -0.20152644320E+02  0.50331634001E+02  0.00000000000E+00 0. -1.
         -2    1    3    3    0  502  0.59270751131E+01 -0.45738540518E+02 -0.16816332944E+02  0.49091072119E+02  0.00000000000E+00 0.  1.
<mgrwt>
<rscale>  0 0.92293928E+02</rscale>
<asrwt>0</asrwt>
<pdfrwt beam="2">  1        2 0.10491668E-01 0.92293928E+02</pdfrwt>
<pdfrwt beam="1">  1       -2 0.48041330E-02 0.92293928E+02</pdfrwt>
<totfact> 0.10613400E+05</totfact>
</mgrwt>
</event>
<event>
 5    1  0.3845386E+001  0.9104241E+02  0.7546771E-02  0.1300347E+00
         -3   -1    0    0    0  501 -0.00000000000E+00  0.00000000000E+00  0.75859338404E+02  0.75859338404E+02  0.00000000000E+00 0.  1.
          3   -1    0    0  501    0  0.00000000000E+00 -0.00000000000E+00 -0.27316084663E+02  0.27316084663E+02  0.00000000000E+00 0. -1.
         23    2    1    2    0    0  0.00000000000E+00  0.00000000000E+00  0.48543253741E+02  0.10317542307E+03  0.91042410125E+02 0.  0.
          2    1    3    3  502    0  0.12387568070E+02  0.38954039588E+02  0.46974095318E+02  0.62269050690E+02  0.00000000000E+00 0. -1.
         -2    1    3    3    0  502 -0.12387568070E+02 -0.38954039588E+02  0.15691584222E+01  0.40906372377E+02  0.00000000000E+00 0.  1.
<mgrwt>
<rscale>  0 0.91042410E+02</rscale>
<asrwt>0</asrwt>
<pdfrwt beam="2">  1        3 0.42024746E-02 0.91042410E+02</pdfrwt>
<pdfrwt beam="1">  1       -3 0.11670667E-01 0.91042410E+02</pdfrwt>
<totfact> 0.34577649E+04</totfact>
</mgrwt>
</event>
<event>
 5    1  0.3845386E+001  0.9076031E+02  0.7546771E-02  0.1301021E+00
         -2   -1    0    0    0  501 -0.00000000000E+00  0.00000000000E+00  0.27292127251E+03  0.27292127251E+03  0.00000000000E+00 0.  1.
          2   -1    0    0  501    0  0.00000000000E+00 -0.00000000000E+00 -0.75456141814E+01  0.75456141814E+01  0.00000000000E+00 0. -1.
         23    2    1    2    0    0  0.00000000000E+00  0.00000000000E+00  0.26537565833E+03  0.28046688669E+03  0.90760313447E+02 0.  0.
          2    1    3    3  502    0  0.27665998848E+02  0.35626963502E+02  0.14803666688E+03  0.15475639813E+03  0.00000000000E+00 0.  1.
         -2    1    3    3    0  502 -0.27665998848E+02 -0.35626963502E+02  0.11733899145E+03  0.12571048856E+03  0.00000000000E+00 0. -1.
<mgrwt>
<rscale>  0 0.90760313E+02</rscale>
<asrwt>0</asrwt>
<pdfrwt beam="2">  1        2 0.11608639E-02 0.90760313E+02</pdfrwt>
<pdfrwt beam="1">  1       -2 0.41987881E-01 0.90760313E+02</pdfrwt>
<totfact> 0.54337004E+04</totfact>
</mgrwt>
</event>
<event>
 5    1  0.3845386E+001  0.9111110E+02  0.7546771E-02  0.1300183E+00
         -1   -1    0    0    0  501 -0.00000000000E+00  0.00000000000E+00  0.69586557208E+01  0.69586557208E+01  0.00000000000E+00 0.  1.
          1   -1    0    0  501    0  0.00000000000E+00 -0.00000000000E+00 -0.29823403212E+03  0.29823403212E+03  0.00000000000E+00 0. -1.
         23    2    1    2    0    0  0.00000000000E+00  0.00000000000E+00 -0.29127537640E+03  0.30519268784E+03  0.91111096003E+02 0.  0.
          2    1    3    3  502    0 -0.14745309568E+02  0.23038198801E+02 -0.26766549346E+03  0.26905947140E+03  0.00000000000E+00 0. -1.
         -2    1    3    3    0  502  0.14745309568E+02 -0.23038198801E+02 -0.23609882936E+02  0.36133216443E+02  0.00000000000E+00 0.  1.
<mgrwt>
<rscale>  0 0.91111096E+02</rscale>
<asrwt>0</asrwt>
<pdfrwt beam="2">  1        1 0.45882150E-01 0.91111096E+02</pdfrwt>
<pdfrwt beam="1">  1       -1 0.10705626E-02 0.91111096E+02</pdfrwt>
<totfact> 0.12822403E+05</totfact>
</mgrwt>
</event>
<event>
 5    1  0.3845386E+001  0.9114165E+02  0.7546771E-02  0.1300110E+00
          3   -1    0    0  501    0  0.00000000000E+00  0.00000000000E+00  0.27292329663E+02  0.27292329663E+02  0.00000000000E+00 0. -1.
         -3   -1    0    0    0  501 -0.00000000000E+00 -0.00000000000E+00 -0.76090978364E+02  0.76090978364E+02  0.00000000000E+00 0.  1.
         23    2    1    2    0    0  0.00000000000E+00  0.00000000000E+00 -0.48798648701E+02  0.10338330803E+03  0.91141649445E+02 0.  0.
          2    1    3    3  502    0  0.44908993345E+02 -0.72457167163E+01 -0.21317415891E+02  0.50236941729E+02  0.00000000000E+00 0. -1.
         -2    1    3    3    0  502 -0.44908993345E+02  0.72457167163E+01 -0.27481232810E+02  0.53146366298E+02  0.00000000000E+00 0.  1.
<mgrwt>
<rscale>  0 0.91141649E+02</rscale>
<asrwt>0</asrwt>
<pdfrwt beam="1">  1        3 0.41988200E-02 0.91141649E+02</pdfrwt>
<pdfrwt beam="2">  1       -3 0.11706304E-01 0.91141649E+02</pdfrwt>
<totfact> 0.34459928E+04</totfact>
</mgrwt>
</event>
<event>
 5    1  0.3845386E+001  0.9080912E+02  0.7546771E-02  0.1300904E+00
         -2   -1    0    0    0  501 -0.00000000000E+00  0.00000000000E+00  0.10709442339E+01  0.10709442339E+01  0.00000000000E+00 0.  1.
          2   -1    0    0  501    0  0.00000000000E+00 -0.00000000000E+00 -0.19250060564E+04  0.19250060564E+04  0.00000000000E+00 0. -1.
         23    2    1    2    0    0  0.00000000000E+00  0.00000000000E+00 -0.19239351122E+04  0.19260770007E+04  0.90809121489E+02 0.  0.
          2    1    3    3  502    0  0.41521150417E+02 -0.14824212568E+02 -0.11921843260E+04  0.11929992583E+04  0.00000000000E+00 0. -1.
         -2    1    3    3    0  502 -0.41521150417E+02  0.14824212568E+02 -0.73175078618E+03  0.73307774232E+03  0.00000000000E+00 0.  1.
<mgrwt>
<rscale>  0 0.90809121E+02</rscale>
<asrwt>0</asrwt>
<pdfrwt beam="2">  1        2 0.29615198E+00 0.90809121E+02</pdfrwt>
<pdfrwt beam="1">  1       -2 0.16476221E-03 0.90809121E+02</pdfrwt>
<totfact> 0.20577321E+05</totfact>
</mgrwt>
</event>
<event>
 5    1  0.3845386E+001  0.9060661E+02  0.7546771E-02  0.1301389E+00
          2   -1    0    0  501    0  0.00000000000E+00  0.00000000000E+00  0.67287431769E+03  0.67287431769E+03  0.00000000000E+00 0. -1.
         -2   -1    0    0    0  501 -0.00000000000E+00 -0.00000000000E+00 -0.30501827084E+01  0.30501827084E+01  0.00000000000E+00 0.  1.
         23    2    1    2    0    0  0.00000000000E+00  0.00000000000E+00  0.66982413498E+03  0.67592450040E+03  0.90606613639E+02 0.  0.
          2    1    3    3  502    0 -0.63808306243E+01  0.44715244849E+02  0.30883250379E+03  0.31211806023E+03  0.00000000000E+00 0. -1.
         -2    1    3    3    0  502  0.63808306243E+01 -0.44715244849E+02  0.36099163119E+03  0.36380644017E+03  0.00000000000E+00 0.  1.
<mgrwt>
<rscale>  0 0.90606614E+02</rscale>
<asrwt>0</asrwt>
<pdfrwt beam="1">  1        2 0.10351901E+00 0.90606614E+02</pdfrwt>
<pdfrwt beam="2">  1       -2 0.46925941E-03 0.90606614E+02</pdfrwt>
<totfact> 0.23882185E+05</totfact>
</mgrwt>
</event>
<event>
 5    1  0.3845386E+001  0.9092110E+02  0.7546771E-02  0.1300636E+00
         -2   -1    0    0    0  501 -0.00000000000E+00  0.00000000000E+00  0.25737398627E+01  0.25737398627E+01  0.00000000000E+00 0.  1.
          2   -1    0    0  501    0  0.00000000000E+00 -0.00000000000E+00 -0.80297992669E+03  0.80297992669E+03  0.00000000000E+00 0. -1.
         23    2    1    2    0    0  0.00000000000E+00  0.00000000000E+00 -0.80040618683E+03  0.80555366656E+03  0.90921096479E+02 0.  0.
          2    1    3    3  502    0 -0.57325101678E+01  0.45024479366E+02 -0.42295779621E+03  0.42538613375E+03  0.00000000000E+00 0. -1.
         -2    1    3    3    0  502  0.57325101678E+01 -0.45024479366E+02 -0.37744839062E+03  0.38016753280E+03  0.00000000000E+00 0.  1.
<mgrwt>
<rscale>  0 0.90921096E+02</rscale>
<asrwt>0</asrwt>
<pdfrwt beam="2">  1        2 0.12353538E+00 0.90921096E+02</pdfrwt>
<pdfrwt beam="1">  1       -2 0.39595994E-03 0.90921096E+02</pdfrwt>
<totfact> 0.24570979E+05</totfact>
</mgrwt>
</event>
<event>
 5    1  0.3845386E+001  0.9150498E+02  0.7546771E-02  0.1299248E+00
         -2   -1    0    0    0  501 -0.00000000000E+00  0.00000000000E+00  0.71082276656E+02  0.71082276656E+02  0.00000000000E+00 0. -1.
          2   -1    0    0  501    0  0.00000000000E+00 -0.00000000000E+00 -0.29448839026E+02  0.29448839026E+02  0.00000000000E+00 0.  1.
         23    2    1    2    0    0  0.00000000000E+00  0.00000000000E+00  0.41633437629E+02  0.10053111568E+03  0.91504983971E+02 0.  0.
          2    1    3    3  502    0  0.62613214303E+01  0.44060265376E+02  0.32484025857E+02  0.55097396190E+02  0.00000000000E+00 0. -1.
         -2    1    3    3    0  502 -0.62613214303E+01 -0.44060265376E+02  0.91494117725E+01  0.45433719492E+02  0.00000000000E+00 0.  1.
<mgrwt>
<rscale>  0 0.91504984E+02</rscale>
<asrwt>0</asrwt>
<pdfrwt beam="2">  1        2 0.45305906E-02 0.91504984E+02</pdfrwt>
<pdfrwt beam="1">  1       -2 0.10935735E-01 0.91504984E+02</pdfrwt>
<totfact> 0.87091889E+04</totfact>
</mgrwt>
</event>
<event>
 5    1  0.3845386E+001  0.8837162E+02  0.7546771E-02  0.1306844E+00
         -2   -1    0    0    0  501 -0.00000000000E+00  0.00000000000E+00  0.58244326798E+02  0.58244326798E+02  0.00000000000E+00 0.  1.
          2   -1    0    0  501    0  0.00000000000E+00 -0.00000000000E+00 -0.33520617793E+02  0.33520617793E+02  0.00000000000E+00 0. -1.
         23    2    1    2    0    0  0.00000000000E+00  0.00000000000E+00  0.24723709005E+02  0.91764944591E+02  0.88371620268E+02 0.  0.
          2    1    3    3  502    0 -0.56735982620E-01  0.41435643304E+02 -0.35724032561E+01  0.41589395524E+02  0.00000000000E+00 0. -1.
         -2    1    3    3    0  502  0.56735982620E-01 -0.41435643304E+02  0.28296112261E+02  0.50175549067E+02  0.00000000000E+00 0.  1.
<mgrwt>
<rscale>  0 0.88371620E+02</rscale>
<asrwt>0</asrwt>
<pdfrwt beam="2">  1        2 0.51570182E-02 0.88371620E+02</pdfrwt>
<pdfrwt beam="1">  1       -2 0.89606656E-02 0.88371620E+02</pdfrwt>
<totfact> 0.99823403E+04</totfact>
</mgrwt>
</event>
<event>
 5    1  0.3845386E+001  0.9048996E+02  0.7546771E-02  0.1301669E+00
         -2   -1    0    0    0  501 -0.00000000000E+00  0.00000000000E+00  0.11427673001E+02  0.11427673001E+02  0.00000000000E+00 0.  1.
          2   -1    0    0  501    0  0.00000000000E+00 -0.00000000000E+00 -0.17913607030E+03  0.17913607030E+03  0.00000000000E+00 0. -1.
         23    2    1    2    0    0  0.00000000000E+00  0.00000000000E+00 -0.16770839730E+03  0.19056374330E+03  0.90489964837E+02 0.  0.
          2    1    3    3  502    0 -0.83797526840E+01  0.43419551591E+02 -0.10401280026E+03  0.11302274255E+03  0.00000000000E+00 0. -1.
         -2    1    3    3    0  502  0.83797526840E+01 -0.43419551591E+02 -0.63695597038E+02  0.77541000750E+02  0.00000000000E+00 0.  1.
<mgrwt>
<rscale>  0 0.90489965E+02</rscale>
<asrwt>0</asrwt>
<pdfrwt beam="2">  1        2 0.27559395E-01 0.90489965E+02</pdfrwt>
<pdfrwt beam="1">  1       -2 0.17581036E-02 0.90489965E+02</pdfrwt>
<totfact> 0.15175665E+05</totfact>
</mgrwt>
</event>
<event>
 5    1  0.3845386E+001  0.8789915E+02  0.7546771E-02  0.1308020E+00
          1   -1    0    0  501    0  0.00000000000E+00  0.00000000000E+00  0.42273257180E+01  0.42273257180E+01  0.00000000000E+00 0. -1.
         -1   -1    0    0    0  501 -0.00000000000E+00 -0.00000000000E+00 -0.45692368202E+03  0.45692368202E+03  0.00000000000E+00 0.  1.
         23    2    1    2    0    0  0.00000000000E+00  0.00000000000E+00 -0.45269635631E+03  0.46115100774E+03  0.87899152037E+02 0.  0.
          2    1    3    3  502    0 -0.10672139744E+02 -0.35379401651E+02 -0.10153666546E+03  0.10805226078E+03  0.00000000000E+00 0. -1.
         -2    1    3    3    0  502  0.10672139744E+02  0.35379401651E+02 -0.35115969085E+03  0.35309874696E+03  0.00000000000E+00 0.  1.
<mgrwt>
<rscale>  0 0.87899152E+02</rscale>
<asrwt>0</asrwt>
<pdfrwt beam="1">  1        1 0.65035772E-03 0.87899152E+02</pdfrwt>
<pdfrwt beam="2">  1       -1 0.70295960E-01 0.87899152E+02</pdfrwt>
<totfact> 0.54610899E+04</totfact>
</mgrwt>
</event>
<event>
 5    1  0.3845386E+001  0.9471759E+02  0.7546771E-02  0.1291813E+00
         -2   -1    0    0    0  501 -0.00000000000E+00  0.00000000000E+00  0.17717757085E+01  0.17717757085E+01  0.00000000000E+00 0.  1.
          2   -1    0    0  501    0  0.00000000000E+00 -0.00000000000E+00 -0.12658800368E+04  0.12658800368E+04  0.00000000000E+00 0. -1.
         23    2    1    2    0    0  0.00000000000E+00  0.00000000000E+00 -0.12641082611E+04  0.12676518125E+04  0.94717590746E+02 0.  0.
          2    1    3    3  502    0  0.47070898289E+02 -0.48284977208E+01 -0.65838814105E+03  0.66008630354E+03  0.00000000000E+00 0. -1.
         -2    1    3    3    0  502 -0.47070898289E+02  0.48284977208E+01 -0.60572012008E+03  0.60756550900E+03  0.00000000000E+00 0.  1.
<mgrwt>
<rscale>  0 0.94717591E+02</rscale>
<asrwt>0</asrwt>
<pdfrwt beam="2">  1        2 0.19475099E+00 0.94717591E+02</pdfrwt>
<pdfrwt beam="1">  1       -2 0.27258058E-03 0.94717591E+02</pdfrwt>
<totfact> 0.22326736E+05</totfact>
</mgrwt>
</event>
<event>
 5    1  0.3845386E+001  0.8293245E+02  0.7546771E-02  0.1320930E+00
         -4   -1    0    0    0  501 -0.00000000000E+00  0.00000000000E+00  0.64032232092E+01  0.64032232092E+01  0.00000000000E+00 0.  1.
          4   -1    0    0  501    0  0.00000000000E+00 -0.00000000000E+00 -0.26852848063E+03  0.26852848063E+03  0.00000000000E+00 0. -1.
         23    2    1    2    0    0  0.00000000000E+00  0.00000000000E+00 -0.26212525742E+03  0.27493170384E+03  0.82932449608E+02 0.  0.
          2    1    3    3  502    0  0.26588462035E+02  0.20726825940E+02 -0.21110084878E+03  0.21377585453E+03  0.00000000000E+00 0. -1.
         -2    1    3    3    0  502 -0.26588462035E+02 -0.20726825940E+02 -0.51024408643E+02  0.61155849305E+02  0.00000000000E+00 0.  1.
<mgrwt>
<rscale>  0 0.82932450E+02</rscale>
<asrwt>0</asrwt>
<pdfrwt beam="2">  1        4 0.41312071E-01 0.82932450E+02</pdfrwt>
<pdfrwt beam="1">  1       -4 0.98511132E-03 0.82932450E+02</pdfrwt>
<totfact> 0.23908611E+04</totfact>
</mgrwt>
</event>
<event>
 5    1  0.3845386E+001  0.9180080E+02  0.7546771E-02  0.1298548E+00
          2   -1    0    0  501    0  0.00000000000E+00  0.00000000000E+00  0.40327337080E+03  0.40327337080E+03  0.00000000000E+00 0. -1.
         -2   -1    0    0    0  501 -0.00000000000E+00 -0.00000000000E+00 -0.52243636142E+01  0.52243636142E+01  0.00000000000E+00 0.  1.
         23    2    1    2    0    0  0.00000000000E+00  0.00000000000E+00  0.39804900719E+03  0.40849773442E+03  0.91800800106E+02 0.  0.
          2    1    3    3  502    0  0.26894162827E+02 -0.33678640231E+02  0.26928387469E+03  0.27271111450E+03  0.00000000000E+00 0. -1.
         -2    1    3    3    0  502 -0.26894162827E+02  0.33678640231E+02  0.12876513250E+03  0.13578661992E+03  0.00000000000E+00 0.  1.
<mgrwt>
<rscale>  0 0.91800800E+02</rscale>
<asrwt>0</asrwt>
<pdfrwt beam="1">  1        2 0.62042033E-01 0.91800800E+02</pdfrwt>
<pdfrwt beam="2">  1       -2 0.80374857E-03 0.91800800E+02</pdfrwt>
<totfact> 0.19661153E+05</totfact>
</mgrwt>
</event>
<event>
 5    1  0.3845386E+001  0.8523247E+02  0.7546771E-02  0.1314826E+00
          3   -1    0    0  501    0  0.00000000000E+00  0.00000000000E+00  0.45683423070E+02  0.45683423070E+02  0.00000000000E+00 0. -1.
         -3   -1    0    0    0  501 -0.00000000000E+00 -0.00000000000E+00 -0.39754974266E+02  0.39754974266E+02  0.00000000000E+00 0.  1.
         23    2    1    2    0    0  0.00000000000E+00  0.00000000000E+00  0.59284488041E+01  0.85438397336E+02  0.85232465846E+02 0.  0.
          2    1    3    3  502    0  0.26832477863E+02 -0.15680581837E+02  0.32194251951E+02  0.44747428683E+02  0.00000000000E+00 0. -1.
         -2    1    3    3    0  502 -0.26832477863E+02  0.15680581837E+02 -0.26265803147E+02  0.40690968654E+02  0.00000000000E+00 0.  1.
<mgrwt>
<rscale>  0 0.85232466E+02</rscale>
<asrwt>0</asrwt>
<pdfrwt beam="1">  1        3 0.70282190E-02 0.85232466E+02</pdfrwt>
<pdfrwt beam="2">  1       -3 0.61161499E-02 0.85232466E+02</pdfrwt>
<totfact> 0.42965548E+04</totfact>
</mgrwt>
</event>
<event>
 5    1  0.3845386E+001  0.8761315E+02  0.7546771E-02  0.1308737E+00
         -2   -1    0    0    0  501 -0.00000000000E+00  0.00000000000E+00  0.11959550188E+04  0.11959550188E+04  0.00000000000E+00 0.  1.
          2   -1    0    0  501    0  0.00000000000E+00 -0.00000000000E+00 -0.16045886315E+01  0.16045886315E+01  0.00000000000E+00 0. -1.
         23    2    1    2    0    0  0.00000000000E+00  0.00000000000E+00  0.11943504302E+04  0.11975596074E+04  0.87613145748E+02 0.  0.
          2    1    3    3  502    0 -0.13485522068E+02 -0.30471763851E+02  0.20848618149E+03  0.21113236504E+03  0.00000000000E+00 0. -1.
         -2    1    3    3    0  502  0.13485522068E+02  0.30471763851E+02  0.98586424869E+03  0.98642724240E+03  0.00000000000E+00 0.  1.
<mgrwt>
<rscale>  0 0.87613146E+02</rscale>
<asrwt>0</asrwt>
<pdfrwt beam="2">  1        2 0.24686075E-03 0.87613146E+02</pdfrwt>
<pdfrwt beam="1">  1       -2 0.18399237E+00 0.87613146E+02</pdfrwt>
<totfact> 0.16556097E+04</totfact>
</mgrwt>
</event>
<event>
 5    1  0.3845386E+001  0.9126759E+02  0.7546771E-02  0.1299811E+00
          1   -1    0    0  501    0  0.00000000000E+00  0.00000000000E+00  0.21581366501E+03  0.21581366501E+03  0.00000000000E+00 0. -1.
         -1   -1    0    0    0  501 -0.00000000000E+00 -0.00000000000E+00 -0.96492654634E+01  0.96492654634E+01  0.00000000000E+00 0.  1.
         23    2    1    2    0    0  0.00000000000E+00  0.00000000000E+00  0.20616439954E+03  0.22546293047E+03  0.91267592151E+02 0.  0.
          2    1    3    3  502    0  0.33962065478E+01  0.34390341334E+02  0.17670583396E+03  0.18005327420E+03  0.00000000000E+00 0. -1.
         -2    1    3    3    0  502 -0.33962065478E+01 -0.34390341334E+02  0.29458565583E+02  0.45409656266E+02  0.00000000000E+00 0.  1.
<mgrwt>
<rscale>  0 0.91267592E+02</rscale>
<asrwt>0</asrwt>
<pdfrwt beam="1">  1        1 0.33202099E-01 0.91267592E+02</pdfrwt>
<pdfrwt beam="2">  1       -1 0.14845025E-02 0.91267592E+02</pdfrwt>
<totfact> 0.11985196E+05</totfact>
</mgrwt>
</event>
<event>
 5    1  0.3845386E+001  0.9417229E+02  0.7546771E-02  0.1293051E+00
          1   -1    0    0  501    0  0.00000000000E+00  0.00000000000E+00  0.38883644247E+03  0.38883644247E+03  0.00000000000E+00 0. -1.
         -1   -1    0    0    0  501 -0.00000000000E+00 -0.00000000000E+00 -0.57018968318E+01  0.57018968318E+01  0.00000000000E+00 0.  1.
         23    2    1    2    0    0  0.00000000000E+00  0.00000000000E+00  0.38313454564E+03  0.39453833930E+03  0.94172294852E+02 0.  0.
          2    1    3    3  502    0 -0.30084045254E+02 -0.30018285861E+02  0.27649798890E+03  0.27974503593E+03  0.00000000000E+00 0. -1.
         -2    1    3    3    0  502  0.30084045254E+02  0.30018285861E+02  0.10663655674E+03  0.11479330337E+03  0.00000000000E+00 0.  1.
<mgrwt>
<rscale>  0 0.94172295E+02</rscale>
<asrwt>0</asrwt>
<pdfrwt beam="1">  1        1 0.59820970E-01 0.94172295E+02</pdfrwt>
<pdfrwt beam="2">  1       -1 0.87721520E-03 0.94172295E+02</pdfrwt>
<totfact> 0.12319148E+05</totfact>
</mgrwt>
</event>
<event>
 5    1  0.3845386E+001  0.9557586E+02  0.7546771E-02  0.1289884E+00
          1   -1    0    0  501    0  0.00000000000E+00  0.00000000000E+00  0.21968790176E+02  0.21968790176E+02  0.00000000000E+00 0. -1.
         -1   -1    0    0    0  501 -0.00000000000E+00 -0.00000000000E+00 -0.10395138630E+03  0.10395138630E+03  0.00000000000E+00 0.  1.
         23    2    1    2    0    0  0.00000000000E+00  0.00000000000E+00 -0.81982596121E+02  0.12592017647E+03  0.95575858752E+02 0.  0.
          2    1    3    3  502    0 -0.22662734118E+02  0.41351053752E+02 -0.30771025232E+02  0.56305995755E+02  0.00000000000E+00 0. -1.
         -2    1    3    3    0  502  0.22662734118E+02 -0.41351053752E+02 -0.51211570889E+02  0.69614180718E+02  0.00000000000E+00 0.  1.
<mgrwt>
<rscale>  0 0.95575859E+02</rscale>
<asrwt>0</asrwt>
<pdfrwt beam="1">  1        1 0.33798139E-02 0.95575859E+02</pdfrwt>
<pdfrwt beam="2">  1       -1 0.15992521E-01 0.95575859E+02</pdfrwt>
<totfact> 0.71528206E+04</totfact>
</mgrwt>
</event>
<event>
 5    1  0.3845386E+001  0.9166673E+02  0.7546771E-02  0.1298865E+00
         -1   -1    0    0    0  501 -0.00000000000E+00  0.00000000000E+00  0.42747239527E+03  0.42747239527E+03  0.00000000000E+00 0.  1.
          1   -1    0    0  501    0  0.00000000000E+00 -0.00000000000E+00 -0.49142287217E+01  0.49142287217E+01  0.00000000000E+00 0. -1.
         23    2    1    2    0    0  0.00000000000E+00  0.00000000000E+00  0.42255816655E+03  0.43238662399E+03  0.91666725098E+02 0.  0.
          2    1    3    3  502    0 -0.32357858912E+02  0.30615933993E+02  0.16040370418E+03  0.16647436668E+03  0.00000000000E+00 0. -1.
         -2    1    3    3    0  502  0.32357858912E+02 -0.30615933993E+02  0.26215446237E+03  0.26591225731E+03  0.00000000000E+00 0.  1.
<mgrwt>
<rscale>  0 0.91666725E+02</rscale>
<asrwt>0</asrwt>
<pdfrwt beam="2">  1        1 0.75603552E-03 0.91666725E+02</pdfrwt>
<pdfrwt beam="1">  1       -1 0.65764955E-01 0.91666725E+02</pdfrwt>
<totfact> 0.50761207E+04</totfact>
</mgrwt>
</event>
<event>
 5    1  0.3845386E+001  0.9833405E+02  0.7546771E-02  0.1283839E+00
         -1   -1    0    0    0  501 -0.00000000000E+00  0.00000000000E+00  0.17263367652E+02  0.17263367652E+02  0.00000000000E+00 0.  1.
          1   -1    0    0  501    0  0.00000000000E+00 -0.00000000000E+00 -0.14003040321E+03  0.14003040321E+03  0.00000000000E+00 0. -1.
         23    2    1    2    0    0  0.00000000000E+00  0.00000000000E+00 -0.12276703556E+03  0.15729377086E+03  0.98334049708E+02 0.  0.
          2    1    3    3  502    0 -0.38212974053E+02 -0.10255462087E+02 -0.14693400925E+02  0.42205472623E+02  0.00000000000E+00 0.  1.
         -2    1    3    3    0  502  0.38212974053E+02  0.10255462087E+02 -0.10807363463E+03  0.11508829824E+03  0.00000000000E+00 0. -1.
<mgrwt>
<rscale>  0 0.98334050E+02</rscale>
<asrwt>0</asrwt>
<pdfrwt beam="2">  1        1 0.21543139E-01 0.98334050E+02</pdfrwt>
<pdfrwt beam="1">  1       -1 0.26559027E-02 0.98334050E+02</pdfrwt>
<totfact> 0.90186932E+04</totfact>
</mgrwt>
</event>
<event>
 5    1  0.3845386E+001  0.1018334E+03  0.7546771E-02  0.1276487E+00
         -2   -1    0    0    0  501 -0.00000000000E+00  0.00000000000E+00  0.39307754313E+01  0.39307754313E+01  0.00000000000E+00 0.  1.
          2   -1    0    0  501    0  0.00000000000E+00 -0.00000000000E+00 -0.65954181202E+03  0.65954181202E+03  0.00000000000E+00 0. -1.
         23    2    1    2    0    0  0.00000000000E+00  0.00000000000E+00 -0.65561103658E+03  0.66347258745E+03  0.10183340809E+03 0.  0.
          2    1    3    3  502    0 -0.15594827260E+02  0.41488370886E+02 -0.49108135958E+03  0.49307746378E+03  0.00000000000E+00 0. -1.
         -2    1    3    3    0  502  0.15594827260E+02 -0.41488370886E+02 -0.16452967700E+03  0.17039512367E+03  0.00000000000E+00 0.  1.
<mgrwt>
<rscale>  0 0.10183341E+03</rscale>
<asrwt>0</asrwt>
<pdfrwt beam="2">  1        2 0.10146792E+00 0.10183341E+03</pdfrwt>
<pdfrwt beam="1">  1       -2 0.60473501E-03 0.10183341E+03</pdfrwt>
<totfact> 0.17429794E+05</totfact>
</mgrwt>
</event>
<event>
 5    1  0.3845386E+001  0.9171257E+02  0.7546771E-02  0.1298757E+00
         -1   -1    0    0    0  501 -0.00000000000E+00  0.00000000000E+00  0.18427335594E+02  0.18427335594E+02  0.00000000000E+00 0.  1.
          1   -1    0    0  501    0  0.00000000000E+00 -0.00000000000E+00 -0.11411301929E+03  0.11411301929E+03  0.00000000000E+00 0. -1.
         23    2    1    2    0    0  0.00000000000E+00  0.00000000000E+00 -0.95685683698E+02  0.13254035489E+03  0.91712570613E+02 0.  0.
          2    1    3    3  502    0  0.32759285780E+02  0.26547600575E+02 -0.73890141380E+02  0.85074666583E+02  0.00000000000E+00 0. -1.
         -2    1    3    3    0  502 -0.32759285780E+02 -0.26547600575E+02 -0.21795542318E+02  0.47465688302E+02  0.00000000000E+00 0.  1.
<mgrwt>
<rscale>  0 0.91712571E+02</rscale>
<asrwt>0</asrwt>
<pdfrwt beam="2">  1        1 0.17555849E-01 0.91712571E+02</pdfrwt>
<pdfrwt beam="1">  1       -1 0.28349747E-02 0.91712571E+02</pdfrwt>
<totfact> 0.10511918E+05</totfact>
</mgrwt>
</event>
<event>
 5    1  0.3845386E+001  0.9258654E+02  0.7546771E-02  0.1296706E+00
          1   -1    0    0  501    0  0.00000000000E+00  0.00000000000E+00  0.11151134873E+03  0.11151134873E+03  0.00000000000E+00 0. -1.
         -1   -1    0    0    0  501 -0.00000000000E+00 -0.00000000000E+00 -0.19218375340E+02  0.19218375340E+02  0.00000000000E+00 0.  1.
         23    2    1    2    0    0  0.00000000000E+00  0.00000000000E+00  0.92292973391E+02  0.13072972407E+03  0.92586542318E+02 0.  0.
          2    1    3    3  502    0 -0.26008964704E+02 -0.94119158171E+01  0.98561258071E+02  0.10236880383E+03  0.00000000000E+00 0. -1.
         -2    1    3    3    0  502  0.26008964704E+02  0.94119158171E+01 -0.62682846795E+01  0.28360920245E+02  0.00000000000E+00 0.  1.
<mgrwt>
<rscale>  0 0.92586542E+02</rscale>
<asrwt>0</asrwt>
<pdfrwt beam="1">  1        1 0.17155592E-01 0.92586542E+02</pdfrwt>
<pdfrwt beam="2">  1       -1 0.29566732E-02 0.92586542E+02</pdfrwt>
<totfact> 0.10203413E+05</totfact>
</mgrwt>
</event>
<event>
 5    1  0.3845386E+001  0.9097003E+02  0.7546771E-02  0.1300519E+00
         -1   -1    0    0    0  501 -0.00000000000E+00  0.00000000000E+00  0.30039914641E+02  0.30039914641E+02  0.00000000000E+00 0.  1.
          1   -1    0    0  501    0  0.00000000000E+00 -0.00000000000E+00 -0.68871248744E+02  0.68871248744E+02  0.00000000000E+00 0. -1.
         23    2    1    2    0    0  0.00000000000E+00  0.00000000000E+00 -0.38831334102E+02  0.98911163385E+02  0.90970026569E+02 0.  0.
          2    1    3    3  502    0 -0.65219776661E+01  0.19324878902E+02 -0.63620543987E+02  0.66809885155E+02  0.00000000000E+00 0. -1.
         -2    1    3    3    0  502  0.65219776661E+01 -0.19324878902E+02  0.24789209885E+02  0.32101278230E+02  0.00000000000E+00 0.  1.
<mgrwt>
<rscale>  0 0.90970027E+02</rscale>
<asrwt>0</asrwt>
<pdfrwt beam="2">  1        1 0.10595577E-01 0.90970027E+02</pdfrwt>
<pdfrwt beam="1">  1       -1 0.46215253E-02 0.90970027E+02</pdfrwt>
<totfact> 0.99038851E+04</totfact>
</mgrwt>
</event>
<event>
 5    1  0.3845386E+001  0.9244611E+02  0.7546771E-02  0.1297034E+00
         -2   -1    0    0    0  501 -0.00000000000E+00  0.00000000000E+00  0.80600222749E+01  0.80600222749E+01  0.00000000000E+00 0.  1.
          2   -1    0    0  501    0  0.00000000000E+00 -0.00000000000E+00 -0.26508247311E+03  0.26508247311E+03  0.00000000000E+00 0. -1.
         23    2    1    2    0    0  0.00000000000E+00  0.00000000000E+00 -0.25702245084E+03  0.27314249539E+03  0.92446106202E+02 0.  0.
          2    1    3    3  502    0  0.34677095358E+02 -0.30558044974E+02 -0.12696017208E+03  0.13511173283E+03  0.00000000000E+00 0. -1.
         -2    1    3    3    0  502 -0.34677095358E+02  0.30558044974E+02 -0.13006227876E+03  0.13803076256E+03  0.00000000000E+00 0.  1.
<mgrwt>
<rscale>  0 0.92446106E+02</rscale>
<asrwt>0</asrwt>
<pdfrwt beam="2">  1        2 0.40781922E-01 0.92446106E+02</pdfrwt>
<pdfrwt beam="1">  1       -2 0.12400033E-02 0.92446106E+02</pdfrwt>
<totfact> 0.16531909E+05</totfact>
</mgrwt>
</event>
<event>
 5    1  0.3845386E+001  0.9090101E+02  0.7546771E-02  0.1300684E+00
         -2   -1    0    0    0  501 -0.00000000000E+00  0.00000000000E+00  0.13220306553E+02  0.13220306553E+02  0.00000000000E+00 0. -1.
          2   -1    0    0  501    0  0.00000000000E+00 -0.00000000000E+00 -0.15625570286E+03  0.15625570286E+03  0.00000000000E+00 0.  1.
         23    2    1    2    0    0  0.00000000000E+00  0.00000000000E+00 -0.14303539630E+03  0.16947600941E+03  0.90901007528E+02 0.  0.
          2    1    3    3  502    0 -0.60051961464E+01 -0.44755830961E+02 -0.61901738119E+02  0.76622268095E+02  0.00000000000E+00 0. -1.
         -2    1    3    3    0  502  0.60051961464E+01  0.44755830961E+02 -0.81133658183E+02  0.92853741313E+02  0.00000000000E+00 0.  1.
<mgrwt>
<rscale>  0 0.90901008E+02</rscale>
<asrwt>0</asrwt>
<pdfrwt beam="2">  1        2 0.24039339E-01 0.90901008E+02</pdfrwt>
<pdfrwt beam="1">  1       -2 0.20338933E-02 0.90901008E+02</pdfrwt>
<totfact> 0.14294488E+05</totfact>
</mgrwt>
</event>
<event>
 5    1  0.3845386E+001  0.9061668E+02  0.7546771E-02  0.1301365E+00
         -2   -1    0    0    0  501 -0.00000000000E+00  0.00000000000E+00  0.42449709506E+01  0.42449709506E+01  0.00000000000E+00 0.  1.
          2   -1    0    0  501    0  0.00000000000E+00 -0.00000000000E+00 -0.48359476417E+03  0.48359476417E+03  0.00000000000E+00 0. -1.
         23    2    1    2    0    0  0.00000000000E+00  0.00000000000E+00 -0.47934979322E+03  0.48783973512E+03  0.90616681152E+02 0.  0.
          2    1    3    3  502    0  0.42674261928E+02  0.25041774116E+01 -0.32051468006E+03  0.32335278516E+03  0.00000000000E+00 0. -1.
         -2    1    3    3    0  502 -0.42674261928E+02 -0.25041774116E+01 -0.15883511316E+03  0.16448694997E+03  0.00000000000E+00 0.  1.
<mgrwt>
<rscale>  0 0.90616681E+02</rscale>
<asrwt>0</asrwt>
<pdfrwt beam="2">  1        2 0.74399201E-01 0.90616681E+02</pdfrwt>
<pdfrwt beam="1">  1       -2 0.65307240E-03 0.90616681E+02</pdfrwt>
<totfact> 0.21665596E+05</totfact>
</mgrwt>
</event>
<event>
 5    1  0.3845386E+001  0.9419234E+02  0.7546771E-02  0.1293006E+00
          1   -1    0    0  501    0  0.00000000000E+00  0.00000000000E+00  0.77102955270E+03  0.77102955270E+03  0.00000000000E+00 0. -1.
         -1   -1    0    0    0  501 -0.00000000000E+00 -0.00000000000E+00 -0.28767369306E+01  0.28767369306E+01  0.00000000000E+00 0.  1.
         23    2    1    2    0    0  0.00000000000E+00  0.00000000000E+00  0.76815281576E+03  0.77390628963E+03  0.94192339155E+02 0.  0.
          2    1    3    3  502    0 -0.11906778343E+02  0.45557824163E+02  0.39125081232E+03  0.39407421237E+03  0.00000000000E+00 0. -1.
         -2    1    3    3    0  502  0.11906778343E+02 -0.45557824163E+02  0.37690200344E+03  0.37983207725E+03  0.00000000000E+00 0.  1.
<mgrwt>
<rscale>  0 0.94192339E+02</rscale>
<asrwt>0</asrwt>
<pdfrwt beam="1">  1        1 0.11861977E+00 0.94192339E+02</pdfrwt>
<pdfrwt beam="2">  1       -1 0.44257553E-03 0.94192339E+02</pdfrwt>
<totfact> 0.12999392E+05</totfact>
</mgrwt>
</event>
<event>
 5    1  0.3845386E+001  0.8570248E+02  0.7546771E-02  0.1313606E+00
          2   -1    0    0  501    0  0.00000000000E+00  0.00000000000E+00  0.27688179744E+02  0.27688179744E+02  0.00000000000E+00 0. -1.
         -2   -1    0    0    0  501 -0.00000000000E+00 -0.00000000000E+00 -0.66318146732E+02  0.66318146732E+02  0.00000000000E+00 0.  1.
         23    2    1    2    0    0  0.00000000000E+00  0.00000000000E+00 -0.38629966988E+02  0.94006326476E+02  0.85702479941E+02 0.  0.
          2    1    3    3  502    0 -0.15777820819E+02  0.16615783752E+02 -0.59034044165E+02  0.63324894552E+02  0.00000000000E+00 0.  1.
         -2    1    3    3    0  502  0.15777820819E+02 -0.16615783752E+02  0.20404077178E+02  0.30681431924E+02  0.00000000000E+00 0. -1.
<mgrwt>
<rscale>  0 0.85702480E+02</rscale>
<asrwt>0</asrwt>
<pdfrwt beam="1">  1        2 0.42597199E-02 0.85702480E+02</pdfrwt>
<pdfrwt beam="2">  1       -2 0.10202792E-01 0.85702480E+02</pdfrwt>
<totfact> 0.10402057E+05</totfact>
</mgrwt>
</event>
<event>
 5    1  0.3845386E+001  0.9235273E+02  0.7546771E-02  0.1297252E+00
         -2   -1    0    0    0  501 -0.00000000000E+00  0.00000000000E+00  0.18001461340E+01  0.18001461340E+01  0.00000000000E+00 0.  1.
          2   -1    0    0  501    0  0.00000000000E+00 -0.00000000000E+00 -0.11844909508E+04  0.11844909508E+04  0.00000000000E+00 0. -1.
         23    2    1    2    0    0  0.00000000000E+00  0.00000000000E+00 -0.11826908047E+04  0.11862910969E+04  0.92352732624E+02 0.  0.
          2    1    3    3  502    0  0.29353251925E+02 -0.33308233780E+02 -0.75443667958E+03  0.75574185760E+03  0.00000000000E+00 0. -1.
         -2    1    3    3    0  502 -0.29353251925E+02  0.33308233780E+02 -0.42825412509E+03  0.43054923933E+03  0.00000000000E+00 0.  1.
<mgrwt>
<rscale>  0 0.92352733E+02</rscale>
<asrwt>0</asrwt>
<pdfrwt beam="2">  1        2 0.18222876E+00 0.92352733E+02</pdfrwt>
<pdfrwt beam="1">  1       -2 0.27694649E-03 0.92352733E+02</pdfrwt>
<totfact> 0.24075489E+05</totfact>
</mgrwt>
</event>
<event>
 5    1  0.3845386E+001  0.9125481E+02  0.7546771E-02  0.1299841E+00
         -2   -1    0    0    0  501 -0.00000000000E+00  0.00000000000E+00  0.10652438766E+01  0.10652438766E+01  0.00000000000E+00 0.  1.
          2   -1    0    0  501    0  0.00000000000E+00 -0.00000000000E+00 -0.19543507037E+04  0.19543507037E+04  0.00000000000E+00 0. -1.
         23    2    1    2    0    0  0.00000000000E+00  0.00000000000E+00 -0.19532854599E+04  0.19554159476E+04  0.91254810719E+02 0.  0.
          2    1    3    3  502    0  0.28526758145E+02 -0.34406468885E+02 -0.77992509294E+03  0.78120466693E+03  0.00000000000E+00 0. -1.
         -2    1    3    3    0  502 -0.28526758145E+02  0.34406468885E+02 -0.11733603669E+04  0.11742112807E+04  0.00000000000E+00 0.  1.
<mgrwt>
<rscale>  0 0.91254811E+02</rscale>
<asrwt>0</asrwt>
<pdfrwt beam="2">  1        2 0.30067052E+00 0.91254811E+02</pdfrwt>
<pdfrwt beam="1">  1       -2 0.16388303E-03 0.91254811E+02</pdfrwt>
<totfact> 0.20050545E+05</totfact>
</mgrwt>
</event>
<event>
 5    1  0.3845386E+001  0.9323128E+02  0.7546771E-02  0.1295210E+00
         -2   -1    0    0    0  501 -0.00000000000E+00  0.00000000000E+00  0.15532125669E+01  0.15532125669E+01  0.00000000000E+00 0. -1.
          2   -1    0    0  501    0  0.00000000000E+00 -0.00000000000E+00 -0.13990473268E+04  0.13990473268E+04  0.00000000000E+00 0.  1.
         23    2    1    2    0    0  0.00000000000E+00  0.00000000000E+00 -0.13974941142E+04  0.14006005393E+04  0.93231279935E+02 0.  0.
          2    1    3    3  502    0  0.22439683712E+02 -0.13808105411E+02 -0.12764565762E+04  0.12767284731E+04  0.00000000000E+00 0.  1.
         -2    1    3    3    0  502 -0.22439683712E+02  0.13808105411E+02 -0.12103753800E+03  0.12387206620E+03  0.00000000000E+00 0. -1.
<mgrwt>
<rscale>  0 0.93231280E+02</rscale>
<asrwt>0</asrwt>
<pdfrwt beam="2">  1        2 0.21523757E+00 0.93231280E+02</pdfrwt>
<pdfrwt beam="1">  1       -2 0.23895632E-03 0.93231280E+02</pdfrwt>
<totfact> 0.22767110E+05</totfact>
</mgrwt>
</event>
<event>
 5    1  0.3845386E+001  0.9443518E+02  0.7546771E-02  0.1292453E+00
         -1   -1    0    0    0  501 -0.00000000000E+00  0.00000000000E+00  0.58150926569E+01  0.58150926569E+01  0.00000000000E+00 0.  1.
          1   -1    0    0  501    0  0.00000000000E+00 -0.00000000000E+00 -0.38339903397E+03  0.38339903397E+03  0.00000000000E+00 0. -1.
         23    2    1    2    0    0  0.00000000000E+00  0.00000000000E+00 -0.37758394131E+03  0.38921412662E+03  0.94435182154E+02 0.  0.
          2    1    3    3  502    0  0.44506800419E+02  0.10486851093E+02 -0.23732624053E+03  0.24169107094E+03  0.00000000000E+00 0. -1.
         -2    1    3    3    0  502 -0.44506800419E+02 -0.10486851093E+02 -0.14025770078E+03  0.14752305569E+03  0.00000000000E+00 0.  1.
<mgrwt>
<rscale>  0 0.94435182E+02</rscale>
<asrwt>0</asrwt>
<pdfrwt beam="2">  1        1 0.58984462E-01 0.94435182E+02</pdfrwt>
<pdfrwt beam="1">  1       -1 0.89462972E-03 0.94435182E+02</pdfrwt>
<totfact> 0.12198720E+05</totfact>
</mgrwt>
</event>
<event>
 5    1  0.3845386E+001  0.9141230E+02  0.7546771E-02  0.1299467E+00
         -2   -1    0    0    0  501 -0.00000000000E+00  0.00000000000E+00  0.51299294448E+01  0.51299294448E+01  0.00000000000E+00 0.  1.
          2   -1    0    0  501    0  0.00000000000E+00 -0.00000000000E+00 -0.40722826978E+03  0.40722826978E+03  0.00000000000E+00 0. -1.
         23    2    1    2    0    0  0.00000000000E+00  0.00000000000E+00 -0.40209834034E+03  0.41235819923E+03  0.91412303153E+02 0.  0.
          2    1    3    3  502    0 -0.14142667451E+02 -0.22331130199E+02 -0.36925199434E+03  0.37019687970E+03  0.00000000000E+00 0. -1.
         -2    1    3    3    0  502  0.14142667451E+02  0.22331130199E+02 -0.32846346001E+02  0.42161319527E+02  0.00000000000E+00 0.  1.
<mgrwt>
<rscale>  0 0.91412303E+02</rscale>
<asrwt>0</asrwt>
<pdfrwt beam="2">  1        2 0.62650490E-01 0.91412303E+02</pdfrwt>
<pdfrwt beam="1">  1       -2 0.78922007E-03 0.91412303E+02</pdfrwt>
<totfact> 0.19953222E+05</totfact>
</mgrwt>
</event>
<event>
 5    1  0.3845386E+001  0.9188138E+02  0.7546771E-02  0.1298359E+00
          1   -1    0    0  501    0  0.00000000000E+00  0.00000000000E+00  0.12769627060E+04  0.12769627060E+04  0.00000000000E+00 0. -1.
         -1   -1    0    0    0  501 -0.00000000000E+00 -0.00000000000E+00 -0.16527866610E+01  0.16527866610E+01  0.00000000000E+00 0.  1.
         23    2    1    2    0    0  0.00000000000E+00  0.00000000000E+00  0.12753099193E+04  0.12786154926E+04  0.91881378461E+02 0.  0.
          2    1    3    3  502    0 -0.23858866034E+02 -0.23934524610E+02  0.20459422024E+03  0.20736658823E+03  0.00000000000E+00 0.  1.
         -2    1    3    3    0  502  0.23858866034E+02  0.23934524610E+02  0.10707156991E+04  0.10712489044E+04  0.00000000000E+00 0. -1.
<mgrwt>
<rscale>  0 0.91881378E+02</rscale>
<asrwt>0</asrwt>
<pdfrwt beam="1">  1        1 0.19645501E+00 0.91881378E+02</pdfrwt>
<pdfrwt beam="2">  1       -1 0.25427589E-03 0.91881378E+02</pdfrwt>
<totfact> 0.12082863E+05</totfact>
</mgrwt>
</event>
<event>
 5    1  0.3845386E+001  0.8957892E+02  0.7546771E-02  0.1303875E+00
          2   -1    0    0  501    0  0.00000000000E+00  0.00000000000E+00  0.12029570768E+04  0.12029570768E+04  0.00000000000E+00 0.  1.
         -2   -1    0    0    0  501 -0.00000000000E+00 -0.00000000000E+00 -0.16676371149E+01  0.16676371149E+01  0.00000000000E+00 0. -1.
         23    2    1    2    0    0  0.00000000000E+00  0.00000000000E+00  0.12012894397E+04  0.12046247139E+04  0.89578923165E+02 0.  0.
          2    1    3    3  502    0 -0.46401444898E+01  0.43935193530E+02  0.50158419539E+03  0.50352610383E+03  0.00000000000E+00 0. -1.
         -2    1    3    3    0  502  0.46401444898E+01 -0.43935193530E+02  0.69970524427E+03  0.70109861006E+03  0.00000000000E+00 0.  1.
<mgrwt>
<rscale>  0 0.89578923E+02</rscale>
<asrwt>0</asrwt>
<pdfrwt beam="1">  1        2 0.18506963E+00 0.89578923E+02</pdfrwt>
<pdfrwt beam="2">  1       -2 0.25656052E-03 0.89578923E+02</pdfrwt>
<totfact> 0.26045418E+05</totfact>
</mgrwt>
</event>
<event>
 5    1  0.3845386E+001  0.9068531E+02  0.7546771E-02  0.1301201E+00
         -2   -1    0    0    0  501 -0.00000000000E+00  0.00000000000E+00  0.55348002805E+01  0.55348002805E+01  0.00000000000E+00 0.  1.
          2   -1    0    0  501    0  0.00000000000E+00 -0.00000000000E+00 -0.37145986471E+03  0.37145986471E+03  0.00000000000E+00 0. -1.
         23    2    1    2    0    0  0.00000000000E+00  0.00000000000E+00 -0.36592506443E+03  0.37699466499E+03  0.90685305610E+02 0.  0.
          2    1    3    3  502    0  0.24976878194E+02 -0.94616456732E+01 -0.33528705372E+03  0.33634918697E+03  0.00000000000E+00 0. -1.
         -2    1    3    3    0  502 -0.24976878194E+02  0.94616456732E+01 -0.30638010705E+02  0.40645478016E+02  0.00000000000E+00 0.  1.
<mgrwt>
<rscale>  0 0.90685306E+02</rscale>
<asrwt>0</asrwt>
<pdfrwt beam="2">  1        2 0.57147698E-01 0.90685306E+02</pdfrwt>
<pdfrwt beam="1">  1       -2 0.85150735E-03 0.90685306E+02</pdfrwt>
<totfact> 0.19717320E+05</totfact>
</mgrwt>
</event>
<event>
 5    1  0.3845386E+001  0.9073506E+02  0.7546771E-02  0.1301081E+00
         -3   -1    0    0    0  501 -0.00000000000E+00  0.00000000000E+00  0.83637384366E+02  0.83637384366E+02  0.00000000000E+00 0.  1.
          3   -1    0    0  501    0  0.00000000000E+00 -0.00000000000E+00 -0.24608767377E+02  0.24608767377E+02  0.00000000000E+00 0. -1.
         23    2    1    2    0    0  0.00000000000E+00  0.00000000000E+00  0.59028616990E+02  0.10824615174E+03  0.90735063473E+02 0.  0.
          2    1    3    3  502    0 -0.16039226940E+02  0.19806723711E+02 -0.15261026322E+02  0.29706262461E+02  0.00000000000E+00 0. -1.
         -2    1    3    3    0  502  0.16039226940E+02 -0.19806723711E+02  0.74289643312E+02  0.78539889282E+02  0.00000000000E+00 0.  1.
<mgrwt>
<rscale>  0 0.90735063E+02</rscale>
<asrwt>0</asrwt>
<pdfrwt beam="2">  1        3 0.37859643E-02 0.90735063E+02</pdfrwt>
<pdfrwt beam="1">  1       -3 0.12867290E-01 0.90735063E+02</pdfrwt>
<totfact> 0.34524415E+04</totfact>
</mgrwt>
</event>
<event>
 5    1  0.3845386E+001  0.9075225E+02  0.7546771E-02  0.1301040E+00
          3   -1    0    0  501    0  0.00000000000E+00  0.00000000000E+00  0.37724236244E+03  0.37724236244E+03  0.00000000000E+00 0. -1.
         -3   -1    0    0    0  501 -0.00000000000E+00 -0.00000000000E+00 -0.54580108426E+01  0.54580108426E+01  0.00000000000E+00 0.  1.
         23    2    1    2    0    0  0.00000000000E+00  0.00000000000E+00  0.37178435160E+03  0.38270037328E+03  0.90752254065E+02 0.  0.
          2    1    3    3  502    0 -0.36233845157E+02 -0.22532364972E+02  0.25100237633E+03  0.25460320487E+03  0.00000000000E+00 0. -1.
         -2    1    3    3    0  502  0.36233845157E+02  0.22532364972E+02  0.12078197526E+03  0.12809716841E+03  0.00000000000E+00 0.  1.
<mgrwt>
<rscale>  0 0.90752254E+02</rscale>
<asrwt>0</asrwt>
<pdfrwt beam="1">  1        3 0.58037266E-01 0.90752254E+02</pdfrwt>
<pdfrwt beam="2">  1       -3 0.83969427E-03 0.90752254E+02</pdfrwt>
<totfact> 0.21413304E+04</totfact>
</mgrwt>
</event>
<event>
 5    1  0.3845386E+001  0.9219124E+02  0.7546771E-02  0.1297630E+00
          2   -1    0    0  501    0  0.00000000000E+00  0.00000000000E+00  0.10978463601E+04  0.10978463601E+04  0.00000000000E+00 0. -1.
         -2   -1    0    0    0  501 -0.00000000000E+00 -0.00000000000E+00 -0.19354312137E+01  0.19354312137E+01  0.00000000000E+00 0.  1.
         23    2    1    2    0    0  0.00000000000E+00  0.00000000000E+00  0.10959109289E+04  0.10997817913E+04  0.92191238482E+02 0.  0.
          2    1    3    3  502    0 -0.15570622043E+02  0.40347924518E+02  0.73823025764E+03  0.73949598551E+03  0.00000000000E+00 0. -1.
         -2    1    3    3    0  502  0.15570622043E+02 -0.40347924518E+02  0.35768067126E+03  0.36028580582E+03  0.00000000000E+00 0.  1.
<mgrwt>
<rscale>  0 0.92191238E+02</rscale>
<asrwt>0</asrwt>
<pdfrwt beam="1">  1        2 0.16889894E+00 0.92191238E+02</pdfrwt>
<pdfrwt beam="2">  1       -2 0.29775952E-03 0.92191238E+02</pdfrwt>
<totfact> 0.24301827E+05</totfact>
</mgrwt>
</event>
<event>
 5    1  0.3845386E+001  0.9112319E+02  0.7546771E-02  0.1300154E+00
         -4   -1    0    0    0  501 -0.00000000000E+00  0.00000000000E+00  0.16284351467E+01  0.16284351467E+01  0.00000000000E+00 0.  1.
          4   -1    0    0  501    0  0.00000000000E+00 -0.00000000000E+00 -0.12747569546E+04  0.12747569546E+04  0.00000000000E+00 0. -1.
         23    2    1    2    0    0  0.00000000000E+00  0.00000000000E+00 -0.12731285194E+04  0.12763853897E+04  0.91123191963E+02 0.  0.
          2    1    3    3  502    0 -0.37889916296E+02  0.65770003153E+01 -0.97879907189E+03  0.97955424854E+03  0.00000000000E+00 0. -1.
         -2    1    3    3    0  502  0.37889916296E+02 -0.65770003153E+01 -0.29432944753E+03  0.29683114118E+03  0.00000000000E+00 0.  1.
<mgrwt>
<rscale>  0 0.91123192E+02</rscale>
<asrwt>0</asrwt>
<pdfrwt beam="2">  1        4 0.19611695E+00 0.91123192E+02</pdfrwt>
<pdfrwt beam="1">  1       -4 0.25052786E-03 0.91123192E+02</pdfrwt>
<totfact> 0.53122367E+03</totfact>
</mgrwt>
</event>
<event>
 5    1  0.3845386E+001  0.9169575E+02  0.7546771E-02  0.1298796E+00
         -1   -1    0    0    0  501 -0.00000000000E+00  0.00000000000E+00  0.17445154077E+03  0.17445154077E+03  0.00000000000E+00 0.  1.
          1   -1    0    0  501    0  0.00000000000E+00 -0.00000000000E+00 -0.12049350693E+02  0.12049350693E+02  0.00000000000E+00 0. -1.
         23    2    1    2    0    0  0.00000000000E+00  0.00000000000E+00  0.16240219008E+03  0.18650089147E+03  0.91695753310E+02 0.  0.
          2    1    3    3  502    0 -0.21375178390E+02  0.34241535176E+02  0.36982997282E+02  0.54745986797E+02  0.00000000000E+00 0. -1.
         -2    1    3    3    0  502  0.21375178390E+02 -0.34241535176E+02  0.12541919280E+03  0.13175490467E+03  0.00000000000E+00 0.  1.
<mgrwt>
<rscale>  0 0.91695753E+02</rscale>
<asrwt>0</asrwt>
<pdfrwt beam="2">  1        1 0.18537464E-02 0.91695753E+02</pdfrwt>
<pdfrwt beam="1">  1       -1 0.26838697E-01 0.91695753E+02</pdfrwt>
<totfact> 0.71001604E+04</totfact>
</mgrwt>
</event>
<event>
 5    1  0.3845386E+001  0.9210031E+02  0.7546771E-02  0.1297844E+00
          2   -1    0    0  501    0  0.00000000000E+00  0.00000000000E+00  0.11047820106E+04  0.11047820106E+04  0.00000000000E+00 0. -1.
         -2   -1    0    0    0  501 -0.00000000000E+00 -0.00000000000E+00 -0.19194889201E+01  0.19194889201E+01  0.00000000000E+00 0.  1.
         23    2    1    2    0    0  0.00000000000E+00  0.00000000000E+00  0.11028625217E+04  0.11067014995E+04  0.92100311150E+02 0.  0.
          2    1    3    3  502    0  0.36180227484E+02  0.17211120374E+02  0.82422563896E+03  0.82519884601E+03  0.00000000000E+00 0. -1.
         -2    1    3    3    0  502 -0.36180227484E+02 -0.17211120374E+02  0.27863688270E+03  0.28150265350E+03  0.00000000000E+00 0.  1.
<mgrwt>
<rscale>  0 0.92100311E+02</rscale>
<asrwt>0</asrwt>
<pdfrwt beam="1">  1        2 0.16996596E+00 0.92100311E+02</pdfrwt>
<pdfrwt beam="2">  1       -2 0.29530687E-03 0.92100311E+02</pdfrwt>
<totfact> 0.24360231E+05</totfact>
</mgrwt>
</event>
<event>
 5    1  0.3845386E+001  0.9021955E+02  0.7546771E-02  0.1302321E+00
         -2   -1    0    0    0  501 -0.00000000000E+00  0.00000000000E+00  0.49783397659E+02  0.49783397659E+02  0.00000000000E+00 0.  1.
          2   -1    0    0  501    0  0.00000000000E+00 -0.00000000000E+00 -0.40874909800E+02  0.40874909800E+02  0.00000000000E+00 0. -1.
         23    2    1    2    0    0  0.00000000000E+00  0.00000000000E+00  0.89084878595E+01  0.90658307459E+02  0.90219551958E+02 0.  0.
          2    1    3    3  502    0  0.44270817775E+02 -0.29937697936E+01 -0.37107827745E+01  0.44526821949E+02  0.00000000000E+00 0. -1.
         -2    1    3    3    0  502 -0.44270817775E+02  0.29937697936E+01  0.12619270634E+02  0.46131485511E+02  0.00000000000E+00 0.  1.
<mgrwt>
<rscale>  0 0.90219552E+02</rscale>
<asrwt>0</asrwt>
<pdfrwt beam="2">  1        2 0.62884477E-02 0.90219552E+02</pdfrwt>
<pdfrwt beam="1">  1       -2 0.76589842E-02 0.90219552E+02</pdfrwt>
<totfact> 0.98891791E+04</totfact>
</mgrwt>
</event>
<event>
 5    1  0.3845386E+001  0.8701180E+02  0.7546771E-02  0.1310254E+00
          2   -1    0    0  501    0  0.00000000000E+00  0.00000000000E+00  0.11718435919E+02  0.11718435919E+02  0.00000000000E+00 0. -1.
         -2   -1    0    0    0  501 -0.00000000000E+00 -0.00000000000E+00 -0.16152014871E+03  0.16152014871E+03  0.00000000000E+00 0.  1.
         23    2    1    2    0    0  0.00000000000E+00  0.00000000000E+00 -0.14980171279E+03  0.17323858462E+03  0.87011804077E+02 0.  0.
          2    1    3    3  502    0  0.28312932323E+02 -0.32853713421E+02 -0.68068903214E+02  0.80711611352E+02  0.00000000000E+00 0. -1.
         -2    1    3    3    0  502 -0.28312932323E+02  0.32853713421E+02 -0.81732809574E+02  0.92526973273E+02  0.00000000000E+00 0.  1.
<mgrwt>
<rscale>  0 0.87011804E+02</rscale>
<asrwt>0</asrwt>
<pdfrwt beam="1">  1        2 0.18028364E-02 0.87011804E+02</pdfrwt>
<pdfrwt beam="2">  1       -2 0.24849252E-01 0.87011804E+02</pdfrwt>
<totfact> 0.76511904E+04</totfact>
</mgrwt>
</event>
<event>
 5    1  0.3845386E+001  0.9400517E+02  0.7546771E-02  0.1293433E+00
         -3   -1    0    0    0  501 -0.00000000000E+00  0.00000000000E+00  0.29269278447E+03  0.29269278447E+03  0.00000000000E+00 0.  1.
          3   -1    0    0  501    0  0.00000000000E+00 -0.00000000000E+00 -0.75479934093E+01  0.75479934093E+01  0.00000000000E+00 0. -1.
         23    2    1    2    0    0  0.00000000000E+00  0.00000000000E+00  0.28514479106E+03  0.30024077788E+03  0.94005174498E+02 0.  0.
          2    1    3    3  502    0  0.24806225058E+02 -0.27004082467E+02  0.48655419426E+02  0.60925521015E+02  0.00000000000E+00 0. -1.
         -2    1    3    3    0  502 -0.24806225058E+02  0.27004082467E+02  0.23648937163E+03  0.23931525686E+03  0.00000000000E+00 0.  1.
<mgrwt>
<rscale>  0 0.94005174E+02</rscale>
<asrwt>0</asrwt>
<pdfrwt beam="2">  1        3 0.11612300E-02 0.94005174E+02</pdfrwt>
<pdfrwt beam="1">  1       -3 0.45029650E-01 0.94005174E+02</pdfrwt>
<totfact> 0.22118267E+04</totfact>
</mgrwt>
</event>
<event>
 5    1  0.3845386E+001  0.9079635E+02  0.7546771E-02  0.1300935E+00
          2   -1    0    0  501    0  0.00000000000E+00  0.00000000000E+00  0.52895608120E+03  0.52895608120E+03  0.00000000000E+00 0.  1.
         -2   -1    0    0    0  501 -0.00000000000E+00 -0.00000000000E+00 -0.38963429931E+01  0.38963429931E+01  0.00000000000E+00 0. -1.
         23    2    1    2    0    0  0.00000000000E+00  0.00000000000E+00  0.52505973821E+03  0.53285242419E+03  0.90796350602E+02 0.  0.
          2    1    3    3  502    0 -0.36625525436E+02 -0.10581911543E+02  0.11787159687E+03  0.12388349089E+03  0.00000000000E+00 0. -1.
         -2    1    3    3    0  502  0.36625525436E+02  0.10581911543E+02  0.40718814134E+03  0.40896893331E+03  0.00000000000E+00 0.  1.
<mgrwt>
<rscale>  0 0.90796351E+02</rscale>
<asrwt>0</asrwt>
<pdfrwt beam="1">  1        2 0.81377801E-01 0.90796351E+02</pdfrwt>
<pdfrwt beam="2">  1       -2 0.59943780E-03 0.90796351E+02</pdfrwt>
<totfact> 0.22184621E+05</totfact>
</mgrwt>
</event>
<event>
 5    1  0.3845386E+001  0.9136666E+02  0.7546771E-02  0.1299575E+00
          2   -1    0    0  501    0  0.00000000000E+00  0.00000000000E+00  0.42812715482E+01  0.42812715482E+01  0.00000000000E+00 0. -1.
         -2   -1    0    0    0  501 -0.00000000000E+00 -0.00000000000E+00 -0.48746416923E+03  0.48746416923E+03  0.00000000000E+00 0.  1.
         23    2    1    2    0    0  0.00000000000E+00  0.00000000000E+00 -0.48318289768E+03  0.49174544078E+03  0.91366656467E+02 0.  0.
          2    1    3    3  502    0 -0.37526273028E+02  0.17920221199E+02 -0.13981248292E+03  0.14586598601E+03  0.00000000000E+00 0. -1.
         -2    1    3    3    0  502  0.37526273028E+02 -0.17920221199E+02 -0.34337041476E+03  0.34587945477E+03  0.00000000000E+00 0.  1.
<mgrwt>
<rscale>  0 0.91366656E+02</rscale>
<asrwt>0</asrwt>
<pdfrwt beam="1">  1        2 0.65865774E-03 0.91366656E+02</pdfrwt>
<pdfrwt beam="2">  1       -2 0.74994422E-01 0.91366656E+02</pdfrwt>
<totfact> 0.36824212E+04</totfact>
</mgrwt>
</event>
<event>
 5    1  0.3845386E+001  0.9037147E+02  0.7546771E-02  0.1301955E+00
          1   -1    0    0  501    0  0.00000000000E+00  0.00000000000E+00  0.30213662723E+03  0.30213662723E+03  0.00000000000E+00 0. -1.
         -1   -1    0    0    0  501 -0.00000000000E+00 -0.00000000000E+00 -0.67577067658E+01  0.67577067658E+01  0.00000000000E+00 0.  1.
         23    2    1    2    0    0  0.00000000000E+00  0.00000000000E+00  0.29537892047E+03  0.30889433400E+03  0.90371471828E+02 0.  0.
          2    1    3    3  502    0  0.44784953993E+02 -0.33867261770E+01  0.16463855368E+03  0.17065466702E+03  0.00000000000E+00 0. -1.
         -2    1    3    3    0  502 -0.44784953993E+02  0.33867261770E+01  0.13074036679E+03  0.13823966698E+03  0.00000000000E+00 0.  1.
<mgrwt>
<rscale>  0 0.90371472E+02</rscale>
<asrwt>0</asrwt>
<pdfrwt beam="1">  1        1 0.46482548E-01 0.90371472E+02</pdfrwt>
<pdfrwt beam="2">  1       -1 0.10396474E-02 0.90371472E+02</pdfrwt>
<totfact> 0.13136126E+05</totfact>
</mgrwt>
</event>
<event>
 5    1  0.3845386E+001  0.9181572E+02  0.7546771E-02  0.1298513E+00
         -2   -1    0    0    0  501 -0.00000000000E+00  0.00000000000E+00  0.15840327091E+04  0.15840327091E+04  0.00000000000E+00 0.  1.
          2   -1    0    0  501    0  0.00000000000E+00 -0.00000000000E+00 -0.13304850301E+01  0.13304850301E+01  0.00000000000E+00 0. -1.
         23    2    1    2    0    0  0.00000000000E+00  0.00000000000E+00  0.15827022240E+04  0.15853631941E+04  0.91815724286E+02 0.  0.
          2    1    3    3  502    0  0.39016570441E+02  0.23952021427E+02  0.85000666058E+03  0.85123869457E+03  0.00000000000E+00 0. -1.
         -2    1    3    3    0  502 -0.39016570441E+02 -0.23952021427E+02  0.73269556344E+03  0.73412449951E+03  0.00000000000E+00 0.  1.
<mgrwt>
<rscale>  0 0.91815724E+02</rscale>
<asrwt>0</asrwt>
<pdfrwt beam="2">  1        2 0.20469127E-03 0.91815724E+02</pdfrwt>
<pdfrwt beam="1">  1       -2 0.24369583E+00 0.91815724E+02</pdfrwt>
<totfact> 0.94579735E+03</totfact>
</mgrwt>
</event>
<event>
 5    1  0.3845386E+001  0.9173904E+02  0.7546771E-02  0.1298694E+00
         -1   -1    0    0    0  501 -0.00000000000E+00  0.00000000000E+00  0.98938028226E+02  0.98938028226E+02  0.00000000000E+00 0.  1.
          1   -1    0    0  501    0  0.00000000000E+00 -0.00000000000E+00 -0.21265969130E+02  0.21265969130E+02  0.00000000000E+00 0. -1.
         23    2    1    2    0    0  0.00000000000E+00  0.00000000000E+00  0.77672059096E+02  0.12020399736E+03  0.91739044121E+02 0.  0.
          2    1    3    3  502    0 -0.75180241624E+00  0.44266345468E+02  0.54556053197E+02  0.70259785713E+02  0.00000000000E+00 0.  1.
         -2    1    3    3    0  502  0.75180241624E+00 -0.44266345468E+02  0.23116005899E+02  0.49944211644E+02  0.00000000000E+00 0. -1.
<mgrwt>
<rscale>  0 0.91739044E+02</rscale>
<asrwt>0</asrwt>
<pdfrwt beam="2">  1        1 0.32716876E-02 0.91739044E+02</pdfrwt>
<pdfrwt beam="1">  1       -1 0.15221235E-01 0.91739044E+02</pdfrwt>
<totfact> 0.80250309E+04</totfact>
</mgrwt>
</event>
<event>
 5    1  0.3845386E+001  0.9209098E+02  0.7546771E-02  0.1297866E+00
         -2   -1    0    0    0  501 -0.00000000000E+00  0.00000000000E+00  0.13399860433E+01  0.13399860433E+01  0.00000000000E+00 0. -1.
          2   -1    0    0  501    0  0.00000000000E+00 -0.00000000000E+00 -0.15822456229E+04  0.15822456229E+04  0.00000000000E+00 0.  1.
         23    2    1    2    0    0  0.00000000000E+00  0.00000000000E+00 -0.15809056369E+04  0.15835856090E+04  0.92090977882E+02 0.  0.
          2    1    3    3  502    0  0.35577941771E+02  0.38475423506E+01 -0.29218940016E+03  0.29437261946E+03  0.00000000000E+00 0. -1.
         -2    1    3    3    0  502 -0.35577941771E+02 -0.38475423506E+01 -0.12887162367E+04  0.12892129895E+04  0.00000000000E+00 0.  1.
<mgrwt>
<rscale>  0 0.92090978E+02</rscale>
<asrwt>0</asrwt>
<pdfrwt beam="2">  1        2 0.24342310E+00 0.92090978E+02</pdfrwt>
<pdfrwt beam="1">  1       -2 0.20615111E-03 0.92090978E+02</pdfrwt>
<totfact> 0.22476123E+05</totfact>
</mgrwt>
</event>
<event>
 5    1  0.3845386E+001  0.9264485E+02  0.7546771E-02  0.1296570E+00
         -2   -1    0    0    0  501 -0.00000000000E+00  0.00000000000E+00  0.21620809074E+01  0.21620809074E+01  0.00000000000E+00 0.  1.
          2   -1    0    0  501    0  0.00000000000E+00 -0.00000000000E+00 -0.99245452170E+03  0.99245452170E+03  0.00000000000E+00 0. -1.
         23    2    1    2    0    0  0.00000000000E+00  0.00000000000E+00 -0.99029244079E+03  0.99461660261E+03  0.92644848164E+02 0.  0.
          2    1    3    3  502    0 -0.48123589411E+01  0.43777236043E+02 -0.34099800303E+03  0.34383025356E+03  0.00000000000E+00 0. -1.
         -2    1    3    3    0  502  0.48123589411E+01 -0.43777236043E+02 -0.64929443776E+03  0.65078634905E+03  0.00000000000E+00 0.  1.
<mgrwt>
<rscale>  0 0.92644848E+02</rscale>
<asrwt>0</asrwt>
<pdfrwt beam="2">  1        2 0.15268544E+00 0.92644848E+02</pdfrwt>
<pdfrwt beam="1">  1       -2 0.33262755E-03 0.92644848E+02</pdfrwt>
<totfact> 0.23962516E+05</totfact>
</mgrwt>
</event>
<event>
 5    1  0.3845386E+001  0.8229465E+02  0.7546771E-02  0.1322663E+00
         -2   -1    0    0    0  501 -0.00000000000E+00  0.00000000000E+00  0.15099631931E+01  0.15099631931E+01  0.00000000000E+00 0.  1.
          2   -1    0    0  501    0  0.00000000000E+00 -0.00000000000E+00 -0.11212870400E+04  0.11212870400E+04  0.00000000000E+00 0. -1.
         23    2    1    2    0    0  0.00000000000E+00  0.00000000000E+00 -0.11197770768E+04  0.11227970032E+04  0.82294645252E+02 0.  0.
          2    1    3    3  502    0  0.44696455213E+01 -0.39731484370E+02 -0.42723381597E+03  0.42910057340E+03  0.00000000000E+00 0.  1.
         -2    1    3    3    0  502 -0.44696455213E+01  0.39731484370E+02 -0.69254326083E+03  0.69369642978E+03  0.00000000000E+00 0. -1.
<mgrwt>
<rscale>  0 0.82294645E+02</rscale>
<asrwt>0</asrwt>
<pdfrwt beam="2">  1        2 0.17250652E+00 0.82294645E+02</pdfrwt>
<pdfrwt beam="1">  1       -2 0.23230093E-03 0.82294645E+02</pdfrwt>
<totfact> 0.32699543E+05</totfact>
</mgrwt>
</event>
<event>
 5    1  0.3845386E+001  0.8908477E+02  0.7546771E-02  0.1305083E+00
         -3   -1    0    0    0  501 -0.00000000000E+00  0.00000000000E+00  0.10676289313E+02  0.10676289313E+02  0.00000000000E+00 0.  1.
          3   -1    0    0  501    0  0.00000000000E+00 -0.00000000000E+00 -0.18583459282E+03  0.18583459282E+03  0.00000000000E+00 0. -1.
         23    2    1    2    0    0  0.00000000000E+00  0.00000000000E+00 -0.17515830351E+03  0.19651088214E+03  0.89084765864E+02 0.  0.
          2    1    3    3  502    0 -0.41892633464E+02  0.13959504219E+02 -0.74685866762E+02  0.86763121144E+02  0.00000000000E+00 0. -1.
         -2    1    3    3    0  502  0.41892633464E+02 -0.13959504219E+02 -0.10047243675E+03  0.10974776099E+03  0.00000000000E+00 0.  1.
<mgrwt>
<rscale>  0 0.89084766E+02</rscale>
<asrwt>0</asrwt>
<pdfrwt beam="2">  1        3 0.28589936E-01 0.89084766E+02</pdfrwt>
<pdfrwt beam="1">  1       -3 0.16425061E-02 0.89084766E+02</pdfrwt>
<totfact> 0.30528684E+04</totfact>
</mgrwt>
</event>
<event>
 5    1  0.3845386E+001  0.9025823E+02  0.7546771E-02  0.1302228E+00
          2   -1    0    0  501    0  0.00000000000E+00  0.00000000000E+00  0.21911270945E+04  0.21911270945E+04  0.00000000000E+00 0.  1.
         -2   -1    0    0    0  501 -0.00000000000E+00 -0.00000000000E+00 -0.92949277520E+00  0.92949277520E+00  0.00000000000E+00 0. -1.
         23    2    1    2    0    0  0.00000000000E+00  0.00000000000E+00  0.21901976017E+04  0.21920565873E+04  0.90258225196E+02 0.  0.
          2    1    3    3  502    0 -0.37821856795E+02  0.24432095151E+02  0.10213674482E+04  0.10223594693E+04  0.00000000000E+00 0. -1.
         -2    1    3    3    0  502  0.37821856795E+02 -0.24432095151E+02  0.11688301535E+04  0.11696971180E+04  0.00000000000E+00 0.  1.
<mgrwt>
<rscale>  0 0.90258225E+02</rscale>
<asrwt>0</asrwt>
<pdfrwt beam="1">  1        2 0.33709234E+00 0.90258225E+02</pdfrwt>
<pdfrwt beam="2">  1       -2 0.14300064E-03 0.90258225E+02</pdfrwt>
<totfact> 0.18360251E+05</totfact>
</mgrwt>
</event>
<event>
 5    1  0.3845386E+001  0.8820101E+02  0.7546771E-02  0.1307268E+00
         -2   -1    0    0    0  501 -0.00000000000E+00  0.00000000000E+00  0.11534371749E+03  0.11534371749E+03  0.00000000000E+00 0.  1.
          2   -1    0    0  501    0  0.00000000000E+00 -0.00000000000E+00 -0.16861380932E+02  0.16861380932E+02  0.00000000000E+00 0. -1.
         23    2    1    2    0    0  0.00000000000E+00  0.00000000000E+00  0.98482336554E+02  0.13220509842E+03  0.88201005859E+02 0.  0.
          2    1    3    3  502    0  0.35694877127E+02  0.23089524748E+02  0.31658283909E+02  0.53004691738E+02  0.00000000000E+00 0. -1.
         -2    1    3    3    0  502 -0.35694877127E+02 -0.23089524748E+02  0.66824052646E+02  0.79200406680E+02  0.00000000000E+00 0.  1.
<mgrwt>
<rscale>  0 0.88201006E+02</rscale>
<asrwt>0</asrwt>
<pdfrwt beam="2">  1        2 0.25940587E-02 0.88201006E+02</pdfrwt>
<pdfrwt beam="1">  1       -2 0.17745187E-01 0.88201006E+02</pdfrwt>
<totfact> 0.82994130E+04</totfact>
</mgrwt>
</event>
<event>
 5    1  0.3845386E+001  0.9176863E+02  0.7546771E-02  0.1298624E+00
         -1   -1    0    0    0  501 -0.00000000000E+00  0.00000000000E+00  0.81988198928E+02  0.81988198928E+02  0.00000000000E+00 0.  1.
          1   -1    0    0  501    0  0.00000000000E+00 -0.00000000000E+00 -0.25678946256E+02  0.25678946256E+02  0.00000000000E+00 0. -1.
         23    2    1    2    0    0  0.00000000000E+00  0.00000000000E+00  0.56309252672E+02  0.10766714518E+03  0.91768634160E+02 0.  0.
          2    1    3    3  502    0  0.27840018870E+02  0.30428739734E+02  0.51748116756E+02  0.66172822520E+02  0.00000000000E+00 0.  1.
         -2    1    3    3    0  502 -0.27840018870E+02 -0.30428739734E+02  0.45611359161E+01  0.41494322664E+02  0.00000000000E+00 0. -1.
<mgrwt>
<rscale>  0 0.91768634E+02</rscale>
<asrwt>0</asrwt>
<pdfrwt beam="2">  1        1 0.39506072E-02 0.91768634E+02</pdfrwt>
<pdfrwt beam="1">  1       -1 0.12613569E-01 0.91768634E+02</pdfrwt>
<totfact> 0.82911270E+04</totfact>
</mgrwt>
</event>
<event>
 5    1  0.3845386E+001  0.9185536E+02  0.7546771E-02  0.1298420E+00
          2   -1    0    0  501    0  0.00000000000E+00  0.00000000000E+00  0.31589946995E+04  0.31589946995E+04  0.00000000000E+00 0. -1.
         -2   -1    0    0    0  501 -0.00000000000E+00 -0.00000000000E+00 -0.66772883704E+00  0.66772883704E+00  0.00000000000E+00 0.  1.
         23    2    1    2    0    0  0.00000000000E+00  0.00000000000E+00  0.31583269706E+04  0.31596624283E+04  0.91855361452E+02 0.  0.
          2    1    3    3  502    0  0.31452326576E+02 -0.27270703602E+02  0.91179183700E+03  0.91274163603E+03  0.00000000000E+00 0.  1.
         -2    1    3    3    0  502 -0.31452326576E+02  0.27270703602E+02  0.22465351336E+04  0.22469207923E+04  0.00000000000E+00 0. -1.
<mgrwt>
<rscale>  0 0.91855361E+02</rscale>
<asrwt>0</asrwt>
<pdfrwt beam="1">  1        2 0.48598722E+00 0.91855361E+02</pdfrwt>
<pdfrwt beam="2">  1       -2 0.10273004E-03 0.91855361E+02</pdfrwt>
<totfact> 0.86797362E+04</totfact>
</mgrwt>
</event>
<event>
 5    1  0.3845386E+001  0.9148018E+02  0.7546771E-02  0.1299306E+00
         -1   -1    0    0    0  501 -0.00000000000E+00  0.00000000000E+00  0.11108174817E+02  0.11108174817E+02  0.00000000000E+00 0.  1.
          1   -1    0    0  501    0  0.00000000000E+00 -0.00000000000E+00 -0.18834380261E+03  0.18834380261E+03  0.00000000000E+00 0. -1.
         23    2    1    2    0    0  0.00000000000E+00  0.00000000000E+00 -0.17723562780E+03  0.19945197743E+03  0.91480181134E+02 0.  0.
          2    1    3    3  502    0  0.40103246310E+02 -0.21343819389E+02 -0.77013731275E+02  0.89414449590E+02  0.00000000000E+00 0.  1.
         -2    1    3    3    0  502 -0.40103246310E+02  0.21343819389E+02 -0.10022189652E+03  0.11003752784E+03  0.00000000000E+00 0. -1.
<mgrwt>
<rscale>  0 0.91480181E+02</rscale>
<asrwt>0</asrwt>
<pdfrwt beam="2">  1        1 0.28975968E-01 0.91480181E+02</pdfrwt>
<pdfrwt beam="1">  1       -1 0.17089501E-02 0.91480181E+02</pdfrwt>
<totfact> 0.11599957E+05</totfact>
</mgrwt>
</event>
<event>
 5    1  0.3845386E+001  0.9496081E+02  0.7546771E-02  0.1291264E+00
          2   -1    0    0  501    0  0.00000000000E+00  0.00000000000E+00  0.98487890717E+03  0.98487890717E+03  0.00000000000E+00 0. -1.
         -2   -1    0    0    0  501 -0.00000000000E+00 -0.00000000000E+00 -0.22890012206E+01  0.22890012206E+01  0.00000000000E+00 0.  1.
         23    2    1    2    0    0  0.00000000000E+00  0.00000000000E+00  0.98258990595E+03  0.98716790839E+03  0.94960813405E+02 0.  0.
          2    1    3    3  502    0 -0.85475266635E+01  0.29581044924E+02  0.86701684591E+03  0.86756343256E+03  0.00000000000E+00 0. -1.
         -2    1    3    3    0  502  0.85475266635E+01 -0.29581044924E+02  0.11557306004E+03  0.11960447583E+03  0.00000000000E+00 0.  1.
<mgrwt>
<rscale>  0 0.94960813E+02</rscale>
<asrwt>0</asrwt>
<pdfrwt beam="1">  1        2 0.15151949E+00 0.94960813E+02</pdfrwt>
<pdfrwt beam="2">  1       -2 0.35215482E-03 0.94960813E+02</pdfrwt>
<totfact> 0.22441128E+05</totfact>
</mgrwt>
</event>
<event>
 5    1  0.3845386E+001  0.7588330E+02  0.7546771E-02  0.1341157E+00
         -1   -1    0    0    0  501 -0.00000000000E+00  0.00000000000E+00  0.10433532094E+01  0.10433532094E+01  0.00000000000E+00 0.  1.
          1   -1    0    0  501    0  0.00000000000E+00 -0.00000000000E+00 -0.13797519983E+04  0.13797519983E+04  0.00000000000E+00 0. -1.
         23    2    1    2    0    0  0.00000000000E+00  0.00000000000E+00 -0.13787086451E+04  0.13807953515E+04  0.75883296597E+02 0.  0.
          2    1    3    3  502    0  0.14226924019E+02  0.24922830845E+02 -0.11409804474E+04  0.11413412874E+04  0.00000000000E+00 0. -1.
         -2    1    3    3    0  502 -0.14226924019E+02 -0.24922830845E+02 -0.23772819768E+03  0.23945406415E+03  0.00000000000E+00 0.  1.
<mgrwt>
<rscale>  0 0.75883297E+02</rscale>
<asrwt>0</asrwt>
<pdfrwt beam="2">  1        1 0.21226940E+00 0.75883297E+02</pdfrwt>
<pdfrwt beam="1">  1       -1 0.16051599E-03 0.75883297E+02</pdfrwt>
<totfact> 0.19035743E+05</totfact>
</mgrwt>
</event>
<event>
 5    1  0.3845386E+001  0.9326871E+02  0.7546771E-02  0.1295124E+00
          3   -1    0    0  501    0  0.00000000000E+00  0.00000000000E+00  0.30845556327E+02  0.30845556327E+02  0.00000000000E+00 0. -1.
         -3   -1    0    0    0  501 -0.00000000000E+00 -0.00000000000E+00 -0.70504906085E+02  0.70504906085E+02  0.00000000000E+00 0.  1.
         23    2    1    2    0    0  0.00000000000E+00  0.00000000000E+00 -0.39659349758E+02  0.10135046241E+03  0.93268709693E+02 0.  0.
          2    1    3    3  502    0  0.29577930980E+02 -0.24577283631E+02  0.88353703114E+01  0.39458340567E+02  0.00000000000E+00 0. -1.
         -2    1    3    3    0  502 -0.29577930980E+02  0.24577283631E+02 -0.48494720070E+02  0.61892121844E+02  0.00000000000E+00 0.  1.
<mgrwt>
<rscale>  0 0.93268710E+02</rscale>
<asrwt>0</asrwt>
<pdfrwt beam="1">  1        3 0.47454702E-02 0.93268710E+02</pdfrwt>
<pdfrwt beam="2">  1       -3 0.10846909E-01 0.93268710E+02</pdfrwt>
<totfact> 0.32496796E+04</totfact>
</mgrwt>
</event>
<event>
 5    1  0.3845386E+001  0.8877665E+02  0.7546771E-02  0.1305842E+00
          3   -1    0    0  501    0  0.00000000000E+00  0.00000000000E+00  0.99238279839E+01  0.99238279839E+01  0.00000000000E+00 0. -1.
         -3   -1    0    0    0  501 -0.00000000000E+00 -0.00000000000E+00 -0.19854471486E+03  0.19854471486E+03  0.00000000000E+00 0.  1.
         23    2    1    2    0    0  0.00000000000E+00  0.00000000000E+00 -0.18862088688E+03  0.20846854285E+03  0.88776654530E+02 0.  0.
          2    1    3    3  502    0 -0.38893826494E+02  0.95665688144E+01 -0.49381462788E+02  0.63582842381E+02  0.00000000000E+00 0. -1.
         -2    1    3    3    0  502  0.38893826494E+02 -0.95665688144E+01 -0.13923942409E+03  0.14488570047E+03  0.00000000000E+00 0.  1.
<mgrwt>
<rscale>  0 0.88776655E+02</rscale>
<asrwt>0</asrwt>
<pdfrwt beam="1">  1        3 0.15267427E-02 0.88776655E+02</pdfrwt>
<pdfrwt beam="2">  1       -3 0.30545342E-01 0.88776655E+02</pdfrwt>
<totfact> 0.30151841E+04</totfact>
</mgrwt>
</event>
<event>
 5    1  0.3845386E+001  0.9053408E+02  0.7546771E-02  0.1301563E+00
          2   -1    0    0  501    0  0.00000000000E+00  0.00000000000E+00  0.61084449102E+03  0.61084449102E+03  0.00000000000E+00 0.  1.
         -2   -1    0    0    0  501 -0.00000000000E+00 -0.00000000000E+00 -0.33545444714E+01  0.33545444714E+01  0.00000000000E+00 0. -1.
         23    2    1    2    0    0  0.00000000000E+00  0.00000000000E+00  0.60748994655E+03  0.61419903549E+03  0.90534082207E+02 0.  0.
          2    1    3    3  502    0 -0.39368830828E+02 -0.12802295344E+02  0.17951834084E+03  0.18422985183E+03  0.00000000000E+00 0. -1.
         -2    1    3    3    0  502  0.39368830828E+02  0.12802295344E+02  0.42797160570E+03  0.42996918366E+03  0.00000000000E+00 0.  1.
<mgrwt>
<rscale>  0 0.90534082E+02</rscale>
<asrwt>0</asrwt>
<pdfrwt beam="1">  1        2 0.93975987E-01 0.90534082E+02</pdfrwt>
<pdfrwt beam="2">  1       -2 0.51608425E-03 0.90534082E+02</pdfrwt>
<totfact> 0.23331493E+05</totfact>
</mgrwt>
</event>
<event>
 5    1  0.3845386E+001  0.9177778E+02  0.7546771E-02  0.1298603E+00
         -2   -1    0    0    0  501 -0.00000000000E+00  0.00000000000E+00  0.50769609226E+01  0.50769609226E+01  0.00000000000E+00 0. -1.
          2   -1    0    0  501    0  0.00000000000E+00 -0.00000000000E+00 -0.41477373118E+03  0.41477373118E+03  0.00000000000E+00 0.  1.
         23    2    1    2    0    0  0.00000000000E+00  0.00000000000E+00 -0.40969677026E+03  0.41985069211E+03  0.91777775631E+02 0.  0.
          2    1    3    3  502    0 -0.83037710442E+01  0.33814653010E+02 -0.68112679277E+02  0.76496538811E+02  0.00000000000E+00 0. -1.
         -2    1    3    3    0  502  0.83037710442E+01 -0.33814653010E+02 -0.34158409098E+03  0.34335415330E+03  0.00000000000E+00 0.  1.
<mgrwt>
<rscale>  0 0.91777776E+02</rscale>
<asrwt>0</asrwt>
<pdfrwt beam="2">  1        2 0.63811336E-01 0.91777776E+02</pdfrwt>
<pdfrwt beam="1">  1       -2 0.78107099E-03 0.91777776E+02</pdfrwt>
<totfact> 0.19871848E+05</totfact>
</mgrwt>
</event>
<event>
 5    1  0.3845386E+001  0.9105183E+02  0.7546771E-02  0.1300324E+00
         -1   -1    0    0    0  501 -0.00000000000E+00  0.00000000000E+00  0.55419389869E+01  0.55419389869E+01  0.00000000000E+00 0.  1.
          1   -1    0    0  501    0  0.00000000000E+00 -0.00000000000E+00 -0.37398624342E+03  0.37398624342E+03  0.00000000000E+00 0. -1.
         23    2    1    2    0    0  0.00000000000E+00  0.00000000000E+00 -0.36844430443E+03  0.37952818241E+03  0.91051830140E+02 0.  0.
          2    1    3    3  502    0  0.43667160087E+02  0.10718355469E+02 -0.21396176221E+03  0.21863517490E+03  0.00000000000E+00 0. -1.
         -2    1    3    3    0  502 -0.43667160087E+02 -0.10718355469E+02 -0.15448254222E+03  0.16089300751E+03  0.00000000000E+00 0.  1.
<mgrwt>
<rscale>  0 0.91051830E+02</rscale>
<asrwt>0</asrwt>
<pdfrwt beam="2">  1        1 0.57536328E-01 0.91051830E+02</pdfrwt>
<pdfrwt beam="1">  1       -1 0.85260626E-03 0.91051830E+02</pdfrwt>
<totfact> 0.13385919E+05</totfact>
</mgrwt>
</event>
<event>
 5    1  0.3845386E+001  0.8854129E+02  0.7546771E-02  0.1306423E+00
         -2   -1    0    0    0  501 -0.00000000000E+00  0.00000000000E+00  0.23709943222E+01  0.23709943222E+01  0.00000000000E+00 0.  1.
          2   -1    0    0  501    0  0.00000000000E+00 -0.00000000000E+00 -0.82661095187E+03  0.82661095187E+03  0.00000000000E+00 0. -1.
         23    2    1    2    0    0  0.00000000000E+00  0.00000000000E+00 -0.82423995755E+03  0.82898194619E+03  0.88541286947E+02 0.  0.
          2    1    3    3  502    0  0.38887295359E+02  0.15947114358E+02 -0.54231067578E+03  0.54393694603E+03  0.00000000000E+00 0. -1.
         -2    1    3    3    0  502 -0.38887295359E+02 -0.15947114358E+02 -0.28192928177E+03  0.28504500016E+03  0.00000000000E+00 0.  1.
<mgrwt>
<rscale>  0 0.88541287E+02</rscale>
<asrwt>0</asrwt>
<pdfrwt beam="2">  1        2 0.12717094E+00 0.88541287E+02</pdfrwt>
<pdfrwt beam="1">  1       -2 0.36476830E-03 0.88541287E+02</pdfrwt>
<totfact> 0.26473947E+05</totfact>
</mgrwt>
</event>
<event>
 5    1  0.3845386E+001  0.9822039E+02  0.7546771E-02  0.1284083E+00
          1   -1    0    0  501    0  0.00000000000E+00  0.00000000000E+00  0.13252866639E+04  0.13252866639E+04  0.00000000000E+00 0. -1.
         -1   -1    0    0    0  501 -0.00000000000E+00 -0.00000000000E+00 -0.18198410360E+01  0.18198410360E+01  0.00000000000E+00 0.  1.
         23    2    1    2    0    0  0.00000000000E+00  0.00000000000E+00  0.13234668229E+04  0.13271065050E+04  0.98220385979E+02 0.  0.
          2    1    3    3  502    0  0.15459814990E+02  0.26668984280E+02  0.14518144532E+03  0.14841796612E+03  0.00000000000E+00 0.  1.
         -2    1    3    3    0  502 -0.15459814990E+02 -0.26668984280E+02  0.11782853776E+04  0.11786885388E+04  0.00000000000E+00 0. -1.
<mgrwt>
<rscale>  0 0.98220386E+02</rscale>
<asrwt>0</asrwt>
<pdfrwt beam="1">  1        1 0.20388948E+00 0.98220386E+02</pdfrwt>
<pdfrwt beam="2">  1       -1 0.27997660E-03 0.98220386E+02</pdfrwt>
<totfact> 0.99045300E+04</totfact>
</mgrwt>
</event>
<event>
 5    1  0.3845386E+001  0.8924477E+02  0.7546771E-02  0.1304691E+00
         -1   -1    0    0    0  501 -0.00000000000E+00  0.00000000000E+00  0.96043808436E+02  0.96043808436E+02  0.00000000000E+00 0.  1.
          1   -1    0    0  501    0  0.00000000000E+00 -0.00000000000E+00 -0.20731759029E+02  0.20731759029E+02  0.00000000000E+00 0. -1.
         23    2    1    2    0    0  0.00000000000E+00  0.00000000000E+00  0.75312049407E+02  0.11677556746E+03  0.89244766630E+02 0.  0.
          2    1    3    3  502    0 -0.41794531946E+02  0.13344808123E+02  0.27002478791E+02  0.51516993947E+02  0.00000000000E+00 0. -1.
         -2    1    3    3    0  502  0.41794531946E+02 -0.13344808123E+02  0.48309570616E+02  0.65258573518E+02  0.00000000000E+00 0.  1.
<mgrwt>
<rscale>  0 0.89244767E+02</rscale>
<asrwt>0</asrwt>
<pdfrwt beam="2">  1        1 0.31895015E-02 0.89244767E+02</pdfrwt>
<pdfrwt beam="1">  1       -1 0.14775970E-01 0.89244767E+02</pdfrwt>
<totfact> 0.86616028E+04</totfact>
</mgrwt>
</event>
<event>
 5    1  0.3845386E+001  0.9393375E+02  0.7546771E-02  0.1293596E+00
          2   -1    0    0  501    0  0.00000000000E+00  0.00000000000E+00  0.33922336196E+02  0.33922336196E+02  0.00000000000E+00 0. -1.
         -2   -1    0    0    0  501 -0.00000000000E+00 -0.00000000000E+00 -0.65027575801E+02  0.65027575801E+02  0.00000000000E+00 0.  1.
         23    2    1    2    0    0  0.00000000000E+00  0.00000000000E+00 -0.31105239605E+02  0.98949911997E+02  0.93933748745E+02 0.  0.
          2    1    3    3  502    0  0.29725657875E+02  0.10680580020E-01  0.22752271153E+02  0.37433683933E+02  0.00000000000E+00 0. -1.
         -2    1    3    3    0  502 -0.29725657875E+02 -0.10680580020E-01 -0.53857510758E+02  0.61516228064E+02  0.00000000000E+00 0.  1.
<mgrwt>
<rscale>  0 0.93933749E+02</rscale>
<asrwt>0</asrwt>
<pdfrwt beam="1">  1        2 0.52188210E-02 0.93933749E+02</pdfrwt>
<pdfrwt beam="2">  1       -2 0.10004242E-01 0.93933749E+02</pdfrwt>
<totfact> 0.83701704E+04</totfact>
</mgrwt>
</event>
<event>
 5    1  0.3845386E+001  0.1109723E+03  0.7546771E-02  0.1258780E+00
         -1   -1    0    0    0  501 -0.00000000000E+00  0.00000000000E+00  0.34618987207E+02  0.34618987207E+02  0.00000000000E+00 0.  1.
          1   -1    0    0  501    0  0.00000000000E+00 -0.00000000000E+00 -0.88931337741E+02  0.88931337741E+02  0.00000000000E+00 0. -1.
         23    2    1    2    0    0  0.00000000000E+00  0.00000000000E+00 -0.54312350534E+02  0.12355032495E+03  0.11097230003E+03 0.  0.
          2    1    3    3  502    0  0.29554373712E+02 -0.41600716767E+02 -0.51411545322E+02  0.72437750058E+02  0.00000000000E+00 0. -1.
         -2    1    3    3    0  502 -0.29554373712E+02  0.41600716767E+02 -0.29008052115E+01  0.51112574891E+02  0.00000000000E+00 0.  1.
<mgrwt>
<rscale>  0 0.11097230E+03</rscale>
<asrwt>0</asrwt>
<pdfrwt beam="2">  1        1 0.13681744E-01 0.11097230E+03</pdfrwt>
<pdfrwt beam="1">  1       -1 0.53259981E-02 0.11097230E+03</pdfrwt>
<totfact> 0.59407998E+04</totfact>
</mgrwt>
</event>
<event>
 5    1  0.3845386E+001  0.9102884E+02  0.7546771E-02  0.1300379E+00
         -1   -1    0    0    0  501 -0.00000000000E+00  0.00000000000E+00  0.50212197212E+02  0.50212197212E+02  0.00000000000E+00 0.  1.
          1   -1    0    0  501    0  0.00000000000E+00 -0.00000000000E+00 -0.41256160489E+02  0.41256160489E+02  0.00000000000E+00 0. -1.
         23    2    1    2    0    0  0.00000000000E+00  0.00000000000E+00  0.89560367230E+01  0.91468357700E+02  0.91028840851E+02 0.  0.
          2    1    3    3  502    0  0.22371814686E+02  0.34822415265E+02 -0.14546536444E+02  0.43871407770E+02  0.00000000000E+00 0. -1.
         -2    1    3    3    0  502 -0.22371814686E+02 -0.34822415265E+02  0.23502573167E+02  0.47596949930E+02  0.00000000000E+00 0.  1.
<mgrwt>
<rscale>  0 0.91028841E+02</rscale>
<asrwt>0</asrwt>
<pdfrwt beam="2">  1        1 0.63471016E-02 0.91028841E+02</pdfrwt>
<pdfrwt beam="1">  1       -1 0.77249534E-02 0.91028841E+02</pdfrwt>
<totfact> 0.91508675E+04</totfact>
</mgrwt>
</event>
<event>
 5    1  0.3845386E+001  0.8952244E+02  0.7546771E-02  0.1304012E+00
         -1   -1    0    0    0  501 -0.00000000000E+00  0.00000000000E+00  0.28687460418E+01  0.28687460418E+01  0.00000000000E+00 0.  1.
          1   -1    0    0  501    0  0.00000000000E+00 -0.00000000000E+00 -0.69841197895E+03  0.69841197895E+03  0.00000000000E+00 0. -1.
         23    2    1    2    0    0  0.00000000000E+00  0.00000000000E+00 -0.69554323291E+03  0.70128072499E+03  0.89522435181E+02 0.  0.
          2    1    3    3  502    0 -0.16338888346E+02  0.41320602115E+02 -0.30543031391E+03  0.30864547313E+03  0.00000000000E+00 0. -1.
         -2    1    3    3    0  502  0.16338888346E+02 -0.41320602115E+02 -0.39011291900E+03  0.39263525186E+03  0.00000000000E+00 0.  1.
<mgrwt>
<rscale>  0 0.89522435E+02</rscale>
<asrwt>0</asrwt>
<pdfrwt beam="2">  1        1 0.10744803E+00 0.89522435E+02</pdfrwt>
<pdfrwt beam="1">  1       -1 0.44134541E-03 0.89522435E+02</pdfrwt>
<totfact> 0.14922589E+05</totfact>
</mgrwt>
</event>
<event>
 5    1  0.3845386E+001  0.9173718E+02  0.7546771E-02  0.1298699E+00
          2   -1    0    0  501    0  0.00000000000E+00  0.00000000000E+00  0.13796105723E+02  0.13796105723E+02  0.00000000000E+00 0. -1.
         -2   -1    0    0    0  501 -0.00000000000E+00 -0.00000000000E+00 -0.15250154040E+03  0.15250154040E+03  0.00000000000E+00 0.  1.
         23    2    1    2    0    0  0.00000000000E+00  0.00000000000E+00 -0.13870543468E+03  0.16629764613E+03  0.91737176201E+02 0.  0.
          2    1    3    3  502    0 -0.10504654157E+02 -0.35794204881E+02 -0.20970159553E+02  0.42793930104E+02  0.00000000000E+00 0. -1.
         -2    1    3    3    0  502  0.10504654157E+02  0.35794204881E+02 -0.11773527513E+03  0.12350371602E+03  0.00000000000E+00 0.  1.
<mgrwt>
<rscale>  0 0.91737176E+02</rscale>
<asrwt>0</asrwt>
<pdfrwt beam="1">  1        2 0.21224777E-02 0.91737176E+02</pdfrwt>
<pdfrwt beam="2">  1       -2 0.23461776E-01 0.91737176E+02</pdfrwt>
<totfact> 0.68364913E+04</totfact>
</mgrwt>
</event>
<event>
 5    1  0.3845386E+001  0.9199071E+02  0.7546771E-02  0.1298101E+00
         -1   -1    0    0    0  501 -0.00000000000E+00  0.00000000000E+00  0.20261197462E+02  0.20261197462E+02  0.00000000000E+00 0.  1.
          1   -1    0    0  501    0  0.00000000000E+00 -0.00000000000E+00 -0.10441499582E+03  0.10441499582E+03  0.00000000000E+00 0. -1.
         23    2    1    2    0    0  0.00000000000E+00  0.00000000000E+00 -0.84153798356E+02  0.12467619328E+03  0.91990713625E+02 0.  0.
          2    1    3    3  502    0  0.21842220390E+02 -0.54481754310E+01 -0.96438420963E+02  0.99030976189E+02  0.00000000000E+00 0. -1.
         -2    1    3    3    0  502 -0.21842220390E+02  0.54481754310E+01  0.12284622607E+02  0.25645217092E+02  0.00000000000E+00 0.  1.
<mgrwt>
<rscale>  0 0.91990714E+02</rscale>
<asrwt>0</asrwt>
<pdfrwt beam="2">  1        1 0.16063845E-01 0.91990714E+02</pdfrwt>
<pdfrwt beam="1">  1       -1 0.31171073E-02 0.91990714E+02</pdfrwt>
<totfact> 0.10268987E+05</totfact>
</mgrwt>
</event>
<event>
 5    1  0.3845386E+001  0.9413475E+02  0.7546771E-02  0.1293137E+00
          2   -1    0    0  501    0  0.00000000000E+00  0.00000000000E+00  0.12168347176E+04  0.12168347176E+04  0.00000000000E+00 0. -1.
         -2   -1    0    0    0  501 -0.00000000000E+00 -0.00000000000E+00 -0.18205741339E+01  0.18205741339E+01  0.00000000000E+00 0.  1.
         23    2    1    2    0    0  0.00000000000E+00  0.00000000000E+00  0.12150141435E+04  0.12186552918E+04  0.94134750484E+02 0.  0.
          2    1    3    3  502    0  0.13294235724E+02  0.37626792183E+02  0.93059009409E+03  0.93144534752E+03  0.00000000000E+00 0. -1.
         -2    1    3    3    0  502 -0.13294235724E+02 -0.37626792183E+02  0.28442404941E+03  0.28720994425E+03  0.00000000000E+00 0.  1.
<mgrwt>
<rscale>  0 0.94134750E+02</rscale>
<asrwt>0</asrwt>
<pdfrwt beam="1">  1        2 0.18720469E+00 0.94134750E+02</pdfrwt>
<pdfrwt beam="2">  1       -2 0.28008930E-03 0.94134750E+02</pdfrwt>
<totfact> 0.22823550E+05</totfact>
</mgrwt>
</event>
<event>
 5    1  0.3845386E+001  0.9294662E+02  0.7546771E-02  0.1295869E+00
          4   -1    0    0  501    0  0.00000000000E+00  0.00000000000E+00  0.13694581082E+01  0.13694581082E+01  0.00000000000E+00 0. -1.
         -4   -1    0    0    0  501 -0.00000000000E+00 -0.00000000000E+00 -0.15770972368E+04  0.15770972368E+04  0.00000000000E+00 0.  1.
         23    2    1    2    0    0  0.00000000000E+00  0.00000000000E+00 -0.15757277787E+04  0.15784666950E+04  0.92946621207E+02 0.  0.
          2    1    3    3  502    0  0.28694758458E+02  0.20251376413E+02 -0.13047186841E+04  0.13051913086E+04  0.00000000000E+00 0.  1.
         -2    1    3    3    0  502 -0.28694758458E+02 -0.20251376413E+02 -0.27100909459E+03  0.27327538631E+03  0.00000000000E+00 0. -1.
<mgrwt>
<rscale>  0 0.92946621E+02</rscale>
<asrwt>0</asrwt>
<pdfrwt beam="1">  1        4 0.21068656E-03 0.92946621E+02</pdfrwt>
<pdfrwt beam="2">  1       -4 0.24262954E+00 0.92946621E+02</pdfrwt>
<totfact> 0.36455928E+03</totfact>
</mgrwt>
</event>
<event>
 5    1  0.3845386E+001  0.9287533E+02  0.7546771E-02  0.1296034E+00
          2   -1    0    0  501    0  0.00000000000E+00  0.00000000000E+00  0.25160801077E+03  0.25160801077E+03  0.00000000000E+00 0. -1.
         -2   -1    0    0    0  501 -0.00000000000E+00 -0.00000000000E+00 -0.85706997490E+01  0.85706997490E+01  0.00000000000E+00 0.  1.
         23    2    1    2    0    0  0.00000000000E+00  0.00000000000E+00  0.24303731102E+03  0.26017871051E+03  0.92875329657E+02 0.  0.
          2    1    3    3  502    0 -0.39064271507E+02 -0.25030419434E+02  0.12706333447E+03  0.13526873316E+03  0.00000000000E+00 0. -1.
         -2    1    3    3    0  502  0.39064271507E+02  0.25030419434E+02  0.11597397655E+03  0.12490997735E+03  0.00000000000E+00 0.  1.
<mgrwt>
<rscale>  0 0.92875330E+02</rscale>
<asrwt>0</asrwt>
<pdfrwt beam="1">  1        2 0.38708919E-01 0.92875330E+02</pdfrwt>
<pdfrwt beam="2">  1       -2 0.13185694E-02 0.92875330E+02</pdfrwt>
<totfact> 0.16013186E+05</totfact>
</mgrwt>
</event>
<event>
 5    1  0.3845386E+001  0.9599878E+02  0.7546771E-02  0.1288942E+00
         -2   -1    0    0    0  501 -0.00000000000E+00  0.00000000000E+00  0.18880600467E+01  0.18880600467E+01  0.00000000000E+00 0.  1.
          2   -1    0    0  501    0  0.00000000000E+00 -0.00000000000E+00 -0.12202691284E+04  0.12202691284E+04  0.00000000000E+00 0. -1.
         23    2    1    2    0    0  0.00000000000E+00  0.00000000000E+00 -0.12183810684E+04  0.12221571885E+04  0.95998778901E+02 0.  0.
          2    1    3    3  502    0  0.30646675312E+02 -0.11722330880E+02 -0.10551942019E+04  0.10557042368E+04  0.00000000000E+00 0. -1.
         -2    1    3    3    0  502 -0.30646675312E+02  0.11722330880E+02 -0.16318686647E+03  0.16645295173E+03  0.00000000000E+00 0.  1.
<mgrwt>
<rscale>  0 0.95998779E+02</rscale>
<asrwt>0</asrwt>
<pdfrwt beam="2">  1        2 0.18773427E+00 0.95998779E+02</pdfrwt>
<pdfrwt beam="1">  1       -2 0.29046992E-03 0.95998779E+02</pdfrwt>
<totfact> 0.21662998E+05</totfact>
</mgrwt>
</event>
<event>
 5    1  0.3845386E+001  0.9052492E+02  0.7546771E-02  0.1301585E+00
          4   -1    0    0  501    0  0.00000000000E+00  0.00000000000E+00  0.14142522562E+01  0.14142522562E+01  0.00000000000E+00 0. -1.
         -4   -1    0    0    0  501 -0.00000000000E+00 -0.00000000000E+00 -0.14486031834E+04  0.14486031834E+04  0.00000000000E+00 0.  1.
         23    2    1    2    0    0  0.00000000000E+00  0.00000000000E+00 -0.14471889312E+04  0.14500174357E+04  0.90524920780E+02 0.  0.
          2    1    3    3  502    0 -0.24689662586E+02 -0.12352339260E+02 -0.14906126466E+03  0.15159624120E+03  0.00000000000E+00 0. -1.
         -2    1    3    3    0  502  0.24689662586E+02  0.12352339260E+02 -0.12981276665E+04  0.12984211945E+04  0.00000000000E+00 0.  1.
<mgrwt>
<rscale>  0 0.90524921E+02</rscale>
<asrwt>0</asrwt>
<pdfrwt beam="1">  1        4 0.21757847E-03 0.90524921E+02</pdfrwt>
<pdfrwt beam="2">  1       -4 0.22286080E+00 0.90524921E+02</pdfrwt>
<totfact> 0.44953429E+03</totfact>
</mgrwt>
</event>
<event>
 5    1  0.3845386E+001  0.9008903E+02  0.7546771E-02  0.1302636E+00
         -2   -1    0    0    0  501 -0.00000000000E+00  0.00000000000E+00  0.24943258503E+01  0.24943258503E+01  0.00000000000E+00 0. -1.
          2   -1    0    0  501    0  0.00000000000E+00 -0.00000000000E+00 -0.81344954485E+03  0.81344954485E+03  0.00000000000E+00 0.  1.
         23    2    1    2    0    0  0.00000000000E+00  0.00000000000E+00 -0.81095521900E+03  0.81594387070E+03  0.90089027693E+02 0.  0.
          2    1    3    3  502    0  0.31451374234E+02 -0.44410966591E+01 -0.11620394604E+03  0.12046688075E+03  0.00000000000E+00 0. -1.
         -2    1    3    3    0  502 -0.31451374234E+02  0.44410966591E+01 -0.69475127296E+03  0.69547698996E+03  0.00000000000E+00 0.  1.
<mgrwt>
<rscale>  0 0.90089028E+02</rscale>
<asrwt>0</asrwt>
<pdfrwt beam="2">  1        2 0.12514605E+00 0.90089028E+02</pdfrwt>
<pdfrwt beam="1">  1       -2 0.38374253E-03 0.90089028E+02</pdfrwt>
<totfact> 0.25228648E+05</totfact>
</mgrwt>
</event>
<event>
 5    1  0.3845386E+001  0.9417629E+02  0.7546771E-02  0.1293042E+00
         -2   -1    0    0    0  501 -0.00000000000E+00  0.00000000000E+00  0.90230761962E+01  0.90230761962E+01  0.00000000000E+00 0.  1.
          2   -1    0    0  501    0  0.00000000000E+00 -0.00000000000E+00 -0.24573585129E+03  0.24573585129E+03  0.00000000000E+00 0. -1.
         23    2    1    2    0    0  0.00000000000E+00  0.00000000000E+00 -0.23671277509E+03  0.25475892748E+03  0.94176288105E+02 0.  0.
          2    1    3    3  502    0 -0.42929136220E+02  0.18725143212E+02 -0.10517278370E+03  0.11512973619E+03  0.00000000000E+00 0.  1.
         -2    1    3    3    0  502  0.42929136220E+02 -0.18725143212E+02 -0.13153999139E+03  0.13962919129E+03  0.00000000000E+00 0. -1.
<mgrwt>
<rscale>  0 0.94176288E+02</rscale>
<asrwt>0</asrwt>
<pdfrwt beam="2">  1        2 0.37805515E-01 0.94176288E+02</pdfrwt>
<pdfrwt beam="1">  1       -2 0.13881656E-02 0.94176288E+02</pdfrwt>
<totfact> 0.15290800E+05</totfact>
</mgrwt>
</event>
<event>
 5    1  0.3845386E+001  0.8907215E+02  0.7546771E-02  0.1305114E+00
          2   -1    0    0  501    0  0.00000000000E+00  0.00000000000E+00  0.13806509973E+03  0.13806509973E+03  0.00000000000E+00 0. -1.
         -2   -1    0    0    0  501 -0.00000000000E+00 -0.00000000000E+00 -0.14366135524E+02  0.14366135524E+02  0.00000000000E+00 0.  1.
         23    2    1    2    0    0  0.00000000000E+00  0.00000000000E+00  0.12369896421E+03  0.15243123526E+03  0.89072149045E+02 0.  0.
          2    1    3    3  502    0  0.19154985435E+02  0.12401388560E+02  0.12730069361E+03  0.12932971236E+03  0.00000000000E+00 0. -1.
         -2    1    3    3    0  502 -0.19154985435E+02 -0.12401388560E+02 -0.36017294075E+01  0.23101522892E+02  0.00000000000E+00 0.  1.
<mgrwt>
<rscale>  0 0.89072149E+02</rscale>
<asrwt>0</asrwt>
<pdfrwt beam="1">  1        2 0.21240784E-01 0.89072149E+02</pdfrwt>
<pdfrwt beam="2">  1       -2 0.22101748E-02 0.89072149E+02</pdfrwt>
<totfact> 0.14486020E+05</totfact>
</mgrwt>
</event>
<event>
 5    1  0.3845386E+001  0.9251358E+02  0.7546771E-02  0.1296876E+00
         -1   -1    0    0    0  501 -0.00000000000E+00  0.00000000000E+00  0.48811480547E+01  0.48811480547E+01  0.00000000000E+00 0. -1.
          1   -1    0    0  501    0  0.00000000000E+00 -0.00000000000E+00 -0.43835804195E+03  0.43835804195E+03  0.00000000000E+00 0.  1.
         23    2    1    2    0    0  0.00000000000E+00  0.00000000000E+00 -0.43347689389E+03  0.44323919000E+03  0.92513577463E+02 0.  0.
          2    1    3    3  502    0 -0.43375934049E+02 -0.11916175999E+02 -0.26838957805E+03  0.27213311543E+03  0.00000000000E+00 0.  1.
         -2    1    3    3    0  502  0.43375934049E+02  0.11916175999E+02 -0.16508731584E+03  0.17110607458E+03  0.00000000000E+00 0. -1.
<mgrwt>
<rscale>  0 0.92513577E+02</rscale>
<asrwt>0</asrwt>
<pdfrwt beam="2">  1        1 0.67439704E-01 0.92513577E+02</pdfrwt>
<pdfrwt beam="1">  1       -1 0.75094580E-03 0.92513577E+02</pdfrwt>
<totfact> 0.13164604E+05</totfact>
</mgrwt>
</event>
<event>
 5    1  0.3845386E+001  0.9144934E+02  0.7546771E-02  0.1299379E+00
          2   -1    0    0  501    0  0.00000000000E+00  0.00000000000E+00  0.75393719649E+03  0.75393719649E+03  0.00000000000E+00 0. -1.
         -2   -1    0    0    0  501 -0.00000000000E+00 -0.00000000000E+00 -0.27731028927E+01  0.27731028927E+01  0.00000000000E+00 0.  1.
         23    2    1    2    0    0  0.00000000000E+00  0.00000000000E+00  0.75116409360E+03  0.75671029939E+03  0.91449339430E+02 0.  0.
          2    1    3    3  502    0 -0.43490822818E+02 -0.10904135760E+02  0.44977450174E+03  0.45200382107E+03  0.00000000000E+00 0. -1.
         -2    1    3    3    0  502  0.43490822818E+02  0.10904135760E+02  0.30138959186E+03  0.30470647831E+03  0.00000000000E+00 0.  1.
<mgrwt>
<rscale>  0 0.91449339E+02</rscale>
<asrwt>0</asrwt>
<pdfrwt beam="1">  1        2 0.11599017E+00 0.91449339E+02</pdfrwt>
<pdfrwt beam="2">  1       -2 0.42663182E-03 0.91449339E+02</pdfrwt>
<totfact> 0.23912655E+05</totfact>
</mgrwt>
</event>
<event>
 5    1  0.3845386E+001  0.8985254E+02  0.7546771E-02  0.1303209E+00
          2   -1    0    0  501    0  0.00000000000E+00  0.00000000000E+00  0.14662990739E+04  0.14662990739E+04  0.00000000000E+00 0. -1.
         -2   -1    0    0    0  501 -0.00000000000E+00 -0.00000000000E+00 -0.13765060991E+01  0.13765060991E+01  0.00000000000E+00 0.  1.
         23    2    1    2    0    0  0.00000000000E+00  0.00000000000E+00  0.14649225678E+04  0.14676755800E+04  0.89852537377E+02 0.  0.
          2    1    3    3  502    0 -0.38336240080E+02  0.11282554688E+02  0.10677741527E+04  0.10685216912E+04  0.00000000000E+00 0. -1.
         -2    1    3    3    0  502  0.38336240080E+02 -0.11282554688E+02  0.39714841508E+03  0.39915388880E+03  0.00000000000E+00 0.  1.
<mgrwt>
<rscale>  0 0.89852537E+02</rscale>
<asrwt>0</asrwt>
<pdfrwt beam="1">  1        2 0.22558322E+00 0.89852537E+02</pdfrwt>
<pdfrwt beam="2">  1       -2 0.21177134E-03 0.89852537E+02</pdfrwt>
<totfact> 0.24726027E+05</totfact>
</mgrwt>
</event>
<event>
 5    1  0.3845386E+001  0.1123471E+03  0.7546771E-02  0.1256284E+00
         -1   -1    0    0    0  501 -0.00000000000E+00  0.00000000000E+00  0.13210765761E+01  0.13210765761E+01  0.00000000000E+00 0.  1.
          1   -1    0    0  501    0  0.00000000000E+00 -0.00000000000E+00 -0.23885566965E+04  0.23885566965E+04  0.00000000000E+00 0. -1.
         23    2    1    2    0    0  0.00000000000E+00  0.00000000000E+00 -0.23872356199E+04  0.23898777730E+04  0.11234707477E+03 0.  0.
          2    1    3    3  502    0 -0.48016077602E+02  0.69887040648E+01 -0.59154081832E+03  0.59352752710E+03  0.00000000000E+00 0.  1.
         -2    1    3    3    0  502  0.48016077602E+02 -0.69887040648E+01 -0.17956948016E+04  0.17963502459E+04  0.00000000000E+00 0. -1.
<mgrwt>
<rscale>  0 0.11234707E+03</rscale>
<asrwt>0</asrwt>
<pdfrwt beam="2">  1        1 0.36747270E+00 0.11234707E+03</pdfrwt>
<pdfrwt beam="1">  1       -1 0.20324120E-03 0.11234707E+03</pdfrwt>
<totfact> 0.33023020E+04</totfact>
</mgrwt>
</event>
<event>
 5    1  0.3845386E+001  0.9034222E+02  0.7546771E-02  0.1302025E+00
         -1   -1    0    0    0  501 -0.00000000000E+00  0.00000000000E+00  0.40933231279E+01  0.40933231279E+01  0.00000000000E+00 0.  1.
          1   -1    0    0  501    0  0.00000000000E+00 -0.00000000000E+00 -0.49847737393E+03  0.49847737393E+03  0.00000000000E+00 0. -1.
         23    2    1    2    0    0  0.00000000000E+00  0.00000000000E+00 -0.49438405080E+03  0.50257069706E+03  0.90342215235E+02 0.  0.
          2    1    3    3  502    0 -0.12966343760E+01  0.42600114366E+02 -0.33044678452E+03  0.33318392579E+03  0.00000000000E+00 0. -1.
         -2    1    3    3    0  502  0.12966343760E+01 -0.42600114366E+02 -0.16393726628E+03  0.16938677127E+03  0.00000000000E+00 0.  1.
<mgrwt>
<rscale>  0 0.90342215E+02</rscale>
<asrwt>0</asrwt>
<pdfrwt beam="2">  1        1 0.76688770E-01 0.90342215E+02</pdfrwt>
<pdfrwt beam="1">  1       -1 0.62974248E-03 0.90342215E+02</pdfrwt>
<totfact> 0.14264654E+05</totfact>
</mgrwt>
</event>
<event>
 5    1  0.3845386E+001  0.9173841E+02  0.7546771E-02  0.1298696E+00
         -1   -1    0    0    0  501 -0.00000000000E+00  0.00000000000E+00  0.40188178851E+01  0.40188178851E+01  0.00000000000E+00 0.  1.
          1   -1    0    0  501    0  0.00000000000E+00 -0.00000000000E+00 -0.52353299159E+03  0.52353299159E+03  0.00000000000E+00 0. -1.
         23    2    1    2    0    0  0.00000000000E+00  0.00000000000E+00 -0.51951417371E+03  0.52755180948E+03  0.91738405263E+02 0.  0.
          2    1    3    3  502    0  0.12949950918E+02  0.38163213983E+02 -0.38572716920E+03  0.38782674120E+03  0.00000000000E+00 0. -1.
         -2    1    3    3    0  502 -0.12949950918E+02 -0.38163213983E+02 -0.13378700451E+03  0.13972506828E+03  0.00000000000E+00 0.  1.
<mgrwt>
<rscale>  0 0.91738405E+02</rscale>
<asrwt>0</asrwt>
<pdfrwt beam="2">  1        1 0.80543523E-01 0.91738405E+02</pdfrwt>
<pdfrwt beam="1">  1       -1 0.61827978E-03 0.91738405E+02</pdfrwt>
<totfact> 0.13772291E+05</totfact>
</mgrwt>
</event>
<event>
 5    1  0.3845386E+001  0.9229784E+02  0.7546771E-02  0.1297381E+00
          2   -1    0    0  501    0  0.00000000000E+00  0.00000000000E+00  0.39503617411E+01  0.39503617411E+01  0.00000000000E+00 0. -1.
         -2   -1    0    0    0  501 -0.00000000000E+00 -0.00000000000E+00 -0.53912098022E+03  0.53912098022E+03  0.00000000000E+00 0.  1.
         23    2    1    2    0    0  0.00000000000E+00  0.00000000000E+00 -0.53517061848E+03  0.54307134196E+03  0.92297841666E+02 0.  0.
          2    1    3    3  502    0 -0.13532517830E+01  0.27588702278E+02 -0.50059549916E+02  0.57174525110E+02  0.00000000000E+00 0. -1.
         -2    1    3    3    0  502  0.13532517830E+01 -0.27588702278E+02 -0.48511106856E+03  0.48589681685E+03  0.00000000000E+00 0.  1.
<mgrwt>
<rscale>  0 0.92297842E+02</rscale>
<asrwt>0</asrwt>
<pdfrwt beam="1">  1        2 0.60774826E-03 0.92297842E+02</pdfrwt>
<pdfrwt beam="2">  1       -2 0.82941649E-01 0.92297842E+02</pdfrwt>
<totfact> 0.33125693E+04</totfact>
</mgrwt>
</event>
<event>
 5    1  0.3845386E+001  0.9164705E+02  0.7546771E-02  0.1298911E+00
         -2   -1    0    0    0  501 -0.00000000000E+00  0.00000000000E+00  0.52667481303E+02  0.52667481303E+02  0.00000000000E+00 0.  1.
          2   -1    0    0  501    0  0.00000000000E+00 -0.00000000000E+00 -0.39868919238E+02  0.39868919238E+02  0.00000000000E+00 0. -1.
         23    2    1    2    0    0  0.00000000000E+00  0.00000000000E+00  0.12798562066E+02  0.92536400541E+02  0.91647052512E+02 0.  0.
          2    1    3    3  502    0 -0.43337852299E+02  0.40402427161E+01 -0.80681452422E+01  0.44267233602E+02  0.00000000000E+00 0.  1.
         -2    1    3    3    0  502  0.43337852299E+02 -0.40402427161E+01  0.20866707308E+02  0.48269166939E+02  0.00000000000E+00 0. -1.
<mgrwt>
<rscale>  0 0.91647053E+02</rscale>
<asrwt>0</asrwt>
<pdfrwt beam="2">  1        2 0.61336799E-02 0.91647053E+02</pdfrwt>
<pdfrwt beam="1">  1       -2 0.81026894E-02 0.91647053E+02</pdfrwt>
<totfact> 0.93895366E+04</totfact>
</mgrwt>
</event>
<event>
 5    1  0.3845386E+001  0.9384595E+02  0.7546771E-02  0.1293797E+00
         -2   -1    0    0    0  501 -0.00000000000E+00  0.00000000000E+00  0.12104789315E+03  0.12104789315E+03  0.00000000000E+00 0.  1.
          2   -1    0    0  501    0  0.00000000000E+00 -0.00000000000E+00 -0.18189209119E+02  0.18189209119E+02  0.00000000000E+00 0. -1.
         23    2    1    2    0    0  0.00000000000E+00  0.00000000000E+00  0.10285868403E+03  0.13923710226E+03  0.93845946995E+02 0.  0.
          2    1    3    3  502    0 -0.35047165534E+02  0.30595302357E+02  0.42357155267E+02  0.62916650743E+02  0.00000000000E+00 0. -1.
         -2    1    3    3    0  502  0.35047165534E+02 -0.30595302357E+02  0.60501528760E+02  0.76320451522E+02  0.00000000000E+00 0.  1.
<mgrwt>
<rscale>  0 0.93845947E+02</rscale>
<asrwt>0</asrwt>
<pdfrwt beam="2">  1        2 0.27983399E-02 0.93845947E+02</pdfrwt>
<pdfrwt beam="1">  1       -2 0.18622752E-01 0.93845947E+02</pdfrwt>
<totfact> 0.69945408E+04</totfact>
</mgrwt>
</event>
<event>
 5    1  0.3845386E+001  0.8902475E+02  0.7546771E-02  0.1305231E+00
          1   -1    0    0  501    0  0.00000000000E+00  0.00000000000E+00  0.56029025395E+02  0.56029025395E+02  0.00000000000E+00 0. -1.
         -1   -1    0    0    0  501 -0.00000000000E+00 -0.00000000000E+00 -0.35362951924E+02  0.35362951924E+02  0.00000000000E+00 0.  1.
         23    2    1    2    0    0  0.00000000000E+00  0.00000000000E+00  0.20666073471E+02  0.91391977318E+02  0.89024754565E+02 0.  0.
          2    1    3    3  502    0 -0.21449101160E+02 -0.23443932449E+02  0.42333528031E+02  0.52932121672E+02  0.00000000000E+00 0. -1.
         -2    1    3    3    0  502  0.21449101160E+02  0.23443932449E+02 -0.21667454560E+02  0.38459855646E+02  0.00000000000E+00 0.  1.
<mgrwt>
<rscale>  0 0.89024755E+02</rscale>
<asrwt>0</asrwt>
<pdfrwt beam="1">  1        1 0.86198501E-02 0.89024755E+02</pdfrwt>
<pdfrwt beam="2">  1       -1 0.54404541E-02 0.89024755E+02</pdfrwt>
<totfact> 0.10191474E+05</totfact>
</mgrwt>
</event>
<event>
 5    1  0.3845386E+001  0.9303122E+02  0.7546771E-02  0.1295673E+00
          3   -1    0    0  501    0  0.00000000000E+00  0.00000000000E+00  0.12079891922E+03  0.12079891922E+03  0.00000000000E+00 0. -1.
         -3   -1    0    0    0  501 -0.00000000000E+00 -0.00000000000E+00 -0.17911600572E+02  0.17911600572E+02  0.00000000000E+00 0.  1.
         23    2    1    2    0    0  0.00000000000E+00  0.00000000000E+00  0.10288731865E+03  0.13871051979E+03  0.93031220363E+02 0.  0.
          2    1    3    3  502    0  0.27854407457E+02  0.34157684411E+02  0.73613463834E+02  0.85799519094E+02  0.00000000000E+00 0. -1.
         -2    1    3    3    0  502 -0.27854407457E+02 -0.34157684411E+02  0.29273854812E+02  0.52911000696E+02  0.00000000000E+00 0.  1.
<mgrwt>
<rscale>  0 0.93031220E+02</rscale>
<asrwt>0</asrwt>
<pdfrwt beam="1">  1        3 0.18584449E-01 0.93031220E+02</pdfrwt>
<pdfrwt beam="2">  1       -3 0.27556309E-02 0.93031220E+02</pdfrwt>
<totfact> 0.30307422E+04</totfact>
</mgrwt>
</event>
<event>
 5    1  0.3845386E+001  0.9264328E+02  0.7546771E-02  0.1296574E+00
          2   -1    0    0  501    0  0.00000000000E+00  0.00000000000E+00  0.55243606262E+02  0.55243606262E+02  0.00000000000E+00 0. -1.
         -2   -1    0    0    0  501 -0.00000000000E+00 -0.00000000000E+00 -0.38840594264E+02  0.38840594264E+02  0.00000000000E+00 0.  1.
         23    2    1    2    0    0  0.00000000000E+00  0.00000000000E+00  0.16403011998E+02  0.94084200526E+02  0.92643283545E+02 0.  0.
          2    1    3    3  502    0 -0.10233918073E+02  0.20230546262E+02 -0.32820898106E+02  0.39890091924E+02  0.00000000000E+00 0.  1.
         -2    1    3    3    0  502  0.10233918073E+02 -0.20230546262E+02  0.49223910104E+02  0.54194108602E+02  0.00000000000E+00 0. -1.
<mgrwt>
<rscale>  0 0.92643284E+02</rscale>
<asrwt>0</asrwt>
<pdfrwt beam="1">  1        2 0.84990164E-02 0.92643284E+02</pdfrwt>
<pdfrwt beam="2">  1       -2 0.59754760E-02 0.92643284E+02</pdfrwt>
<totfact> 0.99163199E+04</totfact>
</mgrwt>
</event>
<event>
 5    1  0.3845386E+001  0.8967648E+02  0.7546771E-02  0.1303637E+00
          2   -1    0    0  501    0  0.00000000000E+00  0.00000000000E+00  0.60252088474E+01  0.60252088474E+01  0.00000000000E+00 0. -1.
         -2   -1    0    0    0  501 -0.00000000000E+00 -0.00000000000E+00 -0.33367602569E+03  0.33367602569E+03  0.00000000000E+00 0.  1.
         23    2    1    2    0    0  0.00000000000E+00  0.00000000000E+00 -0.32765081684E+03  0.33970123454E+03  0.89676479462E+02 0.  0.
          2    1    3    3  502    0  0.42647014030E+01  0.37711619440E+02 -0.73377326695E+02  0.82611052479E+02  0.00000000000E+00 0. -1.
         -2    1    3    3    0  502 -0.42647014030E+01 -0.37711619440E+02 -0.25427349015E+03  0.25709018206E+03  0.00000000000E+00 0.  1.
<mgrwt>
<rscale>  0 0.89676479E+02</rscale>
<asrwt>0</asrwt>
<pdfrwt beam="1">  1        2 0.92695534E-03 0.89676479E+02</pdfrwt>
<pdfrwt beam="2">  1       -2 0.51334766E-01 0.89676479E+02</pdfrwt>
<totfact> 0.50031435E+04</totfact>
</mgrwt>
</event>
<event>
 5    1  0.3845386E+001  0.8971230E+02  0.7546771E-02  0.1303550E+00
         -2   -1    0    0    0  501 -0.00000000000E+00  0.00000000000E+00  0.15372239565E+02  0.15372239565E+02  0.00000000000E+00 0.  1.
          2   -1    0    0  501    0  0.00000000000E+00 -0.00000000000E+00 -0.13089010486E+03  0.13089010486E+03  0.00000000000E+00 0. -1.
         23    2    1    2    0    0  0.00000000000E+00  0.00000000000E+00 -0.11551786529E+03  0.14626234442E+03  0.89712296783E+02 0.  0.
          2    1    3    3  502    0 -0.21292046531E+02 -0.24070906477E+02 -0.10877906667E+03  0.11342682720E+03  0.00000000000E+00 0. -1.
         -2    1    3    3    0  502  0.21292046531E+02  0.24070906477E+02 -0.67387986231E+01  0.32835517218E+02  0.00000000000E+00 0.  1.
<mgrwt>
<rscale>  0 0.89712297E+02</rscale>
<asrwt>0</asrwt>
<pdfrwt beam="2">  1        2 0.20136939E-01 0.89712297E+02</pdfrwt>
<pdfrwt beam="1">  1       -2 0.23649600E-02 0.89712297E+02</pdfrwt>
<totfact> 0.13959694E+05</totfact>
</mgrwt>
</event>
<event>
 5    1  0.3845386E+001  0.9030061E+02  0.7546771E-02  0.1302125E+00
         -4   -1    0    0    0  501 -0.00000000000E+00  0.00000000000E+00  0.55302166565E+01  0.55302166565E+01  0.00000000000E+00 0.  1.
          4   -1    0    0  501    0  0.00000000000E+00 -0.00000000000E+00 -0.36862025071E+03  0.36862025071E+03  0.00000000000E+00 0. -1.
         23    2    1    2    0    0  0.00000000000E+00  0.00000000000E+00 -0.36309003406E+03  0.37415046737E+03  0.90300605766E+02 0.  0.
          2    1    3    3  502    0 -0.38727200933E+02 -0.52053712674E+01 -0.87822173419E+02  0.96122973977E+02  0.00000000000E+00 0. -1.
         -2    1    3    3    0  502  0.38727200933E+02  0.52053712674E+01 -0.27526786064E+03  0.27802749339E+03  0.00000000000E+00 0.  1.
<mgrwt>
<rscale>  0 0.90300606E+02</rscale>
<asrwt>0</asrwt>
<pdfrwt beam="2">  1        4 0.56710810E-01 0.90300606E+02</pdfrwt>
<pdfrwt beam="1">  1       -4 0.85080253E-03 0.90300606E+02</pdfrwt>
<totfact> 0.16182300E+04</totfact>
</mgrwt>
</event>
<event>
 5    1  0.3845386E+001  0.1200319E+03  0.7546771E-02  0.1243044E+00
         -2   -1    0    0    0  501 -0.00000000000E+00  0.00000000000E+00  0.55190574850E+01  0.55190574850E+01  0.00000000000E+00 0.  1.
          2   -1    0    0  501    0  0.00000000000E+00 -0.00000000000E+00 -0.65263180631E+03  0.65263180631E+03  0.00000000000E+00 0. -1.
         23    2    1    2    0    0  0.00000000000E+00  0.00000000000E+00 -0.64711274882E+03  0.65815086379E+03  0.12003187003E+03 0.  0.
          2    1    3    3  502    0 -0.23351809333E+01 -0.53387640767E+02 -0.47333922536E+03  0.47634621393E+03  0.00000000000E+00 0. -1.
         -2    1    3    3    0  502  0.23351809333E+01  0.53387640767E+02 -0.17377352346E+03  0.18180464986E+03  0.00000000000E+00 0.  1.
<mgrwt>
<rscale>  0 0.12003187E+03</rscale>
<asrwt>0</asrwt>
<pdfrwt beam="2">  1        2 0.10040488E+00 0.12003187E+03</pdfrwt>
<pdfrwt beam="1">  1       -2 0.84908592E-03 0.12003187E+03</pdfrwt>
<totfact> 0.11166965E+05</totfact>
</mgrwt>
</event>
<event>
 5    1  0.3845386E+001  0.1153697E+03  0.7546771E-02  0.1250937E+00
          2   -1    0    0  501    0  0.00000000000E+00  0.00000000000E+00  0.25321840614E+01  0.25321840614E+01  0.00000000000E+00 0. -1.
         -2   -1    0    0    0  501 -0.00000000000E+00 -0.00000000000E+00 -0.13140989385E+04  0.13140989385E+04  0.00000000000E+00 0.  1.
         23    2    1    2    0    0  0.00000000000E+00  0.00000000000E+00 -0.13115667545E+04  0.13166311226E+04  0.11536967344E+03 0.  0.
          2    1    3    3  502    0 -0.44019090404E+00  0.44308677310E+02 -0.23428723380E+03  0.23844068565E+03  0.00000000000E+00 0. -1.
         -2    1    3    3    0  502  0.44019090404E+00 -0.44308677310E+02 -0.10772795207E+04  0.10781904369E+04  0.00000000000E+00 0.  1.
<mgrwt>
<rscale>  0 0.11536967E+03</rscale>
<asrwt>0</asrwt>
<pdfrwt beam="1">  1        2 0.38956701E-03 0.11536967E+03</pdfrwt>
<pdfrwt beam="2">  1       -2 0.20216895E+00 0.11536967E+03</pdfrwt>
<totfact> 0.70330821E+03</totfact>
</mgrwt>
</event>
<event>
 5    1  0.3845386E+001  0.9405184E+02  0.7546771E-02  0.1293326E+00
          1   -1    0    0  501    0  0.00000000000E+00  0.00000000000E+00  0.10730362068E+03  0.10730362068E+03  0.00000000000E+00 0. -1.
         -1   -1    0    0    0  501 -0.00000000000E+00 -0.00000000000E+00 -0.20609156614E+02  0.20609156614E+02  0.00000000000E+00 0.  1.
         23    2    1    2    0    0  0.00000000000E+00  0.00000000000E+00  0.86694464066E+02  0.12791277729E+03  0.94051839404E+02 0.  0.
          2    1    3    3  502    0 -0.85828562386E+01  0.40489735965E+02  0.12986295319E+02  0.43378888942E+02  0.00000000000E+00 0.  1.
         -2    1    3    3    0  502  0.85828562386E+01 -0.40489735965E+02  0.73708168747E+02  0.84533888351E+02  0.00000000000E+00 0. -1.
<mgrwt>
<rscale>  0 0.94051839E+02</rscale>
<asrwt>0</asrwt>
<pdfrwt beam="1">  1        1 0.16508249E-01 0.94051839E+02</pdfrwt>
<pdfrwt beam="2">  1       -1 0.31706395E-02 0.94051839E+02</pdfrwt>
<totfact> 0.97109896E+04</totfact>
</mgrwt>
</event>
<event>
 5    1  0.3845386E+001  0.9559709E+02  0.7546771E-02  0.1289837E+00
          2   -1    0    0  501    0  0.00000000000E+00  0.00000000000E+00  0.26843708653E+03  0.26843708653E+03  0.00000000000E+00 0.  1.
         -2   -1    0    0    0  501 -0.00000000000E+00 -0.00000000000E+00 -0.85111215407E+01  0.85111215407E+01  0.00000000000E+00 0. -1.
         23    2    1    2    0    0  0.00000000000E+00  0.00000000000E+00  0.25992596499E+03  0.27694820807E+03  0.95597085091E+02 0.  0.
          2    1    3    3  502    0 -0.18360120127E+02  0.19536068273E+02  0.15321267600E+02  0.30878685457E+02  0.00000000000E+00 0. -1.
         -2    1    3    3    0  502  0.18360120127E+02 -0.19536068273E+02  0.24460469739E+03  0.24606952261E+03  0.00000000000E+00 0.  1.
<mgrwt>
<rscale>  0 0.95597085E+02</rscale>
<asrwt>0</asrwt>
<pdfrwt beam="1">  1        2 0.41298007E-01 0.95597085E+02</pdfrwt>
<pdfrwt beam="2">  1       -2 0.13094035E-02 0.95597085E+02</pdfrwt>
<totfact> 0.15180461E+05</totfact>
</mgrwt>
</event>
<event>
 5    1  0.3845386E+001  0.9708883E+02  0.7546771E-02  0.1286540E+00
          2   -1    0    0  501    0  0.00000000000E+00  0.00000000000E+00  0.16294095418E+03  0.16294095418E+03  0.00000000000E+00 0. -1.
         -2   -1    0    0    0  501 -0.00000000000E+00 -0.00000000000E+00 -0.14462662345E+02  0.14462662345E+02  0.00000000000E+00 0.  1.
         23    2    1    2    0    0  0.00000000000E+00  0.00000000000E+00  0.14847829183E+03  0.17740361652E+03  0.97088825359E+02 0.  0.
          2    1    3    3  502    0 -0.36814182597E+02  0.22291012312E+01  0.13191444142E+03  0.13697325574E+03  0.00000000000E+00 0. -1.
         -2    1    3    3    0  502  0.36814182597E+02 -0.22291012312E+01  0.16563850412E+02  0.40430360783E+02  0.00000000000E+00 0.  1.
<mgrwt>
<rscale>  0 0.97088825E+02</rscale>
<asrwt>0</asrwt>
<pdfrwt beam="1">  1        2 0.25067838E-01 0.97088825E+02</pdfrwt>
<pdfrwt beam="2">  1       -2 0.22250251E-02 0.97088825E+02</pdfrwt>
<totfact> 0.12124353E+05</totfact>
</mgrwt>
</event>
<event>
 5    1  0.3845386E+001  0.9613067E+02  0.7546771E-02  0.1288650E+00
          1   -1    0    0  501    0  0.00000000000E+00  0.00000000000E+00  0.40265921075E+02  0.40265921075E+02  0.00000000000E+00 0. -1.
         -1   -1    0    0    0  501 -0.00000000000E+00 -0.00000000000E+00 -0.57375474509E+02  0.57375474509E+02  0.00000000000E+00 0.  1.
         23    2    1    2    0    0  0.00000000000E+00  0.00000000000E+00 -0.17109553434E+02  0.97641395584E+02  0.96130667910E+02 0.  0.
          2    1    3    3  502    0  0.16972305937E+02  0.23024788262E+02  0.30679669969E+02  0.41945705295E+02  0.00000000000E+00 0. -1.
         -2    1    3    3    0  502 -0.16972305937E+02 -0.23024788262E+02 -0.47789223403E+02  0.55695690289E+02  0.00000000000E+00 0.  1.
<mgrwt>
<rscale>  0 0.96130668E+02</rscale>
<asrwt>0</asrwt>
<pdfrwt beam="1">  1        1 0.61947571E-02 0.96130668E+02</pdfrwt>
<pdfrwt beam="2">  1       -1 0.88269961E-02 0.96130668E+02</pdfrwt>
<totfact> 0.78096960E+04</totfact>
</mgrwt>
</event>
<event>
 5    1  0.3845386E+001  0.8863831E+02  0.7546771E-02  0.1306183E+00
         -2   -1    0    0    0  501 -0.00000000000E+00  0.00000000000E+00  0.78505981274E+01  0.78505981274E+01  0.00000000000E+00 0.  1.
          2   -1    0    0  501    0  0.00000000000E+00 -0.00000000000E+00 -0.25019593133E+03  0.25019593133E+03  0.00000000000E+00 0. -1.
         23    2    1    2    0    0  0.00000000000E+00  0.00000000000E+00 -0.24234533320E+03  0.25804652946E+03  0.88638314740E+02 0.  0.
          2    1    3    3  502    0  0.43231670162E+02 -0.83150574319E+01 -0.13603711923E+03  0.14298326928E+03  0.00000000000E+00 0. -1.
         -2    1    3    3    0  502 -0.43231670162E+02  0.83150574319E+01 -0.10630821398E+03  0.11506326018E+03  0.00000000000E+00 0.  1.
<mgrwt>
<rscale>  0 0.88638315E+02</rscale>
<asrwt>0</asrwt>
<pdfrwt beam="2">  1        2 0.38491681E-01 0.88638315E+02</pdfrwt>
<pdfrwt beam="1">  1       -2 0.12077844E-02 0.88638315E+02</pdfrwt>
<totfact> 0.18106814E+05</totfact>
</mgrwt>
</event>
<event>
 5    1  0.3845386E+001  0.9262701E+02  0.7546771E-02  0.1296612E+00
          3   -1    0    0  501    0  0.00000000000E+00  0.00000000000E+00  0.47098744390E+02  0.47098744390E+02  0.00000000000E+00 0.  1.
         -3   -1    0    0    0  501 -0.00000000000E+00 -0.00000000000E+00 -0.45541352667E+02  0.45541352667E+02  0.00000000000E+00 0. -1.
         23    2    1    2    0    0  0.00000000000E+00  0.00000000000E+00  0.15573917230E+01  0.92640097057E+02  0.92627005316E+02 0.  0.
          2    1    3    3  502    0 -0.15616645282E+02  0.34881538249E+02 -0.25384879358E+02  0.45880207285E+02  0.00000000000E+00 0. -1.
         -2    1    3    3    0  502  0.15616645282E+02 -0.34881538249E+02  0.26942271081E+02  0.46759889772E+02  0.00000000000E+00 0.  1.
<mgrwt>
<rscale>  0 0.92627005E+02</rscale>
<asrwt>0</asrwt>
<pdfrwt beam="1">  1        3 0.72459607E-02 0.92627005E+02</pdfrwt>
<pdfrwt beam="2">  1       -3 0.70063619E-02 0.92627005E+02</pdfrwt>
<totfact> 0.33740226E+04</totfact>
</mgrwt>
</event>
<event>
 5    1  0.3845386E+001  0.9077406E+02  0.7546771E-02  0.1300988E+00
         -3   -1    0    0    0  501 -0.00000000000E+00  0.00000000000E+00  0.87839862587E+02  0.87839862587E+02  0.00000000000E+00 0.  1.
          3   -1    0    0  501    0  0.00000000000E+00 -0.00000000000E+00 -0.23451570193E+02  0.23451570193E+02  0.00000000000E+00 0. -1.
         23    2    1    2    0    0  0.00000000000E+00  0.00000000000E+00  0.64388292393E+02  0.11129143278E+03  0.90774064649E+02 0.  0.
          2    1    3    3  502    0  0.15356349504E+02  0.38182404187E+02  0.55658044997E+02  0.69220888700E+02  0.00000000000E+00 0.  1.
         -2    1    3    3    0  502 -0.15356349504E+02 -0.38182404187E+02  0.87302473963E+01  0.42070544080E+02  0.00000000000E+00 0. -1.
<mgrwt>
<rscale>  0 0.90774065E+02</rscale>
<asrwt>0</asrwt>
<pdfrwt beam="2">  1        3 0.36079339E-02 0.90774065E+02</pdfrwt>
<pdfrwt beam="1">  1       -3 0.13513825E-01 0.90774065E+02</pdfrwt>
<totfact> 0.34264076E+04</totfact>
</mgrwt>
</event>
<event>
 5    1  0.3845386E+001  0.8965168E+02  0.7546771E-02  0.1303697E+00
          3   -1    0    0  501    0  0.00000000000E+00  0.00000000000E+00  0.22646509092E+02  0.22646509092E+02  0.00000000000E+00 0. -1.
         -3   -1    0    0    0  501 -0.00000000000E+00 -0.00000000000E+00 -0.88726953189E+02  0.88726953189E+02  0.00000000000E+00 0.  1.
         23    2    1    2    0    0  0.00000000000E+00  0.00000000000E+00 -0.66080444097E+02  0.11137346228E+03  0.89651675992E+02 0.  0.
          2    1    3    3  502    0  0.29601700007E+02  0.23024188143E+02 -0.63545531490E+02  0.73786234863E+02  0.00000000000E+00 0. -1.
         -2    1    3    3    0  502 -0.29601700007E+02 -0.23024188143E+02 -0.25349126069E+01  0.37587227417E+02  0.00000000000E+00 0.  1.
<mgrwt>
<rscale>  0 0.89651676E+02</rscale>
<asrwt>0</asrwt>
<pdfrwt beam="1">  1        3 0.34840783E-02 0.89651676E+02</pdfrwt>
<pdfrwt beam="2">  1       -3 0.13650301E-01 0.89651676E+02</pdfrwt>
<totfact> 0.35432966E+04</totfact>
</mgrwt>
</event>
