<event>
 4    1  0.1352171E+004  0.2050580E+02  0.7546771E-02  0.1735453E+00
          2   -1    0    0  501    0  0.00000000000E+00  0.00000000000E+00  0.52387851981E+03  0.52387851981E+03  0.00000000000E+00 0. -1.
         -2   -1    0    0    0  501 -0.00000000000E+00 -0.00000000000E+00 -0.14866798572E+01  0.14866798572E+01  0.00000000000E+00 0. -1.
          2    1    1    2  502    0 -0.30503453872E+01  0.20277653964E+02  0.43937719731E+03  0.43985544145E+03  0.00000000000E+00 0. -1.
         -2    1    1    2    0  502  0.30503453872E+01 -0.20277653964E+02  0.83014642644E+02  0.85509758219E+02  0.00000000000E+00 0. -1.
<mgrwt>
<rscale>  2 0.20505801E+02</rscale>
<asrwt>0</asrwt>
<pdfrwt beam="1">  1        2 0.80596548E-01 0.20505801E+02</pdfrwt>
<pdfrwt beam="2">  1       -2 0.22872040E-03 0.20505801E+02</pdfrwt>
<totfact> 0.59230501E+05</totfact>
</mgrwt>
</event>
<event>
 4    1  0.1352171E+004  0.5728412E+02  0.7546771E-02  0.1409596E+00
          2   -1    0    0  501    0  0.00000000000E+00  0.00000000000E+00  0.22785994205E+04  0.22785994205E+04  0.00000000000E+00 0.  1.
         -2   -1    0    0    0  501 -0.00000000000E+00 -0.00000000000E+00 -0.49579482987E+01  0.49579482987E+01  0.00000000000E+00 0. -1.
          2    1    1    2  502    0 -0.22768009591E+02  0.52565080186E+02  0.20985833534E+04  0.20993650376E+04  0.00000000000E+00 0.  1.
         -2    1    1    2    0  502  0.22768009591E+02 -0.52565080186E+02  0.17505811881E+03  0.18419233121E+03  0.00000000000E+00 0. -1.
<mgrwt>
<rscale>  2 0.57284116E+02</rscale>
<asrwt>0</asrwt>
<pdfrwt beam="1">  1        2 0.35055292E+00 0.57284116E+02</pdfrwt>
<pdfrwt beam="2">  1       -2 0.76276310E-03 0.57284116E+02</pdfrwt>
<totfact> 0.15670619E+04</totfact>
</mgrwt>
</event>
<event>
 4    1  0.1352171E+004  0.2781460E+02  0.7546771E-02  0.1623583E+00
         -2   -1    0    0    0  501 -0.00000000000E+00  0.00000000000E+00  0.57543592623E+01  0.57543592623E+01  0.00000000000E+00 0. -1.
          2   -1    0    0  501    0  0.00000000000E+00 -0.00000000000E+00 -0.18716717206E+03  0.18716717206E+03  0.00000000000E+00 0.  1.
          2    1    1    2  502    0  0.26352337336E+02  0.88997839112E+01 -0.14190140061E+03  0.14460172659E+03  0.00000000000E+00 0.  1.
         -2    1    1    2    0  502 -0.26352337336E+02 -0.88997839112E+01 -0.39511412192E+02  0.48319804740E+02  0.00000000000E+00 0. -1.
<mgrwt>
<rscale>  2 0.27814598E+02</rscale>
<asrwt>0</asrwt>
<pdfrwt beam="2">  1        2 0.28794951E-01 0.27814598E+02</pdfrwt>
<pdfrwt beam="1">  1       -2 0.88528600E-03 0.27814598E+02</pdfrwt>
<totfact> 0.29418830E+05</totfact>
</mgrwt>
</event>
<event>
 4    1  0.1352171E+004  0.3308130E+02  0.7546771E-02  0.1566330E+00
          2   -1    0    0  501    0  0.00000000000E+00  0.00000000000E+00  0.58995044712E+02  0.58995044712E+02  0.00000000000E+00 0. -1.
         -2   -1    0    0    0  501 -0.00000000000E+00 -0.00000000000E+00 -0.84199886373E+02  0.84199886373E+02  0.00000000000E+00 0. -1.
          2    1    1    2  502    0  0.31676962240E+02  0.95363818802E+01  0.50618101017E+02  0.60469535030E+02  0.00000000000E+00 0. -1.
         -2    1    1    2    0  502 -0.31676962240E+02 -0.95363818802E+01 -0.75822942679E+02  0.82725396056E+02  0.00000000000E+00 0. -1.
<mgrwt>
<rscale>  2 0.33081302E+02</rscale>
<asrwt>0</asrwt>
<pdfrwt beam="1">  1        2 0.90761607E-02 0.33081302E+02</pdfrwt>
<pdfrwt beam="2">  1       -2 0.12953829E-01 0.33081302E+02</pdfrwt>
<totfact> 0.23870765E+04</totfact>
</mgrwt>
</event>
<event>
 4    1  0.1352171E+004  0.2293296E+02  0.7546771E-02  0.1692599E+00
          2   -1    0    0  501    0  0.00000000000E+00  0.00000000000E+00  0.42709951328E+02  0.42709951328E+02  0.00000000000E+00 0. -1.
         -2   -1    0    0    0  501 -0.00000000000E+00 -0.00000000000E+00 -0.13277145030E+02  0.13277145030E+02  0.00000000000E+00 0. -1.
          2    1    1    2  502    0 -0.14733455171E+02 -0.17574014292E+02  0.22256942937E+02  0.31957662438E+02  0.00000000000E+00 0. -1.
         -2    1    1    2    0  502  0.14733455171E+02  0.17574014292E+02  0.71758633606E+01  0.24029433921E+02  0.00000000000E+00 0. -1.
<mgrwt>
<rscale>  2 0.22932961E+02</rscale>
<asrwt>0</asrwt>
<pdfrwt beam="1">  1        2 0.65707617E-02 0.22932961E+02</pdfrwt>
<pdfrwt beam="2">  1       -2 0.20426377E-02 0.22932961E+02</pdfrwt>
<totfact> 0.46005865E+05</totfact>
</mgrwt>
</event>
<event>
 4    1  0.1352171E+004  0.2137479E+02  0.7546771E-02  0.1719294E+00
          2   -1    0    0  501    0  0.00000000000E+00  0.00000000000E+00  0.24310122506E+03  0.24310122506E+03  0.00000000000E+00 0. -1.
         -2   -1    0    0    0  501 -0.00000000000E+00 -0.00000000000E+00 -0.11991902439E+02  0.11991902439E+02  0.00000000000E+00 0.  1.
          2    1    1    2  502    0 -0.83345504512E+01  0.19682912049E+02  0.23268092140E+03  0.23366063626E+03  0.00000000000E+00 0. -1.
         -2    1    1    2    0  502  0.83345504512E+01 -0.19682912049E+02 -0.15715987720E+01  0.21432491237E+02  0.00000000000E+00 0.  1.
<mgrwt>
<rscale>  2 0.21374793E+02</rscale>
<asrwt>0</asrwt>
<pdfrwt beam="1">  1        2 0.37400185E-01 0.21374793E+02</pdfrwt>
<pdfrwt beam="2">  1       -2 0.18449082E-02 0.21374793E+02</pdfrwt>
<totfact> 0.77870090E+04</totfact>
</mgrwt>
</event>
<event>
 4    1  0.1352171E+004  0.2725762E+02  0.7546771E-02  0.1630543E+00
          2   -1    0    0  501    0  0.00000000000E+00  0.00000000000E+00  0.20899774699E+04  0.20899774699E+04  0.00000000000E+00 0.  1.
         -2   -1    0    0    0  501 -0.00000000000E+00 -0.00000000000E+00 -0.13089138654E+01  0.13089138654E+01  0.00000000000E+00 0.  1.
          2    1    1    2  502    0 -0.12223351313E+02 -0.24363241956E+02  0.19367551213E+04  0.19369469217E+04  0.00000000000E+00 0.  1.
         -2    1    1    2    0  502  0.12223351313E+02  0.24363241956E+02  0.15191343474E+03  0.15433946200E+03  0.00000000000E+00 0.  1.
<mgrwt>
<rscale>  2 0.27257621E+02</rscale>
<asrwt>0</asrwt>
<pdfrwt beam="1">  1        2 0.32153232E+00 0.27257621E+02</pdfrwt>
<pdfrwt beam="2">  1       -2 0.20137304E-03 0.27257621E+02</pdfrwt>
<totfact> 0.10939246E+05</totfact>
</mgrwt>
</event>
<event>
 4    1  0.1352171E+004  0.4488813E+02  0.7546771E-02  0.1475041E+00
          2   -1    0    0  501    0  0.00000000000E+00  0.00000000000E+00  0.38019661716E+03  0.38019661716E+03  0.00000000000E+00 0.  1.
         -2   -1    0    0    0  501 -0.00000000000E+00 -0.00000000000E+00 -0.55018629436E+02  0.55018629436E+02  0.00000000000E+00 0.  1.
          2    1    1    2  502    0 -0.44692795661E+02  0.41831260487E+01  0.36945061150E+03  0.37216756826E+03  0.00000000000E+00 0.  1.
         -2    1    1    2    0  502  0.44692795661E+02 -0.41831260487E+01 -0.44272623775E+02  0.63047678335E+02  0.00000000000E+00 0.  1.
<mgrwt>
<rscale>  2 0.44888133E+02</rscale>
<asrwt>0</asrwt>
<pdfrwt beam="1">  1        2 0.58491786E-01 0.44888133E+02</pdfrwt>
<pdfrwt beam="2">  1       -2 0.84644048E-02 0.44888133E+02</pdfrwt>
<totfact> 0.63980932E+03</totfact>
</mgrwt>
</event>
<event>
 4    1  0.1392547E+004  0.3023291E+02  0.7546771E-02  0.1595528E+00
         -2   -1    0    0    0  501 -0.00000000000E+00  0.00000000000E+00  0.48505768647E+02  0.48505768647E+02  0.00000000000E+00 0.  1.
          2   -1    0    0  501    0  0.00000000000E+00 -0.00000000000E+00 -0.95752447731E+03  0.95752447731E+03  0.00000000000E+00 0.  1.
          2    1    1    2  502    0 -0.30124444321E+02 -0.25586084221E+01 -0.95255031220E+03  0.95302997115E+03  0.00000000000E+00 0.  1.
         -2    1    1    2    0  502  0.30124444321E+02  0.25586084221E+01  0.43531603543E+02  0.53000274808E+02  0.00000000000E+00 0.  1.
<mgrwt>
<rscale>  2 0.30232906E+02</rscale>
<asrwt>0</asrwt>
<pdfrwt beam="2">  1        2 0.14731144E+00 0.30232906E+02</pdfrwt>
<pdfrwt beam="1">  1       -2 0.74624268E-02 0.30232906E+02</pdfrwt>
<totfact> 0.27269333E+03</totfact>
</mgrwt>
</event>
<event>
 4    1  0.1352171E+004  0.4192456E+02  0.7546771E-02  0.1494508E+00
         -2   -1    0    0    0  501 -0.00000000000E+00  0.00000000000E+00  0.35061612807E+02  0.35061612807E+02  0.00000000000E+00 0. -1.
          2   -1    0    0  501    0  0.00000000000E+00 -0.00000000000E+00 -0.98275588061E+03  0.98275588061E+03  0.00000000000E+00 0.  1.
          2    1    1    2  502    0 -0.65588452444E+01 -0.41408339918E+02 -0.96960614766E+03  0.97051210742E+03  0.00000000000E+00 0.  1.
         -2    1    1    2    0  502  0.65588452444E+01  0.41408339918E+02  0.21911879856E+02  0.47305386000E+02  0.00000000000E+00 0. -1.
<mgrwt>
<rscale>  2 0.41924564E+02</rscale>
<asrwt>0</asrwt>
<pdfrwt beam="2">  1        2 0.15119324E+00 0.41924564E+02</pdfrwt>
<pdfrwt beam="1">  1       -2 0.53940932E-02 0.41924564E+02</pdfrwt>
<totfact> 0.43297832E+03</totfact>
</mgrwt>
</event>
<event>
 4    1  0.1352171E+004  0.2393843E+02  0.7546771E-02  0.1676735E+00
          2   -1    0    0  501    0  0.00000000000E+00  0.00000000000E+00  0.31290286654E+03  0.31290286654E+03  0.00000000000E+00 0. -1.
         -2   -1    0    0    0  501 -0.00000000000E+00 -0.00000000000E+00 -0.44396272385E+02  0.44396272385E+02  0.00000000000E+00 0.  1.
          2    1    1    2  502    0  0.92382371626E+01  0.22084003333E+02  0.30917931992E+03  0.31010465991E+03  0.00000000000E+00 0. -1.
         -2    1    1    2    0  502 -0.92382371626E+01 -0.22084003333E+02 -0.40672725763E+02  0.47194479021E+02  0.00000000000E+00 0.  1.
<mgrwt>
<rscale>  2 0.23938426E+02</rscale>
<asrwt>0</asrwt>
<pdfrwt beam="1">  1        2 0.48138901E-01 0.23938426E+02</pdfrwt>
<pdfrwt beam="2">  1       -2 0.68301960E-02 0.23938426E+02</pdfrwt>
<totfact> 0.99153651E+03</totfact>
</mgrwt>
</event>
<event>
 4    1  0.1352171E+004  0.2094437E+02  0.7546771E-02  0.1727175E+00
          2   -1    0    0  501    0  0.00000000000E+00  0.00000000000E+00  0.73671195595E+01  0.73671195595E+01  0.00000000000E+00 0. -1.
         -2   -1    0    0    0  501 -0.00000000000E+00 -0.00000000000E+00 -0.14209305348E+03  0.14209305348E+03  0.00000000000E+00 0.  1.
          2    1    1    2  502    0  0.77660269359E+01  0.19451366009E+02 -0.10403561065E+02  0.23385912358E+02  0.00000000000E+00 0. -1.
         -2    1    1    2    0  502 -0.77660269359E+01 -0.19451366009E+02 -0.12432237286E+03  0.12607426068E+03  0.00000000000E+00 0.  1.
<mgrwt>
<rscale>  2 0.20944374E+02</rscale>
<asrwt>0</asrwt>
<pdfrwt beam="1">  1        2 0.11334030E-02 0.20944374E+02</pdfrwt>
<pdfrwt beam="2">  1       -2 0.21860470E-01 0.20944374E+02</pdfrwt>
<totfact> 0.12790247E+05</totfact>
</mgrwt>
</event>
<event>
 4    1  0.1770002E+004  0.2131419E+02  0.7546771E-02  0.1720390E+00
         -2   -1    0    0    0  501 -0.00000000000E+00  0.00000000000E+00  0.10542019626E+03  0.10542019626E+03  0.00000000000E+00 0.  1.
          2   -1    0    0  501    0  0.00000000000E+00 -0.00000000000E+00 -0.93846765721E+03  0.93846765721E+03  0.00000000000E+00 0.  1.
          2    1    1    2  502    0  0.18771979267E+02  0.10094915567E+02 -0.93726791580E+03  0.93751023489E+03  0.00000000000E+00 0.  1.
         -2    1    1    2    0  502 -0.18771979267E+02 -0.10094915567E+02  0.10422045485E+03  0.10637761858E+03  0.00000000000E+00 0.  1.
<mgrwt>
<rscale>  2 0.21314186E+02</rscale>
<asrwt>0</asrwt>
<pdfrwt beam="2">  1        2 0.14437964E+00 0.21314186E+02</pdfrwt>
<pdfrwt beam="1">  1       -2 0.16218492E-01 0.21314186E+02</pdfrwt>
<totfact> 0.85130387E+02</totfact>
</mgrwt>
</event>
<event>
 4    1  0.1352171E+004  0.2613126E+02  0.7546771E-02  0.1645265E+00
         -2   -1    0    0    0  501 -0.00000000000E+00  0.00000000000E+00  0.16401706342E+01  0.16401706342E+01  0.00000000000E+00 0. -1.
          2   -1    0    0  501    0  0.00000000000E+00 -0.00000000000E+00 -0.65344510640E+03  0.65344510640E+03  0.00000000000E+00 0.  1.
          2    1    1    2  502    0  0.19543606323E+02 -0.17346180258E+02 -0.52321211887E+03  0.52386426090E+03  0.00000000000E+00 0.  1.
         -2    1    1    2    0  502 -0.19543606323E+02  0.17346180258E+02 -0.12859281690E+03  0.13122101614E+03  0.00000000000E+00 0. -1.
<mgrwt>
<rscale>  2 0.26131256E+02</rscale>
<asrwt>0</asrwt>
<pdfrwt beam="2">  1        2 0.10052994E+00 0.26131256E+02</pdfrwt>
<pdfrwt beam="1">  1       -2 0.25233414E-03 0.26131256E+02</pdfrwt>
<totfact> 0.44324739E+05</totfact>
</mgrwt>
</event>
<event>
 4    1  0.1352171E+004  0.3547351E+02  0.7546771E-02  0.1544435E+00
          2   -1    0    0  501    0  0.00000000000E+00  0.00000000000E+00  0.11982106916E+02  0.11982106916E+02  0.00000000000E+00 0. -1.
         -2   -1    0    0    0  501 -0.00000000000E+00 -0.00000000000E+00 -0.34691585858E+03  0.34691585858E+03  0.00000000000E+00 0.  1.
          2    1    1    2  502    0 -0.17615033697E+02 -0.30790915743E+02 -0.17621804196E+02  0.39609315667E+02  0.00000000000E+00 0. -1.
         -2    1    1    2    0  502  0.17615033697E+02  0.30790915743E+02 -0.31731194747E+03  0.31928864983E+03  0.00000000000E+00 0.  1.
<mgrwt>
<rscale>  2 0.35473510E+02</rscale>
<asrwt>0</asrwt>
<pdfrwt beam="1">  1        2 0.18434013E-02 0.35473510E+02</pdfrwt>
<pdfrwt beam="2">  1       -2 0.53371663E-01 0.35473510E+02</pdfrwt>
<totfact> 0.15749094E+04</totfact>
</mgrwt>
</event>
<event>
 4    1  0.1352171E+004  0.3564510E+02  0.7546771E-02  0.1542945E+00
         -2   -1    0    0    0  501 -0.00000000000E+00  0.00000000000E+00  0.34985748769E+02  0.34985748769E+02  0.00000000000E+00 0. -1.
          2   -1    0    0  501    0  0.00000000000E+00 -0.00000000000E+00 -0.13127984491E+04  0.13127984491E+04  0.00000000000E+00 0.  1.
          2    1    1    2  502    0 -0.34288017849E+02  0.97419073245E+01 -0.13034119005E+04  0.13038992121E+04  0.00000000000E+00 0.  1.
         -2    1    1    2    0  502  0.34288017849E+02 -0.97419073245E+01  0.25599200177E+02  0.43884985770E+02  0.00000000000E+00 0. -1.
<mgrwt>
<rscale>  2 0.35645097E+02</rscale>
<asrwt>0</asrwt>
<pdfrwt beam="2">  1        2 0.20196901E+00 0.35645097E+02</pdfrwt>
<pdfrwt beam="1">  1       -2 0.53824225E-02 0.35645097E+02</pdfrwt>
<totfact> 0.28791998E+03</totfact>
</mgrwt>
</event>
<event>
 4    1  0.1352171E+004  0.2124705E+02  0.7546771E-02  0.1721609E+00
          2   -1    0    0  501    0  0.00000000000E+00  0.00000000000E+00  0.84750511803E+01  0.84750511803E+01  0.00000000000E+00 0.  1.
         -2   -1    0    0    0  501 -0.00000000000E+00 -0.00000000000E+00 -0.20622683731E+03  0.20622683731E+03  0.00000000000E+00 0. -1.
          2    1    1    2  502    0 -0.11165217316E+02 -0.18076925609E+02 -0.64225698776E+01  0.22196547503E+02  0.00000000000E+00 0.  1.
         -2    1    1    2    0  502  0.11165217316E+02  0.18076925609E+02 -0.19132921625E+03  0.19250534099E+03  0.00000000000E+00 0. -1.
<mgrwt>
<rscale>  2 0.21247054E+02</rscale>
<asrwt>0</asrwt>
<pdfrwt beam="1">  1        2 0.13038540E-02 0.21247054E+02</pdfrwt>
<pdfrwt beam="2">  1       -2 0.31727205E-01 0.21247054E+02</pdfrwt>
<totfact> 0.57382675E+04</totfact>
</mgrwt>
</event>
<event>
 4    1  0.1352171E+004  0.3002372E+02  0.7546771E-02  0.1597827E+00
         -2   -1    0    0    0  501 -0.00000000000E+00  0.00000000000E+00  0.56030214612E+02  0.56030214612E+02  0.00000000000E+00 0.  1.
          2   -1    0    0  501    0  0.00000000000E+00 -0.00000000000E+00 -0.11648118532E+04  0.11648118532E+04  0.00000000000E+00 0. -1.
          2    1    1    2  502    0 -0.27112160042E+02  0.12897853363E+02 -0.11605816825E+04  0.11609699676E+04  0.00000000000E+00 0. -1.
         -2    1    1    2    0  502  0.27112160042E+02 -0.12897853363E+02  0.51800043888E+02  0.59872100266E+02  0.00000000000E+00 0.  1.
<mgrwt>
<rscale>  2 0.30023721E+02</rscale>
<asrwt>0</asrwt>
<pdfrwt beam="2">  1        2 0.17920180E+00 0.30023721E+02</pdfrwt>
<pdfrwt beam="1">  1       -2 0.86200342E-02 0.30023721E+02</pdfrwt>
<totfact> 0.17043443E+03</totfact>
</mgrwt>
</event>
<event>
 4    1  0.1352171E+004  0.2036006E+02  0.7546771E-02  0.1738261E+00
         -2   -1    0    0    0  501 -0.00000000000E+00  0.00000000000E+00  0.40426371947E+01  0.40426371947E+01  0.00000000000E+00 0. -1.
          2   -1    0    0  501    0  0.00000000000E+00 -0.00000000000E+00 -0.61285008018E+03  0.61285008018E+03  0.00000000000E+00 0. -1.
          2    1    1    2  502    0  0.20307225936E+02  0.14657582208E+01 -0.58586562007E+03  0.58621929059E+03  0.00000000000E+00 0. -1.
         -2    1    1    2    0  502 -0.20307225936E+02 -0.14657582208E+01 -0.22941822911E+02  0.30673426787E+02  0.00000000000E+00 0. -1.
<mgrwt>
<rscale>  2 0.20360056E+02</rscale>
<asrwt>0</asrwt>
<pdfrwt beam="2">  1        2 0.94284617E-01 0.20360056E+02</pdfrwt>
<pdfrwt beam="1">  1       -2 0.62194425E-03 0.20360056E+02</pdfrwt>
<totfact> 0.13327456E+05</totfact>
</mgrwt>
</event>
<event>
 4    1  0.1352171E+004  0.2537182E+02  0.7546771E-02  0.1655718E+00
          2   -1    0    0  501    0  0.00000000000E+00  0.00000000000E+00  0.17554052055E+04  0.17554052055E+04  0.00000000000E+00 0. -1.
         -2   -1    0    0    0  501 -0.00000000000E+00 -0.00000000000E+00 -0.32718605885E+01  0.32718605885E+01  0.00000000000E+00 0. -1.
          2    1    1    2  502    0  0.25143228609E+02 -0.33981091394E+01  0.17046626954E+04  0.17048514992E+04  0.00000000000E+00 0. -1.
         -2    1    1    2    0  502 -0.25143228609E+02  0.33981091394E+01  0.47470649525E+02  0.53825566945E+02  0.00000000000E+00 0. -1.
<mgrwt>
<rscale>  2 0.25371817E+02</rscale>
<asrwt>0</asrwt>
<pdfrwt beam="1">  1        2 0.27006159E+00 0.25371817E+02</pdfrwt>
<pdfrwt beam="2">  1       -2 0.50336457E-03 0.25371817E+02</pdfrwt>
<totfact> 0.45507117E+04</totfact>
</mgrwt>
</event>
<event>
 4    1  0.1352171E+004  0.2153798E+02  0.7546771E-02  0.1716367E+00
         -2   -1    0    0    0  501 -0.00000000000E+00  0.00000000000E+00  0.32642333116E+01  0.32642333116E+01  0.00000000000E+00 0. -1.
          2   -1    0    0  501    0  0.00000000000E+00 -0.00000000000E+00 -0.61233451517E+03  0.61233451517E+03  0.00000000000E+00 0.  1.
          2    1    1    2  502    0 -0.69552541366E+01 -0.20384036079E+02 -0.57426274165E+03  0.57466649540E+03  0.00000000000E+00 0.  1.
         -2    1    1    2    0  502  0.69552541366E+01  0.20384036079E+02 -0.34807540201E+02  0.40932253075E+02  0.00000000000E+00 0. -1.
<mgrwt>
<rscale>  2 0.21537978E+02</rscale>
<asrwt>0</asrwt>
<pdfrwt beam="2">  1        2 0.94205366E-01 0.21537978E+02</pdfrwt>
<pdfrwt beam="1">  1       -2 0.50218944E-03 0.21537978E+02</pdfrwt>
<totfact> 0.18002037E+05</totfact>
</mgrwt>
</event>
<event>
 4    1  0.1352171E+004  0.2667459E+02  0.7546771E-02  0.1638052E+00
         -2   -1    0    0    0  501 -0.00000000000E+00  0.00000000000E+00  0.14973034694E+02  0.14973034694E+02  0.00000000000E+00 0. -1.
          2   -1    0    0  501    0  0.00000000000E+00 -0.00000000000E+00 -0.98734377823E+02  0.98734377823E+02  0.00000000000E+00 0.  1.
          2    1    1    2  502    0  0.14668645527E+02 -0.22279245324E+02 -0.82827115931E+02  0.87016464346E+02  0.00000000000E+00 0.  1.
         -2    1    1    2    0  502 -0.14668645527E+02  0.22279245324E+02 -0.93422719819E+00  0.26690948171E+02  0.00000000000E+00 0. -1.
<mgrwt>
<rscale>  2 0.26674593E+02</rscale>
<asrwt>0</asrwt>
<pdfrwt beam="2">  1        2 0.15189904E-01 0.26674593E+02</pdfrwt>
<pdfrwt beam="1">  1       -2 0.23035439E-02 0.26674593E+02</pdfrwt>
<totfact> 0.15475988E+05</totfact>
</mgrwt>
</event>
<event>
 4    1  0.1352171E+004  0.2189743E+02  0.7546771E-02  0.1710032E+00
          2   -1    0    0  501    0  0.00000000000E+00  0.00000000000E+00  0.35391130232E+02  0.35391130232E+02  0.00000000000E+00 0.  1.
         -2   -1    0    0    0  501 -0.00000000000E+00 -0.00000000000E+00 -0.27193526641E+02  0.27193526641E+02  0.00000000000E+00 0. -1.
          2    1    1    2  502    0  0.39450705790E+01 -0.21539123013E+02  0.26265040407E+02  0.34195756310E+02  0.00000000000E+00 0.  1.
         -2    1    1    2    0  502 -0.39450705790E+01  0.21539123013E+02 -0.18067436816E+02  0.28388900562E+02  0.00000000000E+00 0. -1.
<mgrwt>
<rscale>  2 0.21897429E+02</rscale>
<asrwt>0</asrwt>
<pdfrwt beam="1">  1        2 0.54447892E-02 0.21897429E+02</pdfrwt>
<pdfrwt beam="2">  1       -2 0.41836195E-02 0.21897429E+02</pdfrwt>
<totfact> 0.21049316E+05</totfact>
</mgrwt>
</event>
<event>
 4    1  0.1352171E+004  0.3128738E+02  0.7546771E-02  0.1584279E+00
          2   -1    0    0  501    0  0.00000000000E+00  0.00000000000E+00  0.10120294470E+04  0.10120294470E+04  0.00000000000E+00 0. -1.
         -2   -1    0    0    0  501 -0.00000000000E+00 -0.00000000000E+00 -0.12638488191E+01  0.12638488191E+01  0.00000000000E+00 0. -1.
          2    1    1    2  502    0  0.18373528160E+02  0.25324175632E+02  0.75081498808E+03  0.75146659722E+03  0.00000000000E+00 0. -1.
         -2    1    1    2    0  502 -0.18373528160E+02 -0.25324175632E+02  0.25995061006E+03  0.26182669856E+03  0.00000000000E+00 0. -1.
<mgrwt>
<rscale>  2 0.31287384E+02</rscale>
<asrwt>0</asrwt>
<pdfrwt beam="1">  1        2 0.15569619E+00 0.31287384E+02</pdfrwt>
<pdfrwt beam="2">  1       -2 0.19443909E-03 0.31287384E+02</pdfrwt>
<totfact> 0.39542652E+05</totfact>
</mgrwt>
</event>
<event>
 4    1  0.1352171E+004  0.2486884E+02  0.7546771E-02  0.1662893E+00
          2   -1    0    0  501    0  0.00000000000E+00  0.00000000000E+00  0.23693257713E+03  0.23693257713E+03  0.00000000000E+00 0.  1.
         -2   -1    0    0    0  501 -0.00000000000E+00 -0.00000000000E+00 -0.29013776749E+01  0.29013776749E+01  0.00000000000E+00 0. -1.
          2    1    1    2  502    0  0.20673646494E+02 -0.13822429428E+02  0.15499967330E+03  0.15698203062E+03  0.00000000000E+00 0.  1.
         -2    1    1    2    0  502 -0.20673646494E+02  0.13822429428E+02  0.79031526163E+02  0.82851924192E+02  0.00000000000E+00 0. -1.
<mgrwt>
<rscale>  2 0.24868840E+02</rscale>
<asrwt>0</asrwt>
<pdfrwt beam="1">  1        2 0.36451150E-01 0.24868840E+02</pdfrwt>
<pdfrwt beam="2">  1       -2 0.44636598E-03 0.24868840E+02</pdfrwt>
<totfact> 0.56608576E+05</totfact>
</mgrwt>
</event>
<event>
 4    1  0.1352171E+004  0.4293042E+02  0.7546771E-02  0.1487691E+00
         -2   -1    0    0    0  501 -0.00000000000E+00  0.00000000000E+00  0.26757826849E+02  0.26757826849E+02  0.00000000000E+00 0.  1.
          2   -1    0    0  501    0  0.00000000000E+00 -0.00000000000E+00 -0.63743518730E+03  0.63743518730E+03  0.00000000000E+00 0. -1.
          2    1    1    2  502    0  0.16671983893E+02 -0.39560912109E+02 -0.61898011820E+03  0.62046708820E+03  0.00000000000E+00 0. -1.
         -2    1    1    2    0  502 -0.16671983893E+02  0.39560912109E+02  0.83027577481E+01  0.43725925948E+02  0.00000000000E+00 0.  1.
<mgrwt>
<rscale>  2 0.42930418E+02</rscale>
<asrwt>0</asrwt>
<pdfrwt beam="2">  1        2 0.98066953E-01 0.42930418E+02</pdfrwt>
<pdfrwt beam="1">  1       -2 0.41165887E-02 0.42930418E+02</pdfrwt>
<totfact> 0.10680138E+04</totfact>
</mgrwt>
</event>
<event>
 4    1  0.1352171E+004  0.2362523E+02  0.7546771E-02  0.1681571E+00
          2   -1    0    0  501    0  0.00000000000E+00  0.00000000000E+00  0.33822050082E+03  0.33822050082E+03  0.00000000000E+00 0. -1.
         -2   -1    0    0    0  501 -0.00000000000E+00 -0.00000000000E+00 -0.12602353933E+03  0.12602353933E+03  0.00000000000E+00 0. -1.
          2    1    1    2  502    0 -0.66477478866E+00 -0.23615878632E+02  0.33669569077E+03  0.33752353967E+03  0.00000000000E+00 0. -1.
         -2    1    1    2    0  502  0.66477478866E+00  0.23615878632E+02 -0.12449872928E+03  0.12672050047E+03  0.00000000000E+00 0. -1.
<mgrwt>
<rscale>  2 0.23625233E+02</rscale>
<asrwt>0</asrwt>
<pdfrwt beam="1">  1        2 0.52033923E-01 0.23625233E+02</pdfrwt>
<pdfrwt beam="2">  1       -2 0.19388237E-01 0.23625233E+02</pdfrwt>
<totfact> 0.18852929E+03</totfact>
</mgrwt>
</event>
<event>
 4    1  0.1352171E+004  0.2394065E+02  0.7546771E-02  0.1676701E+00
          2   -1    0    0  501    0  0.00000000000E+00  0.00000000000E+00  0.27058263248E+02  0.27058263248E+02  0.00000000000E+00 0.  1.
         -2   -1    0    0    0  501 -0.00000000000E+00 -0.00000000000E+00 -0.21631755819E+02  0.21631755819E+02  0.00000000000E+00 0.  1.
          2    1    1    2  502    0 -0.15282686910E+02 -0.18428067271E+02 -0.79624002011E+00  0.23953876110E+02  0.00000000000E+00 0.  1.
         -2    1    1    2    0  502  0.15282686910E+02  0.18428067271E+02  0.62227474492E+01  0.24736142956E+02  0.00000000000E+00 0.  1.
<mgrwt>
<rscale>  2 0.23940651E+02</rscale>
<asrwt>0</asrwt>
<pdfrwt beam="1">  1        2 0.41628097E-02 0.23940651E+02</pdfrwt>
<pdfrwt beam="2">  1       -2 0.33279624E-02 0.23940651E+02</pdfrwt>
<totfact> 0.41408367E+05</totfact>
</mgrwt>
</event>
<event>
 4    1  0.1352171E+004  0.2541253E+02  0.7546771E-02  0.1655146E+00
          2   -1    0    0  501    0  0.00000000000E+00  0.00000000000E+00  0.19919241065E+04  0.19919241065E+04  0.00000000000E+00 0.  1.
         -2   -1    0    0    0  501 -0.00000000000E+00 -0.00000000000E+00 -0.52470216607E+00  0.52470216607E+00  0.00000000000E+00 0.  1.
          2    1    1    2  502    0  0.11632488120E+02 -0.22593843335E+02  0.16115175438E+04  0.16117179004E+04  0.00000000000E+00 0.  1.
         -2    1    1    2    0  502 -0.11632488120E+02  0.22593843335E+02  0.37988186054E+03  0.38073090826E+03  0.00000000000E+00 0.  1.
<mgrwt>
<rscale>  2 0.25412527E+02</rscale>
<asrwt>0</asrwt>
<pdfrwt beam="1">  1        2 0.30644381E+00 0.25412527E+02</pdfrwt>
<pdfrwt beam="2">  1       -2 0.80725005E-04 0.25412527E+02</pdfrwt>
<totfact> 0.40321269E+05</totfact>
</mgrwt>
</event>
<event>
 4    1  0.1352171E+004  0.2046884E+02  0.7546771E-02  0.1736162E+00
         -2   -1    0    0    0  501 -0.00000000000E+00  0.00000000000E+00  0.13354537327E+02  0.13354537327E+02  0.00000000000E+00 0.  1.
          2   -1    0    0  501    0  0.00000000000E+00 -0.00000000000E+00 -0.76000263718E+02  0.76000263718E+02  0.00000000000E+00 0.  1.
          2    1    1    2  502    0  0.13876023477E+02 -0.15047568355E+02 -0.65558621470E+02  0.68679736385E+02  0.00000000000E+00 0.  1.
         -2    1    1    2    0  502 -0.13876023477E+02  0.15047568355E+02  0.29128950785E+01  0.20675064659E+02  0.00000000000E+00 0.  1.
<mgrwt>
<rscale>  2 0.20468838E+02</rscale>
<asrwt>0</asrwt>
<pdfrwt beam="2">  1        2 0.11692348E-01 0.20468838E+02</pdfrwt>
<pdfrwt beam="1">  1       -2 0.20545442E-02 0.20468838E+02</pdfrwt>
<totfact> 0.22578371E+05</totfact>
</mgrwt>
</event>
<event>
 4    1  0.1352171E+004  0.2094739E+02  0.7546771E-02  0.1727119E+00
         -2   -1    0    0    0  501 -0.00000000000E+00  0.00000000000E+00  0.12236699555E+02  0.12236699555E+02  0.00000000000E+00 0. -1.
          2   -1    0    0  501    0  0.00000000000E+00 -0.00000000000E+00 -0.15376723622E+03  0.15376723622E+03  0.00000000000E+00 0.  1.
          2    1    1    2  502    0  0.53204922274E+01  0.20260441054E+02 -0.14344761867E+03  0.14496900500E+03  0.00000000000E+00 0.  1.
         -2    1    1    2    0  502 -0.53204922274E+01 -0.20260441054E+02  0.19170820041E+01  0.21034930774E+02  0.00000000000E+00 0. -1.
<mgrwt>
<rscale>  2 0.20947389E+02</rscale>
<asrwt>0</asrwt>
<pdfrwt beam="2">  1        2 0.23656499E-01 0.20947389E+02</pdfrwt>
<pdfrwt beam="1">  1       -2 0.18825691E-02 0.20947389E+02</pdfrwt>
<totfact> 0.11973461E+05</totfact>
</mgrwt>
</event>
<event>
 4    1  0.1352171E+004  0.2767068E+02  0.7546771E-02  0.1625362E+00
          2   -1    0    0  501    0  0.00000000000E+00  0.00000000000E+00  0.16452238645E+04  0.16452238645E+04  0.00000000000E+00 0.  1.
         -2   -1    0    0    0  501 -0.00000000000E+00 -0.00000000000E+00 -0.59979693420E+01  0.59979693420E+01  0.00000000000E+00 0.  1.
          2    1    1    2  502    0  0.27669454020E+02 -0.26082245066E+00  0.16125472893E+04  0.16127846809E+04  0.00000000000E+00 0.  1.
         -2    1    1    2    0  502 -0.27669454020E+02  0.26082245066E+00  0.26678605785E+02  0.38437152870E+02  0.00000000000E+00 0.  1.
<mgrwt>
<rscale>  2 0.27670683E+02</rscale>
<asrwt>0</asrwt>
<pdfrwt beam="1">  1        2 0.25311100E+00 0.27670683E+02</pdfrwt>
<pdfrwt beam="2">  1       -2 0.92276583E-03 0.27670683E+02</pdfrwt>
<totfact> 0.22852071E+04</totfact>
</mgrwt>
</event>
<event>
 4    1  0.1352171E+004  0.2840383E+02  0.7546771E-02  0.1616433E+00
          2   -1    0    0  501    0  0.00000000000E+00  0.00000000000E+00  0.70680140925E+02  0.70680140925E+02  0.00000000000E+00 0. -1.
         -2   -1    0    0    0  501 -0.00000000000E+00 -0.00000000000E+00 -0.24840143916E+02  0.24840143916E+02  0.00000000000E+00 0. -1.
          2    1    1    2  502    0  0.17554970216E+02  0.22329365543E+02  0.58032060358E+02  0.64610351913E+02  0.00000000000E+00 0. -1.
         -2    1    1    2    0  502 -0.17554970216E+02 -0.22329365543E+02 -0.12192063349E+02  0.30909932927E+02  0.00000000000E+00 0. -1.
<mgrwt>
<rscale>  2 0.28403830E+02</rscale>
<asrwt>0</asrwt>
<pdfrwt beam="1">  1        2 0.10873868E-01 0.28403830E+02</pdfrwt>
<pdfrwt beam="2">  1       -2 0.38215606E-02 0.28403830E+02</pdfrwt>
<totfact> 0.11280267E+05</totfact>
</mgrwt>
</event>
<event>
 4    1  0.1352171E+004  0.2109069E+02  0.7546771E-02  0.1724470E+00
         -2   -1    0    0    0  501 -0.00000000000E+00  0.00000000000E+00  0.79013740161E+02  0.79013740161E+02  0.00000000000E+00 0. -1.
          2   -1    0    0  501    0  0.00000000000E+00 -0.00000000000E+00 -0.10471222238E+03  0.10471222238E+03  0.00000000000E+00 0.  1.
          2    1    1    2  502    0 -0.10674437710E+02 -0.18189927463E+02 -0.10220870539E+03  0.10436204549E+03  0.00000000000E+00 0.  1.
         -2    1    1    2    0  502  0.10674437710E+02  0.18189927463E+02  0.76510223166E+02  0.79363917056E+02  0.00000000000E+00 0. -1.
<mgrwt>
<rscale>  2 0.21090687E+02</rscale>
<asrwt>0</asrwt>
<pdfrwt beam="2">  1        2 0.16109572E-01 0.21090687E+02</pdfrwt>
<pdfrwt beam="1">  1       -2 0.12155960E-01 0.21090687E+02</pdfrwt>
<totfact> 0.12719740E+04</totfact>
</mgrwt>
</event>
<event>
 4    1  0.1352171E+004  0.2097757E+02  0.7546771E-02  0.1726559E+00
         -2   -1    0    0    0  501 -0.00000000000E+00  0.00000000000E+00  0.60023934201E+02  0.60023934201E+02  0.00000000000E+00 0. -1.
          2   -1    0    0  501    0  0.00000000000E+00 -0.00000000000E+00 -0.26297076094E+03  0.26297076094E+03  0.00000000000E+00 0. -1.
          2    1    1    2  502    0 -0.16068925024E+02  0.13485100795E+02 -0.26070365004E+03  0.26154627016E+03  0.00000000000E+00 0. -1.
         -2    1    1    2    0  502  0.16068925024E+02 -0.13485100795E+02  0.57756823296E+02  0.61448424977E+02  0.00000000000E+00 0. -1.
<mgrwt>
<rscale>  2 0.20977566E+02</rscale>
<asrwt>0</asrwt>
<pdfrwt beam="2">  1        2 0.40457041E-01 0.20977566E+02</pdfrwt>
<pdfrwt beam="1">  1       -2 0.92344513E-02 0.20977566E+02</pdfrwt>
<totfact> 0.74323454E+03</totfact>
</mgrwt>
</event>
<event>
 4    1  0.1352171E+004  0.2419099E+02  0.7546771E-02  0.1672901E+00
          2   -1    0    0  501    0  0.00000000000E+00  0.00000000000E+00  0.10919613490E+03  0.10919613490E+03  0.00000000000E+00 0.  1.
         -2   -1    0    0    0  501 -0.00000000000E+00 -0.00000000000E+00 -0.15752824306E+02  0.15752824306E+02  0.00000000000E+00 0.  1.
          2    1    1    2  502    0  0.84743203645E+01 -0.22658106544E+02  0.97468254743E+02  0.10042541800E+03  0.00000000000E+00 0.  1.
         -2    1    1    2    0  502 -0.84743203645E+01  0.22658106544E+02 -0.40249441503E+01  0.24523541204E+02  0.00000000000E+00 0.  1.
<mgrwt>
<rscale>  2 0.24190988E+02</rscale>
<asrwt>0</asrwt>
<pdfrwt beam="1">  1        2 0.16799405E-01 0.24190988E+02</pdfrwt>
<pdfrwt beam="2">  1       -2 0.24235115E-02 0.24190988E+02</pdfrwt>
<totfact> 0.12612384E+05</totfact>
</mgrwt>
</event>
<event>
 4    1  0.1352171E+004  0.2135359E+02  0.7546771E-02  0.1719677E+00
         -2   -1    0    0    0  501 -0.00000000000E+00  0.00000000000E+00  0.74890006171E+01  0.74890006171E+01  0.00000000000E+00 0.  1.
          2   -1    0    0  501    0  0.00000000000E+00 -0.00000000000E+00 -0.28945104236E+03  0.28945104236E+03  0.00000000000E+00 0.  1.
          2    1    1    2  502    0  0.38345055121E+01 -0.21006481262E+02 -0.27291481939E+03  0.27374892572E+03  0.00000000000E+00 0.  1.
         -2    1    1    2    0  502 -0.38345055121E+01  0.21006481262E+02 -0.90472223525E+01  0.23191117261E+02  0.00000000000E+00 0.  1.
<mgrwt>
<rscale>  2 0.21353587E+02</rscale>
<asrwt>0</asrwt>
<pdfrwt beam="2">  1        2 0.44530930E-01 0.21353587E+02</pdfrwt>
<pdfrwt beam="1">  1       -2 0.11521539E-02 0.21353587E+02</pdfrwt>
<totfact> 0.12423522E+05</totfact>
</mgrwt>
</event>
<event>
 4    1  0.1352171E+004  0.8819425E+02  0.7546771E-02  0.1307284E+00
         -2   -1    0    0    0  501 -0.00000000000E+00  0.00000000000E+00  0.19614257906E+02  0.19614257906E+02  0.00000000000E+00 0.  1.
          2   -1    0    0  501    0  0.00000000000E+00 -0.00000000000E+00 -0.51239800239E+03  0.51239800239E+03  0.00000000000E+00 0.  1.
          2    1    1    2  502    0  0.80943331577E+02 -0.35020039677E+02 -0.37286953868E+03  0.38315782516E+03  0.00000000000E+00 0.  1.
         -2    1    1    2    0  502 -0.80943331577E+02  0.35020039677E+02 -0.11991420580E+03  0.14885443514E+03  0.00000000000E+00 0.  1.
<mgrwt>
<rscale>  2 0.88194252E+02</rscale>
<asrwt>0</asrwt>
<pdfrwt beam="2">  1        2 0.78830460E-01 0.88194252E+02</pdfrwt>
<pdfrwt beam="1">  1       -2 0.30175782E-02 0.88194252E+02</pdfrwt>
<totfact> 0.22874729E+04</totfact>
</mgrwt>
</event>
<event>
 4    1  0.1352171E+004  0.2089837E+02  0.7546771E-02  0.1728031E+00
         -2   -1    0    0    0  501 -0.00000000000E+00  0.00000000000E+00  0.35527992046E+02  0.35527992046E+02  0.00000000000E+00 0.  1.
          2   -1    0    0  501    0  0.00000000000E+00 -0.00000000000E+00 -0.16328130108E+03  0.16328130108E+03  0.00000000000E+00 0. -1.
          2    1    1    2  502    0 -0.20774445314E+02  0.22725393221E+01 -0.15946616862E+03  0.16082972657E+03  0.00000000000E+00 0. -1.
         -2    1    1    2    0  502  0.20774445314E+02 -0.22725393221E+01  0.31712859585E+02  0.37979566561E+02  0.00000000000E+00 0.  1.
<mgrwt>
<rscale>  2 0.20898373E+02</rscale>
<asrwt>0</asrwt>
<pdfrwt beam="2">  1        2 0.25120200E-01 0.20898373E+02</pdfrwt>
<pdfrwt beam="1">  1       -2 0.54658450E-02 0.20898373E+02</pdfrwt>
<totfact> 0.25582224E+04</totfact>
</mgrwt>
</event>
<event>
 4    1  0.1352171E+004  0.2670197E+02  0.7546771E-02  0.1637694E+00
          2   -1    0    0  501    0  0.00000000000E+00  0.00000000000E+00  0.64551242516E+03  0.64551242516E+03  0.00000000000E+00 0.  1.
         -2   -1    0    0    0  501 -0.00000000000E+00 -0.00000000000E+00 -0.24009480834E+01  0.24009480834E+01  0.00000000000E+00 0. -1.
          2    1    1    2  502    0  0.22286307374E+02 -0.14707677394E+02  0.55960463664E+03  0.56024132713E+03  0.00000000000E+00 0.  1.
         -2    1    1    2    0  502 -0.22286307374E+02  0.14707677394E+02  0.83506840430E+02  0.87672046111E+02  0.00000000000E+00 0. -1.
<mgrwt>
<rscale>  2 0.26701971E+02</rscale>
<asrwt>0</asrwt>
<pdfrwt beam="1">  1        2 0.99309466E-01 0.26701971E+02</pdfrwt>
<pdfrwt beam="2">  1       -2 0.36937714E-03 0.26701971E+02</pdfrwt>
<totfact> 0.27114247E+05</totfact>
</mgrwt>
</event>
<event>
 4    1  0.1352171E+004  0.2238847E+02  0.7546771E-02  0.1701619E+00
         -2   -1    0    0    0  501 -0.00000000000E+00  0.00000000000E+00  0.15504001971E+03  0.15504001971E+03  0.00000000000E+00 0. -1.
          2   -1    0    0  501    0  0.00000000000E+00 -0.00000000000E+00 -0.28219003080E+02  0.28219003080E+02  0.00000000000E+00 0. -1.
          2    1    1    2  502    0 -0.17073809048E+02 -0.14482005341E+02 -0.22810477697E+02  0.31961873019E+02  0.00000000000E+00 0. -1.
         -2    1    1    2    0  502  0.17073809048E+02  0.14482005341E+02  0.14963149433E+03  0.15129714977E+03  0.00000000000E+00 0. -1.
<mgrwt>
<rscale>  2 0.22388467E+02</rscale>
<asrwt>0</asrwt>
<pdfrwt beam="2">  1        2 0.43413852E-02 0.22388467E+02</pdfrwt>
<pdfrwt beam="1">  1       -2 0.23852310E-01 0.22388467E+02</pdfrwt>
<totfact> 0.20478866E+04</totfact>
</mgrwt>
</event>
<event>
 4    1  0.1352171E+004  0.2135795E+02  0.7546771E-02  0.1719598E+00
         -2   -1    0    0    0  501 -0.00000000000E+00  0.00000000000E+00  0.88132608078E+03  0.88132608078E+03  0.00000000000E+00 0. -1.
          2   -1    0    0  501    0  0.00000000000E+00 -0.00000000000E+00 -0.66262212651E+00  0.66262212651E+00  0.00000000000E+00 0. -1.
          2    1    1    2  502    0  0.18179793602E+02  0.11209670854E+02  0.64665056474E+03  0.64700317967E+03  0.00000000000E+00 0. -1.
         -2    1    1    2    0  502 -0.18179793602E+02 -0.11209670854E+02  0.23401289391E+03  0.23498552324E+03  0.00000000000E+00 0. -1.
<mgrwt>
<rscale>  2 0.21357951E+02</rscale>
<asrwt>0</asrwt>
<pdfrwt beam="2">  1        2 0.10194257E-03 0.21357951E+02</pdfrwt>
<pdfrwt beam="1">  1       -2 0.13558769E+00 0.21357951E+02</pdfrwt>
<totfact> 0.84607304E+04</totfact>
</mgrwt>
</event>
<event>
 4    1  0.1352171E+004  0.3154577E+02  0.7546771E-02  0.1581605E+00
         -2   -1    0    0    0  501 -0.00000000000E+00  0.00000000000E+00  0.10359746087E+01  0.10359746087E+01  0.00000000000E+00 0. -1.
          2   -1    0    0  501    0  0.00000000000E+00 -0.00000000000E+00 -0.16175426804E+04  0.16175426804E+04  0.00000000000E+00 0.  1.
          2    1    1    2  502    0 -0.23091135943E+02 -0.21492673510E+02 -0.13240120746E+04  0.13243878244E+04  0.00000000000E+00 0.  1.
         -2    1    1    2    0  502  0.23091135943E+02  0.21492673510E+02 -0.29249463120E+03  0.29419083068E+03  0.00000000000E+00 0. -1.
<mgrwt>
<rscale>  2 0.31545770E+02</rscale>
<asrwt>0</asrwt>
<pdfrwt beam="2">  1        2 0.24885123E+00 0.31545770E+02</pdfrwt>
<pdfrwt beam="1">  1       -2 0.15938166E-03 0.31545770E+02</pdfrwt>
<totfact> 0.25673692E+05</totfact>
</mgrwt>
</event>
<event>
 4    1  0.1352171E+004  0.2225950E+02  0.7546771E-02  0.1703802E+00
         -2   -1    0    0    0  501 -0.00000000000E+00  0.00000000000E+00  0.11823501831E+02  0.11823501831E+02  0.00000000000E+00 0.  1.
          2   -1    0    0  501    0  0.00000000000E+00 -0.00000000000E+00 -0.36929052174E+03  0.36929052174E+03  0.00000000000E+00 0. -1.
          2    1    1    2  502    0  0.22097533381E+02  0.26803570131E+01 -0.35815290356E+03  0.35884395999E+03  0.00000000000E+00 0. -1.
         -2    1    1    2    0  502 -0.22097533381E+02 -0.26803570131E+01  0.68588365271E+00  0.22270063575E+02  0.00000000000E+00 0.  1.
<mgrwt>
<rscale>  2 0.22259499E+02</rscale>
<asrwt>0</asrwt>
<pdfrwt beam="2">  1        2 0.56813922E-01 0.22259499E+02</pdfrwt>
<pdfrwt beam="1">  1       -2 0.18190004E-02 0.22259499E+02</pdfrwt>
<totfact> 0.53087394E+04</totfact>
</mgrwt>
</event>
<event>
 4    1  0.1352171E+004  0.2357193E+02  0.7546771E-02  0.1682404E+00
          2   -1    0    0  501    0  0.00000000000E+00  0.00000000000E+00  0.84813598626E+03  0.84813598626E+03  0.00000000000E+00 0. -1.
         -2   -1    0    0    0  501 -0.00000000000E+00 -0.00000000000E+00 -0.31971448141E+01  0.31971448141E+01  0.00000000000E+00 0.  1.
          2    1    1    2  502    0 -0.20205908428E+02 -0.12139073827E+02  0.80202709288E+03  0.80237341280E+03  0.00000000000E+00 0. -1.
         -2    1    1    2    0  502  0.20205908428E+02  0.12139073827E+02  0.42911748559E+02  0.48959718271E+02  0.00000000000E+00 0.  1.
<mgrwt>
<rscale>  2 0.23571929E+02</rscale>
<asrwt>0</asrwt>
<pdfrwt beam="1">  1        2 0.13048228E+00 0.23571929E+02</pdfrwt>
<pdfrwt beam="2">  1       -2 0.49186911E-03 0.23571929E+02</pdfrwt>
<totfact> 0.13236662E+05</totfact>
</mgrwt>
</event>
<event>
 4    1  0.1352171E+004  0.2582926E+02  0.7546771E-02  0.1649369E+00
          2   -1    0    0  501    0  0.00000000000E+00  0.00000000000E+00  0.21268269630E+04  0.21268269630E+04  0.00000000000E+00 0. -1.
         -2   -1    0    0    0  501 -0.00000000000E+00 -0.00000000000E+00 -0.75626369760E+00  0.75626369760E+00  0.00000000000E+00 0.  1.
          2    1    1    2  502    0  0.11013458884E+01 -0.25805769905E+02  0.18768319643E+04  0.18770096891E+04  0.00000000000E+00 0. -1.
         -2    1    1    2    0  502 -0.11013458884E+01  0.25805769905E+02  0.24923873502E+03  0.25057353763E+03  0.00000000000E+00 0.  1.
<mgrwt>
<rscale>  2 0.25829261E+02</rscale>
<asrwt>0</asrwt>
<pdfrwt beam="1">  1        2 0.32719936E+00 0.25829261E+02</pdfrwt>
<pdfrwt beam="2">  1       -2 0.11634996E-03 0.25829261E+02</pdfrwt>
<totfact> 0.21567726E+05</totfact>
</mgrwt>
</event>
<event>
 4    1  0.1352171E+004  0.4621849E+02  0.7546771E-02  0.1466875E+00
         -2   -1    0    0    0  501 -0.00000000000E+00  0.00000000000E+00  0.75792761522E+03  0.75792761522E+03  0.00000000000E+00 0.  1.
          2   -1    0    0  501    0  0.00000000000E+00 -0.00000000000E+00 -0.98987198332E+03  0.98987198332E+03  0.00000000000E+00 0. -1.
          2    1    1    2  502    0 -0.70778418282E+01  0.45673328903E+02 -0.98862699335E+03  0.98970676506E+03  0.00000000000E+00 0. -1.
         -2    1    1    2    0  502  0.70778418282E+01 -0.45673328903E+02  0.75668262525E+03  0.75809283348E+03  0.00000000000E+00 0.  1.
<mgrwt>
<rscale>  2 0.46218490E+02</rscale>
<asrwt>0</asrwt>
<pdfrwt beam="2">  1        2 0.15228800E+00 0.46218490E+02</pdfrwt>
<pdfrwt beam="1">  1       -2 0.11660425E+00 0.46218490E+02</pdfrwt>
<totfact> 0.18709889E+01</totfact>
</mgrwt>
</event>
<event>
 4    1  0.1352171E+004  0.2911385E+02  0.7546771E-02  0.1608096E+00
         -2   -1    0    0    0  501 -0.00000000000E+00  0.00000000000E+00  0.56855852874E+00  0.56855852874E+00  0.00000000000E+00 0. -1.
          2   -1    0    0  501    0  0.00000000000E+00 -0.00000000000E+00 -0.15283357285E+04  0.15283357285E+04  0.00000000000E+00 0. -1.
          2    1    1    2  502    0  0.18854816592E+02 -0.22183604947E+02 -0.88365904751E+03  0.88413852347E+03  0.00000000000E+00 0. -1.
         -2    1    1    2    0  502 -0.18854816592E+02  0.22183604947E+02 -0.64410812248E+03  0.64476576358E+03  0.00000000000E+00 0. -1.
<mgrwt>
<rscale>  2 0.29113853E+02</rscale>
<asrwt>0</asrwt>
<pdfrwt beam="2">  1        2 0.23512965E+00 0.29113853E+02</pdfrwt>
<pdfrwt beam="1">  1       -2 0.87470142E-04 0.29113853E+02</pdfrwt>
<totfact> 0.61836614E+05</totfact>
</mgrwt>
</event>
<event>
 4    1  0.1352171E+004  0.2328772E+02  0.7546771E-02  0.1686888E+00
         -2   -1    0    0    0  501 -0.00000000000E+00  0.00000000000E+00  0.86934454175E+00  0.86934454175E+00  0.00000000000E+00 0. -1.
          2   -1    0    0  501    0  0.00000000000E+00 -0.00000000000E+00 -0.12305774333E+04  0.12305774333E+04  0.00000000000E+00 0. -1.
          2    1    1    2  502    0  0.21019361700E+02 -0.10025187278E+02 -0.10472058895E+04  0.10474647932E+04  0.00000000000E+00 0. -1.
         -2    1    1    2    0  502 -0.21019361700E+02  0.10025187278E+02 -0.18250219924E+03  0.18398198464E+03  0.00000000000E+00 0. -1.
<mgrwt>
<rscale>  2 0.23287721E+02</rscale>
<asrwt>0</asrwt>
<pdfrwt beam="2">  1        2 0.18931958E+00 0.23287721E+02</pdfrwt>
<pdfrwt beam="1">  1       -2 0.13374533E-03 0.23287721E+02</pdfrwt>
<totfact> 0.46485764E+05</totfact>
</mgrwt>
</event>
<event>
 4    1  0.1352171E+004  0.3040632E+02  0.7546771E-02  0.1593640E+00
          2   -1    0    0  501    0  0.00000000000E+00  0.00000000000E+00  0.19444277213E+04  0.19444277213E+04  0.00000000000E+00 0.  1.
         -2   -1    0    0    0  501 -0.00000000000E+00 -0.00000000000E+00 -0.47619956949E+00  0.47619956949E+00  0.00000000000E+00 0. -1.
          2    1    1    2  502    0  0.19706953323E+02 -0.23155566734E+02  0.10096720063E+04  0.10101297464E+04  0.00000000000E+00 0. -1.
         -2    1    1    2    0  502 -0.19706953323E+02  0.23155566734E+02  0.93427951546E+03  0.93477417448E+03  0.00000000000E+00 0.  1.
<mgrwt>
<rscale>  2 0.30406320E+02</rscale>
<asrwt>0</asrwt>
<pdfrwt beam="1">  1        2 0.29913637E+00 0.30406320E+02</pdfrwt>
<pdfrwt beam="2">  1       -2 0.73263029E-04 0.30406320E+02</pdfrwt>
<totfact> 0.50227839E+05</totfact>
</mgrwt>
</event>
<event>
 4    1  0.1352171E+004  0.2159154E+02  0.7546771E-02  0.1715413E+00
          2   -1    0    0  501    0  0.00000000000E+00  0.00000000000E+00  0.13316596026E+04  0.13316596026E+04  0.00000000000E+00 0.  1.
         -2   -1    0    0    0  501 -0.00000000000E+00 -0.00000000000E+00 -0.33487549744E+02  0.33487549744E+02  0.00000000000E+00 0. -1.
          2    1    1    2  502    0 -0.66441042984E+01 -0.20543863197E+02  0.13280823510E+04  0.13282578535E+04  0.00000000000E+00 0.  1.
         -2    1    1    2    0  502  0.66441042984E+01  0.20543863197E+02 -0.29910298104E+02  0.36889298850E+02  0.00000000000E+00 0. -1.
<mgrwt>
<rscale>  2 0.21591536E+02</rscale>
<asrwt>0</asrwt>
<pdfrwt beam="1">  1        2 0.20487067E+00 0.21591536E+02</pdfrwt>
<pdfrwt beam="2">  1       -2 0.51519317E-02 0.21591536E+02</pdfrwt>
<totfact> 0.29218987E+03</totfact>
</mgrwt>
</event>
<event>
 4    1  0.1352171E+004  0.2369568E+02  0.7546771E-02  0.1680475E+00
         -2   -1    0    0    0  501 -0.00000000000E+00  0.00000000000E+00  0.69478649359E+02  0.69478649359E+02  0.00000000000E+00 0.  1.
          2   -1    0    0  501    0  0.00000000000E+00 -0.00000000000E+00 -0.94735424931E+01  0.94735424931E+01  0.00000000000E+00 0. -1.
          2    1    1    2  502    0 -0.23679054779E+02  0.88738974802E+00  0.14869760968E+02  0.27974897445E+02  0.00000000000E+00 0. -1.
         -2    1    1    2    0  502  0.23679054779E+02 -0.88738974802E+00  0.45135345898E+02  0.50977294407E+02  0.00000000000E+00 0.  1.
<mgrwt>
<rscale>  2 0.23695677E+02</rscale>
<asrwt>0</asrwt>
<pdfrwt beam="2">  1        2 0.14574681E-02 0.23695677E+02</pdfrwt>
<pdfrwt beam="1">  1       -2 0.10689023E-01 0.23695677E+02</pdfrwt>
<totfact> 0.29186534E+05</totfact>
</mgrwt>
</event>
<event>
 4    1  0.1352171E+004  0.2964516E+02  0.7546771E-02  0.1602044E+00
         -2   -1    0    0    0  501 -0.00000000000E+00  0.00000000000E+00  0.41351786692E+01  0.41351786692E+01  0.00000000000E+00 0.  1.
          2   -1    0    0  501    0  0.00000000000E+00 -0.00000000000E+00 -0.17386082596E+04  0.17386082596E+04  0.00000000000E+00 0.  1.
          2    1    1    2  502    0  0.26855784515E+02 -0.12553967968E+02 -0.16836149007E+04  0.16838758770E+04  0.00000000000E+00 0.  1.
         -2    1    1    2    0  502 -0.26855784515E+02  0.12553967968E+02 -0.50858180224E+02  0.58867561265E+02  0.00000000000E+00 0.  1.
<mgrwt>
<rscale>  2 0.29645156E+02</rscale>
<asrwt>0</asrwt>
<pdfrwt beam="2">  1        2 0.26747840E+00 0.29645156E+02</pdfrwt>
<pdfrwt beam="1">  1       -2 0.63618085E-03 0.29645156E+02</pdfrwt>
<totfact> 0.34511957E+04</totfact>
</mgrwt>
</event>
<event>
 4    1  0.1352171E+004  0.2073588E+02  0.7546771E-02  0.1731078E+00
          2   -1    0    0  501    0  0.00000000000E+00  0.00000000000E+00  0.22448570525E+03  0.22448570525E+03  0.00000000000E+00 0.  1.
         -2   -1    0    0    0  501 -0.00000000000E+00 -0.00000000000E+00 -0.20226950345E+02  0.20226950345E+02  0.00000000000E+00 0. -1.
          2    1    1    2  502    0  0.48367462258E+01 -0.20163891466E+02  0.21854840343E+03  0.21952990975E+03  0.00000000000E+00 0.  1.
         -2    1    1    2    0  502 -0.48367462258E+01  0.20163891466E+02 -0.14289648528E+02  0.25182745842E+02  0.00000000000E+00 0. -1.
<mgrwt>
<rscale>  2 0.20735878E+02</rscale>
<asrwt>0</asrwt>
<pdfrwt beam="1">  1        2 0.34536261E-01 0.20735878E+02</pdfrwt>
<pdfrwt beam="2">  1       -2 0.31118387E-02 0.20735878E+02</pdfrwt>
<totfact> 0.40806918E+04</totfact>
</mgrwt>
</event>
<event>
 4    1  0.1352171E+004  0.2096420E+02  0.7546771E-02  0.1726807E+00
          2   -1    0    0  501    0  0.00000000000E+00  0.00000000000E+00  0.14543830138E+03  0.14543830138E+03  0.00000000000E+00 0.  1.
         -2   -1    0    0    0  501 -0.00000000000E+00 -0.00000000000E+00 -0.16023459502E+02  0.16023459502E+02  0.00000000000E+00 0. -1.
          2    1    1    2  502    0 -0.20695540092E+02 -0.33454915429E+01  0.13742836939E+03  0.13901818013E+03  0.00000000000E+00 0.  1.
         -2    1    1    2    0  502  0.20695540092E+02  0.33454915429E+01 -0.80135275199E+01  0.22443580745E+02  0.00000000000E+00 0. -1.
<mgrwt>
<rscale>  2 0.20964200E+02</rscale>
<asrwt>0</asrwt>
<pdfrwt beam="1">  1        2 0.22375122E-01 0.20964200E+02</pdfrwt>
<pdfrwt beam="2">  1       -2 0.24651477E-02 0.20964200E+02</pdfrwt>
<totfact> 0.87698883E+04</totfact>
</mgrwt>
</event>
<event>
 4    1  0.1352171E+004  0.2071955E+02  0.7546771E-02  0.1731386E+00
          2   -1    0    0  501    0  0.00000000000E+00  0.00000000000E+00  0.40686716994E+02  0.40686716994E+02  0.00000000000E+00 0.  1.
         -2   -1    0    0    0  501 -0.00000000000E+00 -0.00000000000E+00 -0.27449526190E+02  0.27449526190E+02  0.00000000000E+00 0.  1.
          2    1    1    2  502    0  0.49920231843E+01 -0.20109185306E+02  0.33348704457E+02  0.39261122222E+02  0.00000000000E+00 0.  1.
         -2    1    1    2    0  502 -0.49920231843E+01  0.20109185306E+02 -0.20111513653E+02  0.28875120962E+02  0.00000000000E+00 0.  1.
<mgrwt>
<rscale>  2 0.20719547E+02</rscale>
<asrwt>0</asrwt>
<pdfrwt beam="1">  1        2 0.62594949E-02 0.20719547E+02</pdfrwt>
<pdfrwt beam="2">  1       -2 0.42230040E-02 0.20719547E+02</pdfrwt>
<totfact> 0.17288127E+05</totfact>
</mgrwt>
</event>
<event>
 4    1  0.1352171E+004  0.2501862E+02  0.7546771E-02  0.1660735E+00
          2   -1    0    0  501    0  0.00000000000E+00  0.00000000000E+00  0.97154546977E+03  0.97154546977E+03  0.00000000000E+00 0. -1.
         -2   -1    0    0    0  501 -0.00000000000E+00 -0.00000000000E+00 -0.52977280032E+01  0.52977280032E+01  0.00000000000E+00 0. -1.
          2    1    1    2  502    0 -0.16870367463E+02 -0.18474909476E+02  0.94088427213E+03  0.94121684277E+03  0.00000000000E+00 0. -1.
         -2    1    1    2    0  502  0.16870367463E+02  0.18474909476E+02  0.25363469634E+02  0.35626354997E+02  0.00000000000E+00 0. -1.
<mgrwt>
<rscale>  2 0.25018625E+02</rscale>
<asrwt>0</asrwt>
<pdfrwt beam="1">  1        2 0.14946839E+00 0.25018625E+02</pdfrwt>
<pdfrwt beam="2">  1       -2 0.81503585E-03 0.25018625E+02</pdfrwt>
<totfact> 0.57698513E+04</totfact>
</mgrwt>
</event>
<event>
 4    1  0.1352171E+004  0.2851559E+02  0.7546771E-02  0.1615101E+00
         -2   -1    0    0    0  501 -0.00000000000E+00  0.00000000000E+00  0.15231618298E+04  0.15231618298E+04  0.00000000000E+00 0. -1.
          2   -1    0    0  501    0  0.00000000000E+00 -0.00000000000E+00 -0.98245159051E+01  0.98245159051E+01  0.00000000000E+00 0. -1.
          2    1    1    2  502    0 -0.76448112232E+01 -0.27471729417E+02  0.11291385132E+02  0.30669764166E+02  0.00000000000E+00 0. -1.
         -2    1    1    2    0  502  0.76448112232E+01  0.27471729417E+02  0.15020459287E+04  0.15023165815E+04  0.00000000000E+00 0. -1.
<mgrwt>
<rscale>  2 0.28515593E+02</rscale>
<asrwt>0</asrwt>
<pdfrwt beam="2">  1        2 0.15114652E-02 0.28515593E+02</pdfrwt>
<pdfrwt beam="1">  1       -2 0.23433240E+00 0.28515593E+02</pdfrwt>
<totfact> 0.62522721E+02</totfact>
</mgrwt>
</event>
<event>
 4    1  0.1352171E+004  0.2058249E+02  0.7546771E-02  0.1733987E+00
          2   -1    0    0  501    0  0.00000000000E+00  0.00000000000E+00  0.91043422822E+03  0.91043422822E+03  0.00000000000E+00 0. -1.
         -2   -1    0    0    0  501 -0.00000000000E+00 -0.00000000000E+00 -0.89169542329E+01  0.89169542329E+01  0.00000000000E+00 0.  1.
          2    1    1    2  502    0 -0.10180480940E+02 -0.17888453326E+02  0.89827986698E+03  0.89851564170E+03  0.00000000000E+00 0. -1.
         -2    1    1    2    0  502  0.10180480940E+02  0.17888453326E+02  0.32374070116E+01  0.20835540759E+02  0.00000000000E+00 0.  1.
<mgrwt>
<rscale>  2 0.20582491E+02</rscale>
<asrwt>0</asrwt>
<pdfrwt beam="1">  1        2 0.14006673E+00 0.20582491E+02</pdfrwt>
<pdfrwt beam="2">  1       -2 0.13718398E-02 0.20582491E+02</pdfrwt>
<totfact> 0.29803014E+04</totfact>
</mgrwt>
</event>
<event>
 4    1  0.1352171E+004  0.2084207E+02  0.7546771E-02  0.1729083E+00
          2   -1    0    0  501    0  0.00000000000E+00  0.00000000000E+00  0.61647733351E+01  0.61647733351E+01  0.00000000000E+00 0. -1.
         -2   -1    0    0    0  501 -0.00000000000E+00 -0.00000000000E+00 -0.11111757020E+03  0.11111757020E+03  0.00000000000E+00 0. -1.
          2    1    1    2  502    0 -0.11915456926E+02 -0.17100108119E+02 -0.17006248572E+02  0.26899894088E+02  0.00000000000E+00 0. -1.
         -2    1    1    2    0  502  0.11915456926E+02  0.17100108119E+02 -0.87946548290E+02  0.90382449444E+02  0.00000000000E+00 0. -1.
<mgrwt>
<rscale>  2 0.20842068E+02</rscale>
<asrwt>0</asrwt>
<pdfrwt beam="1">  1        2 0.94842681E-03 0.20842068E+02</pdfrwt>
<pdfrwt beam="2">  1       -2 0.17095008E-01 0.20842068E+02</pdfrwt>
<totfact> 0.23834044E+05</totfact>
</mgrwt>
</event>
<event>
 4    1  0.1352171E+004  0.2035308E+02  0.7546771E-02  0.1738396E+00
         -2   -1    0    0    0  501 -0.00000000000E+00  0.00000000000E+00  0.31556392352E+01  0.31556392352E+01  0.00000000000E+00 0. -1.
          2   -1    0    0  501    0  0.00000000000E+00 -0.00000000000E+00 -0.21687207931E+03  0.21687207931E+03  0.00000000000E+00 0.  1.
          2    1    1    2  502    0  0.81338497279E+01  0.18657125214E+02 -0.17597477000E+03  0.17714786905E+03  0.00000000000E+00 0.  1.
         -2    1    1    2    0  502 -0.81338497279E+01 -0.18657125214E+02 -0.37741670076E+02  0.42879849496E+02  0.00000000000E+00 0. -1.
<mgrwt>
<rscale>  2 0.20353079E+02</rscale>
<asrwt>0</asrwt>
<pdfrwt beam="2">  1        2 0.33364929E-01 0.20353079E+02</pdfrwt>
<pdfrwt beam="1">  1       -2 0.48548305E-03 0.20353079E+02</pdfrwt>
<totfact> 0.51961521E+05</totfact>
</mgrwt>
</event>
<event>
 4    1  0.1352171E+004  0.2217555E+02  0.7546771E-02  0.1705233E+00
          2   -1    0    0  501    0  0.00000000000E+00  0.00000000000E+00  0.28319054835E+02  0.28319054835E+02  0.00000000000E+00 0. -1.
         -2   -1    0    0    0  501 -0.00000000000E+00 -0.00000000000E+00 -0.33971127454E+03  0.33971127454E+03  0.00000000000E+00 0. -1.
          2    1    1    2  502    0  0.27980541235E+01 -0.21998318135E+02  0.23554271195E+02  0.32350561034E+02  0.00000000000E+00 0. -1.
         -2    1    1    2    0  502 -0.27980541235E+01  0.21998318135E+02 -0.33494649090E+03  0.33567976834E+03  0.00000000000E+00 0. -1.
<mgrwt>
<rscale>  2 0.22175552E+02</rscale>
<asrwt>0</asrwt>
<pdfrwt beam="1">  1        2 0.43567776E-02 0.22175552E+02</pdfrwt>
<pdfrwt beam="2">  1       -2 0.52263274E-01 0.22175552E+02</pdfrwt>
<totfact> 0.50650721E+03</totfact>
</mgrwt>
</event>
<event>
 4    1  0.1352171E+004  0.2145615E+02  0.7546771E-02  0.1717831E+00
          2   -1    0    0  501    0  0.00000000000E+00  0.00000000000E+00  0.17557028764E+03  0.17557028764E+03  0.00000000000E+00 0. -1.
         -2   -1    0    0    0  501 -0.00000000000E+00 -0.00000000000E+00 -0.41282685221E+02  0.41282685221E+02  0.00000000000E+00 0.  1.
          2    1    1    2  502    0  0.21855985151E+00  0.21455038844E+02  0.17207037987E+03  0.17340294718E+03  0.00000000000E+00 0. -1.
         -2    1    1    2    0  502 -0.21855985151E+00 -0.21455038844E+02 -0.37782777451E+02  0.43450025686E+02  0.00000000000E+00 0.  1.
<mgrwt>
<rscale>  2 0.21456152E+02</rscale>
<asrwt>0</asrwt>
<pdfrwt beam="1">  1        2 0.27010813E-01 0.21456152E+02</pdfrwt>
<pdfrwt beam="2">  1       -2 0.63511824E-02 0.21456152E+02</pdfrwt>
<totfact> 0.19259441E+04</totfact>
</mgrwt>
</event>
<event>
 4    1  0.1352171E+004  0.2162779E+02  0.7546771E-02  0.1714770E+00
          2   -1    0    0  501    0  0.00000000000E+00  0.00000000000E+00  0.34162672250E+03  0.34162672250E+03  0.00000000000E+00 0. -1.
         -2   -1    0    0    0  501 -0.00000000000E+00 -0.00000000000E+00 -0.40419852102E+01  0.40419852102E+01  0.00000000000E+00 0.  1.
          2    1    1    2  502    0  0.92766151490E+01 -0.19537290384E+02  0.30933669369E+03  0.31009184344E+03  0.00000000000E+00 0. -1.
         -2    1    1    2    0  502 -0.92766151490E+01  0.19537290384E+02  0.28248043598E+02  0.35576864270E+02  0.00000000000E+00 0.  1.
<mgrwt>
<rscale>  2 0.21627790E+02</rscale>
<asrwt>0</asrwt>
<pdfrwt beam="1">  1        2 0.52557935E-01 0.21627790E+02</pdfrwt>
<pdfrwt beam="2">  1       -2 0.62184415E-03 0.21627790E+02</pdfrwt>
<totfact> 0.24288178E+05</totfact>
</mgrwt>
</event>
<event>
 4    1  0.1352171E+004  0.4493603E+02  0.7546771E-02  0.1474741E+00
          2   -1    0    0  501    0  0.00000000000E+00  0.00000000000E+00  0.65034939292E+02  0.65034939292E+02  0.00000000000E+00 0. -1.
         -2   -1    0    0    0  501 -0.00000000000E+00 -0.00000000000E+00 -0.34670103594E+02  0.34670103594E+02  0.00000000000E+00 0.  1.
          2    1    1    2  502    0 -0.44147223060E+02  0.83825827271E+01 -0.92971116531E+00  0.44945626705E+02  0.00000000000E+00 0. -1.
         -2    1    1    2    0  502  0.44147223060E+02 -0.83825827271E+01  0.31294546863E+02  0.54759416180E+02  0.00000000000E+00 0.  1.
<mgrwt>
<rscale>  2 0.44936032E+02</rscale>
<asrwt>0</asrwt>
<pdfrwt beam="1">  1        2 0.10005375E-01 0.44936032E+02</pdfrwt>
<pdfrwt beam="2">  1       -2 0.53338621E-02 0.44936032E+02</pdfrwt>
<totfact> 0.84893539E+04</totfact>
</mgrwt>
</event>
<event>
 4    1  0.1352171E+004  0.2664371E+02  0.7546771E-02  0.1638456E+00
          2   -1    0    0  501    0  0.00000000000E+00  0.00000000000E+00  0.18091332674E+04  0.18091332674E+04  0.00000000000E+00 0. -1.
         -2   -1    0    0    0  501 -0.00000000000E+00 -0.00000000000E+00 -0.45886456015E+00  0.45886456015E+00  0.00000000000E+00 0.  1.
          2    1    1    2  502    0 -0.25751586617E+02 -0.68368929187E+01  0.12487136518E+04  0.12489978669E+04  0.00000000000E+00 0. -1.
         -2    1    1    2    0  502  0.25751586617E+02  0.68368929187E+01  0.55996075101E+03  0.56059426503E+03  0.00000000000E+00 0.  1.
<mgrwt>
<rscale>  2 0.26643711E+02</rscale>
<asrwt>0</asrwt>
<pdfrwt beam="1">  1        2 0.27832249E+00 0.26643711E+02</pdfrwt>
<pdfrwt beam="2">  1       -2 0.70595996E-04 0.26643711E+02</pdfrwt>
<totfact> 0.59260564E+05</totfact>
</mgrwt>
</event>
<event>
 4    1  0.1352171E+004  0.1767398E+03  0.7546771E-02  0.1170996E+00
          2   -1    0    0  501    0  0.00000000000E+00  0.00000000000E+00  0.68961509607E+03  0.68961509607E+03  0.00000000000E+00 0.  1.
         -2   -1    0    0    0  501 -0.00000000000E+00 -0.00000000000E+00 -0.50201082064E+02  0.50201082064E+02  0.00000000000E+00 0.  1.
          2    1    1    2  502    0 -0.18202481878E+02  0.17579992410E+03  0.43533195538E+03  0.46984130836E+03  0.00000000000E+00 0.  1.
         -2    1    1    2    0  502  0.18202481878E+02 -0.17579992410E+03  0.20408205862E+03  0.26997486978E+03  0.00000000000E+00 0.  1.
<mgrwt>
<rscale>  2 0.17673976E+03</rscale>
<asrwt>0</asrwt>
<pdfrwt beam="1">  1        2 0.10609462E+00 0.17673976E+03</pdfrwt>
<pdfrwt beam="2">  1       -2 0.77232439E-02 0.17673976E+03</pdfrwt>
<totfact> 0.41936550E+03</totfact>
</mgrwt>
</event>
<event>
 4    1  0.1352171E+004  0.2757525E+02  0.7546771E-02  0.1626549E+00
         -2   -1    0    0    0  501 -0.00000000000E+00  0.00000000000E+00  0.55761289240E+02  0.55761289240E+02  0.00000000000E+00 0. -1.
          2   -1    0    0  501    0  0.00000000000E+00 -0.00000000000E+00 -0.17266663893E+03  0.17266663893E+03  0.00000000000E+00 0.  1.
          2    1    1    2  502    0  0.26526325263E+02  0.75331629224E+01 -0.16806378293E+03  0.17031097911E+03  0.00000000000E+00 0.  1.
         -2    1    1    2    0  502 -0.26526325263E+02 -0.75331629224E+01  0.51158433240E+02  0.58116949052E+02  0.00000000000E+00 0. -1.
<mgrwt>
<rscale>  2 0.27575251E+02</rscale>
<asrwt>0</asrwt>
<pdfrwt beam="2">  1        2 0.26564099E-01 0.27575251E+02</pdfrwt>
<pdfrwt beam="1">  1       -2 0.85786598E-02 0.27575251E+02</pdfrwt>
<totfact> 0.13177903E+04</totfact>
</mgrwt>
</event>
<event>
 4    1  0.1352171E+004  0.4190644E+02  0.7546771E-02  0.1494633E+00
         -2   -1    0    0    0  501 -0.00000000000E+00  0.00000000000E+00  0.12535777634E+03  0.12535777634E+03  0.00000000000E+00 0. -1.
          2   -1    0    0  501    0  0.00000000000E+00 -0.00000000000E+00 -0.12130126506E+03  0.12130126506E+03  0.00000000000E+00 0. -1.
          2    1    1    2  502    0  0.41264574632E+02  0.73065004052E+01 -0.11396116414E+03  0.12142197907E+03  0.00000000000E+00 0. -1.
         -2    1    1    2    0  502 -0.41264574632E+02 -0.73065004052E+01  0.11801767543E+03  0.12523706233E+03  0.00000000000E+00 0. -1.
<mgrwt>
<rscale>  2 0.41906444E+02</rscale>
<asrwt>0</asrwt>
<pdfrwt beam="2">  1        2 0.18661733E-01 0.41906444E+02</pdfrwt>
<pdfrwt beam="1">  1       -2 0.19285812E-01 0.41906444E+02</pdfrwt>
<totfact> 0.57690967E+03</totfact>
</mgrwt>
</event>
<event>
 4    1  0.1352171E+004  0.2131318E+02  0.7546771E-02  0.1720408E+00
         -2   -1    0    0    0  501 -0.00000000000E+00  0.00000000000E+00  0.11552114015E+02  0.11552114015E+02  0.00000000000E+00 0.  1.
          2   -1    0    0  501    0  0.00000000000E+00 -0.00000000000E+00 -0.94240773655E+02  0.94240773655E+02  0.00000000000E+00 0.  1.
          2    1    1    2  502    0  0.82177124867E+01 -0.19665218006E+02 -0.81724457278E+02  0.84457909725E+02  0.00000000000E+00 0.  1.
         -2    1    1    2    0  502 -0.82177124867E+01  0.19665218006E+02 -0.96420236243E+00  0.21334977945E+02  0.00000000000E+00 0.  1.
<mgrwt>
<rscale>  2 0.21313179E+02</rscale>
<asrwt>0</asrwt>
<pdfrwt beam="2">  1        2 0.14498580E-01 0.21313179E+02</pdfrwt>
<pdfrwt beam="1">  1       -2 0.17772484E-02 0.21313179E+02</pdfrwt>
<totfact> 0.21920417E+05</totfact>
</mgrwt>
</event>
<event>
 4    1  0.1352171E+004  0.2247668E+02  0.7546771E-02  0.1700136E+00
         -2   -1    0    0    0  501 -0.00000000000E+00  0.00000000000E+00  0.81606985025E+01  0.81606985025E+01  0.00000000000E+00 0. -1.
          2   -1    0    0  501    0  0.00000000000E+00 -0.00000000000E+00 -0.73718373196E+02  0.73718373196E+02  0.00000000000E+00 0. -1.
          2    1    1    2  502    0  0.18881101880E+02 -0.12194466335E+02 -0.49166339967E+02  0.54060429180E+02  0.00000000000E+00 0. -1.
         -2    1    1    2    0  502 -0.18881101880E+02  0.12194466335E+02 -0.16391334726E+02  0.27818642518E+02  0.00000000000E+00 0. -1.
<mgrwt>
<rscale>  2 0.22476677E+02</rscale>
<asrwt>0</asrwt>
<pdfrwt beam="2">  1        2 0.11341288E-01 0.22476677E+02</pdfrwt>
<pdfrwt beam="1">  1       -2 0.12554921E-02 0.22476677E+02</pdfrwt>
<totfact> 0.46982732E+05</totfact>
</mgrwt>
</event>
<event>
 4    1  0.1352171E+004  0.2908328E+02  0.7546771E-02  0.1608449E+00
         -2   -1    0    0    0  501 -0.00000000000E+00  0.00000000000E+00  0.14264793337E+02  0.14264793337E+02  0.00000000000E+00 0. -1.
          2   -1    0    0  501    0  0.00000000000E+00 -0.00000000000E+00 -0.17466261486E+04  0.17466261486E+04  0.00000000000E+00 0.  1.
          2    1    1    2  502    0 -0.20494499264E+02  0.20635228522E+02 -0.17315521825E+04  0.17317964078E+04  0.00000000000E+00 0.  1.
         -2    1    1    2    0  502  0.20494499264E+02 -0.20635228522E+02 -0.80917270722E+00  0.29094534138E+02  0.00000000000E+00 0. -1.
<mgrwt>
<rscale>  2 0.29083280E+02</rscale>
<asrwt>0</asrwt>
<pdfrwt beam="2">  1        2 0.26871177E+00 0.29083280E+02</pdfrwt>
<pdfrwt beam="1">  1       -2 0.21945831E-02 0.29083280E+02</pdfrwt>
<totfact> 0.62603208E+03</totfact>
</mgrwt>
</event>
<event>
 4    1  0.1352171E+004  0.3779340E+02  0.7546771E-02  0.1525107E+00
          2   -1    0    0  501    0  0.00000000000E+00  0.00000000000E+00  0.20833630889E+04  0.20833630889E+04  0.00000000000E+00 0. -1.
         -2   -1    0    0    0  501 -0.00000000000E+00 -0.00000000000E+00 -0.91435428502E+01  0.91435428502E+01  0.00000000000E+00 0. -1.
          2    1    1    2  502    0 -0.36918910244E+02  0.80830331831E+01  0.20433742019E+04  0.20437236776E+04  0.00000000000E+00 0. -1.
         -2    1    1    2    0  502  0.36918910244E+02 -0.80830331831E+01  0.30845344103E+02  0.48782954111E+02  0.00000000000E+00 0. -1.
<mgrwt>
<rscale>  2 0.37793404E+02</rscale>
<asrwt>0</asrwt>
<pdfrwt beam="1">  1        2 0.32051702E+00 0.37793404E+02</pdfrwt>
<pdfrwt beam="2">  1       -2 0.14067006E-02 0.37793404E+02</pdfrwt>
<totfact> 0.81537144E+03</totfact>
</mgrwt>
</event>
<event>
 4    1  0.1352171E+004  0.3062927E+02  0.7546771E-02  0.1591235E+00
          2   -1    0    0  501    0  0.00000000000E+00  0.00000000000E+00  0.82502653311E+03  0.82502653311E+03  0.00000000000E+00 0.  1.
         -2   -1    0    0    0  501 -0.00000000000E+00 -0.00000000000E+00 -0.17262523771E+02  0.17262523771E+02  0.00000000000E+00 0.  1.
          2    1    1    2  502    0  0.18722429090E+02  0.24240929391E+02  0.81091943895E+03  0.81149768236E+03  0.00000000000E+00 0.  1.
         -2    1    1    2    0  502 -0.18722429090E+02 -0.24240929391E+02 -0.31554296120E+01  0.30791374519E+02  0.00000000000E+00 0.  1.
<mgrwt>
<rscale>  2 0.30629267E+02</rscale>
<asrwt>0</asrwt>
<pdfrwt beam="1">  1        2 0.12692713E+00 0.30629267E+02</pdfrwt>
<pdfrwt beam="2">  1       -2 0.26557735E-02 0.30629267E+02</pdfrwt>
<totfact> 0.14302569E+04</totfact>
</mgrwt>
</event>
<event>
 4    1  0.1352171E+004  0.2194162E+02  0.7546771E-02  0.1709264E+00
          2   -1    0    0  501    0  0.00000000000E+00  0.00000000000E+00  0.10813588018E+04  0.10813588018E+04  0.00000000000E+00 0. -1.
         -2   -1    0    0    0  501 -0.00000000000E+00 -0.00000000000E+00 -0.53040264663E+01  0.53040264663E+01  0.00000000000E+00 0.  1.
          2    1    1    2  502    0 -0.10246135648E+02 -0.19402349712E+02  0.10580558443E+04  0.10582833288E+04  0.00000000000E+00 0. -1.
         -2    1    1    2    0  502  0.10246135648E+02  0.19402349712E+02  0.17998931105E+02  0.28379499485E+02  0.00000000000E+00 0.  1.
<mgrwt>
<rscale>  2 0.21941615E+02</rscale>
<asrwt>0</asrwt>
<pdfrwt beam="1">  1        2 0.16636272E+00 0.21941615E+02</pdfrwt>
<pdfrwt beam="2">  1       -2 0.81600493E-03 0.21941615E+02</pdfrwt>
<totfact> 0.49107784E+04</totfact>
</mgrwt>
</event>
<event>
 4    1  0.1352171E+004  0.2442727E+02  0.7546771E-02  0.1669367E+00
         -2   -1    0    0    0  501 -0.00000000000E+00  0.00000000000E+00  0.23496796689E+02  0.23496796689E+02  0.00000000000E+00 0.  1.
          2   -1    0    0  501    0  0.00000000000E+00 -0.00000000000E+00 -0.75860365798E+03  0.75860365798E+03  0.00000000000E+00 0. -1.
          2    1    1    2  502    0  0.15685231797E+02 -0.18726053563E+02 -0.75200265533E+03  0.75239928576E+03  0.00000000000E+00 0. -1.
         -2    1    1    2    0  502 -0.15685231797E+02  0.18726053563E+02  0.16895794041E+02  0.29701168914E+02  0.00000000000E+00 0.  1.
<mgrwt>
<rscale>  2 0.24427271E+02</rscale>
<asrwt>0</asrwt>
<pdfrwt beam="2">  1        2 0.11670827E+00 0.24427271E+02</pdfrwt>
<pdfrwt beam="1">  1       -2 0.36148912E-02 0.24427271E+02</pdfrwt>
<totfact> 0.99385218E+03</totfact>
</mgrwt>
</event>
<event>
 4    1  0.1352171E+004  0.2164583E+02  0.7546771E-02  0.1714450E+00
          2   -1    0    0  501    0  0.00000000000E+00  0.00000000000E+00  0.10029110949E+04  0.10029110949E+04  0.00000000000E+00 0. -1.
         -2   -1    0    0    0  501 -0.00000000000E+00 -0.00000000000E+00 -0.10902469464E+02  0.10902469464E+02  0.00000000000E+00 0.  1.
          2    1    1    2  502    0  0.15490230677E+02 -0.15119347840E+02  0.99193144906E+03  0.99216759752E+03  0.00000000000E+00 0. -1.
         -2    1    1    2    0  502 -0.15490230677E+02  0.15119347840E+02  0.77176397057E-01  0.21645966870E+02  0.00000000000E+00 0.  1.
<mgrwt>
<rscale>  2 0.21645829E+02</rscale>
<asrwt>0</asrwt>
<pdfrwt beam="1">  1        2 0.15429394E+00 0.21645829E+02</pdfrwt>
<pdfrwt beam="2">  1       -2 0.16773038E-02 0.21645829E+02</pdfrwt>
<totfact> 0.20332707E+04</totfact>
</mgrwt>
</event>
<event>
 4    1  0.1352171E+004  0.3401145E+02  0.7546771E-02  0.1557558E+00
         -2   -1    0    0    0  501 -0.00000000000E+00  0.00000000000E+00  0.52265436030E+01  0.52265436030E+01  0.00000000000E+00 0.  1.
          2   -1    0    0  501    0  0.00000000000E+00 -0.00000000000E+00 -0.86391697960E+03  0.86391697960E+03  0.00000000000E+00 0. -1.
          2    1    1    2  502    0  0.11125205031E+02  0.32140450395E+02 -0.80413888542E+03  0.80485782955E+03  0.00000000000E+00 0. -1.
         -2    1    1    2    0  502 -0.11125205031E+02 -0.32140450395E+02 -0.54551550581E+02  0.64285693660E+02  0.00000000000E+00 0.  1.
<mgrwt>
<rscale>  2 0.34011450E+02</rscale>
<asrwt>0</asrwt>
<pdfrwt beam="2">  1        2 0.13291015E+00 0.34011450E+02</pdfrwt>
<pdfrwt beam="1">  1       -2 0.80408456E-03 0.34011450E+02</pdfrwt>
<totfact> 0.71622241E+04</totfact>
</mgrwt>
</event>
<event>
 4    1  0.1352171E+004  0.2260766E+02  0.7546771E-02  0.1697950E+00
         -2   -1    0    0    0  501 -0.00000000000E+00  0.00000000000E+00  0.17540268284E+01  0.17540268284E+01  0.00000000000E+00 0.  1.
          2   -1    0    0  501    0  0.00000000000E+00 -0.00000000000E+00 -0.56222933123E+03  0.56222933123E+03  0.00000000000E+00 0. -1.
          2    1    1    2  502    0 -0.65106677399E+01  0.21649886827E+02 -0.47595763742E+03  0.47649425916E+03  0.00000000000E+00 0. -1.
         -2    1    1    2    0  502  0.65106677399E+01 -0.21649886827E+02 -0.84517666982E+02  0.87489098899E+02  0.00000000000E+00 0.  1.
<mgrwt>
<rscale>  2 0.22607662E+02</rscale>
<asrwt>0</asrwt>
<pdfrwt beam="2">  1        2 0.86496721E-01 0.22607662E+02</pdfrwt>
<pdfrwt beam="1">  1       -2 0.26985059E-03 0.22607662E+02</pdfrwt>
<totfact> 0.45582199E+05</totfact>
</mgrwt>
</event>
<event>
 4    1  0.1352171E+004  0.2365968E+02  0.7546771E-02  0.1681035E+00
         -2   -1    0    0    0  501 -0.00000000000E+00  0.00000000000E+00  0.23714038125E+02  0.23714038125E+02  0.00000000000E+00 0. -1.
          2   -1    0    0  501    0  0.00000000000E+00 -0.00000000000E+00 -0.45635328445E+02  0.45635328445E+02  0.00000000000E+00 0.  1.
          2    1    1    2  502    0 -0.16348977157E+02 -0.17102376901E+02 -0.35052378232E+02  0.42290064666E+02  0.00000000000E+00 0.  1.
         -2    1    1    2    0  502  0.16348977157E+02  0.17102376901E+02  0.13131087913E+02  0.27059301904E+02  0.00000000000E+00 0. -1.
<mgrwt>
<rscale>  2 0.23659678E+02</rscale>
<asrwt>0</asrwt>
<pdfrwt beam="2">  1        2 0.70208198E-02 0.23659678E+02</pdfrwt>
<pdfrwt beam="1">  1       -2 0.36483135E-02 0.23659678E+02</pdfrwt>
<totfact> 0.19198878E+05</totfact>
</mgrwt>
</event>
<event>
 4    1  0.1352171E+004  0.2352693E+02  0.7546771E-02  0.1683108E+00
         -2   -1    0    0    0  501 -0.00000000000E+00  0.00000000000E+00  0.44911345423E+02  0.44911345423E+02  0.00000000000E+00 0. -1.
          2   -1    0    0  501    0  0.00000000000E+00 -0.00000000000E+00 -0.13138905211E+03  0.13138905211E+03  0.00000000000E+00 0.  1.
          2    1    1    2  502    0 -0.22379102802E+02  0.72589260280E+01 -0.12715290459E+03  0.12931116501E+03  0.00000000000E+00 0.  1.
         -2    1    1    2    0  502  0.22379102802E+02 -0.72589260280E+01  0.40675197902E+02  0.46989232529E+02  0.00000000000E+00 0. -1.
<mgrwt>
<rscale>  2 0.23526926E+02</rscale>
<asrwt>0</asrwt>
<pdfrwt beam="2">  1        2 0.20213700E-01 0.23526926E+02</pdfrwt>
<pdfrwt beam="1">  1       -2 0.69094378E-02 0.23526926E+02</pdfrwt>
<totfact> 0.23443306E+04</totfact>
</mgrwt>
</event>
<event>
 4    1  0.1352171E+004  0.2632642E+02  0.7546771E-02  0.1642650E+00
         -2   -1    0    0    0  501 -0.00000000000E+00  0.00000000000E+00  0.14564219527E+03  0.14564219527E+03  0.00000000000E+00 0. -1.
          2   -1    0    0  501    0  0.00000000000E+00 -0.00000000000E+00 -0.11382732776E+03  0.11382732776E+03  0.00000000000E+00 0. -1.
          2    1    1    2  502    0  0.25181820672E+02 -0.76782896743E+01 -0.11108645975E+03  0.11416339941E+03  0.00000000000E+00 0. -1.
         -2    1    1    2    0  502 -0.25181820672E+02  0.76782896743E+01  0.14290132727E+03  0.14530612361E+03  0.00000000000E+00 0. -1.
<mgrwt>
<rscale>  2 0.26326417E+02</rscale>
<asrwt>0</asrwt>
<pdfrwt beam="2">  1        2 0.17511897E-01 0.26326417E+02</pdfrwt>
<pdfrwt beam="1">  1       -2 0.22406492E-01 0.26326417E+02</pdfrwt>
<totfact> 0.45850467E+03</totfact>
</mgrwt>
</event>
<event>
 4    1  0.1352171E+004  0.3132860E+02  0.7546771E-02  0.1583851E+00
         -2   -1    0    0    0  501 -0.00000000000E+00  0.00000000000E+00  0.19029330157E+02  0.19029330157E+02  0.00000000000E+00 0. -1.
          2   -1    0    0  501    0  0.00000000000E+00 -0.00000000000E+00 -0.80178762437E+02  0.80178762437E+02  0.00000000000E+00 0. -1.
          2    1    1    2  502    0 -0.31248740324E+02 -0.22354685889E+01 -0.60201308424E+02  0.67865150317E+02  0.00000000000E+00 0. -1.
         -2    1    1    2    0  502  0.31248740324E+02  0.22354685889E+01 -0.94812385605E+00  0.31342942276E+02  0.00000000000E+00 0. -1.
<mgrwt>
<rscale>  2 0.31328599E+02</rscale>
<asrwt>0</asrwt>
<pdfrwt beam="2">  1        2 0.12335194E-01 0.31328599E+02</pdfrwt>
<pdfrwt beam="1">  1       -2 0.29275893E-02 0.31328599E+02</pdfrwt>
<totfact> 0.14543318E+05</totfact>
</mgrwt>
</event>
<event>
 4    1  0.1352171E+004  0.2853716E+02  0.7546771E-02  0.1614845E+00
         -2   -1    0    0    0  501 -0.00000000000E+00  0.00000000000E+00  0.34681168372E+01  0.34681168372E+01  0.00000000000E+00 0.  1.
          2   -1    0    0  501    0  0.00000000000E+00 -0.00000000000E+00 -0.23569535994E+03  0.23569535994E+03  0.00000000000E+00 0.  1.
          2    1    1    2  502    0  0.28186465607E+02 -0.44600992478E+01 -0.12341781547E+03  0.12667409563E+03  0.00000000000E+00 0.  1.
         -2    1    1    2    0  502 -0.28186465607E+02  0.44600992478E+01 -0.10880942763E+03  0.11248938115E+03  0.00000000000E+00 0.  1.
<mgrwt>
<rscale>  2 0.28537157E+02</rscale>
<asrwt>0</asrwt>
<pdfrwt beam="2">  1        2 0.36260821E-01 0.28537157E+02</pdfrwt>
<pdfrwt beam="1">  1       -2 0.53355648E-03 0.28537157E+02</pdfrwt>
<totfact> 0.46564832E+05</totfact>
</mgrwt>
</event>
<event>
 4    1  0.1352171E+004  0.2138357E+02  0.7546771E-02  0.1719136E+00
          2   -1    0    0  501    0  0.00000000000E+00  0.00000000000E+00  0.20119752858E+03  0.20119752858E+03  0.00000000000E+00 0.  1.
         -2   -1    0    0    0  501 -0.00000000000E+00 -0.00000000000E+00 -0.57634122803E+01  0.57634122803E+01  0.00000000000E+00 0. -1.
          2    1    1    2  502    0  0.18105920801E+02 -0.11376849687E+02  0.17825063402E+03  0.17952867628E+03  0.00000000000E+00 0.  1.
         -2    1    1    2    0  502 -0.18105920801E+02  0.11376849687E+02  0.17183482274E+02  0.27432264579E+02  0.00000000000E+00 0. -1.
<mgrwt>
<rscale>  2 0.21383570E+02</rscale>
<asrwt>0</asrwt>
<pdfrwt beam="1">  1        2 0.30953461E-01 0.21383570E+02</pdfrwt>
<pdfrwt beam="2">  1       -2 0.88667897E-03 0.21383570E+02</pdfrwt>
<totfact> 0.25380693E+05</totfact>
</mgrwt>
</event>
<event>
 4    1  0.1352171E+004  0.3593630E+02  0.7546771E-02  0.1540440E+00
         -2   -1    0    0    0  501 -0.00000000000E+00  0.00000000000E+00  0.11582679184E+03  0.11582679184E+03  0.00000000000E+00 0.  1.
          2   -1    0    0  501    0  0.00000000000E+00 -0.00000000000E+00 -0.11475639381E+02  0.11475639381E+02  0.00000000000E+00 0.  1.
          2    1    1    2  502    0  0.21586650243E+02 -0.28730367536E+02  0.41446025875E+02  0.54856089437E+02  0.00000000000E+00 0.  1.
         -2    1    1    2    0  502 -0.21586650243E+02  0.28730367536E+02  0.62905126588E+02  0.72446341788E+02  0.00000000000E+00 0.  1.
<mgrwt>
<rscale>  2 0.35936298E+02</rscale>
<asrwt>0</asrwt>
<pdfrwt beam="2">  1        2 0.17654831E-02 0.35936298E+02</pdfrwt>
<pdfrwt beam="1">  1       -2 0.17819506E-01 0.35936298E+02</pdfrwt>
<totfact> 0.11499499E+05</totfact>
</mgrwt>
</event>
<event>
 4    1  0.1352171E+004  0.5106801E+02  0.7546771E-02  0.1439665E+00
         -2   -1    0    0    0  501 -0.00000000000E+00  0.00000000000E+00  0.43425913607E+02  0.43425913607E+02  0.00000000000E+00 0.  1.
          2   -1    0    0  501    0  0.00000000000E+00 -0.00000000000E+00 -0.84303323792E+02  0.84303323792E+02  0.00000000000E+00 0. -1.
          2    1    1    2  502    0  0.26709772361E+02  0.43526193359E+02 -0.54690174360E+02  0.74826176031E+02  0.00000000000E+00 0. -1.
         -2    1    1    2    0  502 -0.26709772361E+02 -0.43526193359E+02  0.13812764175E+02  0.52903061368E+02  0.00000000000E+00 0.  1.
<mgrwt>
<rscale>  2 0.51068008E+02</rscale>
<asrwt>0</asrwt>
<pdfrwt beam="2">  1        2 0.12969742E-01 0.51068008E+02</pdfrwt>
<pdfrwt beam="1">  1       -2 0.66809099E-02 0.51068008E+02</pdfrwt>
<totfact> 0.46044718E+04</totfact>
</mgrwt>
</event>
<event>
 4    1  0.1352171E+004  0.3501213E+02  0.7546771E-02  0.1548493E+00
         -2   -1    0    0    0  501 -0.00000000000E+00  0.00000000000E+00  0.18918121546E+01  0.18918121546E+01  0.00000000000E+00 0.  1.
          2   -1    0    0  501    0  0.00000000000E+00 -0.00000000000E+00 -0.74880166403E+03  0.74880166403E+03  0.00000000000E+00 0.  1.
          2    1    1    2  502    0 -0.95895858576E+01 -0.33673266689E+02 -0.51118684329E+03  0.51238446288E+03  0.00000000000E+00 0.  1.
         -2    1    1    2    0  502  0.95895858576E+01  0.33673266689E+02 -0.23572300859E+03  0.23830901331E+03  0.00000000000E+00 0.  1.
<mgrwt>
<rscale>  2 0.35012127E+02</rscale>
<asrwt>0</asrwt>
<pdfrwt beam="2">  1        2 0.11520038E+00 0.35012127E+02</pdfrwt>
<pdfrwt beam="1">  1       -2 0.29104770E-03 0.35012127E+02</pdfrwt>
<totfact> 0.33875972E+05</totfact>
</mgrwt>
</event>
<event>
 4    1  0.1352171E+004  0.2539846E+02  0.7546771E-02  0.1655344E+00
          2   -1    0    0  501    0  0.00000000000E+00  0.00000000000E+00  0.13745700233E+04  0.13745700233E+04  0.00000000000E+00 0.  1.
         -2   -1    0    0    0  501 -0.00000000000E+00 -0.00000000000E+00 -0.74454446217E+01  0.74454446217E+01  0.00000000000E+00 0. -1.
          2    1    1    2  502    0 -0.21307582898E+02  0.13822756227E+02  0.13524379890E+04  0.13526764565E+04  0.00000000000E+00 0.  1.
         -2    1    1    2    0  502  0.21307582898E+02 -0.13822756227E+02  0.14686589661E+02  0.29339011478E+02  0.00000000000E+00 0. -1.
<mgrwt>
<rscale>  2 0.25398458E+02</rscale>
<asrwt>0</asrwt>
<pdfrwt beam="1">  1        2 0.21147211E+00 0.25398458E+02</pdfrwt>
<pdfrwt beam="2">  1       -2 0.11454541E-02 0.25398458E+02</pdfrwt>
<totfact> 0.22668001E+04</totfact>
</mgrwt>
</event>
<event>
 4    1  0.1352171E+004  0.2325594E+02  0.7546771E-02  0.1687395E+00
          2   -1    0    0  501    0  0.00000000000E+00  0.00000000000E+00  0.13533365055E+04  0.13533365055E+04  0.00000000000E+00 0. -1.
         -2   -1    0    0    0  501 -0.00000000000E+00 -0.00000000000E+00 -0.98716638635E+00  0.98716638635E+00  0.00000000000E+00 0.  1.
          2    1    1    2  502    0 -0.74225634804E+01  0.22039611248E+02  0.11985868574E+04  0.11988124514E+04  0.00000000000E+00 0. -1.
         -2    1    1    2    0  502  0.74225634804E+01 -0.22039611248E+02  0.15376248166E+03  0.15551122043E+03  0.00000000000E+00 0.  1.
<mgrwt>
<rscale>  2 0.23255944E+02</rscale>
<asrwt>0</asrwt>
<pdfrwt beam="1">  1        2 0.20820413E+00 0.23255944E+02</pdfrwt>
<pdfrwt beam="2">  1       -2 0.15187283E-03 0.23255944E+02</pdfrwt>
<totfact> 0.34210767E+05</totfact>
</mgrwt>
</event>
<event>
 4    1  0.1352171E+004  0.2806618E+02  0.7546771E-02  0.1620504E+00
         -2   -1    0    0    0  501 -0.00000000000E+00  0.00000000000E+00  0.89290620738E+00  0.89290620738E+00  0.00000000000E+00 0. -1.
          2   -1    0    0  501    0  0.00000000000E+00 -0.00000000000E+00 -0.91634802604E+03  0.91634802604E+03  0.00000000000E+00 0. -1.
          2    1    1    2  502    0  0.25868800077E+02 -0.10886481915E+02 -0.54627749574E+03  0.54699800060E+03  0.00000000000E+00 0. -1.
         -2    1    1    2    0  502 -0.25868800077E+02  0.10886481915E+02 -0.36917762409E+03  0.37024293165E+03  0.00000000000E+00 0. -1.
<mgrwt>
<rscale>  2 0.28066177E+02</rscale>
<asrwt>0</asrwt>
<pdfrwt beam="2">  1        2 0.14097633E+00 0.28066177E+02</pdfrwt>
<pdfrwt beam="1">  1       -2 0.13737047E-03 0.28066177E+02</pdfrwt>
<totfact> 0.69223677E+05</totfact>
</mgrwt>
</event>
<event>
 4    1  0.1352171E+004  0.3120925E+02  0.7546771E-02  0.1585094E+00
         -2   -1    0    0    0  501 -0.00000000000E+00  0.00000000000E+00  0.63602614688E+02  0.63602614688E+02  0.00000000000E+00 0.  1.
          2   -1    0    0  501    0  0.00000000000E+00 -0.00000000000E+00 -0.51966892638E+02  0.51966892638E+02  0.00000000000E+00 0.  1.
          2    1    1    2  502    0 -0.30098796942E+00 -0.31207798665E+02 -0.42711366799E+02  0.52898753719E+02  0.00000000000E+00 0.  1.
         -2    1    1    2    0  502  0.30098796942E+00  0.31207798665E+02  0.54347088849E+02  0.62670753606E+02  0.00000000000E+00 0.  1.
<mgrwt>
<rscale>  2 0.31209250E+02</rscale>
<asrwt>0</asrwt>
<pdfrwt beam="2">  1        2 0.79949066E-02 0.31209250E+02</pdfrwt>
<pdfrwt beam="1">  1       -2 0.97850176E-02 0.31209250E+02</pdfrwt>
<totfact> 0.42098294E+04</totfact>
</mgrwt>
</event>
<event>
 4    1  0.1352171E+004  0.2879219E+02  0.7546771E-02  0.1611836E+00
          2   -1    0    0  501    0  0.00000000000E+00  0.00000000000E+00  0.27838185996E+02  0.27838185996E+02  0.00000000000E+00 0.  1.
         -2   -1    0    0    0  501 -0.00000000000E+00 -0.00000000000E+00 -0.16593918083E+04  0.16593918083E+04  0.00000000000E+00 0. -1.
          2    1    1    2  502    0 -0.28618634341E+02  0.31566133401E+01  0.20234299690E+02  0.35191154049E+02  0.00000000000E+00 0.  1.
         -2    1    1    2    0  502  0.28618634341E+02 -0.31566133401E+01 -0.16517879220E+04  0.16520388403E+04  0.00000000000E+00 0. -1.
<mgrwt>
<rscale>  2 0.28792194E+02</rscale>
<asrwt>0</asrwt>
<pdfrwt beam="1">  1        2 0.42827982E-02 0.28792194E+02</pdfrwt>
<pdfrwt beam="2">  1       -2 0.25529102E+00 0.28792194E+02</pdfrwt>
<totfact> 0.12681409E+02</totfact>
</mgrwt>
</event>
<event>
 4    1  0.1352171E+004  0.2370382E+02  0.7546771E-02  0.1680349E+00
          2   -1    0    0  501    0  0.00000000000E+00  0.00000000000E+00  0.21764800256E+03  0.21764800256E+03  0.00000000000E+00 0.  1.
         -2   -1    0    0    0  501 -0.00000000000E+00 -0.00000000000E+00 -0.75778835047E+01  0.75778835047E+01  0.00000000000E+00 0. -1.
          2    1    1    2  502    0  0.78554785189E+01  0.22364311525E+02  0.19647579328E+03  0.19790050105E+03  0.00000000000E+00 0.  1.
         -2    1    1    2    0  502 -0.78554785189E+01 -0.22364311525E+02  0.13594325778E+02  0.27325385013E+02  0.00000000000E+00 0. -1.
<mgrwt>
<rscale>  2 0.23703818E+02</rscale>
<asrwt>0</asrwt>
<pdfrwt beam="1">  1        2 0.33484303E-01 0.23703818E+02</pdfrwt>
<pdfrwt beam="2">  1       -2 0.11658284E-02 0.23703818E+02</pdfrwt>
<totfact> 0.16658650E+05</totfact>
</mgrwt>
</event>
<event>
 4    1  0.2572161E+004  0.2836036E+02  0.7546771E-02  0.1616953E+00
         -2   -1    0    0    0  501 -0.00000000000E+00  0.00000000000E+00  0.19395002880E+03  0.19395002880E+03  0.00000000000E+00 0. -1.
          2   -1    0    0  501    0  0.00000000000E+00 -0.00000000000E+00 -0.15476231496E+04  0.15476231496E+04  0.00000000000E+00 0.  1.
          2    1    1    2  502    0  0.18449469934E+02 -0.21538969384E+02 -0.15464556911E+04  0.15467157187E+04  0.00000000000E+00 0.  1.
         -2    1    1    2    0  502 -0.18449469934E+02  0.21538969384E+02  0.19278257033E+03  0.19485745961E+03  0.00000000000E+00 0. -1.
<mgrwt>
<rscale>  2 0.28360362E+02</rscale>
<asrwt>0</asrwt>
<pdfrwt beam="2">  1        2 0.23809585E+00 0.28360362E+02</pdfrwt>
<pdfrwt beam="1">  1       -2 0.29838468E-01 0.28360362E+02</pdfrwt>
<totfact> 0.15405710E+02</totfact>
</mgrwt>
</event>
<event>
 4    1  0.1352171E+004  0.3816456E+02  0.7546771E-02  0.1522170E+00
         -2   -1    0    0    0  501 -0.00000000000E+00  0.00000000000E+00  0.73056555366E+01  0.73056555366E+01  0.00000000000E+00 0. -1.
          2   -1    0    0  501    0  0.00000000000E+00 -0.00000000000E+00 -0.16165539116E+04  0.16165539116E+04  0.00000000000E+00 0.  1.
          2    1    1    2  502    0 -0.37735951846E+02  0.57036517661E+01 -0.15648390234E+04  0.15653043483E+04  0.00000000000E+00 0.  1.
         -2    1    1    2    0  502  0.37735951846E+02 -0.57036517661E+01 -0.44409232661E+02  0.58555218817E+02  0.00000000000E+00 0. -1.
<mgrwt>
<rscale>  2 0.38164561E+02</rscale>
<asrwt>0</asrwt>
<pdfrwt beam="2">  1        2 0.24870084E+00 0.38164561E+02</pdfrwt>
<pdfrwt beam="1">  1       -2 0.11239459E-02 0.38164561E+02</pdfrwt>
<totfact> 0.18639478E+04</totfact>
</mgrwt>
</event>
<event>
 4    1  0.1352171E+004  0.2537255E+02  0.7546771E-02  0.1655708E+00
          2   -1    0    0  501    0  0.00000000000E+00  0.00000000000E+00  0.16053479337E+03  0.16053479337E+03  0.00000000000E+00 0.  1.
         -2   -1    0    0    0  501 -0.00000000000E+00 -0.00000000000E+00 -0.41117552777E+01  0.41117552777E+01  0.00000000000E+00 0.  1.
          2    1    1    2  502    0 -0.21840385386E+02  0.12913699523E+02  0.91153502837E+02  0.94618851972E+02  0.00000000000E+00 0.  1.
         -2    1    1    2    0  502  0.21840385386E+02 -0.12913699523E+02  0.65269535257E+02  0.70027696677E+02  0.00000000000E+00 0.  1.
<mgrwt>
<rscale>  2 0.25372546E+02</rscale>
<asrwt>0</asrwt>
<pdfrwt beam="1">  1        2 0.24697656E-01 0.25372546E+02</pdfrwt>
<pdfrwt beam="2">  1       -2 0.63257786E-03 0.25372546E+02</pdfrwt>
<totfact> 0.52942884E+05</totfact>
</mgrwt>
</event>
<event>
 4    1  0.1352171E+004  0.2197091E+02  0.7546771E-02  0.1708756E+00
          2   -1    0    0  501    0  0.00000000000E+00  0.00000000000E+00  0.13241765398E+04  0.13241765398E+04  0.00000000000E+00 0. -1.
         -2   -1    0    0    0  501 -0.00000000000E+00 -0.00000000000E+00 -0.36543730737E+00  0.36543730737E+00  0.00000000000E+00 0. -1.
          2    1    1    2  502    0  0.21956590220E+02 -0.79272583416E+00  0.62915693786E+03  0.62954044566E+03  0.00000000000E+00 0. -1.
         -2    1    1    2    0  502 -0.21956590220E+02  0.79272583416E+00  0.69465416459E+03  0.69500153140E+03  0.00000000000E+00 0. -1.
<mgrwt>
<rscale>  2 0.21970907E+02</rscale>
<asrwt>0</asrwt>
<pdfrwt beam="1">  1        2 0.20371563E+00 0.21970907E+02</pdfrwt>
<pdfrwt beam="2">  1       -2 0.56222184E-04 0.21970907E+02</pdfrwt>
<totfact> 0.12851293E+06</totfact>
</mgrwt>
</event>
<event>
 4    1  0.1352171E+004  0.2131458E+02  0.7546771E-02  0.1720383E+00
          2   -1    0    0  501    0  0.00000000000E+00  0.00000000000E+00  0.76725131571E+03  0.76725131571E+03  0.00000000000E+00 0. -1.
         -2   -1    0    0    0  501 -0.00000000000E+00 -0.00000000000E+00 -0.96278235554E+00  0.96278235554E+00  0.00000000000E+00 0. -1.
          2    1    1    2  502    0 -0.99808558065E+01 -0.18833319061E+02  0.62147083668E+03  0.62183624230E+03  0.00000000000E+00 0. -1.
         -2    1    1    2    0  502  0.99808558065E+01  0.18833319061E+02  0.14481769668E+03  0.14637785577E+03  0.00000000000E+00 0. -1.
<mgrwt>
<rscale>  2 0.21314582E+02</rscale>
<asrwt>0</asrwt>
<pdfrwt beam="1">  1        2 0.11803817E+00 0.21314582E+02</pdfrwt>
<pdfrwt beam="2">  1       -2 0.14812098E-03 0.21314582E+02</pdfrwt>
<totfact> 0.71124382E+05</totfact>
</mgrwt>
</event>
<event>
 4    1  0.1352171E+004  0.2078141E+02  0.7546771E-02  0.1730221E+00
          2   -1    0    0  501    0  0.00000000000E+00  0.00000000000E+00  0.12653411672E+02  0.12653411672E+02  0.00000000000E+00 0. -1.
         -2   -1    0    0    0  501 -0.00000000000E+00 -0.00000000000E+00 -0.11611324313E+03  0.11611324313E+03  0.00000000000E+00 0. -1.
          2    1    1    2  502    0  0.19675833610E+01  0.20688057574E+02  0.23696520834E+01  0.20916079017E+02  0.00000000000E+00 0. -1.
         -2    1    1    2    0  502 -0.19675833610E+01 -0.20688057574E+02 -0.10582948354E+03  0.10785057578E+03  0.00000000000E+00 0. -1.
<mgrwt>
<rscale>  2 0.20781413E+02</rscale>
<asrwt>0</asrwt>
<pdfrwt beam="1">  1        2 0.19466787E-02 0.20781413E+02</pdfrwt>
<pdfrwt beam="2">  1       -2 0.17863576E-01 0.20781413E+02</pdfrwt>
<totfact> 0.87995497E+04</totfact>
</mgrwt>
</event>
<event>
 4    1  0.1352171E+004  0.3341093E+02  0.7546771E-02  0.1563182E+00
          2   -1    0    0  501    0  0.00000000000E+00  0.00000000000E+00  0.80097414110E+01  0.80097414110E+01  0.00000000000E+00 0.  1.
         -2   -1    0    0    0  501 -0.00000000000E+00 -0.00000000000E+00 -0.43338234713E+03  0.43338234713E+03  0.00000000000E+00 0. -1.
          2    1    1    2  502    0 -0.20938832562E+02 -0.26035657355E+02 -0.30907072480E+02  0.45514143870E+02  0.00000000000E+00 0.  1.
         -2    1    1    2    0  502  0.20938832562E+02  0.26035657355E+02 -0.39446553324E+03  0.39587794467E+03  0.00000000000E+00 0. -1.
<mgrwt>
<rscale>  2 0.33410929E+02</rscale>
<asrwt>0</asrwt>
<pdfrwt beam="1">  1        2 0.12322676E-02 0.33410929E+02</pdfrwt>
<pdfrwt beam="2">  1       -2 0.66674225E-01 0.33410929E+02</pdfrwt>
<totfact> 0.16957105E+04</totfact>
</mgrwt>
</event>
<event>
 4    1  0.1352171E+004  0.2537288E+02  0.7546771E-02  0.1655703E+00
          2   -1    0    0  501    0  0.00000000000E+00  0.00000000000E+00  0.15513476714E+04  0.15513476714E+04  0.00000000000E+00 0. -1.
         -2   -1    0    0    0  501 -0.00000000000E+00 -0.00000000000E+00 -0.72496492309E+00  0.72496492309E+00  0.00000000000E+00 0.  1.
          2    1    1    2  502    0 -0.79069604120E+01  0.24109393928E+02  0.12827595798E+04  0.12830104920E+04  0.00000000000E+00 0. -1.
         -2    1    1    2    0  502  0.79069604120E+01 -0.24109393928E+02  0.26786312660E+03  0.26906214429E+03  0.00000000000E+00 0.  1.
<mgrwt>
<rscale>  2 0.25372877E+02</rscale>
<asrwt>0</asrwt>
<pdfrwt beam="1">  1        2 0.23866622E+00 0.25372877E+02</pdfrwt>
<pdfrwt beam="2">  1       -2 0.11153431E-03 0.25372877E+02</pdfrwt>
<totfact> 0.42281359E+05</totfact>
</mgrwt>
</event>
<event>
 4    1  0.1352171E+004  0.2586549E+02  0.7546771E-02  0.1648873E+00
         -2   -1    0    0    0  501 -0.00000000000E+00  0.00000000000E+00  0.12652135523E+02  0.12652135523E+02  0.00000000000E+00 0.  1.
          2   -1    0    0  501    0  0.00000000000E+00 -0.00000000000E+00 -0.17492605985E+03  0.17492605985E+03  0.00000000000E+00 0. -1.
          2    1    1    2  502    0 -0.25226338490E+01  0.25742177328E+02 -0.15947812488E+03  0.16156204905E+03  0.00000000000E+00 0. -1.
         -2    1    1    2    0  502  0.25226338490E+01 -0.25742177328E+02 -0.27957994397E+01  0.26016146325E+02  0.00000000000E+00 0.  1.
<mgrwt>
<rscale>  2 0.25865486E+02</rscale>
<asrwt>0</asrwt>
<pdfrwt beam="2">  1        2 0.26911701E-01 0.25865486E+02</pdfrwt>
<pdfrwt beam="1">  1       -2 0.19464824E-02 0.25865486E+02</pdfrwt>
<totfact> 0.10543387E+05</totfact>
</mgrwt>
</event>
<event>
 4    1  0.1352171E+004  0.2001777E+02  0.7546771E-02  0.1744975E+00
          2   -1    0    0  501    0  0.00000000000E+00  0.00000000000E+00  0.37131202682E+03  0.37131202682E+03  0.00000000000E+00 0.  1.
         -2   -1    0    0    0  501 -0.00000000000E+00 -0.00000000000E+00 -0.47915517160E+01  0.47915517160E+01  0.00000000000E+00 0.  1.
          2    1    1    2  502    0  0.11089886767E+02  0.16665099773E+02  0.34878589598E+03  0.34935986085E+03  0.00000000000E+00 0.  1.
         -2    1    1    2    0  502 -0.11089886767E+02 -0.16665099773E+02  0.17734579125E+02  0.26743717686E+02  0.00000000000E+00 0.  1.
<mgrwt>
<rscale>  2 0.20017771E+02</rscale>
<asrwt>0</asrwt>
<pdfrwt beam="1">  1        2 0.57124904E-01 0.20017771E+02</pdfrwt>
<pdfrwt beam="2">  1       -2 0.73716210E-03 0.20017771E+02</pdfrwt>
<totfact> 0.17453426E+05</totfact>
</mgrwt>
</event>
<event>
 4    1  0.1352171E+004  0.2617589E+02  0.7546771E-02  0.1644665E+00
          2   -1    0    0  501    0  0.00000000000E+00  0.00000000000E+00  0.10767932414E+03  0.10767932414E+03  0.00000000000E+00 0.  1.
         -2   -1    0    0    0  501 -0.00000000000E+00 -0.00000000000E+00 -0.69316270417E+01  0.69316270417E+01  0.00000000000E+00 0.  1.
          2    1    1    2  502    0 -0.21330840990E+02  0.15171404538E+02  0.33962395009E+02  0.42879139074E+02  0.00000000000E+00 0.  1.
         -2    1    1    2    0  502  0.21330840990E+02 -0.15171404538E+02  0.66785302093E+02  0.71731812110E+02  0.00000000000E+00 0.  1.
<mgrwt>
<rscale>  2 0.26175885E+02</rscale>
<asrwt>0</asrwt>
<pdfrwt beam="1">  1        2 0.16566049E-01 0.26175885E+02</pdfrwt>
<pdfrwt beam="2">  1       -2 0.10664042E-02 0.26175885E+02</pdfrwt>
<totfact> 0.40275735E+05</totfact>
</mgrwt>
</event>
<event>
 4    1  0.1352171E+004  0.3268556E+02  0.7546771E-02  0.1570169E+00
          2   -1    0    0  501    0  0.00000000000E+00  0.00000000000E+00  0.16955859185E+01  0.16955859185E+01  0.00000000000E+00 0. -1.
         -2   -1    0    0    0  501 -0.00000000000E+00 -0.00000000000E+00 -0.11472885775E+04  0.11472885775E+04  0.00000000000E+00 0. -1.
          2    1    1    2  502    0  0.32483870982E+02 -0.36255016326E+01 -0.18706712323E+03  0.18990117095E+03  0.00000000000E+00 0. -1.
         -2    1    1    2    0  502 -0.32483870982E+02  0.36255016326E+01 -0.95852586840E+03  0.95908299251E+03  0.00000000000E+00 0. -1.
<mgrwt>
<rscale>  2 0.32685565E+02</rscale>
<asrwt>0</asrwt>
<pdfrwt beam="1">  1        2 0.26085852E-03 0.32685565E+02</pdfrwt>
<pdfrwt beam="2">  1       -2 0.17650651E+00 0.32685565E+02</pdfrwt>
<totfact> 0.14302148E+04</totfact>
</mgrwt>
</event>
<event>
 4    1  0.1352171E+004  0.2309898E+02  0.7546771E-02  0.1689911E+00
         -2   -1    0    0    0  501 -0.00000000000E+00  0.00000000000E+00  0.29542373993E+02  0.29542373993E+02  0.00000000000E+00 0. -1.
          2   -1    0    0  501    0  0.00000000000E+00 -0.00000000000E+00 -0.11965007011E+04  0.11965007011E+04  0.00000000000E+00 0.  1.
          2    1    1    2  502    0  0.30062140238E+01  0.22902527102E+02 -0.11918563889E+04  0.11920802049E+04  0.00000000000E+00 0.  1.
         -2    1    1    2    0  502 -0.30062140238E+01 -0.22902527102E+02  0.24898061815E+02  0.33962870205E+02  0.00000000000E+00 0. -1.
<mgrwt>
<rscale>  2 0.23098984E+02</rscale>
<asrwt>0</asrwt>
<pdfrwt beam="2">  1        2 0.18407702E+00 0.23098984E+02</pdfrwt>
<pdfrwt beam="1">  1       -2 0.45449809E-02 0.23098984E+02</pdfrwt>
<totfact> 0.40857283E+03</totfact>
</mgrwt>
</event>
<event>
 4    1  0.1352171E+004  0.2483420E+02  0.7546771E-02  0.1663395E+00
         -2   -1    0    0    0  501 -0.00000000000E+00  0.00000000000E+00  0.19249125808E+02  0.19249125808E+02  0.00000000000E+00 0. -1.
          2   -1    0    0  501    0  0.00000000000E+00 -0.00000000000E+00 -0.52146600879E+02  0.52146600879E+02  0.00000000000E+00 0. -1.
          2    1    1    2  502    0 -0.48334235933E+01 -0.24359291247E+02  0.57179765139E+01  0.25483961802E+02  0.00000000000E+00 0. -1.
         -2    1    1    2    0  502  0.48334235933E+01  0.24359291247E+02 -0.38615451585E+02  0.45911764885E+02  0.00000000000E+00 0. -1.
<mgrwt>
<rscale>  2 0.24834204E+02</rscale>
<asrwt>0</asrwt>
<pdfrwt beam="2">  1        2 0.80225538E-02 0.24834204E+02</pdfrwt>
<pdfrwt beam="1">  1       -2 0.29614041E-02 0.24834204E+02</pdfrwt>
<totfact> 0.22226808E+05</totfact>
</mgrwt>
</event>
<event>
 4    1  0.1352171E+004  0.2408183E+02  0.7546771E-02  0.1674551E+00
         -2   -1    0    0    0  501 -0.00000000000E+00  0.00000000000E+00  0.44400568884E+03  0.44400568884E+03  0.00000000000E+00 0.  1.
          2   -1    0    0  501    0  0.00000000000E+00 -0.00000000000E+00 -0.36350279272E+02  0.36350279272E+02  0.00000000000E+00 0.  1.
          2    1    1    2  502    0  0.94835787315E+01 -0.22135861988E+02 -0.31995753205E+02  0.40045759759E+02  0.00000000000E+00 0.  1.
         -2    1    1    2    0  502 -0.94835787315E+01  0.22135861988E+02  0.43965116278E+03  0.44031020836E+03  0.00000000000E+00 0.  1.
<mgrwt>
<rscale>  2 0.24081832E+02</rscale>
<asrwt>0</asrwt>
<pdfrwt beam="2">  1        2 0.55923510E-02 0.24081832E+02</pdfrwt>
<pdfrwt beam="1">  1       -2 0.68308564E-01 0.24081832E+02</pdfrwt>
<totfact> 0.22246166E+03</totfact>
</mgrwt>
</event>
<event>
 4    1  0.1352171E+004  0.3637958E+02  0.7546771E-02  0.1536680E+00
         -2   -1    0    0    0  501 -0.00000000000E+00  0.00000000000E+00  0.10217852906E+03  0.10217852906E+03  0.00000000000E+00 0. -1.
          2   -1    0    0  501    0  0.00000000000E+00 -0.00000000000E+00 -0.85395165443E+02  0.85395165443E+02  0.00000000000E+00 0. -1.
          2    1    1    2  502    0  0.30314829117E+02  0.20111813345E+02 -0.77990131131E+02  0.86057739072E+02  0.00000000000E+00 0. -1.
         -2    1    1    2    0  502 -0.30314829117E+02 -0.20111813345E+02  0.94773494744E+02  0.10151595543E+03  0.00000000000E+00 0. -1.
<mgrwt>
<rscale>  2 0.36379581E+02</rscale>
<asrwt>0</asrwt>
<pdfrwt beam="2">  1        2 0.13137718E-01 0.36379581E+02</pdfrwt>
<pdfrwt beam="1">  1       -2 0.15719774E-01 0.36379581E+02</pdfrwt>
<totfact> 0.11656277E+04</totfact>
</mgrwt>
</event>
<event>
 4    1  0.1352171E+004  0.9129780E+02  0.7546771E-02  0.1299739E+00
         -2   -1    0    0    0  501 -0.00000000000E+00  0.00000000000E+00  0.69937877437E+02  0.69937877437E+02  0.00000000000E+00 0.  1.
          2   -1    0    0  501    0  0.00000000000E+00 -0.00000000000E+00 -0.15376967128E+03  0.15376967128E+03  0.00000000000E+00 0.  1.
          2    1    1    2  502    0  0.13502834540E+02 -0.90293751487E+02 -0.94965271910E+02  0.13173340870E+03  0.00000000000E+00 0.  1.
         -2    1    1    2    0  502 -0.13502834540E+02  0.90293751487E+02  0.11133478068E+02  0.91974140019E+02  0.00000000000E+00 0.  1.
<mgrwt>
<rscale>  2 0.91297799E+02</rscale>
<asrwt>0</asrwt>
<pdfrwt beam="2">  1        2 0.23656872E-01 0.91297799E+02</pdfrwt>
<pdfrwt beam="1">  1       -2 0.10759674E-01 0.91297799E+02</pdfrwt>
<totfact> 0.12214881E+04</totfact>
</mgrwt>
</event>
<event>
 4    1  0.1352171E+004  0.2364506E+02  0.7546771E-02  0.1681262E+00
         -2   -1    0    0    0  501 -0.00000000000E+00  0.00000000000E+00  0.89618698670E+02  0.89618698670E+02  0.00000000000E+00 0.  1.
          2   -1    0    0  501    0  0.00000000000E+00 -0.00000000000E+00 -0.24392864043E+03  0.24392864043E+03  0.00000000000E+00 0. -1.
          2    1    1    2  502    0 -0.21156515699E+02 -0.10558917740E+02 -0.24178219060E+03  0.24293562232E+03  0.00000000000E+00 0. -1.
         -2    1    1    2    0  502  0.21156515699E+02  0.10558917740E+02  0.87472248841E+02  0.90611716779E+02  0.00000000000E+00 0.  1.
<mgrwt>
<rscale>  2 0.23645061E+02</rscale>
<asrwt>0</asrwt>
<pdfrwt beam="2">  1        2 0.37527483E-01 0.23645061E+02</pdfrwt>
<pdfrwt beam="1">  1       -2 0.13787492E-01 0.23645061E+02</pdfrwt>
<totfact> 0.44483038E+03</totfact>
</mgrwt>
</event>
<event>
 4    1  0.1352171E+004  0.2131691E+02  0.7546771E-02  0.1720341E+00
          2   -1    0    0  501    0  0.00000000000E+00  0.00000000000E+00  0.16543731861E+03  0.16543731861E+03  0.00000000000E+00 0. -1.
         -2   -1    0    0    0  501 -0.00000000000E+00 -0.00000000000E+00 -0.77222250257E+02  0.77222250257E+02  0.00000000000E+00 0. -1.
          2    1    1    2  502    0  0.14362795492E+02 -0.15751846322E+02  0.16325998827E+03  0.16464578442E+03  0.00000000000E+00 0. -1.
         -2    1    1    2    0  502 -0.14362795492E+02  0.15751846322E+02 -0.75044919923E+02  0.78013784443E+02  0.00000000000E+00 0. -1.
<mgrwt>
<rscale>  2 0.21316908E+02</rscale>
<asrwt>0</asrwt>
<pdfrwt beam="1">  1        2 0.25451895E-01 0.21316908E+02</pdfrwt>
<pdfrwt beam="2">  1       -2 0.11880346E-01 0.21316908E+02</pdfrwt>
<totfact> 0.81450093E+03</totfact>
</mgrwt>
</event>
<event>
 4    1  0.1352171E+004  0.2367166E+02  0.7546771E-02  0.1680849E+00
          2   -1    0    0  501    0  0.00000000000E+00  0.00000000000E+00  0.17568923427E+01  0.17568923427E+01  0.00000000000E+00 0.  1.
         -2   -1    0    0    0  501 -0.00000000000E+00 -0.00000000000E+00 -0.39881811238E+03  0.39881811238E+03  0.00000000000E+00 0.  1.
          2    1    1    2  502    0  0.16075636910E+02  0.17375880142E+02 -0.10889635473E+03  0.11143950550E+03  0.00000000000E+00 0.  1.
         -2    1    1    2    0  502 -0.16075636910E+02 -0.17375880142E+02 -0.28816486531E+03  0.28913549923E+03  0.00000000000E+00 0.  1.
<mgrwt>
<rscale>  2 0.23671656E+02</rscale>
<asrwt>0</asrwt>
<pdfrwt beam="1">  1        2 0.27029105E-03 0.23671656E+02</pdfrwt>
<pdfrwt beam="2">  1       -2 0.61356651E-01 0.23671656E+02</pdfrwt>
<totfact> 0.13651701E+05</totfact>
</mgrwt>
</event>
<event>
 4    1  0.1352171E+004  0.2582454E+02  0.7546771E-02  0.1649434E+00
         -2   -1    0    0    0  501 -0.00000000000E+00  0.00000000000E+00  0.35643949497E+02  0.35643949497E+02  0.00000000000E+00 0.  1.
          2   -1    0    0  501    0  0.00000000000E+00 -0.00000000000E+00 -0.56043873105E+02  0.56043873105E+02  0.00000000000E+00 0. -1.
          2    1    1    2  502    0 -0.75697443805E+01  0.24690192217E+02 -0.47616857891E+02  0.54168918921E+02  0.00000000000E+00 0. -1.
         -2    1    1    2    0  502  0.75697443805E+01 -0.24690192217E+02  0.27216934282E+02  0.37518903681E+02  0.00000000000E+00 0.  1.
<mgrwt>
<rscale>  2 0.25824535E+02</rscale>
<asrwt>0</asrwt>
<pdfrwt beam="2">  1        2 0.86221343E-02 0.25824535E+02</pdfrwt>
<pdfrwt beam="1">  1       -2 0.54836846E-02 0.25824535E+02</pdfrwt>
<totfact> 0.86406509E+04</totfact>
</mgrwt>
</event>
<event>
 4    1  0.1352171E+004  0.3900594E+02  0.7546771E-02  0.1515657E+00
          2   -1    0    0  501    0  0.00000000000E+00  0.00000000000E+00  0.70505279731E+03  0.70505279731E+03  0.00000000000E+00 0. -1.
         -2   -1    0    0    0  501 -0.00000000000E+00 -0.00000000000E+00 -0.63190830216E+01  0.63190830216E+01  0.00000000000E+00 0. -1.
          2    1    1    2  502    0 -0.35210873227E+02 -0.16782654568E+02  0.63799978955E+03  0.63919104699E+03  0.00000000000E+00 0. -1.
         -2    1    1    2    0  502  0.35210873227E+02  0.16782654568E+02  0.60733924747E+02  0.72180833349E+02  0.00000000000E+00 0. -1.
<mgrwt>
<rscale>  2 0.39005937E+02</rscale>
<asrwt>0</asrwt>
<pdfrwt beam="1">  1        2 0.10846960E+00 0.39005937E+02</pdfrwt>
<pdfrwt beam="2">  1       -2 0.97216718E-03 0.39005937E+02</pdfrwt>
<totfact> 0.71479240E+04</totfact>
</mgrwt>
</event>
<event>
 4    1  0.1352171E+004  0.2161991E+02  0.7546771E-02  0.1714910E+00
          2   -1    0    0  501    0  0.00000000000E+00  0.00000000000E+00  0.73334027911E+03  0.73334027911E+03  0.00000000000E+00 0. -1.
         -2   -1    0    0    0  501 -0.00000000000E+00 -0.00000000000E+00 -0.73101235104E+00  0.73101235104E+00  0.00000000000E+00 0. -1.
          2    1    1    2  502    0 -0.14446227026E+02 -0.16084974217E+02  0.23494922472E+03  0.23594185315E+03  0.00000000000E+00 0. -1.
         -2    1    1    2    0  502  0.14446227026E+02  0.16084974217E+02  0.49766004203E+03  0.49812943831E+03  0.00000000000E+00 0. -1.
<mgrwt>
<rscale>  2 0.21619906E+02</rscale>
<asrwt>0</asrwt>
<pdfrwt beam="1">  1        2 0.11282099E+00 0.21619906E+02</pdfrwt>
<pdfrwt beam="2">  1       -2 0.11246402E-03 0.21619906E+02</pdfrwt>
<totfact> 0.10787060E+06</totfact>
</mgrwt>
</event>
<event>
 4    1  0.1352171E+004  0.3443399E+02  0.7546771E-02  0.1553685E+00
          2   -1    0    0  501    0  0.00000000000E+00  0.00000000000E+00  0.21161360357E+02  0.21161360357E+02  0.00000000000E+00 0.  1.
         -2   -1    0    0    0  501 -0.00000000000E+00 -0.00000000000E+00 -0.46320475115E+03  0.46320475115E+03  0.00000000000E+00 0.  1.
          2    1    1    2  502    0  0.33320175378E+02  0.86870784929E+01  0.60416102028E+01  0.34959983893E+02  0.00000000000E+00 0.  1.
         -2    1    1    2    0  502 -0.33320175378E+02 -0.86870784929E+01 -0.44808500099E+03  0.44940612761E+03  0.00000000000E+00 0.  1.
<mgrwt>
<rscale>  2 0.34433986E+02</rscale>
<asrwt>0</asrwt>
<pdfrwt beam="1">  1        2 0.32555940E-02 0.34433986E+02</pdfrwt>
<pdfrwt beam="2">  1       -2 0.71262268E-01 0.34433986E+02</pdfrwt>
<totfact> 0.42006004E+03</totfact>
</mgrwt>
</event>
<event>
 4    1  0.1352171E+004  0.2874534E+02  0.7546771E-02  0.1612386E+00
         -2   -1    0    0    0  501 -0.00000000000E+00  0.00000000000E+00  0.36631037213E+01  0.36631037213E+01  0.00000000000E+00 0.  1.
          2   -1    0    0  501    0  0.00000000000E+00 -0.00000000000E+00 -0.73191746527E+03  0.73191746527E+03  0.00000000000E+00 0.  1.
          2    1    1    2  502    0 -0.26003816674E+02 -0.12251367971E+02 -0.67003639504E+03  0.67065271577E+03  0.00000000000E+00 0.  1.
         -2    1    1    2    0  502  0.26003816674E+02  0.12251367971E+02 -0.58217966508E+02  0.64927853215E+02  0.00000000000E+00 0.  1.
<mgrwt>
<rscale>  2 0.28745339E+02</rscale>
<asrwt>0</asrwt>
<pdfrwt beam="2">  1        2 0.11260256E+00 0.28745339E+02</pdfrwt>
<pdfrwt beam="1">  1       -2 0.56355507E-03 0.28745339E+02</pdfrwt>
<totfact> 0.13609689E+05</totfact>
</mgrwt>
</event>
<event>
 4    1  0.1352171E+004  0.5413438E+02  0.7546771E-02  0.1424237E+00
          2   -1    0    0  501    0  0.00000000000E+00  0.00000000000E+00  0.11750451097E+04  0.11750451097E+04  0.00000000000E+00 0. -1.
         -2   -1    0    0    0  501 -0.00000000000E+00 -0.00000000000E+00 -0.60925300797E+03  0.60925300797E+03  0.00000000000E+00 0. -1.
          2    1    1    2  502    0  0.38331333294E+02  0.38226175053E+02  0.11732172336E+04  0.11744654992E+04  0.00000000000E+00 0. -1.
         -2    1    1    2    0  502 -0.38331333294E+02 -0.38226175053E+02 -0.60742513194E+03  0.60983261841E+03  0.00000000000E+00 0. -1.
<mgrwt>
<rscale>  2 0.54134384E+02</rscale>
<asrwt>0</asrwt>
<pdfrwt beam="1">  1        2 0.18077617E+00 0.54134384E+02</pdfrwt>
<pdfrwt beam="2">  1       -2 0.93731232E-01 0.54134384E+02</pdfrwt>
<totfact> 0.24038518E+01</totfact>
</mgrwt>
</event>
<event>
 4    1  0.1352171E+004  0.3288065E+02  0.7546771E-02  0.1568269E+00
         -2   -1    0    0    0  501 -0.00000000000E+00  0.00000000000E+00  0.31195342472E+03  0.31195342472E+03  0.00000000000E+00 0. -1.
          2   -1    0    0  501    0  0.00000000000E+00 -0.00000000000E+00 -0.73387669514E+01  0.73387669514E+01  0.00000000000E+00 0. -1.
          2    1    1    2  502    0  0.24175383502E+02  0.22286500698E+02  0.36329706044E+02  0.48999845123E+02  0.00000000000E+00 0. -1.
         -2    1    1    2    0  502 -0.24175383502E+02 -0.22286500698E+02  0.26828495173E+03  0.27029234655E+03  0.00000000000E+00 0. -1.
<mgrwt>
<rscale>  2 0.32880652E+02</rscale>
<asrwt>0</asrwt>
<pdfrwt beam="2">  1        2 0.11290413E-02 0.32880652E+02</pdfrwt>
<pdfrwt beam="1">  1       -2 0.47992824E-01 0.32880652E+02</pdfrwt>
<totfact> 0.36247635E+04</totfact>
</mgrwt>
</event>
<event>
 4    1  0.1352171E+004  0.2717725E+02  0.7546771E-02  0.1631565E+00
          2   -1    0    0  501    0  0.00000000000E+00  0.00000000000E+00  0.25443037571E+02  0.25443037571E+02  0.00000000000E+00 0. -1.
         -2   -1    0    0    0  501 -0.00000000000E+00 -0.00000000000E+00 -0.34382746330E+02  0.34382746330E+02  0.00000000000E+00 0.  1.
          2    1    1    2  502    0  0.26013572047E+02 -0.78674513385E+01  0.73330872258E+01  0.28149189855E+02  0.00000000000E+00 0.  1.
         -2    1    1    2    0  502 -0.26013572047E+02  0.78674513385E+01 -0.16272795985E+02  0.31676594047E+02  0.00000000000E+00 0. -1.
<mgrwt>
<rscale>  2 0.27177246E+02</rscale>
<asrwt>0</asrwt>
<pdfrwt beam="1">  1        2 0.39143135E-02 0.27177246E+02</pdfrwt>
<pdfrwt beam="2">  1       -2 0.52896533E-02 0.27177246E+02</pdfrwt>
<totfact> 0.24081511E+05</totfact>
</mgrwt>
</event>
<event>
 4    1  0.1352171E+004  0.2469762E+02  0.7546771E-02  0.1665383E+00
         -2   -1    0    0    0  501 -0.00000000000E+00  0.00000000000E+00  0.11558457915E+01  0.11558457915E+01  0.00000000000E+00 0. -1.
          2   -1    0    0  501    0  0.00000000000E+00 -0.00000000000E+00 -0.73559699769E+03  0.73559699769E+03  0.00000000000E+00 0. -1.
          2    1    1    2  502    0  0.63704417196E+01 -0.23861897161E+02 -0.56304474025E+03  0.56358615329E+03  0.00000000000E+00 0. -1.
         -2    1    1    2    0  502 -0.63704417196E+01  0.23861897161E+02 -0.17139641165E+03  0.17316669019E+03  0.00000000000E+00 0. -1.
<mgrwt>
<rscale>  2 0.24697625E+02</rscale>
<asrwt>0</asrwt>
<pdfrwt beam="2">  1        2 0.11316871E+00 0.24697625E+02</pdfrwt>
<pdfrwt beam="1">  1       -2 0.17782252E-03 0.24697625E+02</pdfrwt>
<totfact> 0.61120432E+05</totfact>
</mgrwt>
</event>
<event>
 4    1  0.1352171E+004  0.2377503E+02  0.7546771E-02  0.1679247E+00
          2   -1    0    0  501    0  0.00000000000E+00  0.00000000000E+00  0.54651867498E+03  0.54651867498E+03  0.00000000000E+00 0.  1.
         -2   -1    0    0    0  501 -0.00000000000E+00 -0.00000000000E+00 -0.42107724335E+01  0.42107724335E+01  0.00000000000E+00 0. -1.
          2    1    1    2  502    0  0.12836668902E+02  0.20011797873E+02  0.51032107564E+03  0.51087459553E+03  0.00000000000E+00 0.  1.
         -2    1    1    2    0  502 -0.12836668902E+02 -0.20011797873E+02  0.31986826908E+02  0.39854851878E+02  0.00000000000E+00 0. -1.
<mgrwt>
<rscale>  2 0.23775031E+02</rscale>
<asrwt>0</asrwt>
<pdfrwt beam="1">  1        2 0.84079740E-01 0.23775031E+02</pdfrwt>
<pdfrwt beam="2">  1       -2 0.64781158E-03 0.23775031E+02</pdfrwt>
<totfact> 0.14746941E+05</totfact>
</mgrwt>
</event>
<event>
 4    1  0.1352171E+004  0.2229098E+02  0.7546771E-02  0.1703268E+00
          2   -1    0    0  501    0  0.00000000000E+00  0.00000000000E+00  0.45190349437E+03  0.45190349437E+03  0.00000000000E+00 0. -1.
         -2   -1    0    0    0  501 -0.00000000000E+00 -0.00000000000E+00 -0.47102297769E+01  0.47102297769E+01  0.00000000000E+00 0.  1.
          2    1    1    2  502    0  0.17461430463E+01  0.22222479251E+02  0.42348742453E+03  0.42407368031E+03  0.00000000000E+00 0. -1.
         -2    1    1    2    0  502 -0.17461430463E+01 -0.22222479251E+02  0.23705840063E+02  0.32540043834E+02  0.00000000000E+00 0.  1.
<mgrwt>
<rscale>  2 0.22290976E+02</rscale>
<asrwt>0</asrwt>
<pdfrwt beam="1">  1        2 0.69523580E-01 0.22290976E+02</pdfrwt>
<pdfrwt beam="2">  1       -2 0.72465109E-03 0.22290976E+02</pdfrwt>
<totfact> 0.15129281E+05</totfact>
</mgrwt>
</event>
<event>
 4    1  0.1352171E+004  0.2730334E+02  0.7546771E-02  0.1629964E+00
          2   -1    0    0  501    0  0.00000000000E+00  0.00000000000E+00  0.29296624145E+03  0.29296624145E+03  0.00000000000E+00 0.  1.
         -2   -1    0    0    0  501 -0.00000000000E+00 -0.00000000000E+00 -0.25658652916E+01  0.25658652916E+01  0.00000000000E+00 0.  1.
          2    1    1    2  502    0  0.57240904731E+01 -0.26696573170E+02  0.15866282429E+03  0.16099491930E+03  0.00000000000E+00 0.  1.
         -2    1    1    2    0  502 -0.57240904731E+01  0.26696573170E+02  0.13173755187E+03  0.13453718744E+03  0.00000000000E+00 0.  1.
<mgrwt>
<rscale>  2 0.27303337E+02</rscale>
<asrwt>0</asrwt>
<pdfrwt beam="1">  1        2 0.45071703E-01 0.27303337E+02</pdfrwt>
<pdfrwt beam="2">  1       -2 0.39474874E-03 0.27303337E+02</pdfrwt>
<totfact> 0.55540819E+05</totfact>
</mgrwt>
</event>
<event>
 4    1  0.1352171E+004  0.2096666E+02  0.7546771E-02  0.1726761E+00
         -2   -1    0    0    0  501 -0.00000000000E+00  0.00000000000E+00  0.83507225537E+01  0.83507225537E+01  0.00000000000E+00 0.  1.
          2   -1    0    0  501    0  0.00000000000E+00 -0.00000000000E+00 -0.89117465215E+03  0.89117465215E+03  0.00000000000E+00 0.  1.
          2    1    1    2  502    0 -0.76460322322E+01 -0.19522782333E+02 -0.87768857958E+03  0.87793897485E+03  0.00000000000E+00 0.  1.
         -2    1    1    2    0  502  0.76460322322E+01  0.19522782333E+02 -0.51353500206E+01  0.21586399856E+02  0.00000000000E+00 0.  1.
<mgrwt>
<rscale>  2 0.20966660E+02</rscale>
<asrwt>0</asrwt>
<pdfrwt beam="2">  1        2 0.13710376E+00 0.20966660E+02</pdfrwt>
<pdfrwt beam="1">  1       -2 0.12847268E-02 0.20966660E+02</pdfrwt>
<totfact> 0.33510768E+04</totfact>
</mgrwt>
</event>
<event>
 4    1  0.1352171E+004  0.2148488E+02  0.7546771E-02  0.1717316E+00
          2   -1    0    0  501    0  0.00000000000E+00  0.00000000000E+00  0.52519054327E+03  0.52519054327E+03  0.00000000000E+00 0.  1.
         -2   -1    0    0    0  501 -0.00000000000E+00 -0.00000000000E+00 -0.41076464917E+01  0.41076464917E+01  0.00000000000E+00 0. -1.
          2    1    1    2  502    0 -0.11267892023E+02  0.18293018074E+02  0.49517471360E+03  0.49564059246E+03  0.00000000000E+00 0.  1.
         -2    1    1    2    0  502  0.11267892023E+02 -0.18293018074E+02  0.25908183183E+02  0.33657597311E+02  0.00000000000E+00 0. -1.
<mgrwt>
<rscale>  2 0.21484876E+02</rscale>
<asrwt>0</asrwt>
<pdfrwt beam="1">  1        2 0.80798492E-01 0.21484876E+02</pdfrwt>
<pdfrwt beam="2">  1       -2 0.63194603E-03 0.21484876E+02</pdfrwt>
<totfact> 0.15488593E+05</totfact>
</mgrwt>
</event>
<event>
 4    1  0.1352171E+004  0.2295276E+02  0.7546771E-02  0.1692277E+00
         -2   -1    0    0    0  501 -0.00000000000E+00  0.00000000000E+00  0.15275860334E+01  0.15275860334E+01  0.00000000000E+00 0. -1.
          2   -1    0    0  501    0  0.00000000000E+00 -0.00000000000E+00 -0.45041550783E+03  0.45041550783E+03  0.00000000000E+00 0. -1.
          2    1    1    2  502    0 -0.27843904091E+01  0.22783246642E+02 -0.33382769432E+03  0.33461583742E+03  0.00000000000E+00 0. -1.
         -2    1    1    2    0  502  0.27843904091E+01 -0.22783246642E+02 -0.11506022748E+03  0.11732725645E+03  0.00000000000E+00 0. -1.
<mgrwt>
<rscale>  2 0.22952759E+02</rscale>
<asrwt>0</asrwt>
<pdfrwt beam="2">  1        2 0.69294681E-01 0.22952759E+02</pdfrwt>
<pdfrwt beam="1">  1       -2 0.23501328E-03 0.22952759E+02</pdfrwt>
<totfact> 0.68851002E+05</totfact>
</mgrwt>
</event>
<event>
 4    1  0.1352171E+004  0.2446374E+02  0.7546771E-02  0.1668826E+00
          2   -1    0    0  501    0  0.00000000000E+00  0.00000000000E+00  0.15286482475E+04  0.15286482475E+04  0.00000000000E+00 0.  1.
         -2   -1    0    0    0  501 -0.00000000000E+00 -0.00000000000E+00 -0.98433587179E+00  0.98433587179E+00  0.00000000000E+00 0.  1.
          2    1    1    2  502    0 -0.24282501168E+02  0.29723477795E+01  0.13573727492E+04  0.13575931846E+04  0.00000000000E+00 0.  1.
         -2    1    1    2    0  502  0.24282501168E+02 -0.29723477795E+01  0.17029116242E+03  0.17203939872E+03  0.00000000000E+00 0.  1.
<mgrwt>
<rscale>  2 0.24463743E+02</rscale>
<asrwt>0</asrwt>
<pdfrwt beam="1">  1        2 0.23517475E+00 0.24463743E+02</pdfrwt>
<pdfrwt beam="2">  1       -2 0.15143751E-03 0.24463743E+02</pdfrwt>
<totfact> 0.28666305E+05</totfact>
</mgrwt>
</event>
<event>
 4    1  0.1352171E+004  0.2015919E+02  0.7546771E-02  0.1742181E+00
         -2   -1    0    0    0  501 -0.00000000000E+00  0.00000000000E+00  0.22882083574E+03  0.22882083574E+03  0.00000000000E+00 0. -1.
          2   -1    0    0  501    0  0.00000000000E+00 -0.00000000000E+00 -0.46974807091E+01  0.46974807091E+01  0.00000000000E+00 0.  1.
          2    1    1    2  502    0 -0.18003446758E+02 -0.90702095718E+01  0.19983292666E+02  0.28385291659E+02  0.00000000000E+00 0.  1.
         -2    1    1    2    0  502  0.18003446758E+02  0.90702095718E+01  0.20414006237E+03  0.20513302479E+03  0.00000000000E+00 0. -1.
<mgrwt>
<rscale>  2 0.20159186E+02</rscale>
<asrwt>0</asrwt>
<pdfrwt beam="2">  1        2 0.72268952E-03 0.20159186E+02</pdfrwt>
<pdfrwt beam="1">  1       -2 0.35203197E-01 0.20159186E+02</pdfrwt>
<totfact> 0.10139370E+05</totfact>
</mgrwt>
</event>
<event>
 4    1  0.1352171E+004  0.3086440E+02  0.7546771E-02  0.1588726E+00
         -2   -1    0    0    0  501 -0.00000000000E+00  0.00000000000E+00  0.99206575981E+00  0.99206575981E+00  0.00000000000E+00 0.  1.
          2   -1    0    0  501    0  0.00000000000E+00 -0.00000000000E+00 -0.99740685242E+03  0.99740685242E+03  0.00000000000E+00 0.  1.
          2    1    1    2  502    0  0.23832173318E+02 -0.19612180572E+02 -0.40182864915E+03  0.40301224967E+03  0.00000000000E+00 0.  1.
         -2    1    1    2    0  502 -0.23832173318E+02  0.19612180572E+02 -0.59458613752E+03  0.59538666851E+03  0.00000000000E+00 0.  1.
<mgrwt>
<rscale>  2 0.30864398E+02</rscale>
<asrwt>0</asrwt>
<pdfrwt beam="2">  1        2 0.15344760E+00 0.30864398E+02</pdfrwt>
<pdfrwt beam="1">  1       -2 0.15262511E-03 0.30864398E+02</pdfrwt>
<totfact> 0.55511895E+05</totfact>
</mgrwt>
</event>
<event>
 4    1  0.1352171E+004  0.2373896E+02  0.7546771E-02  0.1679804E+00
          2   -1    0    0  501    0  0.00000000000E+00  0.00000000000E+00  0.35372746088E+03  0.35372746088E+03  0.00000000000E+00 0. -1.
         -2   -1    0    0    0  501 -0.00000000000E+00 -0.00000000000E+00 -0.19454330817E+01  0.19454330817E+01  0.00000000000E+00 0. -1.
          2    1    1    2  502    0  0.10812195455E+02 -0.21133728421E+02  0.25156794224E+03  0.25268551128E+03  0.00000000000E+00 0. -1.
         -2    1    1    2    0  502 -0.10812195455E+02  0.21133728421E+02  0.10021408556E+03  0.10298738268E+03  0.00000000000E+00 0. -1.
<mgrwt>
<rscale>  2 0.23738956E+02</rscale>
<asrwt>0</asrwt>
<pdfrwt beam="1">  1        2 0.54419558E-01 0.23738956E+02</pdfrwt>
<pdfrwt beam="2">  1       -2 0.29929768E-03 0.23738956E+02</pdfrwt>
<totfact> 0.64062668E+05</totfact>
</mgrwt>
</event>
<event>
 4    1  0.1352171E+004  0.2123639E+02  0.7546771E-02  0.1721803E+00
         -2   -1    0    0    0  501 -0.00000000000E+00  0.00000000000E+00  0.19483887803E+02  0.19483887803E+02  0.00000000000E+00 0.  1.
          2   -1    0    0  501    0  0.00000000000E+00 -0.00000000000E+00 -0.16447958300E+03  0.16447958300E+03  0.00000000000E+00 0.  1.
          2    1    1    2  502    0  0.39399226856E+01  0.20867706304E+02 -0.15776219842E+03  0.15918509794E+03  0.00000000000E+00 0.  1.
         -2    1    1    2    0  502 -0.39399226856E+01 -0.20867706304E+02  0.12766503221E+02  0.24778372861E+02  0.00000000000E+00 0.  1.
<mgrwt>
<rscale>  2 0.21236388E+02</rscale>
<asrwt>0</asrwt>
<pdfrwt beam="2">  1        2 0.25304550E-01 0.21236388E+02</pdfrwt>
<pdfrwt beam="1">  1       -2 0.29975213E-02 0.21236388E+02</pdfrwt>
<totfact> 0.59140860E+04</totfact>
</mgrwt>
</event>
<event>
 4    1  0.1352171E+004  0.2152580E+02  0.7546771E-02  0.1716584E+00
         -2   -1    0    0    0  501 -0.00000000000E+00  0.00000000000E+00  0.94096494794E+01  0.94096494794E+01  0.00000000000E+00 0. -1.
          2   -1    0    0  501    0  0.00000000000E+00 -0.00000000000E+00 -0.15360966207E+04  0.15360966207E+04  0.00000000000E+00 0.  1.
          2    1    1    2  502    0 -0.17783719148E+02 -0.12128457076E+02 -0.15236095478E+04  0.15237616002E+04  0.00000000000E+00 0.  1.
         -2    1    1    2    0  502  0.17783719148E+02  0.12128457076E+02 -0.30774234411E+01  0.21744669986E+02  0.00000000000E+00 0. -1.
<mgrwt>
<rscale>  2 0.21525802E+02</rscale>
<asrwt>0</asrwt>
<pdfrwt beam="2">  1        2 0.23632256E+00 0.21525802E+02</pdfrwt>
<pdfrwt beam="1">  1       -2 0.14476384E-02 0.21525802E+02</pdfrwt>
<totfact> 0.13535046E+04</totfact>
</mgrwt>
</event>
<event>
 4    1  0.1352171E+004  0.2687947E+02  0.7546771E-02  0.1635387E+00
          2   -1    0    0  501    0  0.00000000000E+00  0.00000000000E+00  0.14431778652E+03  0.14431778652E+03  0.00000000000E+00 0.  1.
         -2   -1    0    0    0  501 -0.00000000000E+00 -0.00000000000E+00 -0.12740395472E+02  0.12740395472E+02  0.00000000000E+00 0. -1.
          2    1    1    2  502    0  0.12750619385E+02  0.23662786292E+02  0.12697333407E+03  0.12978726176E+03  0.00000000000E+00 0.  1.
         -2    1    1    2    0  502 -0.12750619385E+02 -0.23662786292E+02  0.46040569792E+01  0.27270920235E+02  0.00000000000E+00 0. -1.
<mgrwt>
<rscale>  2 0.26879467E+02</rscale>
<asrwt>0</asrwt>
<pdfrwt beam="1">  1        2 0.22202735E-01 0.26879467E+02</pdfrwt>
<pdfrwt beam="2">  1       -2 0.19600609E-02 0.26879467E+02</pdfrwt>
<totfact> 0.12874911E+05</totfact>
</mgrwt>
</event>
<event>
 4    1  0.1352171E+004  0.2616568E+02  0.7546771E-02  0.1644802E+00
          2   -1    0    0  501    0  0.00000000000E+00  0.00000000000E+00  0.61417616478E+02  0.61417616478E+02  0.00000000000E+00 0.  1.
         -2   -1    0    0    0  501 -0.00000000000E+00 -0.00000000000E+00 -0.87595959861E+02  0.87595959861E+02  0.00000000000E+00 0. -1.
          2    1    1    2  502    0  0.94731314515E+01 -0.24390626347E+02  0.56515539748E+02  0.62278801419E+02  0.00000000000E+00 0.  1.
         -2    1    1    2    0  502 -0.94731314515E+01  0.24390626347E+02 -0.82693883131E+02  0.86734774920E+02  0.00000000000E+00 0. -1.
<mgrwt>
<rscale>  2 0.26165681E+02</rscale>
<asrwt>0</asrwt>
<pdfrwt beam="1">  1        2 0.94488641E-02 0.26165681E+02</pdfrwt>
<pdfrwt beam="2">  1       -2 0.13476301E-01 0.26165681E+02</pdfrwt>
<totfact> 0.20559740E+04</totfact>
</mgrwt>
</event>
<event>
 4    1  0.1352171E+004  0.2249200E+02  0.7546771E-02  0.1699879E+00
         -2   -1    0    0    0  501 -0.00000000000E+00  0.00000000000E+00  0.17448239267E+01  0.17448239267E+01  0.00000000000E+00 0. -1.
          2   -1    0    0  501    0  0.00000000000E+00 -0.00000000000E+00 -0.56342190816E+03  0.56342190816E+03  0.00000000000E+00 0. -1.
          2    1    1    2  502    0  0.50514522630E+01  0.21917409236E+02 -0.47771598704E+03  0.47824518218E+03  0.00000000000E+00 0. -1.
         -2    1    1    2    0  502 -0.50514522630E+01 -0.21917409236E+02 -0.83961097191E+02  0.86921549912E+02  0.00000000000E+00 0. -1.
<mgrwt>
<rscale>  2 0.22491999E+02</rscale>
<asrwt>0</asrwt>
<pdfrwt beam="2">  1        2 0.86680462E-01 0.22491999E+02</pdfrwt>
<pdfrwt beam="1">  1       -2 0.26843393E-03 0.22491999E+02</pdfrwt>
<totfact> 0.45734472E+05</totfact>
</mgrwt>
</event>
<event>
 4    1  0.1352171E+004  0.2768458E+02  0.7546771E-02  0.1625190E+00
          2   -1    0    0  501    0  0.00000000000E+00  0.00000000000E+00  0.18697004480E+04  0.18697004480E+04  0.00000000000E+00 0.  1.
         -2   -1    0    0    0  501 -0.00000000000E+00 -0.00000000000E+00 -0.10577481955E+02  0.10577481955E+02  0.00000000000E+00 0. -1.
          2    1    1    2  502    0  0.53975651199E+01 -0.27153311927E+02  0.18513031572E+04  0.18515101447E+04  0.00000000000E+00 0.  1.
         -2    1    1    2    0  502 -0.53975651199E+01  0.27153311927E+02  0.78198088346E+01  0.28767785248E+02  0.00000000000E+00 0. -1.
<mgrwt>
<rscale>  2 0.27684582E+02</rscale>
<asrwt>0</asrwt>
<pdfrwt beam="1">  1        2 0.28764596E+00 0.27684582E+02</pdfrwt>
<pdfrwt beam="2">  1       -2 0.16273064E-02 0.27684582E+02</pdfrwt>
<totfact> 0.82534937E+03</totfact>
</mgrwt>
</event>
<event>
 4    1  0.1352171E+004  0.2382157E+02  0.7546771E-02  0.1678529E+00
         -2   -1    0    0    0  501 -0.00000000000E+00  0.00000000000E+00  0.26019549061E+02  0.26019549061E+02  0.00000000000E+00 0.  1.
          2   -1    0    0  501    0  0.00000000000E+00 -0.00000000000E+00 -0.27621011100E+02  0.27621011100E+02  0.00000000000E+00 0. -1.
          2    1    1    2  502    0 -0.13681915624E+02  0.19500562100E+02  0.11501887618E+02  0.26452980099E+02  0.00000000000E+00 0. -1.
         -2    1    1    2    0  502  0.13681915624E+02 -0.19500562100E+02 -0.13103349657E+02  0.27187580062E+02  0.00000000000E+00 0.  1.
<mgrwt>
<rscale>  2 0.23821572E+02</rscale>
<asrwt>0</asrwt>
<pdfrwt beam="2">  1        2 0.42493863E-02 0.23821572E+02</pdfrwt>
<pdfrwt beam="1">  1       -2 0.40030075E-02 0.23821572E+02</pdfrwt>
<totfact> 0.31110335E+05</totfact>
</mgrwt>
</event>
<event>
 4    1  0.1352171E+004  0.2142306E+02  0.7546771E-02  0.1718425E+00
          2   -1    0    0  501    0  0.00000000000E+00  0.00000000000E+00  0.54531306503E+01  0.54531306503E+01  0.00000000000E+00 0.  1.
         -2   -1    0    0    0  501 -0.00000000000E+00 -0.00000000000E+00 -0.13894508401E+03  0.13894508401E+03  0.00000000000E+00 0.  1.
          2    1    1    2  502    0 -0.16394472914E+02  0.13790172387E+02 -0.21411084131E+02  0.30288316564E+02  0.00000000000E+00 0.  1.
         -2    1    1    2    0  502  0.16394472914E+02 -0.13790172387E+02 -0.11208086923E+03  0.11410989810E+03  0.00000000000E+00 0.  1.
<mgrwt>
<rscale>  2 0.21423062E+02</rscale>
<asrwt>0</asrwt>
<pdfrwt beam="1">  1        2 0.83894310E-03 0.21423062E+02</pdfrwt>
<pdfrwt beam="2">  1       -2 0.21376169E-01 0.21423062E+02</pdfrwt>
<totfact> 0.19733545E+05</totfact>
</mgrwt>
</event>
<event>
 4    1  0.1352171E+004  0.2200341E+02  0.7546771E-02  0.1708193E+00
         -2   -1    0    0    0  501 -0.00000000000E+00  0.00000000000E+00  0.16705303832E+02  0.16705303832E+02  0.00000000000E+00 0. -1.
          2   -1    0    0  501    0  0.00000000000E+00 -0.00000000000E+00 -0.32662269831E+03  0.32662269831E+03  0.00000000000E+00 0. -1.
          2    1    1    2  502    0 -0.19826973271E+02  0.95415444788E+01 -0.31882978842E+03  0.31958814735E+03  0.00000000000E+00 0. -1.
         -2    1    1    2    0  502  0.19826973271E+02 -0.95415444788E+01  0.89123939392E+01  0.23739854799E+02  0.00000000000E+00 0. -1.
<mgrwt>
<rscale>  2 0.22003407E+02</rscale>
<asrwt>0</asrwt>
<pdfrwt beam="2">  1        2 0.50249646E-01 0.22003407E+02</pdfrwt>
<pdfrwt beam="1">  1       -2 0.25700467E-02 0.22003407E+02</pdfrwt>
<totfact> 0.37177806E+04</totfact>
</mgrwt>
</event>
<event>
 4    1  0.1352171E+004  0.2988818E+02  0.7546771E-02  0.1599328E+00
          2   -1    0    0  501    0  0.00000000000E+00  0.00000000000E+00  0.11098305745E+04  0.11098305745E+04  0.00000000000E+00 0. -1.
         -2   -1    0    0    0  501 -0.00000000000E+00 -0.00000000000E+00 -0.30401314758E+01  0.30401314758E+01  0.00000000000E+00 0.  1.
          2    1    1    2  502    0  0.25886394421E+01  0.29775870054E+02  0.10305175144E+04  0.10309508479E+04  0.00000000000E+00 0. -1.
         -2    1    1    2    0  502 -0.25886394421E+01 -0.29775870054E+02  0.76272928674E+02  0.81919858033E+02  0.00000000000E+00 0.  1.
<mgrwt>
<rscale>  2 0.29888183E+02</rscale>
<asrwt>0</asrwt>
<pdfrwt beam="1">  1        2 0.17074284E+00 0.29888183E+02</pdfrwt>
<pdfrwt beam="2">  1       -2 0.46771342E-03 0.29888183E+02</pdfrwt>
<totfact> 0.10646616E+05</totfact>
</mgrwt>
</event>
<event>
 4    1  0.1352171E+004  0.2038988E+02  0.7546771E-02  0.1737684E+00
          2   -1    0    0  501    0  0.00000000000E+00  0.00000000000E+00  0.94101826326E+03  0.94101826326E+03  0.00000000000E+00 0.  1.
         -2   -1    0    0    0  501 -0.00000000000E+00 -0.00000000000E+00 -0.11817510389E+02  0.11817510389E+02  0.00000000000E+00 0. -1.
          2    1    1    2  502    0  0.14335963543E+02  0.14499216438E+02  0.93202783267E+03  0.93225083963E+03  0.00000000000E+00 0.  1.
         -2    1    1    2    0  502 -0.14335963543E+02 -0.14499216438E+02 -0.28270798030E+01  0.20584934011E+02  0.00000000000E+00 0. -1.
<mgrwt>
<rscale>  2 0.20389878E+02</rscale>
<asrwt>0</asrwt>
<pdfrwt beam="1">  1        2 0.14477198E+00 0.20389878E+02</pdfrwt>
<pdfrwt beam="2">  1       -2 0.18180793E-02 0.20389878E+02</pdfrwt>
<totfact> 0.19515737E+04</totfact>
</mgrwt>
</event>
<event>
 4    1  0.1352171E+004  0.2017417E+02  0.7546771E-02  0.1741887E+00
         -2   -1    0    0    0  501 -0.00000000000E+00  0.00000000000E+00  0.15540235871E+01  0.15540235871E+01  0.00000000000E+00 0.  1.
          2   -1    0    0  501    0  0.00000000000E+00 -0.00000000000E+00 -0.58324295352E+03  0.58324295352E+03  0.00000000000E+00 0. -1.
          2    1    1    2  502    0  0.13488862722E+02  0.15001584655E+02 -0.50788235266E+03  0.50828287509E+03  0.00000000000E+00 0. -1.
         -2    1    1    2    0  502 -0.13488862722E+02 -0.15001584655E+02 -0.73806577266E+02  0.76514102017E+02  0.00000000000E+00 0.  1.
<mgrwt>
<rscale>  2 0.20174166E+02</rscale>
<asrwt>0</asrwt>
<pdfrwt beam="2">  1        2 0.89729739E-01 0.20174166E+02</pdfrwt>
<pdfrwt beam="1">  1       -2 0.23908041E-03 0.20174166E+02</pdfrwt>
<totfact> 0.49827715E+05</totfact>
</mgrwt>
</event>
<event>
 4    1  0.1352171E+004  0.3346834E+02  0.7546771E-02  0.1562638E+00
          2   -1    0    0  501    0  0.00000000000E+00  0.00000000000E+00  0.24534705146E+02  0.24534705146E+02  0.00000000000E+00 0.  1.
         -2   -1    0    0    0  501 -0.00000000000E+00 -0.00000000000E+00 -0.48349362910E+02  0.48349362910E+02  0.00000000000E+00 0.  1.
          2    1    1    2  502    0  0.19802313551E+02 -0.26981445182E+02 -0.33044916358E+01  0.33631081919E+02  0.00000000000E+00 0.  1.
         -2    1    1    2    0  502 -0.19802313551E+02  0.26981445182E+02 -0.20510166128E+02  0.39252986137E+02  0.00000000000E+00 0.  1.
<mgrwt>
<rscale>  2 0.33468343E+02</rscale>
<asrwt>0</asrwt>
<pdfrwt beam="1">  1        2 0.37745701E-02 0.33468343E+02</pdfrwt>
<pdfrwt beam="2">  1       -2 0.74383634E-02 0.33468343E+02</pdfrwt>
<totfact> 0.16206175E+05</totfact>
</mgrwt>
</event>
<event>
 4    1  0.1352171E+004  0.2209735E+02  0.7546771E-02  0.1706574E+00
         -2   -1    0    0    0  501 -0.00000000000E+00  0.00000000000E+00  0.98375665227E+01  0.98375665227E+01  0.00000000000E+00 0. -1.
          2   -1    0    0  501    0  0.00000000000E+00 -0.00000000000E+00 -0.14748437684E+03  0.14748437684E+03  0.00000000000E+00 0. -1.
          2    1    1    2  502    0 -0.23622403080E+01 -0.21970724431E+02 -0.13289479359E+03  0.13471940868E+03  0.00000000000E+00 0. -1.
         -2    1    1    2    0  502  0.23622403080E+01  0.21970724431E+02 -0.47520167307E+01  0.22602534688E+02  0.00000000000E+00 0. -1.
<mgrwt>
<rscale>  2 0.22097351E+02</rscale>
<asrwt>0</asrwt>
<pdfrwt beam="2">  1        2 0.22689904E-01 0.22097351E+02</pdfrwt>
<pdfrwt beam="1">  1       -2 0.15134718E-02 0.22097351E+02</pdfrwt>
<totfact> 0.17069815E+05</totfact>
</mgrwt>
</event>
<event>
 4    1  0.1352171E+004  0.2050256E+02  0.7546771E-02  0.1735515E+00
         -2   -1    0    0    0  501 -0.00000000000E+00  0.00000000000E+00  0.20908930668E+02  0.20908930668E+02  0.00000000000E+00 0.  1.
          2   -1    0    0  501    0  0.00000000000E+00 -0.00000000000E+00 -0.10174481729E+03  0.10174481729E+03  0.00000000000E+00 0.  1.
          2    1    1    2  502    0  0.96483711300E+01 -0.18090439705E+02 -0.95352813911E+02  0.97532118786E+02  0.00000000000E+00 0.  1.
         -2    1    1    2    0  502 -0.96483711300E+01  0.18090439705E+02  0.14516927290E+02  0.25121629170E+02  0.00000000000E+00 0.  1.
<mgrwt>
<rscale>  2 0.20502563E+02</rscale>
<asrwt>0</asrwt>
<pdfrwt beam="2">  1        2 0.15653049E-01 0.20502563E+02</pdfrwt>
<pdfrwt beam="1">  1       -2 0.32167585E-02 0.20502563E+02</pdfrwt>
<totfact> 0.88302645E+04</totfact>
</mgrwt>
</event>
<event>
 4    1  0.1352171E+004  0.2128518E+02  0.7546771E-02  0.1720916E+00
         -2   -1    0    0    0  501 -0.00000000000E+00  0.00000000000E+00  0.88881448965E+02  0.88881448965E+02  0.00000000000E+00 0. -1.
          2   -1    0    0  501    0  0.00000000000E+00 -0.00000000000E+00 -0.59181965679E+02  0.59181965679E+02  0.00000000000E+00 0.  1.
          2    1    1    2  502    0  0.74994402335E+01  0.19920268403E+02 -0.55922018765E+02  0.59835866166E+02  0.00000000000E+00 0.  1.
         -2    1    1    2    0  502 -0.74994402335E+01 -0.19920268403E+02  0.85621502050E+02  0.88227548478E+02  0.00000000000E+00 0. -1.
<mgrwt>
<rscale>  2 0.21285176E+02</rscale>
<asrwt>0</asrwt>
<pdfrwt beam="2">  1        2 0.91049178E-02 0.21285176E+02</pdfrwt>
<pdfrwt beam="1">  1       -2 0.13674069E-01 0.21285176E+02</pdfrwt>
<totfact> 0.20193131E+04</totfact>
</mgrwt>
</event>
<event>
 4    1  0.1352171E+004  0.5475170E+02  0.7546771E-02  0.1421277E+00
         -2   -1    0    0    0  501 -0.00000000000E+00  0.00000000000E+00  0.74232101063E+01  0.74232101063E+01  0.00000000000E+00 0. -1.
          2   -1    0    0  501    0  0.00000000000E+00 -0.00000000000E+00 -0.96266023596E+03  0.96266023596E+03  0.00000000000E+00 0. -1.
          2    1    1    2  502    0  0.24769582896E+02  0.48828437633E+02 -0.84717494839E+03  0.84894236656E+03  0.00000000000E+00 0. -1.
         -2    1    1    2    0  502 -0.24769582896E+02 -0.48828437633E+02 -0.10806207746E+03  0.12114107951E+03  0.00000000000E+00 0. -1.
<mgrwt>
<rscale>  2 0.54751699E+02</rscale>
<asrwt>0</asrwt>
<pdfrwt beam="2">  1        2 0.14810151E+00 0.54751699E+02</pdfrwt>
<pdfrwt beam="1">  1       -2 0.11420328E-02 0.54751699E+02</pdfrwt>
<totfact> 0.41408286E+04</totfact>
</mgrwt>
</event>
<event>
 4    1  0.1352171E+004  0.2034605E+02  0.7546771E-02  0.1738533E+00
          2   -1    0    0  501    0  0.00000000000E+00  0.00000000000E+00  0.98642438487E+02  0.98642438487E+02  0.00000000000E+00 0.  1.
         -2   -1    0    0    0  501 -0.00000000000E+00 -0.00000000000E+00 -0.36760706542E+02  0.36760706542E+02  0.00000000000E+00 0. -1.
          2    1    1    2  502    0 -0.10598222276E+02  0.17367766579E+02  0.94660973151E+02  0.96822835474E+02  0.00000000000E+00 0.  1.
         -2    1    1    2    0  502  0.10598222276E+02 -0.17367766579E+02 -0.32779241205E+02  0.38580309555E+02  0.00000000000E+00 0. -1.
<mgrwt>
<rscale>  2 0.20346047E+02</rscale>
<asrwt>0</asrwt>
<pdfrwt beam="1">  1        2 0.15175760E-01 0.20346047E+02</pdfrwt>
<pdfrwt beam="2">  1       -2 0.56554934E-02 0.20346047E+02</pdfrwt>
<totfact> 0.41296088E+04</totfact>
</mgrwt>
</event>
<event>
 4    1  0.1352171E+004  0.3404933E+02  0.7546771E-02  0.1557208E+00
          2   -1    0    0  501    0  0.00000000000E+00  0.00000000000E+00  0.39669249956E+03  0.39669249956E+03  0.00000000000E+00 0. -1.
         -2   -1    0    0    0  501 -0.00000000000E+00 -0.00000000000E+00 -0.21699325359E+02  0.21699325359E+02  0.00000000000E+00 0. -1.
          2    1    1    2  502    0  0.24003744089E+02  0.24149066440E+02  0.38209553260E+03  0.38360963644E+03  0.00000000000E+00 0. -1.
         -2    1    1    2    0  502 -0.24003744089E+02 -0.24149066440E+02 -0.71023583987E+01  0.34782188474E+02  0.00000000000E+00 0. -1.
<mgrwt>
<rscale>  2 0.34049334E+02</rscale>
<asrwt>0</asrwt>
<pdfrwt beam="1">  1        2 0.61029610E-01 0.34049334E+02</pdfrwt>
<pdfrwt beam="2">  1       -2 0.33383580E-02 0.34049334E+02</pdfrwt>
<totfact> 0.22937367E+04</totfact>
</mgrwt>
</event>
<event>
 4    1  0.1352171E+004  0.2863612E+02  0.7546771E-02  0.1613673E+00
          2   -1    0    0  501    0  0.00000000000E+00  0.00000000000E+00  0.29584210733E+03  0.29584210733E+03  0.00000000000E+00 0. -1.
         -2   -1    0    0    0  501 -0.00000000000E+00 -0.00000000000E+00 -0.60417573599E+01  0.60417573599E+01  0.00000000000E+00 0.  1.
          2    1    1    2  502    0 -0.72475623035E+01  0.27703796622E+02  0.25594454316E+03  0.25754152419E+03  0.00000000000E+00 0. -1.
         -2    1    1    2    0  502  0.72475623035E+01 -0.27703796622E+02  0.33855806812E+02  0.44342340506E+02  0.00000000000E+00 0.  1.
<mgrwt>
<rscale>  2 0.28636122E+02</rscale>
<asrwt>0</asrwt>
<pdfrwt beam="1">  1        2 0.45514159E-01 0.28636122E+02</pdfrwt>
<pdfrwt beam="2">  1       -2 0.92950136E-03 0.28636122E+02</pdfrwt>
<totfact> 0.17485332E+05</totfact>
</mgrwt>
</event>
<event>
 4    1  0.1352171E+004  0.2219344E+02  0.7546771E-02  0.1704928E+00
          2   -1    0    0  501    0  0.00000000000E+00  0.00000000000E+00  0.15841872970E+03  0.15841872970E+03  0.00000000000E+00 0. -1.
         -2   -1    0    0    0  501 -0.00000000000E+00 -0.00000000000E+00 -0.57460732797E+01  0.57460732797E+01  0.00000000000E+00 0. -1.
          2    1    1    2  502    0  0.20958962555E+02 -0.72986840083E+01  0.13194116140E+03  0.13379468962E+03  0.00000000000E+00 0. -1.
         -2    1    1    2    0  502 -0.20958962555E+02  0.72986840083E+01  0.20731495026E+02  0.30370113362E+02  0.00000000000E+00 0. -1.
<mgrwt>
<rscale>  2 0.22193443E+02</rscale>
<asrwt>0</asrwt>
<pdfrwt beam="1">  1        2 0.24372109E-01 0.22193443E+02</pdfrwt>
<pdfrwt beam="2">  1       -2 0.88401140E-03 0.22193443E+02</pdfrwt>
<totfact> 0.32861296E+05</totfact>
</mgrwt>
</event>
<event>
 4    1  0.1352171E+004  0.2004284E+02  0.7546771E-02  0.1744477E+00
          2   -1    0    0  501    0  0.00000000000E+00  0.00000000000E+00  0.16723343085E+03  0.16723343085E+03  0.00000000000E+00 0.  1.
         -2   -1    0    0    0  501 -0.00000000000E+00 -0.00000000000E+00 -0.46283281607E+01  0.46283281607E+01  0.00000000000E+00 0. -1.
          2    1    1    2  502    0 -0.10467849805E+02 -0.17092092042E+02  0.14089889963E+03  0.14231730537E+03  0.00000000000E+00 0.  1.
         -2    1    1    2    0  502  0.10467849805E+02  0.17092092042E+02  0.21706203062E+02  0.29544453647E+02  0.00000000000E+00 0. -1.
<mgrwt>
<rscale>  2 0.20042841E+02</rscale>
<asrwt>0</asrwt>
<pdfrwt beam="1">  1        2 0.25728215E-01 0.20042841E+02</pdfrwt>
<pdfrwt beam="2">  1       -2 0.71205062E-03 0.20042841E+02</pdfrwt>
<totfact> 0.40305633E+05</totfact>
</mgrwt>
</event>
<event>
 4    1  0.1352171E+004  0.2030909E+02  0.7546771E-02  0.1739250E+00
         -2   -1    0    0    0  501 -0.00000000000E+00  0.00000000000E+00  0.10138470683E+03  0.10138470683E+03  0.00000000000E+00 0.  1.
          2   -1    0    0  501    0  0.00000000000E+00 -0.00000000000E+00 -0.66587167633E+03  0.66587167633E+03  0.00000000000E+00 0. -1.
          2    1    1    2  502    0 -0.19173414986E+02  0.66962296160E+01 -0.66469795894E+03  0.66500814729E+03  0.00000000000E+00 0. -1.
         -2    1    1    2    0  502  0.19173414986E+02 -0.66962296160E+01  0.10021098945E+03  0.10224823587E+03  0.00000000000E+00 0.  1.
<mgrwt>
<rscale>  2 0.20309095E+02</rscale>
<asrwt>0</asrwt>
<pdfrwt beam="2">  1        2 0.10244180E+00 0.20309095E+02</pdfrwt>
<pdfrwt beam="1">  1       -2 0.15597647E-01 0.20309095E+02</pdfrwt>
<totfact> 0.13278026E+03</totfact>
</mgrwt>
</event>
<event>
 4    1  0.1352171E+004  0.3591767E+02  0.7546771E-02  0.1540599E+00
         -2   -1    0    0    0  501 -0.00000000000E+00  0.00000000000E+00  0.94418979239E+03  0.94418979239E+03  0.00000000000E+00 0. -1.
          2   -1    0    0  501    0  0.00000000000E+00 -0.00000000000E+00 -0.14688918301E+01  0.14688918301E+01  0.00000000000E+00 0. -1.
          2    1    1    2  502    0  0.25467079433E+02 -0.25327980854E+02  0.34642271629E+03  0.34827973974E+03  0.00000000000E+00 0. -1.
         -2    1    1    2    0  502 -0.25467079433E+02  0.25327980854E+02  0.59629818427E+03  0.59737894448E+03  0.00000000000E+00 0. -1.
<mgrwt>
<rscale>  2 0.35917666E+02</rscale>
<asrwt>0</asrwt>
<pdfrwt beam="2">  1        2 0.22598411E-03 0.35917666E+02</pdfrwt>
<pdfrwt beam="1">  1       -2 0.14525948E+00 0.35917666E+02</pdfrwt>
<totfact> 0.28909166E+04</totfact>
</mgrwt>
</event>
<event>
 4    1  0.1352171E+004  0.2335133E+02  0.7546771E-02  0.1685878E+00
         -2   -1    0    0    0  501 -0.00000000000E+00  0.00000000000E+00  0.46677567310E+03  0.46677567310E+03  0.00000000000E+00 0.  1.
          2   -1    0    0  501    0  0.00000000000E+00 -0.00000000000E+00 -0.47257277093E+01  0.47257277093E+01  0.00000000000E+00 0.  1.
          2    1    1    2  502    0  0.18279910190E+02 -0.14530294739E+02  0.26477955390E+02  0.35303919093E+02  0.00000000000E+00 0.  1.
         -2    1    1    2    0  502 -0.18279910190E+02  0.14530294739E+02  0.43557199000E+03  0.43619748172E+03  0.00000000000E+00 0.  1.
<mgrwt>
<rscale>  2 0.23351329E+02</rscale>
<asrwt>0</asrwt>
<pdfrwt beam="2">  1        2 0.72703540E-03 0.23351329E+02</pdfrwt>
<pdfrwt beam="1">  1       -2 0.71811606E-01 0.23351329E+02</pdfrwt>
<totfact> 0.26950656E+04</totfact>
</mgrwt>
</event>
<event>
 4    1  0.1352171E+004  0.2306002E+02  0.7546771E-02  0.1690539E+00
         -2   -1    0    0    0  501 -0.00000000000E+00  0.00000000000E+00  0.40496870351E+02  0.40496870351E+02  0.00000000000E+00 0.  1.
          2   -1    0    0  501    0  0.00000000000E+00 -0.00000000000E+00 -0.12602672276E+03  0.12602672276E+03  0.00000000000E+00 0.  1.
          2    1    1    2  502    0 -0.22781708985E+02 -0.35718422325E+01 -0.12156982292E+03  0.12373756974E+03  0.00000000000E+00 0.  1.
         -2    1    1    2    0  502  0.22781708985E+02  0.35718422325E+01  0.36039970510E+02  0.42786023368E+02  0.00000000000E+00 0.  1.
<mgrwt>
<rscale>  2 0.23060016E+02</rscale>
<asrwt>0</asrwt>
<pdfrwt beam="2">  1        2 0.19388727E-01 0.23060016E+02</pdfrwt>
<pdfrwt beam="1">  1       -2 0.62302878E-02 0.23060016E+02</pdfrwt>
<totfact> 0.28341498E+04</totfact>
</mgrwt>
</event>
<event>
 4    1  0.1352171E+004  0.2979345E+02  0.7546771E-02  0.1600383E+00
         -2   -1    0    0    0  501 -0.00000000000E+00  0.00000000000E+00  0.13505522781E+01  0.13505522781E+01  0.00000000000E+00 0. -1.
          2   -1    0    0  501    0  0.00000000000E+00 -0.00000000000E+00 -0.80425599376E+03  0.80425599376E+03  0.00000000000E+00 0. -1.
          2    1    1    2  502    0  0.25339747925E+02 -0.15669931186E+02 -0.57366509775E+03  0.57443824206E+03  0.00000000000E+00 0. -1.
         -2    1    1    2    0  502 -0.25339747925E+02  0.15669931186E+02 -0.22924034373E+03  0.23116830397E+03  0.00000000000E+00 0. -1.
<mgrwt>
<rscale>  2 0.29793448E+02</rscale>
<asrwt>0</asrwt>
<pdfrwt beam="2">  1        2 0.12373154E+00 0.29793448E+02</pdfrwt>
<pdfrwt beam="1">  1       -2 0.20777753E-03 0.29793448E+02</pdfrwt>
<totfact> 0.47234444E+05</totfact>
</mgrwt>
</event>
<event>
 4    1  0.1352171E+004  0.3077656E+02  0.7546771E-02  0.1589660E+00
          2   -1    0    0  501    0  0.00000000000E+00  0.00000000000E+00  0.22950139350E+04  0.22950139350E+04  0.00000000000E+00 0.  1.
         -2   -1    0    0    0  501 -0.00000000000E+00 -0.00000000000E+00 -0.32889257948E+01  0.32889257948E+01  0.00000000000E+00 0. -1.
          2    1    1    2  502    0 -0.19996894438E+02  0.23394885496E+02  0.22204957173E+04  0.22207089919E+04  0.00000000000E+00 0.  1.
         -2    1    1    2    0  502  0.19996894438E+02 -0.23394885496E+02  0.71229291919E+02  0.77593868842E+02  0.00000000000E+00 0. -1.
<mgrwt>
<rscale>  2 0.30776557E+02</rscale>
<asrwt>0</asrwt>
<pdfrwt beam="1">  1        2 0.35307779E+00 0.30776557E+02</pdfrwt>
<pdfrwt beam="2">  1       -2 0.50599042E-03 0.30776557E+02</pdfrwt>
<totfact> 0.25704255E+04</totfact>
</mgrwt>
</event>
<event>
 4    1  0.1352171E+004  0.2762872E+02  0.7546771E-02  0.1625883E+00
          2   -1    0    0  501    0  0.00000000000E+00  0.00000000000E+00  0.19953805325E+04  0.19953805325E+04  0.00000000000E+00 0.  1.
         -2   -1    0    0    0  501 -0.00000000000E+00 -0.00000000000E+00 -0.17990205824E+01  0.17990205824E+01  0.00000000000E+00 0.  1.
          2    1    1    2  502    0  0.22127447608E+02 -0.16544549153E+02  0.18828684694E+04  0.18830711667E+04  0.00000000000E+00 0.  1.
         -2    1    1    2    0  502 -0.22127447608E+02  0.16544549153E+02  0.11071304252E+03  0.11410838632E+03  0.00000000000E+00 0.  1.
<mgrwt>
<rscale>  2 0.27628718E+02</rscale>
<asrwt>0</asrwt>
<pdfrwt beam="1">  1        2 0.30697985E+00 0.27628718E+02</pdfrwt>
<pdfrwt beam="2">  1       -2 0.27677399E-03 0.27628718E+02</pdfrwt>
<totfact> 0.79424183E+04</totfact>
</mgrwt>
</event>
<event>
 4    1  0.1352171E+004  0.2161226E+02  0.7546771E-02  0.1715045E+00
         -2   -1    0    0    0  501 -0.00000000000E+00  0.00000000000E+00  0.33015676502E+01  0.33015676502E+01  0.00000000000E+00 0. -1.
          2   -1    0    0  501    0  0.00000000000E+00 -0.00000000000E+00 -0.15437800124E+03  0.15437800124E+03  0.00000000000E+00 0. -1.
          2    1    1    2  502    0  0.13259655289E+01  0.21571542593E+02 -0.98330944451E+02  0.10067802278E+03  0.00000000000E+00 0. -1.
         -2    1    1    2    0  502 -0.13259655289E+01 -0.21571542593E+02 -0.52745489142E+02  0.57001546112E+02  0.00000000000E+00 0. -1.
<mgrwt>
<rscale>  2 0.21612257E+02</rscale>
<asrwt>0</asrwt>
<pdfrwt beam="2">  1        2 0.23750469E-01 0.21612257E+02</pdfrwt>
<pdfrwt beam="1">  1       -2 0.50793333E-03 0.21612257E+02</pdfrwt>
<totfact> 0.70410797E+05</totfact>
</mgrwt>
</event>
<event>
 4    1  0.1352171E+004  0.2090433E+02  0.7546771E-02  0.1727920E+00
         -2   -1    0    0    0  501 -0.00000000000E+00  0.00000000000E+00  0.10869893454E+03  0.10869893454E+03  0.00000000000E+00 0.  1.
          2   -1    0    0  501    0  0.00000000000E+00 -0.00000000000E+00 -0.41215420639E+02  0.41215420639E+02  0.00000000000E+00 0.  1.
          2    1    1    2  502    0 -0.10242369564E+02  0.18223193098E+02 -0.37465942767E+02  0.42903237271E+02  0.00000000000E+00 0.  1.
         -2    1    1    2    0  502  0.10242369564E+02 -0.18223193098E+02  0.10494945667E+03  0.10701111791E+03  0.00000000000E+00 0.  1.
<mgrwt>
<rscale>  2 0.20904327E+02</rscale>
<asrwt>0</asrwt>
<pdfrwt beam="2">  1        2 0.63408340E-02 0.20904327E+02</pdfrwt>
<pdfrwt beam="1">  1       -2 0.16722913E-01 0.20904327E+02</pdfrwt>
<totfact> 0.22555247E+04</totfact>
</mgrwt>
</event>
<event>
 4    1  0.1352171E+004  0.2432786E+02  0.7546771E-02  0.1670848E+00
         -2   -1    0    0    0  501 -0.00000000000E+00  0.00000000000E+00  0.48273976245E+03  0.48273976245E+03  0.00000000000E+00 0. -1.
          2   -1    0    0  501    0  0.00000000000E+00 -0.00000000000E+00 -0.22548395691E+02  0.22548395691E+02  0.00000000000E+00 0.  1.
          2    1    1    2  502    0 -0.18626076953E+02 -0.15649725581E+02 -0.15583963846E+02  0.28891254430E+02  0.00000000000E+00 0.  1.
         -2    1    1    2    0  502  0.18626076953E+02  0.15649725581E+02  0.47577533061E+03  0.47639690371E+03  0.00000000000E+00 0. -1.
<mgrwt>
<rscale>  2 0.24327858E+02</rscale>
<asrwt>0</asrwt>
<pdfrwt beam="2">  1        2 0.34689843E-02 0.24327858E+02</pdfrwt>
<pdfrwt beam="1">  1       -2 0.74267648E-01 0.24327858E+02</pdfrwt>
<totfact> 0.33849282E+03</totfact>
</mgrwt>
</event>
<event>
 4    1  0.1352171E+004  0.2584919E+02  0.7546771E-02  0.1649096E+00
          2   -1    0    0  501    0  0.00000000000E+00  0.00000000000E+00  0.77914668472E+03  0.77914668472E+03  0.00000000000E+00 0. -1.
         -2   -1    0    0    0  501 -0.00000000000E+00 -0.00000000000E+00 -0.36148795869E+01  0.36148795869E+01  0.00000000000E+00 0.  1.
          2    1    1    2  502    0  0.34697590978E+01  0.25615261596E+02  0.72958359081E+03  0.73004136653E+03  0.00000000000E+00 0. -1.
         -2    1    1    2    0  502 -0.34697590978E+01 -0.25615261596E+02  0.45948214314E+02  0.52720197776E+02  0.00000000000E+00 0.  1.
<mgrwt>
<rscale>  2 0.25849194E+02</rscale>
<asrwt>0</asrwt>
<pdfrwt beam="1">  1        2 0.11986859E+00 0.25849194E+02</pdfrwt>
<pdfrwt beam="2">  1       -2 0.55613594E-03 0.25849194E+02</pdfrwt>
<totfact> 0.12623092E+05</totfact>
</mgrwt>
</event>
<event>
 4    1  0.1352171E+004  0.2966474E+02  0.7546771E-02  0.1601824E+00
          2   -1    0    0  501    0  0.00000000000E+00  0.00000000000E+00  0.47491841244E+02  0.47491841244E+02  0.00000000000E+00 0.  1.
         -2   -1    0    0    0  501 -0.00000000000E+00 -0.00000000000E+00 -0.33309211142E+02  0.33309211142E+02  0.00000000000E+00 0.  1.
          2    1    1    2  502    0 -0.28135039567E+01  0.29531015393E+02  0.34002874959E+02  0.45124186200E+02  0.00000000000E+00 0.  1.
         -2    1    1    2    0  502  0.28135039567E+01 -0.29531015393E+02 -0.19820244858E+02  0.35676866187E+02  0.00000000000E+00 0.  1.
<mgrwt>
<rscale>  2 0.29664738E+02</rscale>
<asrwt>0</asrwt>
<pdfrwt beam="1">  1        2 0.73064371E-02 0.29664738E+02</pdfrwt>
<pdfrwt beam="2">  1       -2 0.51244940E-02 0.29664738E+02</pdfrwt>
<totfact> 0.11976451E+05</totfact>
</mgrwt>
</event>
<event>
 4    1  0.1352171E+004  0.2384152E+02  0.7546771E-02  0.1678221E+00
          2   -1    0    0  501    0  0.00000000000E+00  0.00000000000E+00  0.42829862045E+02  0.42829862045E+02  0.00000000000E+00 0. -1.
         -2   -1    0    0    0  501 -0.00000000000E+00 -0.00000000000E+00 -0.13655399172E+02  0.13655399172E+02  0.00000000000E+00 0. -1.
          2    1    1    2  502    0 -0.22802273320E+02  0.69623728255E+01  0.19322426733E+02  0.30688344347E+02  0.00000000000E+00 0. -1.
         -2    1    1    2    0  502  0.22802273320E+02 -0.69623728255E+01  0.98520361400E+01  0.25796916870E+02  0.00000000000E+00 0. -1.
<mgrwt>
<rscale>  2 0.23841525E+02</rscale>
<asrwt>0</asrwt>
<pdfrwt beam="1">  1        2 0.65892095E-02 0.23841525E+02</pdfrwt>
<pdfrwt beam="2">  1       -2 0.21008307E-02 0.23841525E+02</pdfrwt>
<totfact> 0.44650868E+05</totfact>
</mgrwt>
</event>
<event>
 4    1  0.1352171E+004  0.4747426E+02  0.7546771E-02  0.1459461E+00
         -2   -1    0    0    0  501 -0.00000000000E+00  0.00000000000E+00  0.36579300527E+01  0.36579300527E+01  0.00000000000E+00 0.  1.
          2   -1    0    0  501    0  0.00000000000E+00 -0.00000000000E+00 -0.83565799110E+03  0.83565799110E+03  0.00000000000E+00 0.  1.
          2    1    1    2  502    0  0.45274702264E+02  0.14283106699E+02 -0.63108688391E+03  0.63287001892E+03  0.00000000000E+00 0.  1.
         -2    1    1    2    0  502 -0.45274702264E+02 -0.14283106699E+02 -0.20091317714E+03  0.20644590224E+03  0.00000000000E+00 0.  1.
<mgrwt>
<rscale>  2 0.47474265E+02</rscale>
<asrwt>0</asrwt>
<pdfrwt beam="2">  1        2 0.12856282E+00 0.47474265E+02</pdfrwt>
<pdfrwt beam="1">  1       -2 0.56275823E-03 0.47474265E+02</pdfrwt>
<totfact> 0.12894103E+05</totfact>
</mgrwt>
</event>
<event>
 4    1  0.1352171E+004  0.2754598E+02  0.7546771E-02  0.1626914E+00
         -2   -1    0    0    0  501 -0.00000000000E+00  0.00000000000E+00  0.15145051309E+03  0.15145051309E+03  0.00000000000E+00 0.  1.
          2   -1    0    0  501    0  0.00000000000E+00 -0.00000000000E+00 -0.12369541324E+03  0.12369541324E+03  0.00000000000E+00 0.  1.
          2    1    1    2  502    0  0.15532805298E+02 -0.22748915975E+02 -0.12088052426E+03  0.12397936266E+03  0.00000000000E+00 0.  1.
         -2    1    1    2    0  502 -0.15532805298E+02  0.22748915975E+02  0.14863562411E+03  0.15116656367E+03  0.00000000000E+00 0.  1.
<mgrwt>
<rscale>  2 0.27545984E+02</rscale>
<asrwt>0</asrwt>
<pdfrwt beam="2">  1        2 0.19030064E-01 0.27545984E+02</pdfrwt>
<pdfrwt beam="1">  1       -2 0.23300079E-01 0.27545984E+02</pdfrwt>
<totfact> 0.39507996E+03</totfact>
</mgrwt>
</event>
<event>
 4    1  0.1352171E+004  0.4300207E+02  0.7546771E-02  0.1487214E+00
         -2   -1    0    0    0  501 -0.00000000000E+00  0.00000000000E+00  0.60810270793E+03  0.60810270793E+03  0.00000000000E+00 0.  1.
          2   -1    0    0  501    0  0.00000000000E+00 -0.00000000000E+00 -0.74093435010E+01  0.74093435010E+01  0.00000000000E+00 0.  1.
          2    1    1    2  502    0  0.41242233063E+02 -0.12176067313E+02  0.64037741441E+02  0.77136312669E+02  0.00000000000E+00 0.  1.
         -2    1    1    2    0  502 -0.41242233063E+02  0.12176067313E+02  0.53665562299E+03  0.53837573876E+03  0.00000000000E+00 0.  1.
<mgrwt>
<rscale>  2 0.43002074E+02</rscale>
<asrwt>0</asrwt>
<pdfrwt beam="2">  1        2 0.11398995E-02 0.43002074E+02</pdfrwt>
<pdfrwt beam="1">  1       -2 0.93554224E-01 0.43002074E+02</pdfrwt>
<totfact> 0.95688252E+03</totfact>
</mgrwt>
</event>
<event>
 4    1  0.1352171E+004  0.2339530E+02  0.7546771E-02  0.1685181E+00
         -2   -1    0    0    0  501 -0.00000000000E+00  0.00000000000E+00  0.13392309701E+01  0.13392309701E+01  0.00000000000E+00 0.  1.
          2   -1    0    0  501    0  0.00000000000E+00 -0.00000000000E+00 -0.15308513265E+04  0.15308513265E+04  0.00000000000E+00 0.  1.
          2    1    1    2  502    0  0.78476217311E+01  0.22039847638E+02 -0.14206634301E+04  0.14208560524E+04  0.00000000000E+00 0.  1.
         -2    1    1    2    0  502 -0.78476217311E+01 -0.22039847638E+02 -0.10884866542E+03  0.11133450505E+03  0.00000000000E+00 0.  1.
<mgrwt>
<rscale>  2 0.23395300E+02</rscale>
<asrwt>0</asrwt>
<pdfrwt beam="2">  1        2 0.23551608E+00 0.23395300E+02</pdfrwt>
<pdfrwt beam="1">  1       -2 0.20603511E-03 0.23395300E+02</pdfrwt>
<totfact> 0.18830327E+05</totfact>
</mgrwt>
</event>
<event>
 4    1  0.1352171E+004  0.2506359E+02  0.7546771E-02  0.1660090E+00
          2   -1    0    0  501    0  0.00000000000E+00  0.00000000000E+00  0.24688823230E+02  0.24688823230E+02  0.00000000000E+00 0. -1.
         -2   -1    0    0    0  501 -0.00000000000E+00 -0.00000000000E+00 -0.10888497833E+03  0.10888497833E+03  0.00000000000E+00 0.  1.
          2    1    1    2  502    0  0.24396985338E+02  0.57420032092E+01  0.16367047975E+02  0.29934324008E+02  0.00000000000E+00 0. -1.
         -2    1    1    2    0  502 -0.24396985338E+02 -0.57420032092E+01 -0.10056320307E+03  0.10363947755E+03  0.00000000000E+00 0.  1.
<mgrwt>
<rscale>  2 0.25063589E+02</rscale>
<asrwt>0</asrwt>
<pdfrwt beam="1">  1        2 0.37982805E-02 0.25063589E+02</pdfrwt>
<pdfrwt beam="2">  1       -2 0.16751535E-01 0.25063589E+02</pdfrwt>
<totfact> 0.43783169E+04</totfact>
</mgrwt>
</event>
<event>
 4    1  0.1352171E+004  0.3017993E+02  0.7546771E-02  0.1596108E+00
         -2   -1    0    0    0  501 -0.00000000000E+00  0.00000000000E+00  0.26701016339E+01  0.26701016339E+01  0.00000000000E+00 0. -1.
          2   -1    0    0  501    0  0.00000000000E+00 -0.00000000000E+00 -0.21794597095E+04  0.21794597095E+04  0.00000000000E+00 0.  1.
          2    1    1    2  502    0  0.19641443039E+02  0.22913790826E+02 -0.20904437018E+04  0.20906615456E+04  0.00000000000E+00 0.  1.
         -2    1    1    2    0  502 -0.19641443039E+02 -0.22913790826E+02 -0.86345906044E+02  0.91468265454E+02  0.00000000000E+00 0. -1.
<mgrwt>
<rscale>  2 0.30179929E+02</rscale>
<asrwt>0</asrwt>
<pdfrwt beam="2">  1        2 0.33530139E+00 0.30179929E+02</pdfrwt>
<pdfrwt beam="1">  1       -2 0.41078499E-03 0.30179929E+02</pdfrwt>
<totfact> 0.38652303E+04</totfact>
</mgrwt>
</event>
<event>
 4    1  0.1352171E+004  0.2469426E+02  0.7546771E-02  0.1665433E+00
         -2   -1    0    0    0  501 -0.00000000000E+00  0.00000000000E+00  0.10661872968E+03  0.10661872968E+03  0.00000000000E+00 0.  1.
          2   -1    0    0  501    0  0.00000000000E+00 -0.00000000000E+00 -0.13926187401E+02  0.13926187401E+02  0.00000000000E+00 0. -1.
          2    1    1    2  502    0 -0.97075033079E+01  0.22706186283E+02  0.77649350116E-01  0.24694382872E+02  0.00000000000E+00 0. -1.
         -2    1    1    2    0  502  0.97075033079E+01 -0.22706186283E+02  0.92614892928E+02  0.95850534209E+02  0.00000000000E+00 0.  1.
<mgrwt>
<rscale>  2 0.24694261E+02</rscale>
<asrwt>0</asrwt>
<pdfrwt beam="2">  1        2 0.21424904E-02 0.24694261E+02</pdfrwt>
<pdfrwt beam="1">  1       -2 0.16402881E-01 0.24694261E+02</pdfrwt>
<totfact> 0.93169376E+04</totfact>
</mgrwt>
</event>
<event>
 4    1  0.1352171E+004  0.2252737E+02  0.7546771E-02  0.1699288E+00
          2   -1    0    0  501    0  0.00000000000E+00  0.00000000000E+00  0.98018488835E+03  0.98018488835E+03  0.00000000000E+00 0. -1.
         -2   -1    0    0    0  501 -0.00000000000E+00 -0.00000000000E+00 -0.92595309514E+01  0.92595309514E+01  0.00000000000E+00 0. -1.
          2    1    1    2  502    0 -0.21438223304E+02 -0.69198852208E+01  0.96615489418E+03  0.96641748835E+03  0.00000000000E+00 0. -1.
         -2    1    1    2    0  502  0.21438223304E+02  0.69198852208E+01  0.47704632166E+01  0.23026930955E+02  0.00000000000E+00 0. -1.
<mgrwt>
<rscale>  2 0.22527366E+02</rscale>
<asrwt>0</asrwt>
<pdfrwt beam="1">  1        2 0.15079759E+00 0.22527366E+02</pdfrwt>
<pdfrwt beam="2">  1       -2 0.14245440E-02 0.22527366E+02</pdfrwt>
<totfact> 0.26290014E+04</totfact>
</mgrwt>
</event>
<event>
 4    1  0.1352171E+004  0.2030491E+02  0.7546771E-02  0.1739332E+00
         -2   -1    0    0    0  501 -0.00000000000E+00  0.00000000000E+00  0.18914854862E+02  0.18914854862E+02  0.00000000000E+00 0.  1.
          2   -1    0    0  501    0  0.00000000000E+00 -0.00000000000E+00 -0.52539731095E+02  0.52539731095E+02  0.00000000000E+00 0. -1.
          2    1    1    2  502    0  0.19942578654E+02  0.38187588561E+01 -0.44141615758E+02  0.48587772169E+02  0.00000000000E+00 0. -1.
         -2    1    1    2    0  502 -0.19942578654E+02 -0.38187588561E+01  0.10516739525E+02  0.22866813788E+02  0.00000000000E+00 0.  1.
<mgrwt>
<rscale>  2 0.20304910E+02</rscale>
<asrwt>0</asrwt>
<pdfrwt beam="2">  1        2 0.80830357E-02 0.20304910E+02</pdfrwt>
<pdfrwt beam="1">  1       -2 0.29099776E-02 0.20304910E+02</pdfrwt>
<totfact> 0.21326972E+05</totfact>
</mgrwt>
</event>
<event>
 4    1  0.1352171E+004  0.2857211E+02  0.7546771E-02  0.1614430E+00
          2   -1    0    0  501    0  0.00000000000E+00  0.00000000000E+00  0.16996021140E+04  0.16996021140E+04  0.00000000000E+00 0. -1.
         -2   -1    0    0    0  501 -0.00000000000E+00 -0.00000000000E+00 -0.45286531681E+01  0.45286531681E+01  0.00000000000E+00 0.  1.
          2    1    1    2  502    0  0.10967644286E+02 -0.26383254291E+02  0.16531490928E+04  0.16533959866E+04  0.00000000000E+00 0. -1.
         -2    1    1    2    0  502 -0.10967644286E+02  0.26383254291E+02  0.41924367981E+02  0.50734780563E+02  0.00000000000E+00 0.  1.
<mgrwt>
<rscale>  2 0.28572108E+02</rscale>
<asrwt>0</asrwt>
<pdfrwt beam="1">  1        2 0.26147674E+00 0.28572108E+02</pdfrwt>
<pdfrwt beam="2">  1       -2 0.69671723E-03 0.28572108E+02</pdfrwt>
<totfact> 0.31678709E+04</totfact>
</mgrwt>
</event>
<event>
 4    1  0.1352171E+004  0.2213810E+02  0.7546771E-02  0.1705875E+00
          2   -1    0    0  501    0  0.00000000000E+00  0.00000000000E+00  0.11874886340E+03  0.11874886340E+03  0.00000000000E+00 0. -1.
         -2   -1    0    0    0  501 -0.00000000000E+00 -0.00000000000E+00 -0.58964046740E+01  0.58964046740E+01  0.00000000000E+00 0. -1.
          2    1    1    2  502    0 -0.86939464758E+01 -0.20359532065E+02  0.90564885879E+02  0.93231399246E+02  0.00000000000E+00 0. -1.
         -2    1    1    2    0  502  0.86939464758E+01  0.20359532065E+02  0.22287572845E+02  0.31413868825E+02  0.00000000000E+00 0. -1.
<mgrwt>
<rscale>  2 0.22138095E+02</rscale>
<asrwt>0</asrwt>
<pdfrwt beam="1">  1        2 0.18269054E-01 0.22138095E+02</pdfrwt>
<pdfrwt beam="2">  1       -2 0.90713927E-03 0.22138095E+02</pdfrwt>
<totfact> 0.42930007E+05</totfact>
</mgrwt>
</event>
<event>
 4    1  0.1352171E+004  0.4816110E+02  0.7546771E-02  0.1455520E+00
          2   -1    0    0  501    0  0.00000000000E+00  0.00000000000E+00  0.55125433718E+03  0.55125433718E+03  0.00000000000E+00 0. -1.
         -2   -1    0    0    0  501 -0.00000000000E+00 -0.00000000000E+00 -0.55336721916E+01  0.55336721916E+01  0.00000000000E+00 0.  1.
          2    1    1    2  502    0  0.45122056473E+02 -0.16837210122E+02  0.40913862542E+03  0.41196347707E+03  0.00000000000E+00 0. -1.
         -2    1    1    2    0  502 -0.45122056473E+02  0.16837210122E+02  0.13658203956E+03  0.14482453230E+03  0.00000000000E+00 0.  1.
<mgrwt>
<rscale>  2 0.48161101E+02</rscale>
<asrwt>0</asrwt>
<pdfrwt beam="1">  1        2 0.84808316E-01 0.48161101E+02</pdfrwt>
<pdfrwt beam="2">  1       -2 0.85133462E-03 0.48161101E+02</pdfrwt>
<totfact> 0.11657117E+05</totfact>
</mgrwt>
</event>
<event>
 4    1  0.1352171E+004  0.4648885E+02  0.7546771E-02  0.1465255E+00
         -2   -1    0    0    0  501 -0.00000000000E+00  0.00000000000E+00  0.80514645257E+02  0.80514645257E+02  0.00000000000E+00 0. -1.
          2   -1    0    0  501    0  0.00000000000E+00 -0.00000000000E+00 -0.13429371015E+03  0.13429371015E+03  0.00000000000E+00 0. -1.
          2    1    1    2  502    0  0.45008566416E+02 -0.11637970350E+02 -0.12296201604E+03  0.13145672593E+03  0.00000000000E+00 0. -1.
         -2    1    1    2    0  502 -0.45008566416E+02  0.11637970350E+02  0.69182951153E+02  0.83351629468E+02  0.00000000000E+00 0. -1.
<mgrwt>
<rscale>  2 0.46488852E+02</rscale>
<asrwt>0</asrwt>
<pdfrwt beam="2">  1        2 0.20660571E-01 0.46488852E+02</pdfrwt>
<pdfrwt beam="1">  1       -2 0.12386868E-01 0.46488852E+02</pdfrwt>
<totfact> 0.10570442E+04</totfact>
</mgrwt>
</event>
<event>
 4    1  0.1352171E+004  0.2110813E+02  0.7546771E-02  0.1724149E+00
         -2   -1    0    0    0  501 -0.00000000000E+00  0.00000000000E+00  0.34668259365E+01  0.34668259365E+01  0.00000000000E+00 0.  1.
          2   -1    0    0  501    0  0.00000000000E+00 -0.00000000000E+00 -0.20846691202E+03  0.20846691202E+03  0.00000000000E+00 0.  1.
          2    1    1    2  502    0  0.17390277584E+02 -0.11963757911E+02 -0.16812286445E+03  0.16944276558E+03  0.00000000000E+00 0.  1.
         -2    1    1    2    0  502 -0.17390277584E+02  0.11963757911E+02 -0.36877221635E+02  0.42490972374E+02  0.00000000000E+00 0.  1.
<mgrwt>
<rscale>  2 0.21108133E+02</rscale>
<asrwt>0</asrwt>
<pdfrwt beam="2">  1        2 0.32071828E-01 0.21108133E+02</pdfrwt>
<pdfrwt beam="1">  1       -2 0.53335792E-03 0.21108133E+02</pdfrwt>
<totfact> 0.48227899E+05</totfact>
</mgrwt>
</event>
<event>
 4    1  0.1352171E+004  0.2847734E+02  0.7546771E-02  0.1615556E+00
         -2   -1    0    0    0  501 -0.00000000000E+00  0.00000000000E+00  0.10615597820E+01  0.10615597820E+01  0.00000000000E+00 0. -1.
          2   -1    0    0  501    0  0.00000000000E+00 -0.00000000000E+00 -0.15228034706E+04  0.15228034706E+04  0.00000000000E+00 0. -1.
          2    1    1    2  502    0  0.27340925961E+02 -0.79644647339E+01 -0.12987428372E+04  0.12990550089E+04  0.00000000000E+00 0. -1.
         -2    1    1    2    0  502 -0.27340925961E+02  0.79644647339E+01 -0.22299907360E+03  0.22481002148E+03  0.00000000000E+00 0. -1.
<mgrwt>
<rscale>  2 0.28477341E+02</rscale>
<asrwt>0</asrwt>
<pdfrwt beam="2">  1        2 0.23427697E+00 0.28477341E+02</pdfrwt>
<pdfrwt beam="1">  1       -2 0.16331723E-03 0.28477341E+02</pdfrwt>
<totfact> 0.26991855E+05</totfact>
</mgrwt>
</event>
<event>
 4    1  0.1352171E+004  0.2071068E+02  0.7546771E-02  0.1731554E+00
         -2   -1    0    0    0  501 -0.00000000000E+00  0.00000000000E+00  0.34993915296E+02  0.34993915296E+02  0.00000000000E+00 0. -1.
          2   -1    0    0  501    0  0.00000000000E+00 -0.00000000000E+00 -0.34529632353E+02  0.34529632353E+02  0.00000000000E+00 0. -1.
          2    1    1    2  502    0  0.20233920387E+02 -0.44182443094E+01 -0.27686120878E+02  0.34575333784E+02  0.00000000000E+00 0. -1.
         -2    1    1    2    0  502 -0.20233920387E+02  0.44182443094E+01  0.28150403821E+02  0.34948213864E+02  0.00000000000E+00 0. -1.
<mgrwt>
<rscale>  2 0.20710684E+02</rscale>
<asrwt>0</asrwt>
<pdfrwt beam="2">  1        2 0.53122511E-02 0.20710684E+02</pdfrwt>
<pdfrwt beam="1">  1       -2 0.53836793E-02 0.20710684E+02</pdfrwt>
<totfact> 0.14952565E+05</totfact>
</mgrwt>
</event>
<event>
 4    1  0.1352171E+004  0.2129505E+02  0.7546771E-02  0.1720737E+00
          2   -1    0    0  501    0  0.00000000000E+00  0.00000000000E+00  0.78267606285E+03  0.78267606285E+03  0.00000000000E+00 0.  1.
         -2   -1    0    0    0  501 -0.00000000000E+00 -0.00000000000E+00 -0.13164333561E+01  0.13164333561E+01  0.00000000000E+00 0. -1.
          2    1    1    2  502    0 -0.12063543136E+02 -0.17548501037E+02  0.68399015854E+03  0.68432157349E+03  0.00000000000E+00 0.  1.
         -2    1    1    2    0  502  0.12063543136E+02  0.17548501037E+02  0.97369470957E+02  0.99670922721E+02  0.00000000000E+00 0. -1.
<mgrwt>
<rscale>  2 0.21295045E+02</rscale>
<asrwt>0</asrwt>
<pdfrwt beam="1">  1        2 0.12041133E+00 0.21295045E+02</pdfrwt>
<pdfrwt beam="2">  1       -2 0.20252883E-03 0.21295045E+02</pdfrwt>
<totfact> 0.46033111E+05</totfact>
</mgrwt>
</event>
<event>
 4    1  0.1352171E+004  0.2114212E+02  0.7546771E-02  0.1723525E+00
         -2   -1    0    0    0  501 -0.00000000000E+00  0.00000000000E+00  0.12354227965E+03  0.12354227965E+03  0.00000000000E+00 0.  1.
          2   -1    0    0  501    0  0.00000000000E+00 -0.00000000000E+00 -0.12999817580E+02  0.12999817580E+02  0.00000000000E+00 0. -1.
          2    1    1    2  502    0 -0.68575273422E+01  0.19999090641E+02 -0.27262240616E+01  0.21317166917E+02  0.00000000000E+00 0. -1.
         -2    1    1    2    0  502  0.68575273422E+01 -0.19999090641E+02  0.11326868613E+03  0.11522493031E+03  0.00000000000E+00 0.  1.
<mgrwt>
<rscale>  2 0.21142122E+02</rscale>
<asrwt>0</asrwt>
<pdfrwt beam="2">  1        2 0.19999720E-02 0.21142122E+02</pdfrwt>
<pdfrwt beam="1">  1       -2 0.19006504E-01 0.21142122E+02</pdfrwt>
<totfact> 0.77395882E+04</totfact>
</mgrwt>
</event>
<event>
 4    1  0.1352171E+004  0.3753489E+02  0.7546771E-02  0.1527177E+00
          2   -1    0    0  501    0  0.00000000000E+00  0.00000000000E+00  0.11628976943E+04  0.11628976943E+04  0.00000000000E+00 0. -1.
         -2   -1    0    0    0  501 -0.00000000000E+00 -0.00000000000E+00 -0.12615887246E+01  0.12615887246E+01  0.00000000000E+00 0. -1.
          2    1    1    2  502    0  0.19098137636E+02 -0.32312988680E+02  0.69678336227E+03  0.69779360991E+03  0.00000000000E+00 0. -1.
         -2    1    1    2    0  502 -0.19098137636E+02  0.32312988680E+02  0.46485274331E+03  0.46636567312E+03  0.00000000000E+00 0. -1.
<mgrwt>
<rscale>  2 0.37534892E+02</rscale>
<asrwt>0</asrwt>
<pdfrwt beam="1">  1        2 0.17890648E+00 0.37534892E+02</pdfrwt>
<pdfrwt beam="2">  1       -2 0.19409150E-03 0.37534892E+02</pdfrwt>
<totfact> 0.34284751E+05</totfact>
</mgrwt>
</event>
<event>
 4    1  0.1352171E+004  0.2898345E+02  0.7546771E-02  0.1609605E+00
          2   -1    0    0  501    0  0.00000000000E+00  0.00000000000E+00  0.12410514770E+04  0.12410514770E+04  0.00000000000E+00 0.  1.
         -2   -1    0    0    0  501 -0.00000000000E+00 -0.00000000000E+00 -0.68648474953E+00  0.68648474953E+00  0.00000000000E+00 0.  1.
          2    1    1    2  502    0  0.28148967436E+02  0.69047218684E+01  0.54673297724E+03  0.54750067393E+03  0.00000000000E+00 0.  1.
         -2    1    1    2    0  502 -0.28148967436E+02 -0.69047218684E+01  0.69363201496E+03  0.69423728777E+03  0.00000000000E+00 0.  1.
<mgrwt>
<rscale>  2 0.28983450E+02</rscale>
<asrwt>0</asrwt>
<pdfrwt beam="1">  1        2 0.19092920E+00 0.28983450E+02</pdfrwt>
<pdfrwt beam="2">  1       -2 0.10561403E-03 0.28983450E+02</pdfrwt>
<totfact> 0.66440154E+05</totfact>
</mgrwt>
</event>
<event>
 4    1  0.1352171E+004  0.2045834E+02  0.7546771E-02  0.1736364E+00
          2   -1    0    0  501    0  0.00000000000E+00  0.00000000000E+00  0.16236492747E+03  0.16236492747E+03  0.00000000000E+00 0. -1.
         -2   -1    0    0    0  501 -0.00000000000E+00 -0.00000000000E+00 -0.67526429171E+01  0.67526429171E+01  0.00000000000E+00 0. -1.
          2    1    1    2  502    0  0.15576423408E+02  0.13263438498E+02  0.14429396118E+03  0.14573706118E+03  0.00000000000E+00 0. -1.
         -2    1    1    2    0  502 -0.15576423408E+02 -0.13263438498E+02  0.11318323371E+02  0.23380509210E+02  0.00000000000E+00 0. -1.
<mgrwt>
<rscale>  2 0.20458342E+02</rscale>
<asrwt>0</asrwt>
<pdfrwt beam="1">  1        2 0.24979217E-01 0.20458342E+02</pdfrwt>
<pdfrwt beam="2">  1       -2 0.10388683E-02 0.20458342E+02</pdfrwt>
<totfact> 0.25176549E+05</totfact>
</mgrwt>
</event>
<event>
 4    1  0.1352171E+004  0.2198235E+02  0.7546771E-02  0.1708557E+00
         -2   -1    0    0    0  501 -0.00000000000E+00  0.00000000000E+00  0.71497055002E+03  0.71497055002E+03  0.00000000000E+00 0.  1.
          2   -1    0    0  501    0  0.00000000000E+00 -0.00000000000E+00 -0.10544543688E+03  0.10544543688E+03  0.00000000000E+00 0. -1.
          2    1    1    2  502    0  0.15694556173E+02 -0.15391702320E+02 -0.10412868513E+03  0.10642371287E+03  0.00000000000E+00 0. -1.
         -2    1    1    2    0  502 -0.15694556173E+02  0.15391702320E+02  0.71365379827E+03  0.71399227404E+03  0.00000000000E+00 0.  1.
<mgrwt>
<rscale>  2 0.21982347E+02</rscale>
<asrwt>0</asrwt>
<pdfrwt beam="2">  1        2 0.16222375E-01 0.21982347E+02</pdfrwt>
<pdfrwt beam="1">  1       -2 0.10999547E+00 0.21982347E+02</pdfrwt>
<totfact> 0.23174738E+02</totfact>
</mgrwt>
</event>
<event>
 4    1  0.1352171E+004  0.2390854E+02  0.7546771E-02  0.1677193E+00
         -2   -1    0    0    0  501 -0.00000000000E+00  0.00000000000E+00  0.91083153916E+01  0.91083153916E+01  0.00000000000E+00 0. -1.
          2   -1    0    0  501    0  0.00000000000E+00 -0.00000000000E+00 -0.20408884748E+03  0.20408884748E+03  0.00000000000E+00 0. -1.
          2    1    1    2  502    0  0.18710774472E+02  0.14883720646E+02 -0.18619780130E+03  0.18772650168E+03  0.00000000000E+00 0. -1.
         -2    1    1    2    0  502 -0.18710774472E+02 -0.14883720646E+02 -0.87827307832E+01  0.25470661193E+02  0.00000000000E+00 0. -1.
<mgrwt>
<rscale>  2 0.23908539E+02</rscale>
<asrwt>0</asrwt>
<pdfrwt beam="2">  1        2 0.31398283E-01 0.23908539E+02</pdfrwt>
<pdfrwt beam="1">  1       -2 0.14012793E-02 0.23908539E+02</pdfrwt>
<totfact> 0.13869550E+05</totfact>
</mgrwt>
</event>
<event>
 4    1  0.1352171E+004  0.6671546E+02  0.7546771E-02  0.1371632E+00
          2   -1    0    0  501    0  0.00000000000E+00  0.00000000000E+00  0.13086152296E+04  0.13086152296E+04  0.00000000000E+00 0.  1.
         -2   -1    0    0    0  501 -0.00000000000E+00 -0.00000000000E+00 -0.77784116565E+02  0.77784116565E+02  0.00000000000E+00 0.  1.
          2    1    1    2  502    0  0.92592517905E+01  0.66069803042E+02  0.12932900410E+04  0.12950096844E+04  0.00000000000E+00 0.  1.
         -2    1    1    2    0  502 -0.92592517905E+01 -0.66069803042E+02 -0.62458927873E+02  0.91389661826E+02  0.00000000000E+00 0.  1.
<mgrwt>
<rscale>  2 0.66715460E+02</rscale>
<asrwt>0</asrwt>
<pdfrwt beam="1">  1        2 0.20132540E+00 0.66715460E+02</pdfrwt>
<pdfrwt beam="2">  1       -2 0.11966788E-01 0.66715460E+02</pdfrwt>
<totfact> 0.88055730E+02</totfact>
</mgrwt>
</event>
<event>
 4    1  0.1352171E+004  0.2610359E+02  0.7546771E-02  0.1645638E+00
         -2   -1    0    0    0  501 -0.00000000000E+00  0.00000000000E+00  0.83165381585E+02  0.83165381585E+02  0.00000000000E+00 0. -1.
          2   -1    0    0  501    0  0.00000000000E+00 -0.00000000000E+00 -0.21896629493E+02  0.21896629493E+02  0.00000000000E+00 0. -1.
          2    1    1    2  502    0  0.23124844527E+02  0.12109464968E+02 -0.10922260075E+02  0.28296525253E+02  0.00000000000E+00 0. -1.
         -2    1    1    2    0  502 -0.23124844527E+02 -0.12109464968E+02  0.72191012167E+02  0.76765485825E+02  0.00000000000E+00 0. -1.
<mgrwt>
<rscale>  2 0.26103593E+02</rscale>
<asrwt>0</asrwt>
<pdfrwt beam="2">  1        2 0.33687123E-02 0.26103593E+02</pdfrwt>
<pdfrwt beam="1">  1       -2 0.12794674E-01 0.26103593E+02</pdfrwt>
<totfact> 0.78091290E+04</totfact>
</mgrwt>
</event>
<event>
 4    1  0.1352171E+004  0.2976377E+02  0.7546771E-02  0.1600715E+00
          2   -1    0    0  501    0  0.00000000000E+00  0.00000000000E+00  0.24237958705E+03  0.24237958705E+03  0.00000000000E+00 0.  1.
         -2   -1    0    0    0  501 -0.00000000000E+00 -0.00000000000E+00 -0.81250467648E+01  0.81250467648E+01  0.00000000000E+00 0. -1.
          2    1    1    2  502    0  0.77755552605E+01 -0.28730173738E+02  0.21003073745E+03  0.21212918898E+03  0.00000000000E+00 0.  1.
         -2    1    1    2    0  502 -0.77755552605E+01  0.28730173738E+02  0.24223802836E+02  0.38375444838E+02  0.00000000000E+00 0. -1.
<mgrwt>
<rscale>  2 0.29763772E+02</rscale>
<asrwt>0</asrwt>
<pdfrwt beam="1">  1        2 0.37289162E-01 0.29763772E+02</pdfrwt>
<pdfrwt beam="2">  1       -2 0.12500074E-02 0.29763772E+02</pdfrwt>
<totfact> 0.14368463E+05</totfact>
</mgrwt>
</event>
<event>
 4    1  0.1352171E+004  0.2754768E+02  0.7546771E-02  0.1626893E+00
          2   -1    0    0  501    0  0.00000000000E+00  0.00000000000E+00  0.16470616433E+02  0.16470616433E+02  0.00000000000E+00 0. -1.
         -2   -1    0    0    0  501 -0.00000000000E+00 -0.00000000000E+00 -0.25089467517E+03  0.25089467517E+03  0.00000000000E+00 0.  1.
          2    1    1    2  502    0 -0.27534495989E+02 -0.85203943020E+00  0.35737315868E+01  0.27778516843E+02  0.00000000000E+00 0. -1.
         -2    1    1    2    0  502  0.27534495989E+02  0.85203943020E+00 -0.23799779032E+03  0.23958677476E+03  0.00000000000E+00 0.  1.
<mgrwt>
<rscale>  2 0.27547676E+02</rscale>
<asrwt>0</asrwt>
<pdfrwt beam="1">  1        2 0.25339410E-02 0.27547676E+02</pdfrwt>
<pdfrwt beam="2">  1       -2 0.38599181E-01 0.27547676E+02</pdfrwt>
<totfact> 0.18289573E+04</totfact>
</mgrwt>
</event>
<event>
 4    1  0.1352171E+004  0.3268422E+02  0.7546771E-02  0.1570182E+00
          2   -1    0    0  501    0  0.00000000000E+00  0.00000000000E+00  0.52735105537E+03  0.52735105537E+03  0.00000000000E+00 0. -1.
         -2   -1    0    0    0  501 -0.00000000000E+00 -0.00000000000E+00 -0.21579372564E+01  0.21579372564E+01  0.00000000000E+00 0.  1.
          2    1    1    2  502    0 -0.32616306069E+02 -0.21058818221E+01  0.32813424695E+03  0.32975800548E+03  0.00000000000E+00 0. -1.
         -2    1    1    2    0  502  0.32616306069E+02  0.21058818221E+01  0.19705887117E+03  0.19975098715E+03  0.00000000000E+00 0.  1.
<mgrwt>
<rscale>  2 0.32684219E+02</rscale>
<asrwt>0</asrwt>
<pdfrwt beam="1">  1        2 0.81130829E-01 0.32684219E+02</pdfrwt>
<pdfrwt beam="2">  1       -2 0.33199077E-03 0.32684219E+02</pdfrwt>
<totfact> 0.40738516E+05</totfact>
</mgrwt>
</event>
<event>
 4    1  0.1352171E+004  0.2838708E+02  0.7546771E-02  0.1616634E+00
          2   -1    0    0  501    0  0.00000000000E+00  0.00000000000E+00  0.10233168850E+04  0.10233168850E+04  0.00000000000E+00 0. -1.
         -2   -1    0    0    0  501 -0.00000000000E+00 -0.00000000000E+00 -0.79737237595E+00  0.79737237595E+00  0.00000000000E+00 0. -1.
          2    1    1    2  502    0  0.27927369024E+02 -0.50880832274E+01  0.56833669951E+03  0.56904519201E+03  0.00000000000E+00 0. -1.
         -2    1    1    2    0  502 -0.27927369024E+02  0.50880832274E+01  0.45418281314E+03  0.45506906540E+03  0.00000000000E+00 0. -1.
<mgrwt>
<rscale>  2 0.28387084E+02</rscale>
<asrwt>0</asrwt>
<pdfrwt beam="1">  1        2 0.15743232E+00 0.28387084E+02</pdfrwt>
<pdfrwt beam="2">  1       -2 0.12267349E-03 0.28387084E+02</pdfrwt>
<totfact> 0.70337025E+05</totfact>
</mgrwt>
</event>
<event>
 4    1  0.1352171E+004  0.4078912E+02  0.7546771E-02  0.1502483E+00
          2   -1    0    0  501    0  0.00000000000E+00  0.00000000000E+00  0.12257200909E+03  0.12257200909E+03  0.00000000000E+00 0. -1.
         -2   -1    0    0    0  501 -0.00000000000E+00 -0.00000000000E+00 -0.29889674264E+02  0.29889674264E+02  0.00000000000E+00 0. -1.
          2    1    1    2  502    0  0.40402216865E+02 -0.56047331694E+01  0.10266303038E+03  0.11046922634E+03  0.00000000000E+00 0. -1.
         -2    1    1    2    0  502 -0.40402216865E+02  0.56047331694E+01 -0.99806955605E+01  0.41992457006E+02  0.00000000000E+00 0. -1.
<mgrwt>
<rscale>  2 0.40789118E+02</rscale>
<asrwt>0</asrwt>
<pdfrwt beam="1">  1        2 0.18857232E-01 0.40789118E+02</pdfrwt>
<pdfrwt beam="2">  1       -2 0.45984115E-02 0.40789118E+02</pdfrwt>
<totfact> 0.50277310E+04</totfact>
</mgrwt>
</event>
<event>
 4    1  0.1352171E+004  0.4200698E+02  0.7546771E-02  0.1493941E+00
          2   -1    0    0  501    0  0.00000000000E+00  0.00000000000E+00  0.59089531214E+03  0.59089531214E+03  0.00000000000E+00 0. -1.
         -2   -1    0    0    0  501 -0.00000000000E+00 -0.00000000000E+00 -0.39092862793E+01  0.39092862793E+01  0.00000000000E+00 0.  1.
          2    1    1    2  502    0  0.38969736395E+02  0.15682668662E+02  0.43800200990E+03  0.44001175794E+03  0.00000000000E+00 0. -1.
         -2    1    1    2    0  502 -0.38969736395E+02 -0.15682668662E+02  0.14898401595E+03  0.15479284047E+03  0.00000000000E+00 0.  1.
<mgrwt>
<rscale>  2 0.42006981E+02</rscale>
<asrwt>0</asrwt>
<pdfrwt beam="1">  1        2 0.90906900E-01 0.42006981E+02</pdfrwt>
<pdfrwt beam="2">  1       -2 0.60142913E-03 0.42006981E+02</pdfrwt>
<totfact> 0.17024591E+05</totfact>
</mgrwt>
</event>
<event>
 4    1  0.1352171E+004  0.2132662E+02  0.7546771E-02  0.1720165E+00
          2   -1    0    0  501    0  0.00000000000E+00  0.00000000000E+00  0.76436439620E+03  0.76436439620E+03  0.00000000000E+00 0. -1.
         -2   -1    0    0    0  501 -0.00000000000E+00 -0.00000000000E+00 -0.24441709874E+01  0.24441709874E+01  0.00000000000E+00 0. -1.
          2    1    1    2  502    0 -0.19183532251E+02 -0.93175525060E+01  0.71444443420E+03  0.71476266988E+03  0.00000000000E+00 0. -1.
         -2    1    1    2    0  502  0.19183532251E+02  0.93175525060E+01  0.47475791019E+02  0.52045897314E+02  0.00000000000E+00 0. -1.
<mgrwt>
<rscale>  2 0.21326619E+02</rscale>
<asrwt>0</asrwt>
<pdfrwt beam="1">  1        2 0.11759433E+00 0.21326619E+02</pdfrwt>
<pdfrwt beam="2">  1       -2 0.37602692E-03 0.21326619E+02</pdfrwt>
<totfact> 0.20813900E+05</totfact>
</mgrwt>
</event>
<event>
 4    1  0.1352171E+004  0.2874343E+02  0.7546771E-02  0.1612409E+00
         -2   -1    0    0    0  501 -0.00000000000E+00  0.00000000000E+00  0.67436005817E+02  0.67436005817E+02  0.00000000000E+00 0. -1.
          2   -1    0    0  501    0  0.00000000000E+00 -0.00000000000E+00 -0.33443211145E+02  0.33443211145E+02  0.00000000000E+00 0.  1.
          2    1    1    2  502    0 -0.12837494765E+02 -0.25717378356E+02 -0.23155110503E+02  0.36909943969E+02  0.00000000000E+00 0.  1.
         -2    1    1    2    0  502  0.12837494765E+02  0.25717378356E+02  0.57147905175E+02  0.63969272993E+02  0.00000000000E+00 0. -1.
<mgrwt>
<rscale>  2 0.28743431E+02</rscale>
<asrwt>0</asrwt>
<pdfrwt beam="2">  1        2 0.51451094E-02 0.28743431E+02</pdfrwt>
<pdfrwt beam="1">  1       -2 0.10374770E-01 0.28743431E+02</pdfrwt>
<totfact> 0.64714701E+04</totfact>
</mgrwt>
</event>
<event>
 4    1  0.1352171E+004  0.3522415E+02  0.7546771E-02  0.1546619E+00
         -2   -1    0    0    0  501 -0.00000000000E+00  0.00000000000E+00  0.59405349408E+02  0.59405349408E+02  0.00000000000E+00 0.  1.
          2   -1    0    0  501    0  0.00000000000E+00 -0.00000000000E+00 -0.30801365378E+03  0.30801365378E+03  0.00000000000E+00 0. -1.
          2    1    1    2  502    0 -0.31854546402E+02  0.15034246780E+02 -0.30167577457E+03  0.30372522724E+03  0.00000000000E+00 0. -1.
         -2    1    1    2    0  502  0.31854546402E+02 -0.15034246780E+02  0.53067470189E+02  0.63693775952E+02  0.00000000000E+00 0.  1.
<mgrwt>
<rscale>  2 0.35224149E+02</rscale>
<asrwt>0</asrwt>
<pdfrwt beam="2">  1        2 0.47386715E-01 0.35224149E+02</pdfrwt>
<pdfrwt beam="1">  1       -2 0.91392847E-02 0.35224149E+02</pdfrwt>
<totfact> 0.68830645E+03</totfact>
</mgrwt>
</event>
<event>
 4    1  0.1352171E+004  0.2668973E+02  0.7546771E-02  0.1637854E+00
          2   -1    0    0  501    0  0.00000000000E+00  0.00000000000E+00  0.10570777003E+04  0.10570777003E+04  0.00000000000E+00 0. -1.
         -2   -1    0    0    0  501 -0.00000000000E+00 -0.00000000000E+00 -0.51163737850E+02  0.51163737850E+02  0.00000000000E+00 0. -1.
          2    1    1    2  502    0 -0.66694419040E+01 -0.25842994201E+02  0.10534164384E+04  0.10537544945E+04  0.00000000000E+00 0. -1.
         -2    1    1    2    0  502  0.66694419040E+01  0.25842994201E+02 -0.47502476008E+02  0.54486943678E+02  0.00000000000E+00 0. -1.
<mgrwt>
<rscale>  2 0.26689732E+02</rscale>
<asrwt>0</asrwt>
<pdfrwt beam="1">  1        2 0.16262732E+00 0.26689732E+02</pdfrwt>
<pdfrwt beam="2">  1       -2 0.78713451E-02 0.26689732E+02</pdfrwt>
<totfact> 0.22079060E+03</totfact>
</mgrwt>
</event>
<event>
 4    1  0.1352171E+004  0.2466292E+02  0.7546771E-02  0.1665891E+00
         -2   -1    0    0    0  501 -0.00000000000E+00  0.00000000000E+00  0.80826046014E+00  0.80826046014E+00  0.00000000000E+00 0. -1.
          2   -1    0    0  501    0  0.00000000000E+00 -0.00000000000E+00 -0.19488357125E+04  0.19488357125E+04  0.00000000000E+00 0. -1.
          2    1    1    2  502    0 -0.14211360332E+02  0.20156807938E+02 -0.17377693602E+04  0.17379443630E+04  0.00000000000E+00 0. -1.
         -2    1    1    2    0  502  0.14211360332E+02 -0.20156807938E+02 -0.21025809180E+03  0.21169960991E+03  0.00000000000E+00 0. -1.
<mgrwt>
<rscale>  2 0.24662921E+02</rscale>
<asrwt>0</asrwt>
<pdfrwt beam="2">  1        2 0.29981982E+00 0.24662921E+02</pdfrwt>
<pdfrwt beam="1">  1       -2 0.12434820E-03 0.24662921E+02</pdfrwt>
<totfact> 0.23716624E+05</totfact>
</mgrwt>
</event>
<event>
 4    1  0.1352171E+004  0.2508549E+02  0.7546771E-02  0.1659777E+00
          2   -1    0    0  501    0  0.00000000000E+00  0.00000000000E+00  0.69171613625E+02  0.69171613625E+02  0.00000000000E+00 0. -1.
         -2   -1    0    0    0  501 -0.00000000000E+00 -0.00000000000E+00 -0.14378855829E+02  0.14378855829E+02  0.00000000000E+00 0. -1.
          2    1    1    2  502    0  0.23972555328E+02 -0.73890898256E+01  0.52714614073E+02  0.58379042423E+02  0.00000000000E+00 0. -1.
         -2    1    1    2    0  502 -0.23972555328E+02  0.73890898256E+01  0.20781437236E+01  0.25171427031E+02  0.00000000000E+00 0. -1.
<mgrwt>
<rscale>  2 0.25085495E+02</rscale>
<asrwt>0</asrwt>
<pdfrwt beam="1">  1        2 0.10641787E-01 0.25085495E+02</pdfrwt>
<pdfrwt beam="2">  1       -2 0.22121317E-02 0.25085495E+02</pdfrwt>
<totfact> 0.24038261E+05</totfact>
</mgrwt>
</event>
<event>
 4    1  0.1352171E+004  0.4383216E+02  0.7546771E-02  0.1481767E+00
          2   -1    0    0  501    0  0.00000000000E+00  0.00000000000E+00  0.12877648245E+04  0.12877648245E+04  0.00000000000E+00 0. -1.
         -2   -1    0    0    0  501 -0.00000000000E+00 -0.00000000000E+00 -0.15220175982E+01  0.15220175982E+01  0.00000000000E+00 0. -1.
          2    1    1    2  502    0 -0.42155513231E+02 -0.12007115019E+02  0.73375431311E+03  0.73506234437E+03  0.00000000000E+00 0. -1.
         -2    1    1    2    0  502  0.42155513231E+02  0.12007115019E+02  0.55248849376E+03  0.55422449770E+03  0.00000000000E+00 0. -1.
<mgrwt>
<rscale>  2 0.43832158E+02</rscale>
<asrwt>0</asrwt>
<pdfrwt beam="1">  1        2 0.19811679E+00 0.43832158E+02</pdfrwt>
<pdfrwt beam="2">  1       -2 0.23415758E-03 0.43832158E+02</pdfrwt>
<totfact> 0.23643844E+05</totfact>
</mgrwt>
</event>
<event>
 4    1  0.1352171E+004  0.2138776E+02  0.7546771E-02  0.1719061E+00
          2   -1    0    0  501    0  0.00000000000E+00  0.00000000000E+00  0.10034058499E+04  0.10034058499E+04  0.00000000000E+00 0. -1.
         -2   -1    0    0    0  501 -0.00000000000E+00 -0.00000000000E+00 -0.24823271123E+01  0.24823271123E+01  0.00000000000E+00 0.  1.
          2    1    1    2  502    0  0.12460133933E+02 -0.17383368714E+02  0.95488175894E+03  0.95512125409E+03  0.00000000000E+00 0. -1.
         -2    1    1    2    0  502 -0.12460133933E+02  0.17383368714E+02  0.46041763851E+02  0.50766922933E+02  0.00000000000E+00 0.  1.
<mgrwt>
<rscale>  2 0.21387764E+02</rscale>
<asrwt>0</asrwt>
<pdfrwt beam="1">  1        2 0.15436981E+00 0.21387764E+02</pdfrwt>
<pdfrwt beam="2">  1       -2 0.38189728E-03 0.21387764E+02</pdfrwt>
<totfact> 0.14836806E+05</totfact>
</mgrwt>
</event>
<event>
 4    1  0.1352171E+004  0.2489829E+02  0.7546771E-02  0.1662467E+00
          2   -1    0    0  501    0  0.00000000000E+00  0.00000000000E+00  0.26505032062E+03  0.26505032062E+03  0.00000000000E+00 0. -1.
         -2   -1    0    0    0  501 -0.00000000000E+00 -0.00000000000E+00 -0.83803303471E+01  0.83803303471E+01  0.00000000000E+00 0.  1.
          2    1    1    2  502    0 -0.17538570128E+02 -0.17672678723E+02  0.24441480226E+03  0.24567971137E+03  0.00000000000E+00 0. -1.
         -2    1    1    2    0  502  0.17538570128E+02  0.17672678723E+02  0.12255188017E+02  0.27750939601E+02  0.00000000000E+00 0.  1.
<mgrwt>
<rscale>  2 0.24898293E+02</rscale>
<asrwt>0</asrwt>
<pdfrwt beam="1">  1        2 0.40776966E-01 0.24898293E+02</pdfrwt>
<pdfrwt beam="2">  1       -2 0.12892818E-02 0.24898293E+02</pdfrwt>
<totfact> 0.12079067E+05</totfact>
</mgrwt>
</event>
<event>
 4    1  0.1352171E+004  0.2231526E+02  0.7546771E-02  0.1702856E+00
          2   -1    0    0  501    0  0.00000000000E+00  0.00000000000E+00  0.22156487990E+03  0.22156487990E+03  0.00000000000E+00 0.  1.
         -2   -1    0    0    0  501 -0.00000000000E+00 -0.00000000000E+00 -0.12066850754E+03  0.12066850754E+03  0.00000000000E+00 0. -1.
          2    1    1    2  502    0 -0.21288212516E+02 -0.66919857452E+01  0.21996381921E+03  0.22109285928E+03  0.00000000000E+00 0.  1.
         -2    1    1    2    0  502  0.21288212516E+02  0.66919857452E+01 -0.11906744685E+03  0.12114052817E+03  0.00000000000E+00 0. -1.
<mgrwt>
<rscale>  2 0.22315256E+02</rscale>
<asrwt>0</asrwt>
<pdfrwt beam="1">  1        2 0.34086905E-01 0.22315256E+02</pdfrwt>
<pdfrwt beam="2">  1       -2 0.18564386E-01 0.22315256E+02</pdfrwt>
<totfact> 0.30540932E+03</totfact>
</mgrwt>
</event>
<event>
 4    1  0.1352171E+004  0.3386582E+02  0.7546771E-02  0.1558909E+00
         -2   -1    0    0    0  501 -0.00000000000E+00  0.00000000000E+00  0.17185903674E+02  0.17185903674E+02  0.00000000000E+00 0. -1.
          2   -1    0    0  501    0  0.00000000000E+00 -0.00000000000E+00 -0.15188077122E+04  0.15188077122E+04  0.00000000000E+00 0.  1.
          2    1    1    2  502    0  0.27470044204E+02 -0.19806317094E+02 -0.15017457677E+04  0.15021275726E+04  0.00000000000E+00 0.  1.
         -2    1    1    2    0  502 -0.27470044204E+02  0.19806317094E+02  0.12395912373E+00  0.33866043337E+02  0.00000000000E+00 0. -1.
<mgrwt>
<rscale>  2 0.33865816E+02</rscale>
<asrwt>0</asrwt>
<pdfrwt beam="2">  1        2 0.23366280E+00 0.33865816E+02</pdfrwt>
<pdfrwt beam="1">  1       -2 0.26439844E-02 0.33865816E+02</pdfrwt>
<totfact> 0.62602588E+03</totfact>
</mgrwt>
</event>
<event>
 4    1  0.1352171E+004  0.2295516E+02  0.7546771E-02  0.1692238E+00
         -2   -1    0    0    0  501 -0.00000000000E+00  0.00000000000E+00  0.14501105156E+02  0.14501105156E+02  0.00000000000E+00 0.  1.
          2   -1    0    0  501    0  0.00000000000E+00 -0.00000000000E+00 -0.57247314711E+02  0.57247314711E+02  0.00000000000E+00 0.  1.
          2    1    1    2  502    0  0.10224897052E+02 -0.20552148681E+02 -0.43053939123E+02  0.48791198070E+02  0.00000000000E+00 0.  1.
         -2    1    1    2    0  502 -0.10224897052E+02  0.20552148681E+02  0.30772956841E+00  0.22957221797E+02  0.00000000000E+00 0.  1.
<mgrwt>
<rscale>  2 0.22955159E+02</rscale>
<asrwt>0</asrwt>
<pdfrwt beam="2">  1        2 0.88072792E-02 0.22955159E+02</pdfrwt>
<pdfrwt beam="1">  1       -2 0.22309392E-02 0.22955159E+02</pdfrwt>
<totfact> 0.28835811E+05</totfact>
</mgrwt>
</event>
<event>
 4    1  0.1352171E+004  0.2080324E+02  0.7546771E-02  0.1729811E+00
          2   -1    0    0  501    0  0.00000000000E+00  0.00000000000E+00  0.22593560259E+01  0.22593560259E+01  0.00000000000E+00 0.  1.
         -2   -1    0    0    0  501 -0.00000000000E+00 -0.00000000000E+00 -0.19309959835E+03  0.19309959835E+03  0.00000000000E+00 0. -1.
          2    1    1    2  502    0  0.18369161466E+02 -0.97646693687E+01 -0.86663857182E+02  0.89125748257E+02  0.00000000000E+00 0.  1.
         -2    1    1    2    0  502 -0.18369161466E+02  0.97646693687E+01 -0.10417638514E+03  0.10623320612E+03  0.00000000000E+00 0. -1.
<mgrwt>
<rscale>  2 0.20803242E+02</rscale>
<asrwt>0</asrwt>
<pdfrwt beam="1">  1        2 0.34759331E-03 0.20803242E+02</pdfrwt>
<pdfrwt beam="2">  1       -2 0.29707624E-01 0.20803242E+02</pdfrwt>
<totfact> 0.35751252E+05</totfact>
</mgrwt>
</event>
<event>
 4    1  0.1352171E+004  0.2073198E+02  0.7546771E-02  0.1731152E+00
          2   -1    0    0  501    0  0.00000000000E+00  0.00000000000E+00  0.44559473864E+03  0.44559473864E+03  0.00000000000E+00 0.  1.
         -2   -1    0    0    0  501 -0.00000000000E+00 -0.00000000000E+00 -0.71256961672E+01  0.71256961672E+01  0.00000000000E+00 0.  1.
          2    1    1    2  502    0 -0.16145619644E+02 -0.13005157387E+02  0.42971696799E+03  0.43021679155E+03  0.00000000000E+00 0.  1.
         -2    1    1    2    0  502  0.16145619644E+02  0.13005157387E+02  0.87520744907E+01  0.22503643266E+02  0.00000000000E+00 0.  1.
<mgrwt>
<rscale>  2 0.20731984E+02</rscale>
<asrwt>0</asrwt>
<pdfrwt beam="1">  1        2 0.68553015E-01 0.20731984E+02</pdfrwt>
<pdfrwt beam="2">  1       -2 0.10962613E-02 0.20731984E+02</pdfrwt>
<totfact> 0.86352723E+04</totfact>
</mgrwt>
</event>
<event>
 4    1  0.1352171E+004  0.2286327E+02  0.7546771E-02  0.1693736E+00
         -2   -1    0    0    0  501 -0.00000000000E+00  0.00000000000E+00  0.28480079187E+01  0.28480079187E+01  0.00000000000E+00 0.  1.
          2   -1    0    0  501    0  0.00000000000E+00 -0.00000000000E+00 -0.63367713997E+03  0.63367713997E+03  0.00000000000E+00 0. -1.
          2    1    1    2  502    0  0.17988954284E+02  0.14111222920E+02 -0.58365423614E+03  0.58410187164E+03  0.00000000000E+00 0. -1.
         -2    1    1    2    0  502 -0.17988954284E+02 -0.14111222920E+02 -0.47174895915E+02  0.52423276253E+02  0.00000000000E+00 0.  1.
<mgrwt>
<rscale>  2 0.22863269E+02</rscale>
<asrwt>0</asrwt>
<pdfrwt beam="2">  1        2 0.97488632E-01 0.22863269E+02</pdfrwt>
<pdfrwt beam="1">  1       -2 0.43815578E-03 0.22863269E+02</pdfrwt>
<totfact> 0.21156790E+05</totfact>
</mgrwt>
</event>
<event>
 4    1  0.1352171E+004  0.2619440E+02  0.7546771E-02  0.1644416E+00
         -2   -1    0    0    0  501 -0.00000000000E+00  0.00000000000E+00  0.19705446765E+03  0.19705446765E+03  0.00000000000E+00 0. -1.
          2   -1    0    0  501    0  0.00000000000E+00 -0.00000000000E+00 -0.48681965323E+01  0.48681965323E+01  0.00000000000E+00 0.  1.
          2    1    1    2  502    0  0.24290232324E+02 -0.98046650449E+01  0.42218928451E+02  0.49684854459E+02  0.00000000000E+00 0.  1.
         -2    1    1    2    0  502 -0.24290232324E+02  0.98046650449E+01  0.14996734266E+03  0.15223780972E+03  0.00000000000E+00 0. -1.
<mgrwt>
<rscale>  2 0.26194405E+02</rscale>
<asrwt>0</asrwt>
<pdfrwt beam="2">  1        2 0.74895347E-03 0.26194405E+02</pdfrwt>
<pdfrwt beam="1">  1       -2 0.30316066E-01 0.26194405E+02</pdfrwt>
<totfact> 0.13527691E+05</totfact>
</mgrwt>
</event>
<event>
 4    1  0.1352171E+004  0.4778906E+02  0.7546771E-02  0.1457645E+00
         -2   -1    0    0    0  501 -0.00000000000E+00  0.00000000000E+00  0.78800169581E+01  0.78800169581E+01  0.00000000000E+00 0.  1.
          2   -1    0    0  501    0  0.00000000000E+00 -0.00000000000E+00 -0.72066342384E+03  0.72066342384E+03  0.00000000000E+00 0. -1.
          2    1    1    2  502    0  0.56065594471E+01 -0.47459039136E+02 -0.63804736028E+03  0.63983453163E+03  0.00000000000E+00 0. -1.
         -2    1    1    2    0  502 -0.56065594471E+01  0.47459039136E+02 -0.74736046609E+02  0.88708909177E+02  0.00000000000E+00 0.  1.
<mgrwt>
<rscale>  2 0.47789056E+02</rscale>
<asrwt>0</asrwt>
<pdfrwt beam="2">  1        2 0.11087131E+00 0.47789056E+02</pdfrwt>
<pdfrwt beam="1">  1       -2 0.12123102E-02 0.47789056E+02</pdfrwt>
<totfact> 0.53055041E+04</totfact>
</mgrwt>
</event>
<event>
 4    1  0.1352171E+004  0.3345352E+02  0.7546771E-02  0.1562779E+00
          2   -1    0    0  501    0  0.00000000000E+00  0.00000000000E+00  0.21436342462E+04  0.21436342462E+04  0.00000000000E+00 0. -1.
         -2   -1    0    0    0  501 -0.00000000000E+00 -0.00000000000E+00 -0.22906781647E+02  0.22906781647E+02  0.00000000000E+00 0.  1.
          2    1    1    2  502    0 -0.15500982244E+02  0.29645536839E+02  0.21312185271E+04  0.21314810692E+04  0.00000000000E+00 0. -1.
         -2    1    1    2    0  502  0.15500982244E+02 -0.29645536839E+02 -0.10491062533E+02  0.35059958615E+02  0.00000000000E+00 0.  1.
<mgrwt>
<rscale>  2 0.33453525E+02</rscale>
<asrwt>0</asrwt>
<pdfrwt beam="1">  1        2 0.32978973E+00 0.33453525E+02</pdfrwt>
<pdfrwt beam="2">  1       -2 0.35241219E-02 0.33453525E+02</pdfrwt>
<totfact> 0.20998620E+03</totfact>
</mgrwt>
</event>
<event>
 4    1  0.1352171E+004  0.2664495E+02  0.7546771E-02  0.1638440E+00
          2   -1    0    0  501    0  0.00000000000E+00  0.00000000000E+00  0.57078252620E+03  0.57078252620E+03  0.00000000000E+00 0. -1.
         -2   -1    0    0    0  501 -0.00000000000E+00 -0.00000000000E+00 -0.13416096448E+02  0.13416096448E+02  0.00000000000E+00 0.  1.
          2    1    1    2  502    0 -0.24574332810E+02 -0.10298325556E+02  0.55691277483E+03  0.55754981133E+03  0.00000000000E+00 0. -1.
         -2    1    1    2    0  502  0.24574332810E+02  0.10298325556E+02  0.45365492656E+00  0.26648811326E+02  0.00000000000E+00 0.  1.
<mgrwt>
<rscale>  2 0.26644950E+02</rscale>
<asrwt>0</asrwt>
<pdfrwt beam="1">  1        2 0.87812678E-01 0.26644950E+02</pdfrwt>
<pdfrwt beam="2">  1       -2 0.20640153E-02 0.26644950E+02</pdfrwt>
<totfact> 0.29792489E+04</totfact>
</mgrwt>
</event>
<event>
 4    1  0.1352171E+004  0.2328372E+02  0.7546771E-02  0.1686952E+00
          2   -1    0    0  501    0  0.00000000000E+00  0.00000000000E+00  0.14691881626E+04  0.14691881626E+04  0.00000000000E+00 0.  1.
         -2   -1    0    0    0  501 -0.00000000000E+00 -0.00000000000E+00 -0.60929518734E+00  0.60929518734E+00  0.00000000000E+00 0. -1.
          2    1    1    2  502    0  0.15915237710E+02 -0.16995201293E+02  0.11958039911E+04  0.11960306505E+04  0.00000000000E+00 0.  1.
         -2    1    1    2    0  502 -0.15915237710E+02  0.16995201293E+02  0.27277487629E+03  0.27376680733E+03  0.00000000000E+00 0. -1.
<mgrwt>
<rscale>  2 0.23283721E+02</rscale>
<asrwt>0</asrwt>
<pdfrwt beam="1">  1        2 0.22602611E+00 0.23283721E+02</pdfrwt>
<pdfrwt beam="2">  1       -2 0.93738897E-04 0.23283721E+02</pdfrwt>
<totfact> 0.56913732E+05</totfact>
</mgrwt>
</event>
<event>
 4    1  0.1352171E+004  0.2241967E+02  0.7546771E-02  0.1701093E+00
         -2   -1    0    0    0  501 -0.00000000000E+00  0.00000000000E+00  0.11134773721E+01  0.11134773721E+01  0.00000000000E+00 0.  1.
          2   -1    0    0  501    0  0.00000000000E+00 -0.00000000000E+00 -0.12948974447E+04  0.12948974447E+04  0.00000000000E+00 0.  1.
          2    1    1    2  502    0  0.21671164542E+02 -0.57447732707E+01 -0.11698883582E+04  0.11701031632E+04  0.00000000000E+00 0.  1.
         -2    1    1    2    0  502 -0.21671164542E+02  0.57447732707E+01 -0.12389560918E+03  0.12590775896E+03  0.00000000000E+00 0.  1.
<mgrwt>
<rscale>  2 0.22419674E+02</rscale>
<asrwt>0</asrwt>
<pdfrwt beam="2">  1        2 0.19921447E+00 0.22419674E+02</pdfrwt>
<pdfrwt beam="1">  1       -2 0.17130466E-03 0.22419674E+02</pdfrwt>
<totfact> 0.30868065E+05</totfact>
</mgrwt>
</event>
<event>
 4    1  0.1352171E+004  0.2767124E+02  0.7546771E-02  0.1625355E+00
          2   -1    0    0  501    0  0.00000000000E+00  0.00000000000E+00  0.20047530062E+03  0.20047530062E+03  0.00000000000E+00 0. -1.
         -2   -1    0    0    0  501 -0.00000000000E+00 -0.00000000000E+00 -0.16136219590E+03  0.16136219590E+03  0.00000000000E+00 0. -1.
          2    1    1    2  502    0  0.24117140961E+02  0.13566908806E+02  0.19832132307E+03  0.20024246474E+03  0.00000000000E+00 0. -1.
         -2    1    1    2    0  502 -0.24117140961E+02 -0.13566908806E+02 -0.15920821835E+03  0.16159503177E+03  0.00000000000E+00 0. -1.
<mgrwt>
<rscale>  2 0.27671240E+02</rscale>
<asrwt>0</asrwt>
<pdfrwt beam="1">  1        2 0.30842354E-01 0.27671240E+02</pdfrwt>
<pdfrwt beam="2">  1       -2 0.24824953E-01 0.27671240E+02</pdfrwt>
<totfact> 0.21475698E+03</totfact>
</mgrwt>
</event>
<event>
 4    1  0.1352171E+004  0.2344733E+02  0.7546771E-02  0.1684360E+00
          2   -1    0    0  501    0  0.00000000000E+00  0.00000000000E+00  0.34485325758E+03  0.34485325758E+03  0.00000000000E+00 0.  1.
         -2   -1    0    0    0  501 -0.00000000000E+00 -0.00000000000E+00 -0.15983464169E+01  0.15983464169E+01  0.00000000000E+00 0.  1.
          2    1    1    2  502    0 -0.21891720695E+02 -0.83981827393E+01  0.16284112965E+03  0.16452054709E+03  0.00000000000E+00 0.  1.
         -2    1    1    2    0  502  0.21891720695E+02  0.83981827393E+01  0.18041378151E+03  0.18193105691E+03  0.00000000000E+00 0.  1.
<mgrwt>
<rscale>  2 0.23447334E+02</rscale>
<asrwt>0</asrwt>
<pdfrwt beam="1">  1        2 0.53054288E-01 0.23447334E+02</pdfrwt>
<pdfrwt beam="2">  1       -2 0.24589972E-03 0.23447334E+02</pdfrwt>
<totfact> 0.85002301E+05</totfact>
</mgrwt>
</event>
<event>
 4    1  0.1352171E+004  0.4880036E+02  0.7546771E-02  0.1451922E+00
         -2   -1    0    0    0  501 -0.00000000000E+00  0.00000000000E+00  0.15215291527E+01  0.15215291527E+01  0.00000000000E+00 0. -1.
          2   -1    0    0  501    0  0.00000000000E+00 -0.00000000000E+00 -0.19680281030E+04  0.19680281030E+04  0.00000000000E+00 0.  1.
          2    1    1    2  502    0  0.48785918610E+02  0.11870615324E+01 -0.14287957727E+04  0.14296289151E+04  0.00000000000E+00 0.  1.
         -2    1    1    2    0  502 -0.48785918610E+02 -0.11870615324E+01 -0.53771080113E+03  0.53992071698E+03  0.00000000000E+00 0. -1.
<mgrwt>
<rscale>  2 0.48800358E+02</rscale>
<asrwt>0</asrwt>
<pdfrwt beam="2">  1        2 0.30277328E+00 0.48800358E+02</pdfrwt>
<pdfrwt beam="1">  1       -2 0.23408162E-03 0.48800358E+02</pdfrwt>
<totfact> 0.11157500E+05</totfact>
</mgrwt>
</event>
<event>
 4    1  0.1352171E+004  0.2774640E+02  0.7546771E-02  0.1624424E+00
          2   -1    0    0  501    0  0.00000000000E+00  0.00000000000E+00  0.14110920567E+02  0.14110920567E+02  0.00000000000E+00 0.  1.
         -2   -1    0    0    0  501 -0.00000000000E+00 -0.00000000000E+00 -0.10445422296E+03  0.10445422296E+03  0.00000000000E+00 0.  1.
          2    1    1    2  502    0  0.27704304955E+02 -0.15278443893E+01 -0.41986183734E+01  0.28062273924E+02  0.00000000000E+00 0.  1.
         -2    1    1    2    0  502 -0.27704304955E+02  0.15278443893E+01 -0.86144684018E+02  0.90502869601E+02  0.00000000000E+00 0.  1.
<mgrwt>
<rscale>  2 0.27746402E+02</rscale>
<asrwt>0</asrwt>
<pdfrwt beam="1">  1        2 0.21709109E-02 0.27746402E+02</pdfrwt>
<pdfrwt beam="2">  1       -2 0.16069880E-01 0.27746402E+02</pdfrwt>
<totfact> 0.97398362E+04</totfact>
</mgrwt>
</event>
<event>
 4    1  0.1352171E+004  0.2097951E+02  0.7546771E-02  0.1726523E+00
          2   -1    0    0  501    0  0.00000000000E+00  0.00000000000E+00  0.37775785915E+03  0.37775785915E+03  0.00000000000E+00 0.  1.
         -2   -1    0    0    0  501 -0.00000000000E+00 -0.00000000000E+00 -0.14294485524E+01  0.14294485524E+01  0.00000000000E+00 0. -1.
          2    1    1    2  502    0  0.20977939974E+02  0.25651768562E+00  0.26969043708E+03  0.27050521552E+03  0.00000000000E+00 0.  1.
         -2    1    1    2    0  502 -0.20977939974E+02 -0.25651768562E+00  0.10663797351E+03  0.10868209219E+03  0.00000000000E+00 0. -1.
<mgrwt>
<rscale>  2 0.20979508E+02</rscale>
<asrwt>0</asrwt>
<pdfrwt beam="1">  1        2 0.58116514E-01 0.20979508E+02</pdfrwt>
<pdfrwt beam="2">  1       -2 0.21991546E-03 0.20979508E+02</pdfrwt>
<totfact> 0.86935794E+05</totfact>
</mgrwt>
</event>
<event>
 4    1  0.1352171E+004  0.2677263E+02  0.7546771E-02  0.1636773E+00
          2   -1    0    0  501    0  0.00000000000E+00  0.00000000000E+00  0.93662567653E+03  0.93662567653E+03  0.00000000000E+00 0.  1.
         -2   -1    0    0    0  501 -0.00000000000E+00 -0.00000000000E+00 -0.67931702791E+01  0.67931702791E+01  0.00000000000E+00 0. -1.
          2    1    1    2  502    0  0.14312313428E+02  0.22625900770E+02  0.90926222544E+03  0.90965629131E+03  0.00000000000E+00 0.  1.
         -2    1    1    2    0  502 -0.14312313428E+02 -0.22625900770E+02  0.20570280805E+02  0.33762555497E+02  0.00000000000E+00 0. -1.
<mgrwt>
<rscale>  2 0.26772630E+02</rscale>
<asrwt>0</asrwt>
<pdfrwt beam="1">  1        2 0.14409616E+00 0.26772630E+02</pdfrwt>
<pdfrwt beam="2">  1       -2 0.10451039E-02 0.26772630E+02</pdfrwt>
<totfact> 0.43589004E+04</totfact>
</mgrwt>
</event>
<event>
 4    1  0.1352171E+004  0.3085288E+02  0.7546771E-02  0.1588848E+00
          2   -1    0    0  501    0  0.00000000000E+00  0.00000000000E+00  0.11374640753E+04  0.11374640753E+04  0.00000000000E+00 0.  1.
         -2   -1    0    0    0  501 -0.00000000000E+00 -0.00000000000E+00 -0.86002619069E+00  0.86002619069E+00  0.00000000000E+00 0. -1.
          2    1    1    2  502    0 -0.13315369891E+02 -0.27831660574E+02  0.66171110979E+03  0.66242999119E+03  0.00000000000E+00 0.  1.
         -2    1    1    2    0  502  0.13315369891E+02  0.27831660574E+02  0.47489293934E+03  0.47589411033E+03  0.00000000000E+00 0. -1.
<mgrwt>
<rscale>  2 0.30852883E+02</rscale>
<asrwt>0</asrwt>
<pdfrwt beam="1">  1        2 0.17499327E+00 0.30852883E+02</pdfrwt>
<pdfrwt beam="2">  1       -2 0.13231263E-03 0.30852883E+02</pdfrwt>
<totfact> 0.56496773E+05</totfact>
</mgrwt>
</event>
<event>
 4    1  0.1352171E+004  0.3607329E+02  0.7546771E-02  0.1539271E+00
         -2   -1    0    0    0  501 -0.00000000000E+00  0.00000000000E+00  0.28533255821E+03  0.28533255821E+03  0.00000000000E+00 0.  1.
          2   -1    0    0  501    0  0.00000000000E+00 -0.00000000000E+00 -0.47037340298E+01  0.47037340298E+01  0.00000000000E+00 0.  1.
          2    1    1    2  502    0 -0.16189295592E+02 -0.32236430505E+02  0.16561375362E+03  0.16949689121E+03  0.00000000000E+00 0.  1.
         -2    1    1    2    0  502  0.16189295592E+02  0.32236430505E+02  0.11501507057E+03  0.12053940103E+03  0.00000000000E+00 0.  1.
<mgrwt>
<rscale>  2 0.36073287E+02</rscale>
<asrwt>0</asrwt>
<pdfrwt beam="2">  1        2 0.72365162E-03 0.36073287E+02</pdfrwt>
<pdfrwt beam="1">  1       -2 0.43897303E-01 0.36073287E+02</pdfrwt>
<totfact> 0.78985894E+04</totfact>
</mgrwt>
</event>
<event>
 4    1  0.1352171E+004  0.2492679E+02  0.7546771E-02  0.1662056E+00
         -2   -1    0    0    0  501 -0.00000000000E+00  0.00000000000E+00  0.60486204341E+01  0.60486204341E+01  0.00000000000E+00 0.  1.
          2   -1    0    0  501    0  0.00000000000E+00 -0.00000000000E+00 -0.18241566429E+03  0.18241566429E+03  0.00000000000E+00 0.  1.
          2    1    1    2  502    0  0.19799890840E+02  0.15142962266E+02 -0.15046680851E+03  0.15251755783E+03  0.00000000000E+00 0.  1.
         -2    1    1    2    0  502 -0.19799890840E+02 -0.15142962266E+02 -0.25900235350E+02  0.35946726897E+02  0.00000000000E+00 0.  1.
<mgrwt>
<rscale>  2 0.24926792E+02</rscale>
<asrwt>0</asrwt>
<pdfrwt beam="2">  1        2 0.28063946E-01 0.24926792E+02</pdfrwt>
<pdfrwt beam="1">  1       -2 0.93055707E-03 0.24926792E+02</pdfrwt>
<totfact> 0.27407510E+05</totfact>
</mgrwt>
</event>
<event>
 4    1  0.1352171E+004  0.2574492E+02  0.7546771E-02  0.1650527E+00
          2   -1    0    0  501    0  0.00000000000E+00  0.00000000000E+00  0.23969050952E+03  0.23969050952E+03  0.00000000000E+00 0.  1.
         -2   -1    0    0    0  501 -0.00000000000E+00 -0.00000000000E+00 -0.32125951155E+01  0.32125951155E+01  0.00000000000E+00 0. -1.
          2    1    1    2  502    0  0.25033338549E+02  0.60110593477E+01  0.16356033683E+03  0.16557410624E+03  0.00000000000E+00 0.  1.
         -2    1    1    2    0  502 -0.25033338549E+02 -0.60110593477E+01  0.72917577572E+02  0.77328998392E+02  0.00000000000E+00 0. -1.
<mgrwt>
<rscale>  2 0.25744919E+02</rscale>
<asrwt>0</asrwt>
<pdfrwt beam="1">  1        2 0.36875449E-01 0.25744919E+02</pdfrwt>
<pdfrwt beam="2">  1       -2 0.49424559E-03 0.25744919E+02</pdfrwt>
<totfact> 0.49297104E+05</totfact>
</mgrwt>
</event>
<event>
 4    1  0.1403098E+004  0.2011068E+02  0.7546771E-02  0.1743136E+00
         -2   -1    0    0    0  501 -0.00000000000E+00  0.00000000000E+00  0.11129998956E+03  0.11129998956E+03  0.00000000000E+00 0. -1.
          2   -1    0    0  501    0  0.00000000000E+00 -0.00000000000E+00 -0.11241834961E+04  0.11241834961E+04  0.00000000000E+00 0. -1.
          2    1    1    2  502    0 -0.15957636073E+02 -0.12239006452E+02 -0.11231843029E+04  0.11233643299E+04  0.00000000000E+00 0. -1.
         -2    1    1    2    0  502  0.15957636073E+02  0.12239006452E+02  0.11030079632E+03  0.11211915580E+03  0.00000000000E+00 0. -1.
<mgrwt>
<rscale>  2 0.20110679E+02</rscale>
<asrwt>0</asrwt>
<pdfrwt beam="2">  1        2 0.17295131E+00 0.20110679E+02</pdfrwt>
<pdfrwt beam="1">  1       -2 0.17123075E-01 0.20110679E+02</pdfrwt>
<totfact> 0.62228024E+02</totfact>
</mgrwt>
</event>
<event>
 4    1  0.1352171E+004  0.2230409E+02  0.7546771E-02  0.1703045E+00
          2   -1    0    0  501    0  0.00000000000E+00  0.00000000000E+00  0.13616183047E+04  0.13616183047E+04  0.00000000000E+00 0. -1.
         -2   -1    0    0    0  501 -0.00000000000E+00 -0.00000000000E+00 -0.68773857198E+00  0.68773857198E+00  0.00000000000E+00 0.  1.
          2    1    1    2  502    0  0.22303375623E+02  0.17912474532E+00  0.11468240477E+04  0.11470409186E+04  0.00000000000E+00 0. -1.
         -2    1    1    2    0  502 -0.22303375623E+02 -0.17912474532E+00  0.21410651847E+03  0.21526512468E+03  0.00000000000E+00 0.  1.
<mgrwt>
<rscale>  2 0.22304095E+02</rscale>
<asrwt>0</asrwt>
<pdfrwt beam="1">  1        2 0.20947758E+00 0.22304095E+02</pdfrwt>
<pdfrwt beam="2">  1       -2 0.10580702E-03 0.22304095E+02</pdfrwt>
<totfact> 0.54003803E+05</totfact>
</mgrwt>
</event>
<event>
 4    1  0.1352171E+004  0.5147680E+02  0.7546771E-02  0.1437535E+00
         -2   -1    0    0    0  501 -0.00000000000E+00  0.00000000000E+00  0.62784894217E+01  0.62784894217E+01  0.00000000000E+00 0.  1.
          2   -1    0    0  501    0  0.00000000000E+00 -0.00000000000E+00 -0.10109909650E+04  0.10109909650E+04  0.00000000000E+00 0. -1.
          2    1    1    2  502    0  0.37983794276E+02  0.34743238444E+02 -0.89056630858E+03  0.89205280742E+03  0.00000000000E+00 0. -1.
         -2    1    1    2    0  502 -0.37983794276E+02 -0.34743238444E+02 -0.11414616695E+03  0.12521664695E+03  0.00000000000E+00 0.  1.
<mgrwt>
<rscale>  2 0.51476803E+02</rscale>
<asrwt>0</asrwt>
<pdfrwt beam="2">  1        2 0.15553716E+00 0.51476803E+02</pdfrwt>
<pdfrwt beam="1">  1       -2 0.96592088E-03 0.51476803E+02</pdfrwt>
<totfact> 0.48670220E+04</totfact>
</mgrwt>
</event>
<event>
 4    1  0.1352171E+004  0.2542662E+02  0.7546771E-02  0.1654949E+00
          2   -1    0    0  501    0  0.00000000000E+00  0.00000000000E+00  0.69015049639E+03  0.69015049639E+03  0.00000000000E+00 0. -1.
         -2   -1    0    0    0  501 -0.00000000000E+00 -0.00000000000E+00 -0.50803309719E+01  0.50803309719E+01  0.00000000000E+00 0.  1.
          2    1    1    2  502    0  0.52511477425E+01  0.24878473274E+02  0.65647015388E+03  0.65696238547E+03  0.00000000000E+00 0. -1.
         -2    1    1    2    0  502 -0.52511477425E+01 -0.24878473274E+02  0.28600011541E+02  0.38268441897E+02  0.00000000000E+00 0.  1.
<mgrwt>
<rscale>  2 0.25426620E+02</rscale>
<asrwt>0</asrwt>
<pdfrwt beam="1">  1        2 0.10617692E+00 0.25426620E+02</pdfrwt>
<pdfrwt beam="2">  1       -2 0.78158993E-03 0.25426620E+02</pdfrwt>
<totfact> 0.90884948E+04</totfact>
</mgrwt>
</event>
<event>
 4    1  0.1352171E+004  0.2160661E+02  0.7546771E-02  0.1715146E+00
         -2   -1    0    0    0  501 -0.00000000000E+00  0.00000000000E+00  0.52040569436E+00  0.52040569436E+00  0.00000000000E+00 0.  1.
          2   -1    0    0  501    0  0.00000000000E+00 -0.00000000000E+00 -0.91141409619E+03  0.91141409619E+03  0.00000000000E+00 0.  1.
          2    1    1    2  502    0  0.10653551146E+02 -0.18797542316E+02 -0.51262825499E+03  0.51308339825E+03  0.00000000000E+00 0.  1.
         -2    1    1    2    0  502 -0.10653551146E+02  0.18797542316E+02 -0.39826543551E+03  0.39885110363E+03  0.00000000000E+00 0.  1.
<mgrwt>
<rscale>  2 0.21606614E+02</rscale>
<asrwt>0</asrwt>
<pdfrwt beam="2">  1        2 0.14021794E+00 0.21606614E+02</pdfrwt>
<pdfrwt beam="1">  1       -2 0.80062192E-04 0.21606614E+02</pdfrwt>
<totfact> 0.13151026E+06</totfact>
</mgrwt>
</event>
<event>
 4    1  0.1352171E+004  0.2015243E+02  0.7546771E-02  0.1742314E+00
         -2   -1    0    0    0  501 -0.00000000000E+00  0.00000000000E+00  0.94314776541E+01  0.94314776541E+01  0.00000000000E+00 0.  1.
          2   -1    0    0  501    0  0.00000000000E+00 -0.00000000000E+00 -0.14379661985E+04  0.14379661985E+04  0.00000000000E+00 0.  1.
          2    1    1    2  502    0  0.13653300469E+02  0.14822542798E+02 -0.14270482099E+04  0.14271904967E+04  0.00000000000E+00 0.  1.
         -2    1    1    2    0  502 -0.13653300469E+02 -0.14822542798E+02 -0.14865109606E+01  0.20207179505E+02  0.00000000000E+00 0.  1.
<mgrwt>
<rscale>  2 0.20152429E+02</rscale>
<asrwt>0</asrwt>
<pdfrwt beam="2">  1        2 0.22122544E+00 0.20152429E+02</pdfrwt>
<pdfrwt beam="1">  1       -2 0.14509974E-02 0.20152429E+02</pdfrwt>
<totfact> 0.14881449E+04</totfact>
</mgrwt>
</event>
<event>
 4    1  0.1352171E+004  0.3009843E+02  0.7546771E-02  0.1597003E+00
          2   -1    0    0  501    0  0.00000000000E+00  0.00000000000E+00  0.15652126829E+03  0.15652126829E+03  0.00000000000E+00 0. -1.
         -2   -1    0    0    0  501 -0.00000000000E+00 -0.00000000000E+00 -0.24974080175E+03  0.24974080175E+03  0.00000000000E+00 0.  1.
          2    1    1    2  502    0 -0.24563116815E+02 -0.17394512034E+02  0.15415366128E+03  0.15706453146E+03  0.00000000000E+00 0. -1.
         -2    1    1    2    0  502  0.24563116815E+02  0.17394512034E+02 -0.24737319474E+03  0.24919753858E+03  0.00000000000E+00 0.  1.
<mgrwt>
<rscale>  2 0.30098434E+02</rscale>
<asrwt>0</asrwt>
<pdfrwt beam="1">  1        2 0.24080195E-01 0.30098434E+02</pdfrwt>
<pdfrwt beam="2">  1       -2 0.38421661E-01 0.30098434E+02</pdfrwt>
<totfact> 0.13061339E+03</totfact>
</mgrwt>
</event>
<event>
 4    1  0.1352171E+004  0.2184424E+02  0.7546771E-02  0.1710960E+00
         -2   -1    0    0    0  501 -0.00000000000E+00  0.00000000000E+00  0.29620161251E+01  0.29620161251E+01  0.00000000000E+00 0.  1.
          2   -1    0    0  501    0  0.00000000000E+00 -0.00000000000E+00 -0.16113662184E+03  0.16113662184E+03  0.00000000000E+00 0.  1.
          2    1    1    2  502    0  0.21315188057E+02 -0.47784535946E+01 -0.80379656096E+02  0.83295017707E+02  0.00000000000E+00 0.  1.
         -2    1    1    2    0  502 -0.21315188057E+02  0.47784535946E+01 -0.77794949616E+02  0.80803620256E+02  0.00000000000E+00 0.  1.
<mgrwt>
<rscale>  2 0.21844241E+02</rscale>
<asrwt>0</asrwt>
<pdfrwt beam="2">  1        2 0.24790251E-01 0.21844241E+02</pdfrwt>
<pdfrwt beam="1">  1       -2 0.45569476E-03 0.21844241E+02</pdfrwt>
<totfact> 0.78142708E+05</totfact>
</mgrwt>
</event>
<event>
 4    1  0.1352171E+004  0.2300965E+02  0.7546771E-02  0.1691354E+00
          2   -1    0    0  501    0  0.00000000000E+00  0.00000000000E+00  0.67271903017E+02  0.67271903017E+02  0.00000000000E+00 0.  1.
         -2   -1    0    0    0  501 -0.00000000000E+00 -0.00000000000E+00 -0.19680584695E+02  0.19680584695E+02  0.00000000000E+00 0. -1.
          2    1    1    2  502    0  0.86910337977E+01  0.21305163276E+02  0.57475097703E+02  0.61909861142E+02  0.00000000000E+00 0.  1.
         -2    1    1    2    0  502 -0.86910337977E+01 -0.21305163276E+02 -0.98837793813E+01  0.25042626570E+02  0.00000000000E+00 0. -1.
<mgrwt>
<rscale>  2 0.23009651E+02</rscale>
<asrwt>0</asrwt>
<pdfrwt beam="1">  1        2 0.10349523E-01 0.23009651E+02</pdfrwt>
<pdfrwt beam="2">  1       -2 0.30277823E-02 0.23009651E+02</pdfrwt>
<totfact> 0.15697965E+05</totfact>
</mgrwt>
</event>
<event>
 4    1  0.1352171E+004  0.2557239E+02  0.7546771E-02  0.1652914E+00
         -2   -1    0    0    0  501 -0.00000000000E+00  0.00000000000E+00  0.52388531256E+01  0.52388531256E+01  0.00000000000E+00 0.  1.
          2   -1    0    0  501    0  0.00000000000E+00 -0.00000000000E+00 -0.12200364158E+04  0.12200364158E+04  0.00000000000E+00 0. -1.
          2    1    1    2  502    0  0.53325904861E+01 -0.25010210222E+02 -0.11878503379E+04  0.11881255709E+04  0.00000000000E+00 0. -1.
         -2    1    1    2    0  502 -0.53325904861E+01  0.25010210222E+02 -0.26947224836E+02  0.37149698020E+02  0.00000000000E+00 0.  1.
<mgrwt>
<rscale>  2 0.25572390E+02</rscale>
<asrwt>0</asrwt>
<pdfrwt beam="2">  1        2 0.18769804E+00 0.25572390E+02</pdfrwt>
<pdfrwt beam="1">  1       -2 0.80597684E-03 0.25572390E+02</pdfrwt>
<totfact> 0.43556948E+04</totfact>
</mgrwt>
</event>
<event>
 4    1  0.1352171E+004  0.3013100E+02  0.7546771E-02  0.1596645E+00
         -2   -1    0    0    0  501 -0.00000000000E+00  0.00000000000E+00  0.28373358375E+01  0.28373358375E+01  0.00000000000E+00 0. -1.
          2   -1    0    0  501    0  0.00000000000E+00 -0.00000000000E+00 -0.49972773604E+03  0.49972773604E+03  0.00000000000E+00 0.  1.
          2    1    1    2  502    0 -0.23209378588E+02  0.19214620341E+02 -0.39915211615E+03  0.40028775739E+03  0.00000000000E+00 0.  1.
         -2    1    1    2    0  502  0.23209378588E+02 -0.19214620341E+02 -0.97738284054E+02  0.10227731449E+03  0.00000000000E+00 0. -1.
<mgrwt>
<rscale>  2 0.30130995E+02</rscale>
<asrwt>0</asrwt>
<pdfrwt beam="2">  1        2 0.76881173E-01 0.30130995E+02</pdfrwt>
<pdfrwt beam="1">  1       -2 0.43651330E-03 0.30130995E+02</pdfrwt>
<totfact> 0.29158564E+05</totfact>
</mgrwt>
</event>
<event>
 4    1  0.1352171E+004  0.2454504E+02  0.7546771E-02  0.1667624E+00
         -2   -1    0    0    0  501 -0.00000000000E+00  0.00000000000E+00  0.56388592232E+01  0.56388592232E+01  0.00000000000E+00 0. -1.
          2   -1    0    0  501    0  0.00000000000E+00 -0.00000000000E+00 -0.38663293501E+03  0.38663293501E+03  0.00000000000E+00 0. -1.
          2    1    1    2  502    0  0.25217216200E+01 -0.24415153192E+02 -0.35734680820E+03  0.35818877721E+03  0.00000000000E+00 0. -1.
         -2    1    1    2    0  502 -0.25217216200E+01  0.24415153192E+02 -0.23647267584E+02  0.34083017025E+02  0.00000000000E+00 0. -1.
<mgrwt>
<rscale>  2 0.24545036E+02</rscale>
<asrwt>0</asrwt>
<pdfrwt beam="2">  1        2 0.59482011E-01 0.24545036E+02</pdfrwt>
<pdfrwt beam="1">  1       -2 0.86751650E-03 0.24545036E+02</pdfrwt>
<totfact> 0.14189442E+05</totfact>
</mgrwt>
</event>
<event>
 4    1  0.1352171E+004  0.4601890E+02  0.7546771E-02  0.1468079E+00
         -2   -1    0    0    0  501 -0.00000000000E+00  0.00000000000E+00  0.70240017792E+01  0.70240017792E+01  0.00000000000E+00 0.  1.
          2   -1    0    0  501    0  0.00000000000E+00 -0.00000000000E+00 -0.72626140215E+03  0.72626140215E+03  0.00000000000E+00 0.  1.
          2    1    1    2  502    0  0.43740367839E+02 -0.14300941581E+02 -0.79224469662E+02  0.91620157728E+02  0.00000000000E+00 0.  1.
         -2    1    1    2    0  502 -0.43740367839E+02  0.14300941581E+02 -0.64001293071E+03  0.64166524620E+03  0.00000000000E+00 0.  1.
<mgrwt>
<rscale>  2 0.46018896E+02</rscale>
<asrwt>0</asrwt>
<pdfrwt beam="2">  1        2 0.11173247E+00 0.46018896E+02</pdfrwt>
<pdfrwt beam="1">  1       -2 0.10806162E-02 0.46018896E+02</pdfrwt>
<totfact> 0.61354282E+04</totfact>
</mgrwt>
</event>
<event>
 4    1  0.1352171E+004  0.2015961E+02  0.7546771E-02  0.1742173E+00
         -2   -1    0    0    0  501 -0.00000000000E+00  0.00000000000E+00  0.11197897511E+02  0.11197897511E+02  0.00000000000E+00 0.  1.
          2   -1    0    0  501    0  0.00000000000E+00 -0.00000000000E+00 -0.15204197182E+03  0.15204197182E+03  0.00000000000E+00 0. -1.
          2    1    1    2  502    0 -0.18108675684E+02 -0.88592114663E+01 -0.14163717487E+03  0.14306466744E+03  0.00000000000E+00 0. -1.
         -2    1    1    2    0  502  0.18108675684E+02  0.88592114663E+01  0.79310056663E+00  0.20175201891E+02  0.00000000000E+00 0.  1.
<mgrwt>
<rscale>  2 0.20159607E+02</rscale>
<asrwt>0</asrwt>
<pdfrwt beam="2">  1        2 0.23391073E-01 0.20159607E+02</pdfrwt>
<pdfrwt beam="1">  1       -2 0.17227534E-02 0.20159607E+02</pdfrwt>
<totfact> 0.13534818E+05</totfact>
</mgrwt>
</event>
<event>
 4    1  0.1352171E+004  0.2643111E+02  0.7546771E-02  0.1641258E+00
         -2   -1    0    0    0  501 -0.00000000000E+00  0.00000000000E+00  0.20228838755E+03  0.20228838755E+03  0.00000000000E+00 0. -1.
          2   -1    0    0  501    0  0.00000000000E+00 -0.00000000000E+00 -0.79113237151E+01  0.79113237151E+01  0.00000000000E+00 0. -1.
          2    1    1    2  502    0 -0.20739093842E+02  0.16385765380E+02  0.18295454542E+02  0.32145403674E+02  0.00000000000E+00 0. -1.
         -2    1    1    2    0  502  0.20739093842E+02 -0.16385765380E+02  0.17608160930E+03  0.17805430760E+03  0.00000000000E+00 0. -1.
<mgrwt>
<rscale>  2 0.26431105E+02</rscale>
<asrwt>0</asrwt>
<pdfrwt beam="2">  1        2 0.12171269E-02 0.26431105E+02</pdfrwt>
<pdfrwt beam="1">  1       -2 0.31121287E-01 0.26431105E+02</pdfrwt>
<totfact> 0.68565760E+04</totfact>
</mgrwt>
</event>
<event>
 4    1  0.1352171E+004  0.2305895E+02  0.7546771E-02  0.1690556E+00
          2   -1    0    0  501    0  0.00000000000E+00  0.00000000000E+00  0.90924492931E+03  0.90924492931E+03  0.00000000000E+00 0. -1.
         -2   -1    0    0    0  501 -0.00000000000E+00 -0.00000000000E+00 -0.20333514889E+01  0.20333514889E+01  0.00000000000E+00 0. -1.
          2    1    1    2  502    0 -0.55889917850E+01  0.22371376359E+02  0.83818304587E+03  0.83850016916E+03  0.00000000000E+00 0. -1.
         -2    1    1    2    0  502  0.55889917850E+01 -0.22371376359E+02  0.69028531953E+02  0.72778111633E+02  0.00000000000E+00 0. -1.
<mgrwt>
<rscale>  2 0.23058953E+02</rscale>
<asrwt>0</asrwt>
<pdfrwt beam="1">  1        2 0.13988351E+00 0.23058953E+02</pdfrwt>
<pdfrwt beam="2">  1       -2 0.31282403E-03 0.23058953E+02</pdfrwt>
<totfact> 0.22214259E+05</totfact>
</mgrwt>
</event>
<event>
 4    1  0.1352171E+004  0.2101066E+02  0.7546771E-02  0.1725946E+00
         -2   -1    0    0    0  501 -0.00000000000E+00  0.00000000000E+00  0.12368909663E+04  0.12368909663E+04  0.00000000000E+00 0.  1.
          2   -1    0    0  501    0  0.00000000000E+00 -0.00000000000E+00 -0.34722339602E+01  0.34722339602E+01  0.00000000000E+00 0.  1.
          2    1    1    2  502    0 -0.79407346761E+01  0.19452313775E+02  0.29265175665E+02  0.36026355423E+02  0.00000000000E+00 0.  1.
         -2    1    1    2    0  502  0.79407346761E+01 -0.19452313775E+02  0.12041535567E+04  0.12043368448E+04  0.00000000000E+00 0.  1.
<mgrwt>
<rscale>  2 0.21010659E+02</rscale>
<asrwt>0</asrwt>
<pdfrwt beam="2">  1        2 0.53419083E-03 0.21010659E+02</pdfrwt>
<pdfrwt beam="1">  1       -2 0.19029057E+00 0.21010659E+02</pdfrwt>
<totfact> 0.41445913E+03</totfact>
</mgrwt>
</event>
<event>
 4    1  0.1352171E+004  0.3072392E+02  0.7546771E-02  0.1590222E+00
         -2   -1    0    0    0  501 -0.00000000000E+00  0.00000000000E+00  0.15850677684E+02  0.15850677684E+02  0.00000000000E+00 0.  1.
          2   -1    0    0  501    0  0.00000000000E+00 -0.00000000000E+00 -0.68346276653E+03  0.68346276653E+03  0.00000000000E+00 0.  1.
          2    1    1    2  502    0  0.82369737815E+01  0.29599177266E+02 -0.66788203457E+03  0.66858834205E+03  0.00000000000E+00 0.  1.
         -2    1    1    2    0  502 -0.82369737815E+01 -0.29599177266E+02  0.26994572465E+00  0.30725102158E+02  0.00000000000E+00 0.  1.
<mgrwt>
<rscale>  2 0.30723916E+02</rscale>
<asrwt>0</asrwt>
<pdfrwt beam="2">  1        2 0.10514812E+00 0.30723916E+02</pdfrwt>
<pdfrwt beam="1">  1       -2 0.24385658E-02 0.30723916E+02</pdfrwt>
<totfact> 0.19937160E+04</totfact>
</mgrwt>
</event>
<event>
 4    1  0.1352171E+004  0.2132463E+02  0.7546771E-02  0.1720201E+00
          2   -1    0    0  501    0  0.00000000000E+00  0.00000000000E+00  0.19285285583E+03  0.19285285583E+03  0.00000000000E+00 0. -1.
         -2   -1    0    0    0  501 -0.00000000000E+00 -0.00000000000E+00 -0.23761992155E+01  0.23761992155E+01  0.00000000000E+00 0.  1.
          2    1    1    2  502    0 -0.20510677645E+02 -0.58353712457E+01  0.86686326778E+02  0.89270704631E+02  0.00000000000E+00 0. -1.
         -2    1    1    2    0  502  0.20510677645E+02  0.58353712457E+01  0.10379032984E+03  0.10595835042E+03  0.00000000000E+00 0.  1.
<mgrwt>
<rscale>  2 0.21324632E+02</rscale>
<asrwt>0</asrwt>
<pdfrwt beam="1">  1        2 0.29669658E-01 0.21324632E+02</pdfrwt>
<pdfrwt beam="2">  1       -2 0.36556926E-03 0.21324632E+02</pdfrwt>
<totfact> 0.86578315E+05</totfact>
</mgrwt>
</event>
<event>
 4    1  0.1352171E+004  0.2428330E+02  0.7546771E-02  0.1671515E+00
         -2   -1    0    0    0  501 -0.00000000000E+00  0.00000000000E+00  0.55218463970E+01  0.55218463970E+01  0.00000000000E+00 0. -1.
          2   -1    0    0  501    0  0.00000000000E+00 -0.00000000000E+00 -0.22176902309E+03  0.22176902309E+03  0.00000000000E+00 0. -1.
          2    1    1    2  502    0 -0.21083042770E+02 -0.12049231681E+02 -0.18995322457E+03  0.19149910235E+03  0.00000000000E+00 0. -1.
         -2    1    1    2    0  502  0.21083042770E+02  0.12049231681E+02 -0.26293952124E+02  0.35791767138E+02  0.00000000000E+00 0. -1.
<mgrwt>
<rscale>  2 0.24283300E+02</rscale>
<asrwt>0</asrwt>
<pdfrwt beam="2">  1        2 0.34118313E-01 0.24283300E+02</pdfrwt>
<pdfrwt beam="1">  1       -2 0.84951479E-03 0.24283300E+02</pdfrwt>
<totfact> 0.25260286E+05</totfact>
</mgrwt>
</event>
<event>
 4    1  0.1352171E+004  0.2024337E+02  0.7546771E-02  0.1740531E+00
         -2   -1    0    0    0  501 -0.00000000000E+00  0.00000000000E+00  0.14980878753E+03  0.14980878753E+03  0.00000000000E+00 0.  1.
          2   -1    0    0  501    0  0.00000000000E+00 -0.00000000000E+00 -0.95065006812E+01  0.95065006812E+01  0.00000000000E+00 0. -1.
          2    1    1    2  502    0 -0.20225630213E+02  0.84740329695E+00  0.29239161939E+01  0.20453447039E+02  0.00000000000E+00 0. -1.
         -2    1    1    2    0  502  0.20225630213E+02 -0.84740329695E+00  0.13737837066E+03  0.13886184118E+03  0.00000000000E+00 0.  1.
<mgrwt>
<rscale>  2 0.20243374E+02</rscale>
<asrwt>0</asrwt>
<pdfrwt beam="2">  1        2 0.14625387E-02 0.20243374E+02</pdfrwt>
<pdfrwt beam="1">  1       -2 0.23047504E-01 0.20243374E+02</pdfrwt>
<totfact> 0.83654439E+04</totfact>
</mgrwt>
</event>
<event>
 4    1  0.1352171E+004  0.3178105E+02  0.7546771E-02  0.1579197E+00
          2   -1    0    0  501    0  0.00000000000E+00  0.00000000000E+00  0.45943495666E+02  0.45943495666E+02  0.00000000000E+00 0.  1.
         -2   -1    0    0    0  501 -0.00000000000E+00 -0.00000000000E+00 -0.27978720267E+02  0.27978720267E+02  0.00000000000E+00 0.  1.
          2    1    1    2  502    0  0.30946058353E+02  0.72371772702E+01  0.26090611070E+02  0.41118794346E+02  0.00000000000E+00 0.  1.
         -2    1    1    2    0  502 -0.30946058353E+02 -0.72371772702E+01 -0.81258356712E+01  0.32803421587E+02  0.00000000000E+00 0.  1.
<mgrwt>
<rscale>  2 0.31781052E+02</rscale>
<asrwt>0</asrwt>
<pdfrwt beam="1">  1        2 0.70682301E-02 0.31781052E+02</pdfrwt>
<pdfrwt beam="2">  1       -2 0.43044185E-02 0.31781052E+02</pdfrwt>
<totfact> 0.16260557E+05</totfact>
</mgrwt>
</event>
<event>
 4    1  0.1352171E+004  0.2126117E+02  0.7546771E-02  0.1721352E+00
         -2   -1    0    0    0  501 -0.00000000000E+00  0.00000000000E+00  0.15401659039E+03  0.15401659039E+03  0.00000000000E+00 0. -1.
          2   -1    0    0  501    0  0.00000000000E+00 -0.00000000000E+00 -0.82864674142E+02  0.82864674142E+02  0.00000000000E+00 0.  1.
          2    1    1    2  502    0  0.19453084381E+02  0.85799037372E+01 -0.80748235468E+02  0.83500387851E+02  0.00000000000E+00 0.  1.
         -2    1    1    2    0  502 -0.19453084381E+02 -0.85799037372E+01  0.15190015171E+03  0.15338087668E+03  0.00000000000E+00 0. -1.
<mgrwt>
<rscale>  2 0.21261167E+02</rscale>
<asrwt>0</asrwt>
<pdfrwt beam="2">  1        2 0.12748411E-01 0.21261167E+02</pdfrwt>
<pdfrwt beam="1">  1       -2 0.23694860E-01 0.21261167E+02</pdfrwt>
<totfact> 0.57608351E+03</totfact>
</mgrwt>
</event>
<event>
 4    1  0.1352171E+004  0.2243444E+02  0.7546771E-02  0.1700845E+00
         -2   -1    0    0    0  501 -0.00000000000E+00  0.00000000000E+00  0.17215140064E+02  0.17215140064E+02  0.00000000000E+00 0.  1.
          2   -1    0    0  501    0  0.00000000000E+00 -0.00000000000E+00 -0.47533738544E+03  0.47533738544E+03  0.00000000000E+00 0. -1.
          2    1    1    2  502    0 -0.86595870178E+01  0.20695784219E+02 -0.46764346320E+03  0.46818128178E+03  0.00000000000E+00 0. -1.
         -2    1    1    2    0  502  0.86595870178E+01 -0.20695784219E+02  0.95212178272E+01  0.24371243724E+02  0.00000000000E+00 0.  1.
<mgrwt>
<rscale>  2 0.22434436E+02</rscale>
<asrwt>0</asrwt>
<pdfrwt beam="2">  1        2 0.73128830E-01 0.22434436E+02</pdfrwt>
<pdfrwt beam="1">  1       -2 0.26484830E-02 0.22434436E+02</pdfrwt>
<totfact> 0.24705691E+04</totfact>
</mgrwt>
</event>
<event>
 4    1  0.1352171E+004  0.2467899E+02  0.7546771E-02  0.1665656E+00
          2   -1    0    0  501    0  0.00000000000E+00  0.00000000000E+00  0.10061296239E+04  0.10061296239E+04  0.00000000000E+00 0.  1.
         -2   -1    0    0    0  501 -0.00000000000E+00 -0.00000000000E+00 -0.17509513583E+01  0.17509513583E+01  0.00000000000E+00 0.  1.
          2    1    1    2  502    0  0.12718020347E+02 -0.21149574179E+02  0.90981386814E+03  0.91014851930E+03  0.00000000000E+00 0.  1.
         -2    1    1    2    0  502 -0.12718020347E+02  0.21149574179E+02  0.94564804365E+02  0.97732055918E+02  0.00000000000E+00 0.  1.
<mgrwt>
<rscale>  2 0.24678990E+02</rscale>
<asrwt>0</asrwt>
<pdfrwt beam="1">  1        2 0.15478871E+00 0.24678990E+02</pdfrwt>
<pdfrwt beam="2">  1       -2 0.26937794E-03 0.24678990E+02</pdfrwt>
<totfact> 0.24347698E+05</totfact>
</mgrwt>
</event>
<event>
 4    1  0.1352171E+004  0.4171222E+02  0.7546771E-02  0.1495977E+00
         -2   -1    0    0    0  501 -0.00000000000E+00  0.00000000000E+00  0.12196662955E+02  0.12196662955E+02  0.00000000000E+00 0. -1.
          2   -1    0    0  501    0  0.00000000000E+00 -0.00000000000E+00 -0.27094214714E+04  0.27094214714E+04  0.00000000000E+00 0. -1.
          2    1    1    2  502    0 -0.37284469783E+02  0.18702341354E+02 -0.26731129104E+04  0.26734383369E+04  0.00000000000E+00 0. -1.
         -2    1    1    2    0  502  0.37284469783E+02 -0.18702341354E+02 -0.24111898047E+02  0.48179797494E+02  0.00000000000E+00 0. -1.
<mgrwt>
<rscale>  2 0.41712220E+02</rscale>
<asrwt>0</asrwt>
<pdfrwt beam="2">  1        2 0.41683426E+00 0.41712220E+02</pdfrwt>
<pdfrwt beam="1">  1       -2 0.18764088E-02 0.41712220E+02</pdfrwt>
<totfact> 0.26655933E+03</totfact>
</mgrwt>
</event>
<event>
 4    1  0.1352171E+004  0.2125375E+02  0.7546771E-02  0.1721487E+00
         -2   -1    0    0    0  501 -0.00000000000E+00  0.00000000000E+00  0.13547871667E+02  0.13547871667E+02  0.00000000000E+00 0.  1.
          2   -1    0    0  501    0  0.00000000000E+00 -0.00000000000E+00 -0.33394223821E+02  0.33394223821E+02  0.00000000000E+00 0.  1.
          2    1    1    2  502    0  0.19995994558E+02  0.72028879408E+01 -0.90004296606E+01  0.23080925613E+02  0.00000000000E+00 0.  1.
         -2    1    1    2    0  502 -0.19995994558E+02 -0.72028879408E+01 -0.10845922494E+02  0.23861169875E+02  0.00000000000E+00 0.  1.
<mgrwt>
<rscale>  2 0.21253749E+02</rscale>
<asrwt>0</asrwt>
<pdfrwt beam="2">  1        2 0.51375728E-02 0.21253749E+02</pdfrwt>
<pdfrwt beam="1">  1       -2 0.20842880E-02 0.21253749E+02</pdfrwt>
<totfact> 0.58781351E+05</totfact>
</mgrwt>
</event>
<event>
 4    1  0.1352171E+004  0.3214207E+02  0.7546771E-02  0.1575550E+00
          2   -1    0    0  501    0  0.00000000000E+00  0.00000000000E+00  0.10941593970E+02  0.10941593970E+02  0.00000000000E+00 0. -1.
         -2   -1    0    0    0  501 -0.00000000000E+00 -0.00000000000E+00 -0.11937188957E+03  0.11937188957E+03  0.00000000000E+00 0.  1.
          2    1    1    2  502    0 -0.42065734628E+01  0.31865619715E+02 -0.24426284062E+02  0.40370240688E+02  0.00000000000E+00 0. -1.
         -2    1    1    2    0  502  0.42065734628E+01 -0.31865619715E+02 -0.84004011542E+02  0.89943242855E+02  0.00000000000E+00 0.  1.
<mgrwt>
<rscale>  2 0.32142075E+02</rscale>
<asrwt>0</asrwt>
<pdfrwt beam="1">  1        2 0.16833222E-02 0.32142075E+02</pdfrwt>
<pdfrwt beam="2">  1       -2 0.18364906E-01 0.32142075E+02</pdfrwt>
<totfact> 0.11353435E+05</totfact>
</mgrwt>
</event>
<event>
 4    1  0.1352171E+004  0.3044261E+02  0.7546771E-02  0.1593247E+00
          2   -1    0    0  501    0  0.00000000000E+00  0.00000000000E+00  0.13458009705E+03  0.13458009705E+03  0.00000000000E+00 0. -1.
         -2   -1    0    0    0  501 -0.00000000000E+00 -0.00000000000E+00 -0.13101774265E+02  0.13101774265E+02  0.00000000000E+00 0.  1.
          2    1    1    2  502    0 -0.20232108749E+02  0.22746746564E+02  0.11159852076E+03  0.11567619694E+03  0.00000000000E+00 0. -1.
         -2    1    1    2    0  502  0.20232108749E+02 -0.22746746564E+02  0.98798020222E+01  0.32005674367E+02  0.00000000000E+00 0.  1.
<mgrwt>
<rscale>  2 0.30442613E+02</rscale>
<asrwt>0</asrwt>
<pdfrwt beam="1">  1        2 0.20704629E-01 0.30442613E+02</pdfrwt>
<pdfrwt beam="2">  1       -2 0.20156577E-02 0.30442613E+02</pdfrwt>
<totfact> 0.13736335E+05</totfact>
</mgrwt>
</event>
<event>
 4    1  0.1352171E+004  0.2218713E+02  0.7546771E-02  0.1705036E+00
          2   -1    0    0  501    0  0.00000000000E+00  0.00000000000E+00  0.52011000938E+02  0.52011000938E+02  0.00000000000E+00 0. -1.
         -2   -1    0    0    0  501 -0.00000000000E+00 -0.00000000000E+00 -0.74272855053E+02  0.74272855053E+02  0.00000000000E+00 0. -1.
          2    1    1    2  502    0  0.20972328783E+02  0.72408723442E+01  0.47850814254E+02  0.52744376304E+02  0.00000000000E+00 0. -1.
         -2    1    1    2    0  502 -0.20972328783E+02 -0.72408723442E+01 -0.70112668369E+02  0.73539479687E+02  0.00000000000E+00 0. -1.
<mgrwt>
<rscale>  2 0.22187132E+02</rscale>
<asrwt>0</asrwt>
<pdfrwt beam="1">  1        2 0.80016926E-02 0.22187132E+02</pdfrwt>
<pdfrwt beam="2">  1       -2 0.11426593E-01 0.22187132E+02</pdfrwt>
<totfact> 0.31091037E+04</totfact>
</mgrwt>
</event>
<event>
 4    1  0.1352171E+004  0.2802866E+02  0.7546771E-02  0.1620960E+00
          2   -1    0    0  501    0  0.00000000000E+00  0.00000000000E+00  0.20721189596E+04  0.20721189596E+04  0.00000000000E+00 0. -1.
         -2   -1    0    0    0  501 -0.00000000000E+00 -0.00000000000E+00 -0.39392545478E+00  0.39392545478E+00  0.00000000000E+00 0.  1.
          2    1    1    2  502    0 -0.66546419982E+01  0.27227220688E+02  0.12366796141E+04  0.12369972004E+04  0.00000000000E+00 0. -1.
         -2    1    1    2    0  502  0.66546419982E+01 -0.27227220688E+02  0.83504542006E+03  0.83551568469E+03  0.00000000000E+00 0.  1.
<mgrwt>
<rscale>  2 0.28028660E+02</rscale>
<asrwt>0</asrwt>
<pdfrwt beam="1">  1        2 0.31877880E+00 0.28028660E+02</pdfrwt>
<pdfrwt beam="2">  1       -2 0.60605576E-04 0.28028660E+02</pdfrwt>
<totfact> 0.55184594E+05</totfact>
</mgrwt>
</event>
<event>
 4    1  0.1352171E+004  0.2575214E+02  0.7546771E-02  0.1650428E+00
          2   -1    0    0  501    0  0.00000000000E+00  0.00000000000E+00  0.53178858957E+03  0.53178858957E+03  0.00000000000E+00 0.  1.
         -2   -1    0    0    0  501 -0.00000000000E+00 -0.00000000000E+00 -0.47456181938E+01  0.47456181938E+01  0.00000000000E+00 0.  1.
          2    1    1    2  502    0  0.18582770528E+02  0.17828437043E+02  0.49385946131E+03  0.49453042379E+03  0.00000000000E+00 0.  1.
         -2    1    1    2    0  502 -0.18582770528E+02 -0.17828437043E+02  0.33183510068E+02  0.42003783976E+02  0.00000000000E+00 0.  1.
<mgrwt>
<rscale>  2 0.25752136E+02</rscale>
<asrwt>0</asrwt>
<pdfrwt beam="1">  1        2 0.81813582E-01 0.25752136E+02</pdfrwt>
<pdfrwt beam="2">  1       -2 0.73009553E-03 0.25752136E+02</pdfrwt>
<totfact> 0.13150726E+05</totfact>
</mgrwt>
</event>
<event>
 4    1  0.1352171E+004  0.3001217E+02  0.7546771E-02  0.1597954E+00
          2   -1    0    0  501    0  0.00000000000E+00  0.00000000000E+00  0.26937830199E+02  0.26937830199E+02  0.00000000000E+00 0. -1.
         -2   -1    0    0    0  501 -0.00000000000E+00 -0.00000000000E+00 -0.63303299852E+03  0.63303299852E+03  0.00000000000E+00 0.  1.
          2    1    1    2  502    0 -0.65193658777E+00  0.30005086470E+02  0.18104539235E+02  0.35050029619E+02  0.00000000000E+00 0. -1.
         -2    1    1    2    0  502  0.65193658777E+00 -0.30005086470E+02 -0.62419970755E+03  0.62492079910E+03  0.00000000000E+00 0.  1.
<mgrwt>
<rscale>  2 0.30012168E+02</rscale>
<asrwt>0</asrwt>
<pdfrwt beam="1">  1        2 0.41442815E-02 0.30012168E+02</pdfrwt>
<pdfrwt beam="2">  1       -2 0.97389694E-01 0.30012168E+02</pdfrwt>
<totfact> 0.15562499E+03</totfact>
</mgrwt>
</event>
<event>
 4    1  0.1352171E+004  0.3147811E+02  0.7546771E-02  0.1582302E+00
          2   -1    0    0  501    0  0.00000000000E+00  0.00000000000E+00  0.14832487167E+02  0.14832487167E+02  0.00000000000E+00 0. -1.
         -2   -1    0    0    0  501 -0.00000000000E+00 -0.00000000000E+00 -0.43717776098E+03  0.43717776098E+03  0.00000000000E+00 0. -1.
          2    1    1    2  502    0 -0.41438354193E+01 -0.31204163463E+02 -0.31506247217E+01  0.31635385655E+02  0.00000000000E+00 0. -1.
         -2    1    1    2    0  502  0.41438354193E+01  0.31204163463E+02 -0.41919464909E+03  0.42037486249E+03  0.00000000000E+00 0. -1.
<mgrwt>
<rscale>  2 0.31478107E+02</rscale>
<asrwt>0</asrwt>
<pdfrwt beam="1">  1        2 0.22819211E-02 0.31478107E+02</pdfrwt>
<pdfrwt beam="2">  1       -2 0.67258117E-01 0.31478107E+02</pdfrwt>
<totfact> 0.73709139E+03</totfact>
</mgrwt>
</event>
<event>
 4    1  0.1352171E+004  0.2425709E+02  0.7546771E-02  0.1671908E+00
          2   -1    0    0  501    0  0.00000000000E+00  0.00000000000E+00  0.38794174053E+01  0.38794174053E+01  0.00000000000E+00 0. -1.
         -2   -1    0    0    0  501 -0.00000000000E+00 -0.00000000000E+00 -0.71973068462E+03  0.71973068462E+03  0.00000000000E+00 0.  1.
          2    1    1    2  502    0 -0.20566862892E+02 -0.12861202318E+02 -0.36496312329E+02  0.43822222534E+02  0.00000000000E+00 0. -1.
         -2    1    1    2    0  502  0.20566862892E+02  0.12861202318E+02 -0.67935495489E+03  0.67978787950E+03  0.00000000000E+00 0.  1.
<mgrwt>
<rscale>  2 0.24257089E+02</rscale>
<asrwt>0</asrwt>
<pdfrwt beam="1">  1        2 0.59683388E-03 0.24257089E+02</pdfrwt>
<pdfrwt beam="2">  1       -2 0.11072772E+00 0.24257089E+02</pdfrwt>
<totfact> 0.13794420E+04</totfact>
</mgrwt>
</event>
<event>
 4    1  0.1352171E+004  0.4117768E+02  0.7546771E-02  0.1499720E+00
         -2   -1    0    0    0  501 -0.00000000000E+00  0.00000000000E+00  0.45313283621E+01  0.45313283621E+01  0.00000000000E+00 0.  1.
          2   -1    0    0  501    0  0.00000000000E+00 -0.00000000000E+00 -0.13041442912E+04  0.13041442912E+04  0.00000000000E+00 0.  1.
          2    1    1    2  502    0  0.34742715590E+02  0.22103051904E+02 -0.12023529246E+04  0.12030578359E+04  0.00000000000E+00 0.  1.
         -2    1    1    2    0  502 -0.34742715590E+02 -0.22103051904E+02 -0.97260038189E+02  0.10561778363E+03  0.00000000000E+00 0.  1.
<mgrwt>
<rscale>  2 0.41177678E+02</rscale>
<asrwt>0</asrwt>
<pdfrwt beam="2">  1        2 0.20063742E+00 0.41177678E+02</pdfrwt>
<pdfrwt beam="1">  1       -2 0.69712802E-03 0.41177678E+02</pdfrwt>
<totfact> 0.51727570E+04</totfact>
</mgrwt>
</event>
<event>
 4    1  0.1352171E+004  0.2122575E+02  0.7546771E-02  0.1721997E+00
         -2   -1    0    0    0  501 -0.00000000000E+00  0.00000000000E+00  0.96613116328E+00  0.96613116328E+00  0.00000000000E+00 0. -1.
          2   -1    0    0  501    0  0.00000000000E+00 -0.00000000000E+00 -0.58085247945E+03  0.58085247945E+03  0.00000000000E+00 0.  1.
          2    1    1    2  502    0 -0.17919116252E+02  0.11377063538E+02 -0.41911779954E+03  0.41965493228E+03  0.00000000000E+00 0.  1.
         -2    1    1    2    0  502  0.17919116252E+02 -0.11377063538E+02 -0.16076854875E+03  0.16216367832E+03  0.00000000000E+00 0. -1.
<mgrwt>
<rscale>  2 0.21225746E+02</rscale>
<asrwt>0</asrwt>
<pdfrwt beam="2">  1        2 0.89361965E-01 0.21225746E+02</pdfrwt>
<pdfrwt beam="1">  1       -2 0.14863549E-03 0.21225746E+02</pdfrwt>
<totfact> 0.95149084E+05</totfact>
</mgrwt>
</event>
<event>
 4    1  0.1352171E+004  0.2103833E+02  0.7546771E-02  0.1725435E+00
          2   -1    0    0  501    0  0.00000000000E+00  0.00000000000E+00  0.20513818290E+03  0.20513818290E+03  0.00000000000E+00 0.  1.
         -2   -1    0    0    0  501 -0.00000000000E+00 -0.00000000000E+00 -0.54456972150E+02  0.54456972150E+02  0.00000000000E+00 0. -1.
          2    1    1    2  502    0 -0.19598219311E+02 -0.76499209289E+01  0.20254085723E+03  0.20363057319E+03  0.00000000000E+00 0.  1.
         -2    1    1    2    0  502  0.19598219311E+02  0.76499209289E+01 -0.51859646477E+02  0.55964581863E+02  0.00000000000E+00 0. -1.
<mgrwt>
<rscale>  2 0.21038334E+02</rscale>
<asrwt>0</asrwt>
<pdfrwt beam="1">  1        2 0.31559720E-01 0.21038334E+02</pdfrwt>
<pdfrwt beam="2">  1       -2 0.83779958E-02 0.21038334E+02</pdfrwt>
<totfact> 0.10979292E+04</totfact>
</mgrwt>
</event>
<event>
 4    1  0.1352171E+004  0.2619841E+02  0.7546771E-02  0.1644362E+00
          2   -1    0    0  501    0  0.00000000000E+00  0.00000000000E+00  0.30914544113E+03  0.30914544113E+03  0.00000000000E+00 0.  1.
         -2   -1    0    0    0  501 -0.00000000000E+00 -0.00000000000E+00 -0.12170625096E+02  0.12170625096E+02  0.00000000000E+00 0. -1.
          2    1    1    2  502    0  0.92184239259E+01  0.24522998411E+02  0.29375454583E+03  0.29492048079E+03  0.00000000000E+00 0.  1.
         -2    1    1    2    0  502 -0.92184239259E+01 -0.24522998411E+02  0.32202702069E+01  0.26395585445E+02  0.00000000000E+00 0. -1.
<mgrwt>
<rscale>  2 0.26198412E+02</rscale>
<asrwt>0</asrwt>
<pdfrwt beam="1">  1        2 0.47560831E-01 0.26198412E+02</pdfrwt>
<pdfrwt beam="2">  1       -2 0.18724041E-02 0.26198412E+02</pdfrwt>
<totfact> 0.62916162E+04</totfact>
</mgrwt>
</event>
<event>
 4    1  0.1352171E+004  0.3669769E+02  0.7546771E-02  0.1534021E+00
         -2   -1    0    0    0  501 -0.00000000000E+00  0.00000000000E+00  0.10028887217E+02  0.10028887217E+02  0.00000000000E+00 0. -1.
          2   -1    0    0  501    0  0.00000000000E+00 -0.00000000000E+00 -0.79216684468E+03  0.79216684468E+03  0.00000000000E+00 0. -1.
          2    1    1    2  502    0  0.10725488868E+02  0.35095364669E+02 -0.75659327307E+03  0.75748274012E+03  0.00000000000E+00 0. -1.
         -2    1    1    2    0  502 -0.10725488868E+02 -0.35095364669E+02 -0.25544684399E+02  0.44712991778E+02  0.00000000000E+00 0. -1.
<mgrwt>
<rscale>  2 0.36697694E+02</rscale>
<asrwt>0</asrwt>
<pdfrwt beam="2">  1        2 0.12187186E+00 0.36697694E+02</pdfrwt>
<pdfrwt beam="1">  1       -2 0.15429053E-02 0.36697694E+02</pdfrwt>
<totfact> 0.32730113E+04</totfact>
</mgrwt>
</event>
<event>
 4    1  0.1352171E+004  0.2498284E+02  0.7546771E-02  0.1661248E+00
          2   -1    0    0  501    0  0.00000000000E+00  0.00000000000E+00  0.69463629011E+03  0.69463629011E+03  0.00000000000E+00 0. -1.
         -2   -1    0    0    0  501 -0.00000000000E+00 -0.00000000000E+00 -0.22361432934E+01  0.22361432934E+01  0.00000000000E+00 0. -1.
          2    1    1    2  502    0 -0.15929247914E+02 -0.19245817747E+02  0.61568897902E+03  0.61619563560E+03  0.00000000000E+00 0. -1.
         -2    1    1    2    0  502  0.15929247914E+02  0.19245817747E+02  0.76711167793E+02  0.80676797805E+02  0.00000000000E+00 0. -1.
<mgrwt>
<rscale>  2 0.24982843E+02</rscale>
<asrwt>0</asrwt>
<pdfrwt beam="1">  1        2 0.10686695E+00 0.24982843E+02</pdfrwt>
<pdfrwt beam="2">  1       -2 0.34402260E-03 0.24982843E+02</pdfrwt>
<totfact> 0.27099513E+05</totfact>
</mgrwt>
</event>
<event>
 4    1  0.1352171E+004  0.2145359E+02  0.7546771E-02  0.1717877E+00
          2   -1    0    0  501    0  0.00000000000E+00  0.00000000000E+00  0.16203618880E+04  0.16203618880E+04  0.00000000000E+00 0. -1.
         -2   -1    0    0    0  501 -0.00000000000E+00 -0.00000000000E+00 -0.37386330888E+00  0.37386330888E+00  0.00000000000E+00 0. -1.
          2    1    1    2  502    0 -0.20588793031E+02 -0.60297837520E+01  0.12071917275E+04  0.12073823436E+04  0.00000000000E+00 0. -1.
         -2    1    1    2    0  502  0.20588793031E+02  0.60297837520E+01  0.41279629722E+03  0.41335340774E+03  0.00000000000E+00 0. -1.
<mgrwt>
<rscale>  2 0.21453594E+02</rscale>
<asrwt>0</asrwt>
<pdfrwt beam="1">  1        2 0.24928082E+00 0.21453594E+02</pdfrwt>
<pdfrwt beam="2">  1       -2 0.57518730E-04 0.21453594E+02</pdfrwt>
<totfact> 0.89749884E+05</totfact>
</mgrwt>
</event>
<event>
 4    1  0.1352171E+004  0.2459078E+02  0.7546771E-02  0.1666950E+00
         -2   -1    0    0    0  501 -0.00000000000E+00  0.00000000000E+00  0.48503399448E+02  0.48503399448E+02  0.00000000000E+00 0. -1.
          2   -1    0    0  501    0  0.00000000000E+00 -0.00000000000E+00 -0.12292781085E+03  0.12292781085E+03  0.00000000000E+00 0.  1.
          2    1    1    2  502    0  0.23174292184E+02  0.82254733481E+01 -0.11846500904E+03  0.12099034919E+03  0.00000000000E+00 0.  1.
         -2    1    1    2    0  502 -0.23174292184E+02 -0.82254733481E+01  0.44040597633E+02  0.50440861114E+02  0.00000000000E+00 0. -1.
<mgrwt>
<rscale>  2 0.24590775E+02</rscale>
<asrwt>0</asrwt>
<pdfrwt beam="2">  1        2 0.18911971E-01 0.24590775E+02</pdfrwt>
<pdfrwt beam="1">  1       -2 0.74620616E-02 0.24590775E+02</pdfrwt>
<totfact> 0.22685357E+04</totfact>
</mgrwt>
</event>
<event>
 4    1  0.1352171E+004  0.2506903E+02  0.7546771E-02  0.1660012E+00
          2   -1    0    0  501    0  0.00000000000E+00  0.00000000000E+00  0.12186329284E+02  0.12186329284E+02  0.00000000000E+00 0.  1.
         -2   -1    0    0    0  501 -0.00000000000E+00 -0.00000000000E+00 -0.53507755329E+02  0.53507755329E+02  0.00000000000E+00 0. -1.
          2    1    1    2  502    0  0.92689735535E+01  0.23292535697E+02 -0.14410825841E+02  0.28915877841E+02  0.00000000000E+00 0.  1.
         -2    1    1    2    0  502 -0.92689735535E+01 -0.23292535697E+02 -0.26910600205E+02  0.36778206771E+02  0.00000000000E+00 0. -1.
<mgrwt>
<rscale>  2 0.25069027E+02</rscale>
<asrwt>0</asrwt>
<pdfrwt beam="1">  1        2 0.18748199E-02 0.25069027E+02</pdfrwt>
<pdfrwt beam="2">  1       -2 0.82319625E-02 0.25069027E+02</pdfrwt>
<totfact> 0.31604760E+05</totfact>
</mgrwt>
</event>
<event>
 4    1  0.1352171E+004  0.3262852E+02  0.7546771E-02  0.1570728E+00
         -2   -1    0    0    0  501 -0.00000000000E+00  0.00000000000E+00  0.14602793710E+02  0.14602793710E+02  0.00000000000E+00 0. -1.
          2   -1    0    0  501    0  0.00000000000E+00 -0.00000000000E+00 -0.39745516767E+03  0.39745516767E+03  0.00000000000E+00 0. -1.
          2    1    1    2  502    0 -0.29665635402E+02  0.13585671855E+02 -0.37760274117E+03  0.37900982909E+03  0.00000000000E+00 0. -1.
         -2    1    1    2    0  502  0.29665635402E+02 -0.13585671855E+02 -0.52496327866E+01  0.33048132292E+02  0.00000000000E+00 0. -1.
<mgrwt>
<rscale>  2 0.32628521E+02</rscale>
<asrwt>0</asrwt>
<pdfrwt beam="2">  1        2 0.61146940E-01 0.32628521E+02</pdfrwt>
<pdfrwt beam="1">  1       -2 0.22465840E-02 0.32628521E+02</pdfrwt>
<totfact> 0.39656360E+04</totfact>
</mgrwt>
</event>
<event>
 4    1  0.1352171E+004  0.3286733E+02  0.7546771E-02  0.1568398E+00
          2   -1    0    0  501    0  0.00000000000E+00  0.00000000000E+00  0.10092949059E+04  0.10092949059E+04  0.00000000000E+00 0. -1.
         -2   -1    0    0    0  501 -0.00000000000E+00 -0.00000000000E+00 -0.34749215192E+01  0.34749215192E+01  0.00000000000E+00 0. -1.
          2    1    1    2  502    0  0.29523155009E+02 -0.14444545780E+02  0.92415080085E+03  0.92473507789E+03  0.00000000000E+00 0. -1.
         -2    1    1    2    0  502 -0.29523155009E+02  0.14444545780E+02  0.81669183523E+02  0.88034749513E+02  0.00000000000E+00 0. -1.
<mgrwt>
<rscale>  2 0.32867333E+02</rscale>
<asrwt>0</asrwt>
<pdfrwt beam="1">  1        2 0.15527591E+00 0.32867333E+02</pdfrwt>
<pdfrwt beam="2">  1       -2 0.53460411E-03 0.32867333E+02</pdfrwt>
<totfact> 0.10242558E+05</totfact>
</mgrwt>
</event>
<event>
 4    1  0.1352171E+004  0.2693239E+02  0.7546771E-02  0.1634703E+00
          2   -1    0    0  501    0  0.00000000000E+00  0.00000000000E+00  0.11840239562E+03  0.11840239562E+03  0.00000000000E+00 0. -1.
         -2   -1    0    0    0  501 -0.00000000000E+00 -0.00000000000E+00 -0.12217302841E+02  0.12217302841E+02  0.00000000000E+00 0.  1.
          2    1    1    2  502    0 -0.25897447525E+02  0.73942958581E+01  0.99207310160E+02  0.10279807288E+03  0.00000000000E+00 0. -1.
         -2    1    1    2    0  502  0.25897447525E+02 -0.73942958581E+01  0.69777826204E+01  0.27821625579E+02  0.00000000000E+00 0.  1.
<mgrwt>
<rscale>  2 0.26932386E+02</rscale>
<asrwt>0</asrwt>
<pdfrwt beam="1">  1        2 0.18215752E-01 0.26932386E+02</pdfrwt>
<pdfrwt beam="2">  1       -2 0.18795851E-02 0.26932386E+02</pdfrwt>
<totfact> 0.16853313E+05</totfact>
</mgrwt>
</event>
<event>
 4    1  0.1352171E+004  0.2419376E+02  0.7546771E-02  0.1672860E+00
          2   -1    0    0  501    0  0.00000000000E+00  0.00000000000E+00  0.39977760704E+02  0.39977760704E+02  0.00000000000E+00 0. -1.
         -2   -1    0    0    0  501 -0.00000000000E+00 -0.00000000000E+00 -0.79826394580E+02  0.79826394580E+02  0.00000000000E+00 0. -1.
          2    1    1    2  502    0  0.21120970148E+02  0.11800119310E+02  0.34206152635E+02  0.41897482906E+02  0.00000000000E+00 0. -1.
         -2    1    1    2    0  502 -0.21120970148E+02 -0.11800119310E+02 -0.74054786512E+02  0.77906672378E+02  0.00000000000E+00 0. -1.
<mgrwt>
<rscale>  2 0.24193764E+02</rscale>
<asrwt>0</asrwt>
<pdfrwt beam="1">  1        2 0.61504248E-02 0.24193764E+02</pdfrwt>
<pdfrwt beam="2">  1       -2 0.12280984E-01 0.24193764E+02</pdfrwt>
<totfact> 0.38848308E+04</totfact>
</mgrwt>
</event>
<event>
 4    1  0.1352171E+004  0.4294920E+02  0.7546771E-02  0.1487566E+00
          2   -1    0    0  501    0  0.00000000000E+00  0.00000000000E+00  0.20424778875E+04  0.20424778875E+04  0.00000000000E+00 0. -1.
         -2   -1    0    0    0  501 -0.00000000000E+00 -0.00000000000E+00 -0.90692955410E+00  0.90692955410E+00  0.00000000000E+00 0. -1.
          2    1    1    2  502    0 -0.36796162701E+02 -0.22151167746E+02  0.95469266472E+03  0.95565826313E+03  0.00000000000E+00 0. -1.
         -2    1    1    2    0  502  0.36796162701E+02  0.22151167746E+02  0.10868782933E+04  0.10877265540E+04  0.00000000000E+00 0. -1.
<mgrwt>
<rscale>  2 0.42949199E+02</rscale>
<asrwt>0</asrwt>
<pdfrwt beam="1">  1        2 0.31422369E+00 0.42949199E+02</pdfrwt>
<pdfrwt beam="2">  1       -2 0.13952926E-03 0.42949199E+02</pdfrwt>
<totfact> 0.20321861E+05</totfact>
</mgrwt>
</event>
<event>
 4    1  0.1352171E+004  0.2221602E+02  0.7546771E-02  0.1704543E+00
         -2   -1    0    0    0  501 -0.00000000000E+00  0.00000000000E+00  0.17158393698E+02  0.17158393698E+02  0.00000000000E+00 0.  1.
          2   -1    0    0  501    0  0.00000000000E+00 -0.00000000000E+00 -0.76983080156E+02  0.76983080156E+02  0.00000000000E+00 0. -1.
          2    1    1    2  502    0  0.76259102716E+01  0.20866164623E+02 -0.67165313105E+02  0.70744120732E+02  0.00000000000E+00 0. -1.
         -2    1    1    2    0  502 -0.76259102716E+01 -0.20866164623E+02  0.73406266477E+01  0.23397353122E+02  0.00000000000E+00 0.  1.
<mgrwt>
<rscale>  2 0.22216015E+02</rscale>
<asrwt>0</asrwt>
<pdfrwt beam="2">  1        2 0.11843551E-01 0.22216015E+02</pdfrwt>
<pdfrwt beam="1">  1       -2 0.26397529E-02 0.22216015E+02</pdfrwt>
<totfact> 0.16134054E+05</totfact>
</mgrwt>
</event>
<event>
 4    1  0.1352171E+004  0.2691964E+02  0.7546771E-02  0.1634868E+00
         -2   -1    0    0    0  501 -0.00000000000E+00  0.00000000000E+00  0.12884330353E+01  0.12884330353E+01  0.00000000000E+00 0. -1.
          2   -1    0    0  501    0  0.00000000000E+00 -0.00000000000E+00 -0.88166793463E+03  0.88166793463E+03  0.00000000000E+00 0. -1.
          2    1    1    2  502    0  0.14124082018E+02 -0.22916729282E+02 -0.17454133989E+03  0.17660505515E+03  0.00000000000E+00 0. -1.
         -2    1    1    2    0  502 -0.14124082018E+02  0.22916729282E+02 -0.70583816170E+03  0.70635131251E+03  0.00000000000E+00 0. -1.
<mgrwt>
<rscale>  2 0.26919638E+02</rscale>
<asrwt>0</asrwt>
<pdfrwt beam="2">  1        2 0.13564023E+00 0.26919638E+02</pdfrwt>
<pdfrwt beam="1">  1       -2 0.19822191E-03 0.26919638E+02</pdfrwt>
<totfact> 0.44010683E+05</totfact>
</mgrwt>
</event>
<event>
 4    1  0.1352171E+004  0.2298821E+02  0.7546771E-02  0.1691701E+00
         -2   -1    0    0    0  501 -0.00000000000E+00  0.00000000000E+00  0.19444261961E+02  0.19444261961E+02  0.00000000000E+00 0. -1.
          2   -1    0    0  501    0  0.00000000000E+00 -0.00000000000E+00 -0.10019507477E+03  0.10019507477E+03  0.00000000000E+00 0.  1.
          2    1    1    2  502    0 -0.12640857750E+02  0.19200695724E+02 -0.91441512872E+02  0.94286840425E+02  0.00000000000E+00 0.  1.
         -2    1    1    2    0  502  0.12640857750E+02 -0.19200695724E+02  0.10690700066E+02  0.25352496304E+02  0.00000000000E+00 0. -1.
<mgrwt>
<rscale>  2 0.22988214E+02</rscale>
<asrwt>0</asrwt>
<pdfrwt beam="2">  1        2 0.15414627E-01 0.22988214E+02</pdfrwt>
<pdfrwt beam="1">  1       -2 0.29914249E-02 0.22988214E+02</pdfrwt>
<totfact> 0.10215774E+05</totfact>
</mgrwt>
</event>
<event>
 4    1  0.1352171E+004  0.3536453E+02  0.7546771E-02  0.1545387E+00
         -2   -1    0    0    0  501 -0.00000000000E+00  0.00000000000E+00  0.77160194860E+03  0.77160194860E+03  0.00000000000E+00 0. -1.
          2   -1    0    0  501    0  0.00000000000E+00 -0.00000000000E+00 -0.18108829011E+01  0.18108829011E+01  0.00000000000E+00 0. -1.
          2    1    1    2  502    0 -0.33841173798E+02 -0.10267665033E+02  0.25962407928E+03  0.26202158791E+03  0.00000000000E+00 0. -1.
         -2    1    1    2    0  502  0.33841173798E+02  0.10267665033E+02  0.51016698642E+03  0.51139124359E+03  0.00000000000E+00 0. -1.
<mgrwt>
<rscale>  2 0.35364530E+02</rscale>
<asrwt>0</asrwt>
<pdfrwt beam="2">  1        2 0.27859799E-03 0.35364530E+02</pdfrwt>
<pdfrwt beam="1">  1       -2 0.11870773E+00 0.35364530E+02</pdfrwt>
<totfact> 0.35264029E+04</totfact>
</mgrwt>
</event>
<event>
 4    1  0.1352171E+004  0.2052398E+02  0.7546771E-02  0.1735104E+00
          2   -1    0    0  501    0  0.00000000000E+00  0.00000000000E+00  0.62970171057E+03  0.62970171057E+03  0.00000000000E+00 0. -1.
         -2   -1    0    0    0  501 -0.00000000000E+00 -0.00000000000E+00 -0.71255693154E+02  0.71255693154E+02  0.00000000000E+00 0. -1.
          2    1    1    2  502    0 -0.15152081888E+01 -0.20467969043E+02  0.62805270130E+03  0.62838796075E+03  0.00000000000E+00 0. -1.
         -2    1    1    2    0  502  0.15152081888E+01  0.20467969043E+02 -0.69606683879E+02  0.72569442972E+02  0.00000000000E+00 0. -1.
<mgrwt>
<rscale>  2 0.20523977E+02</rscale>
<asrwt>0</asrwt>
<pdfrwt beam="1">  1        2 0.96877183E-01 0.20523977E+02</pdfrwt>
<pdfrwt beam="2">  1       -2 0.10962415E-01 0.20523977E+02</pdfrwt>
<totfact> 0.24110995E+03</totfact>
</mgrwt>
</event>
<event>
 4    1  0.1352171E+004  0.2388118E+02  0.7546771E-02  0.1677612E+00
          2   -1    0    0  501    0  0.00000000000E+00  0.00000000000E+00  0.55061615708E+03  0.55061615708E+03  0.00000000000E+00 0.  1.
         -2   -1    0    0    0  501 -0.00000000000E+00 -0.00000000000E+00 -0.14779960950E+02  0.14779960950E+02  0.00000000000E+00 0.  1.
          2    1    1    2  502    0 -0.79716619880E+01  0.22511402299E+02  0.54053062232E+03  0.54105791215E+03  0.00000000000E+00 0.  1.
         -2    1    1    2    0  502  0.79716619880E+01 -0.22511402299E+02 -0.46944261926E+01  0.24338205883E+02  0.00000000000E+00 0.  1.
<mgrwt>
<rscale>  2 0.23881177E+02</rscale>
<asrwt>0</asrwt>
<pdfrwt beam="1">  1        2 0.84710162E-01 0.23881177E+02</pdfrwt>
<pdfrwt beam="2">  1       -2 0.22738406E-02 0.23881177E+02</pdfrwt>
<totfact> 0.26557408E+04</totfact>
</mgrwt>
</event>
<event>
 4    1  0.1352171E+004  0.1419243E+03  0.7546771E-02  0.1210763E+00
          2   -1    0    0  501    0  0.00000000000E+00  0.00000000000E+00  0.44081593751E+02  0.44081593751E+02  0.00000000000E+00 0.  1.
         -2   -1    0    0    0  501 -0.00000000000E+00 -0.00000000000E+00 -0.58228266015E+03  0.58228266015E+03  0.00000000000E+00 0. -1.
          2    1    1    2  502    0  0.87888429656E+02  0.11143669562E+03 -0.12379417669E+03  0.18832820124E+03  0.00000000000E+00 0.  1.
         -2    1    1    2    0  502 -0.87888429656E+02 -0.11143669562E+03 -0.41440688971E+03  0.43803605266E+03  0.00000000000E+00 0. -1.
<mgrwt>
<rscale>  2 0.14192432E+03</rscale>
<asrwt>0</asrwt>
<pdfrwt beam="1">  1        2 0.67817842E-02 0.14192432E+03</pdfrwt>
<pdfrwt beam="2">  1       -2 0.89581941E-01 0.14192432E+03</pdfrwt>
<totfact> 0.11318016E+03</totfact>
</mgrwt>
</event>
<event>
 4    1  0.1352171E+004  0.2139373E+02  0.7546771E-02  0.1718953E+00
          2   -1    0    0  501    0  0.00000000000E+00  0.00000000000E+00  0.40689915629E+02  0.40689915629E+02  0.00000000000E+00 0. -1.
         -2   -1    0    0    0  501 -0.00000000000E+00 -0.00000000000E+00 -0.11711882402E+02  0.11711882402E+02  0.00000000000E+00 0. -1.
          2    1    1    2  502    0  0.20803479632E+02 -0.49906973654E+01  0.19701836004E+02  0.29083572114E+02  0.00000000000E+00 0. -1.
         -2    1    1    2    0  502 -0.20803479632E+02  0.49906973654E+01  0.92761972228E+01  0.23318225917E+02  0.00000000000E+00 0. -1.
<mgrwt>
<rscale>  2 0.21393733E+02</rscale>
<asrwt>0</asrwt>
<pdfrwt beam="1">  1        2 0.62599870E-02 0.21393733E+02</pdfrwt>
<pdfrwt beam="2">  1       -2 0.18018281E-02 0.21393733E+02</pdfrwt>
<totfact> 0.56617992E+05</totfact>
</mgrwt>
</event>
<event>
 4    1  0.1352171E+004  0.3097716E+02  0.7546771E-02  0.1587532E+00
         -2   -1    0    0    0  501 -0.00000000000E+00  0.00000000000E+00  0.24237144765E+03  0.24237144765E+03  0.00000000000E+00 0.  1.
          2   -1    0    0  501    0  0.00000000000E+00 -0.00000000000E+00 -0.12376544719E+02  0.12376544719E+02  0.00000000000E+00 0.  1.
          2    1    1    2  502    0 -0.34073778791E+01 -0.30789190282E+02  0.99537633162E+01  0.32537084479E+02  0.00000000000E+00 0.  1.
         -2    1    1    2    0  502  0.34073778791E+01  0.30789190282E+02  0.22004113962E+03  0.22221090789E+03  0.00000000000E+00 0.  1.
<mgrwt>
<rscale>  2 0.30977160E+02</rscale>
<asrwt>0</asrwt>
<pdfrwt beam="2">  1        2 0.19040840E-02 0.30977160E+02</pdfrwt>
<pdfrwt beam="1">  1       -2 0.37287911E-01 0.30977160E+02</pdfrwt>
<totfact> 0.28804797E+04</totfact>
</mgrwt>
</event>
<event>
 4    1  0.1951581E+004  0.2141490E+02  0.7546771E-02  0.1718572E+00
         -2   -1    0    0    0  501 -0.00000000000E+00  0.00000000000E+00  0.24373094033E+03  0.24373094033E+03  0.00000000000E+00 0.  1.
          2   -1    0    0  501    0  0.00000000000E+00 -0.00000000000E+00 -0.79586835773E+03  0.79586835773E+03  0.00000000000E+00 0. -1.
          2    1    1    2  502    0 -0.20940863760E+02  0.44808806054E+01 -0.79525354448E+03  0.79554182672E+03  0.00000000000E+00 0. -1.
         -2    1    1    2    0  502  0.20940863760E+02 -0.44808806054E+01  0.24311612708E+03  0.24405747133E+03  0.00000000000E+00 0.  1.
<mgrwt>
<rscale>  2 0.21414903E+02</rscale>
<asrwt>0</asrwt>
<pdfrwt beam="2">  1        2 0.12244128E+00 0.21414903E+02</pdfrwt>
<pdfrwt beam="1">  1       -2 0.37497069E-01 0.21414903E+02</pdfrwt>
<totfact> 0.25578706E+02</totfact>
</mgrwt>
</event>
<event>
 4    1  0.1352171E+004  0.3260167E+02  0.7546771E-02  0.1570992E+00
          2   -1    0    0  501    0  0.00000000000E+00  0.00000000000E+00  0.31774224614E+02  0.31774224614E+02  0.00000000000E+00 0.  1.
         -2   -1    0    0    0  501 -0.00000000000E+00 -0.00000000000E+00 -0.10894786589E+03  0.10894786589E+03  0.00000000000E+00 0. -1.
          2    1    1    2  502    0 -0.32173973347E+02 -0.52634769063E+01  0.19984951114E+02  0.38239600169E+02  0.00000000000E+00 0.  1.
         -2    1    1    2    0  502  0.32173973347E+02  0.52634769063E+01 -0.97158592393E+02  0.10248249034E+03  0.00000000000E+00 0. -1.
<mgrwt>
<rscale>  2 0.32601668E+02</rscale>
<asrwt>0</asrwt>
<pdfrwt beam="1">  1        2 0.48883423E-02 0.32601668E+02</pdfrwt>
<pdfrwt beam="2">  1       -2 0.16761210E-01 0.32601668E+02</pdfrwt>
<totfact> 0.33691850E+04</totfact>
</mgrwt>
</event>
<event>
 4    1  0.1352171E+004  0.2039354E+02  0.7546771E-02  0.1737613E+00
         -2   -1    0    0    0  501 -0.00000000000E+00  0.00000000000E+00  0.20880965163E+01  0.20880965163E+01  0.00000000000E+00 0. -1.
          2   -1    0    0  501    0  0.00000000000E+00 -0.00000000000E+00 -0.27040228447E+03  0.27040228447E+03  0.00000000000E+00 0. -1.
          2    1    1    2  502    0 -0.20361473819E+02 -0.11432021000E+01 -0.20408319878E+03  0.20509960642E+03  0.00000000000E+00 0. -1.
         -2    1    1    2    0  502  0.20361473819E+02  0.11432021000E+01 -0.64230989168E+02  0.67390774566E+02  0.00000000000E+00 0. -1.
<mgrwt>
<rscale>  2 0.20393541E+02</rscale>
<asrwt>0</asrwt>
<pdfrwt beam="2">  1        2 0.41600307E-01 0.20393541E+02</pdfrwt>
<pdfrwt beam="1">  1       -2 0.32124596E-03 0.20393541E+02</pdfrwt>
<totfact> 0.72367714E+05</totfact>
</mgrwt>
</event>
<event>
 4    1  0.1352171E+004  0.2471596E+02  0.7546771E-02  0.1665115E+00
          2   -1    0    0  501    0  0.00000000000E+00  0.00000000000E+00  0.16297945229E+04  0.16297945229E+04  0.00000000000E+00 0. -1.
         -2   -1    0    0    0  501 -0.00000000000E+00 -0.00000000000E+00 -0.45604682992E+00  0.45604682992E+00  0.00000000000E+00 0. -1.
          2    1    1    2  502    0 -0.21723517518E+01 -0.24620309212E+02  0.11586790128E+04  0.11589425929E+04  0.00000000000E+00 0. -1.
         -2    1    1    2    0  502  0.21723517518E+01  0.24620309212E+02  0.47065946323E+03  0.47130797687E+03  0.00000000000E+00 0. -1.
<mgrwt>
<rscale>  2 0.24715961E+02</rscale>
<asrwt>0</asrwt>
<pdfrwt beam="1">  1        2 0.25073296E+00 0.24715961E+02</pdfrwt>
<pdfrwt beam="2">  1       -2 0.70162356E-04 0.24715961E+02</pdfrwt>
<totfact> 0.71114039E+05</totfact>
</mgrwt>
</event>
<event>
 4    1  0.1352171E+004  0.3193579E+02  0.7546771E-02  0.1577627E+00
          2   -1    0    0  501    0  0.00000000000E+00  0.00000000000E+00  0.17562549034E+03  0.17562549034E+03  0.00000000000E+00 0. -1.
         -2   -1    0    0    0  501 -0.00000000000E+00 -0.00000000000E+00 -0.16713943819E+02  0.16713943819E+02  0.00000000000E+00 0.  1.
          2    1    1    2  502    0 -0.25005494954E+02  0.19865036334E+02  0.15714238631E+03  0.16035468195E+03  0.00000000000E+00 0. -1.
         -2    1    1    2    0  502  0.25005494954E+02 -0.19865036334E+02  0.17691602127E+01  0.31984752215E+02  0.00000000000E+00 0.  1.
<mgrwt>
<rscale>  2 0.31935786E+02</rscale>
<asrwt>0</asrwt>
<pdfrwt beam="1">  1        2 0.27019305E-01 0.31935786E+02</pdfrwt>
<pdfrwt beam="2">  1       -2 0.25713761E-02 0.31935786E+02</pdfrwt>
<totfact> 0.74700557E+04</totfact>
</mgrwt>
</event>
<event>
 4    1  0.1352171E+004  0.2073140E+02  0.7546771E-02  0.1731163E+00
         -2   -1    0    0    0  501 -0.00000000000E+00  0.00000000000E+00  0.28233799294E+02  0.28233799294E+02  0.00000000000E+00 0. -1.
          2   -1    0    0  501    0  0.00000000000E+00 -0.00000000000E+00 -0.36174981154E+02  0.36174981154E+02  0.00000000000E+00 0.  1.
          2    1    1    2  502    0 -0.72567386424E+01 -0.19419856275E+02 -0.28479720934E+02  0.35226205841E+02  0.00000000000E+00 0.  1.
         -2    1    1    2    0  502  0.72567386424E+01  0.19419856275E+02  0.20538539074E+02  0.29182574608E+02  0.00000000000E+00 0. -1.
<mgrwt>
<rscale>  2 0.20731403E+02</rscale>
<asrwt>0</asrwt>
<pdfrwt beam="2">  1        2 0.55653817E-02 0.20731403E+02</pdfrwt>
<pdfrwt beam="1">  1       -2 0.43436615E-02 0.20731403E+02</pdfrwt>
<totfact> 0.19143915E+05</totfact>
</mgrwt>
</event>
<event>
 4    1  0.1352171E+004  0.2216744E+02  0.7546771E-02  0.1705372E+00
          2   -1    0    0  501    0  0.00000000000E+00  0.00000000000E+00  0.94683593690E+02  0.94683593690E+02  0.00000000000E+00 0.  1.
         -2   -1    0    0    0  501 -0.00000000000E+00 -0.00000000000E+00 -0.51994057589E+01  0.51994057589E+01  0.00000000000E+00 0.  1.
          2    1    1    2  502    0 -0.65637163266E+01  0.21173388253E+02  0.42602384860E+02  0.48024555572E+02  0.00000000000E+00 0.  1.
         -2    1    1    2    0  502  0.65637163266E+01 -0.21173388253E+02  0.46881803071E+02  0.51858443877E+02  0.00000000000E+00 0.  1.
<mgrwt>
<rscale>  2 0.22167436E+02</rscale>
<asrwt>0</asrwt>
<pdfrwt beam="1">  1        2 0.14566705E-01 0.22167436E+02</pdfrwt>
<pdfrwt beam="2">  1       -2 0.79990865E-03 0.22167436E+02</pdfrwt>
<totfact> 0.65038431E+05</totfact>
</mgrwt>
</event>
<event>
 4    1  0.1352171E+004  0.2207942E+02  0.7546771E-02  0.1706882E+00
         -2   -1    0    0    0  501 -0.00000000000E+00  0.00000000000E+00  0.16436685699E+01  0.16436685699E+01  0.00000000000E+00 0.  1.
          2   -1    0    0  501    0  0.00000000000E+00 -0.00000000000E+00 -0.32712462951E+03  0.32712462951E+03  0.00000000000E+00 0.  1.
          2    1    1    2  502    0 -0.96140828363E+01  0.19876375500E+02 -0.21296051550E+03  0.21410203654E+03  0.00000000000E+00 0.  1.
         -2    1    1    2    0  502  0.96140828363E+01 -0.19876375500E+02 -0.11252044545E+03  0.11466626154E+03  0.00000000000E+00 0.  1.
<mgrwt>
<rscale>  2 0.22079422E+02</rscale>
<asrwt>0</asrwt>
<pdfrwt beam="2">  1        2 0.50326874E-01 0.22079422E+02</pdfrwt>
<pdfrwt beam="1">  1       -2 0.25287205E-03 0.22079422E+02</pdfrwt>
<totfact> 0.84624922E+05</totfact>
</mgrwt>
</event>
<event>
 4    1  0.1352171E+004  0.3420024E+02  0.7546771E-02  0.1555820E+00
          2   -1    0    0  501    0  0.00000000000E+00  0.00000000000E+00  0.89694508032E+03  0.89694508032E+03  0.00000000000E+00 0. -1.
         -2   -1    0    0    0  501 -0.00000000000E+00 -0.00000000000E+00 -0.30961008329E+01  0.30961008329E+01  0.00000000000E+00 0.  1.
          2    1    1    2  502    0 -0.11231934380E+02  0.32303247304E+02  0.78929841963E+03  0.79003901888E+03  0.00000000000E+00 0. -1.
         -2    1    1    2    0  502  0.11231934380E+02 -0.32303247304E+02  0.10455055986E+03  0.11000216226E+03  0.00000000000E+00 0.  1.
<mgrwt>
<rscale>  2 0.34200236E+02</rscale>
<asrwt>0</asrwt>
<pdfrwt beam="1">  1        2 0.13799134E+00 0.34200236E+02</pdfrwt>
<pdfrwt beam="2">  1       -2 0.47632392E-03 0.34200236E+02</pdfrwt>
<totfact> 0.13989029E+05</totfact>
</mgrwt>
</event>
<event>
 4    1  0.1352171E+004  0.2899835E+02  0.7546771E-02  0.1609432E+00
         -2   -1    0    0    0  501 -0.00000000000E+00  0.00000000000E+00  0.57329728824E+01  0.57329728824E+01  0.00000000000E+00 0.  1.
          2   -1    0    0  501    0  0.00000000000E+00 -0.00000000000E+00 -0.15238063528E+03  0.15238063528E+03  0.00000000000E+00 0.  1.
          2    1    1    2  502    0  0.25707064934E+02  0.13418287932E+02 -0.58030763446E+02  0.64872745777E+02  0.00000000000E+00 0.  1.
         -2    1    1    2    0  502 -0.25707064934E+02 -0.13418287932E+02 -0.88616898955E+02  0.93240862389E+02  0.00000000000E+00 0.  1.
<mgrwt>
<rscale>  2 0.28998353E+02</rscale>
<asrwt>0</asrwt>
<pdfrwt beam="2">  1        2 0.23443174E-01 0.28998353E+02</pdfrwt>
<pdfrwt beam="1">  1       -2 0.88199585E-03 0.28998353E+02</pdfrwt>
<totfact> 0.37015432E+05</totfact>
</mgrwt>
</event>
<event>
 4    1  0.1352171E+004  0.2077182E+02  0.7546771E-02  0.1730401E+00
          2   -1    0    0  501    0  0.00000000000E+00  0.00000000000E+00  0.14115822484E+03  0.14115822484E+03  0.00000000000E+00 0. -1.
         -2   -1    0    0    0  501 -0.00000000000E+00 -0.00000000000E+00 -0.69503664821E+01  0.69503664821E+01  0.00000000000E+00 0.  1.
          2    1    1    2  502    0  0.16428283599E+02  0.12711414915E+02  0.12253198420E+03  0.12428015015E+03  0.00000000000E+00 0. -1.
         -2    1    1    2    0  502 -0.16428283599E+02 -0.12711414915E+02  0.11675874164E+02  0.23828441171E+02  0.00000000000E+00 0.  1.
<mgrwt>
<rscale>  2 0.20771822E+02</rscale>
<asrwt>0</asrwt>
<pdfrwt beam="1">  1        2 0.21716648E-01 0.20771822E+02</pdfrwt>
<pdfrwt beam="2">  1       -2 0.10692873E-02 0.20771822E+02</pdfrwt>
<totfact> 0.28114618E+05</totfact>
</mgrwt>
</event>
<event>
 4    1  0.1352171E+004  0.2031404E+02  0.7546771E-02  0.1739154E+00
         -2   -1    0    0    0  501 -0.00000000000E+00  0.00000000000E+00  0.45505488591E+02  0.45505488591E+02  0.00000000000E+00 0.  1.
          2   -1    0    0  501    0  0.00000000000E+00 -0.00000000000E+00 -0.16648929484E+03  0.16648929484E+03  0.00000000000E+00 0.  1.
          2    1    1    2  502    0  0.14052680866E+02 -0.14669097300E+02 -0.16356213717E+03  0.16481878828E+03  0.00000000000E+00 0.  1.
         -2    1    1    2    0  502 -0.14052680866E+02  0.14669097300E+02  0.42578330916E+02  0.47175995153E+02  0.00000000000E+00 0.  1.
<mgrwt>
<rscale>  2 0.20314041E+02</rscale>
<asrwt>0</asrwt>
<pdfrwt beam="2">  1        2 0.25613738E-01 0.20314041E+02</pdfrwt>
<pdfrwt beam="1">  1       -2 0.70008444E-02 0.20314041E+02</pdfrwt>
<totfact> 0.17502215E+04</totfact>
</mgrwt>
</event>
<event>
 4    1  0.1352171E+004  0.3291006E+02  0.7546771E-02  0.1567984E+00
          2   -1    0    0  501    0  0.00000000000E+00  0.00000000000E+00  0.10725912512E+04  0.10725912512E+04  0.00000000000E+00 0. -1.
         -2   -1    0    0    0  501 -0.00000000000E+00 -0.00000000000E+00 -0.31251901874E+01  0.31251901874E+01  0.00000000000E+00 0. -1.
          2    1    1    2  502    0 -0.20182629342E+02 -0.25994873873E+02  0.97724779033E+03  0.97780177731E+03  0.00000000000E+00 0. -1.
         -2    1    1    2    0  502  0.20182629342E+02  0.25994873873E+02  0.92218270685E+02  0.97914664086E+02  0.00000000000E+00 0. -1.
<mgrwt>
<rscale>  2 0.32910059E+02</rscale>
<asrwt>0</asrwt>
<pdfrwt beam="1">  1        2 0.16501374E+00 0.32910059E+02</pdfrwt>
<pdfrwt beam="2">  1       -2 0.48079935E-03 0.32910059E+02</pdfrwt>
<totfact> 0.10929828E+05</totfact>
</mgrwt>
</event>
<event>
 4    1  0.1352171E+004  0.2096718E+02  0.7546771E-02  0.1726751E+00
         -2   -1    0    0    0  501 -0.00000000000E+00  0.00000000000E+00  0.18561163688E+03  0.18561163688E+03  0.00000000000E+00 0.  1.
          2   -1    0    0  501    0  0.00000000000E+00 -0.00000000000E+00 -0.83397565569E+01  0.83397565569E+01  0.00000000000E+00 0. -1.
          2    1    1    2  502    0  0.11321814878E+02  0.17647644019E+02  0.65783497000E+01  0.21974929268E+02  0.00000000000E+00 0. -1.
         -2    1    1    2    0  502 -0.11321814878E+02 -0.17647644019E+02  0.17069353063E+03  0.17197646417E+03  0.00000000000E+00 0.  1.
<mgrwt>
<rscale>  2 0.20967185E+02</rscale>
<asrwt>0</asrwt>
<pdfrwt beam="2">  1        2 0.12830396E-02 0.20967185E+02</pdfrwt>
<pdfrwt beam="1">  1       -2 0.28555633E-01 0.20967185E+02</pdfrwt>
<totfact> 0.69936892E+04</totfact>
</mgrwt>
</event>
<event>
 4    1  0.1352171E+004  0.3211284E+02  0.7546771E-02  0.1575843E+00
         -2   -1    0    0    0  501 -0.00000000000E+00  0.00000000000E+00  0.38524896208E+03  0.38524896208E+03  0.00000000000E+00 0.  1.
          2   -1    0    0  501    0  0.00000000000E+00 -0.00000000000E+00 -0.47209500535E+03  0.47209500535E+03  0.00000000000E+00 0. -1.
          2    1    1    2  502    0 -0.32792917656E+01 -0.31944963478E+02 -0.47087798297E+03  0.47197172510E+03  0.00000000000E+00 0. -1.
         -2    1    1    2    0  502  0.32792917656E+01  0.31944963478E+02  0.38403193970E+03  0.38537224233E+03  0.00000000000E+00 0.  1.
<mgrwt>
<rscale>  2 0.32112839E+02</rscale>
<asrwt>0</asrwt>
<pdfrwt beam="2">  1        2 0.72630001E-01 0.32112839E+02</pdfrwt>
<pdfrwt beam="1">  1       -2 0.59269071E-01 0.32112839E+02</pdfrwt>
<totfact> 0.18792792E+02</totfact>
</mgrwt>
</event>
<event>
 4    1  0.1352171E+004  0.2015426E+02  0.7546771E-02  0.1742278E+00
         -2   -1    0    0    0  501 -0.00000000000E+00  0.00000000000E+00  0.48162130276E+01  0.48162130276E+01  0.00000000000E+00 0. -1.
          2   -1    0    0  501    0  0.00000000000E+00 -0.00000000000E+00 -0.11723134462E+03  0.11723134462E+03  0.00000000000E+00 0.  1.
          2    1    1    2  502    0  0.11483965293E+02 -0.16562384891E+02 -0.88531586630E+02  0.90796673306E+02  0.00000000000E+00 0.  1.
         -2    1    1    2    0  502 -0.11483965293E+02  0.16562384891E+02 -0.23883544959E+02  0.31250884338E+02  0.00000000000E+00 0. -1.
<mgrwt>
<rscale>  2 0.20154256E+02</rscale>
<asrwt>0</asrwt>
<pdfrwt beam="2">  1        2 0.18035590E-01 0.20154256E+02</pdfrwt>
<pdfrwt beam="1">  1       -2 0.74095591E-03 0.20154256E+02</pdfrwt>
<totfact> 0.55460751E+05</totfact>
</mgrwt>
</event>
<event>
 4    1  0.1352171E+004  0.2447663E+02  0.7546771E-02  0.1668635E+00
         -2   -1    0    0    0  501 -0.00000000000E+00  0.00000000000E+00  0.10803468884E+03  0.10803468884E+03  0.00000000000E+00 0.  1.
          2   -1    0    0  501    0  0.00000000000E+00 -0.00000000000E+00 -0.39156184178E+02  0.39156184178E+02  0.00000000000E+00 0. -1.
          2    1    1    2  502    0 -0.24470351953E+02 -0.55432377960E+00 -0.33745840890E+02  0.41687974008E+02  0.00000000000E+00 0. -1.
         -2    1    1    2    0  502  0.24470351953E+02  0.55432377960E+00  0.10262434555E+03  0.10550289901E+03  0.00000000000E+00 0.  1.
<mgrwt>
<rscale>  2 0.24476630E+02</rscale>
<asrwt>0</asrwt>
<pdfrwt beam="2">  1        2 0.60240284E-02 0.24476630E+02</pdfrwt>
<pdfrwt beam="1">  1       -2 0.16620721E-01 0.24476630E+02</pdfrwt>
<totfact> 0.25003547E+04</totfact>
</mgrwt>
</event>
<event>
 4    1  0.1352171E+004  0.2243312E+02  0.7546771E-02  0.1700867E+00
          2   -1    0    0  501    0  0.00000000000E+00  0.00000000000E+00  0.75226198457E+01  0.75226198457E+01  0.00000000000E+00 0.  1.
         -2   -1    0    0    0  501 -0.00000000000E+00 -0.00000000000E+00 -0.84424227487E+02  0.84424227487E+02  0.00000000000E+00 0.  1.
          2    1    1    2  502    0 -0.19484525837E+02  0.11117473372E+02 -0.17503752694E+02  0.28453933290E+02  0.00000000000E+00 0.  1.
         -2    1    1    2    0  502  0.19484525837E+02 -0.11117473372E+02 -0.59397854947E+02  0.63492914043E+02  0.00000000000E+00 0.  1.
<mgrwt>
<rscale>  2 0.22433122E+02</rscale>
<asrwt>0</asrwt>
<pdfrwt beam="1">  1        2 0.11573262E-02 0.22433122E+02</pdfrwt>
<pdfrwt beam="2">  1       -2 0.12988342E-01 0.22433122E+02</pdfrwt>
<totfact> 0.28816612E+05</totfact>
</mgrwt>
</event>
<event>
 4    1  0.1352171E+004  0.2059920E+02  0.7546771E-02  0.1733668E+00
          2   -1    0    0  501    0  0.00000000000E+00  0.00000000000E+00  0.50497938710E+02  0.50497938710E+02  0.00000000000E+00 0.  1.
         -2   -1    0    0    0  501 -0.00000000000E+00 -0.00000000000E+00 -0.28069754813E+02  0.28069754813E+02  0.00000000000E+00 0.  1.
          2    1    1    2  502    0  0.23175311604E+01  0.20468415511E+02  0.44096424981E+02  0.48670542223E+02  0.00000000000E+00 0.  1.
         -2    1    1    2    0  502 -0.23175311604E+01 -0.20468415511E+02 -0.21668241083E+02  0.29897151300E+02  0.00000000000E+00 0.  1.
<mgrwt>
<rscale>  2 0.20599199E+02</rscale>
<asrwt>0</asrwt>
<pdfrwt beam="1">  1        2 0.77689136E-02 0.20599199E+02</pdfrwt>
<pdfrwt beam="2">  1       -2 0.43184238E-02 0.20599199E+02</pdfrwt>
<totfact> 0.12947876E+05</totfact>
</mgrwt>
</event>
<event>
 4    1  0.1352171E+004  0.2277332E+02  0.7546771E-02  0.1695211E+00
          2   -1    0    0  501    0  0.00000000000E+00  0.00000000000E+00  0.68903940827E+02  0.68903940827E+02  0.00000000000E+00 0.  1.
         -2   -1    0    0    0  501 -0.00000000000E+00 -0.00000000000E+00 -0.34982481168E+02  0.34982481168E+02  0.00000000000E+00 0. -1.
          2    1    1    2  502    0  0.15813220894E+02 -0.16387993288E+02  0.62977890493E+02  0.66968940338E+02  0.00000000000E+00 0.  1.
         -2    1    1    2    0  502 -0.15813220894E+02  0.16387993288E+02 -0.29056430834E+02  0.36917481656E+02  0.00000000000E+00 0. -1.
<mgrwt>
<rscale>  2 0.22773324E+02</rscale>
<asrwt>0</asrwt>
<pdfrwt beam="1">  1        2 0.10600606E-01 0.22773324E+02</pdfrwt>
<pdfrwt beam="2">  1       -2 0.53819202E-02 0.22773324E+02</pdfrwt>
<totfact> 0.67842633E+04</totfact>
</mgrwt>
</event>
<event>
 4    1  0.1352171E+004  0.2477685E+02  0.7546771E-02  0.1664228E+00
         -2   -1    0    0    0  501 -0.00000000000E+00  0.00000000000E+00  0.38890497850E+01  0.38890497850E+01  0.00000000000E+00 0. -1.
          2   -1    0    0  501    0  0.00000000000E+00 -0.00000000000E+00 -0.43826775786E+03  0.43826775786E+03  0.00000000000E+00 0. -1.
          2    1    1    2  502    0 -0.24439797606E+02 -0.40729275721E+01 -0.39402838782E+03  0.39480661450E+03  0.00000000000E+00 0. -1.
         -2    1    1    2    0  502  0.24439797606E+02  0.40729275721E+01 -0.40350320256E+02  0.47350193144E+02  0.00000000000E+00 0. -1.
<mgrwt>
<rscale>  2 0.24776853E+02</rscale>
<asrwt>0</asrwt>
<pdfrwt beam="2">  1        2 0.67425758E-01 0.24776853E+02</pdfrwt>
<pdfrwt beam="1">  1       -2 0.59831580E-03 0.24776853E+02</pdfrwt>
<totfact> 0.20728109E+05</totfact>
</mgrwt>
</event>
<event>
 4    1  0.1352171E+004  0.2098483E+02  0.7546771E-02  0.1726424E+00
         -2   -1    0    0    0  501 -0.00000000000E+00  0.00000000000E+00  0.19538301290E+01  0.19538301290E+01  0.00000000000E+00 0.  1.
          2   -1    0    0  501    0  0.00000000000E+00 -0.00000000000E+00 -0.23684214677E+03  0.23684214677E+03  0.00000000000E+00 0. -1.
          2    1    1    2  502    0 -0.16797112377E+02 -0.12578549098E+02 -0.14370548351E+03  0.14522957299E+03  0.00000000000E+00 0. -1.
         -2    1    1    2    0  502  0.16797112377E+02  0.12578549098E+02 -0.91182833128E+02  0.93566403900E+02  0.00000000000E+00 0.  1.
<mgrwt>
<rscale>  2 0.20984825E+02</rscale>
<asrwt>0</asrwt>
<pdfrwt beam="2">  1        2 0.36437245E-01 0.20984825E+02</pdfrwt>
<pdfrwt beam="1">  1       -2 0.30058932E-03 0.20984825E+02</pdfrwt>
<totfact> 0.90935065E+05</totfact>
</mgrwt>
</event>
<event>
 4    1  0.1352171E+004  0.2021840E+02  0.7546771E-02  0.1741019E+00
         -2   -1    0    0    0  501 -0.00000000000E+00  0.00000000000E+00  0.35723325347E+03  0.35723325347E+03  0.00000000000E+00 0.  1.
          2   -1    0    0  501    0  0.00000000000E+00 -0.00000000000E+00 -0.68133899281E+01  0.68133899281E+01  0.00000000000E+00 0.  1.
          2    1    1    2  502    0  0.13204257261E+02  0.15311155643E+02  0.91740762233E+01  0.22202422649E+02  0.00000000000E+00 0.  1.
         -2    1    1    2    0  502 -0.13204257261E+02 -0.15311155643E+02  0.34124578732E+03  0.34184422075E+03  0.00000000000E+00 0.  1.
<mgrwt>
<rscale>  2 0.20218405E+02</rscale>
<asrwt>0</asrwt>
<pdfrwt beam="2">  1        2 0.10482141E-02 0.20218405E+02</pdfrwt>
<pdfrwt beam="1">  1       -2 0.54958948E-01 0.20218405E+02</pdfrwt>
<totfact> 0.27550329E+04</totfact>
</mgrwt>
</event>
<event>
 4    1  0.1352171E+004  0.2873465E+02  0.7546771E-02  0.1612512E+00
          2   -1    0    0  501    0  0.00000000000E+00  0.00000000000E+00  0.46414024971E+02  0.46414024971E+02  0.00000000000E+00 0.  1.
         -2   -1    0    0    0  501 -0.00000000000E+00 -0.00000000000E+00 -0.46830320649E+02  0.46830320649E+02  0.00000000000E+00 0.  1.
          2    1    1    2  502    0 -0.19636419711E+02  0.20978351507E+02  0.36506022837E+02  0.46458259915E+02  0.00000000000E+00 0.  1.
         -2    1    1    2    0  502  0.19636419711E+02 -0.20978351507E+02 -0.36922318515E+02  0.46786085705E+02  0.00000000000E+00 0.  1.
<mgrwt>
<rscale>  2 0.28734652E+02</rscale>
<asrwt>0</asrwt>
<pdfrwt beam="1">  1        2 0.71406192E-02 0.28734652E+02</pdfrwt>
<pdfrwt beam="2">  1       -2 0.72046647E-02 0.28734652E+02</pdfrwt>
<totfact> 0.74590268E+04</totfact>
</mgrwt>
</event>
<event>
 4    1  0.1352171E+004  0.2035934E+02  0.7546771E-02  0.1738275E+00
         -2   -1    0    0    0  501 -0.00000000000E+00  0.00000000000E+00  0.11712742130E+02  0.11712742130E+02  0.00000000000E+00 0.  1.
          2   -1    0    0  501    0  0.00000000000E+00 -0.00000000000E+00 -0.79707723433E+03  0.79707723433E+03  0.00000000000E+00 0.  1.
          2    1    1    2  502    0 -0.20359246919E+02  0.60193631446E-01 -0.78799805069E+03  0.78826101670E+03  0.00000000000E+00 0.  1.
         -2    1    1    2    0  502  0.20359246919E+02 -0.60193631446E-01  0.26335584911E+01  0.20528959758E+02  0.00000000000E+00 0.  1.
<mgrwt>
<rscale>  2 0.20359336E+02</rscale>
<asrwt>0</asrwt>
<pdfrwt beam="2">  1        2 0.12262729E+00 0.20359336E+02</pdfrwt>
<pdfrwt beam="1">  1       -2 0.18019599E-02 0.20359336E+02</pdfrwt>
<totfact> 0.23942853E+04</totfact>
</mgrwt>
</event>
<event>
 4    1  0.1352171E+004  0.2587108E+02  0.7546771E-02  0.1648797E+00
          2   -1    0    0  501    0  0.00000000000E+00  0.00000000000E+00  0.37250846265E+03  0.37250846265E+03  0.00000000000E+00 0. -1.
         -2   -1    0    0    0  501 -0.00000000000E+00 -0.00000000000E+00 -0.34485709189E+01  0.34485709189E+01  0.00000000000E+00 0. -1.
          2    1    1    2  502    0 -0.48432513974E+01  0.25413690816E+02  0.31462693037E+03  0.31568879942E+03  0.00000000000E+00 0. -1.
         -2    1    1    2    0  502  0.48432513974E+01 -0.25413690816E+02  0.54432961368E+02  0.60268234156E+02  0.00000000000E+00 0. -1.
<mgrwt>
<rscale>  2 0.25871080E+02</rscale>
<asrwt>0</asrwt>
<pdfrwt beam="1">  1        2 0.57308962E-01 0.25871080E+02</pdfrwt>
<pdfrwt beam="2">  1       -2 0.53054967E-03 0.25871080E+02</pdfrwt>
<totfact> 0.28966050E+05</totfact>
</mgrwt>
</event>
<event>
 4    1  0.1352171E+004  0.2031368E+02  0.7546771E-02  0.1739161E+00
          2   -1    0    0  501    0  0.00000000000E+00  0.00000000000E+00  0.70026406138E+03  0.70026406138E+03  0.00000000000E+00 0. -1.
         -2   -1    0    0    0  501 -0.00000000000E+00 -0.00000000000E+00 -0.26254722116E+02  0.26254722116E+02  0.00000000000E+00 0. -1.
          2    1    1    2  502    0 -0.19103417586E+02  0.69068867243E+01  0.69616435739E+03  0.69646066519E+03  0.00000000000E+00 0. -1.
         -2    1    1    2    0  502  0.19103417586E+02 -0.69068867243E+01 -0.22155018132E+02  0.30058118307E+02  0.00000000000E+00 0. -1.
<mgrwt>
<rscale>  2 0.20313681E+02</rscale>
<asrwt>0</asrwt>
<pdfrwt beam="1">  1        2 0.10773292E+00 0.20313681E+02</pdfrwt>
<pdfrwt beam="2">  1       -2 0.40391886E-02 0.20313681E+02</pdfrwt>
<totfact> 0.90694590E+03</totfact>
</mgrwt>
</event>
<event>
 4    1  0.1352171E+004  0.2208264E+02  0.7546771E-02  0.1706827E+00
         -2   -1    0    0    0  501 -0.00000000000E+00  0.00000000000E+00  0.28006505017E+01  0.28006505017E+01  0.00000000000E+00 0. -1.
          2   -1    0    0  501    0  0.00000000000E+00 -0.00000000000E+00 -0.14898045059E+04  0.14898045059E+04  0.00000000000E+00 0.  1.
          2    1    1    2  502    0  0.10746675291E+02  0.19291235050E+02 -0.14448386229E+04  0.14450073664E+04  0.00000000000E+00 0.  1.
         -2    1    1    2    0  502 -0.10746675291E+02 -0.19291235050E+02 -0.42165232489E+02  0.47597789974E+02  0.00000000000E+00 0. -1.
<mgrwt>
<rscale>  2 0.22082635E+02</rscale>
<asrwt>0</asrwt>
<pdfrwt beam="2">  1        2 0.22920021E+00 0.22082635E+02</pdfrwt>
<pdfrwt beam="1">  1       -2 0.43087022E-03 0.22082635E+02</pdfrwt>
<totfact> 0.72917136E+04</totfact>
</mgrwt>
</event>
<event>
 4    1  0.1352171E+004  0.2515579E+02  0.7546771E-02  0.1658774E+00
         -2   -1    0    0    0  501 -0.00000000000E+00  0.00000000000E+00  0.15143469777E+03  0.15143469777E+03  0.00000000000E+00 0.  1.
          2   -1    0    0  501    0  0.00000000000E+00 -0.00000000000E+00 -0.19099714426E+02  0.19099714426E+02  0.00000000000E+00 0. -1.
          2    1    1    2  502    0  0.19835369558E+02 -0.15471625196E+02  0.14153194121E+03  0.14375014245E+03  0.00000000000E+00 0.  1.
         -2    1    1    2    0  502 -0.19835369558E+02  0.15471625196E+02 -0.91969578676E+01  0.26784269744E+02  0.00000000000E+00 0. -1.
<mgrwt>
<rscale>  2 0.25155789E+02</rscale>
<asrwt>0</asrwt>
<pdfrwt beam="2">  1        2 0.29384177E-02 0.25155789E+02</pdfrwt>
<pdfrwt beam="1">  1       -2 0.23297645E-01 0.25155789E+02</pdfrwt>
<totfact> 0.35550079E+04</totfact>
</mgrwt>
</event>
<event>
 4    1  0.1352171E+004  0.2493530E+02  0.7546771E-02  0.1661933E+00
         -2   -1    0    0    0  501 -0.00000000000E+00  0.00000000000E+00  0.50945219247E+02  0.50945219247E+02  0.00000000000E+00 0.  1.
          2   -1    0    0  501    0  0.00000000000E+00 -0.00000000000E+00 -0.51033757954E+02  0.51033757954E+02  0.00000000000E+00 0.  1.
          2    1    1    2  502    0 -0.23948639737E+02  0.69448983240E+01 -0.44520763382E+02  0.51028103336E+02  0.00000000000E+00 0.  1.
         -2    1    1    2    0  502  0.23948639737E+02 -0.69448983240E+01  0.44432224675E+02  0.50950873864E+02  0.00000000000E+00 0.  1.
<mgrwt>
<rscale>  2 0.24935295E+02</rscale>
<asrwt>0</asrwt>
<pdfrwt beam="2">  1        2 0.78513474E-02 0.24935295E+02</pdfrwt>
<pdfrwt beam="1">  1       -2 0.78377260E-02 0.24935295E+02</pdfrwt>
<totfact> 0.57061518E+04</totfact>
</mgrwt>
</event>
<event>
 4    1  0.1352171E+004  0.2465161E+02  0.7546771E-02  0.1666057E+00
          2   -1    0    0  501    0  0.00000000000E+00  0.00000000000E+00  0.69011329093E+02  0.69011329093E+02  0.00000000000E+00 0.  1.
         -2   -1    0    0    0  501 -0.00000000000E+00 -0.00000000000E+00 -0.31230503237E+02  0.31230503237E+02  0.00000000000E+00 0. -1.
          2    1    1    2  502    0 -0.16930437561E+02 -0.17918207285E+02  0.61361423453E+02  0.66128104135E+02  0.00000000000E+00 0.  1.
         -2    1    1    2    0  502  0.16930437561E+02  0.17918207285E+02 -0.23580597597E+02  0.34113728195E+02  0.00000000000E+00 0. -1.
<mgrwt>
<rscale>  2 0.24651610E+02</rscale>
<asrwt>0</asrwt>
<pdfrwt beam="1">  1        2 0.10617128E-01 0.24651610E+02</pdfrwt>
<pdfrwt beam="2">  1       -2 0.48046928E-02 0.24651610E+02</pdfrwt>
<totfact> 0.81088577E+04</totfact>
</mgrwt>
</event>
<event>
 4    1  0.1352171E+004  0.2286984E+02  0.7546771E-02  0.1693629E+00
          2   -1    0    0  501    0  0.00000000000E+00  0.00000000000E+00  0.34156136820E+03  0.34156136820E+03  0.00000000000E+00 0. -1.
         -2   -1    0    0    0  501 -0.00000000000E+00 -0.00000000000E+00 -0.21245230529E+03  0.21245230529E+03  0.00000000000E+00 0. -1.
          2    1    1    2  502    0  0.22705847394E+02 -0.27338534510E+01  0.34056127347E+03  0.34132830303E+03  0.00000000000E+00 0. -1.
         -2    1    1    2    0  502 -0.22705847394E+02  0.27338534510E+01 -0.21145221056E+03  0.21268537046E+03  0.00000000000E+00 0. -1.
<mgrwt>
<rscale>  2 0.22869837E+02</rscale>
<asrwt>0</asrwt>
<pdfrwt beam="1">  1        2 0.52547903E-01 0.22869837E+02</pdfrwt>
<pdfrwt beam="2">  1       -2 0.32684970E-01 0.22869837E+02</pdfrwt>
<totfact> 0.77870996E+02</totfact>
</mgrwt>
</event>
<event>
 4    1  0.1352171E+004  0.3170107E+02  0.7546771E-02  0.1580012E+00
          2   -1    0    0  501    0  0.00000000000E+00  0.00000000000E+00  0.32138178706E+01  0.32138178706E+01  0.00000000000E+00 0. -1.
         -2   -1    0    0    0  501 -0.00000000000E+00 -0.00000000000E+00 -0.39119604999E+03  0.39119604999E+03  0.00000000000E+00 0. -1.
          2    1    1    2  502    0 -0.30508154254E+02  0.86145466605E+01 -0.10565323176E+03  0.11030667827E+03  0.00000000000E+00 0. -1.
         -2    1    1    2    0  502  0.30508154254E+02 -0.86145466605E+01 -0.28232900037E+03  0.28410318959E+03  0.00000000000E+00 0. -1.
<mgrwt>
<rscale>  2 0.31701071E+02</rscale>
<asrwt>0</asrwt>
<pdfrwt beam="1">  1        2 0.49443396E-03 0.31701071E+02</pdfrwt>
<pdfrwt beam="2">  1       -2 0.60183954E-01 0.31701071E+02</pdfrwt>
<totfact> 0.69129868E+04</totfact>
</mgrwt>
</event>
<event>
 4    1  0.1352171E+004  0.2060570E+02  0.7546771E-02  0.1733545E+00
          2   -1    0    0  501    0  0.00000000000E+00  0.00000000000E+00  0.24552690662E+03  0.24552690662E+03  0.00000000000E+00 0.  1.
         -2   -1    0    0    0  501 -0.00000000000E+00 -0.00000000000E+00 -0.32956087300E+01  0.32956087300E+01  0.00000000000E+00 0. -1.
          2    1    1    2  502    0 -0.20544490147E+02  0.15870331035E+01  0.20688412225E+03  0.20790775548E+03  0.00000000000E+00 0.  1.
         -2    1    1    2    0  502  0.20544490147E+02 -0.15870331035E+01  0.35347175636E+02  0.40914759866E+02  0.00000000000E+00 0. -1.
<mgrwt>
<rscale>  2 0.20605697E+02</rscale>
<asrwt>0</asrwt>
<pdfrwt beam="1">  1        2 0.37773356E-01 0.20605697E+02</pdfrwt>
<pdfrwt beam="2">  1       -2 0.50701692E-03 0.20605697E+02</pdfrwt>
<totfact> 0.43522529E+05</totfact>
</mgrwt>
</event>
<event>
 4    1  0.1352171E+004  0.2980409E+02  0.7546771E-02  0.1600264E+00
         -2   -1    0    0    0  501 -0.00000000000E+00  0.00000000000E+00  0.93216944714E+02  0.93216944714E+02  0.00000000000E+00 0. -1.
          2   -1    0    0  501    0  0.00000000000E+00 -0.00000000000E+00 -0.39071983233E+03  0.39071983233E+03  0.00000000000E+00 0.  1.
          2    1    1    2  502    0  0.56145809680E+00  0.29798805466E+02 -0.38775095185E+03  0.38889469616E+03  0.00000000000E+00 0.  1.
         -2    1    1    2    0  502 -0.56145809680E+00 -0.29798805466E+02  0.90248064228E+02  0.95042080887E+02  0.00000000000E+00 0. -1.
<mgrwt>
<rscale>  2 0.29804094E+02</rscale>
<asrwt>0</asrwt>
<pdfrwt beam="2">  1        2 0.60110746E-01 0.29804094E+02</pdfrwt>
<pdfrwt beam="1">  1       -2 0.14341068E-01 0.29804094E+02</pdfrwt>
<totfact> 0.26817474E+03</totfact>
</mgrwt>
</event>
<event>
 4    1  0.1352171E+004  0.3292849E+02  0.7546771E-02  0.1567805E+00
         -2   -1    0    0    0  501 -0.00000000000E+00  0.00000000000E+00  0.30511371339E+01  0.30511371339E+01  0.00000000000E+00 0.  1.
          2   -1    0    0  501    0  0.00000000000E+00 -0.00000000000E+00 -0.55513095331E+03  0.55513095331E+03  0.00000000000E+00 0. -1.
          2    1    1    2  502    0 -0.32409141820E+02  0.58252195841E+01 -0.44345800213E+03  0.44467885638E+03  0.00000000000E+00 0. -1.
         -2    1    1    2    0  502  0.32409141820E+02 -0.58252195841E+01 -0.10862181405E+03  0.11350323407E+03  0.00000000000E+00 0.  1.
<mgrwt>
<rscale>  2 0.32928493E+02</rscale>
<asrwt>0</asrwt>
<pdfrwt beam="2">  1        2 0.85404743E-01 0.32928493E+02</pdfrwt>
<pdfrwt beam="1">  1       -2 0.46940582E-03 0.32928493E+02</pdfrwt>
<totfact> 0.24205905E+05</totfact>
</mgrwt>
</event>
<event>
 4    1  0.1352171E+004  0.2866472E+02  0.7546771E-02  0.1613335E+00
         -2   -1    0    0    0  501 -0.00000000000E+00  0.00000000000E+00  0.51707753178E+01  0.51707753178E+01  0.00000000000E+00 0.  1.
          2   -1    0    0  501    0  0.00000000000E+00 -0.00000000000E+00 -0.22424350155E+03  0.22424350155E+03  0.00000000000E+00 0.  1.
          2    1    1    2  502    0  0.76595632783E+01 -0.27622400527E+02 -0.17145374882E+03  0.17383340849E+03  0.00000000000E+00 0.  1.
         -2    1    1    2    0  502 -0.76595632783E+01  0.27622400527E+02 -0.47618977405E+02  0.55580868377E+02  0.00000000000E+00 0.  1.
<mgrwt>
<rscale>  2 0.28664716E+02</rscale>
<asrwt>0</asrwt>
<pdfrwt beam="2">  1        2 0.34498993E-01 0.28664716E+02</pdfrwt>
<pdfrwt beam="1">  1       -2 0.79550405E-03 0.28664716E+02</pdfrwt>
<totfact> 0.28532666E+05</totfact>
</mgrwt>
</event>
<event>
 4    1  0.1352171E+004  0.3933212E+02  0.7546771E-02  0.1513185E+00
          2   -1    0    0  501    0  0.00000000000E+00  0.00000000000E+00  0.73449202815E+03  0.73449202815E+03  0.00000000000E+00 0.  1.
         -2   -1    0    0    0  501 -0.00000000000E+00 -0.00000000000E+00 -0.16249805931E+02  0.16249805931E+02  0.00000000000E+00 0.  1.
          2    1    1    2  502    0 -0.30669861643E+02 -0.24624681751E+02  0.70932100906E+03  0.71041066240E+03  0.00000000000E+00 0.  1.
         -2    1    1    2    0  502  0.30669861643E+02  0.24624681751E+02  0.89212131581E+01  0.40331171676E+02  0.00000000000E+00 0.  1.
<mgrwt>
<rscale>  2 0.39332116E+02</rscale>
<asrwt>0</asrwt>
<pdfrwt beam="1">  1        2 0.11299875E+00 0.39332116E+02</pdfrwt>
<pdfrwt beam="2">  1       -2 0.24999707E-02 0.39332116E+02</pdfrwt>
<totfact> 0.18356055E+04</totfact>
</mgrwt>
</event>
<event>
 4    1  0.1352171E+004  0.2673804E+02  0.7546771E-02  0.1637224E+00
          2   -1    0    0  501    0  0.00000000000E+00  0.00000000000E+00  0.14439036252E+04  0.14439036252E+04  0.00000000000E+00 0. -1.
         -2   -1    0    0    0  501 -0.00000000000E+00 -0.00000000000E+00 -0.10671138665E+02  0.10671138665E+02  0.00000000000E+00 0. -1.
          2    1    1    2  502    0  0.14217652330E+02 -0.22644673564E+02  0.14268304619E+04  0.14270809682E+04  0.00000000000E+00 0. -1.
         -2    1    1    2    0  502 -0.14217652330E+02  0.22644673564E+02  0.64020246263E+01  0.27493795626E+02  0.00000000000E+00 0. -1.
<mgrwt>
<rscale>  2 0.26738042E+02</rscale>
<asrwt>0</asrwt>
<pdfrwt beam="1">  1        2 0.22213886E+00 0.26738042E+02</pdfrwt>
<pdfrwt beam="2">  1       -2 0.16417148E-02 0.26738042E+02</pdfrwt>
<totfact> 0.12912352E+04</totfact>
</mgrwt>
</event>
<event>
 4    1  0.1352171E+004  0.5053268E+02  0.7546771E-02  0.1442489E+00
         -2   -1    0    0    0  501 -0.00000000000E+00  0.00000000000E+00  0.13654266999E+02  0.13654266999E+02  0.00000000000E+00 0. -1.
          2   -1    0    0  501    0  0.00000000000E+00 -0.00000000000E+00 -0.61497187383E+03  0.61497187383E+03  0.00000000000E+00 0.  1.
          2    1    1    2  502    0  0.14200671218E+02  0.48496314183E+02 -0.56286011623E+03  0.56512393508E+03  0.00000000000E+00 0.  1.
         -2    1    1    2    0  502 -0.14200671218E+02 -0.48496314183E+02 -0.38457490603E+02  0.63502205756E+02  0.00000000000E+00 0. -1.
<mgrwt>
<rscale>  2 0.50532678E+02</rscale>
<asrwt>0</asrwt>
<pdfrwt beam="2">  1        2 0.94611040E-01 0.50532678E+02</pdfrwt>
<pdfrwt beam="1">  1       -2 0.21006569E-02 0.50532678E+02</pdfrwt>
<totfact> 0.29527616E+04</totfact>
</mgrwt>
</event>
<event>
 4    1  0.1352171E+004  0.4331794E+02  0.7546771E-02  0.1485124E+00
         -2   -1    0    0    0  501 -0.00000000000E+00  0.00000000000E+00  0.15483990177E+02  0.15483990177E+02  0.00000000000E+00 0.  1.
          2   -1    0    0  501    0  0.00000000000E+00 -0.00000000000E+00 -0.39095857035E+03  0.39095857035E+03  0.00000000000E+00 0.  1.
          2    1    1    2  502    0 -0.19226794669E+02  0.38817189241E+02 -0.35654903464E+03  0.35917079213E+03  0.00000000000E+00 0.  1.
         -2    1    1    2    0  502  0.19226794669E+02 -0.38817189241E+02 -0.18925545531E+02  0.47271768398E+02  0.00000000000E+00 0.  1.
<mgrwt>
<rscale>  2 0.43317939E+02</rscale>
<asrwt>0</asrwt>
<pdfrwt beam="2">  1        2 0.60147466E-01 0.43317939E+02</pdfrwt>
<pdfrwt beam="1">  1       -2 0.23821526E-02 0.43317939E+02</pdfrwt>
<totfact> 0.38905768E+04</totfact>
</mgrwt>
</event>
<event>
 4    1  0.1352171E+004  0.3140627E+02  0.7546771E-02  0.1583045E+00
          2   -1    0    0  501    0  0.00000000000E+00  0.00000000000E+00  0.12271701484E+03  0.12271701484E+03  0.00000000000E+00 0. -1.
         -2   -1    0    0    0  501 -0.00000000000E+00 -0.00000000000E+00 -0.40245899132E+02  0.40245899132E+02  0.00000000000E+00 0.  1.
          2    1    1    2  502    0  0.29771844934E+02 -0.99995467714E+01  0.11412786176E+03  0.11837027717E+03  0.00000000000E+00 0. -1.
         -2    1    1    2    0  502 -0.29771844934E+02  0.99995467714E+01 -0.31656746054E+02  0.44592636805E+02  0.00000000000E+00 0.  1.
<mgrwt>
<rscale>  2 0.31406268E+02</rscale>
<asrwt>0</asrwt>
<pdfrwt beam="1">  1        2 0.18879541E-01 0.31406268E+02</pdfrwt>
<pdfrwt beam="2">  1       -2 0.61916768E-02 0.31406268E+02</pdfrwt>
<totfact> 0.31157331E+04</totfact>
</mgrwt>
</event>
<event>
 4    1  0.1352171E+004  0.2876297E+02  0.7546771E-02  0.1612179E+00
          2   -1    0    0  501    0  0.00000000000E+00  0.00000000000E+00  0.94315743530E+03  0.94315743530E+03  0.00000000000E+00 0. -1.
         -2   -1    0    0    0  501 -0.00000000000E+00 -0.00000000000E+00 -0.88009751422E+00  0.88009751422E+00  0.00000000000E+00 0. -1.
          2    1    1    2  502    0  0.28725145386E+02  0.14743995166E+01  0.44390743647E+03  0.44483830768E+03  0.00000000000E+00 0. -1.
         -2    1    1    2    0  502 -0.28725145386E+02 -0.14743995166E+01  0.49836990132E+03  0.49919922514E+03  0.00000000000E+00 0. -1.
<mgrwt>
<rscale>  2 0.28762974E+02</rscale>
<asrwt>0</asrwt>
<pdfrwt beam="1">  1        2 0.14510034E+00 0.28762974E+02</pdfrwt>
<pdfrwt beam="2">  1       -2 0.13540037E-03 0.28762974E+02</pdfrwt>
<totfact> 0.68572971E+05</totfact>
</mgrwt>
</event>
<event>
 4    1  0.1352171E+004  0.2119483E+02  0.7546771E-02  0.1722561E+00
         -2   -1    0    0    0  501 -0.00000000000E+00  0.00000000000E+00  0.21363759474E+02  0.21363759474E+02  0.00000000000E+00 0. -1.
          2   -1    0    0  501    0  0.00000000000E+00 -0.00000000000E+00 -0.25180015353E+02  0.25180015353E+02  0.00000000000E+00 0.  1.
          2    1    1    2  502    0 -0.21190623171E+02 -0.42221078090E+00 -0.11359027290E+02  0.24046793410E+02  0.00000000000E+00 0.  1.
         -2    1    1    2    0  502  0.21190623171E+02  0.42221078090E+00  0.75427714113E+01  0.22496981417E+02  0.00000000000E+00 0. -1.
<mgrwt>
<rscale>  2 0.21194829E+02</rscale>
<asrwt>0</asrwt>
<pdfrwt beam="2">  1        2 0.38738485E-02 0.21194829E+02</pdfrwt>
<pdfrwt beam="1">  1       -2 0.32867322E-02 0.21194829E+02</pdfrwt>
<totfact> 0.44332579E+05</totfact>
</mgrwt>
</event>
<event>
 4    1  0.1352171E+004  0.2729372E+02  0.7546771E-02  0.1630086E+00
         -2   -1    0    0    0  501 -0.00000000000E+00  0.00000000000E+00  0.15916985028E+03  0.15916985028E+03  0.00000000000E+00 0.  1.
          2   -1    0    0  501    0  0.00000000000E+00 -0.00000000000E+00 -0.64697751662E+02  0.64697751662E+02  0.00000000000E+00 0.  1.
          2    1    1    2  502    0  0.20393423818E+02  0.18139888185E+02 -0.60573140494E+02  0.66438337033E+02  0.00000000000E+00 0.  1.
         -2    1    1    2    0  502 -0.20393423818E+02 -0.18139888185E+02  0.15504523912E+03  0.15742926491E+03  0.00000000000E+00 0.  1.
<mgrwt>
<rscale>  2 0.27293722E+02</rscale>
<asrwt>0</asrwt>
<pdfrwt beam="2">  1        2 0.99535003E-02 0.27293722E+02</pdfrwt>
<pdfrwt beam="1">  1       -2 0.24487669E-01 0.27293722E+02</pdfrwt>
<totfact> 0.74944049E+03</totfact>
</mgrwt>
</event>
<event>
 4    1  0.1352171E+004  0.2190424E+02  0.7546771E-02  0.1709913E+00
         -2   -1    0    0    0  501 -0.00000000000E+00  0.00000000000E+00  0.11758679207E+03  0.11758679207E+03  0.00000000000E+00 0. -1.
          2   -1    0    0  501    0  0.00000000000E+00 -0.00000000000E+00 -0.56820500930E+02  0.56820500930E+02  0.00000000000E+00 0.  1.
          2    1    1    2  502    0 -0.21572328070E+02  0.37987507012E+01 -0.53631070731E+02  0.57931749438E+02  0.00000000000E+00 0.  1.
         -2    1    1    2    0  502  0.21572328070E+02 -0.37987507012E+01  0.11439736187E+03  0.11647554356E+03  0.00000000000E+00 0. -1.
<mgrwt>
<rscale>  2 0.21904243E+02</rscale>
<asrwt>0</asrwt>
<pdfrwt beam="2">  1        2 0.87416155E-02 0.21904243E+02</pdfrwt>
<pdfrwt beam="1">  1       -2 0.18090276E-01 0.21904243E+02</pdfrwt>
<totfact> 0.13762285E+04</totfact>
</mgrwt>
</event>
<event>
 4    1  0.1352171E+004  0.2002351E+02  0.7546771E-02  0.1744861E+00
         -2   -1    0    0    0  501 -0.00000000000E+00  0.00000000000E+00  0.85585930495E+02  0.85585930495E+02  0.00000000000E+00 0. -1.
          2   -1    0    0  501    0  0.00000000000E+00 -0.00000000000E+00 -0.47369031680E+01  0.47369031680E+01  0.00000000000E+00 0. -1.
          2    1    1    2  502    0 -0.19546577010E+02  0.43442297422E+01  0.35681721431E+02  0.40916087901E+02  0.00000000000E+00 0. -1.
         -2    1    1    2    0  502  0.19546577010E+02 -0.43442297422E+01  0.45167305897E+02  0.49406745762E+02  0.00000000000E+00 0. -1.
<mgrwt>
<rscale>  2 0.20023511E+02</rscale>
<asrwt>0</asrwt>
<pdfrwt beam="2">  1        2 0.72875440E-03 0.20023511E+02</pdfrwt>
<pdfrwt beam="1">  1       -2 0.13167065E-01 0.20023511E+02</pdfrwt>
<totfact> 0.49592964E+05</totfact>
</mgrwt>
</event>
<event>
 4    1  0.1352171E+004  0.2127299E+02  0.7546771E-02  0.1721137E+00
         -2   -1    0    0    0  501 -0.00000000000E+00  0.00000000000E+00  0.29130201183E+01  0.29130201183E+01  0.00000000000E+00 0.  1.
          2   -1    0    0  501    0  0.00000000000E+00 -0.00000000000E+00 -0.13048758448E+04  0.13048758448E+04  0.00000000000E+00 0. -1.
          2    1    1    2  502    0  0.20337624703E+02  0.62386922958E+01 -0.12647183275E+04  0.12648972244E+04  0.00000000000E+00 0. -1.
         -2    1    1    2    0  502 -0.20337624703E+02 -0.62386922958E+01 -0.37244497180E+02  0.42891640565E+02  0.00000000000E+00 0.  1.
<mgrwt>
<rscale>  2 0.21272994E+02</rscale>
<asrwt>0</asrwt>
<pdfrwt beam="2">  1        2 0.20075030E+00 0.21272994E+02</pdfrwt>
<pdfrwt beam="1">  1       -2 0.44815657E-03 0.21272994E+02</pdfrwt>
<totfact> 0.84169528E+04</totfact>
</mgrwt>
</event>
<event>
 4    1  0.1411267E+004  0.3232058E+02  0.7546771E-02  0.1573769E+00
         -2   -1    0    0    0  501 -0.00000000000E+00  0.00000000000E+00  0.84831507042E+02  0.84831507042E+02  0.00000000000E+00 0.  1.
          2   -1    0    0  501    0  0.00000000000E+00 -0.00000000000E+00 -0.16917455545E+04  0.16917455545E+04  0.00000000000E+00 0. -1.
          2    1    1    2  502    0  0.31642741232E+02  0.65845988483E+01 -0.16885067656E+04  0.16888160697E+04  0.00000000000E+00 0. -1.
         -2    1    1    2    0  502 -0.31642741232E+02 -0.65845988483E+01  0.81592718170E+02  0.87760991750E+02  0.00000000000E+00 0.  1.
<mgrwt>
<rscale>  2 0.32320582E+02</rscale>
<asrwt>0</asrwt>
<pdfrwt beam="2">  1        2 0.26026854E+00 0.32320582E+02</pdfrwt>
<pdfrwt beam="1">  1       -2 0.13051001E-01 0.32320582E+02</pdfrwt>
<totfact> 0.50260854E+02</totfact>
</mgrwt>
</event>
<event>
 4    1  0.1352171E+004  0.2765752E+02  0.7546771E-02  0.1625525E+00
          2   -1    0    0  501    0  0.00000000000E+00  0.00000000000E+00  0.11581866112E+04  0.11581866112E+04  0.00000000000E+00 0.  1.
         -2   -1    0    0    0  501 -0.00000000000E+00 -0.00000000000E+00 -0.90175608142E+01  0.90175608142E+01  0.00000000000E+00 0.  1.
          2    1    1    2  502    0 -0.23268674605E+02 -0.14950148137E+02  0.11364082393E+04  0.11367447491E+04  0.00000000000E+00 0.  1.
         -2    1    1    2    0  502  0.23268674605E+02  0.14950148137E+02  0.12760811072E+02  0.30459422949E+02  0.00000000000E+00 0.  1.
<mgrwt>
<rscale>  2 0.27657515E+02</rscale>
<asrwt>0</asrwt>
<pdfrwt beam="1">  1        2 0.17818244E+00 0.27657515E+02</pdfrwt>
<pdfrwt beam="2">  1       -2 0.13873180E-02 0.27657515E+02</pdfrwt>
<totfact> 0.22617732E+04</totfact>
</mgrwt>
</event>
<event>
 4    1  0.1352171E+004  0.2066973E+02  0.7546771E-02  0.1732329E+00
          2   -1    0    0  501    0  0.00000000000E+00  0.00000000000E+00  0.14280550519E+04  0.14280550519E+04  0.00000000000E+00 0.  1.
         -2   -1    0    0    0  501 -0.00000000000E+00 -0.00000000000E+00 -0.22092122918E+01  0.22092122918E+01  0.00000000000E+00 0. -1.
          2    1    1    2  502    0  0.14733207140E+02  0.14497250252E+02  0.13778722404E+04  0.13780272670E+04  0.00000000000E+00 0.  1.
         -2    1    1    2    0  502 -0.14733207140E+02 -0.14497250252E+02  0.47973599220E+02  0.52236997230E+02  0.00000000000E+00 0. -1.
<mgrwt>
<rscale>  2 0.20669728E+02</rscale>
<asrwt>0</asrwt>
<pdfrwt beam="1">  1        2 0.21970004E+00 0.20669728E+02</pdfrwt>
<pdfrwt beam="2">  1       -2 0.33987996E-03 0.20669728E+02</pdfrwt>
<totfact> 0.10555305E+05</totfact>
</mgrwt>
</event>
<event>
 4    1  0.1352171E+004  0.3589285E+02  0.7546771E-02  0.1540812E+00
         -2   -1    0    0    0  501 -0.00000000000E+00  0.00000000000E+00  0.97046473709E+00  0.97046473709E+00  0.00000000000E+00 0.  1.
          2   -1    0    0  501    0  0.00000000000E+00 -0.00000000000E+00 -0.18345256157E+04  0.18345256157E+04  0.00000000000E+00 0.  1.
          2    1    1    2  502    0 -0.35770333712E+02 -0.29631232233E+01 -0.13992520574E+04  0.13997123337E+04  0.00000000000E+00 0.  1.
         -2    1    1    2    0  502  0.35770333712E+02  0.29631232233E+01 -0.43430309352E+03  0.43578374673E+03  0.00000000000E+00 0.  1.
<mgrwt>
<rscale>  2 0.35892853E+02</rscale>
<asrwt>0</asrwt>
<pdfrwt beam="2">  1        2 0.28223573E+00 0.35892853E+02</pdfrwt>
<pdfrwt beam="1">  1       -2 0.14930173E-03 0.35892853E+02</pdfrwt>
<totfact> 0.22642292E+05</totfact>
</mgrwt>
</event>
<event>
 4    1  0.1352171E+004  0.2392901E+02  0.7546771E-02  0.1676879E+00
         -2   -1    0    0    0  501 -0.00000000000E+00  0.00000000000E+00  0.45045046350E+00  0.45045046350E+00  0.00000000000E+00 0. -1.
          2   -1    0    0  501    0  0.00000000000E+00 -0.00000000000E+00 -0.14035011973E+04  0.14035011973E+04  0.00000000000E+00 0.  1.
          2    1    1    2  502    0 -0.22035481744E+02 -0.93292707718E+01 -0.91707727660E+03  0.91738940968E+03  0.00000000000E+00 0.  1.
         -2    1    1    2    0  502  0.22035481744E+02  0.93292707718E+01 -0.48597347025E+03  0.48656223809E+03  0.00000000000E+00 0. -1.
<mgrwt>
<rscale>  2 0.23929015E+02</rscale>
<asrwt>0</asrwt>
<pdfrwt beam="2">  1        2 0.21592206E+00 0.23929015E+02</pdfrwt>
<pdfrwt beam="1">  1       -2 0.69300457E-04 0.23929015E+02</pdfrwt>
<totfact> 0.91682417E+05</totfact>
</mgrwt>
</event>
<event>
 4    1  0.1352171E+004  0.2142313E+02  0.7546771E-02  0.1718424E+00
          2   -1    0    0  501    0  0.00000000000E+00  0.00000000000E+00  0.24014665346E+02  0.24014665346E+02  0.00000000000E+00 0.  1.
         -2   -1    0    0    0  501 -0.00000000000E+00 -0.00000000000E+00 -0.19211414593E+02  0.19211414593E+02  0.00000000000E+00 0.  1.
          2    1    1    2  502    0 -0.19119188629E+02 -0.96647357038E+01  0.39621610925E+01  0.21786445570E+02  0.00000000000E+00 0.  1.
         -2    1    1    2    0  502  0.19119188629E+02  0.96647357038E+01  0.84108966108E+00  0.21439634369E+02  0.00000000000E+00 0.  1.
<mgrwt>
<rscale>  2 0.21423130E+02</rscale>
<asrwt>0</asrwt>
<pdfrwt beam="1">  1        2 0.36945639E-02 0.21423130E+02</pdfrwt>
<pdfrwt beam="2">  1       -2 0.29556023E-02 0.21423130E+02</pdfrwt>
<totfact> 0.54669035E+05</totfact>
</mgrwt>
</event>
<event>
 4    1  0.1352171E+004  0.2305553E+02  0.7546771E-02  0.1690612E+00
         -2   -1    0    0    0  501 -0.00000000000E+00  0.00000000000E+00  0.73093570434E+02  0.73093570434E+02  0.00000000000E+00 0.  1.
          2   -1    0    0  501    0  0.00000000000E+00 -0.00000000000E+00 -0.67473292806E+03  0.67473292806E+03  0.00000000000E+00 0. -1.
          2    1    1    2  502    0 -0.54931665967E+01 -0.22391576549E+02 -0.67271244572E+03  0.67310741505E+03  0.00000000000E+00 0. -1.
         -2    1    1    2    0  502  0.54931665967E+01  0.22391576549E+02  0.71073088089E+02  0.74719083440E+02  0.00000000000E+00 0.  1.
<mgrwt>
<rscale>  2 0.23055533E+02</rscale>
<asrwt>0</asrwt>
<pdfrwt beam="2">  1        2 0.10380507E+00 0.23055533E+02</pdfrwt>
<pdfrwt beam="1">  1       -2 0.11245165E-01 0.23055533E+02</pdfrwt>
<totfact> 0.21764677E+03</totfact>
</mgrwt>
</event>
<event>
 4    1  0.1352171E+004  0.3466721E+02  0.7546771E-02  0.1551576E+00
         -2   -1    0    0    0  501 -0.00000000000E+00  0.00000000000E+00  0.36818204424E+01  0.36818204424E+01  0.00000000000E+00 0. -1.
          2   -1    0    0  501    0  0.00000000000E+00 -0.00000000000E+00 -0.33626214290E+03  0.33626214290E+03  0.00000000000E+00 0. -1.
          2    1    1    2  502    0 -0.14409838044E+02 -0.31530474029E+02 -0.13720866407E+03  0.14152042864E+03  0.00000000000E+00 0. -1.
         -2    1    1    2    0  502  0.14409838044E+02  0.31530474029E+02 -0.19537165838E+03  0.19842353471E+03  0.00000000000E+00 0. -1.
<mgrwt>
<rscale>  2 0.34667210E+02</rscale>
<asrwt>0</asrwt>
<pdfrwt beam="2">  1        2 0.51732650E-01 0.34667210E+02</pdfrwt>
<pdfrwt beam="1">  1       -2 0.56643377E-03 0.34667210E+02</pdfrwt>
<totfact> 0.31630115E+05</totfact>
</mgrwt>
</event>
<event>
 4    1  0.1352171E+004  0.6685749E+02  0.7546771E-02  0.1371118E+00
          2   -1    0    0  501    0  0.00000000000E+00  0.00000000000E+00  0.22438280744E+04  0.22438280744E+04  0.00000000000E+00 0. -1.
         -2   -1    0    0    0  501 -0.00000000000E+00 -0.00000000000E+00 -0.15109207452E+02  0.15109207452E+02  0.00000000000E+00 0. -1.
          2    1    1    2  502    0 -0.60149015878E+02 -0.29189370559E+02  0.21667390339E+04  0.21677702748E+04  0.00000000000E+00 0. -1.
         -2    1    1    2    0  502  0.60149015878E+02  0.29189370559E+02  0.61979833089E+02  0.91167007050E+02  0.00000000000E+00 0. -1.
<mgrwt>
<rscale>  2 0.66857486E+02</rscale>
<asrwt>0</asrwt>
<pdfrwt beam="1">  1        2 0.34520406E+00 0.66857486E+02</pdfrwt>
<pdfrwt beam="2">  1       -2 0.23244952E-02 0.66857486E+02</pdfrwt>
<totfact> 0.34158926E+03</totfact>
</mgrwt>
</event>
<event>
 4    1  0.1352171E+004  0.2261108E+02  0.7546771E-02  0.1697893E+00
          2   -1    0    0  501    0  0.00000000000E+00  0.00000000000E+00  0.87680295717E+02  0.87680295717E+02  0.00000000000E+00 0. -1.
         -2   -1    0    0    0  501 -0.00000000000E+00 -0.00000000000E+00 -0.11566540113E+02  0.11566540113E+02  0.00000000000E+00 0.  1.
          2    1    1    2  502    0 -0.19472955654E+02 -0.11491948607E+02  0.73000937701E+02  0.76422495313E+02  0.00000000000E+00 0. -1.
         -2    1    1    2    0  502  0.19472955654E+02  0.11491948607E+02  0.31128179031E+01  0.22824340517E+02  0.00000000000E+00 0.  1.
<mgrwt>
<rscale>  2 0.22611079E+02</rscale>
<asrwt>0</asrwt>
<pdfrwt beam="1">  1        2 0.13489276E-01 0.22611079E+02</pdfrwt>
<pdfrwt beam="2">  1       -2 0.17794678E-02 0.22611079E+02</pdfrwt>
<totfact> 0.24096409E+05</totfact>
</mgrwt>
</event>
<event>
 4    1  0.1352171E+004  0.4394095E+02  0.7546771E-02  0.1481063E+00
         -2   -1    0    0    0  501 -0.00000000000E+00  0.00000000000E+00  0.29666545785E+01  0.29666545785E+01  0.00000000000E+00 0. -1.
          2   -1    0    0  501    0  0.00000000000E+00 -0.00000000000E+00 -0.92432301108E+03  0.92432301108E+03  0.00000000000E+00 0. -1.
          2    1    1    2  502    0 -0.61203521244E+01 -0.43512624493E+02 -0.71287607799E+03  0.71422903173E+03  0.00000000000E+00 0. -1.
         -2    1    1    2    0  502  0.61203521244E+01  0.43512624493E+02 -0.20848027852E+03  0.21306063393E+03  0.00000000000E+00 0. -1.
<mgrwt>
<rscale>  2 0.43940951E+02</rscale>
<asrwt>0</asrwt>
<pdfrwt beam="2">  1        2 0.14220366E+00 0.43940951E+02</pdfrwt>
<pdfrwt beam="1">  1       -2 0.45640801E-03 0.43940951E+02</pdfrwt>
<totfact> 0.14983546E+05</totfact>
</mgrwt>
</event>
<event>
 4    1  0.1352171E+004  0.2634192E+02  0.7546771E-02  0.1642443E+00
         -2   -1    0    0    0  501 -0.00000000000E+00  0.00000000000E+00  0.17588274354E+04  0.17588274354E+04  0.00000000000E+00 0. -1.
          2   -1    0    0  501    0  0.00000000000E+00 -0.00000000000E+00 -0.11773105142E+02  0.11773105142E+02  0.00000000000E+00 0. -1.
          2    1    1    2  502    0  0.20564894066E+02 -0.16461519394E+02  0.31867015186E+01  0.26533969837E+02  0.00000000000E+00 0. -1.
         -2    1    1    2    0  502 -0.20564894066E+02  0.16461519394E+02  0.17438676287E+04  0.17440665707E+04  0.00000000000E+00 0. -1.
<mgrwt>
<rscale>  2 0.26341915E+02</rscale>
<asrwt>0</asrwt>
<pdfrwt beam="2">  1        2 0.18112483E-02 0.26341915E+02</pdfrwt>
<pdfrwt beam="1">  1       -2 0.27058863E+00 0.26341915E+02</pdfrwt>
<totfact> 0.31231480E+02</totfact>
</mgrwt>
</event>
<event>
 4    1  0.1352171E+004  0.3536986E+02  0.7546771E-02  0.1545340E+00
          2   -1    0    0  501    0  0.00000000000E+00  0.00000000000E+00  0.15640556684E+04  0.15640556684E+04  0.00000000000E+00 0.  1.
         -2   -1    0    0    0  501 -0.00000000000E+00 -0.00000000000E+00 -0.25233385361E+01  0.25233385361E+01  0.00000000000E+00 0.  1.
          2    1    1    2  502    0  0.33213543110E+02  0.12160911808E+02  0.14281134828E+04  0.14285514155E+04  0.00000000000E+00 0.  1.
         -2    1    1    2    0  502 -0.33213543110E+02 -0.12160911808E+02  0.13341884710E+03  0.13802759138E+03  0.00000000000E+00 0.  1.
<mgrwt>
<rscale>  2 0.35369863E+02</rscale>
<asrwt>0</asrwt>
<pdfrwt beam="1">  1        2 0.24062317E+00 0.35369863E+02</pdfrwt>
<pdfrwt beam="2">  1       -2 0.38820718E-03 0.35369863E+02</pdfrwt>
<totfact> 0.83773055E+04</totfact>
</mgrwt>
</event>
<event>
 4    1  0.1352171E+004  0.2176573E+02  0.7546771E-02  0.1712335E+00
          2   -1    0    0  501    0  0.00000000000E+00  0.00000000000E+00  0.29330926575E+03  0.29330926575E+03  0.00000000000E+00 0.  1.
         -2   -1    0    0    0  501 -0.00000000000E+00 -0.00000000000E+00 -0.39471654444E+01  0.39471654444E+01  0.00000000000E+00 0.  1.
          2    1    1    2  502    0  0.21235420882E+02  0.47753531483E+01  0.25892193753E+03  0.25983517243E+03  0.00000000000E+00 0.  1.
         -2    1    1    2    0  502 -0.21235420882E+02 -0.47753531483E+01  0.30440162778E+02  0.37421258766E+02  0.00000000000E+00 0.  1.
<mgrwt>
<rscale>  2 0.21765732E+02</rscale>
<asrwt>0</asrwt>
<pdfrwt beam="1">  1        2 0.45124485E-01 0.21765732E+02</pdfrwt>
<pdfrwt beam="2">  1       -2 0.60725645E-03 0.21765732E+02</pdfrwt>
<totfact> 0.29172504E+05</totfact>
</mgrwt>
</event>
<event>
 4    1  0.1352171E+004  0.2127916E+02  0.7546771E-02  0.1721025E+00
         -2   -1    0    0    0  501 -0.00000000000E+00  0.00000000000E+00  0.72565841683E+02  0.72565841683E+02  0.00000000000E+00 0. -1.
          2   -1    0    0  501    0  0.00000000000E+00 -0.00000000000E+00 -0.87242406199E+01  0.87242406199E+01  0.00000000000E+00 0.  1.
          2    1    1    2  502    0  0.21222939381E+02  0.15457618566E+01  0.10231247780E+02  0.23611034852E+02  0.00000000000E+00 0.  1.
         -2    1    1    2    0  502 -0.21222939381E+02 -0.15457618566E+01  0.53610353283E+02  0.57679047450E+02  0.00000000000E+00 0. -1.
<mgrwt>
<rscale>  2 0.21279157E+02</rscale>
<asrwt>0</asrwt>
<pdfrwt beam="2">  1        2 0.13421909E-02 0.21279157E+02</pdfrwt>
<pdfrwt beam="1">  1       -2 0.11163975E-01 0.21279157E+02</pdfrwt>
<totfact> 0.29419604E+05</totfact>
</mgrwt>
</event>
<event>
 4    1  0.1352171E+004  0.6580119E+02  0.7546771E-02  0.1374983E+00
         -2   -1    0    0    0  501 -0.00000000000E+00  0.00000000000E+00  0.11719527958E+04  0.11719527958E+04  0.00000000000E+00 0.  1.
          2   -1    0    0  501    0  0.00000000000E+00 -0.00000000000E+00 -0.16987054374E+04  0.16987054374E+04  0.00000000000E+00 0.  1.
          2    1    1    2  502    0 -0.60628934211E+02  0.25572033240E+02 -0.16971437392E+04  0.16984188730E+04  0.00000000000E+00 0.  1.
         -2    1    1    2    0  502  0.60628934211E+02 -0.25572033240E+02  0.11703910975E+04  0.11722393603E+04  0.00000000000E+00 0.  1.
<mgrwt>
<rscale>  2 0.65801190E+02</rscale>
<asrwt>0</asrwt>
<pdfrwt beam="2">  1        2 0.26133930E+00 0.65801190E+02</pdfrwt>
<pdfrwt beam="1">  1       -2 0.18030043E+00 0.65801190E+02</pdfrwt>
<totfact> 0.26101706E+00</totfact>
</mgrwt>
</event>
<event>
 4    1  0.1352171E+004  0.2020956E+02  0.7546771E-02  0.1741192E+00
         -2   -1    0    0    0  501 -0.00000000000E+00  0.00000000000E+00  0.20781764779E+01  0.20781764779E+01  0.00000000000E+00 0. -1.
          2   -1    0    0  501    0  0.00000000000E+00 -0.00000000000E+00 -0.43496206879E+03  0.43496206879E+03  0.00000000000E+00 0.  1.
          2    1    1    2  502    0  0.69865222778E+01 -0.18963517501E+02 -0.37823020285E+03  0.37876973591E+03  0.00000000000E+00 0.  1.
         -2    1    1    2    0  502 -0.69865222778E+01  0.18963517501E+02 -0.54653689456E+02  0.58270509357E+02  0.00000000000E+00 0. -1.
<mgrwt>
<rscale>  2 0.20209564E+02</rscale>
<asrwt>0</asrwt>
<pdfrwt beam="2">  1        2 0.66917305E-01 0.20209564E+02</pdfrwt>
<pdfrwt beam="1">  1       -2 0.31971915E-03 0.20209564E+02</pdfrwt>
<totfact> 0.45578531E+05</totfact>
</mgrwt>
</event>
<event>
 4    1  0.1352171E+004  0.2108055E+02  0.7546771E-02  0.1724656E+00
          2   -1    0    0  501    0  0.00000000000E+00  0.00000000000E+00  0.12905964677E+04  0.12905964677E+04  0.00000000000E+00 0.  1.
         -2   -1    0    0    0  501 -0.00000000000E+00 -0.00000000000E+00 -0.63790492598E+01  0.63790492598E+01  0.00000000000E+00 0. -1.
          2    1    1    2  502    0  0.21076485983E+02 -0.41381285443E+00  0.12728516288E+04  0.12730261813E+04  0.00000000000E+00 0.  1.
         -2    1    1    2    0  502 -0.21076485983E+02  0.41381285443E+00  0.11365789687E+02  0.23949335641E+02  0.00000000000E+00 0. -1.
<mgrwt>
<rscale>  2 0.21080548E+02</rscale>
<asrwt>0</asrwt>
<pdfrwt beam="1">  1        2 0.19855310E+00 0.21080548E+02</pdfrwt>
<pdfrwt beam="2">  1       -2 0.98139322E-03 0.21080548E+02</pdfrwt>
<totfact> 0.29872420E+04</totfact>
</mgrwt>
</event>
<event>
 4    1  0.1352171E+004  0.2389048E+02  0.7546771E-02  0.1677469E+00
          2   -1    0    0  501    0  0.00000000000E+00  0.00000000000E+00  0.10304489113E+03  0.10304489113E+03  0.00000000000E+00 0.  1.
         -2   -1    0    0    0  501 -0.00000000000E+00 -0.00000000000E+00 -0.70181956683E+01  0.70181956683E+01  0.00000000000E+00 0.  1.
          2    1    1    2  502    0 -0.39735588326E+01 -0.23557698225E+02  0.22747846417E+02  0.32988161999E+02  0.00000000000E+00 0.  1.
         -2    1    1    2    0  502  0.39735588326E+01  0.23557698225E+02  0.73278849041E+02  0.77074924795E+02  0.00000000000E+00 0.  1.
<mgrwt>
<rscale>  2 0.23890477E+02</rscale>
<asrwt>0</asrwt>
<pdfrwt beam="1">  1        2 0.15853059E-01 0.23890477E+02</pdfrwt>
<pdfrwt beam="2">  1       -2 0.10797225E-02 0.23890477E+02</pdfrwt>
<totfact> 0.40461297E+05</totfact>
</mgrwt>
</event>
<event>
 4    1  0.1352171E+004  0.2838854E+02  0.7546771E-02  0.1616616E+00
         -2   -1    0    0    0  501 -0.00000000000E+00  0.00000000000E+00  0.34888217130E+02  0.34888217130E+02  0.00000000000E+00 0. -1.
          2   -1    0    0  501    0  0.00000000000E+00 -0.00000000000E+00 -0.53664384180E+03  0.53664384180E+03  0.00000000000E+00 0.  1.
          2    1    1    2  502    0 -0.24311272656E+02 -0.14658477153E+02 -0.53042581662E+03  0.53118495448E+03  0.00000000000E+00 0.  1.
         -2    1    1    2    0  502  0.24311272656E+02  0.14658477153E+02  0.28670191952E+02  0.40347104446E+02  0.00000000000E+00 0. -1.
<mgrwt>
<rscale>  2 0.28388535E+02</rscale>
<asrwt>0</asrwt>
<pdfrwt beam="2">  1        2 0.82560597E-01 0.28388535E+02</pdfrwt>
<pdfrwt beam="1">  1       -2 0.53674176E-02 0.28388535E+02</pdfrwt>
<totfact> 0.83623573E+03</totfact>
</mgrwt>
</event>
<event>
 4    1  0.1352171E+004  0.3799591E+02  0.7546771E-02  0.1523499E+00
         -2   -1    0    0    0  501 -0.00000000000E+00  0.00000000000E+00  0.13098997423E+01  0.13098997423E+01  0.00000000000E+00 0. -1.
          2   -1    0    0  501    0  0.00000000000E+00 -0.00000000000E+00 -0.17900930686E+04  0.17900930686E+04  0.00000000000E+00 0.  1.
          2    1    1    2  502    0 -0.22845016205E+02  0.30361065773E+02 -0.14496636368E+04  0.14501614906E+04  0.00000000000E+00 0.  1.
         -2    1    1    2    0  502  0.22845016205E+02 -0.30361065773E+02 -0.33911953209E+03  0.34124147773E+03  0.00000000000E+00 0. -1.
<mgrwt>
<rscale>  2 0.37995909E+02</rscale>
<asrwt>0</asrwt>
<pdfrwt beam="2">  1        2 0.27539970E+00 0.37995909E+02</pdfrwt>
<pdfrwt beam="1">  1       -2 0.20152248E-03 0.37995909E+02</pdfrwt>
<totfact> 0.16037784E+05</totfact>
</mgrwt>
</event>
<event>
 4    1  0.1352171E+004  0.2259348E+02  0.7546771E-02  0.1698186E+00
         -2   -1    0    0    0  501 -0.00000000000E+00  0.00000000000E+00  0.40947150104E+03  0.40947150104E+03  0.00000000000E+00 0.  1.
          2   -1    0    0  501    0  0.00000000000E+00 -0.00000000000E+00 -0.37671485333E+01  0.37671485333E+01  0.00000000000E+00 0.  1.
          2    1    1    2  502    0  0.14941146398E+02 -0.16947786654E+02  0.33843780945E+02  0.40692343712E+02  0.00000000000E+00 0.  1.
         -2    1    1    2    0  502 -0.14941146398E+02  0.16947786654E+02  0.37186057156E+03  0.37254630586E+03  0.00000000000E+00 0.  1.
<mgrwt>
<rscale>  2 0.22593480E+02</rscale>
<asrwt>0</asrwt>
<pdfrwt beam="2">  1        2 0.57956164E-03 0.22593480E+02</pdfrwt>
<pdfrwt beam="1">  1       -2 0.62995580E-01 0.22593480E+02</pdfrwt>
<totfact> 0.46911205E+04</totfact>
</mgrwt>
</event>
<event>
 4    1  0.1352171E+004  0.2587985E+02  0.7546771E-02  0.1648677E+00
          2   -1    0    0  501    0  0.00000000000E+00  0.00000000000E+00  0.75925844867E+03  0.75925844867E+03  0.00000000000E+00 0. -1.
         -2   -1    0    0    0  501 -0.00000000000E+00 -0.00000000000E+00 -0.40603858164E+01  0.40603858164E+01  0.00000000000E+00 0. -1.
          2    1    1    2  502    0 -0.49595368140E+01 -0.25400188921E+02  0.71526444722E+03  0.71573248918E+03  0.00000000000E+00 0. -1.
         -2    1    1    2    0  502  0.49595368140E+01  0.25400188921E+02  0.39933615634E+02  0.47586345313E+02  0.00000000000E+00 0. -1.
<mgrwt>
<rscale>  2 0.25879849E+02</rscale>
<asrwt>0</asrwt>
<pdfrwt beam="1">  1        2 0.11680888E+00 0.25879849E+02</pdfrwt>
<pdfrwt beam="2">  1       -2 0.62467534E-03 0.25879849E+02</pdfrwt>
<totfact> 0.11113883E+05</totfact>
</mgrwt>
</event>
<event>
 4    1  0.1352171E+004  0.2081962E+02  0.7546771E-02  0.1729503E+00
          2   -1    0    0  501    0  0.00000000000E+00  0.00000000000E+00  0.58272763315E+01  0.58272763315E+01  0.00000000000E+00 0. -1.
         -2   -1    0    0    0  501 -0.00000000000E+00 -0.00000000000E+00 -0.83693107694E+02  0.83693107694E+02  0.00000000000E+00 0. -1.
          2    1    1    2  502    0 -0.36201094232E-01 -0.20819590919E+02 -0.24005009268E+02  0.31775732037E+02  0.00000000000E+00 0. -1.
         -2    1    1    2    0  502  0.36201094232E-01  0.20819590919E+02 -0.53860822095E+02  0.57744651989E+02  0.00000000000E+00 0. -1.
<mgrwt>
<rscale>  2 0.20819622E+02</rscale>
<asrwt>0</asrwt>
<pdfrwt beam="1">  1        2 0.89650404E-03 0.20819622E+02</pdfrwt>
<pdfrwt beam="2">  1       -2 0.12875863E-01 0.20819622E+02</pdfrwt>
<totfact> 0.39719128E+05</totfact>
</mgrwt>
</event>
<event>
 4    1  0.1352171E+004  0.2405125E+02  0.7546771E-02  0.1675015E+00
          2   -1    0    0  501    0  0.00000000000E+00  0.00000000000E+00  0.30381024847E+03  0.30381024847E+03  0.00000000000E+00 0. -1.
         -2   -1    0    0    0  501 -0.00000000000E+00 -0.00000000000E+00 -0.10569254606E+02  0.10569254606E+02  0.00000000000E+00 0.  1.
          2    1    1    2  502    0  0.20615625849E+02  0.12387839414E+02  0.28894905888E+03  0.28994830785E+03  0.00000000000E+00 0. -1.
         -2    1    1    2    0  502 -0.20615625849E+02 -0.12387839414E+02  0.42919349839E+01  0.24431195231E+02  0.00000000000E+00 0.  1.
<mgrwt>
<rscale>  2 0.24051249E+02</rscale>
<asrwt>0</asrwt>
<pdfrwt beam="1">  1        2 0.46740031E-01 0.24051249E+02</pdfrwt>
<pdfrwt beam="2">  1       -2 0.16260394E-02 0.24051249E+02</pdfrwt>
<totfact> 0.76275770E+04</totfact>
</mgrwt>
</event>
<event>
 4    1  0.1352171E+004  0.2044983E+02  0.7546771E-02  0.1736528E+00
         -2   -1    0    0    0  501 -0.00000000000E+00  0.00000000000E+00  0.47788556478E+00  0.47788556478E+00  0.00000000000E+00 0. -1.
          2   -1    0    0  501    0  0.00000000000E+00 -0.00000000000E+00 -0.98167348269E+03  0.98167348269E+03  0.00000000000E+00 0. -1.
          2    1    1    2  502    0 -0.17942172007E+02  0.98119423472E+01 -0.65240491475E+03  0.65272533928E+03  0.00000000000E+00 0. -1.
         -2    1    1    2    0  502  0.17942172007E+02 -0.98119423472E+01 -0.32879068238E+03  0.32942602897E+03  0.00000000000E+00 0. -1.
<mgrwt>
<rscale>  2 0.20449835E+02</rscale>
<asrwt>0</asrwt>
<pdfrwt beam="2">  1        2 0.15102405E+00 0.20449835E+02</pdfrwt>
<pdfrwt beam="1">  1       -2 0.73522139E-04 0.20449835E+02</pdfrwt>
<totfact> 0.13203073E+06</totfact>
</mgrwt>
</event>
<event>
 4    1  0.1352171E+004  0.3150739E+02  0.7546771E-02  0.1582000E+00
         -2   -1    0    0    0  501 -0.00000000000E+00  0.00000000000E+00  0.94924507780E+01  0.94924507780E+01  0.00000000000E+00 0. -1.
          2   -1    0    0  501    0  0.00000000000E+00 -0.00000000000E+00 -0.11750004253E+03  0.11750004253E+03  0.00000000000E+00 0. -1.
          2    1    1    2  502    0  0.24727686947E+02 -0.19525808719E+02 -0.75059487078E+02  0.81404190975E+02  0.00000000000E+00 0. -1.
         -2    1    1    2    0  502 -0.24727686947E+02  0.19525808719E+02 -0.32948104671E+02  0.45588302330E+02  0.00000000000E+00 0. -1.
<mgrwt>
<rscale>  2 0.31507391E+02</rscale>
<asrwt>0</asrwt>
<pdfrwt beam="2">  1        2 0.18076929E-01 0.31507391E+02</pdfrwt>
<pdfrwt beam="1">  1       -2 0.14603771E-02 0.31507391E+02</pdfrwt>
<totfact> 0.25029440E+05</totfact>
</mgrwt>
</event>
<event>
 4    1  0.1352171E+004  0.2135410E+02  0.7546771E-02  0.1719668E+00
         -2   -1    0    0    0  501 -0.00000000000E+00  0.00000000000E+00  0.13176238831E+04  0.13176238831E+04  0.00000000000E+00 0.  1.
          2   -1    0    0  501    0  0.00000000000E+00 -0.00000000000E+00 -0.35388058843E+00  0.35388058843E+00  0.00000000000E+00 0.  1.
          2    1    1    2  502    0  0.78846308806E+01  0.19845151565E+02  0.56076794920E+03  0.56117438493E+03  0.00000000000E+00 0.  1.
         -2    1    1    2    0  502 -0.78846308806E+01 -0.19845151565E+02  0.75650205329E+03  0.75680337875E+03  0.00000000000E+00 0.  1.
<mgrwt>
<rscale>  2 0.21354097E+02</rscale>
<asrwt>0</asrwt>
<pdfrwt beam="2">  1        2 0.54444222E-04 0.21354097E+02</pdfrwt>
<pdfrwt beam="1">  1       -2 0.20270744E+00 0.21354097E+02</pdfrwt>
<totfact> 0.69644227E+04</totfact>
</mgrwt>
</event>
<event>
 4    1  0.1352171E+004  0.2143316E+02  0.7546771E-02  0.1718244E+00
          2   -1    0    0  501    0  0.00000000000E+00  0.00000000000E+00  0.39853952599E+02  0.39853952599E+02  0.00000000000E+00 0. -1.
         -2   -1    0    0    0  501 -0.00000000000E+00 -0.00000000000E+00 -0.45104080487E+02  0.45104080487E+02  0.00000000000E+00 0.  1.
          2    1    1    2  502    0  0.32347254761E+01  0.21187662145E+02  0.34026339128E+02  0.40214080004E+02  0.00000000000E+00 0. -1.
         -2    1    1    2    0  502 -0.32347254761E+01 -0.21187662145E+02 -0.39276467017E+02  0.44743953082E+02  0.00000000000E+00 0.  1.
<mgrwt>
<rscale>  2 0.21433163E+02</rscale>
<asrwt>0</asrwt>
<pdfrwt beam="1">  1        2 0.61313773E-02 0.21433163E+02</pdfrwt>
<pdfrwt beam="2">  1       -2 0.69390893E-02 0.21433163E+02</pdfrwt>
<totfact> 0.88237135E+04</totfact>
</mgrwt>
</event>
<event>
 4    1  0.1352171E+004  0.5440145E+02  0.7546771E-02  0.1422951E+00
         -2   -1    0    0    0  501 -0.00000000000E+00  0.00000000000E+00  0.18552888054E+03  0.18552888054E+03  0.00000000000E+00 0. -1.
          2   -1    0    0  501    0  0.00000000000E+00 -0.00000000000E+00 -0.52720138385E+02  0.52720138385E+02  0.00000000000E+00 0. -1.
          2    1    1    2  502    0  0.31811394618E+02 -0.44131093950E+02 -0.33078863719E+02  0.63668905328E+02  0.00000000000E+00 0. -1.
         -2    1    1    2    0  502 -0.31811394618E+02  0.44131093950E+02  0.16588760588E+03  0.17458011360E+03  0.00000000000E+00 0. -1.
<mgrwt>
<rscale>  2 0.54401455E+02</rscale>
<asrwt>0</asrwt>
<pdfrwt beam="2">  1        2 0.81107906E-02 0.54401455E+02</pdfrwt>
<pdfrwt beam="1">  1       -2 0.28542904E-01 0.54401455E+02</pdfrwt>
<totfact> 0.80399718E+03</totfact>
</mgrwt>
</event>
<event>
 4    1  0.1352171E+004  0.2307565E+02  0.7546771E-02  0.1690287E+00
         -2   -1    0    0    0  501 -0.00000000000E+00  0.00000000000E+00  0.12936221173E+01  0.12936221173E+01  0.00000000000E+00 0. -1.
          2   -1    0    0  501    0  0.00000000000E+00 -0.00000000000E+00 -0.63910000993E+03  0.63910000993E+03  0.00000000000E+00 0. -1.
          2    1    1    2  502    0  0.23075526253E+02  0.74345156017E-01 -0.50993282882E+03  0.51045467511E+03  0.00000000000E+00 0. -1.
         -2    1    1    2    0  502 -0.23075526253E+02 -0.74345156017E-01 -0.12787355900E+03  0.12993895694E+03  0.00000000000E+00 0. -1.
<mgrwt>
<rscale>  2 0.23075646E+02</rscale>
<asrwt>0</asrwt>
<pdfrwt beam="2">  1        2 0.98322867E-01 0.23075646E+02</pdfrwt>
<pdfrwt beam="1">  1       -2 0.19901922E-03 0.23075646E+02</pdfrwt>
<totfact> 0.60094590E+05</totfact>
</mgrwt>
</event>
<event>
 4    1  0.1352171E+004  0.2956869E+02  0.7546771E-02  0.1602906E+00
          2   -1    0    0  501    0  0.00000000000E+00  0.00000000000E+00  0.22896592882E+04  0.22896592882E+04  0.00000000000E+00 0.  1.
         -2   -1    0    0    0  501 -0.00000000000E+00 -0.00000000000E+00 -0.14032286995E+01  0.14032286995E+01  0.00000000000E+00 0.  1.
          2    1    1    2  502    0  0.21328884930E+02 -0.20478916993E+02  0.21214463120E+04  0.21216523659E+04  0.00000000000E+00 0.  1.
         -2    1    1    2    0  502 -0.21328884930E+02  0.20478916993E+02  0.16680974759E+03  0.16941015101E+03  0.00000000000E+00 0.  1.
<mgrwt>
<rscale>  2 0.29568689E+02</rscale>
<asrwt>0</asrwt>
<pdfrwt beam="1">  1        2 0.35225229E+00 0.29568689E+02</pdfrwt>
<pdfrwt beam="2">  1       -2 0.21588317E-03 0.29568689E+02</pdfrwt>
<totfact> 0.81015155E+04</totfact>
</mgrwt>
</event>
<event>
 4    1  0.1352171E+004  0.2273700E+02  0.7546771E-02  0.1695809E+00
          2   -1    0    0  501    0  0.00000000000E+00  0.00000000000E+00  0.16922169620E+04  0.16922169620E+04  0.00000000000E+00 0. -1.
         -2   -1    0    0    0  501 -0.00000000000E+00 -0.00000000000E+00 -0.41459691907E+00  0.41459691907E+00  0.00000000000E+00 0. -1.
          2    1    1    2  502    0  0.16149746058E+02 -0.16004896413E+02  0.12800385274E+04  0.12802404471E+04  0.00000000000E+00 0. -1.
         -2    1    1    2    0  502 -0.16149746058E+02  0.16004896413E+02  0.41176383771E+03  0.41239111176E+03  0.00000000000E+00 0. -1.
<mgrwt>
<rscale>  2 0.22736996E+02</rscale>
<asrwt>0</asrwt>
<pdfrwt beam="1">  1        2 0.26033554E+00 0.22736996E+02</pdfrwt>
<pdfrwt beam="2">  1       -2 0.63785496E-04 0.22736996E+02</pdfrwt>
<totfact> 0.73751071E+05</totfact>
</mgrwt>
</event>
<event>
 4    1  0.1352171E+004  0.3162612E+02  0.7546771E-02  0.1580780E+00
         -2   -1    0    0    0  501 -0.00000000000E+00  0.00000000000E+00  0.65364903449E+02  0.65364903449E+02  0.00000000000E+00 0. -1.
          2   -1    0    0  501    0  0.00000000000E+00 -0.00000000000E+00 -0.66195399963E+02  0.66195399963E+02  0.00000000000E+00 0.  1.
          2    1    1    2  502    0 -0.22624624820E+02  0.22098360779E+02 -0.58093470328E+02  0.66144255171E+02  0.00000000000E+00 0.  1.
         -2    1    1    2    0  502  0.22624624820E+02 -0.22098360779E+02  0.57262973814E+02  0.65416048240E+02  0.00000000000E+00 0. -1.
<mgrwt>
<rscale>  2 0.31626116E+02</rscale>
<asrwt>0</asrwt>
<pdfrwt beam="2">  1        2 0.10183908E-01 0.31626116E+02</pdfrwt>
<pdfrwt beam="1">  1       -2 0.10056139E-01 0.31626116E+02</pdfrwt>
<totfact> 0.30452915E+04</totfact>
</mgrwt>
</event>
<event>
 4    1  0.1352171E+004  0.2376714E+02  0.7546771E-02  0.1679369E+00
          2   -1    0    0  501    0  0.00000000000E+00  0.00000000000E+00  0.26640198394E+02  0.26640198394E+02  0.00000000000E+00 0.  1.
         -2   -1    0    0    0  501 -0.00000000000E+00 -0.00000000000E+00 -0.76645393099E+02  0.76645393099E+02  0.00000000000E+00 0. -1.
          2    1    1    2  502    0 -0.12098372173E+02  0.20457425535E+02  0.18919600463E+02  0.30378086682E+02  0.00000000000E+00 0.  1.
         -2    1    1    2    0  502  0.12098372173E+02 -0.20457425535E+02 -0.68924795169E+02  0.72907504811E+02  0.00000000000E+00 0. -1.
<mgrwt>
<rscale>  2 0.23767138E+02</rscale>
<asrwt>0</asrwt>
<pdfrwt beam="1">  1        2 0.40984921E-02 0.23767138E+02</pdfrwt>
<pdfrwt beam="2">  1       -2 0.11791599E-01 0.23767138E+02</pdfrwt>
<totfact> 0.67667185E+04</totfact>
</mgrwt>
</event>
<event>
 4    1  0.1352171E+004  0.4576148E+02  0.7546771E-02  0.1469643E+00
         -2   -1    0    0    0  501 -0.00000000000E+00  0.00000000000E+00  0.34239140751E+02  0.34239140751E+02  0.00000000000E+00 0.  1.
          2   -1    0    0  501    0  0.00000000000E+00 -0.00000000000E+00 -0.29091661679E+04  0.29091661679E+04  0.00000000000E+00 0.  1.
          2    1    1    2  502    0  0.42371073408E+02  0.17285986150E+02 -0.28936136873E+04  0.28939755155E+04  0.00000000000E+00 0.  1.
         -2    1    1    2    0  502 -0.42371073408E+02 -0.17285986150E+02  0.18686660159E+02  0.49429793109E+02  0.00000000000E+00 0.  1.
<mgrwt>
<rscale>  2 0.45761481E+02</rscale>
<asrwt>0</asrwt>
<pdfrwt beam="2">  1        2 0.44756409E+00 0.45761481E+02</pdfrwt>
<pdfrwt beam="1">  1       -2 0.52675593E-02 0.45761481E+02</pdfrwt>
<totfact> 0.47765750E+02</totfact>
</mgrwt>
</event>
<event>
 4    1  0.1352171E+004  0.2086938E+02  0.7546771E-02  0.1728572E+00
         -2   -1    0    0    0  501 -0.00000000000E+00  0.00000000000E+00  0.21619133185E+02  0.21619133185E+02  0.00000000000E+00 0.  1.
          2   -1    0    0  501    0  0.00000000000E+00 -0.00000000000E+00 -0.21738244613E+02  0.21738244613E+02  0.00000000000E+00 0.  1.
          2    1    1    2  502    0 -0.19271191976E+02 -0.80094908702E+01  0.58082787416E+01  0.21662568779E+02  0.00000000000E+00 0.  1.
         -2    1    1    2    0  502  0.19271191976E+02  0.80094908702E+01 -0.59273901696E+01  0.21694809020E+02  0.00000000000E+00 0.  1.
<mgrwt>
<rscale>  2 0.20869385E+02</rscale>
<asrwt>0</asrwt>
<pdfrwt beam="2">  1        2 0.33443453E-02 0.20869385E+02</pdfrwt>
<pdfrwt beam="1">  1       -2 0.33260205E-02 0.20869385E+02</pdfrwt>
<totfact> 0.52090421E+05</totfact>
</mgrwt>
</event>
<event>
 4    1  0.1352171E+004  0.2843366E+02  0.7546771E-02  0.1616077E+00
          2   -1    0    0  501    0  0.00000000000E+00  0.00000000000E+00  0.51184816708E+01  0.51184816708E+01  0.00000000000E+00 0. -1.
         -2   -1    0    0    0  501 -0.00000000000E+00 -0.00000000000E+00 -0.32743863041E+03  0.32743863041E+03  0.00000000000E+00 0.  1.
          2    1    1    2  502    0  0.22287975965E+02 -0.17655565908E+02 -0.41530269512E+02  0.50331264298E+02  0.00000000000E+00 0. -1.
         -2    1    1    2    0  502 -0.22287975965E+02  0.17655565908E+02 -0.28078987922E+03  0.28222584778E+03  0.00000000000E+00 0.  1.
<mgrwt>
<rscale>  2 0.28433658E+02</rscale>
<asrwt>0</asrwt>
<pdfrwt beam="1">  1        2 0.78745866E-03 0.28433658E+02</pdfrwt>
<pdfrwt beam="2">  1       -2 0.50375178E-01 0.28433658E+02</pdfrwt>
<totfact> 0.51437609E+04</totfact>
</mgrwt>
</event>
<event>
 4    1  0.1352171E+004  0.2612081E+02  0.7546771E-02  0.1645406E+00
         -2   -1    0    0    0  501 -0.00000000000E+00  0.00000000000E+00  0.80264152540E+02  0.80264152540E+02  0.00000000000E+00 0.  1.
          2   -1    0    0  501    0  0.00000000000E+00 -0.00000000000E+00 -0.53850705945E+03  0.53850705945E+03  0.00000000000E+00 0.  1.
          2    1    1    2  502    0 -0.23903131603E+02 -0.10532664099E+02 -0.53605543189E+03  0.53669145957E+03  0.00000000000E+00 0.  1.
         -2    1    1    2    0  502  0.23903131603E+02  0.10532664099E+02  0.77812524982E+02  0.82079752421E+02  0.00000000000E+00 0.  1.
<mgrwt>
<rscale>  2 0.26120810E+02</rscale>
<asrwt>0</asrwt>
<pdfrwt beam="2">  1        2 0.82847241E-01 0.26120810E+02</pdfrwt>
<pdfrwt beam="1">  1       -2 0.12348331E-01 0.26120810E+02</pdfrwt>
<totfact> 0.24152416E+03</totfact>
</mgrwt>
</event>
<event>
 4    1  0.1352171E+004  0.2654926E+02  0.7546771E-02  0.1639697E+00
         -2   -1    0    0    0  501 -0.00000000000E+00  0.00000000000E+00  0.23309145103E+01  0.23309145103E+01  0.00000000000E+00 0. -1.
          2   -1    0    0  501    0  0.00000000000E+00 -0.00000000000E+00 -0.39119332670E+03  0.39119332670E+03  0.00000000000E+00 0.  1.
          2    1    1    2  502    0  0.22665771317E+02 -0.13824826802E+02 -0.28817482893E+03  0.28939522293E+03  0.00000000000E+00 0.  1.
         -2    1    1    2    0  502 -0.22665771317E+02  0.13824826802E+02 -0.10068758326E+03  0.10412901828E+03  0.00000000000E+00 0. -1.
<mgrwt>
<rscale>  2 0.26549257E+02</rscale>
<asrwt>0</asrwt>
<pdfrwt beam="2">  1        2 0.60183582E-01 0.26549257E+02</pdfrwt>
<pdfrwt beam="1">  1       -2 0.35860227E-03 0.26549257E+02</pdfrwt>
<totfact> 0.47041141E+05</totfact>
</mgrwt>
</event>
<event>
 4    1  0.1352171E+004  0.2046275E+02  0.7546771E-02  0.1736279E+00
          2   -1    0    0  501    0  0.00000000000E+00  0.00000000000E+00  0.86495870742E+03  0.86495870742E+03  0.00000000000E+00 0.  1.
         -2   -1    0    0    0  501 -0.00000000000E+00 -0.00000000000E+00 -0.27245756592E+02  0.27245756592E+02  0.00000000000E+00 0.  1.
          2    1    1    2  502    0  0.11319299715E+02  0.17046922412E+02  0.86097781705E+03  0.86122095049E+03  0.00000000000E+00 0.  1.
         -2    1    1    2    0  502 -0.11319299715E+02 -0.17046922412E+02 -0.23264866223E+02  0.30983513522E+02  0.00000000000E+00 0.  1.
<mgrwt>
<rscale>  2 0.20462749E+02</rscale>
<asrwt>0</asrwt>
<pdfrwt beam="1">  1        2 0.13307055E+00 0.20462749E+02</pdfrwt>
<pdfrwt beam="2">  1       -2 0.41916555E-02 0.20462749E+02</pdfrwt>
<totfact> 0.68109761E+03</totfact>
</mgrwt>
</event>
<event>
 4    1  0.1352171E+004  0.4133989E+02  0.7546771E-02  0.1498577E+00
         -2   -1    0    0    0  501 -0.00000000000E+00  0.00000000000E+00  0.81638227839E+01  0.81638227839E+01  0.00000000000E+00 0.  1.
          2   -1    0    0  501    0  0.00000000000E+00 -0.00000000000E+00 -0.31661029146E+03  0.31661029146E+03  0.00000000000E+00 0.  1.
          2    1    1    2  502    0  0.10938061005E+02 -0.39866598314E+02 -0.24874580547E+03  0.25215761455E+03  0.00000000000E+00 0.  1.
         -2    1    1    2    0  502 -0.10938061005E+02  0.39866598314E+02 -0.59700663208E+02  0.72616499690E+02  0.00000000000E+00 0.  1.
<mgrwt>
<rscale>  2 0.41339894E+02</rscale>
<asrwt>0</asrwt>
<pdfrwt beam="2">  1        2 0.48709262E-01 0.41339894E+02</pdfrwt>
<pdfrwt beam="1">  1       -2 0.12559731E-02 0.41339894E+02</pdfrwt>
<totfact> 0.11698133E+05</totfact>
</mgrwt>
</event>
<event>
 4    1  0.1352171E+004  0.2734110E+02  0.7546771E-02  0.1629487E+00
         -2   -1    0    0    0  501 -0.00000000000E+00  0.00000000000E+00  0.85568057264E+01  0.85568057264E+01  0.00000000000E+00 0. -1.
          2   -1    0    0  501    0  0.00000000000E+00 -0.00000000000E+00 -0.11840455691E+04  0.11840455691E+04  0.00000000000E+00 0. -1.
          2    1    1    2  502    0  0.76028206502E+01  0.26262766695E+02 -0.11616258800E+04  0.11619475982E+04  0.00000000000E+00 0. -1.
         -2    1    1    2    0  502 -0.76028206502E+01 -0.26262766695E+02 -0.13862883361E+02  0.30654776649E+02  0.00000000000E+00 0. -1.
<mgrwt>
<rscale>  2 0.27341101E+02</rscale>
<asrwt>0</asrwt>
<pdfrwt beam="2">  1        2 0.18216077E+00 0.27341101E+02</pdfrwt>
<pdfrwt beam="1">  1       -2 0.13164322E-02 0.27341101E+02</pdfrwt>
<totfact> 0.23535233E+04</totfact>
</mgrwt>
</event>
<event>
 4    1  0.1352171E+004  0.3382205E+02  0.7546771E-02  0.1559317E+00
         -2   -1    0    0    0  501 -0.00000000000E+00  0.00000000000E+00  0.30805489842E+01  0.30805489842E+01  0.00000000000E+00 0. -1.
          2   -1    0    0  501    0  0.00000000000E+00 -0.00000000000E+00 -0.12325835950E+04  0.12325835950E+04  0.00000000000E+00 0. -1.
          2    1    1    2  502    0 -0.41971001813E+01  0.33560618425E+02 -0.11311979589E+04  0.11317034739E+04  0.00000000000E+00 0. -1.
         -2    1    1    2    0  502  0.41971001813E+01 -0.33560618425E+02 -0.98305087155E+02  0.10396067006E+03  0.00000000000E+00 0. -1.
<mgrwt>
<rscale>  2 0.33822045E+02</rscale>
<asrwt>0</asrwt>
<pdfrwt beam="2">  1        2 0.18962833E+00 0.33822045E+02</pdfrwt>
<pdfrwt beam="1">  1       -2 0.47393040E-03 0.33822045E+02</pdfrwt>
<totfact> 0.92406556E+04</totfact>
</mgrwt>
</event>
<event>
 4    1  0.1352171E+004  0.6520076E+02  0.7546771E-02  0.1377218E+00
         -2   -1    0    0    0  501 -0.00000000000E+00  0.00000000000E+00  0.61162241428E+01  0.61162241428E+01  0.00000000000E+00 0. -1.
          2   -1    0    0  501    0  0.00000000000E+00 -0.00000000000E+00 -0.20779442621E+04  0.20779442621E+04  0.00000000000E+00 0. -1.
          2    1    1    2  502    0  0.20762674703E+01  0.65167695243E+02 -0.18859873279E+04  0.18871140242E+04  0.00000000000E+00 0. -1.
         -2    1    1    2    0  502 -0.20762674703E+01 -0.65167695243E+02 -0.18584071002E+03  0.19694646199E+03  0.00000000000E+00 0. -1.
<mgrwt>
<rscale>  2 0.65200762E+02</rscale>
<asrwt>0</asrwt>
<pdfrwt beam="2">  1        2 0.31968356E+00 0.65200762E+02</pdfrwt>
<pdfrwt beam="1">  1       -2 0.94095806E-03 0.65200762E+02</pdfrwt>
<totfact> 0.14832110E+04</totfact>
</mgrwt>
</event>
<event>
 4    1  0.1352171E+004  0.3867528E+02  0.7546771E-02  0.1518193E+00
         -2   -1    0    0    0  501 -0.00000000000E+00  0.00000000000E+00  0.50212412482E+03  0.50212412482E+03  0.00000000000E+00 0.  1.
          2   -1    0    0  501    0  0.00000000000E+00 -0.00000000000E+00 -0.30898636979E+01  0.30898636979E+01  0.00000000000E+00 0. -1.
          2    1    1    2  502    0 -0.38673204798E+02  0.40046601240E+00  0.20164665074E+03  0.20532206140E+03  0.00000000000E+00 0. -1.
         -2    1    1    2    0  502  0.38673204798E+02 -0.40046601240E+00  0.29738761039E+03  0.29989192712E+03  0.00000000000E+00 0.  1.
<mgrwt>
<rscale>  2 0.38675278E+02</rscale>
<asrwt>0</asrwt>
<pdfrwt beam="2">  1        2 0.47536405E-03 0.38675278E+02</pdfrwt>
<pdfrwt beam="1">  1       -2 0.77249800E-01 0.38675278E+02</pdfrwt>
<totfact> 0.45710696E+04</totfact>
</mgrwt>
</event>
<event>
 4    1  0.1352171E+004  0.2193998E+02  0.7546771E-02  0.1709292E+00
         -2   -1    0    0    0  501 -0.00000000000E+00  0.00000000000E+00  0.13176118579E+02  0.13176118579E+02  0.00000000000E+00 0.  1.
          2   -1    0    0  501    0  0.00000000000E+00 -0.00000000000E+00 -0.51920150094E+02  0.51920150094E+02  0.00000000000E+00 0. -1.
          2    1    1    2  502    0 -0.64274292810E+01  0.20977388862E+02 -0.37090954495E+02  0.43094101638E+02  0.00000000000E+00 0. -1.
         -2    1    1    2    0  502  0.64274292810E+01 -0.20977388862E+02 -0.16530770201E+01  0.22002167036E+02  0.00000000000E+00 0.  1.
<mgrwt>
<rscale>  2 0.21939979E+02</rscale>
<asrwt>0</asrwt>
<pdfrwt beam="2">  1        2 0.79877154E-02 0.21939979E+02</pdfrwt>
<pdfrwt beam="1">  1       -2 0.20270952E-02 0.21939979E+02</pdfrwt>
<totfact> 0.36377992E+05</totfact>
</mgrwt>
</event>
<event>
 4    1  0.1352171E+004  0.2652751E+02  0.7546771E-02  0.1639984E+00
         -2   -1    0    0    0  501 -0.00000000000E+00  0.00000000000E+00  0.27155563736E+01  0.27155563736E+01  0.00000000000E+00 0. -1.
          2   -1    0    0  501    0  0.00000000000E+00 -0.00000000000E+00 -0.10540565058E+04  0.10540565058E+04  0.00000000000E+00 0. -1.
          2    1    1    2  502    0  0.52686821290E+01 -0.25999035714E+02 -0.98453045240E+03  0.98488777055E+03  0.00000000000E+00 0. -1.
         -2    1    1    2    0  502 -0.52686821290E+01  0.25999035714E+02 -0.66810496992E+02  0.71884291592E+02  0.00000000000E+00 0. -1.
<mgrwt>
<rscale>  2 0.26527512E+02</rscale>
<asrwt>0</asrwt>
<pdfrwt beam="2">  1        2 0.16216263E+00 0.26527512E+02</pdfrwt>
<pdfrwt beam="1">  1       -2 0.41777768E-03 0.26527512E+02</pdfrwt>
<totfact> 0.12958745E+05</totfact>
</mgrwt>
</event>
<event>
 4    1  0.1352171E+004  0.2876453E+02  0.7546771E-02  0.1612161E+00
          2   -1    0    0  501    0  0.00000000000E+00  0.00000000000E+00  0.79120414850E+03  0.79120414850E+03  0.00000000000E+00 0.  1.
         -2   -1    0    0    0  501 -0.00000000000E+00 -0.00000000000E+00 -0.11604022141E+01  0.11604022141E+01  0.00000000000E+00 0.  1.
          2    1    1    2  502    0  0.28757423910E+02  0.63916051380E+00  0.51955676389E+03  0.52035240833E+03  0.00000000000E+00 0.  1.
         -2    1    1    2    0  502 -0.28757423910E+02 -0.63916051380E+00  0.27048698240E+03  0.27201214238E+03  0.00000000000E+00 0.  1.
<mgrwt>
<rscale>  2 0.28764526E+02</rscale>
<asrwt>0</asrwt>
<pdfrwt beam="1">  1        2 0.12172328E+00 0.28764526E+02</pdfrwt>
<pdfrwt beam="2">  1       -2 0.17852405E-03 0.28764526E+02</pdfrwt>
<totfact> 0.58417956E+05</totfact>
</mgrwt>
</event>
<event>
 4    1  0.1352171E+004  0.2434629E+02  0.7546771E-02  0.1670573E+00
          2   -1    0    0  501    0  0.00000000000E+00  0.00000000000E+00  0.56011731798E+03  0.56011731798E+03  0.00000000000E+00 0.  1.
         -2   -1    0    0    0  501 -0.00000000000E+00 -0.00000000000E+00 -0.29725854551E+01  0.29725854551E+01  0.00000000000E+00 0.  1.
          2    1    1    2  502    0  0.23033237053E+02  0.78874482023E+01  0.50451077112E+03  0.50509787173E+03  0.00000000000E+00 0.  1.
         -2    1    1    2    0  502 -0.23033237053E+02 -0.78874482023E+01  0.52633961399E+02  0.57992031701E+02  0.00000000000E+00 0.  1.
<mgrwt>
<rscale>  2 0.24346290E+02</rscale>
<asrwt>0</asrwt>
<pdfrwt beam="1">  1        2 0.86171811E-01 0.24346290E+02</pdfrwt>
<pdfrwt beam="2">  1       -2 0.45732129E-03 0.24346290E+02</pdfrwt>
<totfact> 0.23088113E+05</totfact>
</mgrwt>
</event>
<event>
 4    1  0.1352171E+004  0.1042751E+03  0.7546771E-02  0.1271555E+00
         -2   -1    0    0    0  501 -0.00000000000E+00  0.00000000000E+00  0.27676485970E+02  0.27676485970E+02  0.00000000000E+00 0.  1.
          2   -1    0    0  501    0  0.00000000000E+00 -0.00000000000E+00 -0.78295462880E+03  0.78295462880E+03  0.00000000000E+00 0. -1.
          2    1    1    2  502    0 -0.77237421892E+02  0.70054783416E+02 -0.66372979187E+03  0.67187091664E+03  0.00000000000E+00 0. -1.
         -2    1    1    2    0  502  0.77237421892E+02 -0.70054783416E+02 -0.91548350963E+02  0.13876019813E+03  0.00000000000E+00 0.  1.
<mgrwt>
<rscale>  2 0.10427508E+03</rscale>
<asrwt>0</asrwt>
<pdfrwt beam="2">  1        2 0.12045454E+00 0.10427508E+03</pdfrwt>
<pdfrwt beam="1">  1       -2 0.42579217E-02 0.10427508E+03</pdfrwt>
<totfact> 0.86304642E+03</totfact>
</mgrwt>
</event>
<event>
 4    1  0.1352171E+004  0.2210026E+02  0.7546771E-02  0.1706524E+00
          2   -1    0    0  501    0  0.00000000000E+00  0.00000000000E+00  0.83991243415E+03  0.83991243415E+03  0.00000000000E+00 0. -1.
         -2   -1    0    0    0  501 -0.00000000000E+00 -0.00000000000E+00 -0.85224621283E+00  0.85224621283E+00  0.00000000000E+00 0. -1.
          2    1    1    2  502    0  0.20615423121E+02  0.79640293225E+01  0.65646624135E+03  0.65683814404E+03  0.00000000000E+00 0. -1.
         -2    1    1    2    0  502 -0.20615423121E+02 -0.79640293225E+01  0.18259394658E+03  0.18392653632E+03  0.00000000000E+00 0. -1.
<mgrwt>
<rscale>  2 0.22100259E+02</rscale>
<asrwt>0</asrwt>
<pdfrwt beam="1">  1        2 0.12921664E+00 0.22100259E+02</pdfrwt>
<pdfrwt beam="2">  1       -2 0.13111547E-03 0.22100259E+02</pdfrwt>
<totfact> 0.76226110E+05</totfact>
</mgrwt>
</event>
<event>
 4    1  0.1352171E+004  0.2373785E+02  0.7546771E-02  0.1679822E+00
         -2   -1    0    0    0  501 -0.00000000000E+00  0.00000000000E+00  0.20610412971E+02  0.20610412971E+02  0.00000000000E+00 0. -1.
          2   -1    0    0  501    0  0.00000000000E+00 -0.00000000000E+00 -0.52920535172E+03  0.52920535172E+03  0.00000000000E+00 0.  1.
          2    1    1    2  502    0  0.51211705579E+01  0.23178855919E+02 -0.52201002945E+03  0.52254947766E+03  0.00000000000E+00 0.  1.
         -2    1    1    2    0  502 -0.51211705579E+01 -0.23178855919E+02  0.13415090710E+02  0.27266287029E+02  0.00000000000E+00 0. -1.
<mgrwt>
<rscale>  2 0.23737855E+02</rscale>
<asrwt>0</asrwt>
<pdfrwt beam="2">  1        2 0.81416208E-01 0.23737855E+02</pdfrwt>
<pdfrwt beam="1">  1       -2 0.31708328E-02 0.23737855E+02</pdfrwt>
<totfact> 0.17427012E+04</totfact>
</mgrwt>
</event>
<event>
 4    1  0.1352171E+004  0.2768268E+02  0.7546771E-02  0.1625213E+00
          2   -1    0    0  501    0  0.00000000000E+00  0.00000000000E+00  0.24367254259E+03  0.24367254259E+03  0.00000000000E+00 0.  1.
         -2   -1    0    0    0  501 -0.00000000000E+00 -0.00000000000E+00 -0.10884642457E+02  0.10884642457E+02  0.00000000000E+00 0.  1.
          2    1    1    2  502    0  0.43764581157E+01  0.27334547454E+02  0.22372143414E+03  0.22542761801E+03  0.00000000000E+00 0.  1.
         -2    1    1    2    0  502 -0.43764581157E+01 -0.27334547454E+02  0.90664659980E+01  0.29129567038E+02  0.00000000000E+00 0.  1.
<mgrwt>
<rscale>  2 0.27682682E+02</rscale>
<asrwt>0</asrwt>
<pdfrwt beam="1">  1        2 0.37488079E-01 0.27682682E+02</pdfrwt>
<pdfrwt beam="2">  1       -2 0.16745606E-02 0.27682682E+02</pdfrwt>
<totfact> 0.94088545E+04</totfact>
</mgrwt>
</event>
<event>
 4    1  0.1352171E+004  0.2213280E+02  0.7546771E-02  0.1705965E+00
          2   -1    0    0  501    0  0.00000000000E+00  0.00000000000E+00  0.90491612628E+03  0.90491612628E+03  0.00000000000E+00 0.  1.
         -2   -1    0    0    0  501 -0.00000000000E+00 -0.00000000000E+00 -0.16314073463E+01  0.16314073463E+01  0.00000000000E+00 0.  1.
          2    1    1    2  502    0  0.71760980930E+01  0.20937154685E+02  0.82215878587E+03  0.82245664324E+03  0.00000000000E+00 0.  1.
         -2    1    1    2    0  502 -0.71760980930E+01 -0.20937154685E+02  0.81125933065E+02  0.84090890386E+02  0.00000000000E+00 0.  1.
<mgrwt>
<rscale>  2 0.22132800E+02</rscale>
<asrwt>0</asrwt>
<pdfrwt beam="1">  1        2 0.13921746E+00 0.22132800E+02</pdfrwt>
<pdfrwt beam="2">  1       -2 0.25098647E-03 0.22132800E+02</pdfrwt>
<totfact> 0.29631999E+05</totfact>
</mgrwt>
</event>
<event>
 4    1  0.1352171E+004  0.3880100E+02  0.7546771E-02  0.1517225E+00
         -2   -1    0    0    0  501 -0.00000000000E+00  0.00000000000E+00  0.74273236184E+01  0.74273236184E+01  0.00000000000E+00 0.  1.
          2   -1    0    0  501    0  0.00000000000E+00 -0.00000000000E+00 -0.75287158867E+03  0.75287158867E+03  0.00000000000E+00 0.  1.
          2    1    1    2  502    0  0.32547457499E+02  0.21122993691E+02 -0.69769195508E+03  0.69877004946E+03  0.00000000000E+00 0.  1.
         -2    1    1    2    0  502 -0.32547457499E+02 -0.21122993691E+02 -0.47752309971E+02  0.61528862819E+02  0.00000000000E+00 0.  1.
<mgrwt>
<rscale>  2 0.38801003E+02</rscale>
<asrwt>0</asrwt>
<pdfrwt beam="2">  1        2 0.11582642E+00 0.38801003E+02</pdfrwt>
<pdfrwt beam="1">  1       -2 0.11426650E-02 0.38801003E+02</pdfrwt>
<totfact> 0.53048763E+04</totfact>
</mgrwt>
</event>
<event>
 4    1  0.1352171E+004  0.2960259E+02  0.7546771E-02  0.1602524E+00
          2   -1    0    0  501    0  0.00000000000E+00  0.00000000000E+00  0.10345454945E+03  0.10345454945E+03  0.00000000000E+00 0.  1.
         -2   -1    0    0    0  501 -0.00000000000E+00 -0.00000000000E+00 -0.30836752052E+02  0.30836752052E+02  0.00000000000E+00 0. -1.
          2    1    1    2  502    0 -0.14962255061E+02 -0.25542983204E+02  0.93493626424E+02  0.98068196931E+02  0.00000000000E+00 0.  1.
         -2    1    1    2    0  502  0.14962255061E+02  0.25542983204E+02 -0.20875829024E+02  0.36223104573E+02  0.00000000000E+00 0. -1.
<mgrwt>
<rscale>  2 0.29602585E+02</rscale>
<asrwt>0</asrwt>
<pdfrwt beam="1">  1        2 0.15916084E-01 0.29602585E+02</pdfrwt>
<pdfrwt beam="2">  1       -2 0.47441157E-02 0.29602585E+02</pdfrwt>
<totfact> 0.54506898E+04</totfact>
</mgrwt>
</event>
<event>
 4    1  0.1352171E+004  0.2795939E+02  0.7546771E-02  0.1621806E+00
         -2   -1    0    0    0  501 -0.00000000000E+00  0.00000000000E+00  0.35025469097E+01  0.35025469097E+01  0.00000000000E+00 0. -1.
          2   -1    0    0  501    0  0.00000000000E+00 -0.00000000000E+00 -0.88148402728E+03  0.88148402728E+03  0.00000000000E+00 0.  1.
          2    1    1    2  502    0  0.20715754718E+02  0.18777242222E+02 -0.82138379625E+03  0.82185951845E+03  0.00000000000E+00 0.  1.
         -2    1    1    2    0  502 -0.20715754718E+02 -0.18777242222E+02 -0.56597684121E+02  0.63127055744E+02  0.00000000000E+00 0. -1.
<mgrwt>
<rscale>  2 0.27959387E+02</rscale>
<asrwt>0</asrwt>
<pdfrwt beam="2">  1        2 0.13561307E+00 0.27959387E+02</pdfrwt>
<pdfrwt beam="1">  1       -2 0.53885282E-03 0.27959387E+02</pdfrwt>
<totfact> 0.11606568E+05</totfact>
</mgrwt>
</event>
<event>
 4    1  0.1352171E+004  0.4478227E+02  0.7546771E-02  0.1475705E+00
          2   -1    0    0  501    0  0.00000000000E+00  0.00000000000E+00  0.14495276553E+04  0.14495276553E+04  0.00000000000E+00 0. -1.
         -2   -1    0    0    0  501 -0.00000000000E+00 -0.00000000000E+00 -0.24168389477E+01  0.24168389477E+01  0.00000000000E+00 0.  1.
          2    1    1    2  502    0 -0.32738051551E+02  0.30556045951E+02  0.11982487580E+04  0.11990852923E+04  0.00000000000E+00 0. -1.
         -2    1    1    2    0  502  0.32738051551E+02 -0.30556045951E+02  0.24886205829E+03  0.25285920197E+03  0.00000000000E+00 0.  1.
<mgrwt>
<rscale>  2 0.44782273E+02</rscale>
<asrwt>0</asrwt>
<pdfrwt beam="1">  1        2 0.22300356E+00 0.44782273E+02</pdfrwt>
<pdfrwt beam="2">  1       -2 0.37182254E-03 0.44782273E+02</pdfrwt>
<totfact> 0.10480820E+05</totfact>
</mgrwt>
</event>
<event>
 4    1  0.1352171E+004  0.2005116E+02  0.7546771E-02  0.1744313E+00
          2   -1    0    0  501    0  0.00000000000E+00  0.00000000000E+00  0.20843569238E+03  0.20843569238E+03  0.00000000000E+00 0.  1.
         -2   -1    0    0    0  501 -0.00000000000E+00 -0.00000000000E+00 -0.66637939187E+01  0.66637939187E+01  0.00000000000E+00 0.  1.
          2    1    1    2  502    0 -0.11563264521E+02 -0.16381080762E+02  0.19154357109E+03  0.19259020879E+03  0.00000000000E+00 0.  1.
         -2    1    1    2    0  502  0.11563264521E+02  0.16381080762E+02  0.10228327366E+02  0.22509277510E+02  0.00000000000E+00 0.  1.
<mgrwt>
<rscale>  2 0.20051157E+02</rscale>
<asrwt>0</asrwt>
<pdfrwt beam="1">  1        2 0.32067025E-01 0.20051157E+02</pdfrwt>
<pdfrwt beam="2">  1       -2 0.10251992E-02 0.20051157E+02</pdfrwt>
<totfact> 0.19790608E+05</totfact>
</mgrwt>
</event>
<event>
 4    1  0.1669948E+004  0.2157549E+02  0.7546771E-02  0.1715699E+00
         -2   -1    0    0    0  501 -0.00000000000E+00  0.00000000000E+00  0.17574474872E+03  0.17574474872E+03  0.00000000000E+00 0. -1.
          2   -1    0    0  501    0  0.00000000000E+00 -0.00000000000E+00 -0.74921230677E+03  0.74921230677E+03  0.00000000000E+00 0. -1.
          2    1    1    2  502    0 -0.13642539717E+02 -0.16714755332E+02 -0.74839406778E+03  0.74870500374E+03  0.00000000000E+00 0. -1.
         -2    1    1    2    0  502  0.13642539717E+02  0.16714755332E+02  0.17492650974E+03  0.17625205175E+03  0.00000000000E+00 0. -1.
<mgrwt>
<rscale>  2 0.21575494E+02</rscale>
<asrwt>0</asrwt>
<pdfrwt beam="2">  1        2 0.11526343E+00 0.21575494E+02</pdfrwt>
<pdfrwt beam="1">  1       -2 0.27037653E-01 0.21575494E+02</pdfrwt>
<totfact> 0.48228415E+02</totfact>
</mgrwt>
</event>
<event>
 4    1  0.1352171E+004  0.2169068E+02  0.7546771E-02  0.1713657E+00
         -2   -1    0    0    0  501 -0.00000000000E+00  0.00000000000E+00  0.70690671745E+01  0.70690671745E+01  0.00000000000E+00 0. -1.
          2   -1    0    0  501    0  0.00000000000E+00 -0.00000000000E+00 -0.86317875049E+02  0.86317875049E+02  0.00000000000E+00 0. -1.
          2    1    1    2  502    0  0.17807810298E+02  0.12384167717E+02 -0.61966540881E+02  0.65653163720E+02  0.00000000000E+00 0. -1.
         -2    1    1    2    0  502 -0.17807810298E+02 -0.12384167717E+02 -0.17282266993E+02  0.27733778503E+02  0.00000000000E+00 0. -1.
<mgrwt>
<rscale>  2 0.21690683E+02</rscale>
<asrwt>0</asrwt>
<pdfrwt beam="2">  1        2 0.13279674E-01 0.21690683E+02</pdfrwt>
<pdfrwt beam="1">  1       -2 0.10875487E-02 0.21690683E+02</pdfrwt>
<totfact> 0.47280121E+05</totfact>
</mgrwt>
</event>
<event>
 4    1  0.1352171E+004  0.3067111E+02  0.7546771E-02  0.1590787E+00
         -2   -1    0    0    0  501 -0.00000000000E+00  0.00000000000E+00  0.29260964245E+02  0.29260964245E+02  0.00000000000E+00 0.  1.
          2   -1    0    0  501    0  0.00000000000E+00 -0.00000000000E+00 -0.74613582979E+03  0.74613582979E+03  0.00000000000E+00 0. -1.
          2    1    1    2  502    0 -0.30223405543E+02 -0.52213531323E+01 -0.73769136759E+03  0.73832870091E+03  0.00000000000E+00 0. -1.
         -2    1    1    2    0  502  0.30223405543E+02  0.52213531323E+01  0.20816502040E+02  0.37068093131E+02  0.00000000000E+00 0.  1.
<mgrwt>
<rscale>  2 0.30671106E+02</rscale>
<asrwt>0</asrwt>
<pdfrwt beam="2">  1        2 0.11479012E+00 0.30671106E+02</pdfrwt>
<pdfrwt beam="1">  1       -2 0.45016872E-02 0.30671106E+02</pdfrwt>
<totfact> 0.76168848E+03</totfact>
</mgrwt>
</event>
<event>
 4    1  0.1352171E+004  0.2270692E+02  0.7546771E-02  0.1696305E+00
         -2   -1    0    0    0  501 -0.00000000000E+00  0.00000000000E+00  0.26530641836E+02  0.26530641836E+02  0.00000000000E+00 0.  1.
          2   -1    0    0  501    0  0.00000000000E+00 -0.00000000000E+00 -0.63603838834E+03  0.63603838834E+03  0.00000000000E+00 0.  1.
          2    1    1    2  502    0 -0.17033600328E+02  0.15015346575E+02 -0.63093788965E+03  0.63134635880E+03  0.00000000000E+00 0.  1.
         -2    1    1    2    0  502  0.17033600328E+02 -0.15015346575E+02  0.21430143143E+02  0.31222671379E+02  0.00000000000E+00 0.  1.
<mgrwt>
<rscale>  2 0.22706919E+02</rscale>
<asrwt>0</asrwt>
<pdfrwt beam="2">  1        2 0.97852059E-01 0.22706919E+02</pdfrwt>
<pdfrwt beam="1">  1       -2 0.40816372E-02 0.22706919E+02</pdfrwt>
<totfact> 0.10049269E+04</totfact>
</mgrwt>
</event>
<event>
 4    1  0.1352171E+004  0.2305920E+02  0.7546771E-02  0.1690552E+00
         -2   -1    0    0    0  501 -0.00000000000E+00  0.00000000000E+00  0.11159903189E+02  0.11159903189E+02  0.00000000000E+00 0.  1.
          2   -1    0    0  501    0  0.00000000000E+00 -0.00000000000E+00 -0.49509936772E+02  0.49509936772E+02  0.00000000000E+00 0.  1.
          2    1    1    2  502    0 -0.13222724706E+02  0.18891433410E+02 -0.25060631379E+02  0.34055277859E+02  0.00000000000E+00 0.  1.
         -2    1    1    2    0  502  0.13222724706E+02 -0.18891433410E+02 -0.13289402204E+02  0.26614562102E+02  0.00000000000E+00 0.  1.
<mgrwt>
<rscale>  2 0.23059200E+02</rscale>
<asrwt>0</asrwt>
<pdfrwt beam="2">  1        2 0.76169133E-02 0.23059200E+02</pdfrwt>
<pdfrwt beam="1">  1       -2 0.17169082E-02 0.23059200E+02</pdfrwt>
<totfact> 0.49039111E+05</totfact>
</mgrwt>
</event>
<event>
 4    1  0.1352171E+004  0.2512032E+02  0.7546771E-02  0.1659280E+00
         -2   -1    0    0    0  501 -0.00000000000E+00  0.00000000000E+00  0.13816544414E+03  0.13816544414E+03  0.00000000000E+00 0. -1.
          2   -1    0    0  501    0  0.00000000000E+00 -0.00000000000E+00 -0.30702053719E+03  0.30702053719E+03  0.00000000000E+00 0.  1.
          2    1    1    2  502    0 -0.24378455874E+02 -0.60598324611E+01 -0.30535869678E+03  0.30639021587E+03  0.00000000000E+00 0.  1.
         -2    1    1    2    0  502  0.24378455874E+02  0.60598324611E+01  0.13650360373E+03  0.13879576547E+03  0.00000000000E+00 0. -1.
<mgrwt>
<rscale>  2 0.25120324E+02</rscale>
<asrwt>0</asrwt>
<pdfrwt beam="2">  1        2 0.47233928E-01 0.25120324E+02</pdfrwt>
<pdfrwt beam="1">  1       -2 0.21256222E-01 0.25120324E+02</pdfrwt>
<totfact> 0.17965308E+03</totfact>
</mgrwt>
</event>
<event>
 4    1  0.1352171E+004  0.2332314E+02  0.7546771E-02  0.1686325E+00
          2   -1    0    0  501    0  0.00000000000E+00  0.00000000000E+00  0.95826576179E+03  0.95826576179E+03  0.00000000000E+00 0. -1.
         -2   -1    0    0    0  501 -0.00000000000E+00 -0.00000000000E+00 -0.97648749705E+00  0.97648749705E+00  0.00000000000E+00 0. -1.
          2    1    1    2  502    0  0.19005388977E+02 -0.13519023821E+02  0.78898280363E+03  0.78932745628E+03  0.00000000000E+00 0. -1.
         -2    1    1    2    0  502 -0.19005388977E+02  0.13519023821E+02  0.16830647066E+03  0.16991479300E+03  0.00000000000E+00 0. -1.
<mgrwt>
<rscale>  2 0.23323139E+02</rscale>
<asrwt>0</asrwt>
<pdfrwt beam="1">  1        2 0.14742475E+00 0.23323139E+02</pdfrwt>
<pdfrwt beam="2">  1       -2 0.15022961E-03 0.23323139E+02</pdfrwt>
<totfact> 0.55338197E+05</totfact>
</mgrwt>
</event>
<event>
 4    1  0.1352171E+004  0.4912666E+02  0.7546771E-02  0.1450110E+00
         -2   -1    0    0    0  501 -0.00000000000E+00  0.00000000000E+00  0.67335495367E+01  0.67335495367E+01  0.00000000000E+00 0.  1.
          2   -1    0    0  501    0  0.00000000000E+00 -0.00000000000E+00 -0.56578274075E+03  0.56578274075E+03  0.00000000000E+00 0.  1.
          2    1    1    2  502    0 -0.77483764777E+01 -0.48511762321E+02 -0.45282516331E+03  0.45548222462E+03  0.00000000000E+00 0.  1.
         -2    1    1    2    0  502  0.77483764777E+01  0.48511762321E+02 -0.10622402790E+03  0.11703406566E+03  0.00000000000E+00 0.  1.
<mgrwt>
<rscale>  2 0.49126657E+02</rscale>
<asrwt>0</asrwt>
<pdfrwt beam="2">  1        2 0.87043541E-01 0.49126657E+02</pdfrwt>
<pdfrwt beam="1">  1       -2 0.10359302E-02 0.49126657E+02</pdfrwt>
<totfact> 0.86642626E+04</totfact>
</mgrwt>
</event>
<event>
 4    1  0.1352171E+004  0.3372935E+02  0.7546771E-02  0.1560183E+00
         -2   -1    0    0    0  501 -0.00000000000E+00  0.00000000000E+00  0.34363089398E+02  0.34363089398E+02  0.00000000000E+00 0. -1.
          2   -1    0    0  501    0  0.00000000000E+00 -0.00000000000E+00 -0.41710737463E+03  0.41710737463E+03  0.00000000000E+00 0. -1.
          2    1    1    2  502    0 -0.27286700644E+02  0.19826878683E+02 -0.40796347211E+03  0.40935542470E+03  0.00000000000E+00 0. -1.
         -2    1    1    2    0  502  0.27286700644E+02 -0.19826878683E+02  0.25219186884E+02  0.42115039327E+02  0.00000000000E+00 0. -1.
<mgrwt>
<rscale>  2 0.33729351E+02</rscale>
<asrwt>0</asrwt>
<pdfrwt beam="2">  1        2 0.64170359E-01 0.33729351E+02</pdfrwt>
<pdfrwt beam="1">  1       -2 0.52866296E-02 0.33729351E+02</pdfrwt>
<totfact> 0.11288891E+04</totfact>
</mgrwt>
</event>
<event>
 4    1  0.1352171E+004  0.2093438E+02  0.7546771E-02  0.1727361E+00
          2   -1    0    0  501    0  0.00000000000E+00  0.00000000000E+00  0.43167628733E+03  0.43167628733E+03  0.00000000000E+00 0.  1.
         -2   -1    0    0    0  501 -0.00000000000E+00 -0.00000000000E+00 -0.18162199612E+02  0.18162199612E+02  0.00000000000E+00 0. -1.
          2    1    1    2  502    0  0.75109815608E-01  0.20934242005E+02  0.42529966965E+03  0.42581458070E+03  0.00000000000E+00 0.  1.
         -2    1    1    2    0  502 -0.75109815608E-01 -0.20934242005E+02 -0.11785581931E+02  0.24023906245E+02  0.00000000000E+00 0. -1.
<mgrwt>
<rscale>  2 0.20934377E+02</rscale>
<asrwt>0</asrwt>
<pdfrwt beam="1">  1        2 0.66411729E-01 0.20934377E+02</pdfrwt>
<pdfrwt beam="2">  1       -2 0.27941849E-02 0.20934377E+02</pdfrwt>
<totfact> 0.24944162E+04</totfact>
</mgrwt>
</event>
<event>
 4    1  0.1352171E+004  0.2281869E+02  0.7546771E-02  0.1694466E+00
          2   -1    0    0  501    0  0.00000000000E+00  0.00000000000E+00  0.66523560377E+03  0.66523560377E+03  0.00000000000E+00 0. -1.
         -2   -1    0    0    0  501 -0.00000000000E+00 -0.00000000000E+00 -0.20319845633E+01  0.20319845633E+01  0.00000000000E+00 0. -1.
          2    1    1    2  502    0 -0.15379116842E+02  0.16857502910E+02  0.59320147990E+03  0.59364020113E+03  0.00000000000E+00 0. -1.
         -2    1    1    2    0  502  0.15379116842E+02 -0.16857502910E+02  0.70002139303E+02  0.73627387202E+02  0.00000000000E+00 0. -1.
<mgrwt>
<rscale>  2 0.22818691E+02</rscale>
<asrwt>0</asrwt>
<pdfrwt beam="1">  1        2 0.10234377E+00 0.22818691E+02</pdfrwt>
<pdfrwt beam="2">  1       -2 0.31261354E-03 0.22818691E+02</pdfrwt>
<totfact> 0.31509621E+05</totfact>
</mgrwt>
</event>
<event>
 4    1  0.1352171E+004  0.2939041E+02  0.7546771E-02  0.1604926E+00
          2   -1    0    0  501    0  0.00000000000E+00  0.00000000000E+00  0.14982781708E+02  0.14982781708E+02  0.00000000000E+00 0.  1.
         -2   -1    0    0    0  501 -0.00000000000E+00 -0.00000000000E+00 -0.63676538075E+02  0.63676538075E+02  0.00000000000E+00 0. -1.
          2    1    1    2  502    0  0.13754651924E+02 -0.25973170567E+02 -0.12250053230E+02  0.31841165855E+02  0.00000000000E+00 0.  1.
         -2    1    1    2    0  502 -0.13754651924E+02  0.25973170567E+02 -0.36443703137E+02  0.46818153928E+02  0.00000000000E+00 0. -1.
<mgrwt>
<rscale>  2 0.29390407E+02</rscale>
<asrwt>0</asrwt>
<pdfrwt beam="1">  1        2 0.23050433E-02 0.29390407E+02</pdfrwt>
<pdfrwt beam="2">  1       -2 0.97963906E-02 0.29390407E+02</pdfrwt>
<totfact> 0.19560523E+05</totfact>
</mgrwt>
</event>
<event>
 4    1  0.1352171E+004  0.7342470E+02  0.7546771E-02  0.1348820E+00
         -2   -1    0    0    0  501 -0.00000000000E+00  0.00000000000E+00  0.41860301233E+02  0.41860301233E+02  0.00000000000E+00 0. -1.
          2   -1    0    0  501    0  0.00000000000E+00 -0.00000000000E+00 -0.28226659912E+03  0.28226659912E+03  0.00000000000E+00 0.  1.
          2    1    1    2  502    0  0.73423195101E+02 -0.46968627622E+00 -0.23970551019E+03  0.25069885879E+03  0.00000000000E+00 0.  1.
         -2    1    1    2    0  502 -0.73423195101E+02  0.46968627622E+00 -0.70078769646E+00  0.73428041560E+02  0.00000000000E+00 0. -1.
<mgrwt>
<rscale>  2 0.73424697E+02</rscale>
<asrwt>0</asrwt>
<pdfrwt beam="2">  1        2 0.43425631E-01 0.73424697E+02</pdfrwt>
<pdfrwt beam="1">  1       -2 0.64400463E-02 0.73424697E+02</pdfrwt>
<totfact> 0.13746297E+04</totfact>
</mgrwt>
</event>
<event>
 4    1  0.1352171E+004  0.2273893E+02  0.7546771E-02  0.1695777E+00
         -2   -1    0    0    0  501 -0.00000000000E+00  0.00000000000E+00  0.13746713218E+03  0.13746713218E+03  0.00000000000E+00 0. -1.
          2   -1    0    0  501    0  0.00000000000E+00 -0.00000000000E+00 -0.37831445569E+03  0.37831445569E+03  0.00000000000E+00 0.  1.
          2    1    1    2  502    0 -0.20510977515E+02  0.98162545138E+01 -0.37702923502E+03  0.37771431414E+03  0.00000000000E+00 0.  1.
         -2    1    1    2    0  502  0.20510977515E+02 -0.98162545138E+01  0.13618191151E+03  0.13806727372E+03  0.00000000000E+00 0. -1.
<mgrwt>
<rscale>  2 0.22738933E+02</rscale>
<asrwt>0</asrwt>
<pdfrwt beam="2">  1        2 0.58202223E-01 0.22738933E+02</pdfrwt>
<pdfrwt beam="1">  1       -2 0.21148790E-01 0.22738933E+02</pdfrwt>
<totfact> 0.14627295E+03</totfact>
</mgrwt>
</event>
<event>
 4    1  0.1352171E+004  0.6068087E+02  0.7546771E-02  0.1394996E+00
          2   -1    0    0  501    0  0.00000000000E+00  0.00000000000E+00  0.93508576003E+03  0.93508576003E+03  0.00000000000E+00 0.  1.
         -2   -1    0    0    0  501 -0.00000000000E+00 -0.00000000000E+00 -0.23325789624E+02  0.23325789624E+02  0.00000000000E+00 0.  1.
          2    1    1    2  502    0 -0.45860092151E+01  0.60507325632E+02  0.89276827893E+03  0.89482812193E+03  0.00000000000E+00 0.  1.
         -2    1    1    2    0  502  0.45860092151E+01 -0.60507325632E+02  0.18991691473E+02  0.63583427720E+02  0.00000000000E+00 0.  1.
<mgrwt>
<rscale>  2 0.60680870E+02</rscale>
<asrwt>0</asrwt>
<pdfrwt beam="1">  1        2 0.14385932E+00 0.60680870E+02</pdfrwt>
<pdfrwt beam="2">  1       -2 0.35885837E-02 0.60680870E+02</pdfrwt>
<totfact> 0.85546669E+03</totfact>
</mgrwt>
</event>
<event>
 4    1  0.1352171E+004  0.2359664E+02  0.7546771E-02  0.1682017E+00
         -2   -1    0    0    0  501 -0.00000000000E+00  0.00000000000E+00  0.12449963614E+02  0.12449963614E+02  0.00000000000E+00 0.  1.
          2   -1    0    0  501    0  0.00000000000E+00 -0.00000000000E+00 -0.59137118532E+02  0.59137118532E+02  0.00000000000E+00 0. -1.
          2    1    1    2  502    0 -0.74043994935E+01  0.22404830246E+02 -0.41014792784E+02  0.47318228806E+02  0.00000000000E+00 0. -1.
         -2    1    1    2    0  502  0.74043994935E+01 -0.22404830246E+02 -0.56723621339E+01  0.24268853339E+02  0.00000000000E+00 0.  1.
<mgrwt>
<rscale>  2 0.23596643E+02</rscale>
<asrwt>0</asrwt>
<pdfrwt beam="2">  1        2 0.90980183E-02 0.23596643E+02</pdfrwt>
<pdfrwt beam="1">  1       -2 0.19153790E-02 0.23596643E+02</pdfrwt>
<totfact> 0.34517675E+05</totfact>
</mgrwt>
</event>
<event>
 4    1  0.1352171E+004  0.2638429E+02  0.7546771E-02  0.1641880E+00
          2   -1    0    0  501    0  0.00000000000E+00  0.00000000000E+00  0.18456644077E+03  0.18456644077E+03  0.00000000000E+00 0.  1.
         -2   -1    0    0    0  501 -0.00000000000E+00 -0.00000000000E+00 -0.52625314016E+02  0.52625314016E+02  0.00000000000E+00 0. -1.
          2    1    1    2  502    0  0.25758766999E+02  0.57110865712E+01  0.18023749310E+03  0.18215840499E+03  0.00000000000E+00 0.  1.
         -2    1    1    2    0  502 -0.25758766999E+02 -0.57110865712E+01 -0.48296366351E+02  0.55033349797E+02  0.00000000000E+00 0. -1.
<mgrwt>
<rscale>  2 0.26384287E+02</rscale>
<asrwt>0</asrwt>
<pdfrwt beam="1">  1        2 0.28394837E-01 0.26384287E+02</pdfrwt>
<pdfrwt beam="2">  1       -2 0.80962023E-02 0.26384287E+02</pdfrwt>
<totfact> 0.13312032E+04</totfact>
</mgrwt>
</event>
<event>
 4    1  0.1352171E+004  0.6525641E+02  0.7546771E-02  0.1377010E+00
         -2   -1    0    0    0  501 -0.00000000000E+00  0.00000000000E+00  0.14065931317E+02  0.14065931317E+02  0.00000000000E+00 0.  1.
          2   -1    0    0  501    0  0.00000000000E+00 -0.00000000000E+00 -0.57046522247E+03  0.57046522247E+03  0.00000000000E+00 0.  1.
          2    1    1    2  502    0  0.61688238590E+02 -0.21282876429E+02 -0.47841765373E+03  0.48284764782E+03  0.00000000000E+00 0.  1.
         -2    1    1    2    0  502 -0.61688238590E+02  0.21282876429E+02 -0.77981637422E+02  0.10168350596E+03  0.00000000000E+00 0.  1.
<mgrwt>
<rscale>  2 0.65256414E+02</rscale>
<asrwt>0</asrwt>
<pdfrwt beam="2">  1        2 0.87763884E-01 0.65256414E+02</pdfrwt>
<pdfrwt beam="1">  1       -2 0.21639893E-02 0.65256414E+02</pdfrwt>
<totfact> 0.31745058E+04</totfact>
</mgrwt>
</event>
<event>
 4    1  0.1352171E+004  0.3293453E+02  0.7546771E-02  0.1567747E+00
          2   -1    0    0  501    0  0.00000000000E+00  0.00000000000E+00  0.62585866544E+03  0.62585866544E+03  0.00000000000E+00 0.  1.
         -2   -1    0    0    0  501 -0.00000000000E+00 -0.00000000000E+00 -0.16431620061E+02  0.16431620061E+02  0.00000000000E+00 0. -1.
          2    1    1    2  502    0  0.29634271793E+02 -0.14369877297E+02  0.60845058383E+03  0.60934128073E+03  0.00000000000E+00 0.  1.
         -2    1    1    2    0  502 -0.29634271793E+02  0.14369877297E+02  0.97646154855E+00  0.32949004771E+02  0.00000000000E+00 0. -1.
<mgrwt>
<rscale>  2 0.32934533E+02</rscale>
<asrwt>0</asrwt>
<pdfrwt beam="1">  1        2 0.96285930E-01 0.32934533E+02</pdfrwt>
<pdfrwt beam="2">  1       -2 0.25279420E-02 0.32934533E+02</pdfrwt>
<totfact> 0.21064483E+04</totfact>
</mgrwt>
</event>
<event>
 4    1  0.1352171E+004  0.3180375E+02  0.7546771E-02  0.1578966E+00
          2   -1    0    0  501    0  0.00000000000E+00  0.00000000000E+00  0.19059780058E+03  0.19059780058E+03  0.00000000000E+00 0.  1.
         -2   -1    0    0    0  501 -0.00000000000E+00 -0.00000000000E+00 -0.11519079369E+02  0.11519079369E+02  0.00000000000E+00 0. -1.
          2    1    1    2  502    0 -0.98268435668E+01  0.30247501445E+02  0.16375350149E+03  0.16681333115E+03  0.00000000000E+00 0.  1.
         -2    1    1    2    0  502  0.98268435668E+01 -0.30247501445E+02  0.15325219713E+02  0.35303548794E+02  0.00000000000E+00 0. -1.
<mgrwt>
<rscale>  2 0.31803745E+02</rscale>
<asrwt>0</asrwt>
<pdfrwt beam="1">  1        2 0.29322736E-01 0.31803745E+02</pdfrwt>
<pdfrwt beam="2">  1       -2 0.17721662E-02 0.31803745E+02</pdfrwt>
<totfact> 0.11513806E+05</totfact>
</mgrwt>
</event>
<event>
 4    1  0.1352171E+004  0.2359785E+02  0.7546771E-02  0.1681998E+00
          2   -1    0    0  501    0  0.00000000000E+00  0.00000000000E+00  0.24225684798E+03  0.24225684798E+03  0.00000000000E+00 0. -1.
         -2   -1    0    0    0  501 -0.00000000000E+00 -0.00000000000E+00 -0.37297815906E+01  0.37297815906E+01  0.00000000000E+00 0. -1.
          2    1    1    2  502    0  0.16817130517E+02 -0.16554233518E+02  0.19545087702E+03  0.19687027163E+03  0.00000000000E+00 0. -1.
         -2    1    1    2    0  502 -0.16817130517E+02  0.16554233518E+02  0.43076189374E+02  0.49116357939E+02  0.00000000000E+00 0. -1.
<mgrwt>
<rscale>  2 0.23597850E+02</rscale>
<asrwt>0</asrwt>
<pdfrwt beam="1">  1        2 0.37270272E-01 0.23597850E+02</pdfrwt>
<pdfrwt beam="2">  1       -2 0.57381274E-03 0.23597850E+02</pdfrwt>
<totfact> 0.38915476E+05</totfact>
</mgrwt>
</event>
<event>
 4    1  0.1352171E+004  0.2122339E+02  0.7546771E-02  0.1722040E+00
          2   -1    0    0  501    0  0.00000000000E+00  0.00000000000E+00  0.46835551197E+03  0.46835551197E+03  0.00000000000E+00 0.  1.
         -2   -1    0    0    0  501 -0.00000000000E+00 -0.00000000000E+00 -0.38775376301E+01  0.38775376301E+01  0.00000000000E+00 0. -1.
          2    1    1    2  502    0  0.69391085459E+01 -0.20056941329E+02  0.43699078057E+03  0.43750585645E+03  0.00000000000E+00 0.  1.
         -2    1    1    2    0  502 -0.69391085459E+01  0.20056941329E+02  0.27487193770E+02  0.34727193153E+02  0.00000000000E+00 0. -1.
<mgrwt>
<rscale>  2 0.21223386E+02</rscale>
<asrwt>0</asrwt>
<pdfrwt beam="1">  1        2 0.72054649E-01 0.21223386E+02</pdfrwt>
<pdfrwt beam="2">  1       -2 0.59654462E-03 0.21223386E+02</pdfrwt>
<totfact> 0.18715044E+05</totfact>
</mgrwt>
</event>
<event>
 4    1  0.1352171E+004  0.4382641E+02  0.7546771E-02  0.1481804E+00
         -2   -1    0    0    0  501 -0.00000000000E+00  0.00000000000E+00  0.57943345611E+02  0.57943345611E+02  0.00000000000E+00 0. -1.
          2   -1    0    0  501    0  0.00000000000E+00 -0.00000000000E+00 -0.14371962011E+03  0.14371962011E+03  0.00000000000E+00 0. -1.
          2    1    1    2  502    0  0.24533637105E+02 -0.36316045490E+02 -0.13133008875E+03  0.13844979856E+03  0.00000000000E+00 0. -1.
         -2    1    1    2    0  502 -0.24533637105E+02  0.36316045490E+02  0.45553814253E+02  0.63213167162E+02  0.00000000000E+00 0. -1.
<mgrwt>
<rscale>  2 0.43826413E+02</rscale>
<asrwt>0</asrwt>
<pdfrwt beam="2">  1        2 0.22110711E-01 0.43826413E+02</pdfrwt>
<pdfrwt beam="1">  1       -2 0.89143608E-02 0.43826413E+02</pdfrwt>
<totfact> 0.16135155E+04</totfact>
</mgrwt>
</event>
<event>
 4    1  0.1352171E+004  0.4101186E+02  0.7546771E-02  0.1500895E+00
         -2   -1    0    0    0  501 -0.00000000000E+00  0.00000000000E+00  0.19360747949E+01  0.19360747949E+01  0.00000000000E+00 0. -1.
          2   -1    0    0  501    0  0.00000000000E+00 -0.00000000000E+00 -0.31972638496E+04  0.31972638496E+04  0.00000000000E+00 0.  1.
          2    1    1    2  502    0  0.25490089886E+02  0.32128303724E+02 -0.29627535974E+04  0.29630374367E+04  0.00000000000E+00 0.  1.
         -2    1    1    2    0  502 -0.25490089886E+02 -0.32128303724E+02 -0.23257417743E+03  0.23616248769E+03  0.00000000000E+00 0. -1.
<mgrwt>
<rscale>  2 0.41011859E+02</rscale>
<asrwt>0</asrwt>
<pdfrwt beam="2">  1        2 0.49188252E+00 0.41011859E+02</pdfrwt>
<pdfrwt beam="1">  1       -2 0.29786022E-03 0.41011859E+02</pdfrwt>
<totfact> 0.18198421E+04</totfact>
</mgrwt>
</event>
<event>
 4    1  0.1352171E+004  0.2113091E+02  0.7546771E-02  0.1723731E+00
          2   -1    0    0  501    0  0.00000000000E+00  0.00000000000E+00  0.18277015566E+02  0.18277015566E+02  0.00000000000E+00 0.  1.
         -2   -1    0    0    0  501 -0.00000000000E+00 -0.00000000000E+00 -0.25985933049E+02  0.25985933049E+02  0.00000000000E+00 0.  1.
          2    1    1    2  502    0 -0.16079022860E+02  0.13710576785E+02 -0.92692300115E+01  0.23074520946E+02  0.00000000000E+00 0.  1.
         -2    1    1    2    0  502  0.16079022860E+02 -0.13710576785E+02  0.15603125278E+01  0.21188427669E+02  0.00000000000E+00 0.  1.
<mgrwt>
<rscale>  2 0.21130910E+02</rscale>
<asrwt>0</asrwt>
<pdfrwt beam="1">  1        2 0.28118485E-02 0.21130910E+02</pdfrwt>
<pdfrwt beam="2">  1       -2 0.39978359E-02 0.21130910E+02</pdfrwt>
<totfact> 0.50295097E+05</totfact>
</mgrwt>
</event>
<event>
 4    1  0.1352171E+004  0.2853436E+02  0.7546771E-02  0.1614878E+00
         -2   -1    0    0    0  501 -0.00000000000E+00  0.00000000000E+00  0.11349833352E+02  0.11349833352E+02  0.00000000000E+00 0.  1.
          2   -1    0    0  501    0  0.00000000000E+00 -0.00000000000E+00 -0.73407204488E+02  0.73407204488E+02  0.00000000000E+00 0.  1.
          2    1    1    2  502    0 -0.11609880523E+02  0.26065676612E+02 -0.24637307810E+02  0.37698882730E+02  0.00000000000E+00 0.  1.
         -2    1    1    2    0  502  0.11609880523E+02 -0.26065676612E+02 -0.37420063326E+02  0.47058155110E+02  0.00000000000E+00 0.  1.
<mgrwt>
<rscale>  2 0.28534359E+02</rscale>
<asrwt>0</asrwt>
<pdfrwt beam="2">  1        2 0.11293416E-01 0.28534359E+02</pdfrwt>
<pdfrwt beam="1">  1       -2 0.17461282E-02 0.28534359E+02</pdfrwt>
<totfact> 0.32235011E+05</totfact>
</mgrwt>
</event>
<event>
 4    1  0.1352171E+004  0.2118536E+02  0.7546771E-02  0.1722734E+00
          2   -1    0    0  501    0  0.00000000000E+00  0.00000000000E+00  0.29951088987E+03  0.29951088987E+03  0.00000000000E+00 0. -1.
         -2   -1    0    0    0  501 -0.00000000000E+00 -0.00000000000E+00 -0.20955274238E+01  0.20955274238E+01  0.00000000000E+00 0. -1.
          2    1    1    2  502    0  0.49729411844E+01  0.20593431067E+02  0.22920066714E+03  0.23017768216E+03  0.00000000000E+00 0. -1.
         -2    1    1    2    0  502 -0.49729411844E+01 -0.20593431067E+02  0.68214695311E+02  0.71428735139E+02  0.00000000000E+00 0. -1.
<mgrwt>
<rscale>  2 0.21185362E+02</rscale>
<asrwt>0</asrwt>
<pdfrwt beam="1">  1        2 0.46078564E-01 0.21185362E+02</pdfrwt>
<pdfrwt beam="2">  1       -2 0.32238907E-03 0.21185362E+02</pdfrwt>
<totfact> 0.65963051E+05</totfact>
</mgrwt>
</event>
<event>
 4    1  0.1352171E+004  0.3059039E+02  0.7546771E-02  0.1591653E+00
         -2   -1    0    0    0  501 -0.00000000000E+00  0.00000000000E+00  0.15089378173E+02  0.15089378173E+02  0.00000000000E+00 0.  1.
          2   -1    0    0  501    0  0.00000000000E+00 -0.00000000000E+00 -0.42406249630E+03  0.42406249630E+03  0.00000000000E+00 0.  1.
          2    1    1    2  502    0 -0.29139321405E+02 -0.93097611430E+01 -0.40737272306E+03  0.40851965338E+03  0.00000000000E+00 0.  1.
         -2    1    1    2    0  502  0.29139321405E+02  0.93097611430E+01 -0.16003950635E+01  0.30632221089E+02  0.00000000000E+00 0.  1.
<mgrwt>
<rscale>  2 0.30590386E+02</rscale>
<asrwt>0</asrwt>
<pdfrwt beam="2">  1        2 0.65240380E-01 0.30590386E+02</pdfrwt>
<pdfrwt beam="1">  1       -2 0.23214430E-02 0.30590386E+02</pdfrwt>
<totfact> 0.35104261E+04</totfact>
</mgrwt>
</event>
<event>
 4    1  0.1352171E+004  0.4632995E+02  0.7546771E-02  0.1466206E+00
         -2   -1    0    0    0  501 -0.00000000000E+00  0.00000000000E+00  0.18516002811E+02  0.18516002811E+02  0.00000000000E+00 0.  1.
          2   -1    0    0  501    0  0.00000000000E+00 -0.00000000000E+00 -0.27406823498E+03  0.27406823498E+03  0.00000000000E+00 0.  1.
          2    1    1    2  502    0 -0.31478304797E+02 -0.33993833817E+02 -0.23890248567E+03  0.24335336872E+03  0.00000000000E+00 0.  1.
         -2    1    1    2    0  502  0.31478304797E+02  0.33993833817E+02 -0.16649746499E+02  0.49230869066E+02  0.00000000000E+00 0.  1.
<mgrwt>
<rscale>  2 0.46329952E+02</rscale>
<asrwt>0</asrwt>
<pdfrwt beam="2">  1        2 0.42164344E-01 0.46329952E+02</pdfrwt>
<pdfrwt beam="1">  1       -2 0.28486158E-02 0.46329952E+02</pdfrwt>
<totfact> 0.43799604E+04</totfact>
</mgrwt>
</event>
<event>
 4    1  0.1352171E+004  0.2250609E+02  0.7546771E-02  0.1699644E+00
          2   -1    0    0  501    0  0.00000000000E+00  0.00000000000E+00  0.45726754415E+02  0.45726754415E+02  0.00000000000E+00 0.  1.
         -2   -1    0    0    0  501 -0.00000000000E+00 -0.00000000000E+00 -0.11904051227E+02  0.11904051227E+02  0.00000000000E+00 0.  1.
          2    1    1    2  502    0 -0.67489814866E+01  0.21470332889E+02  0.24505754300E+02  0.33272450154E+02  0.00000000000E+00 0.  1.
         -2    1    1    2    0  502  0.67489814866E+01 -0.21470332889E+02  0.93169488884E+01  0.24358355487E+02  0.00000000000E+00 0.  1.
<mgrwt>
<rscale>  2 0.22506087E+02</rscale>
<asrwt>0</asrwt>
<pdfrwt beam="1">  1        2 0.70348852E-02 0.22506087E+02</pdfrwt>
<pdfrwt beam="2">  1       -2 0.18313925E-02 0.22506087E+02</pdfrwt>
<totfact> 0.48958900E+05</totfact>
</mgrwt>
</event>
<event>
 4    1  0.1352171E+004  0.3145653E+02  0.7546771E-02  0.1582525E+00
         -2   -1    0    0    0  501 -0.00000000000E+00  0.00000000000E+00  0.19515140866E+01  0.19515140866E+01  0.00000000000E+00 0.  1.
          2   -1    0    0  501    0  0.00000000000E+00 -0.00000000000E+00 -0.60008177681E+03  0.60008177681E+03  0.00000000000E+00 0.  1.
          2    1    1    2  502    0  0.30439810238E+02  0.79329226334E+01 -0.41758829447E+03  0.41877141376E+03  0.00000000000E+00 0.  1.
         -2    1    1    2    0  502 -0.30439810238E+02 -0.79329226334E+01 -0.18054196826E+03  0.18326187714E+03  0.00000000000E+00 0.  1.
<mgrwt>
<rscale>  2 0.31456530E+02</rscale>
<asrwt>0</asrwt>
<pdfrwt beam="2">  1        2 0.92320412E-01 0.31456530E+02</pdfrwt>
<pdfrwt beam="1">  1       -2 0.30023249E-03 0.31456530E+02</pdfrwt>
<totfact> 0.40350914E+05</totfact>
</mgrwt>
</event>
<event>
 4    1  0.1352171E+004  0.3599510E+02  0.7546771E-02  0.1539937E+00
          2   -1    0    0  501    0  0.00000000000E+00  0.00000000000E+00  0.10330827549E+04  0.10330827549E+04  0.00000000000E+00 0. -1.
         -2   -1    0    0    0  501 -0.00000000000E+00 -0.00000000000E+00 -0.29184423747E+03  0.29184423747E+03  0.00000000000E+00 0. -1.
          2    1    1    2  502    0 -0.40939719524E+01 -0.35761521911E+02  0.10316578044E+04  0.10322855576E+04  0.00000000000E+00 0. -1.
         -2    1    1    2    0  502  0.40939719524E+01  0.35761521911E+02 -0.29041928701E+03  0.29264143474E+03  0.00000000000E+00 0. -1.
<mgrwt>
<rscale>  2 0.35995098E+02</rscale>
<asrwt>0</asrwt>
<pdfrwt beam="1">  1        2 0.15893581E+00 0.35995098E+02</pdfrwt>
<pdfrwt beam="2">  1       -2 0.44899114E-01 0.35995098E+02</pdfrwt>
<totfact> 0.13265651E+02</totfact>
</mgrwt>
</event>
<event>
 4    1  0.1352171E+004  0.2993895E+02  0.7546771E-02  0.1598764E+00
          2   -1    0    0  501    0  0.00000000000E+00  0.00000000000E+00  0.10501116905E+04  0.10501116905E+04  0.00000000000E+00 0.  1.
         -2   -1    0    0    0  501 -0.00000000000E+00 -0.00000000000E+00 -0.95549670019E+00  0.95549670019E+00  0.00000000000E+00 0.  1.
          2    1    1    2  502    0 -0.27206078181E+02  0.12496807117E+02  0.69622495921E+03  0.69686837688E+03  0.00000000000E+00 0.  1.
         -2    1    1    2    0  502  0.27206078181E+02 -0.12496807117E+02  0.35293123455E+03  0.35419881027E+03  0.00000000000E+00 0.  1.
<mgrwt>
<rscale>  2 0.29938953E+02</rscale>
<asrwt>0</asrwt>
<pdfrwt beam="1">  1        2 0.16155472E+00 0.29938953E+02</pdfrwt>
<pdfrwt beam="2">  1       -2 0.14700033E-03 0.29938953E+02</pdfrwt>
<totfact> 0.54207300E+05</totfact>
</mgrwt>
</event>
<event>
 4    1  0.1352171E+004  0.2601723E+02  0.7546771E-02  0.1646807E+00
         -2   -1    0    0    0  501 -0.00000000000E+00  0.00000000000E+00  0.89913388637E+00  0.89913388637E+00  0.00000000000E+00 0.  1.
          2   -1    0    0  501    0  0.00000000000E+00 -0.00000000000E+00 -0.19800961571E+04  0.19800961571E+04  0.00000000000E+00 0.  1.
          2    1    1    2  502    0 -0.37160273400E+01 -0.25750483314E+02 -0.17693916925E+04  0.17695829616E+04  0.00000000000E+00 0.  1.
         -2    1    1    2    0  502  0.37160273400E+01  0.25750483314E+02 -0.20980533068E+03  0.21141232942E+03  0.00000000000E+00 0.  1.
<mgrwt>
<rscale>  2 0.26017230E+02</rscale>
<asrwt>0</asrwt>
<pdfrwt beam="2">  1        2 0.30462866E+00 0.26017230E+02</pdfrwt>
<pdfrwt beam="1">  1       -2 0.13832898E-03 0.26017230E+02</pdfrwt>
<totfact> 0.20134612E+05</totfact>
</mgrwt>
</event>
<event>
 4    1  0.1352171E+004  0.2594400E+02  0.7546771E-02  0.1647802E+00
          2   -1    0    0  501    0  0.00000000000E+00  0.00000000000E+00  0.63344598689E+03  0.63344598689E+03  0.00000000000E+00 0. -1.
         -2   -1    0    0    0  501 -0.00000000000E+00 -0.00000000000E+00 -0.43031267277E+01  0.43031267277E+01  0.00000000000E+00 0. -1.
          2    1    1    2  502    0  0.14416128117E+01  0.25903916341E+02  0.59128885722E+03  0.59185775639E+03  0.00000000000E+00 0. -1.
         -2    1    1    2    0  502 -0.14416128117E+01 -0.25903916341E+02  0.37854002947E+02  0.45891357230E+02  0.00000000000E+00 0. -1.
<mgrwt>
<rscale>  2 0.25944000E+02</rscale>
<asrwt>0</asrwt>
<pdfrwt beam="1">  1        2 0.97453155E-01 0.25944000E+02</pdfrwt>
<pdfrwt beam="2">  1       -2 0.66202000E-03 0.25944000E+02</pdfrwt>
<totfact> 0.12527022E+05</totfact>
</mgrwt>
</event>
<event>
 4    1  0.1352171E+004  0.4043491E+02  0.7546771E-02  0.1505035E+00
          2   -1    0    0  501    0  0.00000000000E+00  0.00000000000E+00  0.19316742844E+04  0.19316742844E+04  0.00000000000E+00 0. -1.
         -2   -1    0    0    0  501 -0.00000000000E+00 -0.00000000000E+00 -0.61364903008E+02  0.61364903008E+02  0.00000000000E+00 0. -1.
          2    1    1    2  502    0  0.19335380890E+02 -0.35512319259E+02  0.19247779204E+04  0.19252025931E+04  0.00000000000E+00 0. -1.
         -2    1    1    2    0  502 -0.19335380890E+02  0.35512319259E+02 -0.54468539037E+02  0.67836594240E+02  0.00000000000E+00 0. -1.
<mgrwt>
<rscale>  2 0.40434908E+02</rscale>
<asrwt>0</asrwt>
<pdfrwt beam="1">  1        2 0.29718061E+00 0.40434908E+02</pdfrwt>
<pdfrwt beam="2">  1       -2 0.94407558E-02 0.40434908E+02</pdfrwt>
<totfact> 0.62963858E+02</totfact>
</mgrwt>
</event>
<event>
 4    1  0.1352171E+004  0.3018818E+02  0.7546771E-02  0.1596018E+00
          2   -1    0    0  501    0  0.00000000000E+00  0.00000000000E+00  0.23258063043E+02  0.23258063043E+02  0.00000000000E+00 0.  1.
         -2   -1    0    0    0  501 -0.00000000000E+00 -0.00000000000E+00 -0.16265939556E+03  0.16265939556E+03  0.00000000000E+00 0. -1.
          2    1    1    2  502    0 -0.15215877445E+02  0.26073038549E+02  0.11291338890E+02  0.32230739978E+02  0.00000000000E+00 0.  1.
         -2    1    1    2    0  502  0.15215877445E+02 -0.26073038549E+02 -0.15069267141E+03  0.15368671862E+03  0.00000000000E+00 0. -1.
<mgrwt>
<rscale>  2 0.30188181E+02</rscale>
<asrwt>0</asrwt>
<pdfrwt beam="1">  1        2 0.35781637E-02 0.30188181E+02</pdfrwt>
<pdfrwt beam="2">  1       -2 0.25024522E-01 0.30188181E+02</pdfrwt>
<totfact> 0.25523286E+04</totfact>
</mgrwt>
</event>
<event>
 4    1  0.1352171E+004  0.3613344E+02  0.7546771E-02  0.1538760E+00
         -2   -1    0    0    0  501 -0.00000000000E+00  0.00000000000E+00  0.39346292237E+01  0.39346292237E+01  0.00000000000E+00 0. -1.
          2   -1    0    0  501    0  0.00000000000E+00 -0.00000000000E+00 -0.20381971240E+04  0.20381971240E+04  0.00000000000E+00 0.  1.
          2    1    1    2  502    0  0.40079170699E+00  0.36131214766E+02 -0.19513896129E+04  0.19517241215E+04  0.00000000000E+00 0.  1.
         -2    1    1    2    0  502 -0.40079170699E+00 -0.36131214766E+02 -0.82872881910E+02  0.90407631705E+02  0.00000000000E+00 0. -1.
<mgrwt>
<rscale>  2 0.36133438E+02</rscale>
<asrwt>0</asrwt>
<pdfrwt beam="2">  1        2 0.31356960E+00 0.36133438E+02</pdfrwt>
<pdfrwt beam="1">  1       -2 0.60532600E-03 0.36133438E+02</pdfrwt>
<totfact> 0.27228275E+04</totfact>
</mgrwt>
</event>
<event>
 4    1  0.1352171E+004  0.2009303E+02  0.7546771E-02  0.1743484E+00
          2   -1    0    0  501    0  0.00000000000E+00  0.00000000000E+00  0.13855684305E+04  0.13855684305E+04  0.00000000000E+00 0.  1.
         -2   -1    0    0    0  501 -0.00000000000E+00 -0.00000000000E+00 -0.67213717642E+00  0.67213717642E+00  0.00000000000E+00 0.  1.
          2    1    1    2  502    0  0.17584774516E+02  0.97214057746E+01  0.12141260292E+04  0.12142922814E+04  0.00000000000E+00 0.  1.
         -2    1    1    2    0  502 -0.17584774516E+02 -0.97214057746E+01  0.17077026413E+03  0.17194828623E+03  0.00000000000E+00 0.  1.
<mgrwt>
<rscale>  2 0.20093034E+02</rscale>
<asrwt>0</asrwt>
<pdfrwt beam="1">  1        2 0.21316209E+00 0.20093034E+02</pdfrwt>
<pdfrwt beam="2">  1       -2 0.10340683E-03 0.20093034E+02</pdfrwt>
<totfact> 0.52678420E+05</totfact>
</mgrwt>
</event>
<event>
 4    1  0.1352171E+004  0.2485665E+02  0.7546771E-02  0.1663069E+00
         -2   -1    0    0    0  501 -0.00000000000E+00  0.00000000000E+00  0.66687533456E+02  0.66687533456E+02  0.00000000000E+00 0. -1.
          2   -1    0    0  501    0  0.00000000000E+00 -0.00000000000E+00 -0.26613830871E+03  0.26613830871E+03  0.00000000000E+00 0. -1.
          2    1    1    2  502    0  0.24748333872E+02  0.23179663635E+01 -0.26321603979E+03  0.26438709613E+03  0.00000000000E+00 0. -1.
         -2    1    1    2    0  502 -0.24748333872E+02 -0.23179663635E+01  0.63765264536E+02  0.68438746035E+02  0.00000000000E+00 0. -1.
<mgrwt>
<rscale>  2 0.24856649E+02</rscale>
<asrwt>0</asrwt>
<pdfrwt beam="2">  1        2 0.40944355E-01 0.24856649E+02</pdfrwt>
<pdfrwt beam="1">  1       -2 0.10259621E-01 0.24856649E+02</pdfrwt>
<totfact> 0.64262429E+03</totfact>
</mgrwt>
</event>
<event>
 4    1  0.1352171E+004  0.2070079E+02  0.7546771E-02  0.1731741E+00
          2   -1    0    0  501    0  0.00000000000E+00  0.00000000000E+00  0.10988750400E+03  0.10988750400E+03  0.00000000000E+00 0. -1.
         -2   -1    0    0    0  501 -0.00000000000E+00 -0.00000000000E+00 -0.53572436751E+01  0.53572436751E+01  0.00000000000E+00 0. -1.
          2    1    1    2  502    0 -0.19600508371E+02  0.66590347187E+01  0.82321661770E+02  0.84884501933E+02  0.00000000000E+00 0. -1.
         -2    1    1    2    0  502  0.19600508371E+02 -0.66590347187E+01  0.22208598558E+02  0.30360245745E+02  0.00000000000E+00 0. -1.
<mgrwt>
<rscale>  2 0.20700789E+02</rscale>
<asrwt>0</asrwt>
<pdfrwt beam="1">  1        2 0.16905768E-01 0.20700789E+02</pdfrwt>
<pdfrwt beam="2">  1       -2 0.82419142E-03 0.20700789E+02</pdfrwt>
<totfact> 0.51979519E+05</totfact>
</mgrwt>
</event>
<event>
 4    1  0.1352171E+004  0.2120143E+02  0.7546771E-02  0.1722440E+00
          2   -1    0    0  501    0  0.00000000000E+00  0.00000000000E+00  0.36102413498E+03  0.36102413498E+03  0.00000000000E+00 0. -1.
         -2   -1    0    0    0  501 -0.00000000000E+00 -0.00000000000E+00 -0.28223406751E+01  0.28223406751E+01  0.00000000000E+00 0.  1.
          2    1    1    2  502    0  0.17310181202E+02 -0.12241661547E+02  0.31510012661E+03  0.31581258753E+03  0.00000000000E+00 0. -1.
         -2    1    1    2    0  502 -0.17310181202E+02  0.12241661547E+02  0.43101667698E+02  0.48033888132E+02  0.00000000000E+00 0.  1.
<mgrwt>
<rscale>  2 0.21201430E+02</rscale>
<asrwt>0</asrwt>
<pdfrwt beam="1">  1        2 0.55542138E-01 0.21201430E+02</pdfrwt>
<pdfrwt beam="2">  1       -2 0.43420654E-03 0.21201430E+02</pdfrwt>
<totfact> 0.36967553E+05</totfact>
</mgrwt>
</event>
<event>
 4    1  0.1352171E+004  0.2345421E+02  0.7546771E-02  0.1684252E+00
         -2   -1    0    0    0  501 -0.00000000000E+00  0.00000000000E+00  0.34749228574E+00  0.34749228574E+00  0.00000000000E+00 0. -1.
          2   -1    0    0  501    0  0.00000000000E+00 -0.00000000000E+00 -0.16248092562E+04  0.16248092562E+04  0.00000000000E+00 0. -1.
          2    1    1    2  502    0 -0.19768771238E+02 -0.12621230289E+02 -0.94249023248E+03  0.94278202045E+03  0.00000000000E+00 0. -1.
         -2    1    1    2    0  502  0.19768771238E+02  0.12621230289E+02 -0.68197153148E+03  0.68237472808E+03  0.00000000000E+00 0. -1.
<mgrwt>
<rscale>  2 0.23454206E+02</rscale>
<asrwt>0</asrwt>
<pdfrwt beam="2">  1        2 0.24997028E+00 0.23454206E+02</pdfrwt>
<pdfrwt beam="1">  1       -2 0.53460432E-04 0.23454206E+02</pdfrwt>
<totfact> 0.10080381E+06</totfact>
</mgrwt>
</event>
<event>
 4    1  0.1352171E+004  0.3008262E+02  0.7546771E-02  0.1597177E+00
         -2   -1    0    0    0  501 -0.00000000000E+00  0.00000000000E+00  0.12267756288E+02  0.12267756288E+02  0.00000000000E+00 0.  1.
          2   -1    0    0  501    0  0.00000000000E+00 -0.00000000000E+00 -0.74440266714E+03  0.74440266714E+03  0.00000000000E+00 0.  1.
          2    1    1    2  502    0 -0.28459696644E+02 -0.97473063809E+01 -0.72516786115E+03  0.72579156179E+03  0.00000000000E+00 0.  1.
         -2    1    1    2    0  502  0.28459696644E+02  0.97473063809E+01 -0.69670497018E+01  0.30878861642E+02  0.00000000000E+00 0.  1.
<mgrwt>
<rscale>  2 0.30082625E+02</rscale>
<asrwt>0</asrwt>
<pdfrwt beam="2">  1        2 0.11452348E+00 0.30082625E+02</pdfrwt>
<pdfrwt beam="1">  1       -2 0.18873472E-02 0.30082625E+02</pdfrwt>
<totfact> 0.25812030E+04</totfact>
</mgrwt>
</event>
<event>
 4    1  0.1352171E+004  0.2345827E+02  0.7546771E-02  0.1684188E+00
         -2   -1    0    0    0  501 -0.00000000000E+00  0.00000000000E+00  0.51045217675E+02  0.51045217675E+02  0.00000000000E+00 0. -1.
          2   -1    0    0  501    0  0.00000000000E+00 -0.00000000000E+00 -0.20199298281E+03  0.20199298281E+03  0.00000000000E+00 0. -1.
          2    1    1    2  502    0  0.15765132519E+02  0.17370977078E+02 -0.19857050432E+03  0.19995133267E+03  0.00000000000E+00 0. -1.
         -2    1    1    2    0  502 -0.15765132519E+02 -0.17370977078E+02  0.47622739183E+02  0.53086867824E+02  0.00000000000E+00 0. -1.
<mgrwt>
<rscale>  2 0.23458266E+02</rscale>
<asrwt>0</asrwt>
<pdfrwt beam="2">  1        2 0.31075843E-01 0.23458266E+02</pdfrwt>
<pdfrwt beam="1">  1       -2 0.78531106E-02 0.23458266E+02</pdfrwt>
<totfact> 0.12471172E+04</totfact>
</mgrwt>
</event>
<event>
 4    1  0.1352171E+004  0.2553233E+02  0.7546771E-02  0.1653472E+00
         -2   -1    0    0    0  501 -0.00000000000E+00  0.00000000000E+00  0.21873862878E+02  0.21873862878E+02  0.00000000000E+00 0.  1.
          2   -1    0    0  501    0  0.00000000000E+00 -0.00000000000E+00 -0.12510141621E+03  0.12510141621E+03  0.00000000000E+00 0.  1.
          2    1    1    2  502    0  0.18969071944E+02 -0.17090176709E+02 -0.11575345028E+03  0.11853590630E+03  0.00000000000E+00 0.  1.
         -2    1    1    2    0  502 -0.18969071944E+02  0.17090176709E+02  0.12525896948E+02  0.28439372790E+02  0.00000000000E+00 0.  1.
<mgrwt>
<rscale>  2 0.25532329E+02</rscale>
<asrwt>0</asrwt>
<pdfrwt beam="2">  1        2 0.19246371E-01 0.25532329E+02</pdfrwt>
<pdfrwt beam="1">  1       -2 0.33652097E-02 0.25532329E+02</pdfrwt>
<totfact> 0.69872341E+04</totfact>
</mgrwt>
</event>
<event>
 4    1  0.1352171E+004  0.2101289E+02  0.7546771E-02  0.1725905E+00
          2   -1    0    0  501    0  0.00000000000E+00  0.00000000000E+00  0.12153595524E+03  0.12153595524E+03  0.00000000000E+00 0.  1.
         -2   -1    0    0    0  501 -0.00000000000E+00 -0.00000000000E+00 -0.73601250057E+01  0.73601250057E+01  0.00000000000E+00 0. -1.
          2    1    1    2  502    0 -0.44983265386E+01  0.20525756813E+02  0.10294995586E+03  0.10507252279E+03  0.00000000000E+00 0.  1.
         -2    1    1    2    0  502  0.44983265386E+01 -0.20525756813E+02  0.11225874380E+02  0.23823557459E+02  0.00000000000E+00 0. -1.
<mgrwt>
<rscale>  2 0.21012892E+02</rscale>
<asrwt>0</asrwt>
<pdfrwt beam="1">  1        2 0.18697838E-01 0.21012892E+02</pdfrwt>
<pdfrwt beam="2">  1       -2 0.11323270E-02 0.21012892E+02</pdfrwt>
<totfact> 0.30570048E+05</totfact>
</mgrwt>
</event>
<event>
 4    1  0.1352171E+004  0.6236735E+02  0.7546771E-02  0.1388157E+00
         -2   -1    0    0    0  501 -0.00000000000E+00  0.00000000000E+00  0.11713643266E+03  0.11713643266E+03  0.00000000000E+00 0. -1.
          2   -1    0    0  501    0  0.00000000000E+00 -0.00000000000E+00 -0.34048337887E+03  0.34048337887E+03  0.00000000000E+00 0.  1.
          2    1    1    2  502    0 -0.66635423793E+01  0.62010347831E+02 -0.32903958410E+03  0.33489809486E+03  0.00000000000E+00 0.  1.
         -2    1    1    2    0  502  0.66635423793E+01 -0.62010347831E+02  0.10569263790E+03  0.12272171666E+03  0.00000000000E+00 0. -1.
<mgrwt>
<rscale>  2 0.62367348E+02</rscale>
<asrwt>0</asrwt>
<pdfrwt beam="2">  1        2 0.52382057E-01 0.62367348E+02</pdfrwt>
<pdfrwt beam="1">  1       -2 0.18020990E-01 0.62367348E+02</pdfrwt>
<totfact> 0.22513429E+03</totfact>
</mgrwt>
</event>
<event>
 4    1  0.1352171E+004  0.3403011E+02  0.7546771E-02  0.1557386E+00
          2   -1    0    0  501    0  0.00000000000E+00  0.00000000000E+00  0.59068113202E+02  0.59068113202E+02  0.00000000000E+00 0. -1.
         -2   -1    0    0    0  501 -0.00000000000E+00 -0.00000000000E+00 -0.99469596500E+02  0.99469596500E+02  0.00000000000E+00 0. -1.
          2    1    1    2  502    0  0.67790762421E+01  0.33348055322E+02  0.50827933521E+02  0.61168026733E+02  0.00000000000E+00 0. -1.
         -2    1    1    2    0  502 -0.67790762421E+01 -0.33348055322E+02 -0.91229416818E+02  0.97369682969E+02  0.00000000000E+00 0. -1.
<mgrwt>
<rscale>  2 0.34030114E+02</rscale>
<asrwt>0</asrwt>
<pdfrwt beam="1">  1        2 0.90874020E-02 0.34030114E+02</pdfrwt>
<pdfrwt beam="2">  1       -2 0.15303015E-01 0.34030114E+02</pdfrwt>
<totfact> 0.18462407E+04</totfact>
</mgrwt>
</event>
<event>
 4    1  0.1352171E+004  0.2533247E+02  0.7546771E-02  0.1656272E+00
         -2   -1    0    0    0  501 -0.00000000000E+00  0.00000000000E+00  0.52734548747E+00  0.52734548747E+00  0.00000000000E+00 0.  1.
          2   -1    0    0  501    0  0.00000000000E+00 -0.00000000000E+00 -0.14264793538E+04  0.14264793538E+04  0.00000000000E+00 0.  1.
          2    1    1    2  502    0 -0.39431612317E+01  0.25023703236E+02 -0.98645422341E+03  0.98677944300E+03  0.00000000000E+00 0.  1.
         -2    1    1    2    0  502  0.39431612317E+01 -0.25023703236E+02 -0.43949778495E+03  0.44022725634E+03  0.00000000000E+00 0.  1.
<mgrwt>
<rscale>  2 0.25332474E+02</rscale>
<asrwt>0</asrwt>
<pdfrwt beam="2">  1        2 0.21946274E+00 0.25332474E+02</pdfrwt>
<pdfrwt beam="1">  1       -2 0.81128455E-04 0.25332474E+02</pdfrwt>
<totfact> 0.73769853E+05</totfact>
</mgrwt>
</event>
<event>
 4    1  0.1352171E+004  0.4149527E+02  0.7546771E-02  0.1497488E+00
         -2   -1    0    0    0  501 -0.00000000000E+00  0.00000000000E+00  0.90380356471E+02  0.90380356471E+02  0.00000000000E+00 0. -1.
          2   -1    0    0  501    0  0.00000000000E+00 -0.00000000000E+00 -0.22196120190E+04  0.22196120190E+04  0.00000000000E+00 0. -1.
          2    1    1    2  502    0  0.37521201300E+02 -0.17720521284E+02 -0.22146445914E+04  0.22150333008E+04  0.00000000000E+00 0. -1.
         -2    1    1    2    0  502 -0.37521201300E+02  0.17720521284E+02  0.85412928935E+02  0.94959074610E+02  0.00000000000E+00 0. -1.
<mgrwt>
<rscale>  2 0.41495270E+02</rscale>
<asrwt>0</asrwt>
<pdfrwt beam="2">  1        2 0.34147877E+00 0.41495270E+02</pdfrwt>
<pdfrwt beam="1">  1       -2 0.13904670E-01 0.41495270E+02</pdfrwt>
<totfact> 0.25134214E+02</totfact>
</mgrwt>
</event>
<event>
 4    1  0.1352171E+004  0.4244157E+02  0.7546771E-02  0.1490976E+00
         -2   -1    0    0    0  501 -0.00000000000E+00  0.00000000000E+00  0.25621735551E+02  0.25621735551E+02  0.00000000000E+00 0. -1.
          2   -1    0    0  501    0  0.00000000000E+00 -0.00000000000E+00 -0.19823466277E+03  0.19823466277E+03  0.00000000000E+00 0.  1.
          2    1    1    2  502    0 -0.27563025691E+02 -0.32273311883E+02 -0.17622279861E+03  0.18126158389E+03  0.00000000000E+00 0.  1.
         -2    1    1    2    0  502  0.27563025691E+02  0.32273311883E+02  0.36098713870E+01  0.42594814433E+02  0.00000000000E+00 0. -1.
<mgrwt>
<rscale>  2 0.42441572E+02</rscale>
<asrwt>0</asrwt>
<pdfrwt beam="2">  1        2 0.30497640E-01 0.42441572E+02</pdfrwt>
<pdfrwt beam="1">  1       -2 0.39418055E-02 0.42441572E+02</pdfrwt>
<totfact> 0.37885476E+04</totfact>
</mgrwt>
</event>
<event>
 4    1  0.1352171E+004  0.2262439E+02  0.7546771E-02  0.1697672E+00
          2   -1    0    0  501    0  0.00000000000E+00  0.00000000000E+00  0.16949618639E+04  0.16949618639E+04  0.00000000000E+00 0. -1.
         -2   -1    0    0    0  501 -0.00000000000E+00 -0.00000000000E+00 -0.22819042258E+01  0.22819042258E+01  0.00000000000E+00 0.  1.
          2    1    1    2  502    0 -0.17013071884E+02 -0.14913698992E+02  0.16368158400E+04  0.16369721919E+04  0.00000000000E+00 0. -1.
         -2    1    1    2    0  502  0.17013071884E+02  0.14913698992E+02  0.55864119760E+02  0.60271576296E+02  0.00000000000E+00 0.  1.
<mgrwt>
<rscale>  2 0.22624390E+02</rscale>
<asrwt>0</asrwt>
<pdfrwt beam="1">  1        2 0.26076236E+00 0.22624390E+02</pdfrwt>
<pdfrwt beam="2">  1       -2 0.35106354E-03 0.22624390E+02</pdfrwt>
<totfact> 0.77201341E+04</totfact>
</mgrwt>
</event>
<event>
 4    1  0.1352171E+004  0.2568803E+02  0.7546771E-02  0.1651312E+00
         -2   -1    0    0    0  501 -0.00000000000E+00  0.00000000000E+00  0.31120049790E+02  0.31120049790E+02  0.00000000000E+00 0. -1.
          2   -1    0    0  501    0  0.00000000000E+00 -0.00000000000E+00 -0.31999816662E+03  0.31999816662E+03  0.00000000000E+00 0.  1.
          2    1    1    2  502    0  0.12063277884E+02 -0.22679332387E+02 -0.31408190667E+03  0.31513063782E+03  0.00000000000E+00 0.  1.
         -2    1    1    2    0  502 -0.12063277884E+02  0.22679332387E+02  0.25203789842E+02  0.35987578596E+02  0.00000000000E+00 0. -1.
<mgrwt>
<rscale>  2 0.25688028E+02</rscale>
<asrwt>0</asrwt>
<pdfrwt beam="2">  1        2 0.49230487E-01 0.25688028E+02</pdfrwt>
<pdfrwt beam="1">  1       -2 0.47877000E-02 0.25688028E+02</pdfrwt>
<totfact> 0.16320483E+04</totfact>
</mgrwt>
</event>
<event>
 4    1  0.1689349E+004  0.2198159E+02  0.7546771E-02  0.1708571E+00
         -2   -1    0    0    0  501 -0.00000000000E+00  0.00000000000E+00  0.30297771700E+03  0.30297771700E+03  0.00000000000E+00 0. -1.
          2   -1    0    0  501    0  0.00000000000E+00 -0.00000000000E+00 -0.57366885073E+03  0.57366885073E+03  0.00000000000E+00 0. -1.
          2    1    1    2  502    0 -0.17057611899E+02  0.13864640402E+02 -0.57305915520E+03  0.57348058880E+03  0.00000000000E+00 0. -1.
         -2    1    1    2    0  502  0.17057611899E+02 -0.13864640402E+02  0.30236802147E+03  0.30316597893E+03  0.00000000000E+00 0. -1.
<mgrwt>
<rscale>  2 0.21981592E+02</rscale>
<asrwt>0</asrwt>
<pdfrwt beam="2">  1        2 0.88256744E-01 0.21981592E+02</pdfrwt>
<pdfrwt beam="1">  1       -2 0.46611958E-01 0.21981592E+02</pdfrwt>
<totfact> 0.24419531E+02</totfact>
</mgrwt>
</event>
<event>
 4    1  0.1352171E+004  0.2103333E+02  0.7546771E-02  0.1725527E+00
         -2   -1    0    0    0  501 -0.00000000000E+00  0.00000000000E+00  0.74955712086E+00  0.74955712086E+00  0.00000000000E+00 0. -1.
          2   -1    0    0  501    0  0.00000000000E+00 -0.00000000000E+00 -0.16837320936E+04  0.16837320936E+04  0.00000000000E+00 0.  1.
          2    1    1    2  502    0 -0.12174319087E+02 -0.17151876105E+02 -0.15202451176E+04  0.15203906138E+04  0.00000000000E+00 0.  1.
         -2    1    1    2    0  502  0.12174319087E+02  0.17151876105E+02 -0.16273741886E+03  0.16409103692E+03  0.00000000000E+00 0. -1.
<mgrwt>
<rscale>  2 0.21033328E+02</rscale>
<asrwt>0</asrwt>
<pdfrwt beam="2">  1        2 0.25903884E+00 0.21033328E+02</pdfrwt>
<pdfrwt beam="1">  1       -2 0.11531509E-03 0.21033328E+02</pdfrwt>
<totfact> 0.33537593E+05</totfact>
</mgrwt>
</event>
<event>
 4    1  0.1352171E+004  0.4625941E+02  0.7546771E-02  0.1466629E+00
         -2   -1    0    0    0  501 -0.00000000000E+00  0.00000000000E+00  0.10204077308E+02  0.10204077308E+02  0.00000000000E+00 0. -1.
          2   -1    0    0  501    0  0.00000000000E+00 -0.00000000000E+00 -0.40709226716E+03  0.40709226716E+03  0.00000000000E+00 0.  1.
          2    1    1    2  502    0  0.45421688520E+02 -0.87637476973E+01 -0.34372828022E+03  0.34682713804E+03  0.00000000000E+00 0.  1.
         -2    1    1    2    0  502 -0.45421688520E+02  0.87637476973E+01 -0.53159909631E+02  0.70469206422E+02  0.00000000000E+00 0. -1.
<mgrwt>
<rscale>  2 0.46259411E+02</rscale>
<asrwt>0</asrwt>
<pdfrwt beam="2">  1        2 0.62629571E-01 0.46259411E+02</pdfrwt>
<pdfrwt beam="1">  1       -2 0.15698583E-02 0.46259411E+02</pdfrwt>
<totfact> 0.67772978E+04</totfact>
</mgrwt>
</event>
<event>
 4    1  0.1352171E+004  0.2097131E+02  0.7546771E-02  0.1726675E+00
          2   -1    0    0  501    0  0.00000000000E+00  0.00000000000E+00  0.36444949828E+02  0.36444949828E+02  0.00000000000E+00 0.  1.
         -2   -1    0    0    0  501 -0.00000000000E+00 -0.00000000000E+00 -0.15071526982E+02  0.15071526982E+02  0.00000000000E+00 0. -1.
          2    1    1    2  502    0  0.10633430362E+02  0.18075565748E+02  0.22186673662E+02  0.30529402329E+02  0.00000000000E+00 0.  1.
         -2    1    1    2    0  502 -0.10633430362E+02 -0.18075565748E+02 -0.81325081592E+00  0.20987074481E+02  0.00000000000E+00 0. -1.
<mgrwt>
<rscale>  2 0.20971312E+02</rscale>
<asrwt>0</asrwt>
<pdfrwt beam="1">  1        2 0.56069153E-02 0.20971312E+02</pdfrwt>
<pdfrwt beam="2">  1       -2 0.23186965E-02 0.20971312E+02</pdfrwt>
<totfact> 0.45484445E+05</totfact>
</mgrwt>
</event>
<event>
 4    1  0.1352171E+004  0.2460179E+02  0.7546771E-02  0.1666788E+00
          2   -1    0    0  501    0  0.00000000000E+00  0.00000000000E+00  0.11527576644E+04  0.11527576644E+04  0.00000000000E+00 0.  1.
         -2   -1    0    0    0  501 -0.00000000000E+00 -0.00000000000E+00 -0.55588497856E+00  0.55588497856E+00  0.00000000000E+00 0. -1.
          2    1    1    2  502    0 -0.21055004351E+02 -0.12725361162E+02  0.71192969359E+03  0.71235464247E+03  0.00000000000E+00 0.  1.
         -2    1    1    2    0  502  0.21055004351E+02  0.12725361162E+02  0.44027208584E+03  0.44095890692E+03  0.00000000000E+00 0. -1.
<mgrwt>
<rscale>  2 0.24601789E+02</rscale>
<asrwt>0</asrwt>
<pdfrwt beam="1">  1        2 0.17734542E+00 0.24601789E+02</pdfrwt>
<pdfrwt beam="2">  1       -2 0.85521688E-04 0.24601789E+02</pdfrwt>
<totfact> 0.93143160E+05</totfact>
</mgrwt>
</event>
<event>
 4    1  0.1352171E+004  0.2184818E+02  0.7546771E-02  0.1710891E+00
         -2   -1    0    0    0  501 -0.00000000000E+00  0.00000000000E+00  0.51848765215E+02  0.51848765215E+02  0.00000000000E+00 0.  1.
          2   -1    0    0  501    0  0.00000000000E+00 -0.00000000000E+00 -0.21839342621E+03  0.21839342621E+03  0.00000000000E+00 0. -1.
          2    1    1    2  502    0  0.13685078095E+02  0.17031200165E+02 -0.21551472278E+03  0.21661934096E+03  0.00000000000E+00 0. -1.
         -2    1    1    2    0  502 -0.13685078095E+02 -0.17031200165E+02  0.48970061783E+02  0.53622850470E+02  0.00000000000E+00 0.  1.
<mgrwt>
<rscale>  2 0.21848184E+02</rscale>
<asrwt>0</asrwt>
<pdfrwt beam="2">  1        2 0.33598989E-01 0.21848184E+02</pdfrwt>
<pdfrwt beam="1">  1       -2 0.79767331E-02 0.21848184E+02</pdfrwt>
<totfact> 0.11144408E+04</totfact>
</mgrwt>
</event>
<event>
 4    1  0.1352171E+004  0.2130556E+02  0.7546771E-02  0.1720546E+00
          2   -1    0    0  501    0  0.00000000000E+00  0.00000000000E+00  0.88802779473E+02  0.88802779473E+02  0.00000000000E+00 0.  1.
         -2   -1    0    0    0  501 -0.00000000000E+00 -0.00000000000E+00 -0.73356589309E+02  0.73356589309E+02  0.00000000000E+00 0.  1.
          2    1    1    2  502    0 -0.72209548093E+01 -0.20044562831E+02  0.85926881901E+02  0.88528841180E+02  0.00000000000E+00 0.  1.
         -2    1    1    2    0  502  0.72209548093E+01  0.20044562831E+02 -0.70480691736E+02  0.73630527603E+02  0.00000000000E+00 0.  1.
<mgrwt>
<rscale>  2 0.21305555E+02</rscale>
<asrwt>0</asrwt>
<pdfrwt beam="1">  1        2 0.13661966E-01 0.21305555E+02</pdfrwt>
<pdfrwt beam="2">  1       -2 0.11285629E-01 0.21305555E+02</pdfrwt>
<totfact> 0.17068779E+04</totfact>
</mgrwt>
</event>
<event>
 4    1  0.1352171E+004  0.2244806E+02  0.7546771E-02  0.1700616E+00
         -2   -1    0    0    0  501 -0.00000000000E+00  0.00000000000E+00  0.17839293830E+03  0.17839293830E+03  0.00000000000E+00 0. -1.
          2   -1    0    0  501    0  0.00000000000E+00 -0.00000000000E+00 -0.56860580756E+02  0.56860580756E+02  0.00000000000E+00 0. -1.
          2    1    1    2  502    0 -0.63314140453E+01  0.21536683156E+02 -0.53901600586E+02  0.58389194813E+02  0.00000000000E+00 0. -1.
         -2    1    1    2    0  502  0.63314140453E+01 -0.21536683156E+02  0.17543395813E+03  0.17686432425E+03  0.00000000000E+00 0. -1.
<mgrwt>
<rscale>  2 0.22448063E+02</rscale>
<asrwt>0</asrwt>
<pdfrwt beam="2">  1        2 0.87477818E-02 0.22448063E+02</pdfrwt>
<pdfrwt beam="1">  1       -2 0.27445067E-01 0.22448063E+02</pdfrwt>
<totfact> 0.69839534E+03</totfact>
</mgrwt>
</event>
<event>
 4    1  0.1352171E+004  0.2921436E+02  0.7546771E-02  0.1606939E+00
         -2   -1    0    0    0  501 -0.00000000000E+00  0.00000000000E+00  0.13365817289E+02  0.13365817289E+02  0.00000000000E+00 0.  1.
          2   -1    0    0  501    0  0.00000000000E+00 -0.00000000000E+00 -0.23077823774E+03  0.23077823774E+03  0.00000000000E+00 0.  1.
          2    1    1    2  502    0  0.29206719572E+02  0.66804651282E+00 -0.21252517510E+03  0.21452372550E+03  0.00000000000E+00 0.  1.
         -2    1    1    2    0  502 -0.29206719572E+02 -0.66804651282E+00 -0.48872453600E+01  0.29620329531E+02  0.00000000000E+00 0.  1.
<mgrwt>
<rscale>  2 0.29214359E+02</rscale>
<asrwt>0</asrwt>
<pdfrwt beam="2">  1        2 0.35504343E-01 0.29214359E+02</pdfrwt>
<pdfrwt beam="1">  1       -2 0.20562797E-02 0.29214359E+02</pdfrwt>
<totfact> 0.75725724E+04</totfact>
</mgrwt>
</event>
<event>
 4    1  0.1352171E+004  0.2842041E+02  0.7546771E-02  0.1616235E+00
         -2   -1    0    0    0  501 -0.00000000000E+00  0.00000000000E+00  0.82904722735E+01  0.82904722735E+01  0.00000000000E+00 0. -1.
          2   -1    0    0  501    0  0.00000000000E+00 -0.00000000000E+00 -0.37885846756E+03  0.37885846756E+03  0.00000000000E+00 0. -1.
          2    1    1    2  502    0 -0.20893770579E+02  0.19265775665E+02 -0.35212221565E+03  0.35326728481E+03  0.00000000000E+00 0. -1.
         -2    1    1    2    0  502  0.20893770579E+02 -0.19265775665E+02 -0.18445779639E+02  0.33881655029E+02  0.00000000000E+00 0. -1.
<mgrwt>
<rscale>  2 0.28420411E+02</rscale>
<asrwt>0</asrwt>
<pdfrwt beam="2">  1        2 0.58285912E-01 0.28420411E+02</pdfrwt>
<pdfrwt beam="1">  1       -2 0.12754574E-02 0.28420411E+02</pdfrwt>
<totfact> 0.88574343E+04</totfact>
</mgrwt>
</event>
<event>
 4    1  0.1352171E+004  0.2466705E+02  0.7546771E-02  0.1665831E+00
          2   -1    0    0  501    0  0.00000000000E+00  0.00000000000E+00  0.17155775284E+04  0.17155775284E+04  0.00000000000E+00 0. -1.
         -2   -1    0    0    0  501 -0.00000000000E+00 -0.00000000000E+00 -0.11350922891E+02  0.11350922891E+02  0.00000000000E+00 0.  1.
          2    1    1    2  502    0  0.24233771990E+02 -0.46029862787E+01  0.17019806231E+04  0.17021593652E+04  0.00000000000E+00 0. -1.
         -2    1    1    2    0  502 -0.24233771990E+02  0.46029862787E+01  0.22459823999E+01  0.24769086065E+02  0.00000000000E+00 0.  1.
<mgrwt>
<rscale>  2 0.24667047E+02</rscale>
<asrwt>0</asrwt>
<pdfrwt beam="1">  1        2 0.26393480E+00 0.24667047E+02</pdfrwt>
<pdfrwt beam="2">  1       -2 0.17462972E-02 0.24667047E+02</pdfrwt>
<totfact> 0.87610275E+03</totfact>
</mgrwt>
</event>
<event>
 4    1  0.1352171E+004  0.5742008E+02  0.7546771E-02  0.1408989E+00
          2   -1    0    0  501    0  0.00000000000E+00  0.00000000000E+00  0.97666979448E+03  0.97666979448E+03  0.00000000000E+00 0. -1.
         -2   -1    0    0    0  501 -0.00000000000E+00 -0.00000000000E+00 -0.17847364801E+02  0.17847364801E+02  0.00000000000E+00 0.  1.
          2    1    1    2  502    0 -0.57006092466E+02  0.68826730290E+01  0.92717876278E+03  0.92895507099E+03  0.00000000000E+00 0. -1.
         -2    1    1    2    0  502  0.57006092466E+02 -0.68826730290E+01  0.31643666898E+02  0.65562088291E+02  0.00000000000E+00 0.  1.
<mgrwt>
<rscale>  2 0.57420082E+02</rscale>
<asrwt>0</asrwt>
<pdfrwt beam="1">  1        2 0.15025685E+00 0.57420082E+02</pdfrwt>
<pdfrwt beam="2">  1       -2 0.27457492E-02 0.57420082E+02</pdfrwt>
<totfact> 0.11832279E+04</totfact>
</mgrwt>
</event>
<event>
 4    1  0.1352171E+004  0.2883510E+02  0.7546771E-02  0.1611334E+00
         -2   -1    0    0    0  501 -0.00000000000E+00  0.00000000000E+00  0.93423741888E+00  0.93423741888E+00  0.00000000000E+00 0.  1.
          2   -1    0    0  501    0  0.00000000000E+00 -0.00000000000E+00 -0.12794398268E+04  0.12794398268E+04  0.00000000000E+00 0.  1.
          2    1    1    2  502    0  0.22684292406E+02 -0.17801280719E+02 -0.99245405600E+03  0.99287285993E+03  0.00000000000E+00 0.  1.
         -2    1    1    2    0  502 -0.22684292406E+02  0.17801280719E+02 -0.28605153339E+03  0.28750120430E+03  0.00000000000E+00 0.  1.
<mgrwt>
<rscale>  2 0.28835095E+02</rscale>
<asrwt>0</asrwt>
<pdfrwt beam="2">  1        2 0.19683796E+00 0.28835095E+02</pdfrwt>
<pdfrwt beam="1">  1       -2 0.14372806E-03 0.28835095E+02</pdfrwt>
<totfact> 0.42141262E+05</totfact>
</mgrwt>
</event>
<event>
 4    1  0.1352171E+004  0.2482271E+02  0.7546771E-02  0.1663561E+00
         -2   -1    0    0    0  501 -0.00000000000E+00  0.00000000000E+00  0.23000779573E+03  0.23000779573E+03  0.00000000000E+00 0. -1.
          2   -1    0    0  501    0  0.00000000000E+00 -0.00000000000E+00 -0.19224710294E+03  0.19224710294E+03  0.00000000000E+00 0.  1.
          2    1    1    2  502    0 -0.20938412853E+02 -0.13332293221E+02 -0.19077094846E+03  0.19237910997E+03  0.00000000000E+00 0.  1.
         -2    1    1    2    0  502  0.20938412853E+02  0.13332293221E+02  0.22853164126E+03  0.22987578870E+03  0.00000000000E+00 0. -1.
<mgrwt>
<rscale>  2 0.24822715E+02</rscale>
<asrwt>0</asrwt>
<pdfrwt beam="2">  1        2 0.29576477E-01 0.24822715E+02</pdfrwt>
<pdfrwt beam="1">  1       -2 0.35385815E-01 0.24822715E+02</pdfrwt>
<totfact> 0.12066391E+03</totfact>
</mgrwt>
</event>
<event>
 4    1  0.1352171E+004  0.4901978E+02  0.7546771E-02  0.1450701E+00
          2   -1    0    0  501    0  0.00000000000E+00  0.00000000000E+00  0.20872950395E+04  0.20872950395E+04  0.00000000000E+00 0. -1.
         -2   -1    0    0    0  501 -0.00000000000E+00 -0.00000000000E+00 -0.82923624377E+01  0.82923624377E+01  0.00000000000E+00 0.  1.
          2    1    1    2  502    0 -0.98495746533E+01 -0.48020040170E+02  0.20118464958E+04  0.20124436045E+04  0.00000000000E+00 0. -1.
         -2    1    1    2    0  502  0.98495746533E+01  0.48020040170E+02  0.67156181192E+02  0.83143797430E+02  0.00000000000E+00 0.  1.
<mgrwt>
<rscale>  2 0.49019775E+02</rscale>
<asrwt>0</asrwt>
<pdfrwt beam="1">  1        2 0.32112189E+00 0.49019775E+02</pdfrwt>
<pdfrwt beam="2">  1       -2 0.12757497E-02 0.49019775E+02</pdfrwt>
<totfact> 0.94355319E+03</totfact>
</mgrwt>
</event>
<event>
 4    1  0.1352171E+004  0.2373531E+02  0.7546771E-02  0.1679861E+00
         -2   -1    0    0    0  501 -0.00000000000E+00  0.00000000000E+00  0.15721861952E+02  0.15721861952E+02  0.00000000000E+00 0.  1.
          2   -1    0    0  501    0  0.00000000000E+00 -0.00000000000E+00 -0.35882137491E+02  0.35882137491E+02  0.00000000000E+00 0.  1.
          2    1    1    2  502    0  0.11659590222E+02  0.20674106523E+02 -0.11032948325E+02  0.26174236826E+02  0.00000000000E+00 0.  1.
         -2    1    1    2    0  502 -0.11659590222E+02 -0.20674106523E+02 -0.91273272141E+01  0.25429762617E+02  0.00000000000E+00 0.  1.
<mgrwt>
<rscale>  2 0.23735305E+02</rscale>
<asrwt>0</asrwt>
<pdfrwt beam="2">  1        2 0.55203288E-02 0.23735305E+02</pdfrwt>
<pdfrwt beam="1">  1       -2 0.24187480E-02 0.23735305E+02</pdfrwt>
<totfact> 0.45471072E+05</totfact>
</mgrwt>
</event>
<event>
 4    1  0.1352171E+004  0.4085696E+02  0.7546771E-02  0.1501998E+00
         -2   -1    0    0    0  501 -0.00000000000E+00  0.00000000000E+00  0.44641918589E+02  0.44641918589E+02  0.00000000000E+00 0.  1.
          2   -1    0    0  501    0  0.00000000000E+00 -0.00000000000E+00 -0.71148280518E+02  0.71148280518E+02  0.00000000000E+00 0.  1.
          2    1    1    2  502    0  0.29782970938E+02 -0.27969012884E+02 -0.53130969851E+02  0.67023809179E+02  0.00000000000E+00 0.  1.
         -2    1    1    2    0  502 -0.29782970938E+02  0.27969012884E+02  0.26624607922E+02  0.48766389928E+02  0.00000000000E+00 0.  1.
<mgrwt>
<rscale>  2 0.40856958E+02</rscale>
<asrwt>0</asrwt>
<pdfrwt beam="2">  1        2 0.10945889E-01 0.40856958E+02</pdfrwt>
<pdfrwt beam="1">  1       -2 0.68679875E-02 0.40856958E+02</pdfrwt>
<totfact> 0.51780632E+04</totfact>
</mgrwt>
</event>
<event>
 4    1  0.1352171E+004  0.2198773E+02  0.7546771E-02  0.1708464E+00
          2   -1    0    0  501    0  0.00000000000E+00  0.00000000000E+00  0.42083602894E+02  0.42083602894E+02  0.00000000000E+00 0. -1.
         -2   -1    0    0    0  501 -0.00000000000E+00 -0.00000000000E+00 -0.91965130763E+02  0.91965130763E+02  0.00000000000E+00 0. -1.
          2    1    1    2  502    0  0.77161279354E+01  0.20589353610E+02  0.37757732990E+02  0.43693323436E+02  0.00000000000E+00 0. -1.
         -2    1    1    2    0  502 -0.77161279354E+01 -0.20589353610E+02 -0.87639260858E+02  0.90355410221E+02  0.00000000000E+00 0. -1.
<mgrwt>
<rscale>  2 0.21987726E+02</rscale>
<asrwt>0</asrwt>
<pdfrwt beam="1">  1        2 0.64744005E-02 0.21987726E+02</pdfrwt>
<pdfrwt beam="2">  1       -2 0.14148482E-01 0.21987726E+02</pdfrwt>
<totfact> 0.28818141E+04</totfact>
</mgrwt>
</event>
<event>
 4    1  0.1352171E+004  0.2255174E+02  0.7546771E-02  0.1698881E+00
          2   -1    0    0  501    0  0.00000000000E+00  0.00000000000E+00  0.82506794496E+02  0.82506794496E+02  0.00000000000E+00 0.  1.
         -2   -1    0    0    0  501 -0.00000000000E+00 -0.00000000000E+00 -0.20007547004E+02  0.20007547004E+02  0.00000000000E+00 0.  1.
          2    1    1    2  502    0 -0.15830057175E+02  0.16062071079E+02  0.73885941956E+02  0.77250975763E+02  0.00000000000E+00 0.  1.
         -2    1    1    2    0  502  0.15830057175E+02 -0.16062071079E+02 -0.11386694465E+02  0.25263365737E+02  0.00000000000E+00 0.  1.
<mgrwt>
<rscale>  2 0.22551737E+02</rscale>
<asrwt>0</asrwt>
<pdfrwt beam="1">  1        2 0.12693353E-01 0.22551737E+02</pdfrwt>
<pdfrwt beam="2">  1       -2 0.30780842E-02 0.22551737E+02</pdfrwt>
<totfact> 0.12112543E+05</totfact>
</mgrwt>
</event>
<event>
 4    1  0.1352171E+004  0.2899545E+02  0.7546771E-02  0.1609466E+00
          2   -1    0    0  501    0  0.00000000000E+00  0.00000000000E+00  0.18872058573E+04  0.18872058573E+04  0.00000000000E+00 0.  1.
         -2   -1    0    0    0  501 -0.00000000000E+00 -0.00000000000E+00 -0.36230445409E+01  0.36230445409E+01  0.00000000000E+00 0.  1.
          2    1    1    2  502    0 -0.15618482417E+02 -0.24429468018E+02  0.18271755529E+04  0.18274056028E+04  0.00000000000E+00 0.  1.
         -2    1    1    2    0  502  0.15618482417E+02  0.24429468018E+02  0.56407259842E+02  0.63423299059E+02  0.00000000000E+00 0.  1.
<mgrwt>
<rscale>  2 0.28995446E+02</rscale>
<asrwt>0</asrwt>
<pdfrwt beam="1">  1        2 0.29033858E+00 0.28995446E+02</pdfrwt>
<pdfrwt beam="2">  1       -2 0.55739298E-03 0.28995446E+02</pdfrwt>
<totfact> 0.35037060E+04</totfact>
</mgrwt>
</event>
<event>
 4    1  0.1352171E+004  0.3870056E+02  0.7546771E-02  0.1517998E+00
         -2   -1    0    0    0  501 -0.00000000000E+00  0.00000000000E+00  0.51999764070E+01  0.51999764070E+01  0.00000000000E+00 0.  1.
          2   -1    0    0  501    0  0.00000000000E+00 -0.00000000000E+00 -0.48907596259E+03  0.48907596259E+03  0.00000000000E+00 0.  1.
          2    1    1    2  502    0  0.13102124460E+02 -0.36415211283E+02 -0.40039166256E+03  0.40225764968E+03  0.00000000000E+00 0.  1.
         -2    1    1    2    0  502 -0.13102124460E+02  0.36415211283E+02 -0.83484323622E+02  0.92018289317E+02  0.00000000000E+00 0.  1.
<mgrwt>
<rscale>  2 0.38700559E+02</rscale>
<asrwt>0</asrwt>
<pdfrwt beam="2">  1        2 0.75242446E-01 0.38700559E+02</pdfrwt>
<pdfrwt beam="1">  1       -2 0.79999648E-03 0.38700559E+02</pdfrwt>
<totfact> 0.13815418E+05</totfact>
</mgrwt>
</event>
<event>
 4    1  0.1352171E+004  0.2160542E+02  0.7546771E-02  0.1715167E+00
         -2   -1    0    0    0  501 -0.00000000000E+00  0.00000000000E+00  0.21813621368E+00  0.21813621368E+00  0.00000000000E+00 0. -1.
          2   -1    0    0  501    0  0.00000000000E+00 -0.00000000000E+00 -0.22810415855E+04  0.22810415855E+04  0.00000000000E+00 0. -1.
          2    1    1    2  502    0 -0.23464603591E+01 -0.21477619079E+02 -0.14241220903E+04  0.14242859692E+04  0.00000000000E+00 0. -1.
         -2    1    1    2    0  502  0.23464603591E+01  0.21477619079E+02 -0.85670135900E+03  0.85697375252E+03  0.00000000000E+00 0. -1.
<mgrwt>
<rscale>  2 0.21605416E+02</rscale>
<asrwt>0</asrwt>
<pdfrwt beam="2">  1        2 0.35092943E+00 0.21605416E+02</pdfrwt>
<pdfrwt beam="1">  1       -2 0.33559422E-04 0.21605416E+02</pdfrwt>
<totfact> 0.89802150E+05</totfact>
</mgrwt>
</event>
<event>
 4    1  0.1352171E+004  0.2351575E+02  0.7546771E-02  0.1683284E+00
          2   -1    0    0  501    0  0.00000000000E+00  0.00000000000E+00  0.42872807957E+03  0.42872807957E+03  0.00000000000E+00 0.  1.
         -2   -1    0    0    0  501 -0.00000000000E+00 -0.00000000000E+00 -0.15209967830E+03  0.15209967830E+03  0.00000000000E+00 0. -1.
          2    1    1    2  502    0  0.92199316966E+01  0.21632918407E+02  0.42749407056E+03  0.42814036327E+03  0.00000000000E+00 0.  1.
         -2    1    1    2    0  502 -0.92199316966E+01 -0.21632918407E+02 -0.15086566929E+03  0.15268739460E+03  0.00000000000E+00 0. -1.
<mgrwt>
<rscale>  2 0.23515746E+02</rscale>
<asrwt>0</asrwt>
<pdfrwt beam="1">  1        2 0.65958165E-01 0.23515746E+02</pdfrwt>
<pdfrwt beam="2">  1       -2 0.23399951E-01 0.23515746E+02</pdfrwt>
<totfact> 0.10978627E+03</totfact>
</mgrwt>
</event>
<event>
 4    1  0.1352171E+004  0.2177622E+02  0.7546771E-02  0.1712151E+00
          2   -1    0    0  501    0  0.00000000000E+00  0.00000000000E+00  0.23708174422E+01  0.23708174422E+01  0.00000000000E+00 0.  1.
         -2   -1    0    0    0  501 -0.00000000000E+00 -0.00000000000E+00 -0.32688820272E+03  0.32688820272E+03  0.00000000000E+00 0. -1.
          2    1    1    2  502    0  0.57251580609E+01  0.21010148642E+02 -0.59695956357E+02  0.63543772206E+02  0.00000000000E+00 0.  1.
         -2    1    1    2    0  502 -0.57251580609E+01 -0.21010148642E+02 -0.26482142892E+03  0.26571524796E+03  0.00000000000E+00 0. -1.
<mgrwt>
<rscale>  2 0.21776221E+02</rscale>
<asrwt>0</asrwt>
<pdfrwt beam="1">  1        2 0.36474144E-03 0.21776221E+02</pdfrwt>
<pdfrwt beam="2">  1       -2 0.50290452E-01 0.21776221E+02</pdfrwt>
<totfact> 0.13211220E+05</totfact>
</mgrwt>
</event>
<event>
 4    1  0.1352171E+004  0.2506592E+02  0.7546771E-02  0.1660057E+00
          2   -1    0    0  501    0  0.00000000000E+00  0.00000000000E+00  0.15176575849E+04  0.15176575849E+04  0.00000000000E+00 0.  1.
         -2   -1    0    0    0  501 -0.00000000000E+00 -0.00000000000E+00 -0.41538236908E+00  0.41538236908E+00  0.00000000000E+00 0.  1.
          2    1    1    2  502    0  0.23189548553E+02 -0.95155143450E+01  0.80251355688E+03  0.80290491912E+03  0.00000000000E+00 0.  1.
         -2    1    1    2    0  502 -0.23189548553E+02  0.95155143450E+01  0.71472864561E+03  0.71516804811E+03  0.00000000000E+00 0.  1.
<mgrwt>
<rscale>  2 0.25065917E+02</rscale>
<asrwt>0</asrwt>
<pdfrwt beam="1">  1        2 0.23348134E+00 0.25065917E+02</pdfrwt>
<pdfrwt beam="2">  1       -2 0.63906195E-04 0.25065917E+02</pdfrwt>
<totfact> 0.91162289E+05</totfact>
</mgrwt>
</event>
<event>
 4    1  0.1352171E+004  0.2724241E+02  0.7546771E-02  0.1630736E+00
          2   -1    0    0  501    0  0.00000000000E+00  0.00000000000E+00  0.68762445700E+02  0.68762445700E+02  0.00000000000E+00 0. -1.
         -2   -1    0    0    0  501 -0.00000000000E+00 -0.00000000000E+00 -0.49469322971E+02  0.49469322971E+02  0.00000000000E+00 0. -1.
          2    1    1    2  502    0  0.16088664906E+02  0.21984172497E+02  0.61917359446E+02  0.67645460894E+02  0.00000000000E+00 0. -1.
         -2    1    1    2    0  502 -0.16088664906E+02 -0.21984172497E+02 -0.42624236717E+02  0.50586307777E+02  0.00000000000E+00 0. -1.
<mgrwt>
<rscale>  2 0.27242411E+02</rscale>
<asrwt>0</asrwt>
<pdfrwt beam="1">  1        2 0.10578838E-01 0.27242411E+02</pdfrwt>
<pdfrwt beam="2">  1       -2 0.76106651E-02 0.27242411E+02</pdfrwt>
<totfact> 0.42850278E+04</totfact>
</mgrwt>
</event>
<event>
 4    1  0.1352171E+004  0.4553102E+02  0.7546771E-02  0.1471054E+00
         -2   -1    0    0    0  501 -0.00000000000E+00  0.00000000000E+00  0.64084412636E+02  0.64084412636E+02  0.00000000000E+00 0.  1.
          2   -1    0    0  501    0  0.00000000000E+00 -0.00000000000E+00 -0.44472026506E+03  0.44472026506E+03  0.00000000000E+00 0.  1.
          2    1    1    2  502    0  0.12722674760E+02  0.43717357500E+02 -0.43529293315E+03  0.43766769524E+03  0.00000000000E+00 0.  1.
         -2    1    1    2    0  502 -0.12722674760E+02 -0.43717357500E+02  0.54657080729E+02  0.71136982460E+02  0.00000000000E+00 0.  1.
<mgrwt>
<rscale>  2 0.45531020E+02</rscale>
<asrwt>0</asrwt>
<pdfrwt beam="2">  1        2 0.68418501E-01 0.45531020E+02</pdfrwt>
<pdfrwt beam="1">  1       -2 0.98591406E-02 0.45531020E+02</pdfrwt>
<totfact> 0.43312184E+03</totfact>
</mgrwt>
</event>
<event>
 4    1  0.1352171E+004  0.2957548E+02  0.7546771E-02  0.1602829E+00
          2   -1    0    0  501    0  0.00000000000E+00  0.00000000000E+00  0.25886299453E+03  0.25886299453E+03  0.00000000000E+00 0. -1.
         -2   -1    0    0    0  501 -0.00000000000E+00 -0.00000000000E+00 -0.26297432934E+02  0.26297432934E+02  0.00000000000E+00 0.  1.
          2    1    1    2  502    0 -0.17709668778E+02  0.23687052792E+02  0.24938786616E+03  0.25113545474E+03  0.00000000000E+00 0. -1.
         -2    1    1    2    0  502  0.17709668778E+02 -0.23687052792E+02 -0.16822304564E+02  0.34024972727E+02  0.00000000000E+00 0.  1.
<mgrwt>
<rscale>  2 0.29575477E+02</rscale>
<asrwt>0</asrwt>
<pdfrwt beam="1">  1        2 0.39825074E-01 0.29575477E+02</pdfrwt>
<pdfrwt beam="2">  1       -2 0.40457591E-02 0.29575477E+02</pdfrwt>
<totfact> 0.26196891E+04</totfact>
</mgrwt>
</event>
<event>
 4    1  0.1352171E+004  0.2412399E+02  0.7546771E-02  0.1673913E+00
          2   -1    0    0  501    0  0.00000000000E+00  0.00000000000E+00  0.19450369768E+03  0.19450369768E+03  0.00000000000E+00 0.  1.
         -2   -1    0    0    0  501 -0.00000000000E+00 -0.00000000000E+00 -0.15223146132E+03  0.15223146132E+03  0.00000000000E+00 0.  1.
          2    1    1    2  502    0  0.15753169505E+02 -0.18270314968E+02  0.19279150092E+03  0.19429495512E+03  0.00000000000E+00 0.  1.
         -2    1    1    2    0  502 -0.15753169505E+02  0.18270314968E+02 -0.15051926456E+03  0.15244020389E+03  0.00000000000E+00 0.  1.
<mgrwt>
<rscale>  2 0.24123987E+02</rscale>
<asrwt>0</asrwt>
<pdfrwt beam="1">  1        2 0.29923646E-01 0.24123987E+02</pdfrwt>
<pdfrwt beam="2">  1       -2 0.23420225E-01 0.24123987E+02</pdfrwt>
<totfact> 0.24089070E+03</totfact>
</mgrwt>
</event>
<event>
 4    1  0.1352171E+004  0.2007642E+02  0.7546771E-02  0.1743813E+00
          2   -1    0    0  501    0  0.00000000000E+00  0.00000000000E+00  0.11463225868E+01  0.11463225868E+01  0.00000000000E+00 0.  1.
         -2   -1    0    0    0  501 -0.00000000000E+00 -0.00000000000E+00 -0.35257022171E+03  0.35257022171E+03  0.00000000000E+00 0.  1.
          2    1    1    2  502    0 -0.15781112144E+02 -0.12410431123E+02 -0.18492565070E+03  0.18601225387E+03  0.00000000000E+00 0.  1.
         -2    1    1    2    0  502  0.15781112144E+02  0.12410431123E+02 -0.16649824842E+03  0.16770429043E+03  0.00000000000E+00 0.  1.
<mgrwt>
<rscale>  2 0.20076422E+02</rscale>
<asrwt>0</asrwt>
<pdfrwt beam="1">  1        2 0.17635728E-03 0.20076422E+02</pdfrwt>
<pdfrwt beam="2">  1       -2 0.54241586E-01 0.20076422E+02</pdfrwt>
<totfact> 0.28817628E+05</totfact>
</mgrwt>
</event>
<event>
 4    1  0.1352171E+004  0.2048396E+02  0.7546771E-02  0.1735872E+00
          2   -1    0    0  501    0  0.00000000000E+00  0.00000000000E+00  0.26833158291E+02  0.26833158291E+02  0.00000000000E+00 0. -1.
         -2   -1    0    0    0  501 -0.00000000000E+00 -0.00000000000E+00 -0.18957109257E+03  0.18957109257E+03  0.00000000000E+00 0.  1.
          2    1    1    2  502    0  0.19517070311E+02  0.62190626289E+01  0.22274508525E+02  0.30261303732E+02  0.00000000000E+00 0. -1.
         -2    1    1    2    0  502 -0.19517070311E+02 -0.62190626289E+01 -0.18501244280E+03  0.18614294712E+03  0.00000000000E+00 0.  1.
<mgrwt>
<rscale>  2 0.20483964E+02</rscale>
<asrwt>0</asrwt>
<pdfrwt beam="1">  1        2 0.41281782E-02 0.20483964E+02</pdfrwt>
<pdfrwt beam="2">  1       -2 0.29164784E-01 0.20483964E+02</pdfrwt>
<totfact> 0.15282657E+04</totfact>
</mgrwt>
</event>
<event>
 4    1  0.1352171E+004  0.3840984E+02  0.7546771E-02  0.1520250E+00
         -2   -1    0    0    0  501 -0.00000000000E+00  0.00000000000E+00  0.19373157268E+03  0.19373157268E+03  0.00000000000E+00 0.  1.
          2   -1    0    0  501    0  0.00000000000E+00 -0.00000000000E+00 -0.62125473513E+02  0.62125473513E+02  0.00000000000E+00 0.  1.
          2    1    1    2  502    0  0.37873073171E+02  0.63989334886E+01 -0.54028583328E+02  0.66290299725E+02  0.00000000000E+00 0.  1.
         -2    1    1    2    0  502 -0.37873073171E+02 -0.63989334886E+01  0.18563468250E+03  0.18956674647E+03  0.00000000000E+00 0.  1.
<mgrwt>
<rscale>  2 0.38409843E+02</rscale>
<asrwt>0</asrwt>
<pdfrwt beam="2">  1        2 0.95577652E-02 0.38409843E+02</pdfrwt>
<pdfrwt beam="1">  1       -2 0.29804857E-01 0.38409843E+02</pdfrwt>
<totfact> 0.58795144E+03</totfact>
</mgrwt>
</event>
<event>
 4    1  0.1352171E+004  0.2371168E+02  0.7546771E-02  0.1680227E+00
         -2   -1    0    0    0  501 -0.00000000000E+00  0.00000000000E+00  0.24221849171E+01  0.24221849171E+01  0.00000000000E+00 0. -1.
          2   -1    0    0  501    0  0.00000000000E+00 -0.00000000000E+00 -0.23233273078E+03  0.23233273078E+03  0.00000000000E+00 0.  1.
          2    1    1    2  502    0  0.10247325027E+02  0.21383065782E+02 -0.11142289026E+03  0.11391796894E+03  0.00000000000E+00 0. -1.
         -2    1    1    2    0  502 -0.10247325027E+02 -0.21383065782E+02 -0.11848765561E+03  0.12083694677E+03  0.00000000000E+00 0.  1.
<mgrwt>
<rscale>  2 0.23711679E+02</rscale>
<asrwt>0</asrwt>
<pdfrwt beam="2">  1        2 0.35743499E-01 0.23711679E+02</pdfrwt>
<pdfrwt beam="1">  1       -2 0.37264381E-03 0.23711679E+02</pdfrwt>
<totfact> 0.72447781E+05</totfact>
</mgrwt>
</event>
<event>
 4    1  0.1352171E+004  0.2169836E+02  0.7546771E-02  0.1713522E+00
         -2   -1    0    0    0  501 -0.00000000000E+00  0.00000000000E+00  0.32514557181E+01  0.32514557181E+01  0.00000000000E+00 0. -1.
          2   -1    0    0  501    0  0.00000000000E+00 -0.00000000000E+00 -0.33394878483E+03  0.33394878483E+03  0.00000000000E+00 0. -1.
          2    1    1    2  502    0  0.21688333967E+02 -0.65944435905E+00 -0.29223560673E+03  0.29304004597E+03  0.00000000000E+00 0. -1.
         -2    1    1    2    0  502 -0.21688333967E+02  0.65944435905E+00 -0.38461722373E+02  0.44160194576E+02  0.00000000000E+00 0. -1.
<mgrwt>
<rscale>  2 0.21698357E+02</rscale>
<asrwt>0</asrwt>
<pdfrwt beam="2">  1        2 0.51376694E-01 0.21698357E+02</pdfrwt>
<pdfrwt beam="1">  1       -2 0.50022437E-03 0.21698357E+02</pdfrwt>
<totfact> 0.33261464E+05</totfact>
</mgrwt>
</event>
<event>
 4    1  0.1352171E+004  0.2688339E+02  0.7546771E-02  0.1635336E+00
         -2   -1    0    0    0  501 -0.00000000000E+00  0.00000000000E+00  0.18527613005E+01  0.18527613005E+01  0.00000000000E+00 0. -1.
          2   -1    0    0  501    0  0.00000000000E+00 -0.00000000000E+00 -0.10914810044E+04  0.10914810044E+04  0.00000000000E+00 0. -1.
          2    1    1    2  502    0 -0.26359734709E+02  0.52802501076E+01 -0.98304127282E+03  0.98340879634E+03  0.00000000000E+00 0. -1.
         -2    1    1    2    0  502  0.26359734709E+02 -0.52802501076E+01 -0.10658697029E+03  0.10992496937E+03  0.00000000000E+00 0. -1.
<mgrwt>
<rscale>  2 0.26883390E+02</rscale>
<asrwt>0</asrwt>
<pdfrwt beam="2">  1        2 0.16792040E+00 0.26883390E+02</pdfrwt>
<pdfrwt beam="1">  1       -2 0.28503979E-03 0.26883390E+02</pdfrwt>
<totfact> 0.20734290E+05</totfact>
</mgrwt>
</event>
<event>
 4    1  0.1352171E+004  0.2010488E+02  0.7546771E-02  0.1743250E+00
         -2   -1    0    0    0  501 -0.00000000000E+00  0.00000000000E+00  0.13058868388E+02  0.13058868388E+02  0.00000000000E+00 0. -1.
          2   -1    0    0  501    0  0.00000000000E+00 -0.00000000000E+00 -0.10951031056E+04  0.10951031056E+04  0.00000000000E+00 0. -1.
          2    1    1    2  502    0 -0.74619211486E+01 -0.18668854006E+02 -0.10872165441E+04  0.10874024187E+04  0.00000000000E+00 0. -1.
         -2    1    1    2    0  502  0.74619211486E+01  0.18668854006E+02  0.51723069088E+01  0.20759555291E+02  0.00000000000E+00 0. -1.
<mgrwt>
<rscale>  2 0.20104884E+02</rscale>
<asrwt>0</asrwt>
<pdfrwt beam="2">  1        2 0.16847737E+00 0.20104884E+02</pdfrwt>
<pdfrwt beam="1">  1       -2 0.20090571E-02 0.20104884E+02</pdfrwt>
<totfact> 0.14066023E+04</totfact>
</mgrwt>
</event>
<event>
 4    1  0.1352171E+004  0.3518919E+02  0.7546771E-02  0.1546927E+00
          2   -1    0    0  501    0  0.00000000000E+00  0.00000000000E+00  0.25472588194E+04  0.25472588194E+04  0.00000000000E+00 0.  1.
         -2   -1    0    0    0  501 -0.00000000000E+00 -0.00000000000E+00 -0.18575549534E+01  0.18575549534E+01  0.00000000000E+00 0.  1.
          2    1    1    2  502    0  0.14011636945E+02  0.32279302208E+02  0.23678568525E+04  0.23681183149E+04  0.00000000000E+00 0.  1.
         -2    1    1    2    0  502 -0.14011636945E+02 -0.32279302208E+02  0.17754441193E+03  0.18099805946E+03  0.00000000000E+00 0.  1.
<mgrwt>
<rscale>  2 0.35189193E+02</rscale>
<asrwt>0</asrwt>
<pdfrwt beam="1">  1        2 0.39188318E+00 0.35189193E+02</pdfrwt>
<pdfrwt beam="2">  1       -2 0.28577972E-03 0.35189193E+02</pdfrwt>
<totfact> 0.42369860E+04</totfact>
</mgrwt>
</event>
<event>
 4    1  0.1352171E+004  0.4195344E+02  0.7546771E-02  0.1494309E+00
         -2   -1    0    0    0  501 -0.00000000000E+00  0.00000000000E+00  0.15809577904E+01  0.15809577904E+01  0.00000000000E+00 0.  1.
          2   -1    0    0  501    0  0.00000000000E+00 -0.00000000000E+00 -0.11299643722E+04  0.11299643722E+04  0.00000000000E+00 0.  1.
          2    1    1    2  502    0 -0.16905264305E+02 -0.38396631593E+02 -0.49549591881E+03  0.49726883558E+03  0.00000000000E+00 0.  1.
         -2    1    1    2    0  502  0.16905264305E+02  0.38396631593E+02 -0.63288749557E+03  0.63427649438E+03  0.00000000000E+00 0.  1.
<mgrwt>
<rscale>  2 0.41953439E+02</rscale>
<asrwt>0</asrwt>
<pdfrwt beam="2">  1        2 0.17384028E+00 0.41953439E+02</pdfrwt>
<pdfrwt beam="1">  1       -2 0.24322483E-03 0.41953439E+02</pdfrwt>
<totfact> 0.26903390E+05</totfact>
</mgrwt>
</event>
<event>
 4    1  0.1352171E+004  0.2040858E+02  0.7546771E-02  0.1737323E+00
          2   -1    0    0  501    0  0.00000000000E+00  0.00000000000E+00  0.68057465152E+02  0.68057465152E+02  0.00000000000E+00 0. -1.
         -2   -1    0    0    0  501 -0.00000000000E+00 -0.00000000000E+00 -0.69397801730E+01  0.69397801730E+01  0.00000000000E+00 0.  1.
          2    1    1    2  502    0 -0.48865563701E+01 -0.19814935145E+02  0.43447194437E+02  0.48001758221E+02  0.00000000000E+00 0. -1.
         -2    1    1    2    0  502  0.48865563701E+01  0.19814935145E+02  0.17670490543E+02  0.26995487104E+02  0.00000000000E+00 0.  1.
<mgrwt>
<rscale>  2 0.20408579E+02</rscale>
<asrwt>0</asrwt>
<pdfrwt beam="1">  1        2 0.10470379E-01 0.20408579E+02</pdfrwt>
<pdfrwt beam="2">  1       -2 0.10676585E-02 0.20408579E+02</pdfrwt>
<totfact> 0.62096128E+05</totfact>
</mgrwt>
</event>
<event>
 4    1  0.1352171E+004  0.3558812E+02  0.7546771E-02  0.1543439E+00
          2   -1    0    0  501    0  0.00000000000E+00  0.00000000000E+00  0.11267629059E+04  0.11267629059E+04  0.00000000000E+00 0. -1.
         -2   -1    0    0    0  501 -0.00000000000E+00 -0.00000000000E+00 -0.29347360836E+01  0.29347360836E+01  0.00000000000E+00 0.  1.
          2    1    1    2  502    0 -0.11417545294E+02  0.33706867305E+02  0.11823199206E+03  0.12347192876E+03  0.00000000000E+00 0.  1.
         -2    1    1    2    0  502  0.11417545294E+02 -0.33706867305E+02  0.10055961778E+04  0.10062257133E+04  0.00000000000E+00 0. -1.
<mgrwt>
<rscale>  2 0.35588123E+02</rscale>
<asrwt>0</asrwt>
<pdfrwt beam="1">  1        2 0.17334779E+00 0.35588123E+02</pdfrwt>
<pdfrwt beam="2">  1       -2 0.45149876E-03 0.35588123E+02</pdfrwt>
<totfact> 0.11299207E+05</totfact>
</mgrwt>
</event>
<event>
 4    1  0.1352171E+004  0.3709684E+02  0.7546771E-02  0.1530731E+00
          2   -1    0    0  501    0  0.00000000000E+00  0.00000000000E+00  0.91923158005E+01  0.91923158005E+01  0.00000000000E+00 0.  1.
         -2   -1    0    0    0  501 -0.00000000000E+00 -0.00000000000E+00 -0.15895711026E+04  0.15895711026E+04  0.00000000000E+00 0. -1.
          2    1    1    2  502    0  0.40737274085E+01 -0.36872489783E+02 -0.29382177599E+02  0.47323230218E+02  0.00000000000E+00 0.  1.
         -2    1    1    2    0  502 -0.40737274085E+01  0.36872489783E+02 -0.15509966092E+04  0.15514401882E+04  0.00000000000E+00 0. -1.
<mgrwt>
<rscale>  2 0.37096843E+02</rscale>
<asrwt>0</asrwt>
<pdfrwt beam="1">  1        2 0.14142028E-02 0.37096843E+02</pdfrwt>
<pdfrwt beam="2">  1       -2 0.24454934E+00 0.37096843E+02</pdfrwt>
<totfact> 0.61509222E+02</totfact>
</mgrwt>
</event>
<event>
 4    1  0.1352171E+004  0.2034266E+02  0.7546771E-02  0.1738598E+00
          2   -1    0    0  501    0  0.00000000000E+00  0.00000000000E+00  0.78784551209E+03  0.78784551209E+03  0.00000000000E+00 0.  1.
         -2   -1    0    0    0  501 -0.00000000000E+00 -0.00000000000E+00 -0.59628544535E+00  0.59628544535E+00  0.00000000000E+00 0.  1.
          2    1    1    2  502    0 -0.48219558896E+00  0.20336946855E+02  0.52968095810E+03  0.53007144923E+03  0.00000000000E+00 0.  1.
         -2    1    1    2    0  502  0.48219558896E+00 -0.20336946855E+02  0.25756826854E+03  0.25837034830E+03  0.00000000000E+00 0.  1.
<mgrwt>
<rscale>  2 0.20342663E+02</rscale>
<asrwt>0</asrwt>
<pdfrwt beam="1">  1        2 0.12120617E+00 0.20342663E+02</pdfrwt>
<pdfrwt beam="2">  1       -2 0.91736853E-04 0.20342663E+02</pdfrwt>
<totfact> 0.12757747E+06</totfact>
</mgrwt>
</event>
<event>
 4    1  0.1352171E+004  0.3774842E+02  0.7546771E-02  0.1525466E+00
          2   -1    0    0  501    0  0.00000000000E+00  0.00000000000E+00  0.17537024105E+04  0.17537024105E+04  0.00000000000E+00 0.  1.
         -2   -1    0    0    0  501 -0.00000000000E+00 -0.00000000000E+00 -0.64273605318E+01  0.64273605318E+01  0.00000000000E+00 0.  1.
          2    1    1    2  502    0 -0.36527463466E+02 -0.95229966306E+01  0.16961955223E+04  0.16966155113E+04  0.00000000000E+00 0.  1.
         -2    1    1    2    0  502  0.36527463466E+02  0.95229966306E+01  0.51079527662E+02  0.63514259803E+02  0.00000000000E+00 0.  1.
<mgrwt>
<rscale>  2 0.37748418E+02</rscale>
<asrwt>0</asrwt>
<pdfrwt beam="1">  1        2 0.26979999E+00 0.37748418E+02</pdfrwt>
<pdfrwt beam="2">  1       -2 0.98882609E-03 0.37748418E+02</pdfrwt>
<totfact> 0.19091159E+04</totfact>
</mgrwt>
</event>
<event>
 4    1  0.1352171E+004  0.3035768E+02  0.7546771E-02  0.1594168E+00
         -2   -1    0    0    0  501 -0.00000000000E+00  0.00000000000E+00  0.27884261668E+01  0.27884261668E+01  0.00000000000E+00 0.  1.
          2   -1    0    0  501    0  0.00000000000E+00 -0.00000000000E+00 -0.53604417303E+03  0.53604417303E+03  0.00000000000E+00 0. -1.
          2    1    1    2  502    0  0.89333942655E+01 -0.29013498526E+02 -0.43345664055E+03  0.43451840913E+03  0.00000000000E+00 0. -1.
         -2    1    1    2    0  502 -0.89333942655E+01  0.29013498526E+02 -0.99799106311E+02  0.10431419007E+03  0.00000000000E+00 0.  1.
<mgrwt>
<rscale>  2 0.30357678E+02</rscale>
<asrwt>0</asrwt>
<pdfrwt beam="2">  1        2 0.82468404E-01 0.30357678E+02</pdfrwt>
<pdfrwt beam="1">  1       -2 0.42898828E-03 0.30357678E+02</pdfrwt>
<totfact> 0.27818204E+05</totfact>
</mgrwt>
</event>
<event>
 4    1  0.1352171E+004  0.2280123E+02  0.7546771E-02  0.1694753E+00
         -2   -1    0    0    0  501 -0.00000000000E+00  0.00000000000E+00  0.86993499147E+02  0.86993499147E+02  0.00000000000E+00 0.  1.
          2   -1    0    0  501    0  0.00000000000E+00 -0.00000000000E+00 -0.24541067208E+03  0.24541067208E+03  0.00000000000E+00 0.  1.
          2    1    1    2  502    0  0.22015191260E+02  0.59352556072E+01 -0.24337451586E+03  0.24444028079E+03  0.00000000000E+00 0.  1.
         -2    1    1    2    0  502 -0.22015191260E+02 -0.59352556072E+01  0.84957342920E+02  0.87963890440E+02  0.00000000000E+00 0.  1.
<mgrwt>
<rscale>  2 0.22801226E+02</rscale>
<asrwt>0</asrwt>
<pdfrwt beam="2">  1        2 0.37755488E-01 0.22801226E+02</pdfrwt>
<pdfrwt beam="1">  1       -2 0.13383615E-01 0.22801226E+02</pdfrwt>
<totfact> 0.46078991E+03</totfact>
</mgrwt>
</event>
<event>
 4    1  0.1352171E+004  0.2136905E+02  0.7546771E-02  0.1719398E+00
         -2   -1    0    0    0  501 -0.00000000000E+00  0.00000000000E+00  0.11398481560E+02  0.11398481560E+02  0.00000000000E+00 0.  1.
          2   -1    0    0  501    0  0.00000000000E+00 -0.00000000000E+00 -0.70870319453E+03  0.70870319453E+03  0.00000000000E+00 0.  1.
          2    1    1    2  502    0  0.21174573210E+02  0.28763837772E+01 -0.69837880363E+03  0.69870565298E+03  0.00000000000E+00 0.  1.
         -2    1    1    2    0  502 -0.21174573210E+02 -0.28763837772E+01  0.10740906656E+01  0.21396023112E+02  0.00000000000E+00 0.  1.
<mgrwt>
<rscale>  2 0.21369046E+02</rscale>
<asrwt>0</asrwt>
<pdfrwt beam="2">  1        2 0.10903128E+00 0.21369046E+02</pdfrwt>
<pdfrwt beam="1">  1       -2 0.17536122E-02 0.21369046E+02</pdfrwt>
<totfact> 0.28517363E+04</totfact>
</mgrwt>
</event>
<event>
 4    1  0.1352171E+004  0.3323044E+02  0.7546771E-02  0.1564901E+00
          2   -1    0    0  501    0  0.00000000000E+00  0.00000000000E+00  0.59203336406E+02  0.59203336406E+02  0.00000000000E+00 0. -1.
         -2   -1    0    0    0  501 -0.00000000000E+00 -0.00000000000E+00 -0.67392292250E+02  0.67392292250E+02  0.00000000000E+00 0.  1.
          2    1    1    2  502    0  0.30842370719E+02 -0.12369730382E+02  0.49735915841E+02  0.59815745300E+02  0.00000000000E+00 0. -1.
         -2    1    1    2    0  502 -0.30842370719E+02  0.12369730382E+02 -0.57924871685E+02  0.66779883356E+02  0.00000000000E+00 0.  1.
<mgrwt>
<rscale>  2 0.33230439E+02</rscale>
<asrwt>0</asrwt>
<pdfrwt beam="1">  1        2 0.91082056E-02 0.33230439E+02</pdfrwt>
<pdfrwt beam="2">  1       -2 0.10368045E-01 0.33230439E+02</pdfrwt>
<totfact> 0.33442386E+04</totfact>
</mgrwt>
</event>
<event>
 4    1  0.1352171E+004  0.2696001E+02  0.7546771E-02  0.1634347E+00
          2   -1    0    0  501    0  0.00000000000E+00  0.00000000000E+00  0.21672680042E+04  0.21672680042E+04  0.00000000000E+00 0.  1.
         -2   -1    0    0    0  501 -0.00000000000E+00 -0.00000000000E+00 -0.57217418831E+00  0.57217418831E+00  0.00000000000E+00 0. -1.
          2    1    1    2  502    0  0.14213253001E+02 -0.22909071224E+02  0.17806573230E+04  0.17808614050E+04  0.00000000000E+00 0.  1.
         -2    1    1    2    0  502 -0.14213253001E+02  0.22909071224E+02  0.38603850708E+03  0.38697877339E+03  0.00000000000E+00 0. -1.
<mgrwt>
<rscale>  2 0.26960009E+02</rscale>
<asrwt>0</asrwt>
<pdfrwt beam="1">  1        2 0.33341928E+00 0.26960009E+02</pdfrwt>
<pdfrwt beam="2">  1       -2 0.88028533E-04 0.26960009E+02</pdfrwt>
<totfact> 0.30106890E+05</totfact>
</mgrwt>
</event>
<event>
 4    1  0.1352171E+004  0.3653073E+02  0.7546771E-02  0.1535413E+00
         -2   -1    0    0    0  501 -0.00000000000E+00  0.00000000000E+00  0.59449830398E+00  0.59449830398E+00  0.00000000000E+00 0. -1.
          2   -1    0    0  501    0  0.00000000000E+00 -0.00000000000E+00 -0.24470806163E+04  0.24470806163E+04  0.00000000000E+00 0. -1.
          2    1    1    2  502    0 -0.60077440721E+01 -0.36033339239E+02 -0.15751602201E+04  0.15755837692E+04  0.00000000000E+00 0. -1.
         -2    1    1    2    0  502  0.60077440721E+01  0.36033339239E+02 -0.87132589781E+03  0.87209134540E+03  0.00000000000E+00 0. -1.
<mgrwt>
<rscale>  2 0.36530734E+02</rscale>
<asrwt>0</asrwt>
<pdfrwt beam="2">  1        2 0.37647578E+00 0.36530734E+02</pdfrwt>
<pdfrwt beam="1">  1       -2 0.91460832E-04 0.36530734E+02</pdfrwt>
<totfact> 0.22109347E+05</totfact>
</mgrwt>
</event>
<event>
 4    1  0.1352171E+004  0.2069161E+02  0.7546771E-02  0.1731914E+00
         -2   -1    0    0    0  501 -0.00000000000E+00  0.00000000000E+00  0.19468039769E+01  0.19468039769E+01  0.00000000000E+00 0. -1.
          2   -1    0    0  501    0  0.00000000000E+00 -0.00000000000E+00 -0.22680250387E+03  0.22680250387E+03  0.00000000000E+00 0. -1.
          2    1    1    2  502    0 -0.17863401743E+02  0.10442283650E+02 -0.92504683080E+02  0.94790605027E+02  0.00000000000E+00 0. -1.
         -2    1    1    2    0  502  0.17863401743E+02 -0.10442283650E+02 -0.13235101681E+03  0.13395870282E+03  0.00000000000E+00 0. -1.
<mgrwt>
<rscale>  2 0.20691613E+02</rscale>
<asrwt>0</asrwt>
<pdfrwt beam="2">  1        2 0.34892704E-01 0.20691613E+02</pdfrwt>
<pdfrwt beam="1">  1       -2 0.29950821E-03 0.20691613E+02</pdfrwt>
<totfact> 0.94936011E+05</totfact>
</mgrwt>
</event>
<event>
 4    1  0.1352171E+004  0.2197583E+02  0.7546771E-02  0.1708670E+00
          2   -1    0    0  501    0  0.00000000000E+00  0.00000000000E+00  0.64565445726E+03  0.64565445726E+03  0.00000000000E+00 0. -1.
         -2   -1    0    0    0  501 -0.00000000000E+00 -0.00000000000E+00 -0.17979506768E+01  0.17979506768E+01  0.00000000000E+00 0.  1.
          2    1    1    2  502    0 -0.15228088574E+02 -0.15844322789E+02  0.56931552604E+03  0.56973950665E+03  0.00000000000E+00 0. -1.
         -2    1    1    2    0  502  0.15228088574E+02  0.15844322789E+02  0.74540980542E+02  0.77712901287E+02  0.00000000000E+00 0.  1.
<mgrwt>
<rscale>  2 0.21975833E+02</rscale>
<asrwt>0</asrwt>
<pdfrwt beam="1">  1        2 0.99331270E-01 0.21975833E+02</pdfrwt>
<pdfrwt beam="2">  1       -2 0.27660831E-03 0.21975833E+02</pdfrwt>
<totfact> 0.37880567E+05</totfact>
</mgrwt>
</event>
<event>
 4    1  0.1352171E+004  0.2008819E+02  0.7546771E-02  0.1743580E+00
         -2   -1    0    0    0  501 -0.00000000000E+00  0.00000000000E+00  0.78406517160E+01  0.78406517160E+01  0.00000000000E+00 0. -1.
          2   -1    0    0  501    0  0.00000000000E+00 -0.00000000000E+00 -0.28183268008E+03  0.28183268008E+03  0.00000000000E+00 0. -1.
          2    1    1    2  502    0  0.57678722395E+01 -0.19242327883E+02 -0.26794183651E+03  0.26869380954E+03  0.00000000000E+00 0. -1.
         -2    1    1    2    0  502 -0.57678722395E+01  0.19242327883E+02 -0.60501918498E+01  0.20979522252E+02  0.00000000000E+00 0. -1.
<mgrwt>
<rscale>  2 0.20088194E+02</rscale>
<asrwt>0</asrwt>
<pdfrwt beam="2">  1        2 0.43358879E-01 0.20088194E+02</pdfrwt>
<pdfrwt beam="1">  1       -2 0.12062540E-02 0.20088194E+02</pdfrwt>
<totfact> 0.11803486E+05</totfact>
</mgrwt>
</event>
<event>
 4    1  0.1352171E+004  0.2521224E+02  0.7546771E-02  0.1657972E+00
          2   -1    0    0  501    0  0.00000000000E+00  0.00000000000E+00  0.96416939567E+03  0.96416939567E+03  0.00000000000E+00 0.  1.
         -2   -1    0    0    0  501 -0.00000000000E+00 -0.00000000000E+00 -0.94444363157E+00  0.94444363157E+00  0.00000000000E+00 0.  1.
          2    1    1    2  502    0  0.17083233025E+02 -0.18542385254E+02  0.74677255872E+03  0.74719804025E+03  0.00000000000E+00 0.  1.
         -2    1    1    2    0  502 -0.17083233025E+02  0.18542385254E+02  0.21645239332E+03  0.21791579905E+03  0.00000000000E+00 0.  1.
<mgrwt>
<rscale>  2 0.25212237E+02</rscale>
<asrwt>0</asrwt>
<pdfrwt beam="1">  1        2 0.14833297E+00 0.25212237E+02</pdfrwt>
<pdfrwt beam="2">  1       -2 0.14529979E-03 0.25212237E+02</pdfrwt>
<totfact> 0.58645212E+05</totfact>
</mgrwt>
</event>
<event>
 4    1  0.1352171E+004  0.2678040E+02  0.7546771E-02  0.1636672E+00
         -2   -1    0    0    0  501 -0.00000000000E+00  0.00000000000E+00  0.35753973643E+01  0.35753973643E+01  0.00000000000E+00 0.  1.
          2   -1    0    0  501    0  0.00000000000E+00 -0.00000000000E+00 -0.18609470705E+04  0.18609470705E+04  0.00000000000E+00 0. -1.
          2    1    1    2  502    0 -0.14388760111E+02  0.22586575422E+02 -0.18092709348E+04  0.18094691225E+04  0.00000000000E+00 0. -1.
         -2    1    1    2    0  502  0.14388760111E+02 -0.22586575422E+02 -0.48100738380E+02  0.55053345398E+02  0.00000000000E+00 0.  1.
<mgrwt>
<rscale>  2 0.26780400E+02</rscale>
<asrwt>0</asrwt>
<pdfrwt beam="2">  1        2 0.28629933E+00 0.26780400E+02</pdfrwt>
<pdfrwt beam="1">  1       -2 0.55006156E-03 0.26780400E+02</pdfrwt>
<totfact> 0.36321972E+04</totfact>
</mgrwt>
</event>
<event>
 4    1  0.1352171E+004  0.3073736E+02  0.7546771E-02  0.1590078E+00
         -2   -1    0    0    0  501 -0.00000000000E+00  0.00000000000E+00  0.71289965499E+01  0.71289965499E+01  0.00000000000E+00 0.  1.
          2   -1    0    0  501    0  0.00000000000E+00 -0.00000000000E+00 -0.13653326125E+03  0.13653326125E+03  0.00000000000E+00 0.  1.
          2    1    1    2  502    0  0.23712754147E+02  0.19557363858E+02 -0.77006464348E+02  0.82914297571E+02  0.00000000000E+00 0.  1.
         -2    1    1    2    0  502 -0.23712754147E+02 -0.19557363858E+02 -0.52397800354E+02  0.60747960231E+02  0.00000000000E+00 0.  1.
<mgrwt>
<rscale>  2 0.30737358E+02</rscale>
<asrwt>0</asrwt>
<pdfrwt beam="2">  1        2 0.21005116E-01 0.30737358E+02</pdfrwt>
<pdfrwt beam="1">  1       -2 0.10967688E-02 0.30737358E+02</pdfrwt>
<totfact> 0.31357001E+05</totfact>
</mgrwt>
</event>
<event>
 4    1  0.1352171E+004  0.3589263E+02  0.7546771E-02  0.1540814E+00
          2   -1    0    0  501    0  0.00000000000E+00  0.00000000000E+00  0.18780155920E+04  0.18780155920E+04  0.00000000000E+00 0.  1.
         -2   -1    0    0    0  501 -0.00000000000E+00 -0.00000000000E+00 -0.89871726748E+00  0.89871726748E+00  0.00000000000E+00 0.  1.
          2    1    1    2  502    0  0.50328420605E+01 -0.35538022716E+02  0.13956335108E+04  0.13960949742E+04  0.00000000000E+00 0.  1.
         -2    1    1    2    0  502 -0.50328420605E+01  0.35538022716E+02  0.48148336396E+03  0.48281933508E+03  0.00000000000E+00 0.  1.
<mgrwt>
<rscale>  2 0.35892625E+02</rscale>
<asrwt>0</asrwt>
<pdfrwt beam="1">  1        2 0.28892234E+00 0.35892625E+02</pdfrwt>
<pdfrwt beam="2">  1       -2 0.13826570E-03 0.35892625E+02</pdfrwt>
<totfact> 0.23930331E+05</totfact>
</mgrwt>
</event>
<event>
 4    1  0.1352171E+004  0.2327738E+02  0.7546771E-02  0.1687053E+00
         -2   -1    0    0    0  501 -0.00000000000E+00  0.00000000000E+00  0.57625948640E+01  0.57625948640E+01  0.00000000000E+00 0. -1.
          2   -1    0    0  501    0  0.00000000000E+00 -0.00000000000E+00 -0.10397680455E+04  0.10397680455E+04  0.00000000000E+00 0.  1.
          2    1    1    2  502    0 -0.12256364818E+02 -0.19789333729E+02 -0.10155711684E+04  0.10158378976E+04  0.00000000000E+00 0.  1.
         -2    1    1    2    0  502  0.12256364818E+02  0.19789333729E+02 -0.18434282210E+02  0.29692742692E+02  0.00000000000E+00 0. -1.
<mgrwt>
<rscale>  2 0.23277375E+02</rscale>
<asrwt>0</asrwt>
<pdfrwt beam="2">  1        2 0.15996420E+00 0.23277375E+02</pdfrwt>
<pdfrwt beam="1">  1       -2 0.88655369E-03 0.23277375E+02</pdfrwt>
<totfact> 0.46680311E+04</totfact>
</mgrwt>
</event>
<event>
 4    1  0.1352171E+004  0.1040435E+03  0.7546771E-02  0.1272016E+00
         -2   -1    0    0    0  501 -0.00000000000E+00  0.00000000000E+00  0.40868741932E+02  0.40868741932E+02  0.00000000000E+00 0.  1.
          2   -1    0    0  501    0  0.00000000000E+00 -0.00000000000E+00 -0.28726329847E+03  0.28726329847E+03  0.00000000000E+00 0.  1.
          2    1    1    2  502    0 -0.17512661008E+02  0.10255908013E+03 -0.16900101774E+03  0.19846007712E+03  0.00000000000E+00 0.  1.
         -2    1    1    2    0  502  0.17512661008E+02 -0.10255908013E+03 -0.77393538799E+02  0.12967196328E+03  0.00000000000E+00 0.  1.
<mgrwt>
<rscale>  2 0.10404354E+03</rscale>
<asrwt>0</asrwt>
<pdfrwt beam="2">  1        2 0.44194353E-01 0.10404354E+03</pdfrwt>
<pdfrwt beam="1">  1       -2 0.62874989E-02 0.10404354E+03</pdfrwt>
<totfact> 0.14474633E+04</totfact>
</mgrwt>
</event>
<event>
 4    1  0.1352171E+004  0.2747516E+02  0.7546771E-02  0.1627801E+00
          2   -1    0    0  501    0  0.00000000000E+00  0.00000000000E+00  0.65308870427E+03  0.65308870427E+03  0.00000000000E+00 0.  1.
         -2   -1    0    0    0  501 -0.00000000000E+00 -0.00000000000E+00 -0.14693113234E+01  0.14693113234E+01  0.00000000000E+00 0.  1.
          2    1    1    2  502    0 -0.23126602277E+02  0.14833894455E+02  0.47697110721E+03  0.47776178297E+03  0.00000000000E+00 0.  1.
         -2    1    1    2    0  502  0.23126602277E+02 -0.14833894455E+02  0.17464828574E+03  0.17679623263E+03  0.00000000000E+00 0.  1.
<mgrwt>
<rscale>  2 0.27475155E+02</rscale>
<asrwt>0</asrwt>
<pdfrwt beam="1">  1        2 0.10047495E+00 0.27475155E+02</pdfrwt>
<pdfrwt beam="2">  1       -2 0.22604842E-03 0.27475155E+02</pdfrwt>
<totfact> 0.52071840E+05</totfact>
</mgrwt>
</event>
<event>
 4    1  0.1352171E+004  0.3234333E+02  0.7546771E-02  0.1573543E+00
         -2   -1    0    0    0  501 -0.00000000000E+00  0.00000000000E+00  0.56789593217E+03  0.56789593217E+03  0.00000000000E+00 0.  1.
          2   -1    0    0  501    0  0.00000000000E+00 -0.00000000000E+00 -0.86486154135E+02  0.86486154135E+02  0.00000000000E+00 0. -1.
          2    1    1    2  502    0 -0.28635052551E+02  0.15037445057E+02 -0.82983020520E+02  0.89063307164E+02  0.00000000000E+00 0. -1.
         -2    1    1    2    0  502  0.28635052551E+02 -0.15037445057E+02  0.56439279855E+03  0.56531877914E+03  0.00000000000E+00 0.  1.
<mgrwt>
<rscale>  2 0.32343330E+02</rscale>
<asrwt>0</asrwt>
<pdfrwt beam="2">  1        2 0.13305563E-01 0.32343330E+02</pdfrwt>
<pdfrwt beam="1">  1       -2 0.87368603E-01 0.32343330E+02</pdfrwt>
<totfact> 0.49157964E+02</totfact>
</mgrwt>
</event>
<event>
 4    1  0.1352171E+004  0.2794643E+02  0.7546771E-02  0.1621964E+00
         -2   -1    0    0    0  501 -0.00000000000E+00  0.00000000000E+00  0.40364517076E+01  0.40364517076E+01  0.00000000000E+00 0. -1.
          2   -1    0    0  501    0  0.00000000000E+00 -0.00000000000E+00 -0.34571542047E+03  0.34571542047E+03  0.00000000000E+00 0. -1.
          2    1    1    2  502    0 -0.24880169494E+02  0.12727130959E+02 -0.28688221063E+03  0.28824018713E+03  0.00000000000E+00 0. -1.
         -2    1    1    2    0  502  0.24880169494E+02 -0.12727130959E+02 -0.54796758131E+02  0.61511685054E+02  0.00000000000E+00 0. -1.
<mgrwt>
<rscale>  2 0.27946425E+02</rscale>
<asrwt>0</asrwt>
<pdfrwt beam="2">  1        2 0.53186994E-01 0.27946425E+02</pdfrwt>
<pdfrwt beam="1">  1       -2 0.62099249E-03 0.27946425E+02</pdfrwt>
<totfact> 0.25735121E+05</totfact>
</mgrwt>
</event>
<event>
 4    1  0.1352171E+004  0.2865428E+02  0.7546771E-02  0.1613459E+00
         -2   -1    0    0    0  501 -0.00000000000E+00  0.00000000000E+00  0.91655276010E+01  0.91655276010E+01  0.00000000000E+00 0. -1.
          2   -1    0    0  501    0  0.00000000000E+00 -0.00000000000E+00 -0.12529869896E+04  0.12529869896E+04  0.00000000000E+00 0. -1.
          2    1    1    2  502    0 -0.28580463718E+02 -0.20554694210E+01 -0.12300093127E+04  0.12303430323E+04  0.00000000000E+00 0. -1.
         -2    1    1    2    0  502  0.28580463718E+02  0.20554694210E+01 -0.13812149327E+02  0.31809484905E+02  0.00000000000E+00 0. -1.
<mgrwt>
<rscale>  2 0.28654282E+02</rscale>
<asrwt>0</asrwt>
<pdfrwt beam="2">  1        2 0.19276708E+00 0.28654282E+02</pdfrwt>
<pdfrwt beam="1">  1       -2 0.14100822E-02 0.28654282E+02</pdfrwt>
<totfact> 0.19891162E+04</totfact>
</mgrwt>
</event>
<event>
 4    1  0.1352171E+004  0.2283136E+02  0.7546771E-02  0.1694258E+00
          2   -1    0    0  501    0  0.00000000000E+00  0.00000000000E+00  0.79631159162E+03  0.79631159162E+03  0.00000000000E+00 0.  1.
         -2   -1    0    0    0  501 -0.00000000000E+00 -0.00000000000E+00 -0.53192890329E+02  0.53192890329E+02  0.00000000000E+00 0.  1.
          2    1    1    2  502    0 -0.21987162700E+02 -0.61510553430E+01  0.79368994105E+03  0.79401825756E+03  0.00000000000E+00 0.  1.
         -2    1    1    2    0  502  0.21987162700E+02  0.61510553430E+01 -0.50571239765E+02  0.55486224388E+02  0.00000000000E+00 0.  1.
<mgrwt>
<rscale>  2 0.22831356E+02</rscale>
<asrwt>0</asrwt>
<pdfrwt beam="1">  1        2 0.12250947E+00 0.22831356E+02</pdfrwt>
<pdfrwt beam="2">  1       -2 0.81835222E-02 0.22831356E+02</pdfrwt>
<totfact> 0.29050810E+03</totfact>
</mgrwt>
</event>
<event>
 4    1  0.1352171E+004  0.5101844E+02  0.7546771E-02  0.1439925E+00
          2   -1    0    0  501    0  0.00000000000E+00  0.00000000000E+00  0.19098525334E+03  0.19098525334E+03  0.00000000000E+00 0.  1.
         -2   -1    0    0    0  501 -0.00000000000E+00 -0.00000000000E+00 -0.17232594795E+03  0.17232594795E+03  0.00000000000E+00 0.  1.
          2    1    1    2  502    0  0.45221729580E+02 -0.23619407661E+02  0.18365404025E+03  0.19060872946E+03  0.00000000000E+00 0.  1.
         -2    1    1    2    0  502 -0.45221729580E+02  0.23619407661E+02 -0.16499473486E+03  0.17270247183E+03  0.00000000000E+00 0.  1.
<mgrwt>
<rscale>  2 0.51018440E+02</rscale>
<asrwt>0</asrwt>
<pdfrwt beam="1">  1        2 0.29382347E-01 0.51018440E+02</pdfrwt>
<pdfrwt beam="2">  1       -2 0.26511684E-01 0.51018440E+02</pdfrwt>
<totfact> 0.21169491E+03</totfact>
</mgrwt>
</event>
<event>
 4    1  0.1352171E+004  0.2147671E+02  0.7546771E-02  0.1717462E+00
          2   -1    0    0  501    0  0.00000000000E+00  0.00000000000E+00  0.71338623042E+03  0.71338623042E+03  0.00000000000E+00 0.  1.
         -2   -1    0    0    0  501 -0.00000000000E+00 -0.00000000000E+00 -0.44650173217E+02  0.44650173217E+02  0.00000000000E+00 0.  1.
          2    1    1    2  502    0  0.20846448969E+02 -0.51647661633E+01  0.71063201002E+03  0.71095647047E+03  0.00000000000E+00 0.  1.
         -2    1    1    2    0  502 -0.20846448969E+02  0.51647661633E+01 -0.41895952817E+02  0.47079933162E+02  0.00000000000E+00 0.  1.
<mgrwt>
<rscale>  2 0.21476714E+02</rscale>
<asrwt>0</asrwt>
<pdfrwt beam="1">  1        2 0.10975172E+00 0.21476714E+02</pdfrwt>
<pdfrwt beam="2">  1       -2 0.68692579E-02 0.21476714E+02</pdfrwt>
<totfact> 0.42093486E+03</totfact>
</mgrwt>
</event>
<event>
 4    1  0.1352171E+004  0.2171384E+02  0.7546771E-02  0.1713248E+00
          2   -1    0    0  501    0  0.00000000000E+00  0.00000000000E+00  0.75970631363E+02  0.75970631363E+02  0.00000000000E+00 0.  1.
         -2   -1    0    0    0  501 -0.00000000000E+00 -0.00000000000E+00 -0.67286168667E+01  0.67286168667E+01  0.00000000000E+00 0.  1.
          2    1    1    2  502    0  0.10297553940E+02 -0.19116779655E+02  0.46142442842E+02  0.50996234301E+02  0.00000000000E+00 0.  1.
         -2    1    1    2    0  502 -0.10297553940E+02  0.19116779655E+02  0.23099571655E+02  0.31703013928E+02  0.00000000000E+00 0.  1.
<mgrwt>
<rscale>  2 0.21713841E+02</rscale>
<asrwt>0</asrwt>
<pdfrwt beam="1">  1        2 0.11687789E-01 0.21713841E+02</pdfrwt>
<pdfrwt beam="2">  1       -2 0.10351719E-02 0.21713841E+02</pdfrwt>
<totfact> 0.58321150E+05</totfact>
</mgrwt>
</event>
<event>
 4    1  0.1352171E+004  0.2089935E+02  0.7546771E-02  0.1728013E+00
          2   -1    0    0  501    0  0.00000000000E+00  0.00000000000E+00  0.13947902977E+04  0.13947902977E+04  0.00000000000E+00 0.  1.
         -2   -1    0    0    0  501 -0.00000000000E+00 -0.00000000000E+00 -0.12895345383E+01  0.12895345383E+01  0.00000000000E+00 0.  1.
          2    1    1    2  502    0 -0.53570529324E+01 -0.20201108784E+02  0.13041486375E+04  0.13043160857E+04  0.00000000000E+00 0.  1.
         -2    1    1    2    0  502  0.53570529324E+01  0.20201108784E+02  0.89352125675E+02  0.91763746517E+02  0.00000000000E+00 0.  1.
<mgrwt>
<rscale>  2 0.20899350E+02</rscale>
<asrwt>0</asrwt>
<pdfrwt beam="1">  1        2 0.21458192E+00 0.20899350E+02</pdfrwt>
<pdfrwt beam="2">  1       -2 0.19839104E-03 0.20899350E+02</pdfrwt>
<totfact> 0.22377127E+05</totfact>
</mgrwt>
</event>
<event>
 4    1  0.1352171E+004  0.2108838E+02  0.7546771E-02  0.1724512E+00
         -2   -1    0    0    0  501 -0.00000000000E+00  0.00000000000E+00  0.47408251126E+03  0.47408251126E+03  0.00000000000E+00 0. -1.
          2   -1    0    0  501    0  0.00000000000E+00 -0.00000000000E+00 -0.46595198083E+01  0.46595198083E+01  0.00000000000E+00 0.  1.
          2    1    1    2  502    0  0.20156968626E+02  0.61980910736E+01  0.20788527124E+02  0.29612203179E+02  0.00000000000E+00 0.  1.
         -2    1    1    2    0  502 -0.20156968626E+02 -0.61980910736E+01  0.44863446433E+03  0.44912982789E+03  0.00000000000E+00 0. -1.
<mgrwt>
<rscale>  2 0.21088379E+02</rscale>
<asrwt>0</asrwt>
<pdfrwt beam="2">  1        2 0.71684958E-03 0.21088379E+02</pdfrwt>
<pdfrwt beam="1">  1       -2 0.72935733E-01 0.21088379E+02</pdfrwt>
<totfact> 0.25924760E+04</totfact>
</mgrwt>
</event>
<event>
 4    1  0.2479913E+004  0.2593150E+02  0.7546771E-02  0.1647972E+00
          2   -1    0    0  501    0  0.00000000000E+00  0.00000000000E+00  0.13181992934E+04  0.13181992934E+04  0.00000000000E+00 0. -1.
         -2   -1    0    0    0  501 -0.00000000000E+00 -0.00000000000E+00 -0.32062569871E+03  0.32062569871E+03  0.00000000000E+00 0.  1.
          2    1    1    2  502    0  0.25386954105E+02 -0.52863396811E+01  0.13175471826E+04  0.13178023453E+04  0.00000000000E+00 0. -1.
         -2    1    1    2    0  502 -0.25386954105E+02  0.52863396811E+01 -0.31997358791E+03  0.32102264684E+03  0.00000000000E+00 0.  1.
<mgrwt>
<rscale>  2 0.25931503E+02</rscale>
<asrwt>0</asrwt>
<pdfrwt beam="1">  1        2 0.20279989E+00 0.25931503E+02</pdfrwt>
<pdfrwt beam="2">  1       -2 0.49327031E-01 0.25931503E+02</pdfrwt>
<totfact> 0.80463973E+01</totfact>
</mgrwt>
</event>
<event>
 4    1  0.1352171E+004  0.3542231E+02  0.7546771E-02  0.1544882E+00
          2   -1    0    0  501    0  0.00000000000E+00  0.00000000000E+00  0.93523518042E+03  0.93523518042E+03  0.00000000000E+00 0. -1.
         -2   -1    0    0    0  501 -0.00000000000E+00 -0.00000000000E+00 -0.12080776763E+02  0.12080776763E+02  0.00000000000E+00 0.  1.
          2    1    1    2  502    0  0.35260528380E+02  0.33816301017E+01  0.90816031931E+03  0.90885087108E+03  0.00000000000E+00 0. -1.
         -2    1    1    2    0  502 -0.35260528380E+02 -0.33816301017E+01  0.14994084342E+02  0.38465086104E+02  0.00000000000E+00 0.  1.
<mgrwt>
<rscale>  2 0.35422313E+02</rscale>
<asrwt>0</asrwt>
<pdfrwt beam="1">  1        2 0.14388228E+00 0.35422313E+02</pdfrwt>
<pdfrwt beam="2">  1       -2 0.18585818E-02 0.35422313E+02</pdfrwt>
<totfact> 0.20609030E+04</totfact>
</mgrwt>
</event>
<event>
 4    1  0.1352171E+004  0.2118560E+02  0.7546771E-02  0.1722730E+00
         -2   -1    0    0    0  501 -0.00000000000E+00  0.00000000000E+00  0.87336758978E+01  0.87336758978E+01  0.00000000000E+00 0.  1.
          2   -1    0    0  501    0  0.00000000000E+00 -0.00000000000E+00 -0.54356287892E+03  0.54356287892E+03  0.00000000000E+00 0. -1.
          2    1    1    2  502    0  0.17113931922E+02 -0.12487705693E+02 -0.53018472598E+03  0.53060783364E+03  0.00000000000E+00 0. -1.
         -2    1    1    2    0  502 -0.17113931922E+02  0.12487705693E+02 -0.46444770436E+01  0.21688721178E+02  0.00000000000E+00 0.  1.
<mgrwt>
<rscale>  2 0.21185596E+02</rscale>
<asrwt>0</asrwt>
<pdfrwt beam="2">  1        2 0.83625079E-01 0.21185596E+02</pdfrwt>
<pdfrwt beam="1">  1       -2 0.13436421E-02 0.21185596E+02</pdfrwt>
<totfact> 0.53980882E+04</totfact>
</mgrwt>
</event>
<event>
 4    1  0.1352171E+004  0.3306697E+02  0.7546771E-02  0.1566468E+00
          2   -1    0    0  501    0  0.00000000000E+00  0.00000000000E+00  0.13989593718E+03  0.13989593718E+03  0.00000000000E+00 0.  1.
         -2   -1    0    0    0  501 -0.00000000000E+00 -0.00000000000E+00 -0.28260752662E+03  0.28260752662E+03  0.00000000000E+00 0. -1.
          2    1    1    2  502    0  0.31571976416E+02 -0.98302887131E+01  0.13695419519E+03  0.14088958744E+03  0.00000000000E+00 0.  1.
         -2    1    1    2    0  502 -0.31571976416E+02  0.98302887131E+01 -0.27966578462E+03  0.28161387636E+03  0.00000000000E+00 0. -1.
<mgrwt>
<rscale>  2 0.33066966E+02</rscale>
<asrwt>0</asrwt>
<pdfrwt beam="1">  1        2 0.21522452E-01 0.33066966E+02</pdfrwt>
<pdfrwt beam="2">  1       -2 0.43478081E-01 0.33066966E+02</pdfrwt>
<totfact> 0.11798803E+03</totfact>
</mgrwt>
</event>
<event>
 4    1  0.1352171E+004  0.3546470E+02  0.7546771E-02  0.1544512E+00
          2   -1    0    0  501    0  0.00000000000E+00  0.00000000000E+00  0.11164152169E+03  0.11164152169E+03  0.00000000000E+00 0.  1.
         -2   -1    0    0    0  501 -0.00000000000E+00 -0.00000000000E+00 -0.17762156820E+03  0.17762156820E+03  0.00000000000E+00 0. -1.
          2    1    1    2  502    0 -0.30534599876E+02  0.18038377194E+02  0.10697964916E+03  0.11270488089E+03  0.00000000000E+00 0.  1.
         -2    1    1    2    0  502  0.30534599876E+02 -0.18038377194E+02 -0.17295969567E+03  0.17655820901E+03  0.00000000000E+00 0. -1.
<mgrwt>
<rscale>  2 0.35464699E+02</rscale>
<asrwt>0</asrwt>
<pdfrwt beam="1">  1        2 0.17175619E-01 0.35464699E+02</pdfrwt>
<pdfrwt beam="2">  1       -2 0.27326395E-01 0.35464699E+02</pdfrwt>
<totfact> 0.34700621E+03</totfact>
</mgrwt>
</event>
<event>
 4    1  0.1352171E+004  0.2683904E+02  0.7546771E-02  0.1635910E+00
          2   -1    0    0  501    0  0.00000000000E+00  0.00000000000E+00  0.68114438772E+03  0.68114438772E+03  0.00000000000E+00 0.  1.
         -2   -1    0    0    0  501 -0.00000000000E+00 -0.00000000000E+00 -0.33782288143E+01  0.33782288143E+01  0.00000000000E+00 0. -1.
          2    1    1    2  502    0 -0.81527964774E+00 -0.26826659368E+02  0.62255879287E+03  0.62313705147E+03  0.00000000000E+00 0.  1.
         -2    1    1    2    0  502  0.81527964774E+00  0.26826659368E+02  0.55207366034E+02  0.61385565064E+02  0.00000000000E+00 0. -1.
<mgrwt>
<rscale>  2 0.26839045E+02</rscale>
<asrwt>0</asrwt>
<pdfrwt beam="1">  1        2 0.10479134E+00 0.26839045E+02</pdfrwt>
<pdfrwt beam="2">  1       -2 0.51972805E-03 0.26839045E+02</pdfrwt>
<totfact> 0.16183642E+05</totfact>
</mgrwt>
</event>
<event>
 4    1  0.2481145E+004  0.2807749E+02  0.7546771E-02  0.1620366E+00
         -2   -1    0    0    0  501 -0.00000000000E+00  0.00000000000E+00  0.18783859753E+03  0.18783859753E+03  0.00000000000E+00 0. -1.
          2   -1    0    0  501    0  0.00000000000E+00 -0.00000000000E+00 -0.14277532823E+04  0.14277532823E+04  0.00000000000E+00 0. -1.
          2    1    1    2  502    0 -0.26165458317E+02  0.10184017120E+02 -0.14265651366E+04  0.14268414187E+04  0.00000000000E+00 0. -1.
         -2    1    1    2    0  502  0.26165458317E+02 -0.10184017120E+02  0.18665045178E+03  0.18875046109E+03  0.00000000000E+00 0. -1.
<mgrwt>
<rscale>  2 0.28077489E+02</rscale>
<asrwt>0</asrwt>
<pdfrwt beam="2">  1        2 0.21965435E+00 0.28077489E+02</pdfrwt>
<pdfrwt beam="1">  1       -2 0.28898246E-01 0.28077489E+02</pdfrwt>
<totfact> 0.18589532E+02</totfact>
</mgrwt>
</event>
<event>
 4    1  0.1352171E+004  0.2612560E+02  0.7546771E-02  0.1645342E+00
         -2   -1    0    0    0  501 -0.00000000000E+00  0.00000000000E+00  0.36031355734E+00  0.36031355734E+00  0.00000000000E+00 0.  1.
          2   -1    0    0  501    0  0.00000000000E+00 -0.00000000000E+00 -0.18976767267E+04  0.18976767267E+04  0.00000000000E+00 0. -1.
          2    1    1    2  502    0 -0.24861329134E+02  0.80287881229E+01 -0.98860572638E+03  0.98895087308E+03  0.00000000000E+00 0. -1.
         -2    1    1    2    0  502  0.24861329134E+02 -0.80287881229E+01 -0.90871068673E+03  0.90908616715E+03  0.00000000000E+00 0.  1.
<mgrwt>
<rscale>  2 0.26125603E+02</rscale>
<asrwt>0</asrwt>
<pdfrwt beam="2">  1        2 0.29194770E+00 0.26125603E+02</pdfrwt>
<pdfrwt beam="1">  1       -2 0.55433342E-04 0.26125603E+02</pdfrwt>
<totfact> 0.73757966E+05</totfact>
</mgrwt>
</event>
<event>
 4    1  0.1352171E+004  0.2662833E+02  0.7546771E-02  0.1638658E+00
         -2   -1    0    0    0  501 -0.00000000000E+00  0.00000000000E+00  0.90062965451E+01  0.90062965451E+01  0.00000000000E+00 0. -1.
          2   -1    0    0  501    0  0.00000000000E+00 -0.00000000000E+00 -0.87283287808E+03  0.87283287808E+03  0.00000000000E+00 0.  1.
          2    1    1    2  502    0  0.10685718253E+02  0.24390233170E+02 -0.85247735243E+03  0.85289313777E+03  0.00000000000E+00 0.  1.
         -2    1    1    2    0  502 -0.10685718253E+02 -0.24390233170E+02 -0.11349229114E+02  0.28946036864E+02  0.00000000000E+00 0. -1.
<mgrwt>
<rscale>  2 0.26628332E+02</rscale>
<asrwt>0</asrwt>
<pdfrwt beam="2">  1        2 0.13428198E+00 0.26628332E+02</pdfrwt>
<pdfrwt beam="1">  1       -2 0.13855841E-02 0.26628332E+02</pdfrwt>
<totfact> 0.32260468E+04</totfact>
</mgrwt>
</event>
<event>
 4    1  0.1352171E+004  0.3838513E+02  0.7546771E-02  0.1520443E+00
          2   -1    0    0  501    0  0.00000000000E+00  0.00000000000E+00  0.29714668961E+03  0.29714668961E+03  0.00000000000E+00 0. -1.
         -2   -1    0    0    0  501 -0.00000000000E+00 -0.00000000000E+00 -0.56805339165E+01  0.56805339165E+01  0.00000000000E+00 0. -1.
          2    1    1    2  502    0  0.17164484524E+02 -0.34333641010E+02  0.19971301379E+03  0.20336840047E+03  0.00000000000E+00 0. -1.
         -2    1    1    2    0  502 -0.17164484524E+02  0.34333641010E+02  0.91753141904E+02  0.99458823053E+02  0.00000000000E+00 0. -1.
<mgrwt>
<rscale>  2 0.38385133E+02</rscale>
<asrwt>0</asrwt>
<pdfrwt beam="1">  1        2 0.45714863E-01 0.38385133E+02</pdfrwt>
<pdfrwt beam="2">  1       -2 0.87392853E-03 0.38385133E+02</pdfrwt>
<totfact> 0.20264021E+05</totfact>
</mgrwt>
</event>
<event>
 4    1  0.1352171E+004  0.2735270E+02  0.7546771E-02  0.1629341E+00
         -2   -1    0    0    0  501 -0.00000000000E+00  0.00000000000E+00  0.78235665905E+00  0.78235665905E+00  0.00000000000E+00 0.  1.
          2   -1    0    0  501    0  0.00000000000E+00 -0.00000000000E+00 -0.15125470289E+04  0.15125470289E+04  0.00000000000E+00 0. -1.
          2    1    1    2  502    0 -0.26778632265E+02 -0.55745193682E+01 -0.12147437210E+04  0.12150516360E+04  0.00000000000E+00 0. -1.
         -2    1    1    2    0  502  0.26778632265E+02  0.55745193682E+01 -0.29702095126E+03  0.29827774959E+03  0.00000000000E+00 0.  1.
<mgrwt>
<rscale>  2 0.27352704E+02</rscale>
<asrwt>0</asrwt>
<pdfrwt beam="2">  1        2 0.23270152E+00 0.27352704E+02</pdfrwt>
<pdfrwt beam="1">  1       -2 0.12036154E-03 0.27352704E+02</pdfrwt>
<totfact> 0.40595545E+05</totfact>
</mgrwt>
</event>
<event>
 4    1  0.1352171E+004  0.4511647E+02  0.7546771E-02  0.1473616E+00
          2   -1    0    0  501    0  0.00000000000E+00  0.00000000000E+00  0.22690753696E+04  0.22690753696E+04  0.00000000000E+00 0. -1.
         -2   -1    0    0    0  501 -0.00000000000E+00 -0.00000000000E+00 -0.97786070362E+00  0.97786070362E+00  0.00000000000E+00 0. -1.
          2    1    1    2  502    0  0.44659947677E+02  0.64019525147E+01  0.14603179717E+04  0.14610147413E+04  0.00000000000E+00 0. -1.
         -2    1    1    2    0  502 -0.44659947677E+02 -0.64019525147E+01  0.80777953720E+03  0.80903848897E+03  0.00000000000E+00 0. -1.
<mgrwt>
<rscale>  2 0.45116471E+02</rscale>
<asrwt>0</asrwt>
<pdfrwt beam="1">  1        2 0.34908430E+00 0.45116471E+02</pdfrwt>
<pdfrwt beam="2">  1       -2 0.15044192E-03 0.45116471E+02</pdfrwt>
<totfact> 0.14329218E+05</totfact>
</mgrwt>
</event>
<event>
 4    1  0.1352171E+004  0.2288453E+02  0.7546771E-02  0.1693389E+00
          2   -1    0    0  501    0  0.00000000000E+00  0.00000000000E+00  0.16725507869E+04  0.16725507869E+04  0.00000000000E+00 0.  1.
         -2   -1    0    0    0  501 -0.00000000000E+00 -0.00000000000E+00 -0.88693808309E+00  0.88693808309E+00  0.00000000000E+00 0.  1.
          2    1    1    2  502    0 -0.21173079312E+02  0.86834519594E+01  0.15088422307E+04  0.15090157649E+04  0.00000000000E+00 0.  1.
         -2    1    1    2    0  502  0.21173079312E+02 -0.86834519594E+01  0.16282161807E+03  0.16442196002E+03  0.00000000000E+00 0.  1.
<mgrwt>
<rscale>  2 0.22884528E+02</rscale>
<asrwt>0</asrwt>
<pdfrwt beam="1">  1        2 0.25731298E+00 0.22884528E+02</pdfrwt>
<pdfrwt beam="2">  1       -2 0.13645335E-03 0.22884528E+02</pdfrwt>
<totfact> 0.27747764E+05</totfact>
</mgrwt>
</event>
<event>
 4    1  0.1352171E+004  0.2789108E+02  0.7546771E-02  0.1622642E+00
         -2   -1    0    0    0  501 -0.00000000000E+00  0.00000000000E+00  0.77448945687E+01  0.77448945687E+01  0.00000000000E+00 0.  1.
          2   -1    0    0  501    0  0.00000000000E+00 -0.00000000000E+00 -0.17993764958E+04  0.17993764958E+04  0.00000000000E+00 0.  1.
          2    1    1    2  502    0  0.18591149568E+02  0.20791382609E+02 -0.17737958167E+04  0.17740150822E+04  0.00000000000E+00 0.  1.
         -2    1    1    2    0  502 -0.18591149568E+02 -0.20791382609E+02 -0.17835784549E+02  0.33106308214E+02  0.00000000000E+00 0.  1.
<mgrwt>
<rscale>  2 0.27891082E+02</rscale>
<asrwt>0</asrwt>
<pdfrwt beam="2">  1        2 0.27682742E+00 0.27891082E+02</pdfrwt>
<pdfrwt beam="1">  1       -2 0.11915211E-02 0.27891082E+02</pdfrwt>
<totfact> 0.13660350E+04</totfact>
</mgrwt>
</event>
<event>
 4    1  0.1352171E+004  0.2147926E+02  0.7546771E-02  0.1717417E+00
          2   -1    0    0  501    0  0.00000000000E+00  0.00000000000E+00  0.11384795497E+04  0.11384795497E+04  0.00000000000E+00 0.  1.
         -2   -1    0    0    0  501 -0.00000000000E+00 -0.00000000000E+00 -0.57859961965E+00  0.57859961965E+00  0.00000000000E+00 0.  1.
          2    1    1    2  502    0  0.21104469144E+02 -0.39949986582E+01  0.88069547967E+03  0.88095736931E+03  0.00000000000E+00 0.  1.
         -2    1    1    2    0  502 -0.21104469144E+02  0.39949986582E+01  0.25720547044E+03  0.25810078003E+03  0.00000000000E+00 0.  1.
<mgrwt>
<rscale>  2 0.21479261E+02</rscale>
<asrwt>0</asrwt>
<pdfrwt beam="1">  1        2 0.17514891E+00 0.21479261E+02</pdfrwt>
<pdfrwt beam="2">  1       -2 0.89016237E-04 0.21479261E+02</pdfrwt>
<totfact> 0.86375358E+05</totfact>
</mgrwt>
</event>
<event>
 4    1  0.1352171E+004  0.2279116E+02  0.7546771E-02  0.1694918E+00
         -2   -1    0    0    0  501 -0.00000000000E+00  0.00000000000E+00  0.56217237593E+02  0.56217237593E+02  0.00000000000E+00 0. -1.
          2   -1    0    0  501    0  0.00000000000E+00 -0.00000000000E+00 -0.83974685497E+02  0.83974685497E+02  0.00000000000E+00 0.  1.
          2    1    1    2  502    0 -0.15091528856E+02  0.17078725476E+02 -0.80005969909E+02  0.83188895462E+02  0.00000000000E+00 0.  1.
         -2    1    1    2    0  502  0.15091528856E+02 -0.17078725476E+02  0.52248522005E+02  0.57003027628E+02  0.00000000000E+00 0. -1.
<mgrwt>
<rscale>  2 0.22791163E+02</rscale>
<asrwt>0</asrwt>
<pdfrwt beam="2">  1        2 0.12919182E-01 0.22791163E+02</pdfrwt>
<pdfrwt beam="1">  1       -2 0.86488058E-02 0.22791163E+02</pdfrwt>
<totfact> 0.27319034E+04</totfact>
</mgrwt>
</event>
<event>
 4    1  0.1352171E+004  0.3254243E+02  0.7546771E-02  0.1571574E+00
          2   -1    0    0  501    0  0.00000000000E+00  0.00000000000E+00  0.97747684452E+03  0.97747684452E+03  0.00000000000E+00 0.  1.
         -2   -1    0    0    0  501 -0.00000000000E+00 -0.00000000000E+00 -0.70114035180E+01  0.70114035180E+01  0.00000000000E+00 0. -1.
          2    1    1    2  502    0 -0.71440884563E+01  0.31748567458E+02  0.93785077032E+03  0.93841519432E+03  0.00000000000E+00 0.  1.
         -2    1    1    2    0  502  0.71440884563E+01 -0.31748567458E+02  0.32614670684E+02  0.46073053723E+02  0.00000000000E+00 0. -1.
<mgrwt>
<rscale>  2 0.32542427E+02</rscale>
<asrwt>0</asrwt>
<pdfrwt beam="1">  1        2 0.15038095E+00 0.32542427E+02</pdfrwt>
<pdfrwt beam="2">  1       -2 0.10786782E-02 0.32542427E+02</pdfrwt>
<totfact> 0.40858653E+04</totfact>
</mgrwt>
</event>
<event>
 4    1  0.1352171E+004  0.2550360E+02  0.7546771E-02  0.1653872E+00
         -2   -1    0    0    0  501 -0.00000000000E+00  0.00000000000E+00  0.14292151174E+01  0.14292151174E+01  0.00000000000E+00 0.  1.
          2   -1    0    0  501    0  0.00000000000E+00 -0.00000000000E+00 -0.65631795671E+03  0.65631795671E+03  0.00000000000E+00 0.  1.
          2    1    1    2  502    0  0.30871064308E+00 -0.25501731508E+02 -0.50954308096E+03  0.51018093356E+03  0.00000000000E+00 0.  1.
         -2    1    1    2    0  502 -0.30871064308E+00  0.25501731508E+02 -0.14534566063E+03  0.14756623827E+03  0.00000000000E+00 0.  1.
<mgrwt>
<rscale>  2 0.25503600E+02</rscale>
<asrwt>0</asrwt>
<pdfrwt beam="2">  1        2 0.10097225E+00 0.25503600E+02</pdfrwt>
<pdfrwt beam="1">  1       -2 0.21987868E-03 0.25503600E+02</pdfrwt>
<totfact> 0.52656228E+05</totfact>
</mgrwt>
</event>
<event>
 4    1  0.1352171E+004  0.2230491E+02  0.7546771E-02  0.1703031E+00
         -2   -1    0    0    0  501 -0.00000000000E+00  0.00000000000E+00  0.52752161010E+02  0.52752161010E+02  0.00000000000E+00 0. -1.
          2   -1    0    0  501    0  0.00000000000E+00 -0.00000000000E+00 -0.16481987974E+02  0.16481987974E+02  0.00000000000E+00 0. -1.
          2    1    1    2  502    0 -0.83405443653E+01  0.20686815057E+02 -0.45065903197E+01  0.22755622466E+02  0.00000000000E+00 0. -1.
         -2    1    1    2    0  502  0.83405443653E+01 -0.20686815057E+02  0.40776763356E+02  0.46478526518E+02  0.00000000000E+00 0. -1.
<mgrwt>
<rscale>  2 0.22304910E+02</rscale>
<asrwt>0</asrwt>
<pdfrwt beam="2">  1        2 0.25356905E-02 0.22304910E+02</pdfrwt>
<pdfrwt beam="1">  1       -2 0.81157170E-02 0.22304910E+02</pdfrwt>
<totfact> 0.21191382E+05</totfact>
</mgrwt>
</event>
<event>
 4    1  0.1352171E+004  0.2213818E+02  0.7546771E-02  0.1705873E+00
          2   -1    0    0  501    0  0.00000000000E+00  0.00000000000E+00  0.30539764779E+03  0.30539764779E+03  0.00000000000E+00 0. -1.
         -2   -1    0    0    0  501 -0.00000000000E+00 -0.00000000000E+00 -0.87750870935E+01  0.87750870935E+01  0.00000000000E+00 0. -1.
          2    1    1    2  502    0  0.10517171994E+02  0.19480458621E+02  0.29030899217E+03  0.29115186777E+03  0.00000000000E+00 0. -1.
         -2    1    1    2    0  502 -0.10517171994E+02 -0.19480458621E+02  0.63135685265E+01  0.23020867107E+02  0.00000000000E+00 0. -1.
<mgrwt>
<rscale>  2 0.22138184E+02</rscale>
<asrwt>0</asrwt>
<pdfrwt beam="1">  1        2 0.46984245E-01 0.22138184E+02</pdfrwt>
<pdfrwt beam="2">  1       -2 0.13500136E-02 0.22138184E+02</pdfrwt>
<totfact> 0.95930969E+04</totfact>
</mgrwt>
</event>
<event>
 4    1  0.1352171E+004  0.2560680E+02  0.7546771E-02  0.1652436E+00
         -2   -1    0    0    0  501 -0.00000000000E+00  0.00000000000E+00  0.22496761440E+01  0.22496761440E+01  0.00000000000E+00 0.  1.
          2   -1    0    0  501    0  0.00000000000E+00 -0.00000000000E+00 -0.10816012168E+04  0.10816012168E+04  0.00000000000E+00 0.  1.
          2    1    1    2  502    0  0.16562340777E+02 -0.19529386152E+02 -0.10028625846E+04  0.10031894495E+04  0.00000000000E+00 0.  1.
         -2    1    1    2    0  502 -0.16562340777E+02  0.19529386152E+02 -0.76488956080E+02  0.80661443439E+02  0.00000000000E+00 0.  1.
<mgrwt>
<rscale>  2 0.25606797E+02</rscale>
<asrwt>0</asrwt>
<pdfrwt beam="2">  1        2 0.16640013E+00 0.25606797E+02</pdfrwt>
<pdfrwt beam="1">  1       -2 0.34610414E-03 0.25606797E+02</pdfrwt>
<totfact> 0.16008768E+05</totfact>
</mgrwt>
</event>
<event>
 4    1  0.1352171E+004  0.2544074E+02  0.7546771E-02  0.1654751E+00
         -2   -1    0    0    0  501 -0.00000000000E+00  0.00000000000E+00  0.15609010171E+02  0.15609010171E+02  0.00000000000E+00 0. -1.
          2   -1    0    0  501    0  0.00000000000E+00 -0.00000000000E+00 -0.41654502790E+02  0.41654502790E+02  0.00000000000E+00 0. -1.
          2    1    1    2  502    0 -0.16233038637E+02 -0.19588769932E+02 -0.14952680212E+02  0.29509559406E+02  0.00000000000E+00 0. -1.
         -2    1    1    2    0  502  0.16233038637E+02  0.19588769932E+02 -0.11092812407E+02  0.27753953555E+02  0.00000000000E+00 0. -1.
<mgrwt>
<rscale>  2 0.25440744E+02</rscale>
<asrwt>0</asrwt>
<pdfrwt beam="2">  1        2 0.64083851E-02 0.25440744E+02</pdfrwt>
<pdfrwt beam="1">  1       -2 0.24013862E-02 0.25440744E+02</pdfrwt>
<totfact> 0.39143721E+05</totfact>
</mgrwt>
</event>
<event>
 4    1  0.1352171E+004  0.3108050E+02  0.7546771E-02  0.1586443E+00
          2   -1    0    0  501    0  0.00000000000E+00  0.00000000000E+00  0.10498592149E+03  0.10498592149E+03  0.00000000000E+00 0. -1.
         -2   -1    0    0    0  501 -0.00000000000E+00 -0.00000000000E+00 -0.29520108385E+02  0.29520108385E+02  0.00000000000E+00 0.  1.
          2    1    1    2  502    0 -0.24264767773E+02 -0.19422109076E+02  0.93528883691E+02  0.98557847788E+02  0.00000000000E+00 0. -1.
         -2    1    1    2    0  502  0.24264767773E+02  0.19422109076E+02 -0.18063070589E+02  0.35948182084E+02  0.00000000000E+00 0.  1.
<mgrwt>
<rscale>  2 0.31080497E+02</rscale>
<asrwt>0</asrwt>
<pdfrwt beam="1">  1        2 0.16151680E-01 0.31080497E+02</pdfrwt>
<pdfrwt beam="2">  1       -2 0.45415552E-02 0.31080497E+02</pdfrwt>
<totfact> 0.57639102E+04</totfact>
</mgrwt>
</event>
<event>
 4    1  0.1352171E+004  0.2853566E+02  0.7546771E-02  0.1614863E+00
         -2   -1    0    0    0  501 -0.00000000000E+00  0.00000000000E+00  0.50839696647E+02  0.50839696647E+02  0.00000000000E+00 0.  1.
          2   -1    0    0  501    0  0.00000000000E+00 -0.00000000000E+00 -0.97365311348E+02  0.97365311348E+02  0.00000000000E+00 0.  1.
          2    1    1    2  502    0 -0.19219887707E+02 -0.21092174815E+02 -0.90996669549E+02  0.95366020106E+02  0.00000000000E+00 0.  1.
         -2    1    1    2    0  502  0.19219887707E+02  0.21092174815E+02  0.44471054847E+02  0.52838987889E+02  0.00000000000E+00 0.  1.
<mgrwt>
<rscale>  2 0.28535661E+02</rscale>
<asrwt>0</asrwt>
<pdfrwt beam="2">  1        2 0.14979279E-01 0.28535661E+02</pdfrwt>
<pdfrwt beam="1">  1       -2 0.78214918E-02 0.28535661E+02</pdfrwt>
<totfact> 0.28036360E+04</totfact>
</mgrwt>
</event>
<event>
 4    1  0.1352171E+004  0.2063997E+02  0.7546771E-02  0.1732893E+00
         -2   -1    0    0    0  501 -0.00000000000E+00  0.00000000000E+00  0.40659886174E+03  0.40659886174E+03  0.00000000000E+00 0.  1.
          2   -1    0    0  501    0  0.00000000000E+00 -0.00000000000E+00 -0.37283663242E+01  0.37283663242E+01  0.00000000000E+00 0. -1.
          2    1    1    2  502    0  0.20356836049E+02 -0.34069953481E+01  0.27471205495E+02  0.34360959279E+02  0.00000000000E+00 0. -1.
         -2    1    1    2    0  502 -0.20356836049E+02  0.34069953481E+01  0.37539928992E+03  0.37596626879E+03  0.00000000000E+00 0.  1.
<mgrwt>
<rscale>  2 0.20639971E+02</rscale>
<asrwt>0</asrwt>
<pdfrwt beam="2">  1        2 0.57359514E-03 0.20639971E+02</pdfrwt>
<pdfrwt beam="1">  1       -2 0.62553636E-01 0.20639971E+02</pdfrwt>
<totfact> 0.47063506E+04</totfact>
</mgrwt>
</event>
<event>
 4    1  0.1352171E+004  0.2245960E+02  0.7546771E-02  0.1700423E+00
          2   -1    0    0  501    0  0.00000000000E+00  0.00000000000E+00  0.14249606373E+02  0.14249606373E+02  0.00000000000E+00 0.  1.
         -2   -1    0    0    0  501 -0.00000000000E+00 -0.00000000000E+00 -0.41414097665E+02  0.41414097665E+02  0.00000000000E+00 0.  1.
          2    1    1    2  502    0  0.11049693082E+02  0.19553465011E+02 -0.29760603791E+01  0.22655918576E+02  0.00000000000E+00 0.  1.
         -2    1    1    2    0  502 -0.11049693082E+02 -0.19553465011E+02 -0.24188430912E+02  0.33007785462E+02  0.00000000000E+00 0.  1.
<mgrwt>
<rscale>  2 0.22459602E+02</rscale>
<asrwt>0</asrwt>
<pdfrwt beam="1">  1        2 0.21922472E-02 0.22459602E+02</pdfrwt>
<pdfrwt beam="2">  1       -2 0.63713995E-02 0.22459602E+02</pdfrwt>
<totfact> 0.36297807E+05</totfact>
</mgrwt>
</event>
<event>
 4    1  0.1352171E+004  0.2147468E+02  0.7546771E-02  0.1717499E+00
         -2   -1    0    0    0  501 -0.00000000000E+00  0.00000000000E+00  0.23519112900E+02  0.23519112900E+02  0.00000000000E+00 0.  1.
          2   -1    0    0  501    0  0.00000000000E+00 -0.00000000000E+00 -0.21608588334E+02  0.21608588334E+02  0.00000000000E+00 0. -1.
          2    1    1    2  502    0 -0.96425227264E+01 -0.19188115511E+02 -0.59103981365E+01  0.22273186291E+02  0.00000000000E+00 0. -1.
         -2    1    1    2    0  502  0.96425227264E+01  0.19188115511E+02  0.78209227026E+01  0.22854514944E+02  0.00000000000E+00 0.  1.
<mgrwt>
<rscale>  2 0.21474683E+02</rscale>
<asrwt>0</asrwt>
<pdfrwt beam="2">  1        2 0.33243982E-02 0.21474683E+02</pdfrwt>
<pdfrwt beam="1">  1       -2 0.36183251E-02 0.21474683E+02</pdfrwt>
<totfact> 0.47109935E+05</totfact>
</mgrwt>
</event>
<event>
 4    1  0.1352171E+004  0.3568454E+02  0.7546771E-02  0.1542604E+00
         -2   -1    0    0    0  501 -0.00000000000E+00  0.00000000000E+00  0.24327404655E+03  0.24327404655E+03  0.00000000000E+00 0. -1.
          2   -1    0    0  501    0  0.00000000000E+00 -0.00000000000E+00 -0.70856433530E+01  0.70856433530E+01  0.00000000000E+00 0.  1.
          2    1    1    2  502    0  0.33399786137E+02  0.12563473880E+02  0.54108942292E+02  0.64816388560E+02  0.00000000000E+00 0.  1.
         -2    1    1    2    0  502 -0.33399786137E+02 -0.12563473880E+02  0.18207946090E+03  0.18554330134E+03  0.00000000000E+00 0. -1.
<mgrwt>
<rscale>  2 0.35684543E+02</rscale>
<asrwt>0</asrwt>
<pdfrwt beam="2">  1        2 0.10900992E-02 0.35684543E+02</pdfrwt>
<pdfrwt beam="1">  1       -2 0.37426770E-01 0.35684543E+02</pdfrwt>
<totfact> 0.61312118E+04</totfact>
</mgrwt>
</event>
<event>
 4    1  0.1352171E+004  0.2283905E+02  0.7546771E-02  0.1694132E+00
          2   -1    0    0  501    0  0.00000000000E+00  0.00000000000E+00  0.52030566935E+01  0.52030566935E+01  0.00000000000E+00 0. -1.
         -2   -1    0    0    0  501 -0.00000000000E+00 -0.00000000000E+00 -0.13985208395E+03  0.13985208395E+03  0.00000000000E+00 0. -1.
          2    1    1    2  502    0  0.16561694165E+02 -0.15726813531E+02 -0.28731306116E+02  0.36703001629E+02  0.00000000000E+00 0. -1.
         -2    1    1    2    0  502 -0.16561694165E+02  0.15726813531E+02 -0.10591772114E+03  0.10835213902E+03  0.00000000000E+00 0. -1.
<mgrwt>
<rscale>  2 0.22839054E+02</rscale>
<asrwt>0</asrwt>
<pdfrwt beam="1">  1        2 0.80047020E-03 0.22839054E+02</pdfrwt>
<pdfrwt beam="2">  1       -2 0.21515707E-01 0.22839054E+02</pdfrwt>
<totfact> 0.21166760E+05</totfact>
</mgrwt>
</event>
<event>
 4    1  0.1352171E+004  0.2469903E+02  0.7546771E-02  0.1665363E+00
          2   -1    0    0  501    0  0.00000000000E+00  0.00000000000E+00  0.24206117368E+03  0.24206117368E+03  0.00000000000E+00 0.  1.
         -2   -1    0    0    0  501 -0.00000000000E+00 -0.00000000000E+00 -0.21209403548E+02  0.21209403548E+02  0.00000000000E+00 0. -1.
          2    1    1    2  502    0  0.61241980282E+01 -0.23927728511E+02  0.23399317645E+03  0.23529311213E+03  0.00000000000E+00 0.  1.
         -2    1    1    2    0  502 -0.61241980282E+01  0.23927728511E+02 -0.13141406316E+02  0.27977465095E+02  0.00000000000E+00 0. -1.
<mgrwt>
<rscale>  2 0.24699028E+02</rscale>
<asrwt>0</asrwt>
<pdfrwt beam="1">  1        2 0.37240179E-01 0.24699028E+02</pdfrwt>
<pdfrwt beam="2">  1       -2 0.32629853E-02 0.24699028E+02</pdfrwt>
<totfact> 0.36711160E+04</totfact>
</mgrwt>
</event>
<event>
 4    1  0.1352171E+004  0.2252199E+02  0.7546771E-02  0.1699378E+00
         -2   -1    0    0    0  501 -0.00000000000E+00  0.00000000000E+00  0.15728287225E+01  0.15728287225E+01  0.00000000000E+00 0. -1.
          2   -1    0    0  501    0  0.00000000000E+00 -0.00000000000E+00 -0.14431702265E+04  0.14431702265E+04  0.00000000000E+00 0.  1.
          2    1    1    2  502    0 -0.20834079738E+01 -0.22425423598E+02 -0.13573602352E+04  0.13575470704E+04  0.00000000000E+00 0.  1.
         -2    1    1    2    0  502  0.20834079738E+01  0.22425423598E+02 -0.84237162560E+02  0.87195984819E+02  0.00000000000E+00 0. -1.
<mgrwt>
<rscale>  2 0.22521994E+02</rscale>
<asrwt>0</asrwt>
<pdfrwt beam="2">  1        2 0.22202598E+00 0.22521994E+02</pdfrwt>
<pdfrwt beam="1">  1       -2 0.24197387E-03 0.22521994E+02</pdfrwt>
<totfact> 0.16598955E+05</totfact>
</mgrwt>
</event>
<event>
 4    1  0.1352171E+004  0.2338668E+02  0.7546771E-02  0.1685318E+00
          2   -1    0    0  501    0  0.00000000000E+00  0.00000000000E+00  0.20711012066E+03  0.20711012066E+03  0.00000000000E+00 0. -1.
         -2   -1    0    0    0  501 -0.00000000000E+00 -0.00000000000E+00 -0.19842882106E+02  0.19842882106E+02  0.00000000000E+00 0. -1.
          2    1    1    2  502    0 -0.23167559882E+02 -0.31938753916E+01  0.19928959218E+03  0.20065711605E+03  0.00000000000E+00 0. -1.
         -2    1    1    2    0  502  0.23167559882E+02  0.31938753916E+01 -0.12022353632E+02  0.26295886708E+02  0.00000000000E+00 0. -1.
<mgrwt>
<rscale>  2 0.23386677E+02</rscale>
<asrwt>0</asrwt>
<pdfrwt beam="1">  1        2 0.31863094E-01 0.23386677E+02</pdfrwt>
<pdfrwt beam="2">  1       -2 0.30527512E-02 0.23386677E+02</pdfrwt>
<totfact> 0.46586056E+04</totfact>
</mgrwt>
</event>
<event>
 4    1  0.1352171E+004  0.2303451E+02  0.7546771E-02  0.1690951E+00
          2   -1    0    0  501    0  0.00000000000E+00  0.00000000000E+00  0.94621333158E+03  0.94621333158E+03  0.00000000000E+00 0.  1.
         -2   -1    0    0    0  501 -0.00000000000E+00 -0.00000000000E+00 -0.26137086707E+01  0.26137086707E+01  0.00000000000E+00 0. -1.
          2    1    1    2  502    0 -0.22938480131E+02  0.21011499388E+01  0.89225393742E+03  0.89255121845E+03  0.00000000000E+00 0.  1.
         -2    1    1    2    0  502  0.22938480131E+02 -0.21011499388E+01  0.51345685484E+02  0.56275821803E+02  0.00000000000E+00 0. -1.
<mgrwt>
<rscale>  2 0.23034511E+02</rscale>
<asrwt>0</asrwt>
<pdfrwt beam="1">  1        2 0.14557101E+00 0.23034511E+02</pdfrwt>
<pdfrwt beam="2">  1       -2 0.40210978E-03 0.23034511E+02</pdfrwt>
<totfact> 0.15143088E+05</totfact>
</mgrwt>
</event>
<event>
 4    1  0.1352171E+004  0.2317372E+02  0.7546771E-02  0.1688710E+00
          2   -1    0    0  501    0  0.00000000000E+00  0.00000000000E+00  0.87727418938E+03  0.87727418938E+03  0.00000000000E+00 0.  1.
         -2   -1    0    0    0  501 -0.00000000000E+00 -0.00000000000E+00 -0.66518304915E+00  0.66518304915E+00  0.00000000000E+00 0.  1.
          2    1    1    2  502    0  0.22777809561E+02  0.42652635617E+01  0.56225493371E+03  0.56273229120E+03  0.00000000000E+00 0.  1.
         -2    1    1    2    0  502 -0.22777809561E+02 -0.42652635617E+01  0.31435407263E+03  0.31520708123E+03  0.00000000000E+00 0.  1.
<mgrwt>
<rscale>  2 0.23173715E+02</rscale>
<asrwt>0</asrwt>
<pdfrwt beam="1">  1        2 0.13496433E+00 0.23173715E+02</pdfrwt>
<pdfrwt beam="2">  1       -2 0.10233656E-03 0.23173715E+02</pdfrwt>
<totfact> 0.10187621E+06</totfact>
</mgrwt>
</event>
<event>
 4    1  0.1352171E+004  0.2321649E+02  0.7546771E-02  0.1688025E+00
          2   -1    0    0  501    0  0.00000000000E+00  0.00000000000E+00  0.37965172805E+03  0.37965172805E+03  0.00000000000E+00 0.  1.
         -2   -1    0    0    0  501 -0.00000000000E+00 -0.00000000000E+00 -0.14967949496E+01  0.14967949496E+01  0.00000000000E+00 0. -1.
          2    1    1    2  502    0  0.21836024085E+02  0.78862762987E+01  0.23231830133E+03  0.23347547716E+03  0.00000000000E+00 0.  1.
         -2    1    1    2    0  502 -0.21836024085E+02 -0.78862762987E+01  0.14583663176E+03  0.14767304583E+03  0.00000000000E+00 0. -1.
<mgrwt>
<rscale>  2 0.23216488E+02</rscale>
<asrwt>0</asrwt>
<pdfrwt beam="1">  1        2 0.58407881E-01 0.23216488E+02</pdfrwt>
<pdfrwt beam="2">  1       -2 0.23027645E-03 0.23216488E+02</pdfrwt>
<totfact> 0.84093105E+05</totfact>
</mgrwt>
</event>
<event>
 4    1  0.1352171E+004  0.2187620E+02  0.7546771E-02  0.1710402E+00
         -2   -1    0    0    0  501 -0.00000000000E+00  0.00000000000E+00  0.79301726588E+00  0.79301726588E+00  0.00000000000E+00 0. -1.
          2   -1    0    0  501    0  0.00000000000E+00 -0.00000000000E+00 -0.85142865152E+03  0.85142865152E+03  0.00000000000E+00 0.  1.
          2    1    1    2  502    0 -0.20660574752E+02  0.71908950588E+01 -0.65526666720E+03  0.65563173616E+03  0.00000000000E+00 0.  1.
         -2    1    1    2    0  502  0.20660574752E+02 -0.71908950588E+01 -0.19536896706E+03  0.19658993263E+03  0.00000000000E+00 0. -1.
<mgrwt>
<rscale>  2 0.21876204E+02</rscale>
<asrwt>0</asrwt>
<pdfrwt beam="2">  1        2 0.13098847E+00 0.21876204E+02</pdfrwt>
<pdfrwt beam="1">  1       -2 0.12200317E-03 0.21876204E+02</pdfrwt>
<totfact> 0.82245725E+05</totfact>
</mgrwt>
</event>
<event>
 4    1  0.1352171E+004  0.5210926E+02  0.7546771E-02  0.1434286E+00
          2   -1    0    0  501    0  0.00000000000E+00  0.00000000000E+00  0.85595553837E+03  0.85595553837E+03  0.00000000000E+00 0. -1.
         -2   -1    0    0    0  501 -0.00000000000E+00 -0.00000000000E+00 -0.17876715711E+02  0.17876715711E+02  0.00000000000E+00 0.  1.
          2    1    1    2  502    0 -0.37697497638E+02  0.35976017417E+02  0.81529702677E+03  0.81696059698E+03  0.00000000000E+00 0. -1.
         -2    1    1    2    0  502  0.37697497638E+02 -0.35976017417E+02  0.22781795885E+02  0.56871657098E+02  0.00000000000E+00 0.  1.
<mgrwt>
<rscale>  2 0.52109262E+02</rscale>
<asrwt>0</asrwt>
<pdfrwt beam="1">  1        2 0.13168544E+00 0.52109262E+02</pdfrwt>
<pdfrwt beam="2">  1       -2 0.27502646E-02 0.52109262E+02</pdfrwt>
<totfact> 0.13816494E+04</totfact>
</mgrwt>
</event>
<event>
 4    1  0.1352171E+004  0.2066895E+02  0.7546771E-02  0.1732343E+00
          2   -1    0    0  501    0  0.00000000000E+00  0.00000000000E+00  0.61386772287E+03  0.61386772287E+03  0.00000000000E+00 0. -1.
         -2   -1    0    0    0  501 -0.00000000000E+00 -0.00000000000E+00 -0.12141256334E+01  0.12141256334E+01  0.00000000000E+00 0. -1.
          2    1    1    2  502    0  0.19307203359E+02 -0.73781686898E+01  0.50724549778E+03  0.50766642640E+03  0.00000000000E+00 0. -1.
         -2    1    1    2    0  502 -0.19307203359E+02  0.73781686898E+01  0.10540809945E+03  0.10741542210E+03  0.00000000000E+00 0. -1.
<mgrwt>
<rscale>  2 0.20668950E+02</rscale>
<asrwt>0</asrwt>
<pdfrwt beam="1">  1        2 0.94440940E-01 0.20668950E+02</pdfrwt>
<pdfrwt beam="2">  1       -2 0.18678905E-03 0.20668950E+02</pdfrwt>
<totfact> 0.65939944E+05</totfact>
</mgrwt>
</event>
<event>
 4    1  0.1352171E+004  0.2178039E+02  0.7546771E-02  0.1712078E+00
          2   -1    0    0  501    0  0.00000000000E+00  0.00000000000E+00  0.38504415515E+01  0.38504415515E+01  0.00000000000E+00 0. -1.
         -2   -1    0    0    0  501 -0.00000000000E+00 -0.00000000000E+00 -0.59477182367E+03  0.59477182367E+03  0.00000000000E+00 0.  1.
          2    1    1    2  502    0  0.19682944125E+02 -0.93256222016E+01 -0.28946541354E+02  0.36225512767E+02  0.00000000000E+00 0. -1.
         -2    1    1    2    0  502 -0.19682944125E+02  0.93256222016E+01 -0.56197484077E+03  0.56239675246E+03  0.00000000000E+00 0.  1.
<mgrwt>
<rscale>  2 0.21780393E+02</rscale>
<asrwt>0</asrwt>
<pdfrwt beam="1">  1        2 0.59237561E-03 0.21780393E+02</pdfrwt>
<pdfrwt beam="2">  1       -2 0.91503360E-01 0.21780393E+02</pdfrwt>
<totfact> 0.20745977E+04</totfact>
</mgrwt>
</event>
<event>
 4    1  0.1352171E+004  0.3197595E+02  0.7546771E-02  0.1577221E+00
          2   -1    0    0  501    0  0.00000000000E+00  0.00000000000E+00  0.13441198415E+04  0.13441198415E+04  0.00000000000E+00 0.  1.
         -2   -1    0    0    0  501 -0.00000000000E+00 -0.00000000000E+00 -0.15082687526E+02  0.15082687526E+02  0.00000000000E+00 0.  1.
          2    1    1    2  502    0  0.31968227531E+02  0.70286140035E+00  0.13267603534E+04  0.13271456201E+04  0.00000000000E+00 0.  1.
         -2    1    1    2    0  502 -0.31968227531E+02 -0.70286140035E+00  0.22768005128E+01  0.32056908868E+02  0.00000000000E+00 0.  1.
<mgrwt>
<rscale>  2 0.31975953E+02</rscale>
<asrwt>0</asrwt>
<pdfrwt beam="1">  1        2 0.20678757E+00 0.31975953E+02</pdfrwt>
<pdfrwt beam="2">  1       -2 0.23204145E-02 0.31975953E+02</pdfrwt>
<totfact> 0.91029925E+03</totfact>
</mgrwt>
</event>
<event>
 4    1  0.1352171E+004  0.2060123E+02  0.7546771E-02  0.1733630E+00
          2   -1    0    0  501    0  0.00000000000E+00  0.00000000000E+00  0.65759155753E+03  0.65759155753E+03  0.00000000000E+00 0.  1.
         -2   -1    0    0    0  501 -0.00000000000E+00 -0.00000000000E+00 -0.38955806932E+01  0.38955806932E+01  0.00000000000E+00 0.  1.
          2    1    1    2  502    0 -0.86270187623E+01 -0.18707894554E+02  0.62895370234E+03  0.62929100618E+03  0.00000000000E+00 0.  1.
         -2    1    1    2    0  502  0.86270187623E+01  0.18707894554E+02  0.24742274502E+02  0.32196132048E+02  0.00000000000E+00 0.  1.
<mgrwt>
<rscale>  2 0.20601232E+02</rscale>
<asrwt>0</asrwt>
<pdfrwt beam="1">  1        2 0.10116784E+00 0.20601232E+02</pdfrwt>
<pdfrwt beam="2">  1       -2 0.59932063E-03 0.20601232E+02</pdfrwt>
<totfact> 0.13043598E+05</totfact>
</mgrwt>
</event>
<event>
 4    1  0.1352171E+004  0.5453016E+02  0.7546771E-02  0.1422334E+00
          2   -1    0    0  501    0  0.00000000000E+00  0.00000000000E+00  0.83585812759E+03  0.83585812759E+03  0.00000000000E+00 0. -1.
         -2   -1    0    0    0  501 -0.00000000000E+00 -0.00000000000E+00 -0.27425166960E+03  0.27425166960E+03  0.00000000000E+00 0. -1.
          2    1    1    2  502    0  0.30499667844E+02 -0.45202971247E+02  0.83224641730E+03  0.83403095714E+03  0.00000000000E+00 0. -1.
         -2    1    1    2    0  502 -0.30499667844E+02  0.45202971247E+02 -0.27063995932E+03  0.27607884006E+03  0.00000000000E+00 0. -1.
<mgrwt>
<rscale>  2 0.54530160E+02</rscale>
<asrwt>0</asrwt>
<pdfrwt beam="1">  1        2 0.12859356E+00 0.54530160E+02</pdfrwt>
<pdfrwt beam="2">  1       -2 0.42192565E-01 0.54530160E+02</pdfrwt>
<totfact> 0.19187495E+02</totfact>
</mgrwt>
</event>
<event>
 4    1  0.1352171E+004  0.2355961E+02  0.7546771E-02  0.1682596E+00
         -2   -1    0    0    0  501 -0.00000000000E+00  0.00000000000E+00  0.18966621838E+01  0.18966621838E+01  0.00000000000E+00 0.  1.
          2   -1    0    0  501    0  0.00000000000E+00 -0.00000000000E+00 -0.47941355420E+03  0.47941355420E+03  0.00000000000E+00 0. -1.
          2    1    1    2  502    0 -0.23327278480E+02 -0.33005242134E+01 -0.38896459645E+03  0.38967744696E+03  0.00000000000E+00 0. -1.
         -2    1    1    2    0  502  0.23327278480E+02  0.33005242134E+01 -0.88552295565E+02  0.91632769418E+02  0.00000000000E+00 0.  1.
<mgrwt>
<rscale>  2 0.23559613E+02</rscale>
<asrwt>0</asrwt>
<pdfrwt beam="2">  1        2 0.73756032E-01 0.23559613E+02</pdfrwt>
<pdfrwt beam="1">  1       -2 0.29179379E-03 0.23559613E+02</pdfrwt>
<totfact> 0.48881833E+05</totfact>
</mgrwt>
</event>
<event>
 4    1  0.1352171E+004  0.4439594E+02  0.7546771E-02  0.1478148E+00
         -2   -1    0    0    0  501 -0.00000000000E+00  0.00000000000E+00  0.18021431722E+01  0.18021431722E+01  0.00000000000E+00 0.  1.
          2   -1    0    0  501    0  0.00000000000E+00 -0.00000000000E+00 -0.17283327633E+04  0.17283327633E+04  0.00000000000E+00 0.  1.
          2    1    1    2  502    0 -0.38922720623E+02  0.21354663472E+02 -0.13874668889E+04  0.13881769944E+04  0.00000000000E+00 0.  1.
         -2    1    1    2    0  502  0.38922720623E+02 -0.21354663472E+02 -0.33906373121E+03  0.34195791211E+03  0.00000000000E+00 0.  1.
<mgrwt>
<rscale>  2 0.44395944E+02</rscale>
<asrwt>0</asrwt>
<pdfrwt beam="2">  1        2 0.26589644E+00 0.44395944E+02</pdfrwt>
<pdfrwt beam="1">  1       -2 0.27725374E-03 0.44395944E+02</pdfrwt>
<totfact> 0.11419418E+05</totfact>
</mgrwt>
</event>
<event>
 4    1  0.1352171E+004  0.2942332E+03  0.7546771E-02  0.1088159E+00
          2   -1    0    0  501    0  0.00000000000E+00  0.00000000000E+00  0.32463136319E+03  0.32463136319E+03  0.00000000000E+00 0. -1.
         -2   -1    0    0    0  501 -0.00000000000E+00 -0.00000000000E+00 -0.29925824789E+03  0.29925824789E+03  0.00000000000E+00 0. -1.
          2    1    1    2  502    0  0.29408575368E+03  0.93083398905E+01 -0.90236025067E+02  0.30775902249E+03  0.00000000000E+00 0. -1.
         -2    1    1    2    0  502 -0.29408575368E+03 -0.93083398905E+01  0.11560914037E+03  0.31613058859E+03  0.00000000000E+00 0. -1.
<mgrwt>
<rscale>  2 0.29423318E+03</rscale>
<asrwt>0</asrwt>
<pdfrwt beam="1">  1        2 0.49943287E-01 0.29423318E+03</pdfrwt>
<pdfrwt beam="2">  1       -2 0.46039730E-01 0.29423318E+03</pdfrwt>
<totfact> 0.45634994E+02</totfact>
</mgrwt>
</event>
<event>
 4    1  0.1352171E+004  0.2321669E+02  0.7546771E-02  0.1688022E+00
         -2   -1    0    0    0  501 -0.00000000000E+00  0.00000000000E+00  0.45897742102E+02  0.45897742102E+02  0.00000000000E+00 0. -1.
          2   -1    0    0  501    0  0.00000000000E+00 -0.00000000000E+00 -0.60487788987E+02  0.60487788987E+02  0.00000000000E+00 0. -1.
          2    1    1    2  502    0 -0.19612594515E+02 -0.12424202072E+02 -0.55045661081E+02  0.59741438421E+02  0.00000000000E+00 0. -1.
         -2    1    1    2    0  502  0.19612594515E+02  0.12424202072E+02  0.40455614197E+02  0.46644092668E+02  0.00000000000E+00 0. -1.
<mgrwt>
<rscale>  2 0.23216689E+02</rscale>
<asrwt>0</asrwt>
<pdfrwt beam="2">  1        2 0.93058137E-02 0.23216689E+02</pdfrwt>
<pdfrwt beam="1">  1       -2 0.70611911E-02 0.23216689E+02</pdfrwt>
<totfact> 0.53578378E+04</totfact>
</mgrwt>
</event>
<event>
 4    1  0.1352171E+004  0.2569188E+02  0.7546771E-02  0.1651259E+00
         -2   -1    0    0    0  501 -0.00000000000E+00  0.00000000000E+00  0.10969451995E+02  0.10969451995E+02  0.00000000000E+00 0.  1.
          2   -1    0    0  501    0  0.00000000000E+00 -0.00000000000E+00 -0.94796806075E+02  0.94796806075E+02  0.00000000000E+00 0. -1.
          2    1    1    2  502    0 -0.22852797277E+02  0.11739779872E+02 -0.73873410971E+02  0.78213513048E+02  0.00000000000E+00 0. -1.
         -2    1    1    2    0  502  0.22852797277E+02 -0.11739779872E+02 -0.99539431085E+01  0.27552745022E+02  0.00000000000E+00 0.  1.
<mgrwt>
<rscale>  2 0.25691881E+02</rscale>
<asrwt>0</asrwt>
<pdfrwt beam="2">  1        2 0.14584123E-01 0.25691881E+02</pdfrwt>
<pdfrwt beam="1">  1       -2 0.16876081E-02 0.25691881E+02</pdfrwt>
<totfact> 0.24617736E+05</totfact>
</mgrwt>
</event>
<event>
 4    1  0.1352171E+004  0.2108297E+02  0.7546771E-02  0.1724612E+00
          2   -1    0    0  501    0  0.00000000000E+00  0.00000000000E+00  0.14759315275E+01  0.14759315275E+01  0.00000000000E+00 0.  1.
         -2   -1    0    0    0  501 -0.00000000000E+00 -0.00000000000E+00 -0.35025074271E+03  0.35025074271E+03  0.00000000000E+00 0. -1.
          2    1    1    2  502    0  0.93469690631E+01 -0.18897769775E+02 -0.10854804630E+03  0.11057653408E+03  0.00000000000E+00 0.  1.
         -2    1    1    2    0  502 -0.93469690631E+01  0.18897769775E+02 -0.24022676488E+03  0.24115014016E+03  0.00000000000E+00 0. -1.
<mgrwt>
<rscale>  2 0.21082968E+02</rscale>
<asrwt>0</asrwt>
<pdfrwt beam="1">  1        2 0.22706607E-03 0.21082968E+02</pdfrwt>
<pdfrwt beam="2">  1       -2 0.53884806E-01 0.21082968E+02</pdfrwt>
<totfact> 0.21326502E+05</totfact>
</mgrwt>
</event>
<event>
 4    1  0.1352171E+004  0.2214981E+02  0.7546771E-02  0.1705674E+00
         -2   -1    0    0    0  501 -0.00000000000E+00  0.00000000000E+00  0.65047314791E+01  0.65047314791E+01  0.00000000000E+00 0. -1.
          2   -1    0    0  501    0  0.00000000000E+00 -0.00000000000E+00 -0.13924293914E+04  0.13924293914E+04  0.00000000000E+00 0. -1.
          2    1    1    2  502    0 -0.11292499532E+02  0.19055018780E+02 -0.13732215198E+04  0.13734001445E+04  0.00000000000E+00 0. -1.
         -2    1    1    2    0  502  0.11292499532E+02 -0.19055018780E+02 -0.12703140122E+02  0.25533978447E+02  0.00000000000E+00 0. -1.
<mgrwt>
<rscale>  2 0.22149815E+02</rscale>
<asrwt>0</asrwt>
<pdfrwt beam="2">  1        2 0.21421972E+00 0.22149815E+02</pdfrwt>
<pdfrwt beam="1">  1       -2 0.10007288E-02 0.22149815E+02</pdfrwt>
<totfact> 0.26184990E+04</totfact>
</mgrwt>
</event>
<event>
 4    1  0.1352171E+004  0.2025644E+02  0.7546771E-02  0.1740276E+00
         -2   -1    0    0    0  501 -0.00000000000E+00  0.00000000000E+00  0.47218890400E+01  0.47218890400E+01  0.00000000000E+00 0.  1.
          2   -1    0    0  501    0  0.00000000000E+00 -0.00000000000E+00 -0.17752767704E+03  0.17752767704E+03  0.00000000000E+00 0.  1.
          2    1    1    2  502    0 -0.14799701081E+02 -0.13830841406E+02 -0.15151149709E+03  0.15285959923E+03  0.00000000000E+00 0.  1.
         -2    1    1    2    0  502  0.14799701081E+02  0.13830841406E+02 -0.21294290906E+02  0.29389966846E+02  0.00000000000E+00 0.  1.
<mgrwt>
<rscale>  2 0.20256439E+02</rscale>
<asrwt>0</asrwt>
<pdfrwt beam="2">  1        2 0.27311956E-01 0.20256439E+02</pdfrwt>
<pdfrwt beam="1">  1       -2 0.72644433E-03 0.20256439E+02</pdfrwt>
<totfact> 0.37043837E+05</totfact>
</mgrwt>
</event>
<event>
 4    1  0.1352171E+004  0.3200218E+02  0.7546771E-02  0.1576956E+00
          2   -1    0    0  501    0  0.00000000000E+00  0.00000000000E+00  0.87497054696E+03  0.87497054696E+03  0.00000000000E+00 0. -1.
         -2   -1    0    0    0  501 -0.00000000000E+00 -0.00000000000E+00 -0.26888200691E+01  0.26888200691E+01  0.00000000000E+00 0.  1.
          2    1    1    2  502    0  0.31993847602E+02 -0.73021334713E+00  0.76590164507E+03  0.76656993772E+03  0.00000000000E+00 0. -1.
         -2    1    1    2    0  502 -0.31993847602E+02  0.73021334713E+00  0.10638008182E+03  0.11108942931E+03  0.00000000000E+00 0.  1.
<mgrwt>
<rscale>  2 0.32002180E+02</rscale>
<asrwt>0</asrwt>
<pdfrwt beam="1">  1        2 0.13461063E+00 0.32002180E+02</pdfrwt>
<pdfrwt beam="2">  1       -2 0.41366532E-03 0.32002180E+02</pdfrwt>
<totfact> 0.17217239E+05</totfact>
</mgrwt>
</event>
<event>
 4    1  0.1352171E+004  0.2308131E+02  0.7546771E-02  0.1690196E+00
          2   -1    0    0  501    0  0.00000000000E+00  0.00000000000E+00  0.78747466168E+02  0.78747466168E+02  0.00000000000E+00 0. -1.
         -2   -1    0    0    0  501 -0.00000000000E+00 -0.00000000000E+00 -0.14948632563E+03  0.14948632563E+03  0.00000000000E+00 0.  1.
          2    1    1    2  502    0  0.12369877794E+01  0.23048135550E+02  0.76135293423E+02  0.79557083882E+02  0.00000000000E+00 0. -1.
         -2    1    1    2    0  502 -0.12369877794E+01 -0.23048135550E+02 -0.14687415289E+03  0.14867670792E+03  0.00000000000E+00 0.  1.
<mgrwt>
<rscale>  2 0.23081306E+02</rscale>
<asrwt>0</asrwt>
<pdfrwt beam="1">  1        2 0.12114995E-01 0.23081306E+02</pdfrwt>
<pdfrwt beam="2">  1       -2 0.22997896E-01 0.23081306E+02</pdfrwt>
<totfact> 0.64837797E+03</totfact>
</mgrwt>
</event>
<event>
 4    1  0.1352171E+004  0.3783162E+02  0.7546771E-02  0.1524803E+00
         -2   -1    0    0    0  501 -0.00000000000E+00  0.00000000000E+00  0.23740278320E+03  0.23740278320E+03  0.00000000000E+00 0.  1.
          2   -1    0    0  501    0  0.00000000000E+00 -0.00000000000E+00 -0.97456830143E+01  0.97456830143E+01  0.00000000000E+00 0.  1.
          2    1    1    2  502    0 -0.14254933473E+02 -0.35043240178E+02  0.37512362823E+02  0.53276722638E+02  0.00000000000E+00 0.  1.
         -2    1    1    2    0  502  0.14254933473E+02  0.35043240178E+02  0.19014473736E+03  0.19387174357E+03  0.00000000000E+00 0.  1.
<mgrwt>
<rscale>  2 0.37831624E+02</rscale>
<asrwt>0</asrwt>
<pdfrwt beam="2">  1        2 0.14993360E-02 0.37831624E+02</pdfrwt>
<pdfrwt beam="1">  1       -2 0.36523501E-01 0.37831624E+02</pdfrwt>
<totfact> 0.42572837E+04</totfact>
</mgrwt>
</event>
<event>
 4    1  0.1352171E+004  0.2159268E+02  0.7546771E-02  0.1715393E+00
         -2   -1    0    0    0  501 -0.00000000000E+00  0.00000000000E+00  0.18643683413E+03  0.18643683413E+03  0.00000000000E+00 0.  1.
          2   -1    0    0  501    0  0.00000000000E+00 -0.00000000000E+00 -0.49230233478E+01  0.49230233478E+01  0.00000000000E+00 0. -1.
          2    1    1    2  502    0 -0.15369820738E+02  0.15166163030E+02  0.23643278154E+02  0.32019501751E+02  0.00000000000E+00 0. -1.
         -2    1    1    2    0  502  0.15369820738E+02 -0.15166163030E+02  0.15787053263E+03  0.15934035573E+03  0.00000000000E+00 0.  1.
<mgrwt>
<rscale>  2 0.21592681E+02</rscale>
<asrwt>0</asrwt>
<pdfrwt beam="2">  1        2 0.75738835E-03 0.21592681E+02</pdfrwt>
<pdfrwt beam="1">  1       -2 0.28682584E-01 0.21592681E+02</pdfrwt>
<totfact> 0.13872713E+05</totfact>
</mgrwt>
</event>
<event>
 4    1  0.1352171E+004  0.7249034E+02  0.7546771E-02  0.1351824E+00
         -2   -1    0    0    0  501 -0.00000000000E+00  0.00000000000E+00  0.15178473291E+02  0.15178473291E+02  0.00000000000E+00 0.  1.
          2   -1    0    0  501    0  0.00000000000E+00 -0.00000000000E+00 -0.53413643594E+03  0.53413643594E+03  0.00000000000E+00 0.  1.
          2    1    1    2  502    0 -0.39978041614E+02 -0.60469877684E+02 -0.42239583981E+03  0.42857099226E+03  0.00000000000E+00 0.  1.
         -2    1    1    2    0  502  0.39978041614E+02  0.60469877684E+02 -0.96562122845E+02  0.12074391698E+03  0.00000000000E+00 0.  1.
<mgrwt>
<rscale>  2 0.72490344E+02</rscale>
<asrwt>0</asrwt>
<pdfrwt beam="2">  1        2 0.82174844E-01 0.72490344E+02</pdfrwt>
<pdfrwt beam="1">  1       -2 0.23351495E-02 0.72490344E+02</pdfrwt>
<totfact> 0.30973070E+04</totfact>
</mgrwt>
</event>
<event>
 4    1  0.1352171E+004  0.2147128E+02  0.7546771E-02  0.1717560E+00
          2   -1    0    0  501    0  0.00000000000E+00  0.00000000000E+00  0.18132292634E+03  0.18132292634E+03  0.00000000000E+00 0.  1.
         -2   -1    0    0    0  501 -0.00000000000E+00 -0.00000000000E+00 -0.36216668027E+01  0.36216668027E+01  0.00000000000E+00 0.  1.
          2    1    1    2  502    0 -0.21428884442E+02 -0.13486790685E+01  0.13932825676E+03  0.14097297314E+03  0.00000000000E+00 0.  1.
         -2    1    1    2    0  502  0.21428884442E+02  0.13486790685E+01  0.38373002776E+02  0.43971620003E+02  0.00000000000E+00 0.  1.
<mgrwt>
<rscale>  2 0.21471284E+02</rscale>
<asrwt>0</asrwt>
<pdfrwt beam="1">  1        2 0.27895828E-01 0.21471284E+02</pdfrwt>
<pdfrwt beam="2">  1       -2 0.55717965E-03 0.21471284E+02</pdfrwt>
<totfact> 0.52643368E+05</totfact>
</mgrwt>
</event>
<event>
 4    1  0.1352171E+004  0.2377296E+02  0.7546771E-02  0.1679279E+00
         -2   -1    0    0    0  501 -0.00000000000E+00  0.00000000000E+00  0.65487777707E+02  0.65487777707E+02  0.00000000000E+00 0.  1.
          2   -1    0    0  501    0  0.00000000000E+00 -0.00000000000E+00 -0.21587528139E+02  0.21587528139E+02  0.00000000000E+00 0. -1.
          2    1    1    2  502    0  0.21369082758E+02  0.10417100614E+02 -0.11780635403E+02  0.26531812106E+02  0.00000000000E+00 0. -1.
         -2    1    1    2    0  502 -0.21369082758E+02 -0.10417100614E+02  0.55680884971E+02  0.60543493740E+02  0.00000000000E+00 0.  1.
<mgrwt>
<rscale>  2 0.23772961E+02</rscale>
<asrwt>0</asrwt>
<pdfrwt beam="2">  1        2 0.33211582E-02 0.23772961E+02</pdfrwt>
<pdfrwt beam="1">  1       -2 0.10075043E-01 0.23772961E+02</pdfrwt>
<totfact> 0.11147282E+05</totfact>
</mgrwt>
</event>
<event>
 4    1  0.1352171E+004  0.2309321E+02  0.7546771E-02  0.1690004E+00
          2   -1    0    0  501    0  0.00000000000E+00  0.00000000000E+00  0.10770932967E+04  0.10770932967E+04  0.00000000000E+00 0.  1.
         -2   -1    0    0    0  501 -0.00000000000E+00 -0.00000000000E+00 -0.14208418156E+01  0.14208418156E+01  0.00000000000E+00 0.  1.
          2    1    1    2  502    0 -0.19710924265E+02 -0.12032288389E+02  0.97310940942E+03  0.97338338757E+03  0.00000000000E+00 0.  1.
         -2    1    1    2    0  502  0.19710924265E+02  0.12032288389E+02  0.10256304551E+03  0.10513075099E+03  0.00000000000E+00 0.  1.
<mgrwt>
<rscale>  2 0.23093213E+02</rscale>
<asrwt>0</asrwt>
<pdfrwt beam="1">  1        2 0.16570601E+00 0.23093213E+02</pdfrwt>
<pdfrwt beam="2">  1       -2 0.21859191E-03 0.23093213E+02</pdfrwt>
<totfact> 0.28992322E+05</totfact>
</mgrwt>
</event>
<event>
 4    1  0.1352171E+004  0.3016789E+02  0.7546771E-02  0.1596240E+00
         -2   -1    0    0    0  501 -0.00000000000E+00  0.00000000000E+00  0.93426873281E+02  0.93426873281E+02  0.00000000000E+00 0. -1.
          2   -1    0    0  501    0  0.00000000000E+00 -0.00000000000E+00 -0.25118938355E+02  0.25118938355E+02  0.00000000000E+00 0.  1.
          2    1    1    2  502    0 -0.76226922026E+01 -0.29188975708E+02 -0.12222751122E+02  0.32549921417E+02  0.00000000000E+00 0.  1.
         -2    1    1    2    0  502  0.76226922026E+01  0.29188975708E+02  0.80530686048E+02  0.85995890219E+02  0.00000000000E+00 0. -1.
<mgrwt>
<rscale>  2 0.30167893E+02</rscale>
<asrwt>0</asrwt>
<pdfrwt beam="2">  1        2 0.38644521E-02 0.30167893E+02</pdfrwt>
<pdfrwt beam="1">  1       -2 0.14373365E-01 0.30167893E+02</pdfrwt>
<totfact> 0.56710770E+04</totfact>
</mgrwt>
</event>
<event>
 4    1  0.1352171E+004  0.3029153E+02  0.7546771E-02  0.1594888E+00
         -2   -1    0    0    0  501 -0.00000000000E+00  0.00000000000E+00  0.21037382323E+01  0.21037382323E+01  0.00000000000E+00 0. -1.
          2   -1    0    0  501    0  0.00000000000E+00 -0.00000000000E+00 -0.11347634752E+04  0.11347634752E+04  0.00000000000E+00 0. -1.
          2    1    1    2  502    0 -0.48294001461E+01 -0.29904079262E+02 -0.10123360494E+04  0.10127891458E+04  0.00000000000E+00 0. -1.
         -2    1    1    2    0  502  0.48294001461E+01  0.29904079262E+02 -0.12032368762E+03  0.12407806762E+03  0.00000000000E+00 0. -1.
<mgrwt>
<rscale>  2 0.30291534E+02</rscale>
<asrwt>0</asrwt>
<pdfrwt beam="2">  1        2 0.17457904E+00 0.30291534E+02</pdfrwt>
<pdfrwt beam="1">  1       -2 0.32365196E-03 0.30291534E+02</pdfrwt>
<totfact> 0.17022678E+05</totfact>
</mgrwt>
</event>
<event>
 4    1  0.1352171E+004  0.3342803E+02  0.7546771E-02  0.1563020E+00
          2   -1    0    0  501    0  0.00000000000E+00  0.00000000000E+00  0.57494616093E+02  0.57494616093E+02  0.00000000000E+00 0. -1.
         -2   -1    0    0    0  501 -0.00000000000E+00 -0.00000000000E+00 -0.26310991274E+03  0.26310991274E+03  0.00000000000E+00 0. -1.
          2    1    1    2  502    0  0.12074119804E+01 -0.33406212305E+02  0.51460431554E+02  0.61364557196E+02  0.00000000000E+00 0. -1.
         -2    1    1    2    0  502 -0.12074119804E+01  0.33406212305E+02 -0.25707572820E+03  0.25923997164E+03  0.00000000000E+00 0. -1.
<mgrwt>
<rscale>  2 0.33428025E+02</rscale>
<asrwt>0</asrwt>
<pdfrwt beam="1">  1        2 0.88453253E-02 0.33428025E+02</pdfrwt>
<pdfrwt beam="2">  1       -2 0.40478449E-01 0.33428025E+02</pdfrwt>
<totfact> 0.36684595E+03</totfact>
</mgrwt>
</event>
<event>
 4    1  0.1352171E+004  0.2943221E+02  0.7546771E-02  0.1604451E+00
         -2   -1    0    0    0  501 -0.00000000000E+00  0.00000000000E+00  0.44350487974E+01  0.44350487974E+01  0.00000000000E+00 0.  1.
          2   -1    0    0  501    0  0.00000000000E+00 -0.00000000000E+00 -0.19377505157E+04  0.19377505157E+04  0.00000000000E+00 0.  1.
          2    1    1    2  502    0  0.28384751760E+02  0.77820929813E+01 -0.18875090031E+04  0.18877384596E+04  0.00000000000E+00 0.  1.
         -2    1    1    2    0  502 -0.28384751760E+02 -0.77820929813E+01 -0.45806463745E+02  0.54447104831E+02  0.00000000000E+00 0.  1.
<mgrwt>
<rscale>  2 0.29432212E+02</rscale>
<asrwt>0</asrwt>
<pdfrwt beam="2">  1        2 0.29811505E+00 0.29432212E+02</pdfrwt>
<pdfrwt beam="1">  1       -2 0.68231614E-03 0.29432212E+02</pdfrwt>
<totfact> 0.25260527E+04</totfact>
</mgrwt>
</event>
<event>
 4    1  0.1352171E+004  0.3049305E+02  0.7546771E-02  0.1592702E+00
         -2   -1    0    0    0  501 -0.00000000000E+00  0.00000000000E+00  0.37238811700E+02  0.37238811700E+02  0.00000000000E+00 0.  1.
          2   -1    0    0  501    0  0.00000000000E+00 -0.00000000000E+00 -0.43108098577E+02  0.43108098577E+02  0.00000000000E+00 0. -1.
          2    1    1    2  502    0  0.25931951070E+02 -0.16042438248E+02 -0.28994041515E+02  0.42077076356E+02  0.00000000000E+00 0. -1.
         -2    1    1    2    0  502 -0.25931951070E+02  0.16042438248E+02  0.23124754639E+02  0.38269833921E+02  0.00000000000E+00 0.  1.
<mgrwt>
<rscale>  2 0.30493047E+02</rscale>
<asrwt>0</asrwt>
<pdfrwt beam="2">  1        2 0.66320151E-02 0.30493047E+02</pdfrwt>
<pdfrwt beam="1">  1       -2 0.57290480E-02 0.30493047E+02</pdfrwt>
<totfact> 0.11535480E+05</totfact>
</mgrwt>
</event>
<event>
 4    1  0.1352171E+004  0.2489875E+02  0.7546771E-02  0.1662460E+00
         -2   -1    0    0    0  501 -0.00000000000E+00  0.00000000000E+00  0.11904184222E+02  0.11904184222E+02  0.00000000000E+00 0.  1.
          2   -1    0    0  501    0  0.00000000000E+00 -0.00000000000E+00 -0.61694379621E+03  0.61694379621E+03  0.00000000000E+00 0.  1.
          2    1    1    2  502    0 -0.92578417504E+01  0.23113634316E+02 -0.60338050547E+03  0.60389401562E+03  0.00000000000E+00 0.  1.
         -2    1    1    2    0  502  0.92578417504E+01 -0.23113634316E+02 -0.16591065176E+01  0.24953964808E+02  0.00000000000E+00 0.  1.
<mgrwt>
<rscale>  2 0.24898749E+02</rscale>
<asrwt>0</asrwt>
<pdfrwt beam="2">  1        2 0.94914425E-01 0.24898749E+02</pdfrwt>
<pdfrwt beam="1">  1       -2 0.18314131E-02 0.24898749E+02</pdfrwt>
<totfact> 0.32006695E+04</totfact>
</mgrwt>
</event>
<event>
 4    1  0.1352171E+004  0.2144455E+02  0.7546771E-02  0.1718039E+00
          2   -1    0    0  501    0  0.00000000000E+00  0.00000000000E+00  0.59286830869E+01  0.59286830869E+01  0.00000000000E+00 0.  1.
         -2   -1    0    0    0  501 -0.00000000000E+00 -0.00000000000E+00 -0.90375436537E+02  0.90375436537E+02  0.00000000000E+00 0.  1.
          2    1    1    2  502    0 -0.12238726339E+01 -0.21409582648E+02 -0.60351115679E+02  0.64047835694E+02  0.00000000000E+00 0.  1.
         -2    1    1    2    0  502  0.12238726339E+01  0.21409582648E+02 -0.24095637771E+02  0.32256283930E+02  0.00000000000E+00 0.  1.
<mgrwt>
<rscale>  2 0.21444546E+02</rscale>
<asrwt>0</asrwt>
<pdfrwt beam="1">  1        2 0.91210516E-03 0.21444546E+02</pdfrwt>
<pdfrwt beam="2">  1       -2 0.13903912E-01 0.21444546E+02</pdfrwt>
<totfact> 0.34873264E+05</totfact>
</mgrwt>
</event>
<event>
 4    1  0.1352171E+004  0.4119713E+02  0.7546771E-02  0.1499582E+00
          2   -1    0    0  501    0  0.00000000000E+00  0.00000000000E+00  0.68636904524E+03  0.68636904524E+03  0.00000000000E+00 0. -1.
         -2   -1    0    0    0  501 -0.00000000000E+00 -0.00000000000E+00 -0.19932589109E+02  0.19932589109E+02  0.00000000000E+00 0. -1.
          2    1    1    2  502    0  0.38723160287E+02  0.14061304691E+02  0.66373900138E+03  0.66501628956E+03  0.00000000000E+00 0. -1.
         -2    1    1    2    0  502 -0.38723160287E+02 -0.14061304691E+02  0.26974547559E+01  0.41285344790E+02  0.00000000000E+00 0. -1.
<mgrwt>
<rscale>  2 0.41197129E+02</rscale>
<asrwt>0</asrwt>
<pdfrwt beam="1">  1        2 0.10559522E+00 0.41197129E+02</pdfrwt>
<pdfrwt beam="2">  1       -2 0.30665527E-02 0.41197129E+02</pdfrwt>
<totfact> 0.14923071E+04</totfact>
</mgrwt>
</event>
<event>
 4    1  0.1352171E+004  0.2067941E+02  0.7546771E-02  0.1732145E+00
         -2   -1    0    0    0  501 -0.00000000000E+00  0.00000000000E+00  0.63939827147E+00  0.63939827147E+00  0.00000000000E+00 0. -1.
          2   -1    0    0  501    0  0.00000000000E+00 -0.00000000000E+00 -0.74592737327E+03  0.74592737327E+03  0.00000000000E+00 0. -1.
          2    1    1    2  502    0  0.20125055364E+02  0.47560476524E+01 -0.49266525316E+03  0.49309906663E+03  0.00000000000E+00 0. -1.
         -2    1    1    2    0  502 -0.20125055364E+02 -0.47560476524E+01 -0.25262272184E+03  0.25346770491E+03  0.00000000000E+00 0. -1.
<mgrwt>
<rscale>  2 0.20679406E+02</rscale>
<asrwt>0</asrwt>
<pdfrwt beam="2">  1        2 0.11475849E+00 0.20679406E+02</pdfrwt>
<pdfrwt beam="1">  1       -2 0.98368595E-04 0.20679406E+02</pdfrwt>
<totfact> 0.12438531E+06</totfact>
</mgrwt>
</event>
<event>
 4    1  0.1352171E+004  0.2341410E+02  0.7546771E-02  0.1684884E+00
         -2   -1    0    0    0  501 -0.00000000000E+00  0.00000000000E+00  0.25726099922E+01  0.25726099922E+01  0.00000000000E+00 0. -1.
          2   -1    0    0  501    0  0.00000000000E+00 -0.00000000000E+00 -0.53072782632E+03  0.53072782632E+03  0.00000000000E+00 0. -1.
          2    1    1    2  502    0 -0.13441899250E+02 -0.19171210912E+02 -0.47036188994E+03  0.47094429340E+03  0.00000000000E+00 0. -1.
         -2    1    1    2    0  502  0.13441899250E+02  0.19171210912E+02 -0.57793326392E+02  0.62356142911E+02  0.00000000000E+00 0. -1.
<mgrwt>
<rscale>  2 0.23414098E+02</rscale>
<asrwt>0</asrwt>
<pdfrwt beam="2">  1        2 0.81650411E-01 0.23414098E+02</pdfrwt>
<pdfrwt beam="1">  1       -2 0.39578627E-03 0.23414098E+02</pdfrwt>
<totfact> 0.29308036E+05</totfact>
</mgrwt>
</event>
<event>
 4    1  0.1352171E+004  0.2507108E+02  0.7546771E-02  0.1659983E+00
         -2   -1    0    0    0  501 -0.00000000000E+00  0.00000000000E+00  0.76646872593E+01  0.76646872593E+01  0.00000000000E+00 0.  1.
          2   -1    0    0  501    0  0.00000000000E+00 -0.00000000000E+00 -0.36717405012E+03  0.36717405012E+03  0.00000000000E+00 0. -1.
          2    1    1    2  502    0 -0.24475780010E+02  0.54309688685E+01 -0.34492348801E+03  0.34583344519E+03  0.00000000000E+00 0. -1.
         -2    1    1    2    0  502  0.24475780010E+02 -0.54309688685E+01 -0.14585874851E+02  0.29005292191E+02  0.00000000000E+00 0.  1.
<mgrwt>
<rscale>  2 0.25071084E+02</rscale>
<asrwt>0</asrwt>
<pdfrwt beam="2">  1        2 0.56488327E-01 0.25071084E+02</pdfrwt>
<pdfrwt beam="1">  1       -2 0.11791824E-02 0.25071084E+02</pdfrwt>
<totfact> 0.98958559E+04</totfact>
</mgrwt>
</event>
<event>
 4    1  0.1589832E+004  0.2381260E+02  0.7546771E-02  0.1678667E+00
          2   -1    0    0  501    0  0.00000000000E+00  0.00000000000E+00  0.14856263686E+04  0.14856263686E+04  0.00000000000E+00 0.  1.
         -2   -1    0    0    0  501 -0.00000000000E+00 -0.00000000000E+00 -0.72848005196E+02  0.72848005196E+02  0.00000000000E+00 0. -1.
          2    1    1    2  502    0  0.23433822452E+01 -0.23697017696E+02  0.14835822967E+04  0.14837733895E+04  0.00000000000E+00 0.  1.
         -2    1    1    2    0  502 -0.23433822452E+01  0.23697017696E+02 -0.70803933322E+02  0.74700984344E+02  0.00000000000E+00 0. -1.
<mgrwt>
<rscale>  2 0.23812604E+02</rscale>
<asrwt>0</asrwt>
<pdfrwt beam="1">  1        2 0.22855788E+00 0.23812604E+02</pdfrwt>
<pdfrwt beam="2">  1       -2 0.11207387E-01 0.23812604E+02</pdfrwt>
<totfact> 0.79645621E+02</totfact>
</mgrwt>
</event>
<event>
 4    1  0.1352171E+004  0.3768425E+02  0.7546771E-02  0.1525979E+00
         -2   -1    0    0    0  501 -0.00000000000E+00  0.00000000000E+00  0.19765812235E+02  0.19765812235E+02  0.00000000000E+00 0. -1.
          2   -1    0    0  501    0  0.00000000000E+00 -0.00000000000E+00 -0.24318184500E+03  0.24318184500E+03  0.00000000000E+00 0.  1.
          2    1    1    2  502    0 -0.24475813301E+02 -0.28653754020E+02 -0.22206436064E+03  0.22523916915E+03  0.00000000000E+00 0.  1.
         -2    1    1    2    0  502  0.24475813301E+02  0.28653754020E+02 -0.13516721325E+01  0.37708488086E+02  0.00000000000E+00 0. -1.
<mgrwt>
<rscale>  2 0.37684255E+02</rscale>
<asrwt>0</asrwt>
<pdfrwt beam="2">  1        2 0.37412591E-01 0.37684255E+02</pdfrwt>
<pdfrwt beam="1">  1       -2 0.30408943E-02 0.37684255E+02</pdfrwt>
<totfact> 0.43576029E+04</totfact>
</mgrwt>
</event>
<event>
 4    1  0.1352171E+004  0.3090910E+02  0.7546771E-02  0.1588252E+00
          2   -1    0    0  501    0  0.00000000000E+00  0.00000000000E+00  0.13353539546E+04  0.13353539546E+04  0.00000000000E+00 0.  1.
         -2   -1    0    0    0  501 -0.00000000000E+00 -0.00000000000E+00 -0.78112118646E+00  0.78112118646E+00  0.00000000000E+00 0.  1.
          2    1    1    2  502    0  0.24363602871E+02 -0.19020678074E+02  0.47356950896E+03  0.47457712877E+03  0.00000000000E+00 0.  1.
         -2    1    1    2    0  502 -0.24363602871E+02  0.19020678074E+02  0.86100332444E+03  0.86155794700E+03  0.00000000000E+00 0.  1.
<mgrwt>
<rscale>  2 0.30909097E+02</rscale>
<asrwt>0</asrwt>
<pdfrwt beam="1">  1        2 0.20543724E+00 0.30909097E+02</pdfrwt>
<pdfrwt beam="2">  1       -2 0.12017356E-03 0.30909097E+02</pdfrwt>
<totfact> 0.51016928E+05</totfact>
</mgrwt>
</event>
<event>
 4    1  0.1352171E+004  0.2031834E+02  0.7546771E-02  0.1739071E+00
         -2   -1    0    0    0  501 -0.00000000000E+00  0.00000000000E+00  0.78029407102E+01  0.78029407102E+01  0.00000000000E+00 0. -1.
          2   -1    0    0  501    0  0.00000000000E+00 -0.00000000000E+00 -0.16092800579E+03  0.16092800579E+03  0.00000000000E+00 0. -1.
          2    1    1    2  502    0  0.16683120524E+02  0.11597774978E+02 -0.14568222976E+03  0.14709230763E+03  0.00000000000E+00 0. -1.
         -2    1    1    2    0  502 -0.16683120524E+02 -0.11597774978E+02 -0.74428353237E+01  0.21638638878E+02  0.00000000000E+00 0. -1.
<mgrwt>
<rscale>  2 0.20318339E+02</rscale>
<asrwt>0</asrwt>
<pdfrwt beam="2">  1        2 0.24758153E-01 0.20318339E+02</pdfrwt>
<pdfrwt beam="1">  1       -2 0.12004525E-02 0.20318339E+02</pdfrwt>
<totfact> 0.20867308E+05</totfact>
</mgrwt>
</event>
<event>
 4    1  0.1352171E+004  0.2617742E+02  0.7546771E-02  0.1644644E+00
         -2   -1    0    0    0  501 -0.00000000000E+00  0.00000000000E+00  0.32373467674E+03  0.32373467674E+03  0.00000000000E+00 0. -1.
          2   -1    0    0  501    0  0.00000000000E+00 -0.00000000000E+00 -0.48278435688E+01  0.48278435688E+01  0.00000000000E+00 0.  1.
          2    1    1    2  502    0 -0.36279823950E+01 -0.25924794010E+02  0.36345577845E+02  0.44791274034E+02  0.00000000000E+00 0.  1.
         -2    1    1    2    0  502  0.36279823950E+01  0.25924794010E+02  0.28256125532E+03  0.28377124627E+03  0.00000000000E+00 0. -1.
<mgrwt>
<rscale>  2 0.26177418E+02</rscale>
<asrwt>0</asrwt>
<pdfrwt beam="2">  1        2 0.74274542E-03 0.26177418E+02</pdfrwt>
<pdfrwt beam="1">  1       -2 0.49805318E-01 0.26177418E+02</pdfrwt>
<totfact> 0.55629594E+04</totfact>
</mgrwt>
</event>
<event>
 4    1  0.1352171E+004  0.2506153E+02  0.7546771E-02  0.1660120E+00
          2   -1    0    0  501    0  0.00000000000E+00  0.00000000000E+00  0.18371562164E+04  0.18371562164E+04  0.00000000000E+00 0. -1.
         -2   -1    0    0    0  501 -0.00000000000E+00 -0.00000000000E+00 -0.50043941239E+00  0.50043941239E+00  0.00000000000E+00 0. -1.
          2    1    1    2  502    0  0.24328688087E+02 -0.60162572194E+01  0.14355290859E+04  0.14357478319E+04  0.00000000000E+00 0. -1.
         -2    1    1    2    0  502 -0.24328688087E+02  0.60162572194E+01  0.40112669111E+03  0.40190882390E+03  0.00000000000E+00 0. -1.
<mgrwt>
<rscale>  2 0.25061533E+02</rscale>
<asrwt>0</asrwt>
<pdfrwt beam="1">  1        2 0.28263402E+00 0.25061533E+02</pdfrwt>
<pdfrwt beam="2">  1       -2 0.76992150E-04 0.25061533E+02</pdfrwt>
<totfact> 0.50527278E+05</totfact>
</mgrwt>
</event>
<event>
 4    1  0.1352171E+004  0.2036457E+02  0.7546771E-02  0.1738174E+00
         -2   -1    0    0    0  501 -0.00000000000E+00  0.00000000000E+00  0.10393755641E+03  0.10393755641E+03  0.00000000000E+00 0.  1.
          2   -1    0    0  501    0  0.00000000000E+00 -0.00000000000E+00 -0.18295738338E+02  0.18295738338E+02  0.00000000000E+00 0. -1.
          2    1    1    2  502    0 -0.60376649951E+01  0.19448963078E+02 -0.11222035370E+02  0.23251873930E+02  0.00000000000E+00 0. -1.
         -2    1    1    2    0  502  0.60376649951E+01 -0.19448963078E+02  0.96863853445E+02  0.98981420820E+02  0.00000000000E+00 0.  1.
<mgrwt>
<rscale>  2 0.20364566E+02</rscale>
<asrwt>0</asrwt>
<pdfrwt beam="2">  1        2 0.28147290E-02 0.20364566E+02</pdfrwt>
<pdfrwt beam="1">  1       -2 0.15990393E-01 0.20364566E+02</pdfrwt>
<totfact> 0.65276153E+04</totfact>
</mgrwt>
</event>
<event>
 4    1  0.1352171E+004  0.2768514E+02  0.7546771E-02  0.1625183E+00
          2   -1    0    0  501    0  0.00000000000E+00  0.00000000000E+00  0.15729765553E+03  0.15729765553E+03  0.00000000000E+00 0. -1.
         -2   -1    0    0    0  501 -0.00000000000E+00 -0.00000000000E+00 -0.70151478456E+03  0.70151478456E+03  0.00000000000E+00 0.  1.
          2    1    1    2  502    0  0.20915810012E+01 -0.27606023477E+02  0.15580372989E+03  0.15824433478E+03  0.00000000000E+00 0. -1.
         -2    1    1    2    0  502 -0.20915810012E+01  0.27606023477E+02 -0.70002085892E+03  0.70056810530E+03  0.00000000000E+00 0.  1.
<mgrwt>
<rscale>  2 0.27685145E+02</rscale>
<asrwt>0</asrwt>
<pdfrwt beam="1">  1        2 0.24199639E-01 0.27685145E+02</pdfrwt>
<pdfrwt beam="2">  1       -2 0.10792535E+00 0.27685145E+02</pdfrwt>
<totfact> 0.15954655E+02</totfact>
</mgrwt>
</event>
<event>
 4    1  0.1985297E+004  0.2418429E+02  0.7546771E-02  0.1673002E+00
          2   -1    0    0  501    0  0.00000000000E+00  0.00000000000E+00  0.70391624368E+03  0.70391624368E+03  0.00000000000E+00 0. -1.
         -2   -1    0    0    0  501 -0.00000000000E+00 -0.00000000000E+00 -0.35329831445E+03  0.35329831445E+03  0.00000000000E+00 0. -1.
          2    1    1    2  502    0 -0.15894561526E+02 -0.18227527534E+02  0.70329428316E+03  0.70370997476E+03  0.00000000000E+00 0. -1.
         -2    1    1    2    0  502  0.15894561526E+02  0.18227527534E+02 -0.35267635393E+03  0.35350458338E+03  0.00000000000E+00 0. -1.
<mgrwt>
<rscale>  2 0.24184289E+02</rscale>
<asrwt>0</asrwt>
<pdfrwt beam="1">  1        2 0.10829481E+00 0.24184289E+02</pdfrwt>
<pdfrwt beam="2">  1       -2 0.54353587E-01 0.24184289E+02</pdfrwt>
<totfact> 0.14678138E+02</totfact>
</mgrwt>
</event>
<event>
 4    1  0.1352171E+004  0.2106651E+02  0.7546771E-02  0.1724915E+00
         -2   -1    0    0    0  501 -0.00000000000E+00  0.00000000000E+00  0.13345615356E+01  0.13345615356E+01  0.00000000000E+00 0.  1.
          2   -1    0    0  501    0  0.00000000000E+00 -0.00000000000E+00 -0.34119622448E+03  0.34119622448E+03  0.00000000000E+00 0.  1.
          2    1    1    2  502    0  0.20894387956E+02  0.26874820869E+01 -0.19720659789E+03  0.19832861684E+03  0.00000000000E+00 0.  1.
         -2    1    1    2    0  502 -0.20894387956E+02 -0.26874820869E+01 -0.14265506505E+03  0.14420216917E+03  0.00000000000E+00 0.  1.
<mgrwt>
<rscale>  2 0.21066514E+02</rscale>
<asrwt>0</asrwt>
<pdfrwt beam="2">  1        2 0.52491638E-01 0.21066514E+02</pdfrwt>
<pdfrwt beam="1">  1       -2 0.20531751E-03 0.21066514E+02</pdfrwt>
<totfact> 0.10533489E+06</totfact>
</mgrwt>
</event>
<event>
 4    1  0.1352171E+004  0.5135421E+02  0.7546771E-02  0.1438171E+00
         -2   -1    0    0    0  501 -0.00000000000E+00  0.00000000000E+00  0.44347356509E+01  0.44347356509E+01  0.00000000000E+00 0.  1.
          2   -1    0    0  501    0  0.00000000000E+00 -0.00000000000E+00 -0.18394245771E+04  0.18394245771E+04  0.00000000000E+00 0. -1.
          2    1    1    2  502    0  0.45015230596E+02  0.24716056275E+02 -0.16758920585E+04  0.16766786949E+04  0.00000000000E+00 0. -1.
         -2    1    1    2    0  502 -0.45015230596E+02 -0.24716056275E+02 -0.15909778302E+03  0.16718061785E+03  0.00000000000E+00 0.  1.
<mgrwt>
<rscale>  2 0.51354206E+02</rscale>
<asrwt>0</asrwt>
<pdfrwt beam="2">  1        2 0.28298822E+00 0.51354206E+02</pdfrwt>
<pdfrwt beam="1">  1       -2 0.68226745E-03 0.51354206E+02</pdfrwt>
<totfact> 0.29831859E+04</totfact>
</mgrwt>
</event>
<event>
 4    1  0.1352171E+004  0.2296865E+02  0.7546771E-02  0.1692019E+00
          2   -1    0    0  501    0  0.00000000000E+00  0.00000000000E+00  0.97646483187E+03  0.97646483187E+03  0.00000000000E+00 0. -1.
         -2   -1    0    0    0  501 -0.00000000000E+00 -0.00000000000E+00 -0.11140842608E+02  0.11140842608E+02  0.00000000000E+00 0. -1.
          2    1    1    2  502    0 -0.12068588174E+01 -0.22936926348E+02  0.96434256764E+03  0.96461606189E+03  0.00000000000E+00 0. -1.
         -2    1    1    2    0  502  0.12068588174E+01  0.22936926348E+02  0.98142162385E+00  0.22989612587E+02  0.00000000000E+00 0. -1.
<mgrwt>
<rscale>  2 0.22968655E+02</rscale>
<asrwt>0</asrwt>
<pdfrwt beam="1">  1        2 0.15022529E+00 0.22968655E+02</pdfrwt>
<pdfrwt beam="2">  1       -2 0.17139766E-02 0.22968655E+02</pdfrwt>
<totfact> 0.20587742E+04</totfact>
</mgrwt>
</event>
<event>
 4    1  0.1352171E+004  0.3168627E+02  0.7546771E-02  0.1580164E+00
         -2   -1    0    0    0  501 -0.00000000000E+00  0.00000000000E+00  0.19137864975E+02  0.19137864975E+02  0.00000000000E+00 0. -1.
          2   -1    0    0  501    0  0.00000000000E+00 -0.00000000000E+00 -0.14097674412E+03  0.14097674412E+03  0.00000000000E+00 0. -1.
          2    1    1    2  502    0 -0.90984295897E+01  0.30351907955E+02 -0.12435515945E+03  0.12832858380E+03  0.00000000000E+00 0. -1.
         -2    1    1    2    0  502  0.90984295897E+01 -0.30351907955E+02  0.25162803077E+01  0.31786025296E+02  0.00000000000E+00 0. -1.
<mgrwt>
<rscale>  2 0.31686270E+02</rscale>
<asrwt>0</asrwt>
<pdfrwt beam="2">  1        2 0.21688730E-01 0.31686270E+02</pdfrwt>
<pdfrwt beam="1">  1       -2 0.29442870E-02 0.31686270E+02</pdfrwt>
<totfact> 0.77709950E+04</totfact>
</mgrwt>
</event>
<event>
 4    1  0.1714398E+004  0.2427377E+02  0.7546771E-02  0.1671658E+00
          2   -1    0    0  501    0  0.00000000000E+00  0.00000000000E+00  0.67012796385E+03  0.67012796385E+03  0.00000000000E+00 0.  1.
         -2   -1    0    0    0  501 -0.00000000000E+00 -0.00000000000E+00 -0.81014653543E+03  0.81014653543E+03  0.00000000000E+00 0.  1.
          2    1    1    2  502    0 -0.15857390761E+02 -0.18378218474E+02  0.66972621635E+03  0.67016596499E+03  0.00000000000E+00 0.  1.
         -2    1    1    2    0  502  0.15857390761E+02  0.18378218474E+02 -0.80974478793E+03  0.81010853430E+03  0.00000000000E+00 0.  1.
<mgrwt>
<rscale>  2 0.24273767E+02</rscale>
<asrwt>0</asrwt>
<pdfrwt beam="1">  1        2 0.10309661E+00 0.24273767E+02</pdfrwt>
<pdfrwt beam="2">  1       -2 0.12463793E+00 0.24273767E+02</pdfrwt>
<totfact> 0.26441786E+01</totfact>
</mgrwt>
</event>
<event>
 4    1  0.1352171E+004  0.2014629E+02  0.7546771E-02  0.1742434E+00
          2   -1    0    0  501    0  0.00000000000E+00  0.00000000000E+00  0.12437002003E+03  0.12437002003E+03  0.00000000000E+00 0.  1.
         -2   -1    0    0    0  501 -0.00000000000E+00 -0.00000000000E+00 -0.40193970224E+03  0.40193970224E+03  0.00000000000E+00 0.  1.
          2    1    1    2  502    0  0.14911188986E+02  0.13547306178E+02  0.12329953833E+03  0.12493457974E+03  0.00000000000E+00 0.  1.
         -2    1    1    2    0  502 -0.14911188986E+02 -0.13547306178E+02 -0.40086922054E+03  0.40137514253E+03  0.00000000000E+00 0.  1.
<mgrwt>
<rscale>  2 0.20146292E+02</rscale>
<asrwt>0</asrwt>
<pdfrwt beam="1">  1        2 0.19133849E-01 0.20146292E+02</pdfrwt>
<pdfrwt beam="2">  1       -2 0.61836878E-01 0.20146292E+02</pdfrwt>
<totfact> 0.65542231E+02</totfact>
</mgrwt>
</event>
<event>
 4    1  0.1352171E+004  0.2591919E+02  0.7546771E-02  0.1648140E+00
         -2   -1    0    0    0  501 -0.00000000000E+00  0.00000000000E+00  0.80659435398E+01  0.80659435398E+01  0.00000000000E+00 0. -1.
          2   -1    0    0  501    0  0.00000000000E+00 -0.00000000000E+00 -0.40602230324E+03  0.40602230324E+03  0.00000000000E+00 0.  1.
          2    1    1    2  502    0 -0.41296815974E+01  0.25588083313E+02 -0.38356889926E+03  0.38444363014E+03  0.00000000000E+00 0.  1.
         -2    1    1    2    0  502  0.41296815974E+01 -0.25588083313E+02 -0.14387460443E+02  0.29644616640E+02  0.00000000000E+00 0. -1.
<mgrwt>
<rscale>  2 0.25919187E+02</rscale>
<asrwt>0</asrwt>
<pdfrwt beam="2">  1        2 0.62464961E-01 0.25919187E+02</pdfrwt>
<pdfrwt beam="1">  1       -2 0.12409146E-02 0.25919187E+02</pdfrwt>
<totfact> 0.84159340E+04</totfact>
</mgrwt>
</event>
<event>
 4    1  0.1352171E+004  0.2346627E+02  0.7546771E-02  0.1684062E+00
          2   -1    0    0  501    0  0.00000000000E+00  0.00000000000E+00  0.11487157826E+03  0.11487157826E+03  0.00000000000E+00 0. -1.
         -2   -1    0    0    0  501 -0.00000000000E+00 -0.00000000000E+00 -0.24381923627E+03  0.24381923627E+03  0.00000000000E+00 0.  1.
          2    1    1    2  502    0  0.23329059123E+02  0.25339773475E+01  0.11309976236E+03  0.11550853772E+03  0.00000000000E+00 0. -1.
         -2    1    1    2    0  502 -0.23329059123E+02 -0.25339773475E+01 -0.24204742038E+03  0.24318227681E+03  0.00000000000E+00 0.  1.
<mgrwt>
<rscale>  2 0.23466275E+02</rscale>
<asrwt>0</asrwt>
<pdfrwt beam="1">  1        2 0.17672551E-01 0.23466275E+02</pdfrwt>
<pdfrwt beam="2">  1       -2 0.37510651E-01 0.23466275E+02</pdfrwt>
<totfact> 0.18538413E+03</totfact>
</mgrwt>
</event>
<event>
 4    1  0.1352171E+004  0.3581906E+02  0.7546771E-02  0.1541445E+00
         -2   -1    0    0    0  501 -0.00000000000E+00  0.00000000000E+00  0.44664463663E+01  0.44664463663E+01  0.00000000000E+00 0. -1.
          2   -1    0    0  501    0  0.00000000000E+00 -0.00000000000E+00 -0.17608444042E+04  0.17608444042E+04  0.00000000000E+00 0.  1.
          2    1    1    2  502    0  0.13104661325E+02 -0.33335758587E+02 -0.16856453853E+04  0.16860259102E+04  0.00000000000E+00 0.  1.
         -2    1    1    2    0  502 -0.13104661325E+02  0.33335758587E+02 -0.70732572560E+02  0.79284940373E+02  0.00000000000E+00 0. -1.
<mgrwt>
<rscale>  2 0.35819058E+02</rscale>
<asrwt>0</asrwt>
<pdfrwt beam="2">  1        2 0.27089900E+00 0.35819058E+02</pdfrwt>
<pdfrwt beam="1">  1       -2 0.68714595E-03 0.35819058E+02</pdfrwt>
<totfact> 0.31036527E+04</totfact>
</mgrwt>
</event>
<event>
 4    1  0.1352171E+004  0.2950062E+02  0.7546771E-02  0.1603675E+00
          2   -1    0    0  501    0  0.00000000000E+00  0.00000000000E+00  0.59842654939E+03  0.59842654939E+03  0.00000000000E+00 0. -1.
         -2   -1    0    0    0  501 -0.00000000000E+00 -0.00000000000E+00 -0.18551398815E+02  0.18551398815E+02  0.00000000000E+00 0.  1.
          2    1    1    2  502    0  0.23798064655E+02 -0.17433842760E+02  0.58608818547E+03  0.58683016956E+03  0.00000000000E+00 0. -1.
         -2    1    1    2    0  502 -0.23798064655E+02  0.17433842760E+02 -0.62130348955E+01  0.30147778647E+02  0.00000000000E+00 0.  1.
<mgrwt>
<rscale>  2 0.29500623E+02</rscale>
<asrwt>0</asrwt>
<pdfrwt beam="1">  1        2 0.92065608E-01 0.29500623E+02</pdfrwt>
<pdfrwt beam="2">  1       -2 0.28540618E-02 0.29500623E+02</pdfrwt>
<totfact> 0.18356262E+04</totfact>
</mgrwt>
</event>
<event>
 4    1  0.1352171E+004  0.2246661E+02  0.7546771E-02  0.1700305E+00
         -2   -1    0    0    0  501 -0.00000000000E+00  0.00000000000E+00  0.53909820314E+02  0.53909820314E+02  0.00000000000E+00 0. -1.
          2   -1    0    0  501    0  0.00000000000E+00 -0.00000000000E+00 -0.74091228789E+02  0.74091228789E+02  0.00000000000E+00 0. -1.
          2    1    1    2  502    0 -0.21099400312E+02  0.77177570035E+01 -0.69910863875E+02  0.73432127536E+02  0.00000000000E+00 0. -1.
         -2    1    1    2    0  502  0.21099400312E+02 -0.77177570035E+01  0.49729455399E+02  0.54568921567E+02  0.00000000000E+00 0. -1.
<mgrwt>
<rscale>  2 0.22466608E+02</rscale>
<asrwt>0</asrwt>
<pdfrwt beam="2">  1        2 0.11398650E-01 0.22466608E+02</pdfrwt>
<pdfrwt beam="1">  1       -2 0.82938186E-02 0.22466608E+02</pdfrwt>
<totfact> 0.33349047E+04</totfact>
</mgrwt>
</event>
<event>
 4    1  0.1352171E+004  0.4512160E+02  0.7546771E-02  0.1473584E+00
         -2   -1    0    0    0  501 -0.00000000000E+00  0.00000000000E+00  0.19651108278E+02  0.19651108278E+02  0.00000000000E+00 0.  1.
          2   -1    0    0  501    0  0.00000000000E+00 -0.00000000000E+00 -0.13090464028E+04  0.13090464028E+04  0.00000000000E+00 0.  1.
          2    1    1    2  502    0  0.39927312415E+02  0.21018296861E+02 -0.12822144003E+04  0.12830080777E+04  0.00000000000E+00 0.  1.
         -2    1    1    2    0  502 -0.39927312415E+02 -0.21018296861E+02 -0.71808941971E+01  0.45689433364E+02  0.00000000000E+00 0.  1.
<mgrwt>
<rscale>  2 0.45121603E+02</rscale>
<asrwt>0</asrwt>
<pdfrwt beam="2">  1        2 0.20139175E+00 0.45121603E+02</pdfrwt>
<pdfrwt beam="1">  1       -2 0.30232475E-02 0.45121603E+02</pdfrwt>
<totfact> 0.67042635E+03</totfact>
</mgrwt>
</event>
<event>
 4    1  0.1588809E+004  0.2635128E+02  0.7546771E-02  0.1642319E+00
         -2   -1    0    0    0  501 -0.00000000000E+00  0.00000000000E+00  0.53318593457E+02  0.53318593457E+02  0.00000000000E+00 0. -1.
          2   -1    0    0  501    0  0.00000000000E+00 -0.00000000000E+00 -0.18414219722E+04  0.18414219722E+04  0.00000000000E+00 0. -1.
          2    1    1    2  502    0  0.15549802857E+02 -0.21274246571E+02 -0.18380659015E+04  0.18382547832E+04  0.00000000000E+00 0. -1.
         -2    1    1    2    0  502 -0.15549802857E+02  0.21274246571E+02  0.49962522739E+02  0.56485782410E+02  0.00000000000E+00 0. -1.
<mgrwt>
<rscale>  2 0.26351280E+02</rscale>
<asrwt>0</asrwt>
<pdfrwt beam="2">  1        2 0.28329563E+00 0.26351280E+02</pdfrwt>
<pdfrwt beam="1">  1       -2 0.82028623E-02 0.26351280E+02</pdfrwt>
<totfact> 0.86321976E+02</totfact>
</mgrwt>
</event>
<event>
 4    1  0.1352171E+004  0.3065492E+02  0.7546771E-02  0.1590960E+00
         -2   -1    0    0    0  501 -0.00000000000E+00  0.00000000000E+00  0.11165742856E+03  0.11165742856E+03  0.00000000000E+00 0.  1.
          2   -1    0    0  501    0  0.00000000000E+00 -0.00000000000E+00 -0.44064356758E+02  0.44064356758E+02  0.00000000000E+00 0. -1.
          2    1    1    2  502    0  0.28672362513E+01 -0.30520534386E+02 -0.36235151815E+02  0.47462725270E+02  0.00000000000E+00 0. -1.
         -2    1    1    2    0  502 -0.28672362513E+01  0.30520534386E+02  0.10382822362E+03  0.10825906005E+03  0.00000000000E+00 0.  1.
<mgrwt>
<rscale>  2 0.30654919E+02</rscale>
<asrwt>0</asrwt>
<pdfrwt beam="2">  1        2 0.67791318E-02 0.30654919E+02</pdfrwt>
<pdfrwt beam="1">  1       -2 0.17178066E-01 0.30654919E+02</pdfrwt>
<totfact> 0.21447030E+04</totfact>
</mgrwt>
</event>
<event>
 4    1  0.1352171E+004  0.2372475E+02  0.7546771E-02  0.1680024E+00
         -2   -1    0    0    0  501 -0.00000000000E+00  0.00000000000E+00  0.31679296703E+02  0.31679296703E+02  0.00000000000E+00 0. -1.
          2   -1    0    0  501    0  0.00000000000E+00 -0.00000000000E+00 -0.21886661203E+02  0.21886661203E+02  0.00000000000E+00 0. -1.
          2    1    1    2  502    0 -0.20109318864E+02 -0.12588849929E+02 -0.67227232017E+01  0.24658849425E+02  0.00000000000E+00 0. -1.
         -2    1    1    2    0  502  0.20109318864E+02  0.12588849929E+02  0.16515358702E+02  0.28907108481E+02  0.00000000000E+00 0. -1.
<mgrwt>
<rscale>  2 0.23724752E+02</rscale>
<asrwt>0</asrwt>
<pdfrwt beam="2">  1        2 0.33671786E-02 0.23724752E+02</pdfrwt>
<pdfrwt beam="1">  1       -2 0.48737380E-02 0.23724752E+02</pdfrwt>
<totfact> 0.31447372E+05</totfact>
</mgrwt>
</event>
<event>
 4    1  0.1352171E+004  0.2861320E+02  0.7546771E-02  0.1613944E+00
          2   -1    0    0  501    0  0.00000000000E+00  0.00000000000E+00  0.20849397360E+04  0.20849397360E+04  0.00000000000E+00 0.  1.
         -2   -1    0    0    0  501 -0.00000000000E+00 -0.00000000000E+00 -0.22346227524E+01  0.22346227524E+01  0.00000000000E+00 0.  1.
          2    1    1    2  502    0  0.23621182720E+02 -0.16147913211E+02  0.19888207095E+04  0.19890265282E+04  0.00000000000E+00 0.  1.
         -2    1    1    2    0  502 -0.23621182720E+02  0.16147913211E+02  0.93884403797E+02  0.98147830595E+02  0.00000000000E+00 0.  1.
<mgrwt>
<rscale>  2 0.28613203E+02</rscale>
<asrwt>0</asrwt>
<pdfrwt beam="1">  1        2 0.32075840E+00 0.28613203E+02</pdfrwt>
<pdfrwt beam="2">  1       -2 0.34378978E-03 0.28613203E+02</pdfrwt>
<totfact> 0.54131416E+04</totfact>
</mgrwt>
</event>
<event>
 4    1  0.1352171E+004  0.2673140E+02  0.7546771E-02  0.1637310E+00
          2   -1    0    0  501    0  0.00000000000E+00  0.00000000000E+00  0.16771870621E+03  0.16771870621E+03  0.00000000000E+00 0. -1.
         -2   -1    0    0    0  501 -0.00000000000E+00 -0.00000000000E+00 -0.88206161455E+01  0.88206161455E+01  0.00000000000E+00 0. -1.
          2    1    1    2  502    0 -0.11531767056E+02 -0.24116090696E+02  0.14291625413E+03  0.14539471509E+03  0.00000000000E+00 0. -1.
         -2    1    1    2    0  502  0.11531767056E+02  0.24116090696E+02  0.15981835938E+02  0.31144607268E+02  0.00000000000E+00 0. -1.
<mgrwt>
<rscale>  2 0.26731395E+02</rscale>
<asrwt>0</asrwt>
<pdfrwt beam="1">  1        2 0.25802876E-01 0.26731395E+02</pdfrwt>
<pdfrwt beam="2">  1       -2 0.13570180E-02 0.26731395E+02</pdfrwt>
<totfact> 0.18210145E+05</totfact>
</mgrwt>
</event>
<event>
 4    1  0.1352171E+004  0.3689749E+02  0.7546771E-02  0.1532368E+00
          2   -1    0    0  501    0  0.00000000000E+00  0.00000000000E+00  0.24848165847E+04  0.24848165847E+04  0.00000000000E+00 0.  1.
         -2   -1    0    0    0  501 -0.00000000000E+00 -0.00000000000E+00 -0.20517848657E+01  0.20517848657E+01  0.00000000000E+00 0. -1.
          2    1    1    2  502    0  0.33311561352E+02  0.15867085409E+02  0.23059287207E+04  0.23062239027E+04  0.00000000000E+00 0.  1.
         -2    1    1    2    0  502 -0.33311561352E+02 -0.15867085409E+02  0.17683607914E+03  0.18064446685E+03  0.00000000000E+00 0. -1.
<mgrwt>
<rscale>  2 0.36897487E+02</rscale>
<asrwt>0</asrwt>
<pdfrwt beam="1">  1        2 0.38227707E+00 0.36897487E+02</pdfrwt>
<pdfrwt beam="2">  1       -2 0.31566120E-03 0.36897487E+02</pdfrwt>
<totfact> 0.40013129E+04</totfact>
</mgrwt>
</event>
<event>
 4    1  0.1352171E+004  0.2693715E+02  0.7546771E-02  0.1634642E+00
          2   -1    0    0  501    0  0.00000000000E+00  0.00000000000E+00  0.21639427168E+03  0.21639427168E+03  0.00000000000E+00 0.  1.
         -2   -1    0    0    0  501 -0.00000000000E+00 -0.00000000000E+00 -0.92548277353E+01  0.92548277353E+01  0.00000000000E+00 0. -1.
          2    1    1    2  502    0  0.16581879943E+02 -0.21228554453E+02  0.19366579373E+03  0.19553017651E+03  0.00000000000E+00 0.  1.
         -2    1    1    2    0  502 -0.16581879943E+02  0.21228554453E+02  0.13473650215E+02  0.30118922901E+02  0.00000000000E+00 0. -1.
<mgrwt>
<rscale>  2 0.26937154E+02</rscale>
<asrwt>0</asrwt>
<pdfrwt beam="1">  1        2 0.33291423E-01 0.26937154E+02</pdfrwt>
<pdfrwt beam="2">  1       -2 0.14238198E-02 0.26937154E+02</pdfrwt>
<totfact> 0.13165827E+05</totfact>
</mgrwt>
</event>
<event>
 4    1  0.1352171E+004  0.2174471E+02  0.7546771E-02  0.1712705E+00
          2   -1    0    0  501    0  0.00000000000E+00  0.00000000000E+00  0.16718411468E+03  0.16718411468E+03  0.00000000000E+00 0. -1.
         -2   -1    0    0    0  501 -0.00000000000E+00 -0.00000000000E+00 -0.59931496831E+01  0.59931496831E+01  0.00000000000E+00 0. -1.
          2    1    1    2  502    0  0.56026146045E+01 -0.21010547109E+02  0.14351940559E+03  0.14515733588E+03  0.00000000000E+00 0. -1.
         -2    1    1    2    0  502 -0.56026146045E+01  0.21010547109E+02  0.17671559415E+02  0.28019928487E+02  0.00000000000E+00 0. -1.
<mgrwt>
<rscale>  2 0.21744709E+02</rscale>
<asrwt>0</asrwt>
<pdfrwt beam="1">  1        2 0.25720630E-01 0.21744709E+02</pdfrwt>
<pdfrwt beam="2">  1       -2 0.92202315E-03 0.21744709E+02</pdfrwt>
<totfact> 0.29199950E+05</totfact>
</mgrwt>
</event>
<event>
 4    1  0.1632025E+004  0.2751870E+02  0.7546771E-02  0.1627255E+00
          2   -1    0    0  501    0  0.00000000000E+00  0.00000000000E+00  0.90337976021E+03  0.90337976021E+03  0.00000000000E+00 0. -1.
         -2   -1    0    0    0  501 -0.00000000000E+00 -0.00000000000E+00 -0.56376899419E+02  0.56376899419E+02  0.00000000000E+00 0. -1.
          2    1    1    2  502    0  0.20752199736E+01 -0.27440342210E+02  0.89979872217E+03  0.90021942844E+03  0.00000000000E+00 0. -1.
         -2    1    1    2    0  502 -0.20752199736E+01  0.27440342210E+02 -0.52795861382E+02  0.59537231189E+02  0.00000000000E+00 0. -1.
<mgrwt>
<rscale>  2 0.27518701E+02</rscale>
<asrwt>0</asrwt>
<pdfrwt beam="1">  1        2 0.13898149E+00 0.27518701E+02</pdfrwt>
<pdfrwt beam="2">  1       -2 0.86733698E-02 0.27518701E+02</pdfrwt>
<totfact> 0.23321218E+03</totfact>
</mgrwt>
</event>
<event>
 4    1  0.1352171E+004  0.2754489E+02  0.7546771E-02  0.1626928E+00
          2   -1    0    0  501    0  0.00000000000E+00  0.00000000000E+00  0.86914768177E+03  0.86914768177E+03  0.00000000000E+00 0. -1.
         -2   -1    0    0    0  501 -0.00000000000E+00 -0.00000000000E+00 -0.20420132907E+01  0.20420132907E+01  0.00000000000E+00 0. -1.
          2    1    1    2  502    0  0.12880296952E+02  0.24347874729E+02  0.76314187778E+03  0.76363881952E+03  0.00000000000E+00 0. -1.
         -2    1    1    2    0  502 -0.12880296952E+02 -0.24347874729E+02  0.10396379070E+03  0.10755087554E+03  0.00000000000E+00 0. -1.
<mgrwt>
<rscale>  2 0.27544892E+02</rscale>
<asrwt>0</asrwt>
<pdfrwt beam="1">  1        2 0.13371473E+00 0.27544892E+02</pdfrwt>
<pdfrwt beam="2">  1       -2 0.31415658E-03 0.27544892E+02</pdfrwt>
<totfact> 0.24318939E+05</totfact>
</mgrwt>
</event>
<event>
 4    1  0.1352171E+004  0.2718300E+02  0.7546771E-02  0.1631492E+00
          2   -1    0    0  501    0  0.00000000000E+00  0.00000000000E+00  0.98266629028E+03  0.98266629028E+03  0.00000000000E+00 0. -1.
         -2   -1    0    0    0  501 -0.00000000000E+00 -0.00000000000E+00 -0.12877830343E+01  0.12877830343E+01  0.00000000000E+00 0. -1.
          2    1    1    2  502    0 -0.16499170346E+02  0.21603076718E+02  0.80803916253E+03  0.80849626080E+03  0.00000000000E+00 0. -1.
         -2    1    1    2    0  502  0.16499170346E+02 -0.21603076718E+02  0.17333934472E+03  0.17545781251E+03  0.00000000000E+00 0. -1.
<mgrwt>
<rscale>  2 0.27183001E+02</rscale>
<asrwt>0</asrwt>
<pdfrwt beam="1">  1        2 0.15117883E+00 0.27183001E+02</pdfrwt>
<pdfrwt beam="2">  1       -2 0.19812125E-03 0.27183001E+02</pdfrwt>
<totfact> 0.38682400E+05</totfact>
</mgrwt>
</event>
<event>
 4    1  0.1352171E+004  0.3101329E+02  0.7546771E-02  0.1587151E+00
          2   -1    0    0  501    0  0.00000000000E+00  0.00000000000E+00  0.26468065694E+03  0.26468065694E+03  0.00000000000E+00 0. -1.
         -2   -1    0    0    0  501 -0.00000000000E+00 -0.00000000000E+00 -0.92088596851E+01  0.92088596851E+01  0.00000000000E+00 0. -1.
          2    1    1    2  502    0  0.18840256359E+02 -0.24634711698E+02  0.23428828212E+03  0.23633201946E+03  0.00000000000E+00 0. -1.
         -2    1    1    2    0  502 -0.18840256359E+02  0.24634711698E+02  0.21183515127E+02  0.37557497164E+02  0.00000000000E+00 0. -1.
<mgrwt>
<rscale>  2 0.31013292E+02</rscale>
<asrwt>0</asrwt>
<pdfrwt beam="1">  1        2 0.40720095E-01 0.31013292E+02</pdfrwt>
<pdfrwt beam="2">  1       -2 0.14167479E-02 0.31013292E+02</pdfrwt>
<totfact> 0.11174966E+05</totfact>
</mgrwt>
</event>
<event>
 4    1  0.1352171E+004  0.2385370E+02  0.7546771E-02  0.1678034E+00
          2   -1    0    0  501    0  0.00000000000E+00  0.00000000000E+00  0.10226380765E+03  0.10226380765E+03  0.00000000000E+00 0.  1.
         -2   -1    0    0    0  501 -0.00000000000E+00 -0.00000000000E+00 -0.55800672137E+01  0.55800672137E+01  0.00000000000E+00 0.  1.
          2    1    1    2  502    0  0.22885844039E+01 -0.23743654881E+02  0.51232730977E+02  0.56513639850E+02  0.00000000000E+00 0.  1.
         -2    1    1    2    0  502 -0.22885844039E+01  0.23743654881E+02  0.45451009456E+02  0.51330235011E+02  0.00000000000E+00 0.  1.
<mgrwt>
<rscale>  2 0.23853695E+02</rscale>
<asrwt>0</asrwt>
<pdfrwt beam="1">  1        2 0.15732892E-01 0.23853695E+02</pdfrwt>
<pdfrwt beam="2">  1       -2 0.85847196E-03 0.23853695E+02</pdfrwt>
<totfact> 0.55620110E+05</totfact>
</mgrwt>
</event>
<event>
 4    1  0.1352171E+004  0.2262874E+02  0.7546771E-02  0.1697600E+00
          2   -1    0    0  501    0  0.00000000000E+00  0.00000000000E+00  0.87376150272E+03  0.87376150272E+03  0.00000000000E+00 0.  1.
         -2   -1    0    0    0  501 -0.00000000000E+00 -0.00000000000E+00 -0.91367242058E+00  0.91367242058E+00  0.00000000000E+00 0.  1.
          2    1    1    2  502    0  0.74968654846E+01  0.21350803722E+02  0.69831125938E+03  0.69867780471E+03  0.00000000000E+00 0.  1.
         -2    1    1    2    0  502 -0.74968654846E+01 -0.21350803722E+02  0.17453657092E+03  0.17599737044E+03  0.00000000000E+00 0.  1.
<mgrwt>
<rscale>  2 0.22628739E+02</rscale>
<asrwt>0</asrwt>
<pdfrwt beam="1">  1        2 0.13442418E+00 0.22628739E+02</pdfrwt>
<pdfrwt beam="2">  1       -2 0.14056569E-03 0.22628739E+02</pdfrwt>
<totfact> 0.66894090E+05</totfact>
</mgrwt>
</event>
<event>
 4    1  0.1352171E+004  0.2114191E+02  0.7546771E-02  0.1723529E+00
          2   -1    0    0  501    0  0.00000000000E+00  0.00000000000E+00  0.25121693763E+02  0.25121693763E+02  0.00000000000E+00 0.  1.
         -2   -1    0    0    0  501 -0.00000000000E+00 -0.00000000000E+00 -0.17752237459E+03  0.17752237459E+03  0.00000000000E+00 0. -1.
          2    1    1    2  502    0 -0.17721525736E+02  0.11529434594E+02  0.19910037653E+02  0.29041176557E+02  0.00000000000E+00 0.  1.
         -2    1    1    2    0  502  0.17721525736E+02 -0.11529434594E+02 -0.17231071848E+03  0.17360289179E+03  0.00000000000E+00 0. -1.
<mgrwt>
<rscale>  2 0.21141909E+02</rscale>
<asrwt>0</asrwt>
<pdfrwt beam="1">  1        2 0.38648759E-02 0.21141909E+02</pdfrwt>
<pdfrwt beam="2">  1       -2 0.27311135E-01 0.21141909E+02</pdfrwt>
<totfact> 0.18647734E+04</totfact>
</mgrwt>
</event>
<event>
 4    1  0.1352171E+004  0.2767386E+02  0.7546771E-02  0.1625323E+00
         -2   -1    0    0    0  501 -0.00000000000E+00  0.00000000000E+00  0.42058906790E+01  0.42058906790E+01  0.00000000000E+00 0.  1.
          2   -1    0    0  501    0  0.00000000000E+00 -0.00000000000E+00 -0.19381722343E+04  0.19381722343E+04  0.00000000000E+00 0. -1.
          2    1    1    2  502    0 -0.69675389364E+01 -0.26782379887E+02 -0.18914264384E+04  0.18916288786E+04  0.00000000000E+00 0. -1.
         -2    1    1    2    0  502  0.69675389364E+01  0.26782379887E+02 -0.42539905180E+02  0.50749246339E+02  0.00000000000E+00 0.  1.
<mgrwt>
<rscale>  2 0.27673859E+02</rscale>
<asrwt>0</asrwt>
<pdfrwt beam="2">  1        2 0.29818050E+00 0.27673859E+02</pdfrwt>
<pdfrwt beam="1">  1       -2 0.64705977E-03 0.27673859E+02</pdfrwt>
<totfact> 0.26941838E+04</totfact>
</mgrwt>
</event>
<event>
 4    1  0.1352171E+004  0.2125908E+02  0.7546771E-02  0.1721390E+00
          2   -1    0    0  501    0  0.00000000000E+00  0.00000000000E+00  0.27450336006E+02  0.27450336006E+02  0.00000000000E+00 0.  1.
         -2   -1    0    0    0  501 -0.00000000000E+00 -0.00000000000E+00 -0.45934427701E+02  0.45934427701E+02  0.00000000000E+00 0. -1.
          2    1    1    2  502    0 -0.12514705139E+02  0.17185190120E+02  0.20147866130E+02  0.29289675890E+02  0.00000000000E+00 0.  1.
         -2    1    1    2    0  502  0.12514705139E+02 -0.17185190120E+02 -0.38631957824E+02  0.44095087816E+02  0.00000000000E+00 0. -1.
<mgrwt>
<rscale>  2 0.21259083E+02</rscale>
<asrwt>0</asrwt>
<pdfrwt beam="1">  1        2 0.42231286E-02 0.21259083E+02</pdfrwt>
<pdfrwt beam="2">  1       -2 0.70668350E-02 0.21259083E+02</pdfrwt>
<totfact> 0.13503021E+05</totfact>
</mgrwt>
</event>
<event>
 4    1  0.1352171E+004  0.2108266E+02  0.7546771E-02  0.1724617E+00
         -2   -1    0    0    0  501 -0.00000000000E+00  0.00000000000E+00  0.14302019191E+02  0.14302019191E+02  0.00000000000E+00 0.  1.
          2   -1    0    0  501    0  0.00000000000E+00 -0.00000000000E+00 -0.50195926075E+02  0.50195926075E+02  0.00000000000E+00 0.  1.
          2    1    1    2  502    0 -0.20576296881E+02 -0.45928928663E+01 -0.37849178613E+02  0.43324807904E+02  0.00000000000E+00 0.  1.
         -2    1    1    2    0  502  0.20576296881E+02  0.45928928663E+01  0.19552717291E+01  0.21173137362E+02  0.00000000000E+00 0.  1.
<mgrwt>
<rscale>  2 0.21082663E+02</rscale>
<asrwt>0</asrwt>
<pdfrwt beam="2">  1        2 0.77224502E-02 0.21082663E+02</pdfrwt>
<pdfrwt beam="1">  1       -2 0.22003106E-02 0.21082663E+02</pdfrwt>
<totfact> 0.33419920E+05</totfact>
</mgrwt>
</event>
<event>
 4    1  0.1352171E+004  0.2209713E+02  0.7546771E-02  0.1706578E+00
          2   -1    0    0  501    0  0.00000000000E+00  0.00000000000E+00  0.45104312955E+01  0.45104312955E+01  0.00000000000E+00 0.  1.
         -2   -1    0    0    0  501 -0.00000000000E+00 -0.00000000000E+00 -0.34700201584E+03  0.34700201584E+03  0.00000000000E+00 0.  1.
          2    1    1    2  502    0 -0.42909846066E+01 -0.21676495899E+02 -0.25460932830E+02  0.33712640418E+02  0.00000000000E+00 0.  1.
         -2    1    1    2    0  502  0.42909846066E+01  0.21676495899E+02 -0.31703065171E+03  0.31779980672E+03  0.00000000000E+00 0.  1.
<mgrwt>
<rscale>  2 0.22097127E+02</rscale>
<asrwt>0</asrwt>
<pdfrwt beam="1">  1        2 0.69391248E-03 0.22097127E+02</pdfrwt>
<pdfrwt beam="2">  1       -2 0.53384928E-01 0.22097127E+02</pdfrwt>
<totfact> 0.50971777E+04</totfact>
</mgrwt>
</event>
<event>
 4    1  0.1352171E+004  0.3077583E+02  0.7546771E-02  0.1589668E+00
         -2   -1    0    0    0  501 -0.00000000000E+00  0.00000000000E+00  0.16222747863E+01  0.16222747863E+01  0.00000000000E+00 0. -1.
          2   -1    0    0  501    0  0.00000000000E+00 -0.00000000000E+00 -0.97512955318E+03  0.97512955318E+03  0.00000000000E+00 0.  1.
          2    1    1    2  502    0 -0.26949909036E+02 -0.14861170618E+02 -0.79611861995E+03  0.79671325395E+03  0.00000000000E+00 0.  1.
         -2    1    1    2    0  502  0.26949909036E+02  0.14861170618E+02 -0.17738865844E+03  0.18003857402E+03  0.00000000000E+00 0. -1.
<mgrwt>
<rscale>  2 0.30775835E+02</rscale>
<asrwt>0</asrwt>
<pdfrwt beam="2">  1        2 0.15001959E+00 0.30775835E+02</pdfrwt>
<pdfrwt beam="1">  1       -2 0.24958130E-03 0.30775835E+02</pdfrwt>
<totfact> 0.29537189E+05</totfact>
</mgrwt>
</event>
<event>
 4    1  0.1352171E+004  0.2158610E+02  0.7546771E-02  0.1715510E+00
          2   -1    0    0  501    0  0.00000000000E+00  0.00000000000E+00  0.25865342060E+03  0.25865342060E+03  0.00000000000E+00 0. -1.
         -2   -1    0    0    0  501 -0.00000000000E+00 -0.00000000000E+00 -0.55126443644E+02  0.55126443644E+02  0.00000000000E+00 0.  1.
          2    1    1    2  502    0  0.39979341392E+01 -0.21212646095E+02  0.25606861591E+03  0.25697683920E+03  0.00000000000E+00 0. -1.
         -2    1    1    2    0  502 -0.39979341392E+01  0.21212646095E+02 -0.52541638946E+02  0.56803025050E+02  0.00000000000E+00 0.  1.
<mgrwt>
<rscale>  2 0.21586103E+02</rscale>
<asrwt>0</asrwt>
<pdfrwt beam="1">  1        2 0.39792833E-01 0.21586103E+02</pdfrwt>
<pdfrwt beam="2">  1       -2 0.84809915E-02 0.21586103E+02</pdfrwt>
<totfact> 0.85962733E+03</totfact>
</mgrwt>
</event>
<event>
 4    1  0.1352171E+004  0.4043959E+02  0.7546771E-02  0.1505001E+00
          2   -1    0    0  501    0  0.00000000000E+00  0.00000000000E+00  0.57182459777E+03  0.57182459777E+03  0.00000000000E+00 0. -1.
         -2   -1    0    0    0  501 -0.00000000000E+00 -0.00000000000E+00 -0.37093534532E+02  0.37093534532E+02  0.00000000000E+00 0.  1.
          2    1    1    2  502    0 -0.25373683724E+02  0.31488678815E+02  0.55985235917E+03  0.56131098758E+03  0.00000000000E+00 0. -1.
         -2    1    1    2    0  502  0.25373683724E+02 -0.31488678815E+02 -0.25121295927E+02  0.47607144719E+02  0.00000000000E+00 0.  1.
<mgrwt>
<rscale>  2 0.40439593E+02</rscale>
<asrwt>0</asrwt>
<pdfrwt beam="1">  1        2 0.87973009E-01 0.40439593E+02</pdfrwt>
<pdfrwt beam="2">  1       -2 0.57066980E-02 0.40439593E+02</pdfrwt>
<totfact> 0.74360953E+03</totfact>
</mgrwt>
</event>
<event>
 4    1  0.1352171E+004  0.2159953E+02  0.7546771E-02  0.1715271E+00
         -2   -1    0    0    0  501 -0.00000000000E+00  0.00000000000E+00  0.12079762336E+03  0.12079762336E+03  0.00000000000E+00 0. -1.
          2   -1    0    0  501    0  0.00000000000E+00 -0.00000000000E+00 -0.56103184127E+01  0.56103184127E+01  0.00000000000E+00 0.  1.
          2    1    1    2  502    0  0.12688552606E+02  0.17479715386E+02  0.22312648805E+02  0.31054695521E+02  0.00000000000E+00 0.  1.
         -2    1    1    2    0  502 -0.12688552606E+02 -0.17479715386E+02  0.92874656147E+02  0.95353246257E+02  0.00000000000E+00 0. -1.
<mgrwt>
<rscale>  2 0.21599533E+02</rscale>
<asrwt>0</asrwt>
<pdfrwt beam="2">  1        2 0.86312600E-03 0.21599533E+02</pdfrwt>
<pdfrwt beam="1">  1       -2 0.18584248E-01 0.21599533E+02</pdfrwt>
<totfact> 0.23871605E+05</totfact>
</mgrwt>
</event>
<event>
 4    1  0.1352171E+004  0.3389068E+02  0.7546771E-02  0.1558678E+00
         -2   -1    0    0    0  501 -0.00000000000E+00  0.00000000000E+00  0.83278488545E+02  0.83278488545E+02  0.00000000000E+00 0.  1.
          2   -1    0    0  501    0  0.00000000000E+00 -0.00000000000E+00 -0.18782503401E+02  0.18782503401E+02  0.00000000000E+00 0.  1.
          2    1    1    2  502    0 -0.28332010089E+02 -0.18597734298E+02  0.59438353425E+01  0.34407959766E+02  0.00000000000E+00 0.  1.
         -2    1    1    2    0  502  0.28332010089E+02  0.18597734298E+02  0.58552149801E+02  0.67653032179E+02  0.00000000000E+00 0.  1.
<mgrwt>
<rscale>  2 0.33890685E+02</rscale>
<asrwt>0</asrwt>
<pdfrwt beam="2">  1        2 0.28896160E-02 0.33890685E+02</pdfrwt>
<pdfrwt beam="1">  1       -2 0.12812075E-01 0.33890685E+02</pdfrwt>
<totfact> 0.10066776E+05</totfact>
</mgrwt>
</event>
<event>
 4    1  0.1352171E+004  0.2219287E+02  0.7546771E-02  0.1704938E+00
          2   -1    0    0  501    0  0.00000000000E+00  0.00000000000E+00  0.70057214357E+03  0.70057214357E+03  0.00000000000E+00 0.  1.
         -2   -1    0    0    0  501 -0.00000000000E+00 -0.00000000000E+00 -0.12659542066E+01  0.12659542066E+01  0.00000000000E+00 0. -1.
          2    1    1    2  502    0  0.24760648459E+01  0.22054304868E+02  0.58365688565E+03  0.58407866202E+03  0.00000000000E+00 0.  1.
         -2    1    1    2    0  502 -0.24760648459E+01 -0.22054304868E+02  0.11564930371E+03  0.11775943575E+03  0.00000000000E+00 0. -1.
<mgrwt>
<rscale>  2 0.22192865E+02</rscale>
<asrwt>0</asrwt>
<pdfrwt beam="1">  1        2 0.10778002E+00 0.22192865E+02</pdfrwt>
<pdfrwt beam="2">  1       -2 0.19476275E-03 0.22192865E+02</pdfrwt>
<totfact> 0.55415692E+05</totfact>
</mgrwt>
</event>
<event>
 4    1  0.1352171E+004  0.2576468E+02  0.7546771E-02  0.1650255E+00
         -2   -1    0    0    0  501 -0.00000000000E+00  0.00000000000E+00  0.89180102566E+02  0.89180102566E+02  0.00000000000E+00 0. -1.
          2   -1    0    0  501    0  0.00000000000E+00 -0.00000000000E+00 -0.94743714380E+01  0.94743714380E+01  0.00000000000E+00 0. -1.
          2    1    1    2  502    0  0.20243666596E+02 -0.15937775463E+02  0.17015560554E+02  0.30876334383E+02  0.00000000000E+00 0. -1.
         -2    1    1    2    0  502 -0.20243666596E+02  0.15937775463E+02  0.62690170574E+02  0.67778139621E+02  0.00000000000E+00 0. -1.
<mgrwt>
<rscale>  2 0.25764680E+02</rscale>
<asrwt>0</asrwt>
<pdfrwt beam="2">  1        2 0.14575957E-02 0.25764680E+02</pdfrwt>
<pdfrwt beam="1">  1       -2 0.13720015E-01 0.25764680E+02</pdfrwt>
<totfact> 0.20459060E+05</totfact>
</mgrwt>
</event>
<event>
 4    1  0.1352171E+004  0.2331204E+02  0.7546771E-02  0.1686501E+00
          2   -1    0    0  501    0  0.00000000000E+00  0.00000000000E+00  0.14430741030E+03  0.14430741030E+03  0.00000000000E+00 0. -1.
         -2   -1    0    0    0  501 -0.00000000000E+00 -0.00000000000E+00 -0.16897610691E+03  0.16897610691E+03  0.00000000000E+00 0.  1.
          2    1    1    2  502    0  0.16807096159E+02  0.16154647404E+02  0.14255205783E+03  0.14444563097E+03  0.00000000000E+00 0. -1.
         -2    1    1    2    0  502 -0.16807096159E+02 -0.16154647404E+02 -0.16722075444E+03  0.16883788624E+03  0.00000000000E+00 0.  1.
<mgrwt>
<rscale>  2 0.23312038E+02</rscale>
<asrwt>0</asrwt>
<pdfrwt beam="1">  1        2 0.22201140E-01 0.23312038E+02</pdfrwt>
<pdfrwt beam="2">  1       -2 0.25996324E-01 0.23312038E+02</pdfrwt>
<totfact> 0.27441526E+03</totfact>
</mgrwt>
</event>
<event>
 4    1  0.1352171E+004  0.2826468E+02  0.7546771E-02  0.1618102E+00
          2   -1    0    0  501    0  0.00000000000E+00  0.00000000000E+00  0.34238870073E+03  0.34238870073E+03  0.00000000000E+00 0. -1.
         -2   -1    0    0    0  501 -0.00000000000E+00 -0.00000000000E+00 -0.64578406740E+01  0.64578406740E+01  0.00000000000E+00 0. -1.
          2    1    1    2  502    0  0.12803747590E+02 -0.25198338812E+02  0.30736103128E+03  0.30865789441E+03  0.00000000000E+00 0. -1.
         -2    1    1    2    0  502 -0.12803747590E+02  0.25198338812E+02  0.28569828784E+02  0.40188647004E+02  0.00000000000E+00 0. -1.
<mgrwt>
<rscale>  2 0.28264682E+02</rscale>
<asrwt>0</asrwt>
<pdfrwt beam="1">  1        2 0.52675171E-01 0.28264682E+02</pdfrwt>
<pdfrwt beam="2">  1       -2 0.99351422E-03 0.28264682E+02</pdfrwt>
<totfact> 0.13765193E+05</totfact>
</mgrwt>
</event>
<event>
 4    1  0.1352171E+004  0.2521384E+02  0.7546771E-02  0.1657949E+00
         -2   -1    0    0    0  501 -0.00000000000E+00  0.00000000000E+00  0.19635864851E+02  0.19635864851E+02  0.00000000000E+00 0. -1.
          2   -1    0    0  501    0  0.00000000000E+00 -0.00000000000E+00 -0.14744096502E+03  0.14744096502E+03  0.00000000000E+00 0.  1.
          2    1    1    2  502    0 -0.25208528233E+02  0.51767363194E+00 -0.13770113236E+03  0.13999049873E+03  0.00000000000E+00 0.  1.
         -2    1    1    2    0  502  0.25208528233E+02 -0.51767363194E+00  0.98960321887E+01  0.27086331142E+02  0.00000000000E+00 0. -1.
<mgrwt>
<rscale>  2 0.25213843E+02</rscale>
<asrwt>0</asrwt>
<pdfrwt beam="2">  1        2 0.22683226E-01 0.25213843E+02</pdfrwt>
<pdfrwt beam="1">  1       -2 0.30209023E-02 0.25213843E+02</pdfrwt>
<totfact> 0.68096980E+04</totfact>
</mgrwt>
</event>
<event>
 4    1  0.1352171E+004  0.2166346E+02  0.7546771E-02  0.1714138E+00
          2   -1    0    0  501    0  0.00000000000E+00  0.00000000000E+00  0.73674012164E+03  0.73674012164E+03  0.00000000000E+00 0. -1.
         -2   -1    0    0    0  501 -0.00000000000E+00 -0.00000000000E+00 -0.86654226442E+00  0.86654226442E+00  0.00000000000E+00 0.  1.
          2    1    1    2  502    0 -0.92680057229E+01  0.19580847611E+02  0.55775096372E+03  0.55817151760E+03  0.00000000000E+00 0. -1.
         -2    1    1    2    0  502  0.92680057229E+01 -0.19580847611E+02  0.17812261566E+03  0.17943514631E+03  0.00000000000E+00 0.  1.
<mgrwt>
<rscale>  2 0.21663461E+02</rscale>
<asrwt>0</asrwt>
<pdfrwt beam="1">  1        2 0.11334413E+00 0.21663461E+02</pdfrwt>
<pdfrwt beam="2">  1       -2 0.13331478E-03 0.21663461E+02</pdfrwt>
<totfact> 0.85871487E+05</totfact>
</mgrwt>
</event>
<event>
 4    1  0.1352171E+004  0.2149538E+02  0.7546771E-02  0.1717128E+00
         -2   -1    0    0    0  501 -0.00000000000E+00  0.00000000000E+00  0.44243979711E+01  0.44243979711E+01  0.00000000000E+00 0. -1.
          2   -1    0    0  501    0  0.00000000000E+00 -0.00000000000E+00 -0.51691390539E+03  0.51691390539E+03  0.00000000000E+00 0. -1.
          2    1    1    2  502    0 -0.93463373619E+01 -0.19357100052E+02 -0.48909820037E+03  0.48957032279E+03  0.00000000000E+00 0. -1.
         -2    1    1    2    0  502  0.93463373619E+01  0.19357100052E+02 -0.23391307045E+02  0.31767980575E+02  0.00000000000E+00 0. -1.
<mgrwt>
<rscale>  2 0.21495380E+02</rscale>
<asrwt>0</asrwt>
<pdfrwt beam="2">  1        2 0.79525213E-01 0.21495380E+02</pdfrwt>
<pdfrwt beam="1">  1       -2 0.68067664E-03 0.21495380E+02</pdfrwt>
<totfact> 0.14249952E+05</totfact>
</mgrwt>
</event>
<event>
 4    1  0.1352171E+004  0.2028016E+02  0.7546771E-02  0.1739813E+00
          2   -1    0    0  501    0  0.00000000000E+00  0.00000000000E+00  0.47909469462E+01  0.47909469462E+01  0.00000000000E+00 0.  1.
         -2   -1    0    0    0  501 -0.00000000000E+00 -0.00000000000E+00 -0.86355975301E+02  0.86355975301E+02  0.00000000000E+00 0.  1.
          2    1    1    2  502    0  0.17230275363E+02  0.10695913619E+02 -0.37281268906E+02  0.42440287092E+02  0.00000000000E+00 0.  1.
         -2    1    1    2    0  502 -0.17230275363E+02 -0.10695913619E+02 -0.44283759449E+02  0.48706635156E+02  0.00000000000E+00 0.  1.
<mgrwt>
<rscale>  2 0.20280162E+02</rscale>
<asrwt>0</asrwt>
<pdfrwt beam="1">  1        2 0.73706874E-03 0.20280162E+02</pdfrwt>
<pdfrwt beam="2">  1       -2 0.13285535E-01 0.20280162E+02</pdfrwt>
<totfact> 0.48418681E+05</totfact>
</mgrwt>
</event>
<event>
 4    1  0.1352171E+004  0.3968550E+02  0.7546771E-02  0.1510539E+00
         -2   -1    0    0    0  501 -0.00000000000E+00  0.00000000000E+00  0.17299892322E+02  0.17299892322E+02  0.00000000000E+00 0.  1.
          2   -1    0    0  501    0  0.00000000000E+00 -0.00000000000E+00 -0.12708551797E+03  0.12708551797E+03  0.00000000000E+00 0.  1.
          2    1    1    2  502    0  0.25573862162E+02  0.30346606704E+02 -0.93341894677E+02  0.10142804477E+03  0.00000000000E+00 0.  1.
         -2    1    1    2    0  502 -0.25573862162E+02 -0.30346606704E+02 -0.16443730974E+02  0.42957365523E+02  0.00000000000E+00 0.  1.
<mgrwt>
<rscale>  2 0.39685501E+02</rscale>
<asrwt>0</asrwt>
<pdfrwt beam="2">  1        2 0.19551618E-01 0.39685501E+02</pdfrwt>
<pdfrwt beam="1">  1       -2 0.26615219E-02 0.39685501E+02</pdfrwt>
<totfact> 0.10490069E+05</totfact>
</mgrwt>
</event>
<event>
 4    1  0.1352171E+004  0.3763929E+02  0.7546771E-02  0.1526339E+00
         -2   -1    0    0    0  501 -0.00000000000E+00  0.00000000000E+00  0.30278967592E+03  0.30278967592E+03  0.00000000000E+00 0.  1.
          2   -1    0    0  501    0  0.00000000000E+00 -0.00000000000E+00 -0.57477607362E+01  0.57477607362E+01  0.00000000000E+00 0.  1.
          2    1    1    2  502    0 -0.31967632395E+02 -0.19869239798E+02  0.81994654652E+02  0.90221059640E+02  0.00000000000E+00 0.  1.
         -2    1    1    2    0  502  0.31967632395E+02  0.19869239798E+02  0.21504726053E+03  0.21831637701E+03  0.00000000000E+00 0.  1.
<mgrwt>
<rscale>  2 0.37639291E+02</rscale>
<asrwt>0</asrwt>
<pdfrwt beam="2">  1        2 0.88427112E-03 0.37639291E+02</pdfrwt>
<pdfrwt beam="1">  1       -2 0.46583015E-01 0.37639291E+02</pdfrwt>
<totfact> 0.54600390E+04</totfact>
</mgrwt>
</event>
<event>
 4    1  0.1352171E+004  0.2189795E+02  0.7546771E-02  0.1710023E+00
          2   -1    0    0  501    0  0.00000000000E+00  0.00000000000E+00  0.15408542942E+03  0.15408542942E+03  0.00000000000E+00 0. -1.
         -2   -1    0    0    0  501 -0.00000000000E+00 -0.00000000000E+00 -0.38365951265E+01  0.38365951265E+01  0.00000000000E+00 0.  1.
          2    1    1    2  502    0 -0.20206288540E+00 -0.21897007454E+02  0.40810054672E+02  0.46313932323E+02  0.00000000000E+00 0.  1.
         -2    1    1    2    0  502  0.20206288540E+00  0.21897007454E+02  0.10943877962E+03  0.11160809222E+03  0.00000000000E+00 0. -1.
<mgrwt>
<rscale>  2 0.21897951E+02</rscale>
<asrwt>0</asrwt>
<pdfrwt beam="1">  1        2 0.23705446E-01 0.21897951E+02</pdfrwt>
<pdfrwt beam="2">  1       -2 0.59024552E-03 0.21897951E+02</pdfrwt>
<totfact> 0.57950591E+05</totfact>
</mgrwt>
</event>
<event>
 4    1  0.1352171E+004  0.2030176E+02  0.7546771E-02  0.1739393E+00
         -2   -1    0    0    0  501 -0.00000000000E+00  0.00000000000E+00  0.26619259813E+03  0.26619259813E+03  0.00000000000E+00 0. -1.
          2   -1    0    0  501    0  0.00000000000E+00 -0.00000000000E+00 -0.11149647817E+02  0.11149647817E+02  0.00000000000E+00 0. -1.
          2    1    1    2  502    0  0.10395399609E+02  0.17438385904E+02 -0.11612443853E+01  0.20334948353E+02  0.00000000000E+00 0. -1.
         -2    1    1    2    0  502 -0.10395399609E+02 -0.17438385904E+02  0.25620419470E+03  0.25700729759E+03  0.00000000000E+00 0. -1.
<mgrwt>
<rscale>  2 0.20301764E+02</rscale>
<asrwt>0</asrwt>
<pdfrwt beam="2">  1        2 0.17153306E-02 0.20301764E+02</pdfrwt>
<pdfrwt beam="1">  1       -2 0.40952703E-01 0.20301764E+02</pdfrwt>
<totfact> 0.25376847E+04</totfact>
</mgrwt>
</event>
<event>
 4    1  0.1352171E+004  0.3539476E+02  0.7546771E-02  0.1545123E+00
          2   -1    0    0  501    0  0.00000000000E+00  0.00000000000E+00  0.45218936848E+03  0.45218936848E+03  0.00000000000E+00 0.  1.
         -2   -1    0    0    0  501 -0.00000000000E+00 -0.00000000000E+00 -0.36137529850E+01  0.36137529850E+01  0.00000000000E+00 0.  1.
          2    1    1    2  502    0 -0.86172948413E+01  0.34329738161E+02  0.33437787153E+03  0.33624596601E+03  0.00000000000E+00 0.  1.
         -2    1    1    2    0  502  0.86172948413E+01 -0.34329738161E+02  0.11419774397E+03  0.11955715546E+03  0.00000000000E+00 0.  1.
<mgrwt>
<rscale>  2 0.35394755E+02</rscale>
<asrwt>0</asrwt>
<pdfrwt beam="1">  1        2 0.69567550E-01 0.35394755E+02</pdfrwt>
<pdfrwt beam="2">  1       -2 0.55596236E-03 0.35394755E+02</pdfrwt>
<totfact> 0.24171717E+05</totfact>
</mgrwt>
</event>
<event>
 4    1  0.1352171E+004  0.2054330E+02  0.7546771E-02  0.1734735E+00
         -2   -1    0    0    0  501 -0.00000000000E+00  0.00000000000E+00  0.23526497607E+03  0.23526497607E+03  0.00000000000E+00 0. -1.
          2   -1    0    0  501    0  0.00000000000E+00 -0.00000000000E+00 -0.77000926684E+02  0.77000926684E+02  0.00000000000E+00 0.  1.
          2    1    1    2  502    0  0.13976504979E+02  0.15056050112E+02 -0.75171547726E+02  0.77928100990E+02  0.00000000000E+00 0.  1.
         -2    1    1    2    0  502 -0.13976504979E+02 -0.15056050112E+02  0.23343559711E+03  0.23433780176E+03  0.00000000000E+00 0. -1.
<mgrwt>
<rscale>  2 0.20543304E+02</rscale>
<asrwt>0</asrwt>
<pdfrwt beam="2">  1        2 0.11846297E-01 0.20543304E+02</pdfrwt>
<pdfrwt beam="1">  1       -2 0.36194611E-01 0.20543304E+02</pdfrwt>
<totfact> 0.30209974E+03</totfact>
</mgrwt>
</event>
<event>
 4    1  0.1352171E+004  0.3743434E+02  0.7546771E-02  0.1527988E+00
          2   -1    0    0  501    0  0.00000000000E+00  0.00000000000E+00  0.18188479904E+04  0.18188479904E+04  0.00000000000E+00 0.  1.
         -2   -1    0    0    0  501 -0.00000000000E+00 -0.00000000000E+00 -0.14823879160E+02  0.14823879160E+02  0.00000000000E+00 0. -1.
          2    1    1    2  502    0  0.37093807098E+02  0.50377581470E+01  0.17947045111E+04  0.17950948754E+04  0.00000000000E+00 0.  1.
         -2    1    1    2    0  502 -0.37093807098E+02 -0.50377581470E+01  0.93196001523E+01  0.38576994170E+02  0.00000000000E+00 0. -1.
<mgrwt>
<rscale>  2 0.37434336E+02</rscale>
<asrwt>0</asrwt>
<pdfrwt beam="1">  1        2 0.27982259E+00 0.37434336E+02</pdfrwt>
<pdfrwt beam="2">  1       -2 0.22805982E-02 0.37434336E+02</pdfrwt>
<totfact> 0.55654010E+03</totfact>
</mgrwt>
</event>
<event>
 4    1  0.1352171E+004  0.2804186E+02  0.7546771E-02  0.1620800E+00
          2   -1    0    0  501    0  0.00000000000E+00  0.00000000000E+00  0.10697784279E+04  0.10697784279E+04  0.00000000000E+00 0. -1.
         -2   -1    0    0    0  501 -0.00000000000E+00 -0.00000000000E+00 -0.32692974715E+01  0.32692974715E+01  0.00000000000E+00 0. -1.
          2    1    1    2  502    0 -0.36560753049E+01 -0.27802496701E+02  0.10056285022E+04  0.10060193985E+04  0.00000000000E+00 0. -1.
         -2    1    1    2    0  502  0.36560753049E+01  0.27802496701E+02  0.60880628142E+02  0.67028326791E+02  0.00000000000E+00 0. -1.
<mgrwt>
<rscale>  2 0.28041856E+02</rscale>
<asrwt>0</asrwt>
<pdfrwt beam="1">  1        2 0.16458102E+00 0.28041856E+02</pdfrwt>
<pdfrwt beam="2">  1       -2 0.50296969E-03 0.28041856E+02</pdfrwt>
<totfact> 0.10010785E+05</totfact>
</mgrwt>
</event>
<event>
 4    1  0.1352171E+004  0.2405108E+02  0.7546771E-02  0.1675018E+00
         -2   -1    0    0    0  501 -0.00000000000E+00  0.00000000000E+00  0.72008256454E+01  0.72008256454E+01  0.00000000000E+00 0. -1.
          2   -1    0    0  501    0  0.00000000000E+00 -0.00000000000E+00 -0.98933547400E+02  0.98933547400E+02  0.00000000000E+00 0. -1.
          2    1    1    2  502    0  0.21649088115E+02  0.10477189374E+02 -0.68877196788E+02  0.72955621790E+02  0.00000000000E+00 0. -1.
         -2    1    1    2    0  502 -0.21649088115E+02 -0.10477189374E+02 -0.22855524966E+02  0.33178751255E+02  0.00000000000E+00 0. -1.
<mgrwt>
<rscale>  2 0.24051081E+02</rscale>
<asrwt>0</asrwt>
<pdfrwt beam="2">  1        2 0.15220544E-01 0.24051081E+02</pdfrwt>
<pdfrwt beam="1">  1       -2 0.11078195E-02 0.24051081E+02</pdfrwt>
<totfact> 0.40938304E+05</totfact>
</mgrwt>
</event>
<event>
 4    1  0.1352171E+004  0.6682929E+02  0.7546771E-02  0.1371220E+00
         -2   -1    0    0    0  501 -0.00000000000E+00  0.00000000000E+00  0.65943894043E+02  0.65943894043E+02  0.00000000000E+00 0. -1.
          2   -1    0    0  501    0  0.00000000000E+00 -0.00000000000E+00 -0.16729893942E+03  0.16729893942E+03  0.00000000000E+00 0.  1.
          2    1    1    2  502    0  0.56606903178E+02 -0.35521994966E+02 -0.14064823205E+03  0.15571794628E+03  0.00000000000E+00 0.  1.
         -2    1    1    2    0  502 -0.56606903178E+02  0.35521994966E+02  0.39293186675E+02  0.77524887184E+02  0.00000000000E+00 0. -1.
<mgrwt>
<rscale>  2 0.66829287E+02</rscale>
<asrwt>0</asrwt>
<pdfrwt beam="2">  1        2 0.25738298E-01 0.66829287E+02</pdfrwt>
<pdfrwt beam="1">  1       -2 0.10145215E-01 0.66829287E+02</pdfrwt>
<totfact> 0.11832679E+04</totfact>
</mgrwt>
</event>
<event>
 4    1  0.1352171E+004  0.2119361E+02  0.7546771E-02  0.1722583E+00
          2   -1    0    0  501    0  0.00000000000E+00  0.00000000000E+00  0.10074108279E+04  0.10074108279E+04  0.00000000000E+00 0.  1.
         -2   -1    0    0    0  501 -0.00000000000E+00 -0.00000000000E+00 -0.48810496392E+02  0.48810496392E+02  0.00000000000E+00 0.  1.
          2    1    1    2  502    0 -0.91627839570E+01  0.19110529492E+02  0.10049932526E+04  0.10052166964E+04  0.00000000000E+00 0.  1.
         -2    1    1    2    0  502  0.91627839570E+01 -0.19110529492E+02 -0.46392921050E+02  0.51004627935E+02  0.00000000000E+00 0.  1.
<mgrwt>
<rscale>  2 0.21193606E+02</rscale>
<asrwt>0</asrwt>
<pdfrwt beam="1">  1        2 0.15498627E+00 0.21193606E+02</pdfrwt>
<pdfrwt beam="2">  1       -2 0.75093079E-02 0.21193606E+02</pdfrwt>
<totfact> 0.24793755E+03</totfact>
</mgrwt>
</event>
<event>
 4    1  0.1352171E+004  0.2016884E+02  0.7546771E-02  0.1741991E+00
         -2   -1    0    0    0  501 -0.00000000000E+00  0.00000000000E+00  0.15855230973E+03  0.15855230973E+03  0.00000000000E+00 0. -1.
          2   -1    0    0  501    0  0.00000000000E+00 -0.00000000000E+00 -0.28316136225E+02  0.28316136225E+02  0.00000000000E+00 0. -1.
          2    1    1    2  502    0 -0.17286253332E+02  0.10390734806E+02 -0.23982818008E+02  0.31336200850E+02  0.00000000000E+00 0. -1.
         -2    1    1    2    0  502  0.17286253332E+02 -0.10390734806E+02  0.15421899152E+03  0.15553224511E+03  0.00000000000E+00 0. -1.
<mgrwt>
<rscale>  2 0.20168835E+02</rscale>
<asrwt>0</asrwt>
<pdfrwt beam="2">  1        2 0.43563287E-02 0.20168835E+02</pdfrwt>
<pdfrwt beam="1">  1       -2 0.24392662E-01 0.20168835E+02</pdfrwt>
<totfact> 0.19240461E+04</totfact>
</mgrwt>
</event>
<event>
 4    1  0.1352171E+004  0.2338213E+02  0.7546771E-02  0.1685390E+00
          2   -1    0    0  501    0  0.00000000000E+00  0.00000000000E+00  0.18101464833E+03  0.18101464833E+03  0.00000000000E+00 0. -1.
         -2   -1    0    0    0  501 -0.00000000000E+00 -0.00000000000E+00 -0.31965850580E+01  0.31965850580E+01  0.00000000000E+00 0. -1.
          2    1    1    2  502    0 -0.42217010723E+01  0.22997837053E+02  0.67280921808E+02  0.71228124420E+02  0.00000000000E+00 0. -1.
         -2    1    1    2    0  502  0.42217010723E+01 -0.22997837053E+02  0.11053714146E+03  0.11298310897E+03  0.00000000000E+00 0. -1.
<mgrwt>
<rscale>  2 0.23382126E+02</rscale>
<asrwt>0</asrwt>
<pdfrwt beam="1">  1        2 0.27848400E-01 0.23382126E+02</pdfrwt>
<pdfrwt beam="2">  1       -2 0.49178246E-03 0.23382126E+02</pdfrwt>
<totfact> 0.64014179E+05</totfact>
</mgrwt>
</event>
<event>
 4    1  0.1352171E+004  0.2290486E+02  0.7546771E-02  0.1693057E+00
         -2   -1    0    0    0  501 -0.00000000000E+00  0.00000000000E+00  0.10510335622E+01  0.10510335622E+01  0.00000000000E+00 0. -1.
          2   -1    0    0  501    0  0.00000000000E+00 -0.00000000000E+00 -0.14089784327E+04  0.14089784327E+04  0.00000000000E+00 0. -1.
          2    1    1    2  502    0 -0.73527990676E+01  0.21692606501E+02 -0.12704946376E+04  0.12707010887E+04  0.00000000000E+00 0. -1.
         -2    1    1    2    0  502  0.73527990676E+01 -0.21692606501E+02 -0.13743276161E+03  0.13932837756E+03  0.00000000000E+00 0. -1.
<mgrwt>
<rscale>  2 0.22904865E+02</rscale>
<asrwt>0</asrwt>
<pdfrwt beam="2">  1        2 0.21676594E+00 0.22904865E+02</pdfrwt>
<pdfrwt beam="1">  1       -2 0.16169745E-03 0.22904865E+02</pdfrwt>
<totfact> 0.29502615E+05</totfact>
</mgrwt>
</event>
<event>
 4    1  0.1352171E+004  0.2181468E+02  0.7546771E-02  0.1711477E+00
          2   -1    0    0  501    0  0.00000000000E+00  0.00000000000E+00  0.20326452831E+01  0.20326452831E+01  0.00000000000E+00 0.  1.
         -2   -1    0    0    0  501 -0.00000000000E+00 -0.00000000000E+00 -0.51501121439E+03  0.51501121439E+03  0.00000000000E+00 0.  1.
          2    1    1    2  502    0 -0.52810307099E+01  0.21165796070E+02 -0.65565887562E+02  0.69099680321E+02  0.00000000000E+00 0.  1.
         -2    1    1    2    0  502  0.52810307099E+01 -0.21165796070E+02 -0.44741268155E+03  0.44794417935E+03  0.00000000000E+00 0.  1.
<mgrwt>
<rscale>  2 0.21814679E+02</rscale>
<asrwt>0</asrwt>
<pdfrwt beam="1">  1        2 0.31271442E-03 0.21814679E+02</pdfrwt>
<pdfrwt beam="2">  1       -2 0.79232554E-01 0.21814679E+02</pdfrwt>
<totfact> 0.65211615E+04</totfact>
</mgrwt>
</event>
<event>
 4    1  0.1352171E+004  0.2170382E+02  0.7546771E-02  0.1713425E+00
          2   -1    0    0  501    0  0.00000000000E+00  0.00000000000E+00  0.70900544468E+03  0.70900544468E+03  0.00000000000E+00 0.  1.
         -2   -1    0    0    0  501 -0.00000000000E+00 -0.00000000000E+00 -0.64978981258E+01  0.64978981258E+01  0.00000000000E+00 0.  1.
          2    1    1    2  502    0  0.20967928471E+02  0.56037370223E+01  0.69022289511E+03  0.69056404542E+03  0.00000000000E+00 0.  1.
         -2    1    1    2    0  502 -0.20967928471E+02 -0.56037370223E+01  0.12284651443E+02  0.24939297385E+02  0.00000000000E+00 0.  1.
<mgrwt>
<rscale>  2 0.21703822E+02</rscale>
<asrwt>0</asrwt>
<pdfrwt beam="1">  1        2 0.10907770E+00 0.21703822E+02</pdfrwt>
<pdfrwt beam="2">  1       -2 0.99967720E-03 0.21703822E+02</pdfrwt>
<totfact> 0.61252446E+04</totfact>
</mgrwt>
</event>
<event>
 4    1  0.1352171E+004  0.2540991E+02  0.7546771E-02  0.1655183E+00
         -2   -1    0    0    0  501 -0.00000000000E+00  0.00000000000E+00  0.17932930968E+02  0.17932930968E+02  0.00000000000E+00 0.  1.
          2   -1    0    0  501    0  0.00000000000E+00 -0.00000000000E+00 -0.68808860305E+03  0.68808860305E+03  0.00000000000E+00 0. -1.
          2    1    1    2  502    0  0.54029277735E+01  0.24828853778E+02 -0.67872884574E+03  0.67920432099E+03  0.00000000000E+00 0. -1.
         -2    1    1    2    0  502 -0.54029277735E+01 -0.24828853778E+02  0.85731736547E+01  0.26817213035E+02  0.00000000000E+00 0.  1.
<mgrwt>
<rscale>  2 0.25409912E+02</rscale>
<asrwt>0</asrwt>
<pdfrwt beam="2">  1        2 0.10585979E+00 0.25409912E+02</pdfrwt>
<pdfrwt beam="1">  1       -2 0.27589123E-02 0.25409912E+02</pdfrwt>
<totfact> 0.16221410E+04</totfact>
</mgrwt>
</event>
<event>
 4    1  0.1352171E+004  0.2089177E+02  0.7546771E-02  0.1728154E+00
         -2   -1    0    0    0  501 -0.00000000000E+00  0.00000000000E+00  0.21014747875E+03  0.21014747875E+03  0.00000000000E+00 0. -1.
          2   -1    0    0  501    0  0.00000000000E+00 -0.00000000000E+00 -0.21097675565E+01  0.21097675565E+01  0.00000000000E+00 0. -1.
          2    1    1    2  502    0 -0.50396498996E+01  0.20274810746E+02  0.90782709644E+02  0.93155603118E+02  0.00000000000E+00 0. -1.
         -2    1    1    2    0  502  0.50396498996E+01 -0.20274810746E+02  0.11725500155E+03  0.11910164319E+03  0.00000000000E+00 0. -1.
<mgrwt>
<rscale>  2 0.20891769E+02</rscale>
<asrwt>0</asrwt>
<pdfrwt beam="2">  1        2 0.32457979E-03 0.20891769E+02</pdfrwt>
<pdfrwt beam="1">  1       -2 0.32330365E-01 0.20891769E+02</pdfrwt>
<totfact> 0.33851580E+05</totfact>
</mgrwt>
</event>
<event>
 4    1  0.1352171E+004  0.2233539E+02  0.7546771E-02  0.1702515E+00
          2   -1    0    0  501    0  0.00000000000E+00  0.00000000000E+00  0.77953432641E+03  0.77953432641E+03  0.00000000000E+00 0. -1.
         -2   -1    0    0    0  501 -0.00000000000E+00 -0.00000000000E+00 -0.13309800125E+01  0.13309800125E+01  0.00000000000E+00 0. -1.
          2    1    1    2  502    0 -0.21354763686E+02 -0.65455000325E+01  0.67042529222E+03  0.67079724355E+03  0.00000000000E+00 0. -1.
         -2    1    1    2    0  502  0.21354763686E+02  0.65455000325E+01  0.10777805418E+03  0.11006806288E+03  0.00000000000E+00 0. -1.
<mgrwt>
<rscale>  2 0.22335387E+02</rscale>
<asrwt>0</asrwt>
<pdfrwt beam="1">  1        2 0.11992799E+00 0.22335387E+02</pdfrwt>
<pdfrwt beam="2">  1       -2 0.20476678E-03 0.22335387E+02</pdfrwt>
<totfact> 0.46195610E+05</totfact>
</mgrwt>
</event>
<event>
 4    1  0.1352171E+004  0.5433392E+02  0.7546771E-02  0.1423275E+00
         -2   -1    0    0    0  501 -0.00000000000E+00  0.00000000000E+00  0.82697118433E+03  0.82697118433E+03  0.00000000000E+00 0. -1.
          2   -1    0    0  501    0  0.00000000000E+00 -0.00000000000E+00 -0.45470495464E+02  0.45470495464E+02  0.00000000000E+00 0. -1.
          2    1    1    2  502    0  0.39987328621E+02 -0.36785711054E+02 -0.27996790239E+02  0.61122788317E+02  0.00000000000E+00 0. -1.
         -2    1    1    2    0  502 -0.39987328621E+02  0.36785711054E+02  0.80949747911E+03  0.81131889148E+03  0.00000000000E+00 0. -1.
<mgrwt>
<rscale>  2 0.54333921E+02</rscale>
<asrwt>0</asrwt>
<pdfrwt beam="2">  1        2 0.69954614E-02 0.54333921E+02</pdfrwt>
<pdfrwt beam="1">  1       -2 0.12722633E+00 0.54333921E+02</pdfrwt>
<totfact> 0.46033410E+02</totfact>
</mgrwt>
</event>
<event>
 4    1  0.1352171E+004  0.2459816E+02  0.7546771E-02  0.1666842E+00
          2   -1    0    0  501    0  0.00000000000E+00  0.00000000000E+00  0.39258699469E+03  0.39258699469E+03  0.00000000000E+00 0. -1.
         -2   -1    0    0    0  501 -0.00000000000E+00 -0.00000000000E+00 -0.37346525262E+01  0.37346525262E+01  0.00000000000E+00 0.  1.
          2    1    1    2  502    0  0.10941751659E+02  0.22030601694E+02  0.34628960669E+03  0.34716215381E+03  0.00000000000E+00 0. -1.
         -2    1    1    2    0  502 -0.10941751659E+02 -0.22030601694E+02  0.42562735472E+02  0.49159493399E+02  0.00000000000E+00 0.  1.
<mgrwt>
<rscale>  2 0.24598157E+02</rscale>
<asrwt>0</asrwt>
<pdfrwt beam="1">  1        2 0.60397967E-01 0.24598157E+02</pdfrwt>
<pdfrwt beam="2">  1       -2 0.57456224E-03 0.24598157E+02</pdfrwt>
<totfact> 0.24377047E+05</totfact>
</mgrwt>
</event>
<event>
 4    1  0.1352171E+004  0.2132009E+02  0.7546771E-02  0.1720283E+00
         -2   -1    0    0    0  501 -0.00000000000E+00  0.00000000000E+00  0.15716154471E+03  0.15716154471E+03  0.00000000000E+00 0.  1.
          2   -1    0    0  501    0  0.00000000000E+00 -0.00000000000E+00 -0.53065415408E+01  0.53065415408E+01  0.00000000000E+00 0. -1.
          2    1    1    2  502    0 -0.76238197798E+00  0.21306454466E+02  0.21133934603E+02  0.30019817121E+02  0.00000000000E+00 0. -1.
         -2    1    1    2    0  502  0.76238197798E+00 -0.21306454466E+02  0.13072106856E+03  0.13244826913E+03  0.00000000000E+00 0.  1.
<mgrwt>
<rscale>  2 0.21320090E+02</rscale>
<asrwt>0</asrwt>
<pdfrwt beam="2">  1        2 0.81639113E-03 0.21320090E+02</pdfrwt>
<pdfrwt beam="1">  1       -2 0.24178696E-01 0.21320090E+02</pdfrwt>
<totfact> 0.16687660E+05</totfact>
</mgrwt>
</event>
<event>
 4    1  0.1352171E+004  0.2353160E+02  0.7546771E-02  0.1683035E+00
         -2   -1    0    0    0  501 -0.00000000000E+00  0.00000000000E+00  0.66772652668E+02  0.66772652668E+02  0.00000000000E+00 0. -1.
          2   -1    0    0  501    0  0.00000000000E+00 -0.00000000000E+00 -0.30805906200E+03  0.30805906200E+03  0.00000000000E+00 0. -1.
          2    1    1    2  502    0  0.42684320721E+01  0.23141237202E+02 -0.30551926214E+03  0.30642414381E+03  0.00000000000E+00 0. -1.
         -2    1    1    2    0  502 -0.42684320721E+01 -0.23141237202E+02  0.64232852805E+02  0.68407570861E+02  0.00000000000E+00 0. -1.
<mgrwt>
<rscale>  2 0.23531604E+02</rscale>
<asrwt>0</asrwt>
<pdfrwt beam="2">  1        2 0.47393703E-01 0.23531604E+02</pdfrwt>
<pdfrwt beam="1">  1       -2 0.10272716E-01 0.23531604E+02</pdfrwt>
<totfact> 0.55127266E+03</totfact>
</mgrwt>
</event>
<event>
 4    1  0.1352171E+004  0.2533938E+02  0.7546771E-02  0.1656175E+00
         -2   -1    0    0    0  501 -0.00000000000E+00  0.00000000000E+00  0.68647622957E+00  0.68647622957E+00  0.00000000000E+00 0.  1.
          2   -1    0    0  501    0  0.00000000000E+00 -0.00000000000E+00 -0.14947051805E+04  0.14947051805E+04  0.00000000000E+00 0. -1.
          2    1    1    2  502    0 -0.21603969232E+02 -0.13242074898E+02 -0.12044107919E+04  0.12046773177E+04  0.00000000000E+00 0. -1.
         -2    1    1    2    0  502  0.21603969232E+02  0.13242074898E+02 -0.28960791230E+03  0.29071433900E+03  0.00000000000E+00 0.  1.
<mgrwt>
<rscale>  2 0.25339377E+02</rscale>
<asrwt>0</asrwt>
<pdfrwt beam="2">  1        2 0.22995414E+00 0.25339377E+02</pdfrwt>
<pdfrwt beam="1">  1       -2 0.10561196E-03 0.25339377E+02</pdfrwt>
<totfact> 0.48322557E+05</totfact>
</mgrwt>
</event>
<event>
 4    1  0.1352171E+004  0.2198701E+02  0.7546771E-02  0.1708477E+00
          2   -1    0    0  501    0  0.00000000000E+00  0.00000000000E+00  0.15166738821E+03  0.15166738821E+03  0.00000000000E+00 0.  1.
         -2   -1    0    0    0  501 -0.00000000000E+00 -0.00000000000E+00 -0.68915131624E+01  0.68915131624E+01  0.00000000000E+00 0.  1.
          2    1    1    2  502    0 -0.21822722938E+02  0.26827629055E+01  0.13051039706E+03  0.13234950773E+03  0.00000000000E+00 0.  1.
         -2    1    1    2    0  502  0.21822722938E+02 -0.26827629055E+01  0.14265477983E+02  0.26209393646E+02  0.00000000000E+00 0.  1.
<mgrwt>
<rscale>  2 0.21987006E+02</rscale>
<asrwt>0</asrwt>
<pdfrwt beam="1">  1        2 0.23333442E-01 0.21987006E+02</pdfrwt>
<pdfrwt beam="2">  1       -2 0.10602329E-02 0.21987006E+02</pdfrwt>
<totfact> 0.26827037E+05</totfact>
</mgrwt>
</event>
<event>
 4    1  0.1352171E+004  0.3956317E+02  0.7546771E-02  0.1511451E+00
         -2   -1    0    0    0  501 -0.00000000000E+00  0.00000000000E+00  0.40494656320E+02  0.40494656320E+02  0.00000000000E+00 0.  1.
          2   -1    0    0  501    0  0.00000000000E+00 -0.00000000000E+00 -0.43436549731E+02  0.43436549731E+02  0.00000000000E+00 0.  1.
          2    1    1    2  502    0  0.35078188833E+02 -0.18296577891E+02 -0.15397264752E+02  0.42453737835E+02  0.00000000000E+00 0.  1.
         -2    1    1    2    0  502 -0.35078188833E+02  0.18296577891E+02  0.12455371341E+02  0.41477468216E+02  0.00000000000E+00 0.  1.
<mgrwt>
<rscale>  2 0.39563166E+02</rscale>
<asrwt>0</asrwt>
<pdfrwt beam="2">  1        2 0.66825461E-02 0.39563166E+02</pdfrwt>
<pdfrwt beam="1">  1       -2 0.62299472E-02 0.39563166E+02</pdfrwt>
<totfact> 0.10717497E+05</totfact>
</mgrwt>
</event>
<event>
 4    1  0.1352171E+004  0.2235263E+02  0.7546771E-02  0.1702224E+00
          2   -1    0    0  501    0  0.00000000000E+00  0.00000000000E+00  0.32467798629E+01  0.32467798629E+01  0.00000000000E+00 0.  1.
         -2   -1    0    0    0  501 -0.00000000000E+00 -0.00000000000E+00 -0.56214593676E+03  0.56214593676E+03  0.00000000000E+00 0. -1.
          2    1    1    2  502    0  0.20965523167E+00  0.22351651322E+02 -0.38535031238E+02  0.44548725062E+02  0.00000000000E+00 0.  1.
         -2    1    1    2    0  502 -0.20965523167E+00 -0.22351651322E+02 -0.52036412566E+03  0.52084399156E+03  0.00000000000E+00 0. -1.
<mgrwt>
<rscale>  2 0.22352635E+02</rscale>
<asrwt>0</asrwt>
<pdfrwt beam="1">  1        2 0.49950507E-03 0.22352635E+02</pdfrwt>
<pdfrwt beam="2">  1       -2 0.86483909E-01 0.22352635E+02</pdfrwt>
<totfact> 0.29488204E+04</totfact>
</mgrwt>
</event>
<event>
 4    1  0.1352171E+004  0.2405030E+02  0.7546771E-02  0.1675030E+00
         -2   -1    0    0    0  501 -0.00000000000E+00  0.00000000000E+00  0.80552269608E+02  0.80552269608E+02  0.00000000000E+00 0. -1.
          2   -1    0    0  501    0  0.00000000000E+00 -0.00000000000E+00 -0.58166327923E+03  0.58166327923E+03  0.00000000000E+00 0. -1.
          2    1    1    2  502    0 -0.10063863870E+02 -0.21843434197E+02 -0.57961316730E+03  0.58011192082E+03  0.00000000000E+00 0. -1.
         -2    1    1    2    0  502  0.10063863870E+02  0.21843434197E+02  0.78502157677E+02  0.82103628016E+02  0.00000000000E+00 0. -1.
<mgrwt>
<rscale>  2 0.24050301E+02</rscale>
<asrwt>0</asrwt>
<pdfrwt beam="2">  1        2 0.89486660E-01 0.24050301E+02</pdfrwt>
<pdfrwt beam="1">  1       -2 0.12392657E-01 0.24050301E+02</pdfrwt>
<totfact> 0.22043313E+03</totfact>
</mgrwt>
</event>
<event>
 4    1  0.1352171E+004  0.6811462E+02  0.7546771E-02  0.1366624E+00
         -2   -1    0    0    0  501 -0.00000000000E+00  0.00000000000E+00  0.73175263566E+01  0.73175263566E+01  0.00000000000E+00 0.  1.
          2   -1    0    0  501    0  0.00000000000E+00 -0.00000000000E+00 -0.12039152249E+04  0.12039152249E+04  0.00000000000E+00 0.  1.
          2    1    1    2  502    0 -0.30676883242E+02 -0.60815543222E+02 -0.10149664178E+04  0.10172494437E+04  0.00000000000E+00 0.  1.
         -2    1    1    2    0  502  0.30676883242E+02  0.60815543222E+02 -0.18163128074E+03  0.19398330755E+03  0.00000000000E+00 0.  1.
<mgrwt>
<rscale>  2 0.68114620E+02</rscale>
<asrwt>0</asrwt>
<pdfrwt beam="2">  1        2 0.18521768E+00 0.68114620E+02</pdfrwt>
<pdfrwt beam="1">  1       -2 0.11257736E-02 0.68114620E+02</pdfrwt>
<totfact> 0.31823203E+04</totfact>
</mgrwt>
</event>
<event>
 4    1  0.1352171E+004  0.2074986E+02  0.7546771E-02  0.1730815E+00
         -2   -1    0    0    0  501 -0.00000000000E+00  0.00000000000E+00  0.76298520261E+00  0.76298520261E+00  0.00000000000E+00 0. -1.
          2   -1    0    0  501    0  0.00000000000E+00 -0.00000000000E+00 -0.63828953648E+03  0.63828953648E+03  0.00000000000E+00 0. -1.
          2    1    1    2  502    0  0.11755519969E+02 -0.17098663228E+02 -0.42754790156E+03  0.42805112389E+03  0.00000000000E+00 0. -1.
         -2    1    1    2    0  502 -0.11755519969E+02  0.17098663228E+02 -0.20997864972E+03  0.21100139780E+03  0.00000000000E+00 0. -1.
<mgrwt>
<rscale>  2 0.20749856E+02</rscale>
<asrwt>0</asrwt>
<pdfrwt beam="2">  1        2 0.98198811E-01 0.20749856E+02</pdfrwt>
<pdfrwt beam="1">  1       -2 0.11738184E-03 0.20749856E+02</pdfrwt>
<totfact> 0.11675707E+06</totfact>
</mgrwt>
</event>
<event>
 4    1  0.1352171E+004  0.2788430E+02  0.7546771E-02  0.1622726E+00
          2   -1    0    0  501    0  0.00000000000E+00  0.00000000000E+00  0.13050740752E+03  0.13050740752E+03  0.00000000000E+00 0.  1.
         -2   -1    0    0    0  501 -0.00000000000E+00 -0.00000000000E+00 -0.23106301603E+02  0.23106301603E+02  0.00000000000E+00 0. -1.
          2    1    1    2  502    0  0.24629485806E+02 -0.13073730783E+02  0.11986857367E+03  0.12306912270E+03  0.00000000000E+00 0.  1.
         -2    1    1    2    0  502 -0.24629485806E+02  0.13073730783E+02 -0.12467467754E+02  0.30544586425E+02  0.00000000000E+00 0. -1.
<mgrwt>
<rscale>  2 0.27884297E+02</rscale>
<asrwt>0</asrwt>
<pdfrwt beam="1">  1        2 0.20078062E-01 0.27884297E+02</pdfrwt>
<pdfrwt beam="2">  1       -2 0.35548157E-02 0.27884297E+02</pdfrwt>
<totfact> 0.63018981E+04</totfact>
</mgrwt>
</event>
<event>
 4    1  0.1352171E+004  0.2615620E+02  0.7546771E-02  0.1644930E+00
         -2   -1    0    0    0  501 -0.00000000000E+00  0.00000000000E+00  0.16170949863E+02  0.16170949863E+02  0.00000000000E+00 0. -1.
          2   -1    0    0  501    0  0.00000000000E+00 -0.00000000000E+00 -0.56982319542E+03  0.56982319542E+03  0.00000000000E+00 0. -1.
          2    1    1    2  502    0 -0.23601209934E+02  0.11275191023E+02 -0.55873649195E+03  0.55934838381E+03  0.00000000000E+00 0. -1.
         -2    1    1    2    0  502  0.23601209934E+02 -0.11275191023E+02  0.50842463891E+01  0.26645761469E+02  0.00000000000E+00 0. -1.
<mgrwt>
<rscale>  2 0.26156205E+02</rscale>
<asrwt>0</asrwt>
<pdfrwt beam="2">  1        2 0.87665095E-01 0.26156205E+02</pdfrwt>
<pdfrwt beam="1">  1       -2 0.24878388E-02 0.26156205E+02</pdfrwt>
<totfact> 0.22976015E+04</totfact>
</mgrwt>
</event>
<event>
 4    1  0.1352171E+004  0.2083547E+02  0.7546771E-02  0.1729207E+00
          2   -1    0    0  501    0  0.00000000000E+00  0.00000000000E+00  0.90836189435E+03  0.90836189435E+03  0.00000000000E+00 0. -1.
         -2   -1    0    0    0  501 -0.00000000000E+00 -0.00000000000E+00 -0.13567812614E+01  0.13567812614E+01  0.00000000000E+00 0.  1.
          2    1    1    2  502    0  0.14789990682E+02 -0.14675584489E+02  0.81958968127E+03  0.81985447626E+03  0.00000000000E+00 0. -1.
         -2    1    1    2    0  502 -0.14789990682E+02  0.14675584489E+02  0.87415431821E+02  0.89864199350E+02  0.00000000000E+00 0.  1.
<mgrwt>
<rscale>  2 0.20835465E+02</rscale>
<asrwt>0</asrwt>
<pdfrwt beam="1">  1        2 0.13974750E+00 0.20835465E+02</pdfrwt>
<pdfrwt beam="2">  1       -2 0.20873631E-03 0.20835465E+02</pdfrwt>
<totfact> 0.37044364E+05</totfact>
</mgrwt>
</event>
<event>
 4    1  0.1352171E+004  0.2170749E+02  0.7546771E-02  0.1713360E+00
          2   -1    0    0  501    0  0.00000000000E+00  0.00000000000E+00  0.64208326707E+02  0.64208326707E+02  0.00000000000E+00 0.  1.
         -2   -1    0    0    0  501 -0.00000000000E+00 -0.00000000000E+00 -0.16287034616E+02  0.16287034616E+02  0.00000000000E+00 0.  1.
          2    1    1    2  502    0  0.19554100129E+02  0.94261521951E+01  0.53792988445E+02  0.58007764850E+02  0.00000000000E+00 0.  1.
         -2    1    1    2    0  502 -0.19554100129E+02 -0.94261521951E+01 -0.58716963548E+01  0.22487596473E+02  0.00000000000E+00 0.  1.
<mgrwt>
<rscale>  2 0.21707491E+02</rscale>
<asrwt>0</asrwt>
<pdfrwt beam="1">  1        2 0.98782040E-02 0.21707491E+02</pdfrwt>
<pdfrwt beam="2">  1       -2 0.25056977E-02 0.21707491E+02</pdfrwt>
<totfact> 0.21176687E+05</totfact>
</mgrwt>
</event>
<event>
 4    1  0.1352171E+004  0.2085510E+02  0.7546771E-02  0.1728839E+00
          2   -1    0    0  501    0  0.00000000000E+00  0.00000000000E+00  0.13874370548E+04  0.13874370548E+04  0.00000000000E+00 0. -1.
         -2   -1    0    0    0  501 -0.00000000000E+00 -0.00000000000E+00 -0.86841129683E+00  0.86841129683E+00  0.00000000000E+00 0. -1.
          2    1    1    2  502    0  0.17761389717E+02  0.10930146624E+02  0.12481802626E+04  0.12483544781E+04  0.00000000000E+00 0. -1.
         -2    1    1    2    0  502 -0.17761389717E+02 -0.10930146624E+02  0.13838838092E+03  0.13995098801E+03  0.00000000000E+00 0. -1.
<mgrwt>
<rscale>  2 0.20855097E+02</rscale>
<asrwt>0</asrwt>
<pdfrwt beam="1">  1        2 0.21345008E+00 0.20855097E+02</pdfrwt>
<pdfrwt beam="2">  1       -2 0.13360285E-03 0.20855097E+02</pdfrwt>
<totfact> 0.37947554E+05</totfact>
</mgrwt>
</event>
<event>
 4    1  0.1352171E+004  0.3093127E+02  0.7546771E-02  0.1588017E+00
         -2   -1    0    0    0  501 -0.00000000000E+00  0.00000000000E+00  0.22100983071E+03  0.22100983071E+03  0.00000000000E+00 0. -1.
          2   -1    0    0  501    0  0.00000000000E+00 -0.00000000000E+00 -0.47932618232E+01  0.47932618232E+01  0.00000000000E+00 0. -1.
          2    1    1    2  502    0  0.25814580704E+02  0.17039691850E+02  0.72969844179E+02  0.79254916786E+02  0.00000000000E+00 0. -1.
         -2    1    1    2    0  502 -0.25814580704E+02 -0.17039691850E+02  0.14324672470E+03  0.14654817574E+03  0.00000000000E+00 0. -1.
<mgrwt>
<rscale>  2 0.30931273E+02</rscale>
<asrwt>0</asrwt>
<pdfrwt beam="2">  1        2 0.73742507E-03 0.30931273E+02</pdfrwt>
<pdfrwt beam="1">  1       -2 0.34001505E-01 0.30931273E+02</pdfrwt>
<totfact> 0.11807719E+05</totfact>
</mgrwt>
</event>
<event>
 4    1  0.1352171E+004  0.2268698E+02  0.7546771E-02  0.1696635E+00
          2   -1    0    0  501    0  0.00000000000E+00  0.00000000000E+00  0.27954213664E+03  0.27954213664E+03  0.00000000000E+00 0.  1.
         -2   -1    0    0    0  501 -0.00000000000E+00 -0.00000000000E+00 -0.10870094352E+02  0.10870094352E+02  0.00000000000E+00 0. -1.
          2    1    1    2  502    0 -0.65947764110E+00 -0.22677395089E+02  0.26667415458E+03  0.26763744858E+03  0.00000000000E+00 0.  1.
         -2    1    1    2    0  502  0.65947764110E+00  0.22677395089E+02  0.19978877048E+01  0.22774782415E+02  0.00000000000E+00 0. -1.
<mgrwt>
<rscale>  2 0.22686982E+02</rscale>
<asrwt>0</asrwt>
<pdfrwt beam="1">  1        2 0.43006477E-01 0.22686982E+02</pdfrwt>
<pdfrwt beam="2">  1       -2 0.16723224E-02 0.22686982E+02</pdfrwt>
<totfact> 0.78640684E+04</totfact>
</mgrwt>
</event>
<event>
 4    1  0.1352171E+004  0.2057540E+02  0.7546771E-02  0.1734122E+00
          2   -1    0    0  501    0  0.00000000000E+00  0.00000000000E+00  0.11381384444E+03  0.11381384444E+03  0.00000000000E+00 0.  1.
         -2   -1    0    0    0  501 -0.00000000000E+00 -0.00000000000E+00 -0.13437443952E+02  0.13437443952E+02  0.00000000000E+00 0.  1.
          2    1    1    2  502    0  0.20469114984E+02 -0.20886126691E+01  0.10429574649E+03  0.10630592508E+03  0.00000000000E+00 0.  1.
         -2    1    1    2    0  502 -0.20469114984E+02  0.20886126691E+01 -0.39193460037E+01  0.20945363310E+02  0.00000000000E+00 0.  1.
<mgrwt>
<rscale>  2 0.20575397E+02</rscale>
<asrwt>0</asrwt>
<pdfrwt beam="1">  1        2 0.17509822E-01 0.20575397E+02</pdfrwt>
<pdfrwt beam="2">  1       -2 0.20672991E-02 0.20575397E+02</pdfrwt>
<totfact> 0.14392317E+05</totfact>
</mgrwt>
</event>
<event>
 4    1  0.1352171E+004  0.2024689E+02  0.7546771E-02  0.1740462E+00
          2   -1    0    0  501    0  0.00000000000E+00  0.00000000000E+00  0.31163945613E+03  0.31163945613E+03  0.00000000000E+00 0.  1.
         -2   -1    0    0    0  501 -0.00000000000E+00 -0.00000000000E+00 -0.29757244926E+02  0.29757244926E+02  0.00000000000E+00 0. -1.
          2    1    1    2  502    0 -0.37086856642E+00  0.20243497082E+02  0.30782395081E+03  0.30848909447E+03  0.00000000000E+00 0.  1.
         -2    1    1    2    0  502  0.37086856642E+00 -0.20243497082E+02 -0.25941739602E+02  0.32907606586E+02  0.00000000000E+00 0. -1.
<mgrwt>
<rscale>  2 0.20246894E+02</rscale>
<asrwt>0</asrwt>
<pdfrwt beam="1">  1        2 0.47944530E-01 0.20246894E+02</pdfrwt>
<pdfrwt beam="2">  1       -2 0.45780379E-02 0.20246894E+02</pdfrwt>
<totfact> 0.17160037E+04</totfact>
</mgrwt>
</event>
<event>
 4    1  0.1352171E+004  0.2002392E+02  0.7546771E-02  0.1744853E+00
         -2   -1    0    0    0  501 -0.00000000000E+00  0.00000000000E+00  0.23724966186E+01  0.23724966186E+01  0.00000000000E+00 0.  1.
          2   -1    0    0  501    0  0.00000000000E+00 -0.00000000000E+00 -0.66947082068E+03  0.66947082068E+03  0.00000000000E+00 0. -1.
          2    1    1    2  502    0 -0.18751351804E+01  0.19935923451E+02 -0.62399195259E+03  0.62431315386E+03  0.00000000000E+00 0. -1.
         -2    1    1    2    0  502  0.18751351804E+01 -0.19935923451E+02 -0.43106371468E+02  0.47530163443E+02  0.00000000000E+00 0.  1.
<mgrwt>
<rscale>  2 0.20023915E+02</rscale>
<asrwt>0</asrwt>
<pdfrwt beam="2">  1        2 0.10299547E+00 0.20023915E+02</pdfrwt>
<pdfrwt beam="1">  1       -2 0.36499963E-03 0.20023915E+02</pdfrwt>
<totfact> 0.24590520E+05</totfact>
</mgrwt>
</event>
<event>
 4    1  0.1352171E+004  0.2437917E+02  0.7546771E-02  0.1670083E+00
          2   -1    0    0  501    0  0.00000000000E+00  0.00000000000E+00  0.10547850024E+03  0.10547850024E+03  0.00000000000E+00 0. -1.
         -2   -1    0    0    0  501 -0.00000000000E+00 -0.00000000000E+00 -0.21700232197E+03  0.21700232197E+03  0.00000000000E+00 0. -1.
          2    1    1    2  502    0 -0.14624362831E+00 -0.24378729035E+02  0.10337132610E+03  0.10620722610E+03  0.00000000000E+00 0. -1.
         -2    1    1    2    0  502  0.14624362831E+00  0.24378729035E+02 -0.21489514783E+03  0.21627359611E+03  0.00000000000E+00 0. -1.
<mgrwt>
<rscale>  2 0.24379168E+02</rscale>
<asrwt>0</asrwt>
<pdfrwt beam="1">  1        2 0.16227461E-01 0.24379168E+02</pdfrwt>
<pdfrwt beam="2">  1       -2 0.33384973E-01 0.24379168E+02</pdfrwt>
<totfact> 0.25099804E+03</totfact>
</mgrwt>
</event>
<event>
 4    1  0.1352171E+004  0.2555936E+02  0.7546771E-02  0.1653095E+00
          2   -1    0    0  501    0  0.00000000000E+00  0.00000000000E+00  0.11749603173E+03  0.11749603173E+03  0.00000000000E+00 0. -1.
         -2   -1    0    0    0  501 -0.00000000000E+00 -0.00000000000E+00 -0.74865686439E+02  0.74865686439E+02  0.00000000000E+00 0. -1.
          2    1    1    2  502    0 -0.23329636666E+02  0.10440730271E+02  0.11385562217E+03  0.11668926041E+03  0.00000000000E+00 0. -1.
         -2    1    1    2    0  502  0.23329636666E+02 -0.10440730271E+02 -0.71225276883E+02  0.75672457754E+02  0.00000000000E+00 0. -1.
<mgrwt>
<rscale>  2 0.25559358E+02</rscale>
<asrwt>0</asrwt>
<pdfrwt beam="1">  1        2 0.18076313E-01 0.25559358E+02</pdfrwt>
<pdfrwt beam="2">  1       -2 0.11517798E-01 0.25559358E+02</pdfrwt>
<totfact> 0.12577895E+04</totfact>
</mgrwt>
</event>
<event>
 4    1  0.1352171E+004  0.3330095E+02  0.7546771E-02  0.1564228E+00
          2   -1    0    0  501    0  0.00000000000E+00  0.00000000000E+00  0.11772565628E+04  0.11772565628E+04  0.00000000000E+00 0.  1.
         -2   -1    0    0    0  501 -0.00000000000E+00 -0.00000000000E+00 -0.96105846950E+00  0.96105846950E+00  0.00000000000E+00 0.  1.
          2    1    1    2  502    0  0.30689726918E+02 -0.12926475787E+02  0.67114867628E+03  0.67197432896E+03  0.00000000000E+00 0.  1.
         -2    1    1    2    0  502 -0.30689726918E+02  0.12926475787E+02  0.50514682806E+03  0.50624329232E+03  0.00000000000E+00 0.  1.
<mgrwt>
<rscale>  2 0.33300948E+02</rscale>
<asrwt>0</asrwt>
<pdfrwt beam="1">  1        2 0.18111524E+00 0.33300948E+02</pdfrwt>
<pdfrwt beam="2">  1       -2 0.14785609E-03 0.33300948E+02</pdfrwt>
<totfact> 0.47300114E+05</totfact>
</mgrwt>
</event>
<event>
 4    1  0.1352171E+004  0.2031108E+02  0.7546771E-02  0.1739212E+00
         -2   -1    0    0    0  501 -0.00000000000E+00  0.00000000000E+00  0.17125443195E+03  0.17125443195E+03  0.00000000000E+00 0.  1.
          2   -1    0    0  501    0  0.00000000000E+00 -0.00000000000E+00 -0.54091645011E+02  0.54091645011E+02  0.00000000000E+00 0. -1.
          2    1    1    2  502    0  0.16270606163E+02 -0.12157603802E+02 -0.51554168268E+02  0.55410939542E+02  0.00000000000E+00 0. -1.
         -2    1    1    2    0  502 -0.16270606163E+02  0.12157603802E+02  0.16871695521E+03  0.16993513742E+03  0.00000000000E+00 0.  1.
<mgrwt>
<rscale>  2 0.20311080E+02</rscale>
<asrwt>0</asrwt>
<pdfrwt beam="2">  1        2 0.83217917E-02 0.20311080E+02</pdfrwt>
<pdfrwt beam="1">  1       -2 0.26346835E-01 0.20311080E+02</pdfrwt>
<totfact> 0.78034673E+03</totfact>
</mgrwt>
</event>
<event>
 4    1  0.1352171E+004  0.3084787E+02  0.7546771E-02  0.1588901E+00
         -2   -1    0    0    0  501 -0.00000000000E+00  0.00000000000E+00  0.13041201126E+03  0.13041201126E+03  0.00000000000E+00 0.  1.
          2   -1    0    0  501    0  0.00000000000E+00 -0.00000000000E+00 -0.10416041856E+03  0.10416041856E+03  0.00000000000E+00 0.  1.
          2    1    1    2  502    0  0.15042665653E+02  0.26931565209E+02 -0.99977678107E+02  0.10462851960E+03  0.00000000000E+00 0.  1.
         -2    1    1    2    0  502 -0.15042665653E+02 -0.26931565209E+02  0.12622927081E+03  0.12994391022E+03  0.00000000000E+00 0.  1.
<mgrwt>
<rscale>  2 0.30847869E+02</rscale>
<asrwt>0</asrwt>
<pdfrwt beam="2">  1        2 0.16024680E-01 0.30847869E+02</pdfrwt>
<pdfrwt beam="1">  1       -2 0.20063386E-01 0.30847869E+02</pdfrwt>
<totfact> 0.61725245E+03</totfact>
</mgrwt>
</event>
<event>
 4    1  0.1352171E+004  0.2447130E+02  0.7546771E-02  0.1668714E+00
          2   -1    0    0  501    0  0.00000000000E+00  0.00000000000E+00  0.60409276849E+01  0.60409276849E+01  0.00000000000E+00 0.  1.
         -2   -1    0    0    0  501 -0.00000000000E+00 -0.00000000000E+00 -0.12620051312E+03  0.12620051312E+03  0.00000000000E+00 0.  1.
          2    1    1    2  502    0 -0.18495560259E+02 -0.16023690782E+02 -0.29456941276E+02  0.38295636891E+02  0.00000000000E+00 0.  1.
         -2    1    1    2    0  502  0.18495560259E+02  0.16023690782E+02 -0.90702644163E+02  0.93945803918E+02  0.00000000000E+00 0.  1.
<mgrwt>
<rscale>  2 0.24471298E+02</rscale>
<asrwt>0</asrwt>
<pdfrwt beam="1">  1        2 0.92937345E-03 0.24471298E+02</pdfrwt>
<pdfrwt beam="2">  1       -2 0.19415464E-01 0.24471298E+02</pdfrwt>
<totfact> 0.20990740E+05</totfact>
</mgrwt>
</event>
<event>
 4    1  0.1352171E+004  0.2357567E+02  0.7546771E-02  0.1682345E+00
         -2   -1    0    0    0  501 -0.00000000000E+00  0.00000000000E+00  0.10991632672E+04  0.10991632672E+04  0.00000000000E+00 0. -1.
          2   -1    0    0  501    0  0.00000000000E+00 -0.00000000000E+00 -0.38262105358E+03  0.38262105358E+03  0.00000000000E+00 0. -1.
          2    1    1    2  502    0 -0.23512730561E+02  0.17215706694E+01 -0.38213131350E+03  0.38285787580E+03  0.00000000000E+00 0. -1.
         -2    1    1    2    0  502  0.23512730561E+02 -0.17215706694E+01  0.10986735271E+04  0.10989264450E+04  0.00000000000E+00 0. -1.
<mgrwt>
<rscale>  2 0.23575672E+02</rscale>
<asrwt>0</asrwt>
<pdfrwt beam="2">  1        2 0.58864778E-01 0.23575672E+02</pdfrwt>
<pdfrwt beam="1">  1       -2 0.16910204E+00 0.23575672E+02</pdfrwt>
<totfact> 0.22364914E+01</totfact>
</mgrwt>
</event>
<event>
 4    1  0.1352171E+004  0.2614371E+02  0.7546771E-02  0.1645098E+00
         -2   -1    0    0    0  501 -0.00000000000E+00  0.00000000000E+00  0.79439288873E+02  0.79439288873E+02  0.00000000000E+00 0. -1.
          2   -1    0    0  501    0  0.00000000000E+00 -0.00000000000E+00 -0.32510482751E+02  0.32510482751E+02  0.00000000000E+00 0. -1.
          2    1    1    2  502    0 -0.98851130702E+00  0.26125019188E+02 -0.24535411796E+02  0.35853594160E+02  0.00000000000E+00 0. -1.
         -2    1    1    2    0  502  0.98851130702E+00 -0.26125019188E+02  0.71464217917E+02  0.76096177464E+02  0.00000000000E+00 0. -1.
<mgrwt>
<rscale>  2 0.26143714E+02</rscale>
<asrwt>0</asrwt>
<pdfrwt beam="2">  1        2 0.50016128E-02 0.26143714E+02</pdfrwt>
<pdfrwt beam="1">  1       -2 0.12221429E-01 0.26143714E+02</pdfrwt>
<totfact> 0.51199763E+04</totfact>
</mgrwt>
</event>
<event>
 4    1  0.1352171E+004  0.2573653E+02  0.7546771E-02  0.1650643E+00
          2   -1    0    0  501    0  0.00000000000E+00  0.00000000000E+00  0.36379162516E+02  0.36379162516E+02  0.00000000000E+00 0. -1.
         -2   -1    0    0    0  501 -0.00000000000E+00 -0.00000000000E+00 -0.49147259224E+02  0.49147259224E+02  0.00000000000E+00 0. -1.
          2    1    1    2  502    0  0.16599130338E+02  0.19668187321E+02  0.27545654898E+02  0.37697902120E+02  0.00000000000E+00 0. -1.
         -2    1    1    2    0  502 -0.16599130338E+02 -0.19668187321E+02 -0.40313751606E+02  0.47828519620E+02  0.00000000000E+00 0. -1.
<mgrwt>
<rscale>  2 0.25736525E+02</rscale>
<asrwt>0</asrwt>
<pdfrwt beam="1">  1        2 0.55967942E-02 0.25736525E+02</pdfrwt>
<pdfrwt beam="2">  1       -2 0.75611168E-02 0.25736525E+02</pdfrwt>
<totfact> 0.90992164E+04</totfact>
</mgrwt>
</event>
<event>
 4    1  0.1352171E+004  0.2847065E+02  0.7546771E-02  0.1615636E+00
          2   -1    0    0  501    0  0.00000000000E+00  0.00000000000E+00  0.28561662270E+02  0.28561662270E+02  0.00000000000E+00 0. -1.
         -2   -1    0    0    0  501 -0.00000000000E+00 -0.00000000000E+00 -0.10989073176E+03  0.10989073176E+03  0.00000000000E+00 0. -1.
          2    1    1    2  502    0  0.19351624908E+01  0.28404807457E+02  0.18956227911E+02  0.34204042409E+02  0.00000000000E+00 0. -1.
         -2    1    1    2    0  502 -0.19351624908E+01 -0.28404807457E+02 -0.10028529740E+03  0.10424835162E+03  0.00000000000E+00 0. -1.
<mgrwt>
<rscale>  2 0.28470651E+02</rscale>
<asrwt>0</asrwt>
<pdfrwt beam="1">  1        2 0.43941020E-02 0.28470651E+02</pdfrwt>
<pdfrwt beam="2">  1       -2 0.16906266E-01 0.28470651E+02</pdfrwt>
<totfact> 0.36958134E+04</totfact>
</mgrwt>
</event>
<event>
 4    1  0.1352171E+004  0.2872942E+02  0.7546771E-02  0.1612573E+00
          2   -1    0    0  501    0  0.00000000000E+00  0.00000000000E+00  0.22492998642E+02  0.22492998642E+02  0.00000000000E+00 0. -1.
         -2   -1    0    0    0  501 -0.00000000000E+00 -0.00000000000E+00 -0.37149885157E+02  0.37149885157E+02  0.00000000000E+00 0. -1.
          2    1    1    2  502    0 -0.23320488669E+02  0.16778953752E+02 -0.10628682620E+02  0.30632456236E+02  0.00000000000E+00 0. -1.
         -2    1    1    2    0  502  0.23320488669E+02 -0.16778953752E+02 -0.40282038957E+01  0.29010427563E+02  0.00000000000E+00 0. -1.
<mgrwt>
<rscale>  2 0.28729415E+02</rscale>
<asrwt>0</asrwt>
<pdfrwt beam="1">  1        2 0.34604614E-02 0.28729415E+02</pdfrwt>
<pdfrwt beam="2">  1       -2 0.57153669E-02 0.28729415E+02</pdfrwt>
<totfact> 0.25544585E+05</totfact>
</mgrwt>
</event>
<event>
 4    1  0.1352171E+004  0.2340770E+02  0.7546771E-02  0.1684985E+00
          2   -1    0    0  501    0  0.00000000000E+00  0.00000000000E+00  0.49320353664E+03  0.49320353664E+03  0.00000000000E+00 0. -1.
         -2   -1    0    0    0  501 -0.00000000000E+00 -0.00000000000E+00 -0.45072227836E+02  0.45072227836E+02  0.00000000000E+00 0. -1.
          2    1    1    2  502    0  0.14900316172E+02 -0.18052723564E+02  0.48986598353E+03  0.49042491992E+03  0.00000000000E+00 0. -1.
         -2    1    1    2    0  502 -0.14900316172E+02  0.18052723564E+02 -0.41734674731E+02  0.47850844559E+02  0.00000000000E+00 0. -1.
<mgrwt>
<rscale>  2 0.23407696E+02</rscale>
<asrwt>0</asrwt>
<pdfrwt beam="1">  1        2 0.75877463E-01 0.23407696E+02</pdfrwt>
<pdfrwt beam="2">  1       -2 0.69341893E-02 0.23407696E+02</pdfrwt>
<totfact> 0.61572380E+03</totfact>
</mgrwt>
</event>
<event>
 4    1  0.1352171E+004  0.7972950E+02  0.7546771E-02  0.1329821E+00
         -2   -1    0    0    0  501 -0.00000000000E+00  0.00000000000E+00  0.34264130411E+02  0.34264130411E+02  0.00000000000E+00 0. -1.
          2   -1    0    0  501    0  0.00000000000E+00 -0.00000000000E+00 -0.23049426838E+04  0.23049426838E+04  0.00000000000E+00 0. -1.
          2    1    1    2  502    0 -0.36843839478E+01  0.79644327798E+02 -0.22568850764E+04  0.22582929486E+04  0.00000000000E+00 0. -1.
         -2    1    1    2    0  502  0.36843839478E+01 -0.79644327798E+02 -0.13793476954E+02  0.80913865573E+02  0.00000000000E+00 0. -1.
<mgrwt>
<rscale>  2 0.79729503E+02</rscale>
<asrwt>0</asrwt>
<pdfrwt beam="2">  1        2 0.35460653E+00 0.79729503E+02</pdfrwt>
<pdfrwt beam="1">  1       -2 0.52714053E-02 0.79729503E+02</pdfrwt>
<totfact> 0.96513900E+02</totfact>
</mgrwt>
</event>
<event>
 4    1  0.1352171E+004  0.3423162E+02  0.7546771E-02  0.1555532E+00
          2   -1    0    0  501    0  0.00000000000E+00  0.00000000000E+00  0.36907236465E+03  0.36907236465E+03  0.00000000000E+00 0.  1.
         -2   -1    0    0    0  501 -0.00000000000E+00 -0.00000000000E+00 -0.32782287907E+01  0.32782287907E+01  0.00000000000E+00 0.  1.
          2    1    1    2  502    0  0.27786455985E+02 -0.19992920912E+02  0.21593455706E+03  0.21863105213E+03  0.00000000000E+00 0.  1.
         -2    1    1    2    0  502 -0.27786455985E+02  0.19992920912E+02  0.14985957880E+03  0.15371954131E+03  0.00000000000E+00 0.  1.
<mgrwt>
<rscale>  2 0.34231623E+02</rscale>
<asrwt>0</asrwt>
<pdfrwt beam="1">  1        2 0.56780331E-01 0.34231623E+02</pdfrwt>
<pdfrwt beam="2">  1       -2 0.50434318E-03 0.34231623E+02</pdfrwt>
<totfact> 0.33628283E+05</totfact>
</mgrwt>
</event>
<event>
 4    1  0.1352171E+004  0.2426492E+02  0.7546771E-02  0.1671790E+00
          2   -1    0    0  501    0  0.00000000000E+00  0.00000000000E+00  0.45401905549E+02  0.45401905549E+02  0.00000000000E+00 0.  1.
         -2   -1    0    0    0  501 -0.00000000000E+00 -0.00000000000E+00 -0.25308735574E+02  0.25308735574E+02  0.00000000000E+00 0.  1.
          2    1    1    2  502    0  0.24253886309E+02  0.73159137316E+00  0.34734506623E+02  0.42370652312E+02  0.00000000000E+00 0.  1.
         -2    1    1    2    0  502 -0.24253886309E+02 -0.73159137316E+00 -0.14641336648E+02  0.28339988812E+02  0.00000000000E+00 0.  1.
<mgrwt>
<rscale>  2 0.24264918E+02</rscale>
<asrwt>0</asrwt>
<pdfrwt beam="1">  1        2 0.69849085E-02 0.24264918E+02</pdfrwt>
<pdfrwt beam="2">  1       -2 0.38936516E-02 0.24264918E+02</pdfrwt>
<totfact> 0.17752524E+05</totfact>
</mgrwt>
</event>
<event>
 4    1  0.1352171E+004  0.2810528E+02  0.7546771E-02  0.1620029E+00
          2   -1    0    0  501    0  0.00000000000E+00  0.00000000000E+00  0.13702600401E+03  0.13702600401E+03  0.00000000000E+00 0. -1.
         -2   -1    0    0    0  501 -0.00000000000E+00 -0.00000000000E+00 -0.68568638050E+01  0.68568638050E+01  0.00000000000E+00 0.  1.
          2    1    1    2  502    0 -0.27651597902E+02  0.50294899432E+01  0.93797044495E+02  0.97917272182E+02  0.00000000000E+00 0. -1.
         -2    1    1    2    0  502  0.27651597902E+02 -0.50294899432E+01  0.36372095715E+02  0.45965595637E+02  0.00000000000E+00 0.  1.
<mgrwt>
<rscale>  2 0.28105278E+02</rscale>
<asrwt>0</asrwt>
<pdfrwt beam="1">  1        2 0.21080922E-01 0.28105278E+02</pdfrwt>
<pdfrwt beam="2">  1       -2 0.10549022E-02 0.28105278E+02</pdfrwt>
<totfact> 0.32169250E+05</totfact>
</mgrwt>
</event>
<event>
 4    1  0.1352171E+004  0.2841116E+02  0.7546771E-02  0.1616346E+00
          2   -1    0    0  501    0  0.00000000000E+00  0.00000000000E+00  0.27461774147E+03  0.27461774147E+03  0.00000000000E+00 0. -1.
         -2   -1    0    0    0  501 -0.00000000000E+00 -0.00000000000E+00 -0.44383445433E+01  0.44383445433E+01  0.00000000000E+00 0. -1.
          2    1    1    2  502    0 -0.17473033565E+02  0.22402832619E+02  0.21617703804E+03  0.21803601902E+03  0.00000000000E+00 0. -1.
         -2    1    1    2    0  502  0.17473033565E+02 -0.22402832619E+02  0.54002358884E+02  0.61020066997E+02  0.00000000000E+00 0. -1.
<mgrwt>
<rscale>  2 0.28411156E+02</rscale>
<asrwt>0</asrwt>
<pdfrwt beam="1">  1        2 0.42248870E-01 0.28411156E+02</pdfrwt>
<pdfrwt beam="2">  1       -2 0.68282245E-03 0.28411156E+02</pdfrwt>
<totfact> 0.28577691E+05</totfact>
</mgrwt>
</event>
<event>
 4    1  0.1352171E+004  0.2002414E+02  0.7546771E-02  0.1744848E+00
          2   -1    0    0  501    0  0.00000000000E+00  0.00000000000E+00  0.18853036255E+03  0.18853036255E+03  0.00000000000E+00 0.  1.
         -2   -1    0    0    0  501 -0.00000000000E+00 -0.00000000000E+00 -0.40631079739E+02  0.40631079739E+02  0.00000000000E+00 0. -1.
          2    1    1    2  502    0  0.18252012348E+02  0.82359151223E+01  0.18549124274E+03  0.18656893468E+03  0.00000000000E+00 0.  1.
         -2    1    1    2    0  502 -0.18252012348E+02 -0.82359151223E+01 -0.37591959935E+02  0.42592507609E+02  0.00000000000E+00 0. -1.
<mgrwt>
<rscale>  2 0.20024142E+02</rscale>
<asrwt>0</asrwt>
<pdfrwt beam="1">  1        2 0.29004671E-01 0.20024142E+02</pdfrwt>
<pdfrwt beam="2">  1       -2 0.62509354E-02 0.20024142E+02</pdfrwt>
<totfact> 0.18104269E+04</totfact>
</mgrwt>
</event>
<event>
 4    1  0.1352171E+004  0.2082325E+02  0.7546771E-02  0.1729436E+00
         -2   -1    0    0    0  501 -0.00000000000E+00  0.00000000000E+00  0.73785796614E+00  0.73785796614E+00  0.00000000000E+00 0. -1.
          2   -1    0    0  501    0  0.00000000000E+00 -0.00000000000E+00 -0.15444046710E+04  0.15444046710E+04  0.00000000000E+00 0. -1.
          2    1    1    2  502    0 -0.36186584248E+01 -0.20506410797E+02 -0.13799077097E+04  0.13800648155E+04  0.00000000000E+00 0. -1.
         -2    1    1    2    0  502  0.36186584248E+01  0.20506410797E+02 -0.16375910328E+03  0.16507771345E+03  0.00000000000E+00 0. -1.
<mgrwt>
<rscale>  2 0.20823246E+02</rscale>
<asrwt>0</asrwt>
<pdfrwt beam="2">  1        2 0.23759939E+00 0.20823246E+02</pdfrwt>
<pdfrwt beam="1">  1       -2 0.11351725E-03 0.20823246E+02</pdfrwt>
<totfact> 0.39629465E+05</totfact>
</mgrwt>
</event>
<event>
 4    1  0.1352171E+004  0.2113257E+02  0.7546771E-02  0.1723700E+00
         -2   -1    0    0    0  501 -0.00000000000E+00  0.00000000000E+00  0.30030326222E+01  0.30030326222E+01  0.00000000000E+00 0.  1.
          2   -1    0    0  501    0  0.00000000000E+00 -0.00000000000E+00 -0.28301015476E+03  0.28301015476E+03  0.00000000000E+00 0. -1.
          2    1    1    2  502    0  0.69296457651E+01 -0.19964102741E+02 -0.23851596938E+03  0.23945031434E+03  0.00000000000E+00 0. -1.
         -2    1    1    2    0  502 -0.69296457651E+01  0.19964102741E+02 -0.41491152757E+02  0.46562873040E+02  0.00000000000E+00 0.  1.
<mgrwt>
<rscale>  2 0.21132567E+02</rscale>
<asrwt>0</asrwt>
<pdfrwt beam="2">  1        2 0.43540006E-01 0.21132567E+02</pdfrwt>
<pdfrwt beam="1">  1       -2 0.46200520E-03 0.21132567E+02</pdfrwt>
<totfact> 0.43166346E+05</totfact>
</mgrwt>
</event>
<event>
 4    1  0.1352171E+004  0.2180799E+02  0.7546771E-02  0.1711594E+00
         -2   -1    0    0    0  501 -0.00000000000E+00  0.00000000000E+00  0.14250267335E+01  0.14250267335E+01  0.00000000000E+00 0.  1.
          2   -1    0    0  501    0  0.00000000000E+00 -0.00000000000E+00 -0.49721603609E+03  0.49721603609E+03  0.00000000000E+00 0. -1.
          2    1    1    2  502    0 -0.83979252385E+01 -0.20126180455E+02 -0.39085488422E+03  0.39146280641E+03  0.00000000000E+00 0. -1.
         -2    1    1    2    0  502  0.83979252385E+01  0.20126180455E+02 -0.10493612514E+03  0.10717825642E+03  0.00000000000E+00 0.  1.
<mgrwt>
<rscale>  2 0.21807987E+02</rscale>
<asrwt>0</asrwt>
<pdfrwt beam="2">  1        2 0.76494772E-01 0.21807987E+02</pdfrwt>
<pdfrwt beam="1">  1       -2 0.21923489E-03 0.21807987E+02</pdfrwt>
<totfact> 0.67305217E+05</totfact>
</mgrwt>
</event>
<event>
 4    1  0.1352171E+004  0.3145143E+02  0.7546771E-02  0.1582578E+00
         -2   -1    0    0    0  501 -0.00000000000E+00  0.00000000000E+00  0.84349964874E+01  0.84349964874E+01  0.00000000000E+00 0. -1.
          2   -1    0    0  501    0  0.00000000000E+00 -0.00000000000E+00 -0.86251525785E+03  0.86251525785E+03  0.00000000000E+00 0.  1.
          2    1    1    2  502    0 -0.31354040035E+02  0.24732151963E+01 -0.83182927875E+03  0.83242365512E+03  0.00000000000E+00 0.  1.
         -2    1    1    2    0  502  0.31354040035E+02 -0.24732151963E+01 -0.22250982612E+02  0.38526599216E+02  0.00000000000E+00 0. -1.
<mgrwt>
<rscale>  2 0.31451433E+02</rscale>
<asrwt>0</asrwt>
<pdfrwt beam="2">  1        2 0.13269468E+00 0.31451433E+02</pdfrwt>
<pdfrwt beam="1">  1       -2 0.12976915E-02 0.31451433E+02</pdfrwt>
<totfact> 0.36750597E+04</totfact>
</mgrwt>
</event>
<event>
 4    1  0.1352171E+004  0.2427740E+02  0.7546771E-02  0.1671603E+00
          2   -1    0    0  501    0  0.00000000000E+00  0.00000000000E+00  0.14401014424E+03  0.14401014424E+03  0.00000000000E+00 0.  1.
         -2   -1    0    0    0  501 -0.00000000000E+00 -0.00000000000E+00 -0.61365733214E+01  0.61365733214E+01  0.00000000000E+00 0.  1.
          2    1    1    2  502    0  0.16811658200E+02 -0.17514559456E+02  0.25610755945E+02  0.35288843342E+02  0.00000000000E+00 0.  1.
         -2    1    1    2    0  502 -0.16811658200E+02  0.17514559456E+02  0.11226281498E+03  0.11485787422E+03  0.00000000000E+00 0.  1.
<mgrwt>
<rscale>  2 0.24277402E+02</rscale>
<asrwt>0</asrwt>
<pdfrwt beam="1">  1        2 0.22155404E-01 0.24277402E+02</pdfrwt>
<pdfrwt beam="2">  1       -2 0.94408831E-03 0.24277402E+02</pdfrwt>
<totfact> 0.34082737E+05</totfact>
</mgrwt>
</event>
<event>
 4    1  0.1352171E+004  0.2019328E+02  0.7546771E-02  0.1741512E+00
          2   -1    0    0  501    0  0.00000000000E+00  0.00000000000E+00  0.19984216505E+03  0.19984216505E+03  0.00000000000E+00 0.  1.
         -2   -1    0    0    0  501 -0.00000000000E+00 -0.00000000000E+00 -0.60251697880E+01  0.60251697880E+01  0.00000000000E+00 0.  1.
          2    1    1    2  502    0  0.10947250825E+02  0.16968389474E+02  0.18061737784E+03  0.18174269096E+03  0.00000000000E+00 0.  1.
         -2    1    1    2    0  502 -0.10947250825E+02 -0.16968389474E+02  0.13199617429E+02  0.24124643878E+02  0.00000000000E+00 0.  1.
<mgrwt>
<rscale>  2 0.20193280E+02</rscale>
<asrwt>0</asrwt>
<pdfrwt beam="1">  1        2 0.30744943E-01 0.20193280E+02</pdfrwt>
<pdfrwt beam="2">  1       -2 0.92694935E-03 0.20193280E+02</pdfrwt>
<totfact> 0.23684565E+05</totfact>
</mgrwt>
</event>
<event>
 4    1  0.1352171E+004  0.3636738E+02  0.7546771E-02  0.1536783E+00
         -2   -1    0    0    0  501 -0.00000000000E+00  0.00000000000E+00  0.18369923300E+01  0.18369923300E+01  0.00000000000E+00 0.  1.
          2   -1    0    0  501    0  0.00000000000E+00 -0.00000000000E+00 -0.17309312507E+04  0.17309312507E+04  0.00000000000E+00 0.  1.
          2    1    1    2  502    0 -0.70618036933E+01 -0.35675163912E+02 -0.15266675897E+04  0.15271006894E+04  0.00000000000E+00 0.  1.
         -2    1    1    2    0  502  0.70618036933E+01  0.35675163912E+02 -0.20242666867E+03  0.20566755355E+03  0.00000000000E+00 0.  1.
<mgrwt>
<rscale>  2 0.36367381E+02</rscale>
<asrwt>0</asrwt>
<pdfrwt beam="2">  1        2 0.26629551E+00 0.36367381E+02</pdfrwt>
<pdfrwt beam="1">  1       -2 0.28261591E-03 0.36367381E+02</pdfrwt>
<totfact> 0.10759955E+05</totfact>
</mgrwt>
</event>
<event>
 4    1  0.1352171E+004  0.2573054E+02  0.7546771E-02  0.1650725E+00
         -2   -1    0    0    0  501 -0.00000000000E+00  0.00000000000E+00  0.91030634585E+01  0.91030634585E+01  0.00000000000E+00 0. -1.
          2   -1    0    0  501    0  0.00000000000E+00 -0.00000000000E+00 -0.77356321824E+02  0.77356321824E+02  0.00000000000E+00 0.  1.
          2    1    1    2  502    0  0.23640787368E+02  0.10157458754E+02 -0.44699136426E+02  0.51575901281E+02  0.00000000000E+00 0.  1.
         -2    1    1    2    0  502 -0.23640787368E+02 -0.10157458754E+02 -0.23554121940E+02  0.34883484001E+02  0.00000000000E+00 0. -1.
<mgrwt>
<rscale>  2 0.25730542E+02</rscale>
<asrwt>0</asrwt>
<pdfrwt beam="2">  1        2 0.11900972E-01 0.25730542E+02</pdfrwt>
<pdfrwt beam="1">  1       -2 0.14004714E-02 0.25730542E+02</pdfrwt>
<totfact> 0.39924954E+05</totfact>
</mgrwt>
</event>
<event>
 4    1  0.1352171E+004  0.2086234E+02  0.7546771E-02  0.1728704E+00
         -2   -1    0    0    0  501 -0.00000000000E+00  0.00000000000E+00  0.18537635672E+00  0.18537635672E+00  0.00000000000E+00 0. -1.
          2   -1    0    0  501    0  0.00000000000E+00 -0.00000000000E+00 -0.23847053371E+04  0.23847053371E+04  0.00000000000E+00 0.  1.
          2    1    1    2  502    0 -0.82829667500E+01 -0.19147577717E+02 -0.13404869017E+04  0.13406492348E+04  0.00000000000E+00 0.  1.
         -2    1    1    2    0  502  0.82829667500E+01  0.19147577717E+02 -0.10440330591E+04  0.10442414786E+04  0.00000000000E+00 0. -1.
<mgrwt>
<rscale>  2 0.20862341E+02</rscale>
<asrwt>0</asrwt>
<pdfrwt beam="2">  1        2 0.36686825E+00 0.20862341E+02</pdfrwt>
<pdfrwt beam="1">  1       -2 0.28520177E-04 0.20862341E+02</pdfrwt>
<totfact> 0.98289446E+05</totfact>
</mgrwt>
</event>
<event>
 4    1  0.1352171E+004  0.3043954E+02  0.7546771E-02  0.1593280E+00
         -2   -1    0    0    0  501 -0.00000000000E+00  0.00000000000E+00  0.31085831355E+03  0.31085831355E+03  0.00000000000E+00 0. -1.
          2   -1    0    0  501    0  0.00000000000E+00 -0.00000000000E+00 -0.13509363358E+03  0.13509363358E+03  0.00000000000E+00 0. -1.
          2    1    1    2  502    0 -0.17384722010E+02  0.24986739648E+02 -0.13262007309E+03  0.13606854707E+03  0.00000000000E+00 0. -1.
         -2    1    1    2    0  502  0.17384722010E+02 -0.24986739648E+02  0.30838475305E+03  0.30988340006E+03  0.00000000000E+00 0. -1.
<mgrwt>
<rscale>  2 0.30439542E+02</rscale>
<asrwt>0</asrwt>
<pdfrwt beam="2">  1        2 0.20783636E-01 0.30439542E+02</pdfrwt>
<pdfrwt beam="1">  1       -2 0.47824356E-01 0.30439542E+02</pdfrwt>
<totfact> 0.10181057E+03</totfact>
</mgrwt>
</event>
<event>
 4    1  0.1352171E+004  0.2047894E+02  0.7546771E-02  0.1735968E+00
          2   -1    0    0  501    0  0.00000000000E+00  0.00000000000E+00  0.84607785436E+03  0.84607785436E+03  0.00000000000E+00 0.  1.
         -2   -1    0    0    0  501 -0.00000000000E+00 -0.00000000000E+00 -0.86133049561E+01  0.86133049561E+01  0.00000000000E+00 0. -1.
          2    1    1    2  502    0  0.16856690535E+02 -0.11629227857E+02  0.83359909038E+03  0.83385060439E+03  0.00000000000E+00 0.  1.
         -2    1    1    2    0  502 -0.16856690535E+02  0.11629227857E+02  0.38654590273E+01  0.20840554931E+02  0.00000000000E+00 0. -1.
<mgrwt>
<rscale>  2 0.20478939E+02</rscale>
<asrwt>0</asrwt>
<pdfrwt beam="1">  1        2 0.13016576E+00 0.20478939E+02</pdfrwt>
<pdfrwt beam="2">  1       -2 0.13251245E-02 0.20478939E+02</pdfrwt>
<totfact> 0.33991176E+04</totfact>
</mgrwt>
</event>
<event>
 4    1  0.1352171E+004  0.2817585E+02  0.7546771E-02  0.1619174E+00
          2   -1    0    0  501    0  0.00000000000E+00  0.00000000000E+00  0.42806337871E+02  0.42806337871E+02  0.00000000000E+00 0.  1.
         -2   -1    0    0    0  501 -0.00000000000E+00 -0.00000000000E+00 -0.46258036386E+02  0.46258036386E+02  0.00000000000E+00 0.  1.
          2    1    1    2  502    0 -0.19382782579E+02  0.20449600838E+02  0.32742151703E+02  0.43196376388E+02  0.00000000000E+00 0.  1.
         -2    1    1    2    0  502  0.19382782579E+02 -0.20449600838E+02 -0.36193850218E+02  0.45867997869E+02  0.00000000000E+00 0.  1.
<mgrwt>
<rscale>  2 0.28175848E+02</rscale>
<asrwt>0</asrwt>
<pdfrwt beam="1">  1        2 0.65855905E-02 0.28175848E+02</pdfrwt>
<pdfrwt beam="2">  1       -2 0.71166210E-02 0.28175848E+02</pdfrwt>
<totfact> 0.83346756E+04</totfact>
</mgrwt>
</event>
<event>
 4    1  0.1352171E+004  0.2353201E+02  0.7546771E-02  0.1683029E+00
         -2   -1    0    0    0  501 -0.00000000000E+00  0.00000000000E+00  0.19893208024E+01  0.19893208024E+01  0.00000000000E+00 0.  1.
          2   -1    0    0  501    0  0.00000000000E+00 -0.00000000000E+00 -0.10920701171E+04  0.10920701171E+04  0.00000000000E+00 0. -1.
          2    1    1    2  502    0  0.13286486554E+02  0.19422275830E+02 -0.10172332620E+04  0.10175054127E+04  0.00000000000E+00 0. -1.
         -2    1    1    2    0  502 -0.13286486554E+02 -0.19422275830E+02 -0.72847534237E+02  0.76554025157E+02  0.00000000000E+00 0.  1.
<mgrwt>
<rscale>  2 0.23532011E+02</rscale>
<asrwt>0</asrwt>
<pdfrwt beam="2">  1        2 0.16801088E+00 0.23532011E+02</pdfrwt>
<pdfrwt beam="1">  1       -2 0.30604919E-03 0.23532011E+02</pdfrwt>
<totfact> 0.18282975E+05</totfact>
</mgrwt>
</event>
<event>
 4    1  0.1352171E+004  0.2708801E+02  0.7546771E-02  0.1632704E+00
         -2   -1    0    0    0  501 -0.00000000000E+00  0.00000000000E+00  0.15050558873E+01  0.15050558873E+01  0.00000000000E+00 0.  1.
          2   -1    0    0  501    0  0.00000000000E+00 -0.00000000000E+00 -0.99221894490E+03  0.99221894490E+03  0.00000000000E+00 0. -1.
          2    1    1    2  502    0  0.13543334455E+02 -0.23459287122E+02 -0.84971627714E+03  0.85014793519E+03  0.00000000000E+00 0. -1.
         -2    1    1    2    0  502 -0.13543334455E+02  0.23459287122E+02 -0.14099761187E+03  0.14357606560E+03  0.00000000000E+00 0.  1.
<mgrwt>
<rscale>  2 0.27088006E+02</rscale>
<asrwt>0</asrwt>
<pdfrwt beam="2">  1        2 0.15264915E+00 0.27088006E+02</pdfrwt>
<pdfrwt beam="1">  1       -2 0.23154694E-03 0.27088006E+02</pdfrwt>
<totfact> 0.31010179E+05</totfact>
</mgrwt>
</event>
<event>
 4    1  0.1352171E+004  0.2167564E+02  0.7546771E-02  0.1713923E+00
          2   -1    0    0  501    0  0.00000000000E+00  0.00000000000E+00  0.37772992437E+03  0.37772992437E+03  0.00000000000E+00 0. -1.
         -2   -1    0    0    0  501 -0.00000000000E+00 -0.00000000000E+00 -0.45623264599E+01  0.45623264599E+01  0.00000000000E+00 0. -1.
          2    1    1    2  502    0  0.19229904428E+02  0.10002210062E+02  0.34960448596E+03  0.35027579139E+03  0.00000000000E+00 0. -1.
         -2    1    1    2    0  502 -0.19229904428E+02 -0.10002210062E+02  0.23563111957E+02  0.32016459447E+02  0.00000000000E+00 0. -1.
<mgrwt>
<rscale>  2 0.21675641E+02</rscale>
<asrwt>0</asrwt>
<pdfrwt beam="1">  1        2 0.58112272E-01 0.21675641E+02</pdfrwt>
<pdfrwt beam="2">  1       -2 0.70189667E-03 0.21675641E+02</pdfrwt>
<totfact> 0.18718535E+05</totfact>
</mgrwt>
</event>
<event>
 4    1  0.1352171E+004  0.3461014E+02  0.7546771E-02  0.1552090E+00
         -2   -1    0    0    0  501 -0.00000000000E+00  0.00000000000E+00  0.28185472466E+02  0.28185472466E+02  0.00000000000E+00 0.  1.
          2   -1    0    0  501    0  0.00000000000E+00 -0.00000000000E+00 -0.13321721143E+04  0.13321721143E+04  0.00000000000E+00 0.  1.
          2    1    1    2  502    0  0.34228120312E+02 -0.51280949244E+01 -0.13212345657E+04  0.13216877994E+04  0.00000000000E+00 0.  1.
         -2    1    1    2    0  502 -0.34228120312E+02  0.51280949244E+01  0.17247923838E+02  0.38669787359E+02  0.00000000000E+00 0.  1.
<mgrwt>
<rscale>  2 0.34610137E+02</rscale>
<asrwt>0</asrwt>
<pdfrwt beam="2">  1        2 0.20494949E+00 0.34610137E+02</pdfrwt>
<pdfrwt beam="1">  1       -2 0.43362278E-02 0.34610137E+02</pdfrwt>
<totfact> 0.38382432E+03</totfact>
</mgrwt>
</event>
<event>
 4    1  0.1352171E+004  0.2242466E+02  0.7546771E-02  0.1701010E+00
          2   -1    0    0  501    0  0.00000000000E+00  0.00000000000E+00  0.30876385785E+03  0.30876385785E+03  0.00000000000E+00 0. -1.
         -2   -1    0    0    0  501 -0.00000000000E+00 -0.00000000000E+00 -0.18857955098E+03  0.18857955098E+03  0.00000000000E+00 0. -1.
          2    1    1    2  502    0 -0.19272162207E+02  0.11465130394E+02  0.30768772014E+03  0.30850380642E+03  0.00000000000E+00 0. -1.
         -2    1    1    2    0  502  0.19272162207E+02 -0.11465130394E+02 -0.18750341327E+03  0.18883960241E+03  0.00000000000E+00 0. -1.
<mgrwt>
<rscale>  2 0.22424662E+02</rscale>
<asrwt>0</asrwt>
<pdfrwt beam="1">  1        2 0.47502132E-01 0.22424662E+02</pdfrwt>
<pdfrwt beam="2">  1       -2 0.29012239E-01 0.22424662E+02</pdfrwt>
<totfact> 0.10550335E+03</totfact>
</mgrwt>
</event>
<event>
 4    1  0.1352171E+004  0.2343752E+02  0.7546771E-02  0.1684515E+00
         -2   -1    0    0    0  501 -0.00000000000E+00  0.00000000000E+00  0.70948867109E+01  0.70948867109E+01  0.00000000000E+00 0. -1.
          2   -1    0    0  501    0  0.00000000000E+00 -0.00000000000E+00 -0.11152048413E+04  0.11152048413E+04  0.00000000000E+00 0. -1.
          2    1    1    2  502    0 -0.20136402770E+02 -0.11993449527E+02 -0.10953752273E+04  0.10956259427E+04  0.00000000000E+00 0. -1.
         -2    1    1    2    0  502  0.20136402770E+02  0.11993449527E+02 -0.12734727284E+02  0.26673785391E+02  0.00000000000E+00 0. -1.
<mgrwt>
<rscale>  2 0.23437524E+02</rscale>
<asrwt>0</asrwt>
<pdfrwt beam="2">  1        2 0.17157001E+00 0.23437524E+02</pdfrwt>
<pdfrwt beam="1">  1       -2 0.10915208E-02 0.23437524E+02</pdfrwt>
<totfact> 0.32203712E+04</totfact>
</mgrwt>
</event>
<event>
 4    1  0.1352171E+004  0.2418324E+02  0.7546771E-02  0.1673018E+00
         -2   -1    0    0    0  501 -0.00000000000E+00  0.00000000000E+00  0.81596928456E+02  0.81596928456E+02  0.00000000000E+00 0.  1.
          2   -1    0    0  501    0  0.00000000000E+00 -0.00000000000E+00 -0.46849534054E+02  0.46849534054E+02  0.00000000000E+00 0.  1.
          2    1    1    2  502    0  0.24319338768E+01 -0.24060645130E+02 -0.41733126236E+02  0.48233626982E+02  0.00000000000E+00 0.  1.
         -2    1    1    2    0  502 -0.24319338768E+01  0.24060645130E+02  0.76480520638E+02  0.80212835528E+02  0.00000000000E+00 0.  1.
<mgrwt>
<rscale>  2 0.24183237E+02</rscale>
<asrwt>0</asrwt>
<pdfrwt beam="2">  1        2 0.72076206E-02 0.24183237E+02</pdfrwt>
<pdfrwt beam="1">  1       -2 0.12553374E-01 0.24183237E+02</pdfrwt>
<totfact> 0.31061133E+04</totfact>
</mgrwt>
</event>
<event>
 4    1  0.1352171E+004  0.1315189E+03  0.7546771E-02  0.1225219E+00
          2   -1    0    0  501    0  0.00000000000E+00  0.00000000000E+00  0.99901153630E+03  0.99901153630E+03  0.00000000000E+00 0. -1.
         -2   -1    0    0    0  501 -0.00000000000E+00 -0.00000000000E+00 -0.22715915904E+03  0.22715915904E+03  0.00000000000E+00 0. -1.
          2    1    1    2  502    0  0.50101755476E+02  0.12160195935E+03  0.97518344520E+03  0.98401218195E+03  0.00000000000E+00 0. -1.
         -2    1    1    2    0  502 -0.50101755476E+02 -0.12160195935E+03 -0.20333106794E+03  0.24215851340E+03  0.00000000000E+00 0. -1.
<mgrwt>
<rscale>  2 0.13151891E+03</rscale>
<asrwt>0</asrwt>
<pdfrwt beam="1">  1        2 0.15369408E+00 0.13151891E+03</pdfrwt>
<pdfrwt beam="2">  1       -2 0.34947564E-01 0.13151891E+03</pdfrwt>
<totfact> 0.21040556E+02</totfact>
</mgrwt>
</event>
<event>
 4    1  0.1352171E+004  0.2356791E+02  0.7546771E-02  0.1682466E+00
          2   -1    0    0  501    0  0.00000000000E+00  0.00000000000E+00  0.18330653651E+04  0.18330653651E+04  0.00000000000E+00 0. -1.
         -2   -1    0    0    0  501 -0.00000000000E+00 -0.00000000000E+00 -0.95013577323E+00  0.95013577323E+00  0.00000000000E+00 0.  1.
          2    1    1    2  502    0  0.16539713866E+02 -0.16789414976E+02  0.16728430918E+04  0.16730091022E+04  0.00000000000E+00 0. -1.
         -2    1    1    2    0  502 -0.16539713866E+02  0.16789414976E+02  0.15927213761E+03  0.16100639865E+03  0.00000000000E+00 0.  1.
<mgrwt>
<rscale>  2 0.23567914E+02</rscale>
<asrwt>0</asrwt>
<pdfrwt beam="1">  1        2 0.28200723E+00 0.23567914E+02</pdfrwt>
<pdfrwt beam="2">  1       -2 0.14617620E-03 0.23567914E+02</pdfrwt>
<totfact> 0.21479035E+05</totfact>
</mgrwt>
</event>
<event>
 4    1  0.1352171E+004  0.2606140E+02  0.7546771E-02  0.1646209E+00
          2   -1    0    0  501    0  0.00000000000E+00  0.00000000000E+00  0.88809001783E+03  0.88809001783E+03  0.00000000000E+00 0.  1.
         -2   -1    0    0    0  501 -0.00000000000E+00 -0.00000000000E+00 -0.55818161848E+01  0.55818161848E+01  0.00000000000E+00 0. -1.
          2    1    1    2  502    0  0.19810620990E+02 -0.16933272079E+02  0.85635159857E+03  0.85674807078E+03  0.00000000000E+00 0.  1.
         -2    1    1    2    0  502 -0.19810620990E+02  0.16933272079E+02  0.26156603082E+02  0.36923763244E+02  0.00000000000E+00 0. -1.
<mgrwt>
<rscale>  2 0.26061397E+02</rscale>
<asrwt>0</asrwt>
<pdfrwt beam="1">  1        2 0.13662912E+00 0.26061397E+02</pdfrwt>
<pdfrwt beam="2">  1       -2 0.85874165E-03 0.26061397E+02</pdfrwt>
<totfact> 0.60399222E+04</totfact>
</mgrwt>
</event>
<event>
 4    1  0.1352171E+004  0.3492845E+02  0.7546771E-02  0.1549237E+00
          2   -1    0    0  501    0  0.00000000000E+00  0.00000000000E+00  0.12096489330E+04  0.12096489330E+04  0.00000000000E+00 0. -1.
         -2   -1    0    0    0  501 -0.00000000000E+00 -0.00000000000E+00 -0.44406682934E+02  0.44406682934E+02  0.00000000000E+00 0. -1.
          2    1    1    2  502    0 -0.19055642993E+02  0.29272500233E+02  0.12024875815E+04  0.12029947550E+04  0.00000000000E+00 0. -1.
         -2    1    1    2    0  502  0.19055642993E+02 -0.29272500233E+02 -0.37245331491E+02  0.51060860917E+02  0.00000000000E+00 0. -1.
<mgrwt>
<rscale>  2 0.34928453E+02</rscale>
<asrwt>0</asrwt>
<pdfrwt beam="1">  1        2 0.18609981E+00 0.34928453E+02</pdfrwt>
<pdfrwt beam="2">  1       -2 0.68317983E-02 0.34928453E+02</pdfrwt>
<totfact> 0.22916125E+03</totfact>
</mgrwt>
</event>
<event>
 4    1  0.1352171E+004  0.3934345E+02  0.7546771E-02  0.1513099E+00
         -2   -1    0    0    0  501 -0.00000000000E+00  0.00000000000E+00  0.18433826286E+01  0.18433826286E+01  0.00000000000E+00 0. -1.
          2   -1    0    0  501    0  0.00000000000E+00 -0.00000000000E+00 -0.98305094671E+03  0.98305094671E+03  0.00000000000E+00 0.  1.
          2    1    1    2  502    0  0.75206338437E+01  0.38617966891E+02 -0.67864643679E+03  0.67978591738E+03  0.00000000000E+00 0.  1.
         -2    1    1    2    0  502 -0.75206338437E+01 -0.38617966891E+02 -0.30256112730E+03  0.30510841196E+03  0.00000000000E+00 0. -1.
<mgrwt>
<rscale>  2 0.39343453E+02</rscale>
<asrwt>0</asrwt>
<pdfrwt beam="2">  1        2 0.15123895E+00 0.39343453E+02</pdfrwt>
<pdfrwt beam="1">  1       -2 0.28359669E-03 0.39343453E+02</pdfrwt>
<totfact> 0.25952310E+05</totfact>
</mgrwt>
</event>
<event>
 4    1  0.1352171E+004  0.2265461E+02  0.7546771E-02  0.1697171E+00
          2   -1    0    0  501    0  0.00000000000E+00  0.00000000000E+00  0.48750341790E+01  0.48750341790E+01  0.00000000000E+00 0. -1.
         -2   -1    0    0    0  501 -0.00000000000E+00 -0.00000000000E+00 -0.17465448107E+03  0.17465448107E+03  0.00000000000E+00 0.  1.
          2    1    1    2  502    0  0.16682909560E+02 -0.15326837606E+02 -0.28314837433E+02  0.36262397069E+02  0.00000000000E+00 0. -1.
         -2    1    1    2    0  502 -0.16682909560E+02  0.15326837606E+02 -0.14146460946E+03  0.14326711818E+03  0.00000000000E+00 0.  1.
<mgrwt>
<rscale>  2 0.22654612E+02</rscale>
<asrwt>0</asrwt>
<pdfrwt beam="1">  1        2 0.75000517E-03 0.22654612E+02</pdfrwt>
<pdfrwt beam="2">  1       -2 0.26869923E-01 0.22654612E+02</pdfrwt>
<totfact> 0.15916726E+05</totfact>
</mgrwt>
</event>
<event>
 4    1  0.1352171E+004  0.2731188E+02  0.7546771E-02  0.1629856E+00
         -2   -1    0    0    0  501 -0.00000000000E+00  0.00000000000E+00  0.41883787632E+02  0.41883787632E+02  0.00000000000E+00 0. -1.
          2   -1    0    0  501    0  0.00000000000E+00 -0.00000000000E+00 -0.20739230813E+02  0.20739230813E+02  0.00000000000E+00 0. -1.
          2    1    1    2  502    0 -0.21635270112E+02 -0.16668949684E+02 -0.11957785144E+01  0.27338044601E+02  0.00000000000E+00 0. -1.
         -2    1    1    2    0  502  0.21635270112E+02  0.16668949684E+02  0.22340335333E+02  0.35284973844E+02  0.00000000000E+00 0. -1.
<mgrwt>
<rscale>  2 0.27311880E+02</rscale>
<asrwt>0</asrwt>
<pdfrwt beam="2">  1        2 0.31906509E-02 0.27311880E+02</pdfrwt>
<pdfrwt beam="1">  1       -2 0.64436596E-02 0.27311880E+02</pdfrwt>
<totfact> 0.23469681E+05</totfact>
</mgrwt>
</event>
<event>
 4    1  0.1352171E+004  0.1127396E+03  0.7546771E-02  0.1255579E+00
          2   -1    0    0  501    0  0.00000000000E+00  0.00000000000E+00  0.11980405815E+04  0.11980405815E+04  0.00000000000E+00 0.  1.
         -2   -1    0    0    0  501 -0.00000000000E+00 -0.00000000000E+00 -0.43463310098E+03  0.43463310098E+03  0.00000000000E+00 0. -1.
          2    1    1    2  502    0  0.91634396040E+02  0.65676092494E+02  0.11880158517E+04  0.11933532066E+04  0.00000000000E+00 0.  1.
         -2    1    1    2    0  502 -0.91634396040E+02 -0.65676092494E+02 -0.42460837120E+03  0.43932047592E+03  0.00000000000E+00 0. -1.
<mgrwt>
<rscale>  2 0.11273957E+03</rscale>
<asrwt>0</asrwt>
<pdfrwt beam="1">  1        2 0.18431393E+00 0.11273957E+03</pdfrwt>
<pdfrwt beam="2">  1       -2 0.66866631E-01 0.11273957E+03</pdfrwt>
<totfact> 0.45703150E+01</totfact>
</mgrwt>
</event>
<event>
 4    1  0.1352171E+004  0.2230086E+02  0.7546771E-02  0.1703100E+00
          2   -1    0    0  501    0  0.00000000000E+00  0.00000000000E+00  0.67775157298E+03  0.67775157298E+03  0.00000000000E+00 0. -1.
         -2   -1    0    0    0  501 -0.00000000000E+00 -0.00000000000E+00 -0.12858930081E+02  0.12858930081E+02  0.00000000000E+00 0.  1.
          2    1    1    2  502    0 -0.18493863992E+02 -0.12462157859E+02  0.66775447975E+03  0.66812676463E+03  0.00000000000E+00 0. -1.
         -2    1    1    2    0  502  0.18493863992E+02  0.12462157859E+02 -0.28618368507E+01  0.22483738435E+02  0.00000000000E+00 0.  1.
<mgrwt>
<rscale>  2 0.22300861E+02</rscale>
<asrwt>0</asrwt>
<pdfrwt beam="1">  1        2 0.10426944E+00 0.22300861E+02</pdfrwt>
<pdfrwt beam="2">  1       -2 0.19782975E-02 0.22300861E+02</pdfrwt>
<totfact> 0.25565057E+04</totfact>
</mgrwt>
</event>
<event>
 4    1  0.1352171E+004  0.3652784E+02  0.7546771E-02  0.1535437E+00
          2   -1    0    0  501    0  0.00000000000E+00  0.00000000000E+00  0.27907880194E+03  0.27907880194E+03  0.00000000000E+00 0.  1.
         -2   -1    0    0    0  501 -0.00000000000E+00 -0.00000000000E+00 -0.88274528392E+01  0.88274528392E+01  0.00000000000E+00 0.  1.
          2    1    1    2  502    0  0.45534995231E+01 -0.36242916242E+02  0.23258854202E+03  0.23543940455E+03  0.00000000000E+00 0.  1.
         -2    1    1    2    0  502 -0.45534995231E+01  0.36242916242E+02  0.37662807073E+02  0.52466850222E+02  0.00000000000E+00 0.  1.
<mgrwt>
<rscale>  2 0.36527843E+02</rscale>
<asrwt>0</asrwt>
<pdfrwt beam="1">  1        2 0.42935194E-01 0.36527843E+02</pdfrwt>
<pdfrwt beam="2">  1       -2 0.13580699E-02 0.36527843E+02</pdfrwt>
<totfact> 0.11629832E+05</totfact>
</mgrwt>
</event>
<event>
 4    1  0.1352171E+004  0.2112557E+02  0.7546771E-02  0.1723829E+00
         -2   -1    0    0    0  501 -0.00000000000E+00  0.00000000000E+00  0.17129723993E+01  0.17129723993E+01  0.00000000000E+00 0.  1.
          2   -1    0    0  501    0  0.00000000000E+00 -0.00000000000E+00 -0.37182393158E+03  0.37182393158E+03  0.00000000000E+00 0. -1.
          2    1    1    2  502    0  0.10032786300E+02 -0.18591205752E+02 -0.28723416315E+03  0.28800998978E+03  0.00000000000E+00 0. -1.
         -2    1    1    2    0  502 -0.10032786300E+02  0.18591205752E+02 -0.82876796024E+02  0.85526914193E+02  0.00000000000E+00 0.  1.
<mgrwt>
<rscale>  2 0.21125571E+02</rscale>
<asrwt>0</asrwt>
<pdfrwt beam="2">  1        2 0.57203808E-01 0.21125571E+02</pdfrwt>
<pdfrwt beam="1">  1       -2 0.26353363E-03 0.21125571E+02</pdfrwt>
<totfact> 0.69651511E+05</totfact>
</mgrwt>
</event>
<event>
 4    1  0.1352171E+004  0.2133834E+02  0.7546771E-02  0.1719953E+00
          2   -1    0    0  501    0  0.00000000000E+00  0.00000000000E+00  0.24720271582E+03  0.24720271582E+03  0.00000000000E+00 0. -1.
         -2   -1    0    0    0  501 -0.00000000000E+00 -0.00000000000E+00 -0.22049883102E+01  0.22049883102E+01  0.00000000000E+00 0.  1.
          2    1    1    2  502    0  0.85352039348E+01 -0.19556967300E+02  0.17310206975E+03  0.17441230240E+03  0.00000000000E+00 0. -1.
         -2    1    1    2    0  502 -0.85352039348E+01  0.19556967300E+02  0.71895657755E+02  0.74995401727E+02  0.00000000000E+00 0.  1.
<mgrwt>
<rscale>  2 0.21338338E+02</rscale>
<asrwt>0</asrwt>
<pdfrwt beam="1">  1        2 0.38031165E-01 0.21338338E+02</pdfrwt>
<pdfrwt beam="2">  1       -2 0.33922917E-03 0.21338338E+02</pdfrwt>
<totfact> 0.74637217E+05</totfact>
</mgrwt>
</event>
<event>
 4    1  0.1352171E+004  0.2572810E+02  0.7546771E-02  0.1650759E+00
         -2   -1    0    0    0  501 -0.00000000000E+00  0.00000000000E+00  0.29653381506E+01  0.29653381506E+01  0.00000000000E+00 0. -1.
          2   -1    0    0  501    0  0.00000000000E+00 -0.00000000000E+00 -0.12874579651E+04  0.12874579651E+04  0.00000000000E+00 0. -1.
          2    1    1    2  502    0  0.22711572585E+02 -0.12087989966E+02 -0.12288627175E+04  0.12291320163E+04  0.00000000000E+00 0. -1.
         -2    1    1    2    0  502 -0.22711572585E+02  0.12087989966E+02 -0.55629909440E+02  0.61291286942E+02  0.00000000000E+00 0. -1.
<mgrwt>
<rscale>  2 0.25728098E+02</rscale>
<asrwt>0</asrwt>
<pdfrwt beam="2">  1        2 0.19807026E+00 0.25728098E+02</pdfrwt>
<pdfrwt beam="1">  1       -2 0.45620633E-03 0.25728098E+02</pdfrwt>
<totfact> 0.86945295E+04</totfact>
</mgrwt>
</event>
<event>
 4    1  0.1352171E+004  0.4057675E+02  0.7546771E-02  0.1504010E+00
          2   -1    0    0  501    0  0.00000000000E+00  0.00000000000E+00  0.12163110038E+04  0.12163110038E+04  0.00000000000E+00 0. -1.
         -2   -1    0    0    0  501 -0.00000000000E+00 -0.00000000000E+00 -0.28723396712E+01  0.28723396712E+01  0.00000000000E+00 0. -1.
          2    1    1    2  502    0  0.33085413060E+02  0.23491029723E+02  0.10499747395E+04  0.10507585006E+04  0.00000000000E+00 0. -1.
         -2    1    1    2    0  502 -0.33085413060E+02 -0.23491029723E+02  0.16346392463E+03  0.16842484286E+03  0.00000000000E+00 0. -1.
<mgrwt>
<rscale>  2 0.40576755E+02</rscale>
<asrwt>0</asrwt>
<pdfrwt beam="1">  1        2 0.18712436E+00 0.40576755E+02</pdfrwt>
<pdfrwt beam="2">  1       -2 0.44189938E-03 0.40576755E+02</pdfrwt>
<totfact> 0.10686594E+05</totfact>
</mgrwt>
</event>
<event>
 4    1  0.1352171E+004  0.2075497E+02  0.7546771E-02  0.1730718E+00
         -2   -1    0    0    0  501 -0.00000000000E+00  0.00000000000E+00  0.15540831519E+03  0.15540831519E+03  0.00000000000E+00 0. -1.
          2   -1    0    0  501    0  0.00000000000E+00 -0.00000000000E+00 -0.46248926022E+03  0.46248926022E+03  0.00000000000E+00 0. -1.
          2    1    1    2  502    0 -0.80454397742E+01  0.19132159615E+02 -0.46156205290E+03  0.46202845942E+03  0.00000000000E+00 0. -1.
         -2    1    1    2    0  502  0.80454397742E+01 -0.19132159615E+02  0.15448110787E+03  0.15586911599E+03  0.00000000000E+00 0. -1.
<mgrwt>
<rscale>  2 0.20754966E+02</rscale>
<asrwt>0</asrwt>
<pdfrwt beam="2">  1        2 0.71152192E-01 0.20754966E+02</pdfrwt>
<pdfrwt beam="1">  1       -2 0.23908972E-01 0.20754966E+02</pdfrwt>
<totfact> 0.97541190E+02</totfact>
</mgrwt>
</event>
<event>
 4    1  0.1352171E+004  0.2886559E+02  0.7546771E-02  0.1610977E+00
          2   -1    0    0  501    0  0.00000000000E+00  0.00000000000E+00  0.14859887530E+04  0.14859887530E+04  0.00000000000E+00 0. -1.
         -2   -1    0    0    0  501 -0.00000000000E+00 -0.00000000000E+00 -0.10665898830E+01  0.10665898830E+01  0.00000000000E+00 0.  1.
          2    1    1    2  502    0 -0.21737341321E+02  0.18992371689E+02  0.12545179897E+04  0.12548500343E+04  0.00000000000E+00 0. -1.
         -2    1    1    2    0  502  0.21737341321E+02 -0.18992371689E+02  0.23040417351E+03  0.23220530864E+03  0.00000000000E+00 0.  1.
<mgrwt>
<rscale>  2 0.28865588E+02</rscale>
<asrwt>0</asrwt>
<pdfrwt beam="1">  1        2 0.22861200E+00 0.28865588E+02</pdfrwt>
<pdfrwt beam="2">  1       -2 0.16409194E-03 0.28865588E+02</pdfrwt>
<totfact> 0.28013231E+05</totfact>
</mgrwt>
</event>
<event>
 4    1  0.1352171E+004  0.2816339E+02  0.7546771E-02  0.1619325E+00
         -2   -1    0    0    0  501 -0.00000000000E+00  0.00000000000E+00  0.24936981699E+01  0.24936981699E+01  0.00000000000E+00 0.  1.
          2   -1    0    0  501    0  0.00000000000E+00 -0.00000000000E+00 -0.10016616510E+04  0.10016616510E+04  0.00000000000E+00 0.  1.
          2    1    1    2  502    0 -0.12559773058E+02  0.25207704385E+02 -0.91435464620E+03  0.91478827894E+03  0.00000000000E+00 0.  1.
         -2    1    1    2    0  502  0.12559773058E+02 -0.25207704385E+02 -0.84813306602E+02  0.89367070202E+02  0.00000000000E+00 0.  1.
<mgrwt>
<rscale>  2 0.28163385E+02</rscale>
<asrwt>0</asrwt>
<pdfrwt beam="2">  1        2 0.15410176E+00 0.28163385E+02</pdfrwt>
<pdfrwt beam="1">  1       -2 0.38364596E-03 0.28163385E+02</pdfrwt>
<totfact> 0.15708576E+05</totfact>
</mgrwt>
</event>
<event>
 4    1  0.1352171E+004  0.2237537E+02  0.7546771E-02  0.1701840E+00
         -2   -1    0    0    0  501 -0.00000000000E+00  0.00000000000E+00  0.10327462391E+02  0.10327462391E+02  0.00000000000E+00 0.  1.
          2   -1    0    0  501    0  0.00000000000E+00 -0.00000000000E+00 -0.13746499643E+04  0.13746499643E+04  0.00000000000E+00 0.  1.
          2    1    1    2  502    0 -0.14084825365E+02 -0.17386055511E+02 -0.13623297561E+04  0.13625134941E+04  0.00000000000E+00 0.  1.
         -2    1    1    2    0  502  0.14084825365E+02  0.17386055511E+02 -0.19927458063E+01  0.22463932595E+02  0.00000000000E+00 0.  1.
<mgrwt>
<rscale>  2 0.22375371E+02</rscale>
<asrwt>0</asrwt>
<pdfrwt beam="2">  1        2 0.21148463E+00 0.22375371E+02</pdfrwt>
<pdfrwt beam="1">  1       -2 0.15888402E-02 0.22375371E+02</pdfrwt>
<totfact> 0.14284248E+04</totfact>
</mgrwt>
</event>
<event>
 4    1  0.1352171E+004  0.2059689E+02  0.7546771E-02  0.1733712E+00
         -2   -1    0    0    0  501 -0.00000000000E+00  0.00000000000E+00  0.27505418120E+02  0.27505418120E+02  0.00000000000E+00 0. -1.
          2   -1    0    0  501    0  0.00000000000E+00 -0.00000000000E+00 -0.45900527460E+02  0.45900527460E+02  0.00000000000E+00 0.  1.
          2    1    1    2  502    0 -0.11037187054E+02 -0.17390012698E+02 -0.39104918283E+02  0.44197586740E+02  0.00000000000E+00 0.  1.
         -2    1    1    2    0  502  0.11037187054E+02  0.17390012698E+02  0.20709808942E+02  0.29208358840E+02  0.00000000000E+00 0. -1.
<mgrwt>
<rscale>  2 0.20596894E+02</rscale>
<asrwt>0</asrwt>
<pdfrwt beam="2">  1        2 0.70616196E-02 0.20596894E+02</pdfrwt>
<pdfrwt beam="1">  1       -2 0.42316028E-02 0.20596894E+02</pdfrwt>
<totfact> 0.14908935E+05</totfact>
</mgrwt>
</event>
<event>
 4    1  0.1352171E+004  0.2804699E+02  0.7546771E-02  0.1620737E+00
         -2   -1    0    0    0  501 -0.00000000000E+00  0.00000000000E+00  0.23165492337E+01  0.23165492337E+01  0.00000000000E+00 0.  1.
          2   -1    0    0  501    0  0.00000000000E+00 -0.00000000000E+00 -0.48979129574E+03  0.48979129574E+03  0.00000000000E+00 0.  1.
          2    1    1    2  502    0  0.19007961170E+01  0.27982504732E+02 -0.38000373407E+03  0.38103736234E+03  0.00000000000E+00 0.  1.
         -2    1    1    2    0  502 -0.19007961170E+01 -0.27982504732E+02 -0.10747101244E+03  0.11107048263E+03  0.00000000000E+00 0.  1.
<mgrwt>
<rscale>  2 0.28046989E+02</rscale>
<asrwt>0</asrwt>
<pdfrwt beam="2">  1        2 0.75352599E-01 0.28046989E+02</pdfrwt>
<pdfrwt beam="1">  1       -2 0.35639175E-03 0.28046989E+02</pdfrwt>
<totfact> 0.38408063E+05</totfact>
</mgrwt>
</event>
<event>
 4    1  0.1352171E+004  0.2216381E+02  0.7546771E-02  0.1705434E+00
         -2   -1    0    0    0  501 -0.00000000000E+00  0.00000000000E+00  0.12849984457E+03  0.12849984457E+03  0.00000000000E+00 0. -1.
          2   -1    0    0  501    0  0.00000000000E+00 -0.00000000000E+00 -0.43713135771E+01  0.43713135771E+01  0.00000000000E+00 0.  1.
          2    1    1    2  502    0  0.62900935251E+01 -0.21252496384E+02  0.85597088963E+02  0.88419995012E+02  0.00000000000E+00 0.  1.
         -2    1    1    2    0  502 -0.62900935251E+01  0.21252496384E+02  0.38531442029E+02  0.44451163134E+02  0.00000000000E+00 0. -1.
<mgrwt>
<rscale>  2 0.22163808E+02</rscale>
<asrwt>0</asrwt>
<pdfrwt beam="2">  1        2 0.67250988E-03 0.22163808E+02</pdfrwt>
<pdfrwt beam="1">  1       -2 0.19769204E-01 0.22163808E+02</pdfrwt>
<totfact> 0.30192905E+05</totfact>
</mgrwt>
</event>
<event>
 4    1  0.1352171E+004  0.2343437E+02  0.7546771E-02  0.1684564E+00
          2   -1    0    0  501    0  0.00000000000E+00  0.00000000000E+00  0.14710708519E+03  0.14710708519E+03  0.00000000000E+00 0. -1.
         -2   -1    0    0    0  501 -0.00000000000E+00 -0.00000000000E+00 -0.92783041477E+02  0.92783041477E+02  0.00000000000E+00 0. -1.
          2    1    1    2  502    0 -0.19941996523E+01  0.23349365359E+02  0.14466931569E+03  0.14655504289E+03  0.00000000000E+00 0. -1.
         -2    1    1    2    0  502  0.19941996523E+01 -0.23349365359E+02 -0.90345271976E+02  0.93335083775E+02  0.00000000000E+00 0. -1.
<mgrwt>
<rscale>  2 0.23434370E+02</rscale>
<asrwt>0</asrwt>
<pdfrwt beam="1">  1        2 0.22631859E-01 0.23434370E+02</pdfrwt>
<pdfrwt beam="2">  1       -2 0.14274314E-01 0.23434370E+02</pdfrwt>
<totfact> 0.70463963E+03</totfact>
</mgrwt>
</event>
<event>
 4    1  0.1352171E+004  0.2547630E+02  0.7546771E-02  0.1654253E+00
          2   -1    0    0  501    0  0.00000000000E+00  0.00000000000E+00  0.22366296317E+01  0.22366296317E+01  0.00000000000E+00 0.  1.
         -2   -1    0    0    0  501 -0.00000000000E+00 -0.00000000000E+00 -0.99227565213E+03  0.99227565213E+03  0.00000000000E+00 0. -1.
          2    1    1    2  502    0 -0.25309201394E+02 -0.29131340747E+01 -0.76746540472E+02  0.80864537962E+02  0.00000000000E+00 0.  1.
         -2    1    1    2    0  502  0.25309201394E+02  0.29131340747E+01 -0.91329248203E+03  0.91364774380E+03  0.00000000000E+00 0. -1.
<mgrwt>
<rscale>  2 0.25476303E+02</rscale>
<asrwt>0</asrwt>
<pdfrwt beam="1">  1        2 0.34409684E-03 0.25476303E+02</pdfrwt>
<pdfrwt beam="2">  1       -2 0.15265781E+00 0.25476303E+02</pdfrwt>
<totfact> 0.13502338E+04</totfact>
</mgrwt>
</event>
<event>
 4    1  0.1352171E+004  0.2031865E+02  0.7546771E-02  0.1739064E+00
          2   -1    0    0  501    0  0.00000000000E+00  0.00000000000E+00  0.73346137289E+03  0.73346137289E+03  0.00000000000E+00 0.  1.
         -2   -1    0    0    0  501 -0.00000000000E+00 -0.00000000000E+00 -0.11123981068E+01  0.11123981068E+01  0.00000000000E+00 0. -1.
          2    1    1    2  502    0  0.19759728555E+02  0.47329497676E+01  0.62432200228E+03  0.62465255159E+03  0.00000000000E+00 0.  1.
         -2    1    1    2    0  502 -0.19759728555E+02 -0.47329497676E+01  0.10802697251E+03  0.10992121940E+03  0.00000000000E+00 0. -1.
<mgrwt>
<rscale>  2 0.20318654E+02</rscale>
<asrwt>0</asrwt>
<pdfrwt beam="1">  1        2 0.11283982E+00 0.20318654E+02</pdfrwt>
<pdfrwt beam="2">  1       -2 0.17113876E-03 0.20318654E+02</pdfrwt>
<totfact> 0.60900162E+05</totfact>
</mgrwt>
</event>
<event>
 4    1  0.1352171E+004  0.2573286E+02  0.7546771E-02  0.1650693E+00
         -2   -1    0    0    0  501 -0.00000000000E+00  0.00000000000E+00  0.35653761492E+02  0.35653761492E+02  0.00000000000E+00 0. -1.
          2   -1    0    0  501    0  0.00000000000E+00 -0.00000000000E+00 -0.27173331145E+03  0.27173331145E+03  0.00000000000E+00 0. -1.
          2    1    1    2  502    0 -0.23148492783E+02  0.11239549056E+02 -0.26638801077E+03  0.26762801136E+03  0.00000000000E+00 0. -1.
         -2    1    1    2    0  502  0.23148492783E+02 -0.11239549056E+02  0.30308460814E+02  0.39759061583E+02  0.00000000000E+00 0. -1.
<mgrwt>
<rscale>  2 0.25732862E+02</rscale>
<asrwt>0</asrwt>
<pdfrwt beam="2">  1        2 0.41805125E-01 0.25732862E+02</pdfrwt>
<pdfrwt beam="1">  1       -2 0.54851941E-02 0.25732862E+02</pdfrwt>
<totfact> 0.15806401E+04</totfact>
</mgrwt>
</event>
<event>
 4    1  0.1352171E+004  0.3865716E+02  0.7546771E-02  0.1518332E+00
          2   -1    0    0  501    0  0.00000000000E+00  0.00000000000E+00  0.27672393700E+03  0.27672393700E+03  0.00000000000E+00 0.  1.
         -2   -1    0    0    0  501 -0.00000000000E+00 -0.00000000000E+00 -0.26940019065E+02  0.26940019065E+02  0.00000000000E+00 0.  1.
          2    1    1    2  502    0 -0.18842119646E+02 -0.33754266504E+02  0.26065604855E+03  0.26350702386E+03  0.00000000000E+00 0.  1.
         -2    1    1    2    0  502  0.18842119646E+02  0.33754266504E+02 -0.10872130613E+02  0.40156932204E+02  0.00000000000E+00 0.  1.
<mgrwt>
<rscale>  2 0.38657159E+02</rscale>
<asrwt>0</asrwt>
<pdfrwt beam="1">  1        2 0.42572911E-01 0.38657159E+02</pdfrwt>
<pdfrwt beam="2">  1       -2 0.41446185E-02 0.38657159E+02</pdfrwt>
<totfact> 0.24691177E+04</totfact>
</mgrwt>
</event>
<event>
 4    1  0.1352171E+004  0.2233933E+02  0.7546771E-02  0.1702449E+00
         -2   -1    0    0    0  501 -0.00000000000E+00  0.00000000000E+00  0.13793543085E+02  0.13793543085E+02  0.00000000000E+00 0.  1.
          2   -1    0    0  501    0  0.00000000000E+00 -0.00000000000E+00 -0.13221096822E+03  0.13221096822E+03  0.00000000000E+00 0.  1.
          2    1    1    2  502    0  0.10246658446E+02  0.19850739408E+02 -0.12142569332E+03  0.12346353657E+03  0.00000000000E+00 0.  1.
         -2    1    1    2    0  502 -0.10246658446E+02 -0.19850739408E+02  0.30082681887E+01  0.22540974731E+02  0.00000000000E+00 0.  1.
<mgrwt>
<rscale>  2 0.22339334E+02</rscale>
<asrwt>0</asrwt>
<pdfrwt beam="2">  1        2 0.20340148E-01 0.22339334E+02</pdfrwt>
<pdfrwt beam="1">  1       -2 0.21220836E-02 0.22339334E+02</pdfrwt>
<totfact> 0.12096035E+05</totfact>
</mgrwt>
</event>
<event>
 4    1  0.1352171E+004  0.3296432E+02  0.7546771E-02  0.1567458E+00
          2   -1    0    0  501    0  0.00000000000E+00  0.00000000000E+00  0.29562768094E+03  0.29562768094E+03  0.00000000000E+00 0.  1.
         -2   -1    0    0    0  501 -0.00000000000E+00 -0.00000000000E+00 -0.52107381682E+01  0.52107381682E+01  0.00000000000E+00 0.  1.
          2    1    1    2  502    0 -0.21270325272E+02 -0.25183713235E+02  0.22684972887E+03  0.22923229623E+03  0.00000000000E+00 0.  1.
         -2    1    1    2    0  502  0.21270325272E+02  0.25183713235E+02  0.63567213903E+02  0.71606122873E+02  0.00000000000E+00 0.  1.
<mgrwt>
<rscale>  2 0.32964316E+02</rscale>
<asrwt>0</asrwt>
<pdfrwt beam="1">  1        2 0.45481169E-01 0.32964316E+02</pdfrwt>
<pdfrwt beam="2">  1       -2 0.80165226E-03 0.32964316E+02</pdfrwt>
<totfact> 0.22140429E+05</totfact>
</mgrwt>
</event>
<event>
 4    1  0.1352171E+004  0.2270836E+02  0.7546771E-02  0.1696282E+00
         -2   -1    0    0    0  501 -0.00000000000E+00  0.00000000000E+00  0.20750260167E+02  0.20750260167E+02  0.00000000000E+00 0. -1.
          2   -1    0    0  501    0  0.00000000000E+00 -0.00000000000E+00 -0.73732304237E+02  0.73732304237E+02  0.00000000000E+00 0.  1.
          2    1    1    2  502    0  0.19364232687E+02 -0.11861533882E+02 -0.64955792301E+02  0.68810787287E+02  0.00000000000E+00 0.  1.
         -2    1    1    2    0  502 -0.19364232687E+02  0.11861533882E+02  0.11973748232E+02  0.25671777117E+02  0.00000000000E+00 0. -1.
<mgrwt>
<rscale>  2 0.22708357E+02</rscale>
<asrwt>0</asrwt>
<pdfrwt beam="2">  1        2 0.11343432E-01 0.22708357E+02</pdfrwt>
<pdfrwt beam="1">  1       -2 0.31923477E-02 0.22708357E+02</pdfrwt>
<totfact> 0.13091324E+05</totfact>
</mgrwt>
</event>
<event>
 4    1  0.1352171E+004  0.3794471E+02  0.7546771E-02  0.1523905E+00
          2   -1    0    0  501    0  0.00000000000E+00  0.00000000000E+00  0.12826906908E+03  0.12826906908E+03  0.00000000000E+00 0. -1.
         -2   -1    0    0    0  501 -0.00000000000E+00 -0.00000000000E+00 -0.11271076731E+02  0.11271076731E+02  0.00000000000E+00 0.  1.
          2    1    1    2  502    0 -0.11872360349E+02 -0.36039537469E+02  0.62967147725E+02  0.73516412412E+02  0.00000000000E+00 0. -1.
         -2    1    1    2    0  502  0.11872360349E+02  0.36039537469E+02  0.54030844624E+02  0.66023733400E+02  0.00000000000E+00 0.  1.
<mgrwt>
<rscale>  2 0.37944712E+02</rscale>
<asrwt>0</asrwt>
<pdfrwt beam="1">  1        2 0.19733702E-01 0.37944712E+02</pdfrwt>
<pdfrwt beam="2">  1       -2 0.17340119E-02 0.37944712E+02</pdfrwt>
<totfact> 0.18752760E+05</totfact>
</mgrwt>
</event>
<event>
 4    1  0.1352171E+004  0.2176034E+02  0.7546771E-02  0.1712430E+00
          2   -1    0    0  501    0  0.00000000000E+00  0.00000000000E+00  0.64082329828E+03  0.64082329828E+03  0.00000000000E+00 0.  1.
         -2   -1    0    0    0  501 -0.00000000000E+00 -0.00000000000E+00 -0.26923733209E+01  0.26923733209E+01  0.00000000000E+00 0.  1.
          2    1    1    2  502    0  0.14116408837E+02  0.16560176562E+02  0.59313693179E+03  0.59353595704E+03  0.00000000000E+00 0.  1.
         -2    1    1    2    0  502 -0.14116408837E+02 -0.16560176562E+02  0.44993993163E+02  0.49979714555E+02  0.00000000000E+00 0.  1.
<mgrwt>
<rscale>  2 0.21760341E+02</rscale>
<asrwt>0</asrwt>
<pdfrwt beam="1">  1        2 0.98588079E-01 0.21760341E+02</pdfrwt>
<pdfrwt beam="2">  1       -2 0.41421179E-03 0.21760341E+02</pdfrwt>
<totfact> 0.22252709E+05</totfact>
</mgrwt>
</event>
<event>
 4    1  0.1352171E+004  0.2103547E+02  0.7546771E-02  0.1725487E+00
         -2   -1    0    0    0  501 -0.00000000000E+00  0.00000000000E+00  0.31590746250E+00  0.31590746250E+00  0.00000000000E+00 0.  1.
          2   -1    0    0  501    0  0.00000000000E+00 -0.00000000000E+00 -0.15078546589E+04  0.15078546589E+04  0.00000000000E+00 0. -1.
          2    1    1    2  502    0 -0.20999316087E+02  0.12325449621E+01 -0.55274275931E+03  0.55314288246E+03  0.00000000000E+00 0. -1.
         -2    1    1    2    0  502  0.20999316087E+02 -0.12325449621E+01 -0.95479599211E+03  0.95502768389E+03  0.00000000000E+00 0.  1.
<mgrwt>
<rscale>  2 0.21035467E+02</rscale>
<asrwt>0</asrwt>
<pdfrwt beam="2">  1        2 0.23198062E+00 0.21035467E+02</pdfrwt>
<pdfrwt beam="1">  1       -2 0.48600523E-04 0.21035467E+02</pdfrwt>
<totfact> 0.12550949E+06</totfact>
</mgrwt>
</event>
<event>
 4    1  0.1352171E+004  0.2042646E+02  0.7546771E-02  0.1736978E+00
          2   -1    0    0  501    0  0.00000000000E+00  0.00000000000E+00  0.38013493290E+03  0.38013493290E+03  0.00000000000E+00 0.  1.
         -2   -1    0    0    0  501 -0.00000000000E+00 -0.00000000000E+00 -0.37488306900E+02  0.37488306900E+02  0.00000000000E+00 0.  1.
          2    1    1    2  502    0  0.48161048041E+01 -0.19850576838E+02  0.37705535173E+03  0.37760823420E+03  0.00000000000E+00 0.  1.
         -2    1    1    2    0  502 -0.48161048041E+01  0.19850576838E+02 -0.34408725734E+02  0.40015005597E+02  0.00000000000E+00 0.  1.
<mgrwt>
<rscale>  2 0.20426460E+02</rscale>
<asrwt>0</asrwt>
<pdfrwt beam="1">  1        2 0.58482295E-01 0.20426460E+02</pdfrwt>
<pdfrwt beam="2">  1       -2 0.57674321E-02 0.20426460E+02</pdfrwt>
<totfact> 0.10201995E+04</totfact>
</mgrwt>
</event>
<event>
 4    1  0.1352171E+004  0.2502949E+02  0.7546771E-02  0.1660579E+00
          2   -1    0    0  501    0  0.00000000000E+00  0.00000000000E+00  0.88386757580E+02  0.88386757580E+02  0.00000000000E+00 0. -1.
         -2   -1    0    0    0  501 -0.00000000000E+00 -0.00000000000E+00 -0.30863660569E+02  0.30863660569E+02  0.00000000000E+00 0. -1.
          2    1    1    2  502    0  0.23307682652E+02 -0.91228928965E+01  0.81094296084E+02  0.84869076245E+02  0.00000000000E+00 0. -1.
         -2    1    1    2    0  502 -0.23307682652E+02  0.91228928965E+01 -0.23571199072E+02  0.34381341904E+02  0.00000000000E+00 0. -1.
<mgrwt>
<rscale>  2 0.25029488E+02</rscale>
<asrwt>0</asrwt>
<pdfrwt beam="1">  1        2 0.13597963E-01 0.25029488E+02</pdfrwt>
<pdfrwt beam="2">  1       -2 0.47482555E-02 0.25029488E+02</pdfrwt>
<totfact> 0.62551936E+04</totfact>
</mgrwt>
</event>
<event>
 4    1  0.1352171E+004  0.2175429E+02  0.7546771E-02  0.1712536E+00
          2   -1    0    0  501    0  0.00000000000E+00  0.00000000000E+00  0.14561411655E+04  0.14561411655E+04  0.00000000000E+00 0. -1.
         -2   -1    0    0    0  501 -0.00000000000E+00 -0.00000000000E+00 -0.12542253606E+01  0.12542253606E+01  0.00000000000E+00 0. -1.
          2    1    1    2  502    0 -0.21688370488E+02  0.16922880181E+01  0.13546630287E+04  0.13548376916E+04  0.00000000000E+00 0. -1.
         -2    1    1    2    0  502  0.21688370488E+02 -0.16922880181E+01  0.10022391139E+03  0.10255769921E+03  0.00000000000E+00 0. -1.
<mgrwt>
<rscale>  2 0.21754293E+02</rscale>
<asrwt>0</asrwt>
<pdfrwt beam="1">  1        2 0.22402037E+00 0.21754293E+02</pdfrwt>
<pdfrwt beam="2">  1       -2 0.19295891E-03 0.21754293E+02</pdfrwt>
<totfact> 0.21915201E+05</totfact>
</mgrwt>
</event>
<event>
 4    1  0.1352171E+004  0.2370068E+02  0.7546771E-02  0.1680398E+00
         -2   -1    0    0    0  501 -0.00000000000E+00  0.00000000000E+00  0.46339993513E+01  0.46339993513E+01  0.00000000000E+00 0.  1.
          2   -1    0    0  501    0  0.00000000000E+00 -0.00000000000E+00 -0.18548994588E+03  0.18548994588E+03  0.00000000000E+00 0.  1.
          2    1    1    2  502    0 -0.20570415522E+02 -0.11772007640E+02 -0.14638553710E+03  0.14829176522E+03  0.00000000000E+00 0.  1.
         -2    1    1    2    0  502  0.20570415522E+02  0.11772007640E+02 -0.34470409422E+02  0.41832180009E+02  0.00000000000E+00 0.  1.
<mgrwt>
<rscale>  2 0.23700678E+02</rscale>
<asrwt>0</asrwt>
<pdfrwt beam="2">  1        2 0.28536917E-01 0.23700678E+02</pdfrwt>
<pdfrwt beam="1">  1       -2 0.71292292E-03 0.23700678E+02</pdfrwt>
<totfact> 0.38070931E+05</totfact>
</mgrwt>
</event>
<event>
 4    1  0.1352171E+004  0.2641551E+02  0.7546771E-02  0.1641465E+00
          2   -1    0    0  501    0  0.00000000000E+00  0.00000000000E+00  0.20214960016E+04  0.20214960016E+04  0.00000000000E+00 0. -1.
         -2   -1    0    0    0  501 -0.00000000000E+00 -0.00000000000E+00 -0.14100766380E+01  0.14100766380E+01  0.00000000000E+00 0. -1.
          2    1    1    2  502    0 -0.48791037259E+01 -0.25960999722E+02  0.18890213096E+04  0.18892059938E+04  0.00000000000E+00 0. -1.
         -2    1    1    2    0  502  0.48791037259E+01  0.25960999722E+02  0.13106461541E+03  0.13370008442E+03  0.00000000000E+00 0. -1.
<mgrwt>
<rscale>  2 0.26415510E+02</rscale>
<asrwt>0</asrwt>
<pdfrwt beam="1">  1        2 0.31099707E+00 0.26415510E+02</pdfrwt>
<pdfrwt beam="2">  1       -2 0.21693649E-03 0.26415510E+02</pdfrwt>
<totfact> 0.10613798E+05</totfact>
</mgrwt>
</event>
<event>
 4    1  0.1352171E+004  0.2490192E+02  0.7546771E-02  0.1662415E+00
          2   -1    0    0  501    0  0.00000000000E+00  0.00000000000E+00  0.14034507326E+04  0.14034507326E+04  0.00000000000E+00 0.  1.
         -2   -1    0    0    0  501 -0.00000000000E+00 -0.00000000000E+00 -0.60827227073E+01  0.60827227073E+01  0.00000000000E+00 0. -1.
          2    1    1    2  502    0  0.70114052174E+00 -0.24892050008E+02  0.13773713927E+04  0.13775964791E+04  0.00000000000E+00 0.  1.
         -2    1    1    2    0  502 -0.70114052174E+00  0.24892050008E+02  0.19996617209E+02  0.31936976241E+02  0.00000000000E+00 0. -1.
<mgrwt>
<rscale>  2 0.24901923E+02</rscale>
<asrwt>0</asrwt>
<pdfrwt beam="1">  1        2 0.21591524E+00 0.24901923E+02</pdfrwt>
<pdfrwt beam="2">  1       -2 0.93580461E-03 0.24901923E+02</pdfrwt>
<totfact> 0.28807672E+04</totfact>
</mgrwt>
</event>
<event>
 4    1  0.1571646E+004  0.3114327E+02  0.7546771E-02  0.1585785E+00
          2   -1    0    0  501    0  0.00000000000E+00  0.00000000000E+00  0.63204237401E+03  0.63204237401E+03  0.00000000000E+00 0. -1.
         -2   -1    0    0    0  501 -0.00000000000E+00 -0.00000000000E+00 -0.26376306921E+03  0.26376306921E+03  0.00000000000E+00 0. -1.
          2    1    1    2  502    0  0.36564324531E+01 -0.30927880824E+02  0.63073754075E+03  0.63150593712E+03  0.00000000000E+00 0. -1.
         -2    1    1    2    0  502 -0.36564324531E+01  0.30927880824E+02 -0.26245823595E+03  0.26429950610E+03  0.00000000000E+00 0. -1.
<mgrwt>
<rscale>  2 0.31143271E+02</rscale>
<asrwt>0</asrwt>
<pdfrwt beam="1">  1        2 0.97237288E-01 0.31143271E+02</pdfrwt>
<pdfrwt beam="2">  1       -2 0.40578934E-01 0.31143271E+02</pdfrwt>
<totfact> 0.28552118E+02</totfact>
</mgrwt>
</event>
<event>
 4    1  0.1352171E+004  0.2702921E+02  0.7546771E-02  0.1633457E+00
          2   -1    0    0  501    0  0.00000000000E+00  0.00000000000E+00  0.19596775982E+02  0.19596775982E+02  0.00000000000E+00 0. -1.
         -2   -1    0    0    0  501 -0.00000000000E+00 -0.00000000000E+00 -0.21081751976E+03  0.21081751976E+03  0.00000000000E+00 0. -1.
          2    1    1    2  502    0 -0.83834972483E+01  0.25696207052E+02  0.89150940931E+01  0.28461500060E+02  0.00000000000E+00 0. -1.
         -2    1    1    2    0  502  0.83834972483E+01 -0.25696207052E+02 -0.20013583787E+03  0.20195279568E+03  0.00000000000E+00 0. -1.
<mgrwt>
<rscale>  2 0.27029208E+02</rscale>
<asrwt>0</asrwt>
<pdfrwt beam="1">  1        2 0.30148887E-02 0.27029208E+02</pdfrwt>
<pdfrwt beam="2">  1       -2 0.32433464E-01 0.27029208E+02</pdfrwt>
<totfact> 0.19901857E+04</totfact>
</mgrwt>
</event>
<event>
 4    1  0.1352171E+004  0.2209687E+02  0.7546771E-02  0.1706582E+00
         -2   -1    0    0    0  501 -0.00000000000E+00  0.00000000000E+00  0.32863571823E+02  0.32863571823E+02  0.00000000000E+00 0.  1.
          2   -1    0    0  501    0  0.00000000000E+00 -0.00000000000E+00 -0.14717467213E+03  0.14717467213E+03  0.00000000000E+00 0. -1.
          2    1    1    2  502    0  0.13564914906E+02  0.17443189958E+02 -0.14251002130E+03  0.14421296046E+03  0.00000000000E+00 0. -1.
         -2    1    1    2    0  502 -0.13564914906E+02 -0.17443189958E+02  0.28198920995E+02  0.35825283496E+02  0.00000000000E+00 0.  1.
<mgrwt>
<rscale>  2 0.22096873E+02</rscale>
<asrwt>0</asrwt>
<pdfrwt beam="2">  1        2 0.22642257E-01 0.22096873E+02</pdfrwt>
<pdfrwt beam="1">  1       -2 0.50559342E-02 0.22096873E+02</pdfrwt>
<totfact> 0.32168983E+04</totfact>
</mgrwt>
</event>
<event>
 4    1  0.1352171E+004  0.2013524E+02  0.7546771E-02  0.1742652E+00
         -2   -1    0    0    0  501 -0.00000000000E+00  0.00000000000E+00  0.97699096181E+03  0.97699096181E+03  0.00000000000E+00 0.  1.
          2   -1    0    0  501    0  0.00000000000E+00 -0.00000000000E+00 -0.41554755141E+00  0.41554755141E+00  0.00000000000E+00 0. -1.
          2    1    1    2  502    0  0.20120035566E+02  0.78225383629E+00  0.47016255639E+03  0.47059351588E+03  0.00000000000E+00 0. -1.
         -2    1    1    2    0  502 -0.20120035566E+02 -0.78225383629E+00  0.50641285787E+03  0.50681299348E+03  0.00000000000E+00 0.  1.
<mgrwt>
<rscale>  2 0.20135237E+02</rscale>
<asrwt>0</asrwt>
<pdfrwt beam="2">  1        2 0.63931175E-04 0.20135237E+02</pdfrwt>
<pdfrwt beam="1">  1       -2 0.15030446E+00 0.20135237E+02</pdfrwt>
<totfact> 0.11892641E+05</totfact>
</mgrwt>
</event>
<event>
 4    1  0.1352171E+004  0.2028273E+02  0.7546771E-02  0.1739763E+00
          2   -1    0    0  501    0  0.00000000000E+00  0.00000000000E+00  0.27050454258E+03  0.27050454258E+03  0.00000000000E+00 0.  1.
         -2   -1    0    0    0  501 -0.00000000000E+00 -0.00000000000E+00 -0.21464447165E+02  0.21464447165E+02  0.00000000000E+00 0.  1.
          2    1    1    2  502    0 -0.19485241937E+02  0.56315767017E+01  0.26523781228E+03  0.26601219215E+03  0.00000000000E+00 0.  1.
         -2    1    1    2    0  502  0.19485241937E+02 -0.56315767017E+01 -0.16197716868E+02  0.25956797592E+02  0.00000000000E+00 0.  1.
<mgrwt>
<rscale>  2 0.20282734E+02</rscale>
<asrwt>0</asrwt>
<pdfrwt beam="1">  1        2 0.41616081E-01 0.20282734E+02</pdfrwt>
<pdfrwt beam="2">  1       -2 0.33022228E-02 0.20282734E+02</pdfrwt>
<totfact> 0.31117449E+04</totfact>
</mgrwt>
</event>
<event>
 4    1  0.1352171E+004  0.3103485E+02  0.7546771E-02  0.1586924E+00
          2   -1    0    0  501    0  0.00000000000E+00  0.00000000000E+00  0.67689861793E+03  0.67689861793E+03  0.00000000000E+00 0.  1.
         -2   -1    0    0    0  501 -0.00000000000E+00 -0.00000000000E+00 -0.67238771790E+02  0.67238771790E+02  0.00000000000E+00 0. -1.
          2    1    1    2  502    0 -0.21134792399E+02  0.22726247074E+02  0.67294071584E+03  0.67365597213E+03  0.00000000000E+00 0.  1.
         -2    1    1    2    0  502  0.21134792399E+02 -0.22726247074E+02 -0.63280869697E+02  0.70481417590E+02  0.00000000000E+00 0. -1.
<mgrwt>
<rscale>  2 0.31034847E+02</rscale>
<asrwt>0</asrwt>
<pdfrwt beam="1">  1        2 0.10413824E+00 0.31034847E+02</pdfrwt>
<pdfrwt beam="2">  1       -2 0.10344427E-01 0.31034847E+02</pdfrwt>
<totfact> 0.25115328E+03</totfact>
</mgrwt>
</event>
<event>
 4    1  0.1352171E+004  0.3930408E+02  0.7546771E-02  0.1513396E+00
         -2   -1    0    0    0  501 -0.00000000000E+00  0.00000000000E+00  0.33140888174E+01  0.33140888174E+01  0.00000000000E+00 0.  1.
          2   -1    0    0  501    0  0.00000000000E+00 -0.00000000000E+00 -0.18563296340E+04  0.18563296340E+04  0.00000000000E+00 0.  1.
          2    1    1    2  502    0  0.18409513922E+02  0.34726079918E+02 -0.17311634879E+04  0.17316096075E+04  0.00000000000E+00 0.  1.
         -2    1    1    2    0  502 -0.18409513922E+02 -0.34726079918E+02 -0.12185205723E+03  0.12803411530E+03  0.00000000000E+00 0.  1.
<mgrwt>
<rscale>  2 0.39304082E+02</rscale>
<asrwt>0</asrwt>
<pdfrwt beam="2">  1        2 0.28558997E+00 0.39304082E+02</pdfrwt>
<pdfrwt beam="1">  1       -2 0.50985839E-03 0.39304082E+02</pdfrwt>
<totfact> 0.42468793E+04</totfact>
</mgrwt>
</event>
<event>
 4    1  0.1352171E+004  0.2071651E+02  0.7546771E-02  0.1731444E+00
         -2   -1    0    0    0  501 -0.00000000000E+00  0.00000000000E+00  0.31039280367E+02  0.31039280367E+02  0.00000000000E+00 0. -1.
          2   -1    0    0  501    0  0.00000000000E+00 -0.00000000000E+00 -0.94017008152E+02  0.94017008152E+02  0.00000000000E+00 0.  1.
          2    1    1    2  502    0 -0.16704451529E+02  0.12252955113E+02 -0.89236342134E+02  0.91609488413E+02  0.00000000000E+00 0.  1.
         -2    1    1    2    0  502  0.16704451529E+02 -0.12252955113E+02  0.26258614349E+02  0.33446800107E+02  0.00000000000E+00 0. -1.
<mgrwt>
<rscale>  2 0.20716506E+02</rscale>
<asrwt>0</asrwt>
<pdfrwt beam="2">  1        2 0.14464155E-01 0.20716506E+02</pdfrwt>
<pdfrwt beam="1">  1       -2 0.47752739E-02 0.20716506E+02</pdfrwt>
<totfact> 0.55534442E+04</totfact>
</mgrwt>
</event>
<event>
 4    1  0.1352171E+004  0.2602509E+02  0.7546771E-02  0.1646700E+00
         -2   -1    0    0    0  501 -0.00000000000E+00  0.00000000000E+00  0.48930474308E+02  0.48930474308E+02  0.00000000000E+00 0.  1.
          2   -1    0    0  501    0  0.00000000000E+00 -0.00000000000E+00 -0.72687587381E+03  0.72687587381E+03  0.00000000000E+00 0.  1.
          2    1    1    2  502    0  0.17033559828E+01 -0.25969288792E+02 -0.72316461945E+03  0.72363276060E+03  0.00000000000E+00 0.  1.
         -2    1    1    2    0  502 -0.17033559828E+01  0.25969288792E+02  0.45219219950E+02  0.52173587521E+02  0.00000000000E+00 0.  1.
<mgrwt>
<rscale>  2 0.26025091E+02</rscale>
<asrwt>0</asrwt>
<pdfrwt beam="2">  1        2 0.11182706E+00 0.26025091E+02</pdfrwt>
<pdfrwt beam="1">  1       -2 0.75277652E-02 0.26025091E+02</pdfrwt>
<totfact> 0.36746484E+03</totfact>
</mgrwt>
</event>
<event>
 4    1  0.1352171E+004  0.2236928E+02  0.7546771E-02  0.1701943E+00
         -2   -1    0    0    0  501 -0.00000000000E+00  0.00000000000E+00  0.14190957095E+04  0.14190957095E+04  0.00000000000E+00 0. -1.
          2   -1    0    0  501    0  0.00000000000E+00 -0.00000000000E+00 -0.34773637201E+02  0.34773637201E+02  0.00000000000E+00 0.  1.
          2    1    1    2  502    0 -0.13228711181E+02 -0.18038453835E+02 -0.31078652118E+02  0.38291869028E+02  0.00000000000E+00 0.  1.
         -2    1    1    2    0  502  0.13228711181E+02  0.18038453835E+02  0.14154007244E+04  0.14155774777E+04  0.00000000000E+00 0. -1.
<mgrwt>
<rscale>  2 0.22369278E+02</rscale>
<asrwt>0</asrwt>
<pdfrwt beam="2">  1        2 0.53497914E-02 0.22369278E+02</pdfrwt>
<pdfrwt beam="1">  1       -2 0.21832237E+00 0.22369278E+02</pdfrwt>
<totfact> 0.15182952E+02</totfact>
</mgrwt>
</event>
<event>
 4    1  0.1352171E+004  0.2173132E+02  0.7546771E-02  0.1712940E+00
          2   -1    0    0  501    0  0.00000000000E+00  0.00000000000E+00  0.13863477290E+04  0.13863477290E+04  0.00000000000E+00 0.  1.
         -2   -1    0    0    0  501 -0.00000000000E+00 -0.00000000000E+00 -0.10903664641E+02  0.10903664641E+02  0.00000000000E+00 0.  1.
          2    1    1    2  502    0  0.20970236463E+02  0.57008362553E+01  0.13753481870E+04  0.13755198602E+04  0.00000000000E+00 0.  1.
         -2    1    1    2    0  502 -0.20970236463E+02 -0.57008362553E+01  0.95877326527E-01  0.21731533397E+02  0.00000000000E+00 0.  1.
<mgrwt>
<rscale>  2 0.21731322E+02</rscale>
<asrwt>0</asrwt>
<pdfrwt beam="1">  1        2 0.21328413E+00 0.21731322E+02</pdfrwt>
<pdfrwt beam="2">  1       -2 0.16774880E-02 0.21731322E+02</pdfrwt>
<totfact> 0.13049358E+04</totfact>
</mgrwt>
</event>
<event>
 4    1  0.1352171E+004  0.2019050E+02  0.7546771E-02  0.1741566E+00
          2   -1    0    0  501    0  0.00000000000E+00  0.00000000000E+00  0.29511716211E+03  0.29511716211E+03  0.00000000000E+00 0. -1.
         -2   -1    0    0    0  501 -0.00000000000E+00 -0.00000000000E+00 -0.14941075630E+02  0.14941075630E+02  0.00000000000E+00 0. -1.
          2    1    1    2  502    0 -0.13228872919E+02 -0.15252971582E+02  0.28777699488E+03  0.28848441033E+03  0.00000000000E+00 0. -1.
         -2    1    1    2    0  502  0.13228872919E+02  0.15252971582E+02 -0.76009083976E+01  0.21573827413E+02  0.00000000000E+00 0. -1.
<mgrwt>
<rscale>  2 0.20190498E+02</rscale>
<asrwt>0</asrwt>
<pdfrwt beam="1">  1        2 0.45402636E-01 0.20190498E+02</pdfrwt>
<pdfrwt beam="2">  1       -2 0.22986272E-02 0.20190498E+02</pdfrwt>
<totfact> 0.47034074E+04</totfact>
</mgrwt>
</event>
<event>
 4    1  0.1352171E+004  0.3241456E+02  0.7546771E-02  0.1572836E+00
         -2   -1    0    0    0  501 -0.00000000000E+00  0.00000000000E+00  0.12736322440E+04  0.12736322440E+04  0.00000000000E+00 0. -1.
          2   -1    0    0  501    0  0.00000000000E+00 -0.00000000000E+00 -0.88269149088E+03  0.88269149088E+03  0.00000000000E+00 0. -1.
          2    1    1    2  502    0 -0.29049065155E+02  0.14382471363E+02 -0.88218754634E+03  0.88278285585E+03  0.00000000000E+00 0. -1.
         -2    1    1    2    0  502  0.29049065155E+02 -0.14382471363E+02  0.12731282995E+04  0.12735408791E+04  0.00000000000E+00 0. -1.
<mgrwt>
<rscale>  2 0.32414560E+02</rscale>
<asrwt>0</asrwt>
<pdfrwt beam="2">  1        2 0.13579869E+00 0.32414560E+02</pdfrwt>
<pdfrwt beam="1">  1       -2 0.19594342E+00 0.32414560E+02</pdfrwt>
<totfact> 0.61110557E+00</totfact>
</mgrwt>
</event>
<event>
 4    1  0.1352171E+004  0.6149292E+02  0.7546771E-02  0.1391671E+00
         -2   -1    0    0    0  501 -0.00000000000E+00  0.00000000000E+00  0.47218709568E+01  0.47218709568E+01  0.00000000000E+00 0.  1.
          2   -1    0    0  501    0  0.00000000000E+00 -0.00000000000E+00 -0.15364353824E+04  0.15364353824E+04  0.00000000000E+00 0. -1.
          2    1    1    2  502    0  0.47667899139E+02  0.38847791627E+02 -0.12990498715E+04  0.13005044975E+04  0.00000000000E+00 0. -1.
         -2    1    1    2    0  502 -0.47667899139E+02 -0.38847791627E+02 -0.23266363996E+03  0.24065275582E+03  0.00000000000E+00 0.  1.
<mgrwt>
<rscale>  2 0.61492923E+02</rscale>
<asrwt>0</asrwt>
<pdfrwt beam="2">  1        2 0.23637457E+00 0.61492923E+02</pdfrwt>
<pdfrwt beam="1">  1       -2 0.72644202E-03 0.61492923E+02</pdfrwt>
<totfact> 0.39225755E+04</totfact>
</mgrwt>
</event>
<event>
 4    1  0.1352171E+004  0.2078134E+02  0.7546771E-02  0.1730222E+00
         -2   -1    0    0    0  501 -0.00000000000E+00  0.00000000000E+00  0.20343848590E+02  0.20343848590E+02  0.00000000000E+00 0.  1.
          2   -1    0    0  501    0  0.00000000000E+00 -0.00000000000E+00 -0.70602977539E+03  0.70602977539E+03  0.00000000000E+00 0. -1.
          2    1    1    2  502    0  0.14691235322E+02 -0.14698020541E+02 -0.70052812391E+03  0.70083629800E+03  0.00000000000E+00 0. -1.
         -2    1    1    2    0  502 -0.14691235322E+02  0.14698020541E+02  0.14842197111E+02  0.25537325980E+02  0.00000000000E+00 0.  1.
<mgrwt>
<rscale>  2 0.20781343E+02</rscale>
<asrwt>0</asrwt>
<pdfrwt beam="2">  1        2 0.10861997E+00 0.20781343E+02</pdfrwt>
<pdfrwt beam="1">  1       -2 0.31298228E-02 0.20781343E+02</pdfrwt>
<totfact> 0.12862290E+04</totfact>
</mgrwt>
</event>
<event>
 4    1  0.1352171E+004  0.2427104E+02  0.7546771E-02  0.1671698E+00
         -2   -1    0    0    0  501 -0.00000000000E+00  0.00000000000E+00  0.20371522122E+03  0.20371522122E+03  0.00000000000E+00 0.  1.
          2   -1    0    0  501    0  0.00000000000E+00 -0.00000000000E+00 -0.45546949962E+01  0.45546949962E+01  0.00000000000E+00 0.  1.
          2    1    1    2  502    0  0.13917555452E+02 -0.19884271680E+02  0.16250375472E+03  0.16430627775E+03  0.00000000000E+00 0.  1.
         -2    1    1    2    0  502 -0.13917555452E+02  0.19884271680E+02  0.36656771498E+02  0.43963638460E+02  0.00000000000E+00 0.  1.
<mgrwt>
<rscale>  2 0.24271036E+02</rscale>
<asrwt>0</asrwt>
<pdfrwt beam="2">  1        2 0.70072247E-03 0.24271036E+02</pdfrwt>
<pdfrwt beam="1">  1       -2 0.31340796E-01 0.24271036E+02</pdfrwt>
<totfact> 0.13645198E+05</totfact>
</mgrwt>
</event>
<event>
 4    1  0.1352171E+004  0.2448468E+02  0.7546771E-02  0.1668516E+00
         -2   -1    0    0    0  501 -0.00000000000E+00  0.00000000000E+00  0.52134364264E+01  0.52134364264E+01  0.00000000000E+00 0. -1.
          2   -1    0    0  501    0  0.00000000000E+00 -0.00000000000E+00 -0.73764331531E+03  0.73764331531E+03  0.00000000000E+00 0.  1.
          2    1    1    2  502    0  0.19536414922E+02  0.14758996967E+02 -0.70746645989E+03  0.70789002774E+03  0.00000000000E+00 0.  1.
         -2    1    1    2    0  502 -0.19536414922E+02 -0.14758996967E+02 -0.24963418996E+02  0.34966724002E+02  0.00000000000E+00 0. -1.
<mgrwt>
<rscale>  2 0.24484679E+02</rscale>
<asrwt>0</asrwt>
<pdfrwt beam="2">  1        2 0.11348359E+00 0.24484679E+02</pdfrwt>
<pdfrwt beam="1">  1       -2 0.80206710E-03 0.24484679E+02</pdfrwt>
<totfact> 0.80951507E+04</totfact>
</mgrwt>
</event>
<event>
 4    1  0.1352171E+004  0.4324100E+02  0.7546771E-02  0.1485631E+00
          2   -1    0    0  501    0  0.00000000000E+00  0.00000000000E+00  0.35309924758E+04  0.35309924758E+04  0.00000000000E+00 0. -1.
         -2   -1    0    0    0  501 -0.00000000000E+00 -0.00000000000E+00 -0.67322710379E+00  0.67322710379E+00  0.00000000000E+00 0.  1.
          2    1    1    2  502    0 -0.39635733123E+02  0.17285559934E+02  0.94935496764E+03  0.95033922181E+03  0.00000000000E+00 0.  1.
         -2    1    1    2    0  502  0.39635733123E+02 -0.17285559934E+02  0.25809642810E+04  0.25813264811E+04  0.00000000000E+00 0. -1.
<mgrwt>
<rscale>  2 0.43240997E+02</rscale>
<asrwt>0</asrwt>
<pdfrwt beam="1">  1        2 0.54321478E+00 0.43240997E+02</pdfrwt>
<pdfrwt beam="2">  1       -2 0.10357623E-03 0.43240997E+02</pdfrwt>
<totfact> 0.48171903E+04</totfact>
</mgrwt>
</event>
<event>
 4    1  0.1352171E+004  0.5945808E+02  0.7546771E-02  0.1400120E+00
          2   -1    0    0  501    0  0.00000000000E+00  0.00000000000E+00  0.14142849706E+03  0.14142849706E+03  0.00000000000E+00 0.  1.
         -2   -1    0    0    0  501 -0.00000000000E+00 -0.00000000000E+00 -0.41098714732E+02  0.41098714732E+02  0.00000000000E+00 0.  1.
          2    1    1    2  502    0 -0.89308212185E+01 -0.58783530830E+02  0.10728933162E+03  0.12266321267E+03  0.00000000000E+00 0.  1.
         -2    1    1    2    0  502  0.89308212185E+01  0.58783530830E+02 -0.69595492861E+01  0.59863999121E+02  0.00000000000E+00 0.  1.
<mgrwt>
<rscale>  2 0.59458078E+02</rscale>
<asrwt>0</asrwt>
<pdfrwt beam="1">  1        2 0.21758230E-01 0.59458078E+02</pdfrwt>
<pdfrwt beam="2">  1       -2 0.63228793E-02 0.59458078E+02</pdfrwt>
<totfact> 0.28619835E+04</totfact>
</mgrwt>
</event>
<event>
 4    1  0.1352171E+004  0.2553082E+02  0.7546771E-02  0.1653493E+00
          2   -1    0    0  501    0  0.00000000000E+00  0.00000000000E+00  0.27926716913E+02  0.27926716913E+02  0.00000000000E+00 0.  1.
         -2   -1    0    0    0  501 -0.00000000000E+00 -0.00000000000E+00 -0.33736594566E+02  0.33736594566E+02  0.00000000000E+00 0.  1.
          2    1    1    2  502    0  0.23803931839E+02  0.92301516300E+01  0.14210255555E+02  0.29219073104E+02  0.00000000000E+00 0.  1.
         -2    1    1    2    0  502 -0.23803931839E+02 -0.92301516300E+01 -0.20020133208E+02  0.32444238375E+02  0.00000000000E+00 0.  1.
<mgrwt>
<rscale>  2 0.25530822E+02</rscale>
<asrwt>0</asrwt>
<pdfrwt beam="1">  1        2 0.42964180E-02 0.25530822E+02</pdfrwt>
<pdfrwt beam="2">  1       -2 0.51902453E-02 0.25530822E+02</pdfrwt>
<totfact> 0.21657443E+05</totfact>
</mgrwt>
</event>
<event>
 4    1  0.1352171E+004  0.2102519E+02  0.7546771E-02  0.1725677E+00
          2   -1    0    0  501    0  0.00000000000E+00  0.00000000000E+00  0.12074186897E+04  0.12074186897E+04  0.00000000000E+00 0.  1.
         -2   -1    0    0    0  501 -0.00000000000E+00 -0.00000000000E+00 -0.46718816156E+00  0.46718816156E+00  0.00000000000E+00 0. -1.
          2    1    1    2  502    0  0.82121551058E+01 -0.19355064241E+02  0.32256978549E+03  0.32325427223E+03  0.00000000000E+00 0. -1.
         -2    1    1    2    0  502 -0.82121551058E+01  0.19355064241E+02  0.88438171610E+03  0.88463160568E+03  0.00000000000E+00 0.  1.
<mgrwt>
<rscale>  2 0.21025186E+02</rscale>
<asrwt>0</asrwt>
<pdfrwt beam="1">  1        2 0.18575422E+00 0.21025186E+02</pdfrwt>
<pdfrwt beam="2">  1       -2 0.71876068E-04 0.21025186E+02</pdfrwt>
<totfact> 0.10485673E+06</totfact>
</mgrwt>
</event>
<event>
 4    1  0.1352171E+004  0.2809228E+02  0.7546771E-02  0.1620187E+00
          2   -1    0    0  501    0  0.00000000000E+00  0.00000000000E+00  0.59936673476E+03  0.59936673476E+03  0.00000000000E+00 0.  1.
         -2   -1    0    0    0  501 -0.00000000000E+00 -0.00000000000E+00 -0.41375328490E+01  0.41375328490E+01  0.00000000000E+00 0. -1.
          2    1    1    2  502    0 -0.27813019922E+02 -0.39511929998E+01  0.54676960022E+03  0.54749079602E+03  0.00000000000E+00 0.  1.
         -2    1    1    2    0  502  0.27813019922E+02  0.39511929998E+01  0.48459601693E+02  0.56013471589E+02  0.00000000000E+00 0. -1.
<mgrwt>
<rscale>  2 0.28092277E+02</rscale>
<asrwt>0</asrwt>
<pdfrwt beam="1">  1        2 0.92210198E-01 0.28092277E+02</pdfrwt>
<pdfrwt beam="2">  1       -2 0.63654399E-03 0.28092277E+02</pdfrwt>
<totfact> 0.14256783E+05</totfact>
</mgrwt>
</event>
<event>
 4    1  0.1352171E+004  0.2844427E+02  0.7546771E-02  0.1615950E+00
         -2   -1    0    0    0  501 -0.00000000000E+00  0.00000000000E+00  0.80686171262E+03  0.80686171262E+03  0.00000000000E+00 0.  1.
          2   -1    0    0  501    0  0.00000000000E+00 -0.00000000000E+00 -0.10420990712E+03  0.10420990712E+03  0.00000000000E+00 0.  1.
          2    1    1    2  502    0 -0.25931863476E+02 -0.11688246063E+02 -0.10201294486E+03  0.10590428489E+03  0.00000000000E+00 0.  1.
         -2    1    1    2    0  502  0.25931863476E+02  0.11688246063E+02  0.80466475036E+03  0.80516733485E+03  0.00000000000E+00 0.  1.
<mgrwt>
<rscale>  2 0.28444273E+02</rscale>
<asrwt>0</asrwt>
<pdfrwt beam="2">  1        2 0.16032294E-01 0.28444273E+02</pdfrwt>
<pdfrwt beam="1">  1       -2 0.12413257E+00 0.28444273E+02</pdfrwt>
<totfact> 0.17981576E+02</totfact>
</mgrwt>
</event>
<event>
 4    1  0.1352171E+004  0.2999967E+02  0.7546771E-02  0.1598092E+00
          2   -1    0    0  501    0  0.00000000000E+00  0.00000000000E+00  0.14513134206E+03  0.14513134206E+03  0.00000000000E+00 0.  1.
         -2   -1    0    0    0  501 -0.00000000000E+00 -0.00000000000E+00 -0.41585800435E+02  0.41585800435E+02  0.00000000000E+00 0. -1.
          2    1    1    2  502    0  0.14791671404E+02 -0.26099548782E+02  0.13788982610E+03  0.14111549926E+03  0.00000000000E+00 0.  1.
         -2    1    1    2    0  502 -0.14791671404E+02  0.26099548782E+02 -0.34344284475E+02  0.45601643234E+02  0.00000000000E+00 0. -1.
<mgrwt>
<rscale>  2 0.29999666E+02</rscale>
<asrwt>0</asrwt>
<pdfrwt beam="1">  1        2 0.22327898E-01 0.29999666E+02</pdfrwt>
<pdfrwt beam="2">  1       -2 0.63978155E-02 0.29999666E+02</pdfrwt>
<totfact> 0.24635361E+04</totfact>
</mgrwt>
</event>
<event>
 4    1  0.1352171E+004  0.2309033E+02  0.7546771E-02  0.1690050E+00
         -2   -1    0    0    0  501 -0.00000000000E+00  0.00000000000E+00  0.52990941720E+02  0.52990941720E+02  0.00000000000E+00 0. -1.
          2   -1    0    0  501    0  0.00000000000E+00 -0.00000000000E+00 -0.25878413949E+02  0.25878413949E+02  0.00000000000E+00 0. -1.
          2    1    1    2  502    0 -0.15356459827E+02 -0.17243622466E+02 -0.17273602114E+02  0.28836447495E+02  0.00000000000E+00 0. -1.
         -2    1    1    2    0  502  0.15356459827E+02  0.17243622466E+02  0.44386129885E+02  0.50032908173E+02  0.00000000000E+00 0. -1.
<mgrwt>
<rscale>  2 0.23090331E+02</rscale>
<asrwt>0</asrwt>
<pdfrwt beam="2">  1        2 0.39812944E-02 0.23090331E+02</pdfrwt>
<pdfrwt beam="1">  1       -2 0.81524526E-02 0.23090331E+02</pdfrwt>
<totfact> 0.12062431E+05</totfact>
</mgrwt>
</event>
<event>
 4    1  0.1352171E+004  0.2203548E+02  0.7546771E-02  0.1707639E+00
          2   -1    0    0  501    0  0.00000000000E+00  0.00000000000E+00  0.44072663183E+03  0.44072663183E+03  0.00000000000E+00 0.  1.
         -2   -1    0    0    0  501 -0.00000000000E+00 -0.00000000000E+00 -0.71294425144E+01  0.71294425144E+01  0.00000000000E+00 0.  1.
          2    1    1    2  502    0  0.65841033864E+01  0.21028832206E+02  0.42269886473E+03  0.42327283452E+03  0.00000000000E+00 0.  1.
         -2    1    1    2    0  502 -0.65841033864E+01 -0.21028832206E+02  0.10898324586E+02  0.24583239822E+02  0.00000000000E+00 0.  1.
<mgrwt>
<rscale>  2 0.22035476E+02</rscale>
<asrwt>0</asrwt>
<pdfrwt beam="1">  1        2 0.67804076E-01 0.22035476E+02</pdfrwt>
<pdfrwt beam="2">  1       -2 0.10968377E-02 0.22035476E+02</pdfrwt>
<totfact> 0.88470409E+04</totfact>
</mgrwt>
</event>
<event>
 4    1  0.1352171E+004  0.2214164E+02  0.7546771E-02  0.1705814E+00
          2   -1    0    0  501    0  0.00000000000E+00  0.00000000000E+00  0.15747239805E+04  0.15747239805E+04  0.00000000000E+00 0. -1.
         -2   -1    0    0    0  501 -0.00000000000E+00 -0.00000000000E+00 -0.10936788775E+01  0.10936788775E+01  0.00000000000E+00 0.  1.
          2    1    1    2  502    0  0.21767015714E+02  0.40557440263E+01  0.14532113061E+04  0.14533799751E+04  0.00000000000E+00 0. -1.
         -2    1    1    2    0  502 -0.21767015714E+02 -0.40557440263E+01  0.12041899550E+03  0.12243768419E+03  0.00000000000E+00 0.  1.
<mgrwt>
<rscale>  2 0.22141636E+02</rscale>
<asrwt>0</asrwt>
<pdfrwt beam="1">  1        2 0.24226341E+00 0.22141636E+02</pdfrwt>
<pdfrwt beam="2">  1       -2 0.16825955E-03 0.22141636E+02</pdfrwt>
<totfact> 0.23196564E+05</totfact>
</mgrwt>
</event>
<event>
 4    1  0.1518276E+004  0.2374185E+02  0.7546771E-02  0.1679760E+00
         -2   -1    0    0    0  501 -0.00000000000E+00  0.00000000000E+00  0.43419568351E+03  0.43419568351E+03  0.00000000000E+00 0. -1.
          2   -1    0    0  501    0  0.00000000000E+00 -0.00000000000E+00 -0.42882067816E+03  0.42882067816E+03  0.00000000000E+00 0.  1.
          2    1    1    2  502    0 -0.22284991449E+02 -0.81886848870E+01 -0.42816701205E+03  0.42882474930E+03  0.00000000000E+00 0.  1.
         -2    1    1    2    0  502  0.22284991449E+02  0.81886848870E+01  0.43354201740E+03  0.43419161237E+03  0.00000000000E+00 0. -1.
<mgrwt>
<rscale>  2 0.23741849E+02</rscale>
<asrwt>0</asrwt>
<pdfrwt beam="2">  1        2 0.65972412E-01 0.23741849E+02</pdfrwt>
<pdfrwt beam="1">  1       -2 0.66799336E-01 0.23741849E+02</pdfrwt>
<totfact> 0.16276956E+02</totfact>
</mgrwt>
</event>
<event>
 4    1  0.1352171E+004  0.3381493E+02  0.7546771E-02  0.1559383E+00
         -2   -1    0    0    0  501 -0.00000000000E+00  0.00000000000E+00  0.80561950851E+01  0.80561950851E+01  0.00000000000E+00 0. -1.
          2   -1    0    0  501    0  0.00000000000E+00 -0.00000000000E+00 -0.58530691823E+03  0.58530691823E+03  0.00000000000E+00 0.  1.
          2    1    1    2  502    0  0.71950442990E+01 -0.33040590219E+02 -0.54684140616E+03  0.54788591217E+03  0.00000000000E+00 0.  1.
         -2    1    1    2    0  502 -0.71950442990E+01  0.33040590219E+02 -0.30409316988E+02  0.45477201147E+02  0.00000000000E+00 0. -1.
<mgrwt>
<rscale>  2 0.33814927E+02</rscale>
<asrwt>0</asrwt>
<pdfrwt beam="2">  1        2 0.90047218E-01 0.33814927E+02</pdfrwt>
<pdfrwt beam="1">  1       -2 0.12394146E-02 0.33814927E+02</pdfrwt>
<totfact> 0.61096379E+04</totfact>
</mgrwt>
</event>
<event>
 4    1  0.1352171E+004  0.3170193E+02  0.7546771E-02  0.1580004E+00
          2   -1    0    0  501    0  0.00000000000E+00  0.00000000000E+00  0.10903905253E+03  0.10903905253E+03  0.00000000000E+00 0. -1.
         -2   -1    0    0    0  501 -0.00000000000E+00 -0.00000000000E+00 -0.33917108231E+02  0.33917108231E+02  0.00000000000E+00 0. -1.
          2    1    1    2  502    0  0.30892491660E+02  0.71180339515E+01  0.98558599195E+02  0.10353168560E+03  0.00000000000E+00 0. -1.
         -2    1    1    2    0  502 -0.30892491660E+02 -0.71180339515E+01 -0.23436654901E+02  0.39424475155E+02  0.00000000000E+00 0. -1.
<mgrwt>
<rscale>  2 0.31701931E+02</rscale>
<asrwt>0</asrwt>
<pdfrwt beam="1">  1        2 0.16775239E-01 0.31701931E+02</pdfrwt>
<pdfrwt beam="2">  1       -2 0.52180167E-02 0.31701931E+02</pdfrwt>
<totfact> 0.45473889E+04</totfact>
</mgrwt>
</event>
<event>
 4    1  0.1352171E+004  0.2039199E+02  0.7546771E-02  0.1737643E+00
          2   -1    0    0  501    0  0.00000000000E+00  0.00000000000E+00  0.88473536842E+03  0.88473536842E+03  0.00000000000E+00 0. -1.
         -2   -1    0    0    0  501 -0.00000000000E+00 -0.00000000000E+00 -0.14674834351E+03  0.14674834351E+03  0.00000000000E+00 0. -1.
          2    1    1    2  502    0  0.65855184577E+01  0.19299332633E+02  0.88390879164E+03  0.88414398444E+03  0.00000000000E+00 0. -1.
         -2    1    1    2    0  502 -0.65855184577E+01 -0.19299332633E+02 -0.14592176673E+03  0.14733972749E+03  0.00000000000E+00 0. -1.
<mgrwt>
<rscale>  2 0.20391991E+02</rscale>
<asrwt>0</asrwt>
<pdfrwt beam="1">  1        2 0.13611313E+00 0.20391991E+02</pdfrwt>
<pdfrwt beam="2">  1       -2 0.22576669E-01 0.20391991E+02</pdfrwt>
<totfact> 0.53794375E+02</totfact>
</mgrwt>
</event>
<event>
 4    1  0.1352171E+004  0.2253471E+02  0.7546771E-02  0.1699165E+00
         -2   -1    0    0    0  501 -0.00000000000E+00  0.00000000000E+00  0.21530629332E+02  0.21530629332E+02  0.00000000000E+00 0.  1.
          2   -1    0    0  501    0  0.00000000000E+00 -0.00000000000E+00 -0.41819603294E+03  0.41819603294E+03  0.00000000000E+00 0.  1.
          2    1    1    2  502    0 -0.21314643823E+02 -0.73142960884E+01 -0.41190608477E+03  0.41252204261E+03  0.00000000000E+00 0.  1.
         -2    1    1    2    0  502  0.21314643823E+02  0.73142960884E+01  0.15240681163E+02  0.27204619660E+02  0.00000000000E+00 0.  1.
<mgrwt>
<rscale>  2 0.22534706E+02</rscale>
<asrwt>0</asrwt>
<pdfrwt beam="2">  1        2 0.64337849E-01 0.22534706E+02</pdfrwt>
<pdfrwt beam="1">  1       -2 0.33124046E-02 0.22534706E+02</pdfrwt>
<totfact> 0.20593779E+04</totfact>
</mgrwt>
</event>
<event>
 4    1  0.1352171E+004  0.2373596E+02  0.7546771E-02  0.1679851E+00
         -2   -1    0    0    0  501 -0.00000000000E+00  0.00000000000E+00  0.24554921017E+02  0.24554921017E+02  0.00000000000E+00 0.  1.
          2   -1    0    0  501    0  0.00000000000E+00 -0.00000000000E+00 -0.12267059294E+03  0.12267059294E+03  0.00000000000E+00 0. -1.
          2    1    1    2  502    0  0.29889021911E+01  0.23547018310E+02 -0.11543025970E+03  0.11784540917E+03  0.00000000000E+00 0. -1.
         -2    1    1    2    0  502 -0.29889021911E+01 -0.23547018310E+02  0.17314587776E+02  0.29380104790E+02  0.00000000000E+00 0.  1.
<mgrwt>
<rscale>  2 0.23735956E+02</rscale>
<asrwt>0</asrwt>
<pdfrwt beam="2">  1        2 0.18872398E-01 0.23735956E+02</pdfrwt>
<pdfrwt beam="1">  1       -2 0.37776802E-02 0.23735956E+02</pdfrwt>
<totfact> 0.59707013E+04</totfact>
</mgrwt>
</event>
<event>
 4    1  0.1352171E+004  0.3094744E+02  0.7546771E-02  0.1587846E+00
          2   -1    0    0  501    0  0.00000000000E+00  0.00000000000E+00  0.96595169594E+02  0.96595169594E+02  0.00000000000E+00 0.  1.
         -2   -1    0    0    0  501 -0.00000000000E+00 -0.00000000000E+00 -0.14627377744E+02  0.14627377744E+02  0.00000000000E+00 0.  1.
          2    1    1    2  502    0  0.30745299159E+01 -0.30794342421E+02  0.72548340195E+02  0.78873353703E+02  0.00000000000E+00 0.  1.
         -2    1    1    2    0  502 -0.30745299159E+01  0.30794342421E+02  0.94194516558E+01  0.32349193635E+02  0.00000000000E+00 0.  1.
<mgrwt>
<rscale>  2 0.30947444E+02</rscale>
<asrwt>0</asrwt>
<pdfrwt beam="1">  1        2 0.14860795E-01 0.30947444E+02</pdfrwt>
<pdfrwt beam="2">  1       -2 0.22503659E-02 0.30947444E+02</pdfrwt>
<totfact> 0.16985998E+05</totfact>
</mgrwt>
</event>
<event>
 4    1  0.1352171E+004  0.2182534E+02  0.7546771E-02  0.1711290E+00
          2   -1    0    0  501    0  0.00000000000E+00  0.00000000000E+00  0.41090994631E+03  0.41090994631E+03  0.00000000000E+00 0. -1.
         -2   -1    0    0    0  501 -0.00000000000E+00 -0.00000000000E+00 -0.31676171482E+01  0.31676171482E+01  0.00000000000E+00 0. -1.
          2    1    1    2  502    0 -0.32241881510E+01  0.21585879627E+02  0.36872815987E+03  0.36937352568E+03  0.00000000000E+00 0. -1.
         -2    1    1    2    0  502  0.32241881510E+01 -0.21585879627E+02  0.39014169285E+02  0.44704037777E+02  0.00000000000E+00 0. -1.
<mgrwt>
<rscale>  2 0.21825343E+02</rscale>
<asrwt>0</asrwt>
<pdfrwt beam="1">  1        2 0.63216872E-01 0.21825343E+02</pdfrwt>
<pdfrwt beam="2">  1       -2 0.48732604E-03 0.21825343E+02</pdfrwt>
<totfact> 0.28135597E+05</totfact>
</mgrwt>
</event>
<event>
 4    1  0.1352171E+004  0.2263835E+02  0.7546771E-02  0.1697440E+00
          2   -1    0    0  501    0  0.00000000000E+00  0.00000000000E+00  0.67335005255E+02  0.67335005255E+02  0.00000000000E+00 0. -1.
         -2   -1    0    0    0  501 -0.00000000000E+00 -0.00000000000E+00 -0.74229974430E+02  0.74229974430E+02  0.00000000000E+00 0. -1.
          2    1    1    2  502    0  0.83037782249E+01 -0.21060443815E+02  0.63608068541E+02  0.67516526940E+02  0.00000000000E+00 0. -1.
         -2    1    1    2    0  502 -0.83037782249E+01  0.21060443815E+02 -0.70503037717E+02  0.74048452744E+02  0.00000000000E+00 0. -1.
<mgrwt>
<rscale>  2 0.22638353E+02</rscale>
<asrwt>0</asrwt>
<pdfrwt beam="1">  1        2 0.10359232E-01 0.22638353E+02</pdfrwt>
<pdfrwt beam="2">  1       -2 0.11419996E-01 0.22638353E+02</pdfrwt>
<totfact> 0.23157515E+04</totfact>
</mgrwt>
</event>
<event>
 4    1  0.1352171E+004  0.2306826E+02  0.7546771E-02  0.1690406E+00
         -2   -1    0    0    0  501 -0.00000000000E+00  0.00000000000E+00  0.48186337597E+00  0.48186337597E+00  0.00000000000E+00 0.  1.
          2   -1    0    0  501    0  0.00000000000E+00 -0.00000000000E+00 -0.18716354901E+04  0.18716354901E+04  0.00000000000E+00 0. -1.
          2    1    1    2  502    0 -0.21672210487E+02 -0.79031511184E+01 -0.15349146585E+04  0.15350879953E+04  0.00000000000E+00 0. -1.
         -2    1    1    2    0  502  0.21672210487E+02  0.79031511184E+01 -0.33623896821E+03  0.33702935814E+03  0.00000000000E+00 0.  1.
<mgrwt>
<rscale>  2 0.23068258E+02</rscale>
<asrwt>0</asrwt>
<pdfrwt beam="2">  1        2 0.28794889E+00 0.23068258E+02</pdfrwt>
<pdfrwt beam="1">  1       -2 0.74131549E-04 0.23068258E+02</pdfrwt>
<totfact> 0.50167222E+05</totfact>
</mgrwt>
</event>
<event>
 4    1  0.1352171E+004  0.2773162E+02  0.7546771E-02  0.1624607E+00
         -2   -1    0    0    0  501 -0.00000000000E+00  0.00000000000E+00  0.20909399703E+02  0.20909399703E+02  0.00000000000E+00 0. -1.
          2   -1    0    0  501    0  0.00000000000E+00 -0.00000000000E+00 -0.41775298605E+02  0.41775298605E+02  0.00000000000E+00 0. -1.
          2    1    1    2  502    0  0.27659991508E+02  0.19918366252E+01 -0.21271301515E+02  0.34950118906E+02  0.00000000000E+00 0. -1.
         -2    1    1    2    0  502 -0.27659991508E+02 -0.19918366252E+01  0.40540261319E+00  0.27734579403E+02  0.00000000000E+00 0. -1.
<mgrwt>
<rscale>  2 0.27731616E+02</rscale>
<asrwt>0</asrwt>
<pdfrwt beam="2">  1        2 0.64269690E-02 0.27731616E+02</pdfrwt>
<pdfrwt beam="1">  1       -2 0.32168308E-02 0.27731616E+02</pdfrwt>
<totfact> 0.26595322E+05</totfact>
</mgrwt>
</event>
<event>
 4    1  0.1821597E+004  0.2380494E+02  0.7546771E-02  0.1678785E+00
          2   -1    0    0  501    0  0.00000000000E+00  0.00000000000E+00  0.10708550049E+04  0.10708550049E+04  0.00000000000E+00 0. -1.
         -2   -1    0    0    0  501 -0.00000000000E+00 -0.00000000000E+00 -0.65092406016E+02  0.65092406016E+02  0.00000000000E+00 0. -1.
          2    1    1    2  502    0 -0.84206208252E+01 -0.22265853411E+02  0.10685415730E+04  0.10688067029E+04  0.00000000000E+00 0. -1.
         -2    1    1    2    0  502  0.84206208252E+01  0.22265853411E+02 -0.62778974075E+02  0.67140707988E+02  0.00000000000E+00 0. -1.
<mgrwt>
<rscale>  2 0.23804938E+02</rscale>
<asrwt>0</asrwt>
<pdfrwt beam="1">  1        2 0.16474691E+00 0.23804938E+02</pdfrwt>
<pdfrwt beam="2">  1       -2 0.10014217E-01 0.23804938E+02</pdfrwt>
<totfact> 0.15119887E+03</totfact>
</mgrwt>
</event>
<event>
 4    1  0.1352171E+004  0.2300391E+02  0.7546771E-02  0.1691447E+00
          2   -1    0    0  501    0  0.00000000000E+00  0.00000000000E+00  0.14007663231E+04  0.14007663231E+04  0.00000000000E+00 0. -1.
         -2   -1    0    0    0  501 -0.00000000000E+00 -0.00000000000E+00 -0.11584421322E+02  0.11584421322E+02  0.00000000000E+00 0.  1.
          2    1    1    2  502    0  0.17986805111E+02  0.14340662932E+02  0.13891563675E+04  0.13893468225E+04  0.00000000000E+00 0. -1.
         -2    1    1    2    0  502 -0.17986805111E+02 -0.14340662932E+02  0.25534251159E-01  0.23003921914E+02  0.00000000000E+00 0.  1.
<mgrwt>
<rscale>  2 0.23003908E+02</rscale>
<asrwt>0</asrwt>
<pdfrwt beam="1">  1        2 0.21550238E+00 0.23003908E+02</pdfrwt>
<pdfrwt beam="2">  1       -2 0.17822198E-02 0.23003908E+02</pdfrwt>
<totfact> 0.11902651E+04</totfact>
</mgrwt>
</event>
<event>
 4    1  0.1352171E+004  0.2572234E+02  0.7546771E-02  0.1650838E+00
         -2   -1    0    0    0  501 -0.00000000000E+00  0.00000000000E+00  0.17042124925E+02  0.17042124925E+02  0.00000000000E+00 0. -1.
          2   -1    0    0  501    0  0.00000000000E+00 -0.00000000000E+00 -0.12846233330E+03  0.12846233330E+03  0.00000000000E+00 0. -1.
          2    1    1    2  502    0  0.18563185761E+02 -0.17805807254E+02 -0.11648244619E+03  0.11928872079E+03  0.00000000000E+00 0. -1.
         -2    1    1    2    0  502 -0.18563185761E+02  0.17805807254E+02  0.50622378139E+01  0.26215737435E+02  0.00000000000E+00 0. -1.
<mgrwt>
<rscale>  2 0.25722337E+02</rscale>
<asrwt>0</asrwt>
<pdfrwt beam="2">  1        2 0.19763437E-01 0.25722337E+02</pdfrwt>
<pdfrwt beam="1">  1       -2 0.26218652E-02 0.25722337E+02</pdfrwt>
<totfact> 0.96368512E+04</totfact>
</mgrwt>
</event>
<event>
 4    1  0.1352171E+004  0.2350297E+02  0.7546771E-02  0.1683485E+00
         -2   -1    0    0    0  501 -0.00000000000E+00  0.00000000000E+00  0.12813114464E+03  0.12813114464E+03  0.00000000000E+00 0. -1.
          2   -1    0    0  501    0  0.00000000000E+00 -0.00000000000E+00 -0.16542236188E+02  0.16542236188E+02  0.00000000000E+00 0. -1.
          2    1    1    2  502    0  0.23443684084E+02  0.16682584164E+01 -0.64061322057E+01  0.24360376422E+02  0.00000000000E+00 0. -1.
         -2    1    1    2    0  502 -0.23443684084E+02 -0.16682584164E+01  0.11799504066E+03  0.12031300441E+03  0.00000000000E+00 0. -1.
<mgrwt>
<rscale>  2 0.23502966E+02</rscale>
<asrwt>0</asrwt>
<pdfrwt beam="2">  1        2 0.25449595E-02 0.23502966E+02</pdfrwt>
<pdfrwt beam="1">  1       -2 0.19712483E-01 0.23502966E+02</pdfrwt>
<totfact> 0.55157439E+04</totfact>
</mgrwt>
</event>
<event>
 4    1  0.1352171E+004  0.2055420E+02  0.7546771E-02  0.1734526E+00
         -2   -1    0    0    0  501 -0.00000000000E+00  0.00000000000E+00  0.25422122530E+01  0.25422122530E+01  0.00000000000E+00 0. -1.
          2   -1    0    0  501    0  0.00000000000E+00 -0.00000000000E+00 -0.34832645729E+03  0.34832645729E+03  0.00000000000E+00 0. -1.
          2    1    1    2  502    0 -0.18916571883E+02  0.80398117201E+01 -0.29975274418E+03  0.30045662401E+03  0.00000000000E+00 0. -1.
         -2    1    1    2    0  502  0.18916571883E+02 -0.80398117201E+01 -0.46031500857E+02  0.50412045540E+02  0.00000000000E+00 0. -1.
<mgrwt>
<rscale>  2 0.20554203E+02</rscale>
<asrwt>0</asrwt>
<pdfrwt beam="2">  1        2 0.53588632E-01 0.20554203E+02</pdfrwt>
<pdfrwt beam="1">  1       -2 0.39110997E-03 0.20554203E+02</pdfrwt>
<totfact> 0.43599696E+05</totfact>
</mgrwt>
</event>
<event>
 4    1  0.1352171E+004  0.2385318E+02  0.7546771E-02  0.1678042E+00
         -2   -1    0    0    0  501 -0.00000000000E+00  0.00000000000E+00  0.23093409801E+02  0.23093409801E+02  0.00000000000E+00 0. -1.
          2   -1    0    0  501    0  0.00000000000E+00 -0.00000000000E+00 -0.25585897726E+02  0.25585897726E+02  0.00000000000E+00 0.  1.
          2    1    1    2  502    0 -0.30185996418E+01 -0.23661394158E+02  0.34388012535E+01  0.24099769114E+02  0.00000000000E+00 0. -1.
         -2    1    1    2    0  502  0.30185996418E+01  0.23661394158E+02 -0.59312891780E+01  0.24579538413E+02  0.00000000000E+00 0.  1.
<mgrwt>
<rscale>  2 0.23853178E+02</rscale>
<asrwt>0</asrwt>
<pdfrwt beam="2">  1        2 0.39362919E-02 0.23853178E+02</pdfrwt>
<pdfrwt beam="1">  1       -2 0.35528323E-02 0.23853178E+02</pdfrwt>
<totfact> 0.40464862E+05</totfact>
</mgrwt>
</event>
<event>
 4    1  0.1352171E+004  0.3584444E+02  0.7546771E-02  0.1541227E+00
          2   -1    0    0  501    0  0.00000000000E+00  0.00000000000E+00  0.11441603858E+04  0.11441603858E+04  0.00000000000E+00 0.  1.
         -2   -1    0    0    0  501 -0.00000000000E+00 -0.00000000000E+00 -0.24892671682E+01  0.24892671682E+01  0.00000000000E+00 0. -1.
          2    1    1    2  502    0  0.26918900776E+02 -0.23668475795E+02  0.99559425153E+03  0.99623929738E+03  0.00000000000E+00 0.  1.
         -2    1    1    2    0  502 -0.26918900776E+02  0.23668475795E+02  0.14607686706E+03  0.15041035554E+03  0.00000000000E+00 0. -1.
<mgrwt>
<rscale>  2 0.35844441E+02</rscale>
<asrwt>0</asrwt>
<pdfrwt beam="1">  1        2 0.17602425E+00 0.35844441E+02</pdfrwt>
<pdfrwt beam="2">  1       -2 0.38296509E-03 0.35844441E+02</pdfrwt>
<totfact> 0.13854042E+05</totfact>
</mgrwt>
</event>
<event>
 4    1  0.1352171E+004  0.2141293E+02  0.7546771E-02  0.1718607E+00
         -2   -1    0    0    0  501 -0.00000000000E+00  0.00000000000E+00  0.15752723922E+02  0.15752723922E+02  0.00000000000E+00 0. -1.
          2   -1    0    0  501    0  0.00000000000E+00 -0.00000000000E+00 -0.72727098117E+03  0.72727098117E+03  0.00000000000E+00 0. -1.
          2    1    1    2  502    0 -0.48734109984E+01 -0.20850985528E+02 -0.71976071793E+03  0.72007916565E+03  0.00000000000E+00 0. -1.
         -2    1    1    2    0  502  0.48734109984E+01  0.20850985528E+02  0.82424606773E+01  0.22944539443E+02  0.00000000000E+00 0. -1.
<mgrwt>
<rscale>  2 0.21412934E+02</rscale>
<asrwt>0</asrwt>
<pdfrwt beam="2">  1        2 0.11188782E+00 0.21412934E+02</pdfrwt>
<pdfrwt beam="1">  1       -2 0.24234965E-02 0.21412934E+02</pdfrwt>
<totfact> 0.17808787E+04</totfact>
</mgrwt>
</event>
<event>
 4    1  0.1352171E+004  0.2242398E+02  0.7546771E-02  0.1701021E+00
          2   -1    0    0  501    0  0.00000000000E+00  0.00000000000E+00  0.14639625649E+01  0.14639625649E+01  0.00000000000E+00 0. -1.
         -2   -1    0    0    0  501 -0.00000000000E+00 -0.00000000000E+00 -0.48459300173E+03  0.48459300173E+03  0.00000000000E+00 0. -1.
          2    1    1    2  502    0 -0.15487273424E+02 -0.16216615049E+02 -0.37271205397E+03  0.37338600592E+03  0.00000000000E+00 0. -1.
         -2    1    1    2    0  502  0.15487273424E+02  0.16216615049E+02 -0.11041698519E+03  0.11267095837E+03  0.00000000000E+00 0. -1.
<mgrwt>
<rscale>  2 0.22423977E+02</rscale>
<asrwt>0</asrwt>
<pdfrwt beam="1">  1        2 0.22522510E-03 0.22423977E+02</pdfrwt>
<pdfrwt beam="2">  1       -2 0.74552740E-01 0.22423977E+02</pdfrwt>
<totfact> 0.11487816E+05</totfact>
</mgrwt>
</event>
<event>
 4    1  0.1352171E+004  0.2490542E+02  0.7546771E-02  0.1662364E+00
          2   -1    0    0  501    0  0.00000000000E+00  0.00000000000E+00  0.27709141340E+03  0.27709141340E+03  0.00000000000E+00 0.  1.
         -2   -1    0    0    0  501 -0.00000000000E+00 -0.00000000000E+00 -0.57129365363E+01  0.57129365363E+01  0.00000000000E+00 0. -1.
          2    1    1    2  502    0  0.22449446079E+00 -0.24904407971E+02  0.24596146514E+03  0.24721917860E+03  0.00000000000E+00 0.  1.
         -2    1    1    2    0  502 -0.22449446079E+00  0.24904407971E+02  0.25417011728E+02  0.35585171341E+02  0.00000000000E+00 0. -1.
<mgrwt>
<rscale>  2 0.24905420E+02</rscale>
<asrwt>0</asrwt>
<pdfrwt beam="1">  1        2 0.42629438E-01 0.24905420E+02</pdfrwt>
<pdfrwt beam="2">  1       -2 0.87891353E-03 0.24905420E+02</pdfrwt>
<totfact> 0.19449809E+05</totfact>
</mgrwt>
</event>
<event>
 4    1  0.1352171E+004  0.2552036E+02  0.7546771E-02  0.1653638E+00
          2   -1    0    0  501    0  0.00000000000E+00  0.00000000000E+00  0.96490528399E+03  0.96490528399E+03  0.00000000000E+00 0.  1.
         -2   -1    0    0    0  501 -0.00000000000E+00 -0.00000000000E+00 -0.29649708764E+02  0.29649708764E+02  0.00000000000E+00 0.  1.
          2    1    1    2  502    0  0.22260602921E+02 -0.12480161067E+02  0.95921242534E+03  0.95955185675E+03  0.00000000000E+00 0.  1.
         -2    1    1    2    0  502 -0.22260602921E+02  0.12480161067E+02 -0.23956850116E+02  0.35003136004E+02  0.00000000000E+00 0.  1.
<mgrwt>
<rscale>  2 0.25520362E+02</rscale>
<asrwt>0</asrwt>
<pdfrwt beam="1">  1        2 0.14844694E+00 0.25520362E+02</pdfrwt>
<pdfrwt beam="2">  1       -2 0.45614944E-02 0.25520362E+02</pdfrwt>
<totfact> 0.54264795E+03</totfact>
</mgrwt>
</event>
<event>
 4    1  0.1352171E+004  0.2159166E+02  0.7546771E-02  0.1715411E+00
         -2   -1    0    0    0  501 -0.00000000000E+00  0.00000000000E+00  0.28380118907E+03  0.28380118907E+03  0.00000000000E+00 0.  1.
          2   -1    0    0  501    0  0.00000000000E+00 -0.00000000000E+00 -0.15669633787E+02  0.15669633787E+02  0.00000000000E+00 0. -1.
          2    1    1    2  502    0  0.20493667010E+02  0.67977436587E+01 -0.76037670040E+01  0.22891417147E+02  0.00000000000E+00 0. -1.
         -2    1    1    2    0  502 -0.20493667010E+02 -0.67977436587E+01  0.27573532228E+03  0.27657940571E+03  0.00000000000E+00 0.  1.
<mgrwt>
<rscale>  2 0.21591658E+02</rscale>
<asrwt>0</asrwt>
<pdfrwt beam="2">  1        2 0.24107131E-02 0.21591658E+02</pdfrwt>
<pdfrwt beam="1">  1       -2 0.43661718E-01 0.21591658E+02</pdfrwt>
<totfact> 0.14825827E+04</totfact>
</mgrwt>
</event>
<event>
 4    1  0.1352171E+004  0.2139306E+02  0.7546771E-02  0.1718965E+00
          2   -1    0    0  501    0  0.00000000000E+00  0.00000000000E+00  0.10155124747E+01  0.10155124747E+01  0.00000000000E+00 0.  1.
         -2   -1    0    0    0  501 -0.00000000000E+00 -0.00000000000E+00 -0.85562167460E+03  0.85562167460E+03  0.00000000000E+00 0.  1.
          2    1    1    2  502    0 -0.66915503769E+01 -0.20319603803E+02 -0.13263946812E+03  0.13435360676E+03  0.00000000000E+00 0.  1.
         -2    1    1    2    0  502  0.66915503769E+01  0.20319603803E+02 -0.72196669401E+03  0.72228358032E+03  0.00000000000E+00 0.  1.
<mgrwt>
<rscale>  2 0.21393063E+02</rscale>
<asrwt>0</asrwt>
<pdfrwt beam="1">  1        2 0.15623225E-03 0.21393063E+02</pdfrwt>
<pdfrwt beam="2">  1       -2 0.13163447E+00 0.21393063E+02</pdfrwt>
<totfact> 0.51954471E+04</totfact>
</mgrwt>
</event>
<event>
 4    1  0.1810096E+004  0.2592681E+02  0.7546771E-02  0.1648036E+00
          2   -1    0    0  501    0  0.00000000000E+00  0.00000000000E+00  0.86771155944E+03  0.86771155944E+03  0.00000000000E+00 0. -1.
         -2   -1    0    0    0  501 -0.00000000000E+00 -0.00000000000E+00 -0.13586311761E+03  0.13586311761E+03  0.00000000000E+00 0.  1.
          2    1    1    2  502    0  0.21387448262E+02  0.14655259977E+02  0.86627893817E+03  0.86666683236E+03  0.00000000000E+00 0. -1.
         -2    1    1    2    0  502 -0.21387448262E+02 -0.14655259977E+02 -0.13443049635E+03  0.13690784469E+03  0.00000000000E+00 0.  1.
<mgrwt>
<rscale>  2 0.25926812E+02</rscale>
<asrwt>0</asrwt>
<pdfrwt beam="1">  1        2 0.13349408E+00 0.25926812E+02</pdfrwt>
<pdfrwt beam="2">  1       -2 0.20902019E-01 0.25926812E+02</pdfrwt>
<totfact> 0.62674636E+02</totfact>
</mgrwt>
</event>
<event>
 4    1  0.1352171E+004  0.2314752E+02  0.7546771E-02  0.1689130E+00
         -2   -1    0    0    0  501 -0.00000000000E+00  0.00000000000E+00  0.65214877425E+02  0.65214877425E+02  0.00000000000E+00 0.  1.
          2   -1    0    0  501    0  0.00000000000E+00 -0.00000000000E+00 -0.13358695179E+02  0.13358695179E+02  0.00000000000E+00 0. -1.
          2    1    1    2  502    0  0.66753413203E+01 -0.22164100484E+02  0.15523113788E+01  0.23199508672E+02  0.00000000000E+00 0. -1.
         -2    1    1    2    0  502 -0.66753413203E+01  0.22164100484E+02  0.50303870868E+02  0.55374063932E+02  0.00000000000E+00 0.  1.
<mgrwt>
<rscale>  2 0.23147517E+02</rscale>
<asrwt>0</asrwt>
<pdfrwt beam="2">  1        2 0.20551839E-02 0.23147517E+02</pdfrwt>
<pdfrwt beam="1">  1       -2 0.10033058E-01 0.23147517E+02</pdfrwt>
<totfact> 0.20471060E+05</totfact>
</mgrwt>
</event>
<event>
 4    1  0.1352171E+004  0.5410406E+02  0.7546771E-02  0.1424384E+00
          2   -1    0    0  501    0  0.00000000000E+00  0.00000000000E+00  0.38601737254E+03  0.38601737254E+03  0.00000000000E+00 0. -1.
         -2   -1    0    0    0  501 -0.00000000000E+00 -0.00000000000E+00 -0.19825777946E+02  0.19825777946E+02  0.00000000000E+00 0.  1.
          2    1    1    2  502    0 -0.18432013640E+02  0.50867574797E+02  0.34255494443E+03  0.34680129648E+03  0.00000000000E+00 0. -1.
         -2    1    1    2    0  502  0.18432013640E+02 -0.50867574797E+02  0.23636650167E+02  0.59041854000E+02  0.00000000000E+00 0.  1.
<mgrwt>
<rscale>  2 0.54104060E+02</rscale>
<asrwt>0</asrwt>
<pdfrwt beam="1">  1        2 0.59387282E-01 0.54104060E+02</pdfrwt>
<pdfrwt beam="2">  1       -2 0.30501200E-02 0.54104060E+02</pdfrwt>
<totfact> 0.28641288E+04</totfact>
</mgrwt>
</event>
<event>
 4    1  0.1352171E+004  0.2219969E+02  0.7546771E-02  0.1704821E+00
         -2   -1    0    0    0  501 -0.00000000000E+00  0.00000000000E+00  0.15434474116E+01  0.15434474116E+01  0.00000000000E+00 0.  1.
          2   -1    0    0  501    0  0.00000000000E+00 -0.00000000000E+00 -0.13054206037E+04  0.13054206037E+04  0.00000000000E+00 0. -1.
          2    1    1    2  502    0 -0.19806130150E+02  0.10027128976E+02 -0.12199053829E+04  0.12201073598E+04  0.00000000000E+00 0. -1.
         -2    1    1    2    0  502  0.19806130150E+02 -0.10027128976E+02 -0.83971773406E+02  0.86856691371E+02  0.00000000000E+00 0.  1.
<mgrwt>
<rscale>  2 0.22199687E+02</rscale>
<asrwt>0</asrwt>
<pdfrwt beam="2">  1        2 0.20083300E+00 0.22199687E+02</pdfrwt>
<pdfrwt beam="1">  1       -2 0.23745456E-03 0.22199687E+02</pdfrwt>
<totfact> 0.19754232E+05</totfact>
</mgrwt>
</event>
<event>
 4    1  0.1352171E+004  0.3316969E+02  0.7546771E-02  0.1565482E+00
         -2   -1    0    0    0  501 -0.00000000000E+00  0.00000000000E+00  0.94579974328E+02  0.94579974328E+02  0.00000000000E+00 0.  1.
          2   -1    0    0  501    0  0.00000000000E+00 -0.00000000000E+00 -0.27335842452E+03  0.27335842452E+03  0.00000000000E+00 0. -1.
          2    1    1    2  502    0 -0.14876510056E+02 -0.29646548354E+02 -0.26940145966E+03  0.27143576560E+03  0.00000000000E+00 0. -1.
         -2    1    1    2    0  502  0.14876510056E+02  0.29646548354E+02  0.90623009461E+02  0.96502633252E+02  0.00000000000E+00 0.  1.
<mgrwt>
<rscale>  2 0.33169691E+02</rscale>
<asrwt>0</asrwt>
<pdfrwt beam="2">  1        2 0.42055142E-01 0.33169691E+02</pdfrwt>
<pdfrwt beam="1">  1       -2 0.14550766E-01 0.33169691E+02</pdfrwt>
<totfact> 0.37833941E+03</totfact>
</mgrwt>
</event>
<event>
 4    1  0.1352171E+004  0.3755839E+02  0.7546771E-02  0.1526988E+00
          2   -1    0    0  501    0  0.00000000000E+00  0.00000000000E+00  0.30563435964E+03  0.30563435964E+03  0.00000000000E+00 0.  1.
         -2   -1    0    0    0  501 -0.00000000000E+00 -0.00000000000E+00 -0.70738464428E+01  0.70738464428E+01  0.00000000000E+00 0.  1.
          2    1    1    2  502    0  0.13647249781E+02  0.34991220724E+02  0.24145448154E+03  0.24435813801E+03  0.00000000000E+00 0.  1.
         -2    1    1    2    0  502 -0.13647249781E+02 -0.34991220724E+02  0.57106031653E+02  0.68350068072E+02  0.00000000000E+00 0.  1.
<mgrwt>
<rscale>  2 0.37558394E+02</rscale>
<asrwt>0</asrwt>
<pdfrwt beam="1">  1        2 0.47020661E-01 0.37558394E+02</pdfrwt>
<pdfrwt beam="2">  1       -2 0.10882843E-02 0.37558394E+02</pdfrwt>
<totfact> 0.14492684E+05</totfact>
</mgrwt>
</event>
<event>
 4    1  0.1352171E+004  0.2890597E+02  0.7546771E-02  0.1610506E+00
          2   -1    0    0  501    0  0.00000000000E+00  0.00000000000E+00  0.28127791226E+03  0.28127791226E+03  0.00000000000E+00 0.  1.
         -2   -1    0    0    0  501 -0.00000000000E+00 -0.00000000000E+00 -0.17009904288E+03  0.17009904288E+03  0.00000000000E+00 0. -1.
          2    1    1    2  502    0 -0.28322420506E+02 -0.57788770554E+01  0.27929854886E+03  0.28079037433E+03  0.00000000000E+00 0.  1.
         -2    1    1    2    0  502  0.28322420506E+02  0.57788770554E+01 -0.16811967948E+03  0.17058658080E+03  0.00000000000E+00 0. -1.
<mgrwt>
<rscale>  2 0.28905967E+02</rscale>
<asrwt>0</asrwt>
<pdfrwt beam="1">  1        2 0.43273525E-01 0.28905967E+02</pdfrwt>
<pdfrwt beam="2">  1       -2 0.26169084E-01 0.28905967E+02</pdfrwt>
<totfact> 0.14025472E+03</totfact>
</mgrwt>
</event>
<event>
 4    1  0.1352171E+004  0.2661896E+02  0.7546771E-02  0.1638781E+00
          2   -1    0    0  501    0  0.00000000000E+00  0.00000000000E+00  0.58283874024E+03  0.58283874024E+03  0.00000000000E+00 0.  1.
         -2   -1    0    0    0  501 -0.00000000000E+00 -0.00000000000E+00 -0.12754245194E+02  0.12754245194E+02  0.00000000000E+00 0. -1.
          2    1    1    2  502    0 -0.26177384245E+02  0.48283915891E+01  0.56829056959E+03  0.56891364924E+03  0.00000000000E+00 0.  1.
         -2    1    1    2    0  502  0.26177384245E+02 -0.48283915891E+01  0.17939254625E+01  0.26679336196E+02  0.00000000000E+00 0. -1.
<mgrwt>
<rscale>  2 0.26618956E+02</rscale>
<asrwt>0</asrwt>
<pdfrwt beam="1">  1        2 0.89667478E-01 0.26618956E+02</pdfrwt>
<pdfrwt beam="2">  1       -2 0.19621920E-02 0.26618956E+02</pdfrwt>
<totfact> 0.31252956E+04</totfact>
</mgrwt>
</event>
<event>
 4    1  0.1352171E+004  0.2840689E+02  0.7546771E-02  0.1616397E+00
          2   -1    0    0  501    0  0.00000000000E+00  0.00000000000E+00  0.74251867182E+03  0.74251867182E+03  0.00000000000E+00 0.  1.
         -2   -1    0    0    0  501 -0.00000000000E+00 -0.00000000000E+00 -0.12379947159E+01  0.12379947159E+01  0.00000000000E+00 0.  1.
          2    1    1    2  502    0  0.25177945331E+02  0.13153808381E+02  0.50061060050E+03  0.50141592011E+03  0.00000000000E+00 0.  1.
         -2    1    1    2    0  502 -0.25177945331E+02 -0.13153808381E+02  0.24067007660E+03  0.24234074642E+03  0.00000000000E+00 0.  1.
<mgrwt>
<rscale>  2 0.28406894E+02</rscale>
<asrwt>0</asrwt>
<pdfrwt beam="1">  1        2 0.11423329E+00 0.28406894E+02</pdfrwt>
<pdfrwt beam="2">  1       -2 0.19046132E-03 0.28406894E+02</pdfrwt>
<totfact> 0.57381690E+05</totfact>
</mgrwt>
</event>
<event>
 4    1  0.1352171E+004  0.4012261E+02  0.7546771E-02  0.1507311E+00
          2   -1    0    0  501    0  0.00000000000E+00  0.00000000000E+00  0.13359044585E+03  0.13359044585E+03  0.00000000000E+00 0. -1.
         -2   -1    0    0    0  501 -0.00000000000E+00 -0.00000000000E+00 -0.12537421764E+02  0.12537421764E+02  0.00000000000E+00 0. -1.
          2    1    1    2  502    0 -0.38531708462E+02 -0.11186128446E+02  0.46126571176E+02  0.61134953955E+02  0.00000000000E+00 0. -1.
         -2    1    1    2    0  502  0.38531708462E+02  0.11186128446E+02  0.74926452912E+02  0.84992913661E+02  0.00000000000E+00 0. -1.
<mgrwt>
<rscale>  2 0.40122608E+02</rscale>
<asrwt>0</asrwt>
<pdfrwt beam="1">  1        2 0.20552375E-01 0.40122608E+02</pdfrwt>
<pdfrwt beam="2">  1       -2 0.19288342E-02 0.40122608E+02</pdfrwt>
<totfact> 0.15659215E+05</totfact>
</mgrwt>
</event>
<event>
 4    1  0.1352171E+004  0.2381549E+02  0.7546771E-02  0.1678622E+00
          2   -1    0    0  501    0  0.00000000000E+00  0.00000000000E+00  0.16098469056E+03  0.16098469056E+03  0.00000000000E+00 0. -1.
         -2   -1    0    0    0  501 -0.00000000000E+00 -0.00000000000E+00 -0.12240374231E+03  0.12240374231E+03  0.00000000000E+00 0. -1.
          2    1    1    2  502    0 -0.23814391673E+02  0.22884276039E+00  0.15893059179E+03  0.16070504232E+03  0.00000000000E+00 0. -1.
         -2    1    1    2    0  502  0.23814391673E+02 -0.22884276039E+00 -0.12034964354E+03  0.12268339056E+03  0.00000000000E+00 0. -1.
<mgrwt>
<rscale>  2 0.23815491E+02</rscale>
<asrwt>0</asrwt>
<pdfrwt beam="1">  1        2 0.24766876E-01 0.23815491E+02</pdfrwt>
<pdfrwt beam="2">  1       -2 0.18831345E-01 0.23815491E+02</pdfrwt>
<totfact> 0.41610503E+03</totfact>
</mgrwt>
</event>
<event>
 4    1  0.1352171E+004  0.3158990E+02  0.7546771E-02  0.1581151E+00
         -2   -1    0    0    0  501 -0.00000000000E+00  0.00000000000E+00  0.91959741789E+00  0.91959741789E+00  0.00000000000E+00 0.  1.
          2   -1    0    0  501    0  0.00000000000E+00 -0.00000000000E+00 -0.16169593713E+04  0.16169593713E+04  0.00000000000E+00 0.  1.
          2    1    1    2  502    0 -0.15916449581E+02  0.27287151871E+02 -0.12719314514E+04  0.12723236770E+04  0.00000000000E+00 0.  1.
         -2    1    1    2    0  502  0.15916449581E+02 -0.27287151871E+02 -0.34410832246E+03  0.34555529168E+03  0.00000000000E+00 0.  1.
<mgrwt>
<rscale>  2 0.31589904E+02</rscale>
<asrwt>0</asrwt>
<pdfrwt beam="2">  1        2 0.24876431E+00 0.31589904E+02</pdfrwt>
<pdfrwt beam="1">  1       -2 0.14147577E-03 0.31589904E+02</pdfrwt>
<totfact> 0.30134853E+05</totfact>
</mgrwt>
</event>
<event>
 4    1  0.1352171E+004  0.4895497E+02  0.7546771E-02  0.1451061E+00
         -2   -1    0    0    0  501 -0.00000000000E+00  0.00000000000E+00  0.40155403130E+01  0.40155403130E+01  0.00000000000E+00 0.  1.
          2   -1    0    0  501    0  0.00000000000E+00 -0.00000000000E+00 -0.63815109095E+03  0.63815109095E+03  0.00000000000E+00 0. -1.
          2    1    1    2  502    0 -0.46571368411E+02  0.15089608175E+02 -0.39877305257E+03  0.40176676827E+03  0.00000000000E+00 0. -1.
         -2    1    1    2    0  502  0.46571368411E+02 -0.15089608175E+02 -0.23536249807E+03  0.24039986299E+03  0.00000000000E+00 0.  1.
<mgrwt>
<rscale>  2 0.48954965E+02</rscale>
<asrwt>0</asrwt>
<pdfrwt beam="2">  1        2 0.98176994E-01 0.48954965E+02</pdfrwt>
<pdfrwt beam="1">  1       -2 0.61777604E-03 0.48954965E+02</pdfrwt>
<totfact> 0.15541034E+05</totfact>
</mgrwt>
</event>
<event>
 4    1  0.1352171E+004  0.3631270E+02  0.7546771E-02  0.1537243E+00
         -2   -1    0    0    0  501 -0.00000000000E+00  0.00000000000E+00  0.10390184578E+02  0.10390184578E+02  0.00000000000E+00 0.  1.
          2   -1    0    0  501    0  0.00000000000E+00 -0.00000000000E+00 -0.89777869039E+03  0.89777869039E+03  0.00000000000E+00 0. -1.
          2    1    1    2  502    0 -0.35820056376E+02 -0.59611973464E+01 -0.86446189845E+03  0.86522424040E+03  0.00000000000E+00 0. -1.
         -2    1    1    2    0  502  0.35820056376E+02  0.59611973464E+01 -0.22926607362E+02  0.42944634563E+02  0.00000000000E+00 0.  1.
<mgrwt>
<rscale>  2 0.36312702E+02</rscale>
<asrwt>0</asrwt>
<pdfrwt beam="2">  1        2 0.13811984E+00 0.36312702E+02</pdfrwt>
<pdfrwt beam="1">  1       -2 0.15984895E-02 0.36312702E+02</pdfrwt>
<totfact> 0.26810653E+04</totfact>
</mgrwt>
</event>
<event>
 4    1  0.1352171E+004  0.3343328E+02  0.7546771E-02  0.1562970E+00
         -2   -1    0    0    0  501 -0.00000000000E+00  0.00000000000E+00  0.69575994176E+01  0.69575994176E+01  0.00000000000E+00 0. -1.
          2   -1    0    0  501    0  0.00000000000E+00 -0.00000000000E+00 -0.34182251855E+03  0.34182251855E+03  0.00000000000E+00 0.  1.
          2    1    1    2  502    0 -0.13207917070E+02 -0.30713758431E+02 -0.29439034506E+03  0.29628273540E+03  0.00000000000E+00 0.  1.
         -2    1    1    2    0  502  0.13207917070E+02  0.30713758431E+02 -0.40474574070E+02  0.52497382568E+02  0.00000000000E+00 0. -1.
<mgrwt>
<rscale>  2 0.33433277E+02</rscale>
<asrwt>0</asrwt>
<pdfrwt beam="2">  1        2 0.52588094E-01 0.33433277E+02</pdfrwt>
<pdfrwt beam="1">  1       -2 0.10703996E-02 0.33433277E+02</pdfrwt>
<totfact> 0.12924421E+05</totfact>
</mgrwt>
</event>
<event>
 4    1  0.1352171E+004  0.2156361E+02  0.7546771E-02  0.1715910E+00
          2   -1    0    0  501    0  0.00000000000E+00  0.00000000000E+00  0.25479392584E+03  0.25479392584E+03  0.00000000000E+00 0. -1.
         -2   -1    0    0    0  501 -0.00000000000E+00 -0.00000000000E+00 -0.10532798533E+03  0.10532798533E+03  0.00000000000E+00 0.  1.
          2    1    1    2  502    0 -0.88154269415E+01 -0.19679367036E+02  0.25322719949E+03  0.25414366764E+03  0.00000000000E+00 0. -1.
         -2    1    1    2    0  502  0.88154269415E+01  0.19679367036E+02 -0.10376125897E+03  0.10597824354E+03  0.00000000000E+00 0.  1.
<mgrwt>
<rscale>  2 0.21563609E+02</rscale>
<asrwt>0</asrwt>
<pdfrwt beam="1">  1        2 0.39199065E-01 0.21563609E+02</pdfrwt>
<pdfrwt beam="2">  1       -2 0.16204306E-01 0.21563609E+02</pdfrwt>
<totfact> 0.32813302E+03</totfact>
</mgrwt>
</event>
<event>
 4    1  0.1352171E+004  0.3536279E+02  0.7546771E-02  0.1545402E+00
          2   -1    0    0  501    0  0.00000000000E+00  0.00000000000E+00  0.80048802261E+02  0.80048802261E+02  0.00000000000E+00 0.  1.
         -2   -1    0    0    0  501 -0.00000000000E+00 -0.00000000000E+00 -0.58896346198E+02  0.58896346198E+02  0.00000000000E+00 0.  1.
          2    1    1    2  502    0  0.28900502008E+02 -0.20378608724E+02  0.70126562040E+02  0.78538279924E+02  0.00000000000E+00 0.  1.
         -2    1    1    2    0  502 -0.28900502008E+02  0.20378608724E+02 -0.48974105978E+02  0.60406868535E+02  0.00000000000E+00 0.  1.
<mgrwt>
<rscale>  2 0.35362787E+02</rscale>
<asrwt>0</asrwt>
<pdfrwt beam="1">  1        2 0.12315200E-01 0.35362787E+02</pdfrwt>
<pdfrwt beam="2">  1       -2 0.90609764E-02 0.35362787E+02</pdfrwt>
<totfact> 0.29173190E+04</totfact>
</mgrwt>
</event>
<event>
 4    1  0.1352171E+004  0.3928843E+02  0.7546771E-02  0.1513514E+00
         -2   -1    0    0    0  501 -0.00000000000E+00  0.00000000000E+00  0.44347664226E+01  0.44347664226E+01  0.00000000000E+00 0.  1.
          2   -1    0    0  501    0  0.00000000000E+00 -0.00000000000E+00 -0.40491493777E+03  0.40491493777E+03  0.00000000000E+00 0.  1.
          2    1    1    2  502    0  0.36342974749E+02 -0.14925452338E+02 -0.27693256528E+03  0.27970560712E+03  0.00000000000E+00 0.  1.
         -2    1    1    2    0  502 -0.36342974749E+02  0.14925452338E+02 -0.12354760607E+03  0.12964409707E+03  0.00000000000E+00 0.  1.
<mgrwt>
<rscale>  2 0.39288433E+02</rscale>
<asrwt>0</asrwt>
<pdfrwt beam="2">  1        2 0.62294599E-01 0.39288433E+02</pdfrwt>
<pdfrwt beam="1">  1       -2 0.68227183E-03 0.39288433E+02</pdfrwt>
<totfact> 0.20927201E+05</totfact>
</mgrwt>
</event>
<event>
 4    1  0.1352171E+004  0.2357966E+02  0.7546771E-02  0.1682283E+00
         -2   -1    0    0    0  501 -0.00000000000E+00  0.00000000000E+00  0.28370727454E+00  0.28370727454E+00  0.00000000000E+00 0. -1.
          2   -1    0    0  501    0  0.00000000000E+00 -0.00000000000E+00 -0.23277877974E+04  0.23277877974E+04  0.00000000000E+00 0. -1.
          2    1    1    2  502    0 -0.60937945098E+01 -0.22778635443E+02 -0.16265910534E+04  0.16267619542E+04  0.00000000000E+00 0. -1.
         -2    1    1    2    0  502  0.60937945098E+01  0.22778635443E+02 -0.70091303666E+03  0.70130955043E+03  0.00000000000E+00 0. -1.
<mgrwt>
<rscale>  2 0.23579664E+02</rscale>
<asrwt>0</asrwt>
<pdfrwt beam="2">  1        2 0.35811452E+00 0.23579664E+02</pdfrwt>
<pdfrwt beam="1">  1       -2 0.43648087E-04 0.23579664E+02</pdfrwt>
<totfact> 0.61746522E+05</totfact>
</mgrwt>
</event>
<event>
 4    1  0.1352171E+004  0.6575270E+02  0.7546771E-02  0.1375162E+00
          2   -1    0    0  501    0  0.00000000000E+00  0.00000000000E+00  0.69999276478E+02  0.69999276478E+02  0.00000000000E+00 0.  1.
         -2   -1    0    0    0  501 -0.00000000000E+00 -0.00000000000E+00 -0.61769359927E+02  0.61769359927E+02  0.00000000000E+00 0.  1.
          2    1    1    2  502    0 -0.65547830426E+02 -0.51860009652E+01  0.34829916730E+01  0.65844847259E+02  0.00000000000E+00 0.  1.
         -2    1    1    2    0  502  0.65547830426E+02  0.51860009652E+01  0.47469248782E+01  0.65923789146E+02  0.00000000000E+00 0.  1.
<mgrwt>
<rscale>  2 0.65752696E+02</rscale>
<asrwt>0</asrwt>
<pdfrwt beam="1">  1        2 0.10769119E-01 0.65752696E+02</pdfrwt>
<pdfrwt beam="2">  1       -2 0.95029785E-02 0.65752696E+02</pdfrwt>
<totfact> 0.34972399E+04</totfact>
</mgrwt>
</event>
<event>
 4    1  0.1352171E+004  0.2829592E+02  0.7546771E-02  0.1617727E+00
          2   -1    0    0  501    0  0.00000000000E+00  0.00000000000E+00  0.25134266949E+02  0.25134266949E+02  0.00000000000E+00 0. -1.
         -2   -1    0    0    0  501 -0.00000000000E+00 -0.00000000000E+00 -0.31620904542E+03  0.31620904542E+03  0.00000000000E+00 0. -1.
          2    1    1    2  502    0  0.85131394418E+01 -0.26984913754E+02  0.16309273986E+02  0.32659631526E+02  0.00000000000E+00 0. -1.
         -2    1    1    2    0  502 -0.85131394418E+01  0.26984913754E+02 -0.30738405245E+03  0.30868368084E+03  0.00000000000E+00 0. -1.
<mgrwt>
<rscale>  2 0.28295920E+02</rscale>
<asrwt>0</asrwt>
<pdfrwt beam="1">  1        2 0.38668102E-02 0.28295920E+02</pdfrwt>
<pdfrwt beam="2">  1       -2 0.48647546E-01 0.28295920E+02</pdfrwt>
<totfact> 0.70019277E+03</totfact>
</mgrwt>
</event>
<event>
 4    1  0.1352171E+004  0.7513358E+02  0.7546771E-02  0.1343458E+00
         -2   -1    0    0    0  501 -0.00000000000E+00  0.00000000000E+00  0.12091456167E+02  0.12091456167E+02  0.00000000000E+00 0. -1.
          2   -1    0    0  501    0  0.00000000000E+00 -0.00000000000E+00 -0.48497007002E+03  0.48497007002E+03  0.00000000000E+00 0. -1.
          2    1    1    2  502    0 -0.19301190310E+02  0.72612111336E+02 -0.28446190204E+03  0.29421697499E+03  0.00000000000E+00 0. -1.
         -2    1    1    2    0  502  0.19301190310E+02 -0.72612111336E+02 -0.18841671181E+03  0.20284455120E+03  0.00000000000E+00 0. -1.
<mgrwt>
<rscale>  2 0.75133579E+02</rscale>
<asrwt>0</asrwt>
<pdfrwt beam="2">  1        2 0.74610784E-01 0.75133579E+02</pdfrwt>
<pdfrwt beam="1">  1       -2 0.18602239E-02 0.75133579E+02</pdfrwt>
<totfact> 0.47772098E+04</totfact>
</mgrwt>
</event>
<event>
 4    1  0.1352171E+004  0.2223234E+02  0.7546771E-02  0.1704264E+00
          2   -1    0    0  501    0  0.00000000000E+00  0.00000000000E+00  0.80296347705E+02  0.80296347705E+02  0.00000000000E+00 0. -1.
         -2   -1    0    0    0  501 -0.00000000000E+00 -0.00000000000E+00 -0.12479724517E+02  0.12479724517E+02  0.00000000000E+00 0.  1.
          2    1    1    2  502    0 -0.19515198129E+02 -0.10650541336E+02  0.66930180177E+02  0.70526066155E+02  0.00000000000E+00 0. -1.
         -2    1    1    2    0  502  0.19515198129E+02  0.10650541336E+02  0.88644301119E+00  0.22250006067E+02  0.00000000000E+00 0.  1.
<mgrwt>
<rscale>  2 0.22232341E+02</rscale>
<asrwt>0</asrwt>
<pdfrwt beam="1">  1        2 0.12353284E-01 0.22232341E+02</pdfrwt>
<pdfrwt beam="2">  1       -2 0.19199577E-02 0.22232341E+02</pdfrwt>
<totfact> 0.23843141E+05</totfact>
</mgrwt>
</event>
<event>
 4    1  0.1352171E+004  0.3751509E+02  0.7546771E-02  0.1527337E+00
          2   -1    0    0  501    0  0.00000000000E+00  0.00000000000E+00  0.31319964868E+04  0.31319964868E+04  0.00000000000E+00 0. -1.
         -2   -1    0    0    0  501 -0.00000000000E+00 -0.00000000000E+00 -0.56314413989E+00  0.56314413989E+00  0.00000000000E+00 0.  1.
          2    1    1    2  502    0 -0.28939537162E+02  0.23872231407E+02  0.86165811878E+03  0.86247440188E+03  0.00000000000E+00 0.  1.
         -2    1    1    2    0  502  0.28939537162E+02 -0.23872231407E+02  0.22697752239E+04  0.22700852290E+04  0.00000000000E+00 0. -1.
<mgrwt>
<rscale>  2 0.37515086E+02</rscale>
<asrwt>0</asrwt>
<pdfrwt beam="1">  1        2 0.48183167E+00 0.37515086E+02</pdfrwt>
<pdfrwt beam="2">  1       -2 0.86640068E-04 0.37515086E+02</pdfrwt>
<totfact> 0.10391605E+05</totfact>
</mgrwt>
</event>
<event>
 4    1  0.1352171E+004  0.2303015E+02  0.7546771E-02  0.1691022E+00
         -2   -1    0    0    0  501 -0.00000000000E+00  0.00000000000E+00  0.14356133909E+02  0.14356133909E+02  0.00000000000E+00 0.  1.
          2   -1    0    0  501    0  0.00000000000E+00 -0.00000000000E+00 -0.81588518706E+02  0.81588518706E+02  0.00000000000E+00 0.  1.
          2    1    1    2  502    0  0.16265141289E+02  0.16304390315E+02 -0.69102046386E+02  0.72838731314E+02  0.00000000000E+00 0.  1.
         -2    1    1    2    0  502 -0.16265141289E+02 -0.16304390315E+02  0.18696615883E+01  0.23105921301E+02  0.00000000000E+00 0.  1.
<mgrwt>
<rscale>  2 0.23030153E+02</rscale>
<asrwt>0</asrwt>
<pdfrwt beam="2">  1        2 0.12552080E-01 0.23030153E+02</pdfrwt>
<pdfrwt beam="1">  1       -2 0.22086360E-02 0.23030153E+02</pdfrwt>
<totfact> 0.19515377E+05</totfact>
</mgrwt>
</event>
<event>
 4    1  0.1352171E+004  0.2025600E+02  0.7546771E-02  0.1740285E+00
         -2   -1    0    0    0  501 -0.00000000000E+00  0.00000000000E+00  0.30254239706E+01  0.30254239706E+01  0.00000000000E+00 0.  1.
          2   -1    0    0  501    0  0.00000000000E+00 -0.00000000000E+00 -0.16838613426E+03  0.16838613426E+03  0.00000000000E+00 0.  1.
          2    1    1    2  502    0 -0.20178845020E+02 -0.17663021802E+01 -0.12048757829E+03  0.12217840288E+03  0.00000000000E+00 0.  1.
         -2    1    1    2    0  502  0.20178845020E+02  0.17663021802E+01 -0.44873132003E+02  0.49233155348E+02  0.00000000000E+00 0.  1.
<mgrwt>
<rscale>  2 0.20256002E+02</rscale>
<asrwt>0</asrwt>
<pdfrwt beam="2">  1        2 0.25905555E-01 0.20256002E+02</pdfrwt>
<pdfrwt beam="1">  1       -2 0.46544991E-03 0.20256002E+02</pdfrwt>
<totfact> 0.70827687E+05</totfact>
</mgrwt>
</event>
<event>
 4    1  0.1352171E+004  0.2075645E+02  0.7546771E-02  0.1730690E+00
          2   -1    0    0  501    0  0.00000000000E+00  0.00000000000E+00  0.20146225498E+04  0.20146225498E+04  0.00000000000E+00 0. -1.
         -2   -1    0    0    0  501 -0.00000000000E+00 -0.00000000000E+00 -0.22085578171E+00  0.22085578171E+00  0.00000000000E+00 0. -1.
          2    1    1    2  502    0 -0.20659195651E+02 -0.20069322921E+01  0.11866070129E+04  0.11867885377E+04  0.00000000000E+00 0. -1.
         -2    1    1    2    0  502  0.20659195651E+02  0.20069322921E+01  0.82779468115E+03  0.82805486792E+03  0.00000000000E+00 0. -1.
<mgrwt>
<rscale>  2 0.20756448E+02</rscale>
<asrwt>0</asrwt>
<pdfrwt beam="1">  1        2 0.30992721E+00 0.20756448E+02</pdfrwt>
<pdfrwt beam="2">  1       -2 0.33979426E-04 0.20756448E+02</pdfrwt>
<totfact> 0.11643639E+06</totfact>
</mgrwt>
</event>
<event>
 4    1  0.2085743E+004  0.2126216E+02  0.7546771E-02  0.1721334E+00
          2   -1    0    0  501    0  0.00000000000E+00  0.00000000000E+00  0.87045950860E+03  0.87045950860E+03  0.00000000000E+00 0.  1.
         -2   -1    0    0    0  501 -0.00000000000E+00 -0.00000000000E+00 -0.26331178376E+03  0.26331178376E+03  0.00000000000E+00 0. -1.
          2    1    1    2  502    0 -0.11585210272E+02 -0.17828694428E+02  0.86990016888E+03  0.87015997567E+03  0.00000000000E+00 0.  1.
         -2    1    1    2    0  502  0.11585210272E+02  0.17828694428E+02 -0.26275244404E+03  0.26361131670E+03  0.00000000000E+00 0. -1.
<mgrwt>
<rscale>  2 0.21262160E+02</rscale>
<asrwt>0</asrwt>
<pdfrwt beam="1">  1        2 0.13391685E+00 0.21262160E+02</pdfrwt>
<pdfrwt beam="2">  1       -2 0.40509506E-01 0.21262160E+02</pdfrwt>
<totfact> 0.20089841E+02</totfact>
</mgrwt>
</event>
<event>
 4    1  0.1352171E+004  0.3807225E+02  0.7546771E-02  0.1522897E+00
         -2   -1    0    0    0  501 -0.00000000000E+00  0.00000000000E+00  0.98826673969E+00  0.98826673969E+00  0.00000000000E+00 0. -1.
          2   -1    0    0  501    0  0.00000000000E+00 -0.00000000000E+00 -0.26104576227E+04  0.26104576227E+04  0.00000000000E+00 0.  1.
          2    1    1    2  502    0  0.14221137591E+02  0.35316502204E+02 -0.21690231160E+04  0.21693572259E+04  0.00000000000E+00 0.  1.
         -2    1    1    2    0  502 -0.14221137591E+02 -0.35316502204E+02 -0.44044624001E+03  0.44208866353E+03  0.00000000000E+00 0. -1.
<mgrwt>
<rscale>  2 0.38072248E+02</rscale>
<asrwt>0</asrwt>
<pdfrwt beam="2">  1        2 0.40161283E+00 0.38072248E+02</pdfrwt>
<pdfrwt beam="1">  1       -2 0.15203954E-03 0.38072248E+02</pdfrwt>
<totfact> 0.93046728E+04</totfact>
</mgrwt>
</event>
<event>
 4    1  0.1352171E+004  0.6182680E+02  0.7546771E-02  0.1390322E+00
          2   -1    0    0  501    0  0.00000000000E+00  0.00000000000E+00  0.28014641919E+03  0.28014641919E+03  0.00000000000E+00 0.  1.
         -2   -1    0    0    0  501 -0.00000000000E+00 -0.00000000000E+00 -0.13644875939E+02  0.13644875939E+02  0.00000000000E+00 0.  1.
          2    1    1    2  502    0  0.57246420477E+02 -0.23353732956E+02  0.13297334682E+03  0.14664399226E+03  0.00000000000E+00 0.  1.
         -2    1    1    2    0  502 -0.57246420477E+02  0.23353732956E+02  0.13352819643E+03  0.14714730287E+03  0.00000000000E+00 0.  1.
<mgrwt>
<rscale>  2 0.61826801E+02</rscale>
<asrwt>0</asrwt>
<pdfrwt beam="1">  1        2 0.43099445E-01 0.61826801E+02</pdfrwt>
<pdfrwt beam="2">  1       -2 0.20992119E-02 0.61826801E+02</pdfrwt>
<totfact> 0.69210263E+04</totfact>
</mgrwt>
</event>
<event>
 4    1  0.1352171E+004  0.2365193E+02  0.7546771E-02  0.1681155E+00
          2   -1    0    0  501    0  0.00000000000E+00  0.00000000000E+00  0.30508693461E+01  0.30508693461E+01  0.00000000000E+00 0. -1.
         -2   -1    0    0    0  501 -0.00000000000E+00 -0.00000000000E+00 -0.45980141187E+03  0.45980141187E+03  0.00000000000E+00 0.  1.
          2    1    1    2  502    0 -0.65116933550E+01 -0.22737890125E+02 -0.48932004305E+02  0.54348457595E+02  0.00000000000E+00 0. -1.
         -2    1    1    2    0  502  0.65116933550E+01  0.22737890125E+02 -0.40781853822E+03  0.40850382362E+03  0.00000000000E+00 0.  1.
<mgrwt>
<rscale>  2 0.23651930E+02</rscale>
<asrwt>0</asrwt>
<pdfrwt beam="1">  1        2 0.46936492E-03 0.23651930E+02</pdfrwt>
<pdfrwt beam="2">  1       -2 0.70738618E-01 0.23651930E+02</pdfrwt>
<totfact> 0.49526382E+04</totfact>
</mgrwt>
</event>
<event>
 4    1  0.1352171E+004  0.2152217E+02  0.7546771E-02  0.1716649E+00
         -2   -1    0    0    0  501 -0.00000000000E+00  0.00000000000E+00  0.39163855128E+00  0.39163855128E+00  0.00000000000E+00 0.  1.
          2   -1    0    0  501    0  0.00000000000E+00 -0.00000000000E+00 -0.18487994293E+04  0.18487994293E+04  0.00000000000E+00 0.  1.
          2    1    1    2  502    0  0.21227717880E+02  0.35479402457E+01 -0.14791689345E+04  0.14793255020E+04  0.00000000000E+00 0.  1.
         -2    1    1    2    0  502 -0.21227717880E+02 -0.35479402457E+01 -0.36923885619E+03  0.36986556586E+03  0.00000000000E+00 0.  1.
<mgrwt>
<rscale>  2 0.21522172E+02</rscale>
<asrwt>0</asrwt>
<pdfrwt beam="2">  1        2 0.28443587E+00 0.21522172E+02</pdfrwt>
<pdfrwt beam="1">  1       -2 0.60250986E-04 0.21522172E+02</pdfrwt>
<totfact> 0.66283047E+05</totfact>
</mgrwt>
</event>
<event>
 4    1  0.1352171E+004  0.2321733E+02  0.7546771E-02  0.1688011E+00
          2   -1    0    0  501    0  0.00000000000E+00  0.00000000000E+00  0.54921406630E+03  0.54921406630E+03  0.00000000000E+00 0. -1.
         -2   -1    0    0    0  501 -0.00000000000E+00 -0.00000000000E+00 -0.84193566556E+02  0.84193566556E+02  0.00000000000E+00 0. -1.
          2    1    1    2  502    0 -0.26363191376E+01 -0.23067170032E+02  0.54736267323E+03  0.54785485355E+03  0.00000000000E+00 0. -1.
         -2    1    1    2    0  502  0.26363191376E+01  0.23067170032E+02 -0.82342173489E+02  0.85552779305E+02  0.00000000000E+00 0. -1.
<mgrwt>
<rscale>  2 0.23217332E+02</rscale>
<asrwt>0</asrwt>
<pdfrwt beam="1">  1        2 0.84494469E-01 0.23217332E+02</pdfrwt>
<pdfrwt beam="2">  1       -2 0.12952857E-01 0.23217332E+02</pdfrwt>
<totfact> 0.21802742E+03</totfact>
</mgrwt>
</event>
<event>
 4    1  0.1352171E+004  0.2292089E+02  0.7546771E-02  0.1692796E+00
          2   -1    0    0  501    0  0.00000000000E+00  0.00000000000E+00  0.10155544910E+04  0.10155544910E+04  0.00000000000E+00 0. -1.
         -2   -1    0    0    0  501 -0.00000000000E+00 -0.00000000000E+00 -0.40701722858E+01  0.40701722858E+01  0.00000000000E+00 0.  1.
          2    1    1    2  502    0  0.22581642457E+02  0.39289259177E+01  0.98205522248E+03  0.98232266951E+03  0.00000000000E+00 0. -1.
         -2    1    1    2    0  502 -0.22581642457E+02 -0.39289259177E+01  0.29429096266E+02  0.37301993807E+02  0.00000000000E+00 0.  1.
<mgrwt>
<rscale>  2 0.22920886E+02</rscale>
<asrwt>0</asrwt>
<pdfrwt beam="1">  1        2 0.15623895E+00 0.22920886E+02</pdfrwt>
<pdfrwt beam="2">  1       -2 0.62618116E-03 0.22920886E+02</pdfrwt>
<totfact> 0.76587853E+04</totfact>
</mgrwt>
</event>
<event>
 4    1  0.1352171E+004  0.3541806E+02  0.7546771E-02  0.1544919E+00
         -2   -1    0    0    0  501 -0.00000000000E+00  0.00000000000E+00  0.10441767190E+02  0.10441767190E+02  0.00000000000E+00 0.  1.
          2   -1    0    0  501    0  0.00000000000E+00 -0.00000000000E+00 -0.21044353761E+03  0.21044353761E+03  0.00000000000E+00 0.  1.
          2    1    1    2  502    0  0.35222538896E+02 -0.37163732867E+01 -0.17234938449E+03  0.17595098468E+03  0.00000000000E+00 0.  1.
         -2    1    1    2    0  502 -0.35222538896E+02  0.37163732867E+01 -0.27652385929E+02  0.44934320116E+02  0.00000000000E+00 0.  1.
<mgrwt>
<rscale>  2 0.35418056E+02</rscale>
<asrwt>0</asrwt>
<pdfrwt beam="2">  1        2 0.32375927E-01 0.35418056E+02</pdfrwt>
<pdfrwt beam="1">  1       -2 0.16064258E-02 0.35418056E+02</pdfrwt>
<totfact> 0.12198357E+05</totfact>
</mgrwt>
</event>
<event>
 4    1  0.1352171E+004  0.6088664E+02  0.7546771E-02  0.1394148E+00
          2   -1    0    0  501    0  0.00000000000E+00  0.00000000000E+00  0.28487825841E+03  0.28487825841E+03  0.00000000000E+00 0. -1.
         -2   -1    0    0    0  501 -0.00000000000E+00 -0.00000000000E+00 -0.13855392635E+02  0.13855392635E+02  0.00000000000E+00 0. -1.
          2    1    1    2  502    0 -0.60232054792E+02  0.89040544663E+01  0.17233671267E+03  0.18277616131E+03  0.00000000000E+00 0. -1.
         -2    1    1    2    0  502  0.60232054792E+02 -0.89040544663E+01  0.98686153107E+02  0.11595748973E+03  0.00000000000E+00 0. -1.
<mgrwt>
<rscale>  2 0.60886637E+02</rscale>
<asrwt>0</asrwt>
<pdfrwt beam="1">  1        2 0.43827420E-01 0.60886637E+02</pdfrwt>
<pdfrwt beam="2">  1       -2 0.21315991E-02 0.60886637E+02</pdfrwt>
<totfact> 0.66398310E+04</totfact>
</mgrwt>
</event>
<event>
 4    1  0.1352171E+004  0.2563373E+02  0.7546771E-02  0.1652063E+00
         -2   -1    0    0    0  501 -0.00000000000E+00  0.00000000000E+00  0.12960450554E+02  0.12960450554E+02  0.00000000000E+00 0.  1.
          2   -1    0    0  501    0  0.00000000000E+00 -0.00000000000E+00 -0.20262224408E+03  0.20262224408E+03  0.00000000000E+00 0.  1.
          2    1    1    2  502    0 -0.25141059510E+02 -0.50015187739E+01 -0.18816745256E+03  0.18990544560E+03  0.00000000000E+00 0.  1.
         -2    1    1    2    0  502  0.25141059510E+02  0.50015187739E+01 -0.14943409652E+01  0.25677249040E+02  0.00000000000E+00 0.  1.
<mgrwt>
<rscale>  2 0.25633729E+02</rscale>
<asrwt>0</asrwt>
<pdfrwt beam="2">  1        2 0.31172653E-01 0.25633729E+02</pdfrwt>
<pdfrwt beam="1">  1       -2 0.19939154E-02 0.25633729E+02</pdfrwt>
<totfact> 0.87602937E+04</totfact>
</mgrwt>
</event>
<event>
 4    1  0.1352171E+004  0.2400751E+02  0.7546771E-02  0.1675681E+00
          2   -1    0    0  501    0  0.00000000000E+00  0.00000000000E+00  0.10495232369E+04  0.10495232369E+04  0.00000000000E+00 0. -1.
         -2   -1    0    0    0  501 -0.00000000000E+00 -0.00000000000E+00 -0.23522476373E+02  0.23522476373E+02  0.00000000000E+00 0.  1.
          2    1    1    2  502    0  0.78807210599E+01 -0.22677188004E+02  0.10432233215E+04  0.10434995253E+04  0.00000000000E+00 0. -1.
         -2    1    1    2    0  502 -0.78807210599E+01  0.22677188004E+02 -0.17222560990E+02  0.29546188032E+02  0.00000000000E+00 0.  1.
<mgrwt>
<rscale>  2 0.24007512E+02</rscale>
<asrwt>0</asrwt>
<pdfrwt beam="1">  1        2 0.16146508E+00 0.24007512E+02</pdfrwt>
<pdfrwt beam="2">  1       -2 0.36188433E-02 0.24007512E+02</pdfrwt>
<totfact> 0.67271913E+03</totfact>
</mgrwt>
</event>
<event>
 4    1  0.1352171E+004  0.3121519E+02  0.7546771E-02  0.1585032E+00
         -2   -1    0    0    0  501 -0.00000000000E+00  0.00000000000E+00  0.39928537567E+01  0.39928537567E+01  0.00000000000E+00 0.  1.
          2   -1    0    0  501    0  0.00000000000E+00 -0.00000000000E+00 -0.45629474411E+03  0.45629474411E+03  0.00000000000E+00 0.  1.
          2    1    1    2  502    0 -0.85430296793E+01 -0.30023405682E+02 -0.38311939403E+03  0.38438894147E+03  0.00000000000E+00 0.  1.
         -2    1    1    2    0  502  0.85430296793E+01  0.30023405682E+02 -0.69182496326E+02  0.75898656397E+02  0.00000000000E+00 0.  1.
<mgrwt>
<rscale>  2 0.31215193E+02</rscale>
<asrwt>0</asrwt>
<pdfrwt beam="2">  1        2 0.70199203E-01 0.31215193E+02</pdfrwt>
<pdfrwt beam="1">  1       -2 0.61428509E-03 0.31215193E+02</pdfrwt>
<totfact> 0.20312024E+05</totfact>
</mgrwt>
</event>
<event>
 4    1  0.1352171E+004  0.2145551E+02  0.7546771E-02  0.1717842E+00
         -2   -1    0    0    0  501 -0.00000000000E+00  0.00000000000E+00  0.30237198141E+02  0.30237198141E+02  0.00000000000E+00 0.  1.
          2   -1    0    0  501    0  0.00000000000E+00 -0.00000000000E+00 -0.31601229782E+02  0.31601229782E+02  0.00000000000E+00 0.  1.
          2    1    1    2  502    0 -0.60568997182E+01 -0.20582829289E+02 -0.22940380698E+02  0.31410188829E+02  0.00000000000E+00 0.  1.
         -2    1    1    2    0  502  0.60568997182E+01  0.20582829289E+02  0.21576349057E+02  0.30428239094E+02  0.00000000000E+00 0.  1.
<mgrwt>
<rscale>  2 0.21455510E+02</rscale>
<asrwt>0</asrwt>
<pdfrwt beam="2">  1        2 0.48617276E-02 0.21455510E+02</pdfrwt>
<pdfrwt beam="1">  1       -2 0.46518767E-02 0.21455510E+02</pdfrwt>
<totfact> 0.20687689E+05</totfact>
</mgrwt>
</event>
<event>
 4    1  0.1352171E+004  0.3699558E+02  0.7546771E-02  0.1531561E+00
          2   -1    0    0  501    0  0.00000000000E+00  0.00000000000E+00  0.45366221790E+03  0.45366221790E+03  0.00000000000E+00 0. -1.
         -2   -1    0    0    0  501 -0.00000000000E+00 -0.00000000000E+00 -0.94694602058E+02  0.94694602058E+02  0.00000000000E+00 0.  1.
          2    1    1    2  502    0 -0.36785699422E+02 -0.39351275283E+01  0.44925924216E+03  0.45077992366E+03  0.00000000000E+00 0. -1.
         -2    1    1    2    0  502  0.36785699422E+02  0.39351275283E+01 -0.90291626310E+02  0.97576896304E+02  0.00000000000E+00 0.  1.
<mgrwt>
<rscale>  2 0.36995580E+02</rscale>
<asrwt>0</asrwt>
<pdfrwt beam="1">  1        2 0.69794186E-01 0.36995580E+02</pdfrwt>
<pdfrwt beam="2">  1       -2 0.14568401E-01 0.36995580E+02</pdfrwt>
<totfact> 0.22858470E+03</totfact>
</mgrwt>
</event>
<event>
 4    1  0.1352171E+004  0.2070339E+02  0.7546771E-02  0.1731692E+00
          2   -1    0    0  501    0  0.00000000000E+00  0.00000000000E+00  0.83966403863E+03  0.83966403863E+03  0.00000000000E+00 0. -1.
         -2   -1    0    0    0  501 -0.00000000000E+00 -0.00000000000E+00 -0.51422943467E+00  0.51422943467E+00  0.00000000000E+00 0.  1.
          2    1    1    2  502    0 -0.19574880334E+02 -0.67419753756E+01  0.45545479696E+03  0.45592510596E+03  0.00000000000E+00 0. -1.
         -2    1    1    2    0  502  0.19574880334E+02  0.67419753756E+01  0.38369501223E+03  0.38425316210E+03  0.00000000000E+00 0.  1.
<mgrwt>
<rscale>  2 0.20703386E+02</rscale>
<asrwt>0</asrwt>
<pdfrwt beam="1">  1        2 0.12917799E+00 0.20703386E+02</pdfrwt>
<pdfrwt beam="2">  1       -2 0.79112893E-04 0.20703386E+02</pdfrwt>
<totfact> 0.14493728E+06</totfact>
</mgrwt>
</event>
<event>
 4    1  0.1352171E+004  0.5423814E+02  0.7546771E-02  0.1423737E+00
          2   -1    0    0  501    0  0.00000000000E+00  0.00000000000E+00  0.22832791145E+04  0.22832791145E+04  0.00000000000E+00 0.  1.
         -2   -1    0    0    0  501 -0.00000000000E+00 -0.00000000000E+00 -0.15188834188E+01  0.15188834188E+01  0.00000000000E+00 0. -1.
          2    1    1    2  502    0  0.41259765556E+02 -0.35205214821E+02  0.15858965169E+04  0.15868237261E+04  0.00000000000E+00 0. -1.
         -2    1    1    2    0  502 -0.41259765556E+02  0.35205214821E+02  0.69586371418E+03  0.69797427181E+03  0.00000000000E+00 0.  1.
<mgrwt>
<rscale>  2 0.54238136E+02</rscale>
<asrwt>0</asrwt>
<pdfrwt beam="1">  1        2 0.35127096E+00 0.54238136E+02</pdfrwt>
<pdfrwt beam="2">  1       -2 0.23367620E-03 0.54238136E+02</pdfrwt>
<totfact> 0.79265975E+04</totfact>
</mgrwt>
</event>
<event>
 4    1  0.1352171E+004  0.3151416E+02  0.7546771E-02  0.1581930E+00
         -2   -1    0    0    0  501 -0.00000000000E+00  0.00000000000E+00  0.38608503167E+02  0.38608503167E+02  0.00000000000E+00 0.  1.
          2   -1    0    0  501    0  0.00000000000E+00 -0.00000000000E+00 -0.29677183285E+03  0.29677183285E+03  0.00000000000E+00 0. -1.
          2    1    1    2  502    0  0.31412396312E+02  0.25305059943E+01 -0.28933966095E+03  0.29105082289E+03  0.00000000000E+00 0. -1.
         -2    1    1    2    0  502 -0.31412396312E+02 -0.25305059943E+01  0.31176331271E+02  0.44329513128E+02  0.00000000000E+00 0.  1.
<mgrwt>
<rscale>  2 0.31514157E+02</rscale>
<asrwt>0</asrwt>
<pdfrwt beam="2">  1        2 0.45657204E-01 0.31514157E+02</pdfrwt>
<pdfrwt beam="1">  1       -2 0.59397699E-02 0.31514157E+02</pdfrwt>
<totfact> 0.13299597E+04</totfact>
</mgrwt>
</event>
<event>
 4    1  0.1352171E+004  0.3490661E+02  0.7546771E-02  0.1549431E+00
         -2   -1    0    0    0  501 -0.00000000000E+00  0.00000000000E+00  0.57727929637E+01  0.57727929637E+01  0.00000000000E+00 0. -1.
          2   -1    0    0  501    0  0.00000000000E+00 -0.00000000000E+00 -0.37282001411E+03  0.37282001411E+03  0.00000000000E+00 0. -1.
          2    1    1    2  502    0 -0.84587000371E+01  0.33866230601E+02 -0.30820829490E+03  0.31017869725E+03  0.00000000000E+00 0. -1.
         -2    1    1    2    0  502  0.84587000371E+01 -0.33866230601E+02 -0.58838926247E+02  0.68414109827E+02  0.00000000000E+00 0. -1.
<mgrwt>
<rscale>  2 0.34906607E+02</rscale>
<asrwt>0</asrwt>
<pdfrwt beam="2">  1        2 0.57356926E-01 0.34906607E+02</pdfrwt>
<pdfrwt beam="1">  1       -2 0.88812198E-03 0.34906607E+02</pdfrwt>
<totfact> 0.15445475E+05</totfact>
</mgrwt>
</event>
<event>
 4    1  0.1352171E+004  0.2242188E+02  0.7546771E-02  0.1701056E+00
         -2   -1    0    0    0  501 -0.00000000000E+00  0.00000000000E+00  0.91521287245E+00  0.91521287245E+00  0.00000000000E+00 0. -1.
          2   -1    0    0  501    0  0.00000000000E+00 -0.00000000000E+00 -0.61175360301E+03  0.61175360301E+03  0.00000000000E+00 0. -1.
          2    1    1    2  502    0 -0.17564613138E+02 -0.13936459598E+02 -0.40328537809E+03  0.40390820334E+03  0.00000000000E+00 0. -1.
         -2    1    1    2    0  502  0.17564613138E+02  0.13936459598E+02 -0.20755301205E+03  0.20876061255E+03  0.00000000000E+00 0. -1.
<mgrwt>
<rscale>  2 0.22421876E+02</rscale>
<asrwt>0</asrwt>
<pdfrwt beam="2">  1        2 0.94116205E-01 0.22421876E+02</pdfrwt>
<pdfrwt beam="1">  1       -2 0.14080158E-03 0.22421876E+02</pdfrwt>
<totfact> 0.98550339E+05</totfact>
</mgrwt>
</event>
<event>
 4    1  0.1352171E+004  0.3351194E+02  0.7546771E-02  0.1562226E+00
          2   -1    0    0  501    0  0.00000000000E+00  0.00000000000E+00  0.13752896002E+03  0.13752896002E+03  0.00000000000E+00 0. -1.
         -2   -1    0    0    0  501 -0.00000000000E+00 -0.00000000000E+00 -0.16591654947E+02  0.16591654947E+02  0.00000000000E+00 0. -1.
          2    1    1    2  502    0  0.21241616575E+02  0.25919945113E+02  0.11538351540E+03  0.12015159365E+03  0.00000000000E+00 0. -1.
         -2    1    1    2    0  502 -0.21241616575E+02 -0.25919945113E+02  0.55537896644E+01  0.33969021314E+02  0.00000000000E+00 0. -1.
<mgrwt>
<rscale>  2 0.33511936E+02</rscale>
<asrwt>0</asrwt>
<pdfrwt beam="1">  1        2 0.21158301E-01 0.33511936E+02</pdfrwt>
<pdfrwt beam="2">  1       -2 0.25525624E-02 0.33511936E+02</pdfrwt>
<totfact> 0.98644503E+04</totfact>
</mgrwt>
</event>
<event>
 4    1  0.1352171E+004  0.2039490E+02  0.7546771E-02  0.1737587E+00
          2   -1    0    0  501    0  0.00000000000E+00  0.00000000000E+00  0.79101736350E+03  0.79101736350E+03  0.00000000000E+00 0. -1.
         -2   -1    0    0    0  501 -0.00000000000E+00 -0.00000000000E+00 -0.66488586501E+00  0.66488586501E+00  0.00000000000E+00 0. -1.
          2    1    1    2  502    0 -0.86923490963E+01  0.18449796216E+02  0.57619342141E+03  0.57655425658E+03  0.00000000000E+00 0. -1.
         -2    1    1    2    0  502  0.86923490963E+01 -0.18449796216E+02  0.21415905622E+03  0.21512799278E+03  0.00000000000E+00 0. -1.
<mgrwt>
<rscale>  2 0.20394899E+02</rscale>
<asrwt>0</asrwt>
<pdfrwt beam="1">  1        2 0.12169423E+00 0.20394899E+02</pdfrwt>
<pdfrwt beam="2">  1       -2 0.10229077E-03 0.20394899E+02</pdfrwt>
<totfact> 0.11022553E+06</totfact>
</mgrwt>
</event>
<event>
 4    1  0.1352171E+004  0.4876723E+02  0.7546771E-02  0.1452106E+00
          2   -1    0    0  501    0  0.00000000000E+00  0.00000000000E+00  0.41124021026E+04  0.41124021026E+04  0.00000000000E+00 0. -1.
         -2   -1    0    0    0  501 -0.00000000000E+00 -0.00000000000E+00 -0.11350060226E+01  0.11350060226E+01  0.00000000000E+00 0.  1.
          2    1    1    2  502    0 -0.13111306121E+02  0.46971632789E+02  0.61519196927E+03  0.61712186777E+03  0.00000000000E+00 0.  1.
         -2    1    1    2    0  502  0.13111306121E+02 -0.46971632789E+02  0.34960751273E+04  0.34964152408E+04  0.00000000000E+00 0. -1.
<mgrwt>
<rscale>  2 0.48767233E+02</rscale>
<asrwt>0</asrwt>
<pdfrwt beam="1">  1        2 0.63266532E+00 0.48767233E+02</pdfrwt>
<pdfrwt beam="2">  1       -2 0.17461960E-03 0.48767233E+02</pdfrwt>
<totfact> 0.95938470E+03</totfact>
</mgrwt>
</event>
<event>
 4    1  0.1352171E+004  0.2019539E+02  0.7546771E-02  0.1741470E+00
         -2   -1    0    0    0  501 -0.00000000000E+00  0.00000000000E+00  0.31651996021E+02  0.31651996021E+02  0.00000000000E+00 0. -1.
          2   -1    0    0  501    0  0.00000000000E+00 -0.00000000000E+00 -0.33085014568E+03  0.33085014568E+03  0.00000000000E+00 0.  1.
          2    1    1    2  502    0  0.19335481642E+02 -0.58303325103E+01 -0.32728551772E+03  0.32790801109E+03  0.00000000000E+00 0.  1.
         -2    1    1    2    0  502 -0.19335481642E+02  0.58303325103E+01  0.28087368066E+02  0.34594130607E+02  0.00000000000E+00 0. -1.
<mgrwt>
<rscale>  2 0.20195386E+02</rscale>
<asrwt>0</asrwt>
<pdfrwt beam="2">  1        2 0.50900022E-01 0.20195386E+02</pdfrwt>
<pdfrwt beam="1">  1       -2 0.48695379E-02 0.20195386E+02</pdfrwt>
<totfact> 0.14830389E+04</totfact>
</mgrwt>
</event>
<event>
 4    1  0.1352171E+004  0.2196058E+02  0.7546771E-02  0.1708935E+00
         -2   -1    0    0    0  501 -0.00000000000E+00  0.00000000000E+00  0.48800683614E+01  0.48800683614E+01  0.00000000000E+00 0. -1.
          2   -1    0    0  501    0  0.00000000000E+00 -0.00000000000E+00 -0.34468027960E+03  0.34468027960E+03  0.00000000000E+00 0.  1.
          2    1    1    2  502    0  0.18549688879E+02  0.11754839435E+02 -0.31751314504E+03  0.31827168344E+03  0.00000000000E+00 0.  1.
         -2    1    1    2    0  502 -0.18549688879E+02 -0.11754839435E+02 -0.22287066197E+02  0.31288664518E+02  0.00000000000E+00 0. -1.
<mgrwt>
<rscale>  2 0.21960583E+02</rscale>
<asrwt>0</asrwt>
<pdfrwt beam="2">  1        2 0.53027740E-01 0.21960583E+02</pdfrwt>
<pdfrwt beam="1">  1       -2 0.75077968E-03 0.21960583E+02</pdfrwt>
<totfact> 0.18775070E+05</totfact>
</mgrwt>
</event>
<event>
 4    1  0.1352171E+004  0.3475692E+02  0.7546771E-02  0.1550770E+00
         -2   -1    0    0    0  501 -0.00000000000E+00  0.00000000000E+00  0.24907385055E+01  0.24907385055E+01  0.00000000000E+00 0.  1.
          2   -1    0    0  501    0  0.00000000000E+00 -0.00000000000E+00 -0.85375089964E+03  0.85375089964E+03  0.00000000000E+00 0. -1.
          2    1    1    2  502    0 -0.15550231534E+02 -0.31084302694E+02 -0.70698786487E+03  0.70784170875E+03  0.00000000000E+00 0. -1.
         -2    1    1    2    0  502  0.15550231534E+02  0.31084302694E+02 -0.14427229626E+03  0.14839992939E+03  0.00000000000E+00 0.  1.
<mgrwt>
<rscale>  2 0.34756921E+02</rscale>
<asrwt>0</asrwt>
<pdfrwt beam="2">  1        2 0.13134626E+00 0.34756921E+02</pdfrwt>
<pdfrwt beam="1">  1       -2 0.38319064E-03 0.34756921E+02</pdfrwt>
<totfact> 0.20010173E+05</totfact>
</mgrwt>
</event>
<event>
 4    1  0.1352171E+004  0.3966745E+02  0.7546771E-02  0.1510673E+00
         -2   -1    0    0    0  501 -0.00000000000E+00  0.00000000000E+00  0.27688295233E+02  0.27688295233E+02  0.00000000000E+00 0.  1.
          2   -1    0    0  501    0  0.00000000000E+00 -0.00000000000E+00 -0.50119661221E+03  0.50119661221E+03  0.00000000000E+00 0. -1.
          2    1    1    2  502    0  0.38503400440E+02  0.95391236813E+01 -0.48575347907E+03  0.48737044345E+03  0.00000000000E+00 0. -1.
         -2    1    1    2    0  502 -0.38503400440E+02 -0.95391236813E+01  0.12245162087E+02  0.41514463993E+02  0.00000000000E+00 0.  1.
<mgrwt>
<rscale>  2 0.39667452E+02</rscale>
<asrwt>0</asrwt>
<pdfrwt beam="2">  1        2 0.77107165E-01 0.39667452E+02</pdfrwt>
<pdfrwt beam="1">  1       -2 0.42597381E-02 0.39667452E+02</pdfrwt>
<totfact> 0.13020388E+04</totfact>
</mgrwt>
</event>
<event>
 4    1  0.1352171E+004  0.2295851E+02  0.7546771E-02  0.1692184E+00
          2   -1    0    0  501    0  0.00000000000E+00  0.00000000000E+00  0.14245701521E+04  0.14245701521E+04  0.00000000000E+00 0.  1.
         -2   -1    0    0    0  501 -0.00000000000E+00 -0.00000000000E+00 -0.10700214880E+01  0.10700214880E+01  0.00000000000E+00 0.  1.
          2    1    1    2  502    0 -0.22348104979E+02  0.52588278932E+01  0.12883026267E+04  0.12885071792E+04  0.00000000000E+00 0.  1.
         -2    1    1    2    0  502  0.22348104979E+02 -0.52588278932E+01  0.13519750398E+03  0.13713299439E+03  0.00000000000E+00 0.  1.
<mgrwt>
<rscale>  2 0.22958508E+02</rscale>
<asrwt>0</asrwt>
<pdfrwt beam="1">  1        2 0.21916312E+00 0.22958508E+02</pdfrwt>
<pdfrwt beam="2">  1       -2 0.16461983E-03 0.22958508E+02</pdfrwt>
<totfact> 0.28339029E+05</totfact>
</mgrwt>
</event>
<event>
 4    1  0.1352171E+004  0.2338531E+02  0.7546771E-02  0.1685339E+00
         -2   -1    0    0    0  501 -0.00000000000E+00  0.00000000000E+00  0.24265381996E+03  0.24265381996E+03  0.00000000000E+00 0. -1.
          2   -1    0    0  501    0  0.00000000000E+00 -0.00000000000E+00 -0.31100066266E+01  0.31100066266E+01  0.00000000000E+00 0. -1.
          2    1    1    2  502    0 -0.24674621888E+01  0.23254766400E+02  0.55292923332E+02  0.60034822400E+02  0.00000000000E+00 0. -1.
         -2    1    1    2    0  502  0.24674621888E+01 -0.23254766400E+02  0.18425089000E+03  0.18572900419E+03  0.00000000000E+00 0. -1.
<mgrwt>
<rscale>  2 0.23385306E+02</rscale>
<asrwt>0</asrwt>
<pdfrwt beam="2">  1        2 0.47846275E-03 0.23385306E+02</pdfrwt>
<pdfrwt beam="1">  1       -2 0.37331342E-01 0.23385306E+02</pdfrwt>
<totfact> 0.16370294E+05</totfact>
</mgrwt>
</event>
<event>
 4    1  0.1352171E+004  0.2059169E+02  0.7546771E-02  0.1733811E+00
          2   -1    0    0  501    0  0.00000000000E+00  0.00000000000E+00  0.11405317841E+04  0.11405317841E+04  0.00000000000E+00 0.  1.
         -2   -1    0    0    0  501 -0.00000000000E+00 -0.00000000000E+00 -0.44946261521E+00  0.44946261521E+00  0.00000000000E+00 0. -1.
          2    1    1    2  502    0 -0.23006174668E+00  0.20590394356E+02  0.33285613665E+03  0.33349246614E+03  0.00000000000E+00 0. -1.
         -2    1    1    2    0  502  0.23006174668E+00 -0.20590394356E+02  0.80722618482E+03  0.80748878056E+03  0.00000000000E+00 0.  1.
<mgrwt>
<rscale>  2 0.20591690E+02</rscale>
<asrwt>0</asrwt>
<pdfrwt beam="1">  1        2 0.17546411E+00 0.20591690E+02</pdfrwt>
<pdfrwt beam="2">  1       -2 0.69149008E-04 0.20591690E+02</pdfrwt>
<totfact> 0.11838590E+06</totfact>
</mgrwt>
</event>
<event>
 4    1  0.1352171E+004  0.2428597E+02  0.7546771E-02  0.1671475E+00
          2   -1    0    0  501    0  0.00000000000E+00  0.00000000000E+00  0.19744772460E+03  0.19744772460E+03  0.00000000000E+00 0.  1.
         -2   -1    0    0    0  501 -0.00000000000E+00 -0.00000000000E+00 -0.52927953524E+01  0.52927953524E+01  0.00000000000E+00 0.  1.
          2    1    1    2  502    0  0.24183103592E+02 -0.22328837742E+01  0.16298317185E+03  0.16478265254E+03  0.00000000000E+00 0.  1.
         -2    1    1    2    0  502 -0.24183103592E+02  0.22328837742E+01  0.29171757388E+02  0.37957867411E+02  0.00000000000E+00 0.  1.
<mgrwt>
<rscale>  2 0.24285969E+02</rscale>
<asrwt>0</asrwt>
<pdfrwt beam="1">  1        2 0.30376567E-01 0.24285969E+02</pdfrwt>
<pdfrwt beam="2">  1       -2 0.81427636E-03 0.24285969E+02</pdfrwt>
<totfact> 0.30074134E+05</totfact>
</mgrwt>
</event>
<event>
 4    1  0.1352171E+004  0.2081564E+02  0.7546771E-02  0.1729578E+00
         -2   -1    0    0    0  501 -0.00000000000E+00  0.00000000000E+00  0.87113238825E+01  0.87113238825E+01  0.00000000000E+00 0.  1.
          2   -1    0    0  501    0  0.00000000000E+00 -0.00000000000E+00 -0.88789082333E+02  0.88789082333E+02  0.00000000000E+00 0.  1.
          2    1    1    2  502    0  0.39542088935E+01 -0.20436613061E+02 -0.72369098860E+02  0.75303236259E+02  0.00000000000E+00 0.  1.
         -2    1    1    2    0  502 -0.39542088935E+01  0.20436613061E+02 -0.77086595910E+01  0.22197169956E+02  0.00000000000E+00 0.  1.
<mgrwt>
<rscale>  2 0.20815641E+02</rscale>
<asrwt>0</asrwt>
<pdfrwt beam="2">  1        2 0.13659858E-01 0.20815641E+02</pdfrwt>
<pdfrwt beam="1">  1       -2 0.13402037E-02 0.20815641E+02</pdfrwt>
<totfact> 0.34112140E+05</totfact>
</mgrwt>
</event>
<event>
 4    1  0.1352171E+004  0.2047913E+02  0.7546771E-02  0.1735964E+00
          2   -1    0    0  501    0  0.00000000000E+00  0.00000000000E+00  0.10755884781E+03  0.10755884781E+03  0.00000000000E+00 0. -1.
         -2   -1    0    0    0  501 -0.00000000000E+00 -0.00000000000E+00 -0.23052950441E+02  0.23052950441E+02  0.00000000000E+00 0.  1.
          2    1    1    2  502    0  0.14211017669E+02 -0.14745907105E+02  0.10178021323E+03  0.10382006841E+03  0.00000000000E+00 0. -1.
         -2    1    1    2    0  502 -0.14211017669E+02  0.14745907105E+02 -0.17274315859E+02  0.26791729842E+02  0.00000000000E+00 0.  1.
<mgrwt>
<rscale>  2 0.20479131E+02</rscale>
<asrwt>0</asrwt>
<pdfrwt beam="1">  1        2 0.16547515E-01 0.20479131E+02</pdfrwt>
<pdfrwt beam="2">  1       -2 0.35466078E-02 0.20479131E+02</pdfrwt>
<totfact> 0.72585187E+04</totfact>
</mgrwt>
</event>
<event>
 4    1  0.1352171E+004  0.4191162E+02  0.7546771E-02  0.1494597E+00
         -2   -1    0    0    0  501 -0.00000000000E+00  0.00000000000E+00  0.41751275208E+03  0.41751275208E+03  0.00000000000E+00 0.  1.
          2   -1    0    0  501    0  0.00000000000E+00 -0.00000000000E+00 -0.63334440792E+02  0.63334440792E+02  0.00000000000E+00 0. -1.
          2    1    1    2  502    0 -0.39234112346E+02  0.14740033584E+02 -0.55211646817E+02  0.69317458882E+02  0.00000000000E+00 0. -1.
         -2    1    1    2    0  502  0.39234112346E+02 -0.14740033584E+02  0.40938995811E+03  0.41152973399E+03  0.00000000000E+00 0.  1.
<mgrwt>
<rscale>  2 0.41911623E+02</rscale>
<asrwt>0</asrwt>
<pdfrwt beam="2">  1        2 0.97437604E-02 0.41911623E+02</pdfrwt>
<pdfrwt beam="1">  1       -2 0.64232729E-01 0.41911623E+02</pdfrwt>
<totfact> 0.13698635E+03</totfact>
</mgrwt>
</event>
<event>
 4    1  0.1352171E+004  0.2498308E+02  0.7546771E-02  0.1661245E+00
         -2   -1    0    0    0  501 -0.00000000000E+00  0.00000000000E+00  0.10971007736E+01  0.10971007736E+01  0.00000000000E+00 0.  1.
          2   -1    0    0  501    0  0.00000000000E+00 -0.00000000000E+00 -0.59810398649E+03  0.59810398649E+03  0.00000000000E+00 0.  1.
          2    1    1    2  502    0 -0.28136582060E+01  0.24824128682E+02 -0.36469223143E+03  0.36554695691E+03  0.00000000000E+00 0.  1.
         -2    1    1    2    0  502  0.28136582060E+01 -0.24824128682E+02 -0.23231465429E+03  0.23365413036E+03  0.00000000000E+00 0.  1.
<mgrwt>
<rscale>  2 0.24983075E+02</rscale>
<asrwt>0</asrwt>
<pdfrwt beam="2">  1        2 0.92015891E-01 0.24983075E+02</pdfrwt>
<pdfrwt beam="1">  1       -2 0.16878493E-03 0.24983075E+02</pdfrwt>
<totfact> 0.82084246E+05</totfact>
</mgrwt>
</event>
<event>
 4    1  0.1352171E+004  0.2270063E+02  0.7546771E-02  0.1696409E+00
         -2   -1    0    0    0  501 -0.00000000000E+00  0.00000000000E+00  0.33678171123E+01  0.33678171123E+01  0.00000000000E+00 0. -1.
          2   -1    0    0  501    0  0.00000000000E+00 -0.00000000000E+00 -0.55593430565E+03  0.55593430565E+03  0.00000000000E+00 0. -1.
          2    1    1    2  502    0 -0.12241940460E+02 -0.19116839665E+02 -0.51435892386E+03  0.51485961312E+03  0.00000000000E+00 0. -1.
         -2    1    1    2    0  502  0.12241940460E+02  0.19116839665E+02 -0.38207564684E+02  0.44442509652E+02  0.00000000000E+00 0. -1.
<mgrwt>
<rscale>  2 0.22700631E+02</rscale>
<asrwt>0</asrwt>
<pdfrwt beam="2">  1        2 0.85528392E-01 0.22700631E+02</pdfrwt>
<pdfrwt beam="1">  1       -2 0.51812549E-03 0.22700631E+02</pdfrwt>
<totfact> 0.19335742E+05</totfact>
</mgrwt>
</event>
<event>
 4    1  0.1352171E+004  0.3742661E+02  0.7546771E-02  0.1528050E+00
         -2   -1    0    0    0  501 -0.00000000000E+00  0.00000000000E+00  0.49889585174E+00  0.49889585174E+00  0.00000000000E+00 0.  1.
          2   -1    0    0  501    0  0.00000000000E+00 -0.00000000000E+00 -0.28426584185E+04  0.28426584185E+04  0.00000000000E+00 0. -1.
          2    1    1    2  502    0 -0.26885656331E+02  0.26036758430E+02 -0.15787198708E+04  0.15791634436E+04  0.00000000000E+00 0. -1.
         -2    1    1    2    0  502  0.26885656331E+02 -0.26036758430E+02 -0.12634396519E+04  0.12639938707E+04  0.00000000000E+00 0.  1.
<mgrwt>
<rscale>  2 0.37426612E+02</rscale>
<asrwt>0</asrwt>
<pdfrwt beam="2">  1        2 0.43734399E+00 0.37426612E+02</pdfrwt>
<pdfrwt beam="1">  1       -2 0.76751115E-04 0.37426612E+02</pdfrwt>
<totfact> 0.17572905E+05</totfact>
</mgrwt>
</event>
<event>
 4    1  0.1352171E+004  0.4514888E+02  0.7546771E-02  0.1473414E+00
         -2   -1    0    0    0  501 -0.00000000000E+00  0.00000000000E+00  0.50015338246E+02  0.50015338246E+02  0.00000000000E+00 0.  1.
          2   -1    0    0  501    0  0.00000000000E+00 -0.00000000000E+00 -0.51632424839E+02  0.51632424839E+02  0.00000000000E+00 0. -1.
          2    1    1    2  502    0 -0.39878767620E+01 -0.44972413725E+02 -0.24135132160E+02  0.51194977895E+02  0.00000000000E+00 0. -1.
         -2    1    1    2    0  502  0.39878767620E+01  0.44972413725E+02  0.22518045567E+02  0.50452785190E+02  0.00000000000E+00 0.  1.
<mgrwt>
<rscale>  2 0.45148878E+02</rscale>
<asrwt>0</asrwt>
<pdfrwt beam="2">  1        2 0.79434500E-02 0.45148878E+02</pdfrwt>
<pdfrwt beam="1">  1       -2 0.76946674E-02 0.45148878E+02</pdfrwt>
<totfact> 0.65221882E+04</totfact>
</mgrwt>
</event>
<event>
 4    1  0.1352171E+004  0.3267585E+02  0.7546771E-02  0.1570264E+00
          2   -1    0    0  501    0  0.00000000000E+00  0.00000000000E+00  0.16835351071E+03  0.16835351071E+03  0.00000000000E+00 0.  1.
         -2   -1    0    0    0  501 -0.00000000000E+00 -0.00000000000E+00 -0.12348077105E+02  0.12348077105E+02  0.00000000000E+00 0.  1.
          2    1    1    2  502    0  0.84980045004E+01  0.31551463383E+02  0.14101496511E+03  0.14475127394E+03  0.00000000000E+00 0.  1.
         -2    1    1    2    0  502 -0.84980045004E+01 -0.31551463383E+02  0.14990468495E+02  0.35950313876E+02  0.00000000000E+00 0.  1.
<mgrwt>
<rscale>  2 0.32675846E+02</rscale>
<asrwt>0</asrwt>
<pdfrwt beam="1">  1        2 0.25900538E-01 0.32675846E+02</pdfrwt>
<pdfrwt beam="2">  1       -2 0.18997043E-02 0.32675846E+02</pdfrwt>
<totfact> 0.11962366E+05</totfact>
</mgrwt>
</event>
<event>
 4    1  0.1352171E+004  0.2778766E+02  0.7546771E-02  0.1623915E+00
          2   -1    0    0  501    0  0.00000000000E+00  0.00000000000E+00  0.12303774962E+01  0.12303774962E+01  0.00000000000E+00 0.  1.
         -2   -1    0    0    0  501 -0.00000000000E+00 -0.00000000000E+00 -0.13044795497E+04  0.13044795497E+04  0.00000000000E+00 0.  1.
          2    1    1    2  502    0  0.27155414386E+02  0.58938630797E+01 -0.18133886738E+03  0.18345555040E+03  0.00000000000E+00 0.  1.
         -2    1    1    2    0  502 -0.27155414386E+02 -0.58938630797E+01 -0.11219103048E+04  0.11222543768E+04  0.00000000000E+00 0.  1.
<mgrwt>
<rscale>  2 0.27787662E+02</rscale>
<asrwt>0</asrwt>
<pdfrwt beam="1">  1        2 0.18928976E-03 0.27787662E+02</pdfrwt>
<pdfrwt beam="2">  1       -2 0.20068820E+00 0.27787662E+02</pdfrwt>
<totfact> 0.14999966E+04</totfact>
</mgrwt>
</event>
<event>
 4    1  0.1352171E+004  0.2225739E+02  0.7546771E-02  0.1703838E+00
          2   -1    0    0  501    0  0.00000000000E+00  0.00000000000E+00  0.11142568118E+04  0.11142568118E+04  0.00000000000E+00 0.  1.
         -2   -1    0    0    0  501 -0.00000000000E+00 -0.00000000000E+00 -0.55332233316E+01  0.55332233316E+01  0.00000000000E+00 0.  1.
          2    1    1    2  502    0  0.83261030778E+01  0.20641403030E+02  0.10912921107E+04  0.10915190619E+04  0.00000000000E+00 0.  1.
         -2    1    1    2    0  502 -0.83261030778E+01 -0.20641403030E+02  0.17431477702E+02  0.28270973212E+02  0.00000000000E+00 0.  1.
<mgrwt>
<rscale>  2 0.22257392E+02</rscale>
<asrwt>0</asrwt>
<pdfrwt beam="1">  1        2 0.17142395E+00 0.22257392E+02</pdfrwt>
<pdfrwt beam="2">  1       -2 0.85126602E-03 0.22257392E+02</pdfrwt>
<totfact> 0.44719431E+04</totfact>
</mgrwt>
</event>
<event>
 4    1  0.1352171E+004  0.4503459E+02  0.7546771E-02  0.1474126E+00
         -2   -1    0    0    0  501 -0.00000000000E+00  0.00000000000E+00  0.60342443932E+01  0.60342443932E+01  0.00000000000E+00 0.  1.
          2   -1    0    0  501    0  0.00000000000E+00 -0.00000000000E+00 -0.16794476822E+04  0.16794476822E+04  0.00000000000E+00 0. -1.
          2    1    1    2  502    0  0.44405988132E+02  0.74981500847E+01 -0.15904179024E+04  0.15910553788E+04  0.00000000000E+00 0. -1.
         -2    1    1    2    0  502 -0.44405988132E+02 -0.74981500847E+01 -0.82995535415E+02  0.94426547832E+02  0.00000000000E+00 0.  1.
<mgrwt>
<rscale>  2 0.45034587E+02</rscale>
<asrwt>0</asrwt>
<pdfrwt beam="2">  1        2 0.25837666E+00 0.45034587E+02</pdfrwt>
<pdfrwt beam="1">  1       -2 0.92834494E-03 0.45034587E+02</pdfrwt>
<totfact> 0.23004763E+04</totfact>
</mgrwt>
</event>
<event>
 4    1  0.1352171E+004  0.2323451E+02  0.7546771E-02  0.1687737E+00
          2   -1    0    0  501    0  0.00000000000E+00  0.00000000000E+00  0.51276696269E+03  0.51276696269E+03  0.00000000000E+00 0.  1.
         -2   -1    0    0    0  501 -0.00000000000E+00 -0.00000000000E+00 -0.61779292891E+01  0.61779292891E+01  0.00000000000E+00 0. -1.
          2    1    1    2  502    0  0.18541371763E+02 -0.14002139751E+02  0.48962627303E+03  0.49017724307E+03  0.00000000000E+00 0.  1.
         -2    1    1    2    0  502 -0.18541371763E+02  0.14002139751E+02  0.16962760380E+02  0.28767648916E+02  0.00000000000E+00 0. -1.
<mgrwt>
<rscale>  2 0.23234508E+02</rscale>
<asrwt>0</asrwt>
<pdfrwt beam="1">  1        2 0.78887192E-01 0.23234508E+02</pdfrwt>
<pdfrwt beam="2">  1       -2 0.95045106E-03 0.23234508E+02</pdfrwt>
<totfact> 0.93355651E+04</totfact>
</mgrwt>
</event>
<event>
 4    1  0.1352171E+004  0.2439228E+02  0.7546771E-02  0.1669887E+00
          2   -1    0    0  501    0  0.00000000000E+00  0.00000000000E+00  0.40667955455E+03  0.40667955455E+03  0.00000000000E+00 0.  1.
         -2   -1    0    0    0  501 -0.00000000000E+00 -0.00000000000E+00 -0.16338649497E+02  0.16338649497E+02  0.00000000000E+00 0. -1.
          2    1    1    2  502    0  0.23743403381E+02  0.55887599270E+01  0.39698782508E+03  0.39773649154E+03  0.00000000000E+00 0.  1.
         -2    1    1    2    0  502 -0.23743403381E+02 -0.55887599270E+01 -0.66469200238E+01  0.25281712510E+02  0.00000000000E+00 0. -1.
<mgrwt>
<rscale>  2 0.24392282E+02</rscale>
<asrwt>0</asrwt>
<pdfrwt beam="1">  1        2 0.62566078E-01 0.24392282E+02</pdfrwt>
<pdfrwt beam="2">  1       -2 0.25136387E-02 0.24392282E+02</pdfrwt>
<totfact> 0.31497604E+04</totfact>
</mgrwt>
</event>
<event>
 4    1  0.1352171E+004  0.3345305E+02  0.7546771E-02  0.1562783E+00
          2   -1    0    0  501    0  0.00000000000E+00  0.00000000000E+00  0.30246273505E+03  0.30246273505E+03  0.00000000000E+00 0. -1.
         -2   -1    0    0    0  501 -0.00000000000E+00 -0.00000000000E+00 -0.19748214797E+02  0.19748214797E+02  0.00000000000E+00 0. -1.
          2    1    1    2  502    0 -0.31597714038E+02 -0.10985957506E+02  0.28658847852E+03  0.28853433559E+03  0.00000000000E+00 0. -1.
         -2    1    1    2    0  502  0.31597714038E+02  0.10985957506E+02 -0.38739582718E+01  0.33676614252E+02  0.00000000000E+00 0. -1.
<mgrwt>
<rscale>  2 0.33453054E+02</rscale>
<asrwt>0</asrwt>
<pdfrwt beam="1">  1        2 0.46532725E-01 0.33453054E+02</pdfrwt>
<pdfrwt beam="2">  1       -2 0.30381871E-02 0.33453054E+02</pdfrwt>
<totfact> 0.34308254E+04</totfact>
</mgrwt>
</event>
<event>
 4    1  0.1352171E+004  0.2781932E+02  0.7546771E-02  0.1623525E+00
         -2   -1    0    0    0  501 -0.00000000000E+00  0.00000000000E+00  0.33395066879E+03  0.33395066879E+03  0.00000000000E+00 0.  1.
          2   -1    0    0  501    0  0.00000000000E+00 -0.00000000000E+00 -0.40814596344E+03  0.40814596344E+03  0.00000000000E+00 0. -1.
          2    1    1    2  502    0  0.13547500404E+00 -0.27818990446E+02 -0.40709105814E+03  0.40804049334E+03  0.00000000000E+00 0. -1.
         -2    1    1    2    0  502 -0.13547500404E+00  0.27818990446E+02  0.33289576349E+03  0.33405613889E+03  0.00000000000E+00 0.  1.
<mgrwt>
<rscale>  2 0.27819320E+02</rscale>
<asrwt>0</asrwt>
<pdfrwt beam="2">  1        2 0.62791686E-01 0.27819320E+02</pdfrwt>
<pdfrwt beam="1">  1       -2 0.51377026E-01 0.27819320E+02</pdfrwt>
<totfact> 0.28746717E+02</totfact>
</mgrwt>
</event>
<event>
 4    1  0.1352171E+004  0.2664115E+02  0.7546771E-02  0.1638490E+00
         -2   -1    0    0    0  501 -0.00000000000E+00  0.00000000000E+00  0.11634172770E+03  0.11634172770E+03  0.00000000000E+00 0. -1.
          2   -1    0    0  501    0  0.00000000000E+00 -0.00000000000E+00 -0.43735534517E+03  0.43735534517E+03  0.00000000000E+00 0.  1.
          2    1    1    2  502    0 -0.16689309019E+02 -0.20765789544E+02 -0.43541771545E+03  0.43623197726E+03  0.00000000000E+00 0.  1.
         -2    1    1    2    0  502  0.16689309019E+02  0.20765789544E+02  0.11440409799E+03  0.11746509561E+03  0.00000000000E+00 0. -1.
<mgrwt>
<rscale>  2 0.26641153E+02</rscale>
<asrwt>0</asrwt>
<pdfrwt beam="2">  1        2 0.67285437E-01 0.26641153E+02</pdfrwt>
<pdfrwt beam="1">  1       -2 0.17898727E-01 0.26641153E+02</pdfrwt>
<totfact> 0.16750752E+03</totfact>
</mgrwt>
</event>
<event>
 4    1  0.1352171E+004  0.2215924E+02  0.7546771E-02  0.1705512E+00
          2   -1    0    0  501    0  0.00000000000E+00  0.00000000000E+00  0.57609636599E+02  0.57609636599E+02  0.00000000000E+00 0. -1.
         -2   -1    0    0    0  501 -0.00000000000E+00 -0.00000000000E+00 -0.13419579015E+02  0.13419579015E+02  0.00000000000E+00 0. -1.
          2    1    1    2  502    0 -0.20287658854E+02 -0.89130792906E+01  0.43546871243E+02  0.48860639366E+02  0.00000000000E+00 0. -1.
         -2    1    1    2    0  502  0.20287658854E+02  0.89130792906E+01  0.64318634141E+00  0.22168576248E+02  0.00000000000E+00 0. -1.
<mgrwt>
<rscale>  2 0.22159244E+02</rscale>
<asrwt>0</asrwt>
<pdfrwt beam="1">  1        2 0.88630209E-02 0.22159244E+02</pdfrwt>
<pdfrwt beam="2">  1       -2 0.20645506E-02 0.22159244E+02</pdfrwt>
<totfact> 0.31511450E+05</totfact>
</mgrwt>
</event>
<event>
 4    1  0.1352171E+004  0.2189908E+02  0.7546771E-02  0.1710003E+00
          2   -1    0    0  501    0  0.00000000000E+00  0.00000000000E+00  0.14700161654E+03  0.14700161654E+03  0.00000000000E+00 0.  1.
         -2   -1    0    0    0  501 -0.00000000000E+00 -0.00000000000E+00 -0.10642034815E+03  0.10642034815E+03  0.00000000000E+00 0. -1.
          2    1    1    2  502    0 -0.71660167719E+00  0.21887350378E+02  0.14504432093E+03  0.14668818854E+03  0.00000000000E+00 0.  1.
         -2    1    1    2    0  502  0.71660167719E+00 -0.21887350378E+02 -0.10446305254E+03  0.10673377615E+03  0.00000000000E+00 0. -1.
<mgrwt>
<rscale>  2 0.21899078E+02</rscale>
<asrwt>0</asrwt>
<pdfrwt beam="1">  1        2 0.22615634E-01 0.21899078E+02</pdfrwt>
<pdfrwt beam="2">  1       -2 0.16372361E-01 0.21899078E+02</pdfrwt>
<totfact> 0.56441528E+03</totfact>
</mgrwt>
</event>
<event>
 4    1  0.1352171E+004  0.5147555E+02  0.7546771E-02  0.1437542E+00
         -2   -1    0    0    0  501 -0.00000000000E+00  0.00000000000E+00  0.29320927047E+01  0.29320927047E+01  0.00000000000E+00 0. -1.
          2   -1    0    0  501    0  0.00000000000E+00 -0.00000000000E+00 -0.90405815967E+03  0.90405815967E+03  0.00000000000E+00 0. -1.
          2    1    1    2  502    0 -0.35533616737E+02  0.37243718332E+02 -0.45958812239E+03  0.46246186299E+03  0.00000000000E+00 0. -1.
         -2    1    1    2    0  502  0.35533616737E+02 -0.37243718332E+02 -0.44153794457E+03  0.44452838939E+03  0.00000000000E+00 0. -1.
<mgrwt>
<rscale>  2 0.51475552E+02</rscale>
<asrwt>0</asrwt>
<pdfrwt beam="2">  1        2 0.13908587E+00 0.51475552E+02</pdfrwt>
<pdfrwt beam="1">  1       -2 0.45109117E-03 0.51475552E+02</pdfrwt>
<totfact> 0.16103357E+05</totfact>
</mgrwt>
</event>
<event>
 4    1  0.1352171E+004  0.3500702E+02  0.7546771E-02  0.1548538E+00
         -2   -1    0    0    0  501 -0.00000000000E+00  0.00000000000E+00  0.93990390538E+01  0.93990390538E+01  0.00000000000E+00 0.  1.
          2   -1    0    0  501    0  0.00000000000E+00 -0.00000000000E+00 -0.58611521098E+03  0.58611521098E+03  0.00000000000E+00 0.  1.
          2    1    1    2  502    0  0.24154128512E+02  0.25339094988E+02 -0.55091573793E+03  0.55202684894E+03  0.00000000000E+00 0.  1.
         -2    1    1    2    0  502 -0.24154128512E+02 -0.25339094988E+02 -0.25800433998E+02  0.43487401089E+02  0.00000000000E+00 0.  1.
<mgrwt>
<rscale>  2 0.35007023E+02</rscale>
<asrwt>0</asrwt>
<pdfrwt beam="2">  1        2 0.90171560E-01 0.35007023E+02</pdfrwt>
<pdfrwt beam="1">  1       -2 0.14460062E-02 0.35007023E+02</pdfrwt>
<totfact> 0.49614068E+04</totfact>
</mgrwt>
</event>
<event>
 4    1  0.1352171E+004  0.2235024E+02  0.7546771E-02  0.1702264E+00
         -2   -1    0    0    0  501 -0.00000000000E+00  0.00000000000E+00  0.12443086831E+01  0.12443086831E+01  0.00000000000E+00 0.  1.
          2   -1    0    0  501    0  0.00000000000E+00 -0.00000000000E+00 -0.57434065424E+03  0.57434065424E+03  0.00000000000E+00 0.  1.
          2    1    1    2  502    0  0.63810200544E+01 -0.21419989131E+02 -0.44444548600E+03  0.44500710486E+03  0.00000000000E+00 0.  1.
         -2    1    1    2    0  502 -0.63810200544E+01  0.21419989131E+02 -0.12865085956E+03  0.13057785806E+03  0.00000000000E+00 0.  1.
<mgrwt>
<rscale>  2 0.22350243E+02</rscale>
<asrwt>0</asrwt>
<pdfrwt beam="2">  1        2 0.88360340E-01 0.22350243E+02</pdfrwt>
<pdfrwt beam="1">  1       -2 0.19143159E-03 0.22350243E+02</pdfrwt>
<totfact> 0.70062916E+05</totfact>
</mgrwt>
</event>
<event>
 4    1  0.1352171E+004  0.3206667E+02  0.7546771E-02  0.1576307E+00
         -2   -1    0    0    0  501 -0.00000000000E+00  0.00000000000E+00  0.14531458159E+02  0.14531458159E+02  0.00000000000E+00 0. -1.
          2   -1    0    0  501    0  0.00000000000E+00 -0.00000000000E+00 -0.14549090187E+04  0.14549090187E+04  0.00000000000E+00 0. -1.
          2    1    1    2  502    0 -0.30490936988E+02 -0.99284517656E+01 -0.14368191933E+04  0.14371769778E+04  0.00000000000E+00 0. -1.
         -2    1    1    2    0  502  0.30490936988E+02  0.99284517656E+01 -0.35583672618E+01  0.32263499042E+02  0.00000000000E+00 0. -1.
<mgrwt>
<rscale>  2 0.32066671E+02</rscale>
<asrwt>0</asrwt>
<pdfrwt beam="2">  1        2 0.22383222E+00 0.32066671E+02</pdfrwt>
<pdfrwt beam="1">  1       -2 0.22356083E-02 0.32066671E+02</pdfrwt>
<totfact> 0.84650584E+03</totfact>
</mgrwt>
</event>
<event>
 4    1  0.1352171E+004  0.2800024E+02  0.7546771E-02  0.1621307E+00
          2   -1    0    0  501    0  0.00000000000E+00  0.00000000000E+00  0.31327042355E+03  0.31327042355E+03  0.00000000000E+00 0. -1.
         -2   -1    0    0    0  501 -0.00000000000E+00 -0.00000000000E+00 -0.10183342605E+02  0.10183342605E+02  0.00000000000E+00 0.  1.
          2    1    1    2  502    0  0.22168873051E+02  0.17104225483E+02  0.29199833799E+03  0.29333776240E+03  0.00000000000E+00 0. -1.
         -2    1    1    2    0  502 -0.22168873051E+02 -0.17104225483E+02  0.11088742955E+02  0.30116003753E+02  0.00000000000E+00 0.  1.
<mgrwt>
<rscale>  2 0.28000240E+02</rscale>
<asrwt>0</asrwt>
<pdfrwt beam="1">  1        2 0.48195443E-01 0.28000240E+02</pdfrwt>
<pdfrwt beam="2">  1       -2 0.15666683E-02 0.28000240E+02</pdfrwt>
<totfact> 0.80462838E+04</totfact>
</mgrwt>
</event>
<event>
 4    1  0.1352171E+004  0.4076329E+02  0.7546771E-02  0.1502668E+00
          2   -1    0    0  501    0  0.00000000000E+00  0.00000000000E+00  0.14446732590E+04  0.14446732590E+04  0.00000000000E+00 0.  1.
         -2   -1    0    0    0  501 -0.00000000000E+00 -0.00000000000E+00 -0.14522366547E+02  0.14522366547E+02  0.00000000000E+00 0. -1.
          2    1    1    2  502    0 -0.20131165463E+02  0.35445473562E+02  0.14151848554E+04  0.14157718109E+04  0.00000000000E+00 0.  1.
         -2    1    1    2    0  502  0.20131165463E+02 -0.35445473562E+02  0.14966037061E+02  0.43423814713E+02  0.00000000000E+00 0. -1.
<mgrwt>
<rscale>  2 0.40763285E+02</rscale>
<asrwt>0</asrwt>
<pdfrwt beam="1">  1        2 0.22225731E+00 0.40763285E+02</pdfrwt>
<pdfrwt beam="2">  1       -2 0.22342114E-02 0.40763285E+02</pdfrwt>
<totfact> 0.87335524E+03</totfact>
</mgrwt>
</event>
<event>
 4    1  0.1352171E+004  0.2059056E+02  0.7546771E-02  0.1733833E+00
         -2   -1    0    0    0  501 -0.00000000000E+00  0.00000000000E+00  0.20210491549E+02  0.20210491549E+02  0.00000000000E+00 0.  1.
          2   -1    0    0  501    0  0.00000000000E+00 -0.00000000000E+00 -0.44822214399E+02  0.44822214399E+02  0.00000000000E+00 0.  1.
          2    1    1    2  502    0 -0.85318165905E+01 -0.18739773826E+02 -0.36022262724E+02  0.41491859794E+02  0.00000000000E+00 0.  1.
         -2    1    1    2    0  502  0.85318165905E+01  0.18739773826E+02  0.11410539875E+02  0.23540846154E+02  0.00000000000E+00 0.  1.
<mgrwt>
<rscale>  2 0.20590557E+02</rscale>
<asrwt>0</asrwt>
<pdfrwt beam="2">  1        2 0.68957253E-02 0.20590557E+02</pdfrwt>
<pdfrwt beam="1">  1       -2 0.31093064E-02 0.20590557E+02</pdfrwt>
<totfact> 0.23558943E+05</totfact>
</mgrwt>
</event>
<event>
 4    1  0.1352171E+004  0.2622681E+02  0.7546771E-02  0.1643981E+00
          2   -1    0    0  501    0  0.00000000000E+00  0.00000000000E+00  0.24678980569E+03  0.24678980569E+03  0.00000000000E+00 0.  1.
         -2   -1    0    0    0  501 -0.00000000000E+00 -0.00000000000E+00 -0.33606497718E+01  0.33606497718E+01  0.00000000000E+00 0.  1.
          2    1    1    2  502    0  0.23974268127E+02  0.10633901383E+02  0.17338218477E+03  0.17535457618E+03  0.00000000000E+00 0.  1.
         -2    1    1    2    0  502 -0.23974268127E+02 -0.10633901383E+02  0.70046971144E+02  0.74795879280E+02  0.00000000000E+00 0.  1.
<mgrwt>
<rscale>  2 0.26226807E+02</rscale>
<asrwt>0</asrwt>
<pdfrwt beam="1">  1        2 0.37967648E-01 0.26226807E+02</pdfrwt>
<pdfrwt beam="2">  1       -2 0.51702323E-03 0.26226807E+02</pdfrwt>
<totfact> 0.45300997E+05</totfact>
</mgrwt>
</event>
<event>
 4    1  0.1352171E+004  0.2967848E+02  0.7546771E-02  0.1601670E+00
          2   -1    0    0  501    0  0.00000000000E+00  0.00000000000E+00  0.59666077633E+03  0.59666077633E+03  0.00000000000E+00 0.  1.
         -2   -1    0    0    0  501 -0.00000000000E+00 -0.00000000000E+00 -0.81540435708E+01  0.81540435708E+01  0.00000000000E+00 0. -1.
          2    1    1    2  502    0 -0.94186578864E+01 -0.28144293122E+02  0.56792063144E+03  0.56869557407E+03  0.00000000000E+00 0.  1.
         -2    1    1    2    0  502  0.94186578864E+01  0.28144293122E+02  0.20586101315E+02  0.36119245826E+02  0.00000000000E+00 0. -1.
<mgrwt>
<rscale>  2 0.29678483E+02</rscale>
<asrwt>0</asrwt>
<pdfrwt beam="1">  1        2 0.91793931E-01 0.29678483E+02</pdfrwt>
<pdfrwt beam="2">  1       -2 0.12544687E-02 0.29678483E+02</pdfrwt>
<totfact> 0.57503492E+04</totfact>
</mgrwt>
</event>
<event>
 4    1  0.1352171E+004  0.2014801E+02  0.7546771E-02  0.1742401E+00
          2   -1    0    0  501    0  0.00000000000E+00  0.00000000000E+00  0.11262274697E+04  0.11262274697E+04  0.00000000000E+00 0.  1.
         -2   -1    0    0    0  501 -0.00000000000E+00 -0.00000000000E+00 -0.41105310215E+00  0.41105310215E+00  0.00000000000E+00 0.  1.
          2    1    1    2  502    0  0.18700061396E+02 -0.74999758612E+01  0.36524767981E+03  0.36580296546E+03  0.00000000000E+00 0.  1.
         -2    1    1    2    0  502 -0.18700061396E+02  0.74999758612E+01  0.76056873678E+03  0.76083555733E+03  0.00000000000E+00 0.  1.
<mgrwt>
<rscale>  2 0.20148011E+02</rscale>
<asrwt>0</asrwt>
<pdfrwt beam="1">  1        2 0.17326329E+00 0.20148011E+02</pdfrwt>
<pdfrwt beam="2">  1       -2 0.63239841E-04 0.20148011E+02</pdfrwt>
<totfact> 0.13434284E+06</totfact>
</mgrwt>
</event>
<event>
 4    1  0.1352171E+004  0.2612089E+02  0.7546771E-02  0.1645405E+00
         -2   -1    0    0    0  501 -0.00000000000E+00  0.00000000000E+00  0.14681544916E+02  0.14681544916E+02  0.00000000000E+00 0.  1.
          2   -1    0    0  501    0  0.00000000000E+00 -0.00000000000E+00 -0.66519684281E+02  0.66519684281E+02  0.00000000000E+00 0. -1.
          2    1    1    2  502    0 -0.11320878734E+02  0.23540153824E+02 -0.48207248717E+02  0.54829188998E+02  0.00000000000E+00 0. -1.
         -2    1    1    2    0  502  0.11320878734E+02 -0.23540153824E+02 -0.36308906484E+01  0.26372040199E+02  0.00000000000E+00 0.  1.
<mgrwt>
<rscale>  2 0.26120895E+02</rscale>
<asrwt>0</asrwt>
<pdfrwt beam="2">  1        2 0.10233798E-01 0.26120895E+02</pdfrwt>
<pdfrwt beam="1">  1       -2 0.22586992E-02 0.26120895E+02</pdfrwt>
<totfact> 0.24699013E+05</totfact>
</mgrwt>
</event>
<event>
 4    1  0.1352171E+004  0.5192941E+02  0.7546771E-02  0.1435204E+00
         -2   -1    0    0    0  501 -0.00000000000E+00  0.00000000000E+00  0.10493638845E+03  0.10493638845E+03  0.00000000000E+00 0. -1.
          2   -1    0    0  501    0  0.00000000000E+00 -0.00000000000E+00 -0.30720577607E+03  0.30720577607E+03  0.00000000000E+00 0. -1.
          2    1    1    2  502    0 -0.33595481948E+02  0.39598066028E+02 -0.29839854293E+03  0.30288339946E+03  0.00000000000E+00 0. -1.
         -2    1    1    2    0  502  0.33595481948E+02 -0.39598066028E+02  0.96129155318E+02  0.10925876506E+03  0.00000000000E+00 0. -1.
<mgrwt>
<rscale>  2 0.51929406E+02</rscale>
<asrwt>0</asrwt>
<pdfrwt beam="2">  1        2 0.47262427E-01 0.51929406E+02</pdfrwt>
<pdfrwt beam="1">  1       -2 0.16144060E-01 0.51929406E+02</pdfrwt>
<totfact> 0.29568069E+03</totfact>
</mgrwt>
</event>
<event>
 4    1  0.1352171E+004  0.2018504E+02  0.7546771E-02  0.1741673E+00
          2   -1    0    0  501    0  0.00000000000E+00  0.00000000000E+00  0.66405353415E+03  0.66405353415E+03  0.00000000000E+00 0. -1.
         -2   -1    0    0    0  501 -0.00000000000E+00 -0.00000000000E+00 -0.12384704783E+01  0.12384704783E+01  0.00000000000E+00 0. -1.
          2    1    1    2  502    0  0.70490300764E+01 -0.18914202134E+02  0.56769941920E+03  0.56805815409E+03  0.00000000000E+00 0. -1.
         -2    1    1    2    0  502 -0.70490300764E+01  0.18914202134E+02  0.95115644478E+02  0.97233850545E+02  0.00000000000E+00 0. -1.
<mgrwt>
<rscale>  2 0.20185041E+02</rscale>
<asrwt>0</asrwt>
<pdfrwt beam="1">  1        2 0.10216180E+00 0.20185041E+02</pdfrwt>
<pdfrwt beam="2">  1       -2 0.19053445E-03 0.20185041E+02</pdfrwt>
<totfact> 0.58716809E+05</totfact>
</mgrwt>
</event>
<event>
 4    1  0.1352171E+004  0.2952478E+02  0.7546771E-02  0.1603402E+00
         -2   -1    0    0    0  501 -0.00000000000E+00  0.00000000000E+00  0.16890766218E+01  0.16890766218E+01  0.00000000000E+00 0. -1.
          2   -1    0    0  501    0  0.00000000000E+00 -0.00000000000E+00 -0.53629355531E+03  0.53629355531E+03  0.00000000000E+00 0.  1.
          2    1    1    2  502    0  0.16890549109E+02  0.24216155571E+02 -0.31951397607E+03  0.32087519964E+03  0.00000000000E+00 0.  1.
         -2    1    1    2    0  502 -0.16890549109E+02 -0.24216155571E+02 -0.21509050262E+03  0.21710743229E+03  0.00000000000E+00 0. -1.
<mgrwt>
<rscale>  2 0.29524783E+02</rscale>
<asrwt>0</asrwt>
<pdfrwt beam="2">  1        2 0.82506610E-01 0.29524783E+02</pdfrwt>
<pdfrwt beam="1">  1       -2 0.25985823E-03 0.29524783E+02</pdfrwt>
<totfact> 0.54219423E+05</totfact>
</mgrwt>
</event>
<event>
 4    1  0.1352171E+004  0.2297063E+02  0.7546771E-02  0.1691987E+00
          2   -1    0    0  501    0  0.00000000000E+00  0.00000000000E+00  0.42390338154E+03  0.42390338154E+03  0.00000000000E+00 0. -1.
         -2   -1    0    0    0  501 -0.00000000000E+00 -0.00000000000E+00 -0.13774230621E+01  0.13774230621E+01  0.00000000000E+00 0.  1.
          2    1    1    2  502    0  0.17163767878E+02  0.15266140229E+02  0.27725904369E+03  0.27820896333E+03  0.00000000000E+00 0. -1.
         -2    1    1    2    0  502 -0.17163767878E+02 -0.15266140229E+02  0.14526691479E+03  0.14707184128E+03  0.00000000000E+00 0.  1.
<mgrwt>
<rscale>  2 0.22970633E+02</rscale>
<asrwt>0</asrwt>
<pdfrwt beam="1">  1        2 0.65215801E-01 0.22970633E+02</pdfrwt>
<pdfrwt beam="2">  1       -2 0.21191158E-03 0.22970633E+02</pdfrwt>
<totfact> 0.83917251E+05</totfact>
</mgrwt>
</event>
<event>
 4    1  0.1352171E+004  0.2473826E+02  0.7546771E-02  0.1664790E+00
         -2   -1    0    0    0  501 -0.00000000000E+00  0.00000000000E+00  0.67717428577E+00  0.67717428577E+00  0.00000000000E+00 0.  1.
          2   -1    0    0  501    0  0.00000000000E+00 -0.00000000000E+00 -0.93285286980E+03  0.93285286980E+03  0.00000000000E+00 0.  1.
          2    1    1    2  502    0  0.26334321323E+01 -0.24597689399E+02 -0.54856326913E+03  0.54912078956E+03  0.00000000000E+00 0.  1.
         -2    1    1    2    0  502 -0.26334321323E+01  0.24597689399E+02 -0.38361242638E+03  0.38440925453E+03  0.00000000000E+00 0.  1.
<mgrwt>
<rscale>  2 0.24738256E+02</rscale>
<asrwt>0</asrwt>
<pdfrwt beam="2">  1        2 0.14351565E+00 0.24738256E+02</pdfrwt>
<pdfrwt beam="1">  1       -2 0.10418079E-03 0.24738256E+02</pdfrwt>
<totfact> 0.94293465E+05</totfact>
</mgrwt>
</event>
<event>
 4    1  0.1352171E+004  0.3125914E+02  0.7546771E-02  0.1584573E+00
         -2   -1    0    0    0  501 -0.00000000000E+00  0.00000000000E+00  0.46459844946E+01  0.46459844946E+01  0.00000000000E+00 0.  1.
          2   -1    0    0  501    0  0.00000000000E+00 -0.00000000000E+00 -0.61882333214E+03  0.61882333214E+03  0.00000000000E+00 0.  1.
          2    1    1    2  502    0 -0.31252931996E+02 -0.62297866422E+00 -0.56036852901E+03  0.56123971898E+03  0.00000000000E+00 0.  1.
         -2    1    1    2    0  502  0.31252931996E+02  0.62297866422E+00 -0.53808818634E+02  0.62229597649E+02  0.00000000000E+00 0.  1.
<mgrwt>
<rscale>  2 0.31259140E+02</rscale>
<asrwt>0</asrwt>
<pdfrwt beam="2">  1        2 0.95203579E-01 0.31259140E+02</pdfrwt>
<pdfrwt beam="1">  1       -2 0.71476692E-03 0.31259140E+02</pdfrwt>
<totfact> 0.12048285E+05</totfact>
</mgrwt>
</event>
<event>
 4    1  0.1352171E+004  0.3178712E+02  0.7546771E-02  0.1579135E+00
          2   -1    0    0  501    0  0.00000000000E+00  0.00000000000E+00  0.13917033561E+04  0.13917033561E+04  0.00000000000E+00 0.  1.
         -2   -1    0    0    0  501 -0.00000000000E+00 -0.00000000000E+00 -0.94323919507E+00  0.94323919507E+00  0.00000000000E+00 0. -1.
          2    1    1    2  502    0  0.31647107437E+02  0.29802493751E+01  0.10295266387E+04  0.10300172431E+04  0.00000000000E+00 0.  1.
         -2    1    1    2    0  502 -0.31647107437E+02 -0.29802493751E+01  0.36123347814E+03  0.36262935213E+03  0.00000000000E+00 0. -1.
<mgrwt>
<rscale>  2 0.31787125E+02</rscale>
<asrwt>0</asrwt>
<pdfrwt beam="1">  1        2 0.21410656E+00 0.31787125E+02</pdfrwt>
<pdfrwt beam="2">  1       -2 0.14511484E-03 0.31787125E+02</pdfrwt>
<totfact> 0.37454188E+05</totfact>
</mgrwt>
</event>
<event>
 4    1  0.1352171E+004  0.2138366E+02  0.7546771E-02  0.1719135E+00
          2   -1    0    0  501    0  0.00000000000E+00  0.00000000000E+00  0.25347294857E+01  0.25347294857E+01  0.00000000000E+00 0. -1.
         -2   -1    0    0    0  501 -0.00000000000E+00 -0.00000000000E+00 -0.74687342429E+03  0.74687342429E+03  0.00000000000E+00 0. -1.
          2    1    1    2  502    0 -0.49676253647E+01  0.20798644251E+02 -0.45840599420E+02  0.50582817830E+02  0.00000000000E+00 0. -1.
         -2    1    1    2    0  502  0.49676253647E+01 -0.20798644251E+02 -0.69849809539E+03  0.69882533595E+03  0.00000000000E+00 0. -1.
<mgrwt>
<rscale>  2 0.21383660E+02</rscale>
<asrwt>0</asrwt>
<pdfrwt beam="1">  1        2 0.38995905E-03 0.21383660E+02</pdfrwt>
<pdfrwt beam="2">  1       -2 0.11490341E+00 0.21383660E+02</pdfrwt>
<totfact> 0.21487637E+04</totfact>
</mgrwt>
</event>
<event>
 4    1  0.1352171E+004  0.2509348E+02  0.7546771E-02  0.1659663E+00
         -2   -1    0    0    0  501 -0.00000000000E+00  0.00000000000E+00  0.45900479678E+02  0.45900479678E+02  0.00000000000E+00 0. -1.
          2   -1    0    0  501    0  0.00000000000E+00 -0.00000000000E+00 -0.11262160871E+04  0.11262160871E+04  0.00000000000E+00 0.  1.
          2    1    1    2  502    0  0.25006844349E+02 -0.20833534580E+01 -0.11226357642E+04  0.11229161775E+04  0.00000000000E+00 0.  1.
         -2    1    1    2    0  502 -0.25006844349E+02  0.20833534580E+01  0.42320156830E+02  0.49200389227E+02  0.00000000000E+00 0. -1.
<mgrwt>
<rscale>  2 0.25093478E+02</rscale>
<asrwt>0</asrwt>
<pdfrwt beam="2">  1        2 0.17326402E+00 0.25093478E+02</pdfrwt>
<pdfrwt beam="1">  1       -2 0.70616122E-02 0.25093478E+02</pdfrwt>
<totfact> 0.23723133E+03</totfact>
</mgrwt>
</event>
<event>
 4    1  0.1352171E+004  0.2045616E+02  0.7546771E-02  0.1736406E+00
          2   -1    0    0  501    0  0.00000000000E+00  0.00000000000E+00  0.55544560511E+01  0.55544560511E+01  0.00000000000E+00 0.  1.
         -2   -1    0    0    0  501 -0.00000000000E+00 -0.00000000000E+00 -0.24063954286E+03  0.24063954286E+03  0.00000000000E+00 0.  1.
          2    1    1    2  502    0 -0.20376991847E+02  0.17980107519E+01 -0.15518138066E+02  0.25676200039E+02  0.00000000000E+00 0.  1.
         -2    1    1    2    0  502  0.20376991847E+02 -0.17980107519E+01 -0.21956694875E+03  0.22051779888E+03  0.00000000000E+00 0.  1.
<mgrwt>
<rscale>  2 0.20456164E+02</rscale>
<asrwt>0</asrwt>
<pdfrwt beam="1">  1        2 0.85453168E-03 0.20456164E+02</pdfrwt>
<pdfrwt beam="2">  1       -2 0.37021469E-01 0.20456164E+02</pdfrwt>
<totfact> 0.74902253E+04</totfact>
</mgrwt>
</event>
<event>
 4    1  0.1352171E+004  0.2115366E+02  0.7546771E-02  0.1723314E+00
          2   -1    0    0  501    0  0.00000000000E+00  0.00000000000E+00  0.64970389127E+03  0.64970389127E+03  0.00000000000E+00 0. -1.
         -2   -1    0    0    0  501 -0.00000000000E+00 -0.00000000000E+00 -0.24571702013E+01  0.24571702013E+01  0.00000000000E+00 0. -1.
          2    1    1    2  502    0 -0.21014368461E+02  0.24235822573E+01  0.60025454738E+03  0.60062717145E+03  0.00000000000E+00 0. -1.
         -2    1    1    2    0  502  0.21014368461E+02 -0.24235822573E+01  0.46992173685E+02  0.51533890018E+02  0.00000000000E+00 0. -1.
<mgrwt>
<rscale>  2 0.21153662E+02</rscale>
<asrwt>0</asrwt>
<pdfrwt beam="1">  1        2 0.99954308E-01 0.21153662E+02</pdfrwt>
<pdfrwt beam="2">  1       -2 0.37802670E-03 0.21153662E+02</pdfrwt>
<totfact> 0.24587720E+05</totfact>
</mgrwt>
</event>
<event>
 4    1  0.1352171E+004  0.3761006E+02  0.7546771E-02  0.1526573E+00
         -2   -1    0    0    0  501 -0.00000000000E+00  0.00000000000E+00  0.16603841754E+02  0.16603841754E+02  0.00000000000E+00 0. -1.
          2   -1    0    0  501    0  0.00000000000E+00 -0.00000000000E+00 -0.12155036757E+04  0.12155036757E+04  0.00000000000E+00 0. -1.
          2    1    1    2  502    0 -0.31908042296E+02 -0.19909629047E+02 -0.11935225647E+04  0.11941149983E+04  0.00000000000E+00 0. -1.
         -2    1    1    2    0  502  0.31908042296E+02  0.19909629047E+02 -0.53772692102E+01  0.37992519213E+02  0.00000000000E+00 0. -1.
<mgrwt>
<rscale>  2 0.37610058E+02</rscale>
<asrwt>0</asrwt>
<pdfrwt beam="2">  1        2 0.18700059E+00 0.37610058E+02</pdfrwt>
<pdfrwt beam="1">  1       -2 0.25544369E-02 0.37610058E+02</pdfrwt>
<totfact> 0.93698819E+03</totfact>
</mgrwt>
</event>
<event>
 4    1  0.1352171E+004  0.2241415E+02  0.7546771E-02  0.1701186E+00
         -2   -1    0    0    0  501 -0.00000000000E+00  0.00000000000E+00  0.33185950808E+01  0.33185950808E+01  0.00000000000E+00 0. -1.
          2   -1    0    0  501    0  0.00000000000E+00 -0.00000000000E+00 -0.36055660508E+03  0.36055660508E+03  0.00000000000E+00 0.  1.
          2    1    1    2  502    0 -0.15993291991E+02  0.15703783388E+02 -0.31719384357E+03  0.31798479303E+03  0.00000000000E+00 0.  1.
         -2    1    1    2    0  502  0.15993291991E+02 -0.15703783388E+02 -0.40044166430E+02  0.45890407129E+02  0.00000000000E+00 0. -1.
<mgrwt>
<rscale>  2 0.22414152E+02</rscale>
<asrwt>0</asrwt>
<pdfrwt beam="2">  1        2 0.55470211E-01 0.22414152E+02</pdfrwt>
<pdfrwt beam="1">  1       -2 0.51055342E-03 0.22414152E+02</pdfrwt>
<totfact> 0.30293148E+05</totfact>
</mgrwt>
</event>
<event>
 4    1  0.1352171E+004  0.2005465E+02  0.7546771E-02  0.1744244E+00
         -2   -1    0    0    0  501 -0.00000000000E+00  0.00000000000E+00  0.11439220916E+02  0.11439220916E+02  0.00000000000E+00 0.  1.
          2   -1    0    0  501    0  0.00000000000E+00 -0.00000000000E+00 -0.27701330356E+03  0.27701330356E+03  0.00000000000E+00 0. -1.
          2    1    1    2  502    0 -0.18310883693E+02  0.81792690182E+01 -0.26755019146E+03  0.26830075261E+03  0.00000000000E+00 0. -1.
         -2    1    1    2    0  502  0.18310883693E+02 -0.81792690182E+01  0.19761088113E+01  0.20151771866E+02  0.00000000000E+00 0.  1.
<mgrwt>
<rscale>  2 0.20054648E+02</rscale>
<asrwt>0</asrwt>
<pdfrwt beam="2">  1        2 0.42617430E-01 0.20054648E+02</pdfrwt>
<pdfrwt beam="1">  1       -2 0.17598802E-02 0.20054648E+02</pdfrwt>
<totfact> 0.71940785E+04</totfact>
</mgrwt>
</event>
<event>
 4    1  0.1352171E+004  0.2573988E+02  0.7546771E-02  0.1650597E+00
         -2   -1    0    0    0  501 -0.00000000000E+00  0.00000000000E+00  0.24560972085E+01  0.24560972085E+01  0.00000000000E+00 0. -1.
          2   -1    0    0  501    0  0.00000000000E+00 -0.00000000000E+00 -0.27693840434E+03  0.27693840434E+03  0.00000000000E+00 0. -1.
          2    1    1    2  502    0 -0.24719674631E+02 -0.71748554358E+01 -0.11473992687E+03  0.11759163100E+03  0.00000000000E+00 0. -1.
         -2    1    1    2    0  502  0.24719674631E+02  0.71748554358E+01 -0.15974238026E+03  0.16180287054E+03  0.00000000000E+00 0. -1.
<mgrwt>
<rscale>  2 0.25739882E+02</rscale>
<asrwt>0</asrwt>
<pdfrwt beam="2">  1        2 0.42605869E-01 0.25739882E+02</pdfrwt>
<pdfrwt beam="1">  1       -2 0.37786146E-03 0.25739882E+02</pdfrwt>
<totfact> 0.61219558E+05</totfact>
</mgrwt>
</event>
<event>
 4    1  0.1352171E+004  0.2612535E+02  0.7546771E-02  0.1645345E+00
          2   -1    0    0  501    0  0.00000000000E+00  0.00000000000E+00  0.23534631335E+03  0.23534631335E+03  0.00000000000E+00 0. -1.
         -2   -1    0    0    0  501 -0.00000000000E+00 -0.00000000000E+00 -0.64938099789E+02  0.64938099789E+02  0.00000000000E+00 0. -1.
          2    1    1    2  502    0  0.26033777224E+02  0.21854878213E+01  0.23195535683E+03  0.23342198156E+03  0.00000000000E+00 0. -1.
         -2    1    1    2    0  502 -0.26033777224E+02 -0.21854878213E+01 -0.61547143263E+02  0.66862431585E+02  0.00000000000E+00 0. -1.
<mgrwt>
<rscale>  2 0.26125350E+02</rscale>
<asrwt>0</asrwt>
<pdfrwt beam="1">  1        2 0.36207125E-01 0.26125350E+02</pdfrwt>
<pdfrwt beam="2">  1       -2 0.99904770E-02 0.26125350E+02</pdfrwt>
<totfact> 0.76080042E+03</totfact>
</mgrwt>
</event>
<event>
 4    1  0.1352171E+004  0.6761579E+02  0.7546771E-02  0.1368394E+00
         -2   -1    0    0    0  501 -0.00000000000E+00  0.00000000000E+00  0.41497023071E+02  0.41497023071E+02  0.00000000000E+00 0.  1.
          2   -1    0    0  501    0  0.00000000000E+00 -0.00000000000E+00 -0.60904779919E+03  0.60904779919E+03  0.00000000000E+00 0. -1.
          2    1    1    2  502    0 -0.47680274789E+02  0.47942531118E+02 -0.57816119510E+03  0.58210159115E+03  0.00000000000E+00 0. -1.
         -2    1    1    2    0  502  0.47680274789E+02 -0.47942531118E+02  0.10610418986E+02  0.68443231111E+02  0.00000000000E+00 0.  1.
<mgrwt>
<rscale>  2 0.67615789E+02</rscale>
<asrwt>0</asrwt>
<pdfrwt beam="2">  1        2 0.93699663E-01 0.67615789E+02</pdfrwt>
<pdfrwt beam="1">  1       -2 0.63841573E-02 0.67615789E+02</pdfrwt>
<totfact> 0.61431574E+03</totfact>
</mgrwt>
</event>
<event>
 4    1  0.1352171E+004  0.2418231E+02  0.7546771E-02  0.1673032E+00
          2   -1    0    0  501    0  0.00000000000E+00  0.00000000000E+00  0.49732144295E+02  0.49732144295E+02  0.00000000000E+00 0. -1.
         -2   -1    0    0    0  501 -0.00000000000E+00 -0.00000000000E+00 -0.15643432687E+02  0.15643432687E+02  0.00000000000E+00 0. -1.
          2    1    1    2  502    0 -0.80955935320E+01  0.22786960382E+02  0.33333617176E+02  0.41181479237E+02  0.00000000000E+00 0. -1.
         -2    1    1    2    0  502  0.80955935320E+01 -0.22786960382E+02  0.75509443109E+00  0.24194097745E+02  0.00000000000E+00 0. -1.
<mgrwt>
<rscale>  2 0.24182312E+02</rscale>
<asrwt>0</asrwt>
<pdfrwt beam="1">  1        2 0.76510991E-02 0.24182312E+02</pdfrwt>
<pdfrwt beam="2">  1       -2 0.24066820E-02 0.24182312E+02</pdfrwt>
<totfact> 0.31112984E+05</totfact>
</mgrwt>
</event>
<event>
 4    1  0.1352171E+004  0.1447397E+03  0.7546771E-02  0.1207090E+00
         -2   -1    0    0    0  501 -0.00000000000E+00  0.00000000000E+00  0.46375848464E+02  0.46375848464E+02  0.00000000000E+00 0.  1.
          2   -1    0    0  501    0  0.00000000000E+00 -0.00000000000E+00 -0.16726330389E+04  0.16726330389E+04  0.00000000000E+00 0. -1.
          2    1    1    2  502    0  0.94928383793E+02  0.10926197788E+03 -0.15474523043E+04  0.15542066181E+04  0.00000000000E+00 0. -1.
         -2    1    1    2    0  502 -0.94928383793E+02 -0.10926197788E+03 -0.78804886168E+02  0.16480226923E+03  0.00000000000E+00 0.  1.
<mgrwt>
<rscale>  2 0.14473969E+03</rscale>
<asrwt>0</asrwt>
<pdfrwt beam="2">  1        2 0.25732817E+00 0.14473969E+03</pdfrwt>
<pdfrwt beam="1">  1       -2 0.71347457E-02 0.14473969E+03</pdfrwt>
<totfact> 0.12642649E+03</totfact>
</mgrwt>
</event>
<event>
 4    1  0.1352171E+004  0.2277140E+02  0.7546771E-02  0.1695243E+00
         -2   -1    0    0    0  501 -0.00000000000E+00  0.00000000000E+00  0.72550011029E+01  0.72550011029E+01  0.00000000000E+00 0.  1.
          2   -1    0    0  501    0  0.00000000000E+00 -0.00000000000E+00 -0.21563575713E+03  0.21563575713E+03  0.00000000000E+00 0. -1.
          2    1    1    2  502    0 -0.16053988644E+02 -0.16149497567E+02 -0.19531341590E+03  0.19663638334E+03  0.00000000000E+00 0. -1.
         -2    1    1    2    0  502  0.16053988644E+02  0.16149497567E+02 -0.13067340131E+02  0.26254374896E+02  0.00000000000E+00 0.  1.
<mgrwt>
<rscale>  2 0.22771404E+02</rscale>
<asrwt>0</asrwt>
<pdfrwt beam="2">  1        2 0.33174727E-01 0.22771404E+02</pdfrwt>
<pdfrwt beam="1">  1       -2 0.11161542E-02 0.22771404E+02</pdfrwt>
<totfact> 0.17651660E+05</totfact>
</mgrwt>
</event>
<event>
 4    1  0.1352171E+004  0.2853316E+02  0.7546771E-02  0.1614892E+00
          2   -1    0    0  501    0  0.00000000000E+00  0.00000000000E+00  0.17752075364E+04  0.17752075364E+04  0.00000000000E+00 0. -1.
         -2   -1    0    0    0  501 -0.00000000000E+00 -0.00000000000E+00 -0.63546408409E+00  0.63546408409E+00  0.00000000000E+00 0. -1.
          2    1    1    2  502    0 -0.28445320611E+02  0.22371812021E+01  0.13556973795E+04  0.13559976129E+04  0.00000000000E+00 0. -1.
         -2    1    1    2    0  502  0.28445320611E+02 -0.22371812021E+01  0.41887469280E+03  0.41984538762E+03  0.00000000000E+00 0. -1.
<mgrwt>
<rscale>  2 0.28533160E+02</rscale>
<asrwt>0</asrwt>
<pdfrwt beam="1">  1        2 0.27310488E+00 0.28533160E+02</pdfrwt>
<pdfrwt beam="2">  1       -2 0.97765126E-04 0.28533160E+02</pdfrwt>
<totfact> 0.40584591E+05</totfact>
</mgrwt>
</event>
<event>
 4    1  0.1352171E+004  0.2017512E+02  0.7546771E-02  0.1741868E+00
          2   -1    0    0  501    0  0.00000000000E+00  0.00000000000E+00  0.11077312675E+03  0.11077312675E+03  0.00000000000E+00 0.  1.
         -2   -1    0    0    0  501 -0.00000000000E+00 -0.00000000000E+00 -0.56560879707E+01  0.56560879707E+01  0.00000000000E+00 0. -1.
          2    1    1    2  502    0 -0.17877267818E+02 -0.93508691529E+01  0.87015797240E+02  0.89324041713E+02  0.00000000000E+00 0.  1.
         -2    1    1    2    0  502  0.17877267818E+02  0.93508691529E+01  0.18101241540E+02  0.27105173009E+02  0.00000000000E+00 0. -1.
<mgrwt>
<rscale>  2 0.20175120E+02</rscale>
<asrwt>0</asrwt>
<pdfrwt beam="1">  1        2 0.17042018E-01 0.20175120E+02</pdfrwt>
<pdfrwt beam="2">  1       -2 0.87016747E-03 0.20175120E+02</pdfrwt>
<totfact> 0.47520859E+05</totfact>
</mgrwt>
</event>
<event>
 4    1  0.1352171E+004  0.2384026E+02  0.7546771E-02  0.1678241E+00
          2   -1    0    0  501    0  0.00000000000E+00  0.00000000000E+00  0.33577403113E+02  0.33577403113E+02  0.00000000000E+00 0.  1.
         -2   -1    0    0    0  501 -0.00000000000E+00 -0.00000000000E+00 -0.34611951931E+02  0.34611951931E+02  0.00000000000E+00 0.  1.
          2    1    1    2  502    0  0.23756496190E+02 -0.19967724416E+01  0.23853978507E+02  0.33724924048E+02  0.00000000000E+00 0.  1.
         -2    1    1    2    0  502 -0.23756496190E+02  0.19967724416E+01 -0.24888527326E+02  0.34464430996E+02  0.00000000000E+00 0.  1.
<mgrwt>
<rscale>  2 0.23840264E+02</rscale>
<asrwt>0</asrwt>
<pdfrwt beam="1">  1        2 0.51657543E-02 0.23840264E+02</pdfrwt>
<pdfrwt beam="2">  1       -2 0.53249157E-02 0.23840264E+02</pdfrwt>
<totfact> 0.16331273E+05</totfact>
</mgrwt>
</event>
<event>
 4    1  0.1352171E+004  0.2205612E+02  0.7546771E-02  0.1707283E+00
          2   -1    0    0  501    0  0.00000000000E+00  0.00000000000E+00  0.24154765167E+03  0.24154765167E+03  0.00000000000E+00 0.  1.
         -2   -1    0    0    0  501 -0.00000000000E+00 -0.00000000000E+00 -0.71721167870E+01  0.71721167870E+01  0.00000000000E+00 0.  1.
          2    1    1    2  502    0  0.13601724158E+02 -0.17362768067E+02  0.22265146102E+03  0.22374124722E+03  0.00000000000E+00 0.  1.
         -2    1    1    2    0  502 -0.13601724158E+02  0.17362768067E+02  0.11724073862E+02  0.24978521232E+02  0.00000000000E+00 0.  1.
<mgrwt>
<rscale>  2 0.22056124E+02</rscale>
<asrwt>0</asrwt>
<pdfrwt beam="1">  1        2 0.37161171E-01 0.22056124E+02</pdfrwt>
<pdfrwt beam="2">  1       -2 0.11034028E-02 0.22056124E+02</pdfrwt>
<totfact> 0.15875552E+05</totfact>
</mgrwt>
</event>
<event>
 4    1  0.1352171E+004  0.2067355E+02  0.7546771E-02  0.1732256E+00
          2   -1    0    0  501    0  0.00000000000E+00  0.00000000000E+00  0.22011723403E+03  0.22011723403E+03  0.00000000000E+00 0. -1.
         -2   -1    0    0    0  501 -0.00000000000E+00 -0.00000000000E+00 -0.19837972024E+01  0.19837972024E+01  0.00000000000E+00 0. -1.
          2    1    1    2  502    0  0.16707528373E+02 -0.12175958245E+02  0.12524912451E+03  0.12694384055E+03  0.00000000000E+00 0. -1.
         -2    1    1    2    0  502 -0.16707528373E+02  0.12175958245E+02  0.92884312315E+02  0.95157190678E+02  0.00000000000E+00 0. -1.
<mgrwt>
<rscale>  2 0.20673545E+02</rscale>
<asrwt>0</asrwt>
<pdfrwt beam="1">  1        2 0.33864171E-01 0.20673545E+02</pdfrwt>
<pdfrwt beam="2">  1       -2 0.30519974E-03 0.20673545E+02</pdfrwt>
<totfact> 0.95367327E+05</totfact>
</mgrwt>
</event>
<event>
 4    1  0.1352171E+004  0.2087691E+02  0.7546771E-02  0.1728432E+00
         -2   -1    0    0    0  501 -0.00000000000E+00  0.00000000000E+00  0.12667963205E+01  0.12667963205E+01  0.00000000000E+00 0. -1.
          2   -1    0    0  501    0  0.00000000000E+00 -0.00000000000E+00 -0.36343889480E+03  0.36343889480E+03  0.00000000000E+00 0. -1.
          2    1    1    2  502    0  0.17090899534E+02  0.11989433548E+02 -0.22320108868E+03  0.22417531388E+03  0.00000000000E+00 0. -1.
         -2    1    1    2    0  502 -0.17090899534E+02 -0.11989433548E+02 -0.13897100980E+03  0.14053037724E+03  0.00000000000E+00 0. -1.
<mgrwt>
<rscale>  2 0.20876910E+02</rscale>
<asrwt>0</asrwt>
<pdfrwt beam="2">  1        2 0.55913693E-01 0.20876910E+02</pdfrwt>
<pdfrwt beam="1">  1       -2 0.19489168E-03 0.20876910E+02</pdfrwt>
<totfact> 0.10573699E+06</totfact>
</mgrwt>
</event>
<event>
 4    1  0.1352171E+004  0.6331177E+02  0.7546771E-02  0.1384437E+00
         -2   -1    0    0    0  501 -0.00000000000E+00  0.00000000000E+00  0.42105419861E+02  0.42105419861E+02  0.00000000000E+00 0. -1.
          2   -1    0    0  501    0  0.00000000000E+00 -0.00000000000E+00 -0.45592631561E+03  0.45592631561E+03  0.00000000000E+00 0. -1.
          2    1    1    2  502    0 -0.62532957418E+02 -0.98999553645E+01 -0.42840824274E+03  0.43306119929E+03  0.00000000000E+00 0. -1.
         -2    1    1    2    0  502  0.62532957418E+02  0.98999553645E+01  0.14587346993E+02  0.64970536183E+02  0.00000000000E+00 0. -1.
<mgrwt>
<rscale>  2 0.63311767E+02</rscale>
<asrwt>0</asrwt>
<pdfrwt beam="2">  1        2 0.70142512E-01 0.63311767E+02</pdfrwt>
<pdfrwt beam="1">  1       -2 0.64777567E-02 0.63311767E+02</pdfrwt>
<totfact> 0.81665128E+03</totfact>
</mgrwt>
</event>
<event>
 4    1  0.1352171E+004  0.2069405E+02  0.7546771E-02  0.1731868E+00
         -2   -1    0    0    0  501 -0.00000000000E+00  0.00000000000E+00  0.24930921666E+03  0.24930921666E+03  0.00000000000E+00 0.  1.
          2   -1    0    0  501    0  0.00000000000E+00 -0.00000000000E+00 -0.35244707273E+03  0.35244707273E+03  0.00000000000E+00 0. -1.
          2    1    1    2  502    0 -0.52832633666E+01 -0.20008271349E+02 -0.35171298223E+03  0.35232125349E+03  0.00000000000E+00 0. -1.
         -2    1    1    2    0  502  0.52832633666E+01  0.20008271349E+02  0.24857512615E+03  0.24943503590E+03  0.00000000000E+00 0.  1.
<mgrwt>
<rscale>  2 0.20694052E+02</rscale>
<asrwt>0</asrwt>
<pdfrwt beam="2">  1        2 0.54222626E-01 0.20694052E+02</pdfrwt>
<pdfrwt beam="1">  1       -2 0.38355264E-01 0.20694052E+02</pdfrwt>
<totfact> 0.56620394E+02</totfact>
</mgrwt>
</event>
<event>
 4    1  0.1352171E+004  0.2011890E+02  0.7546771E-02  0.1742974E+00
         -2   -1    0    0    0  501 -0.00000000000E+00  0.00000000000E+00  0.12901674766E+02  0.12901674766E+02  0.00000000000E+00 0.  1.
          2   -1    0    0  501    0  0.00000000000E+00 -0.00000000000E+00 -0.67169533798E+02  0.67169533798E+02  0.00000000000E+00 0. -1.
          2    1    1    2  502    0  0.10082759873E+01  0.20093620026E+02 -0.56360503830E+02  0.59843768082E+02  0.00000000000E+00 0. -1.
         -2    1    1    2    0  502 -0.10082759873E+01 -0.20093620026E+02  0.20926447986E+01  0.20227440483E+02  0.00000000000E+00 0.  1.
<mgrwt>
<rscale>  2 0.20118901E+02</rscale>
<asrwt>0</asrwt>
<pdfrwt beam="2">  1        2 0.10333774E-01 0.20118901E+02</pdfrwt>
<pdfrwt beam="1">  1       -2 0.19848731E-02 0.20118901E+02</pdfrwt>
<totfact> 0.27080010E+05</totfact>
</mgrwt>
</event>
<event>
 4    1  0.1352171E+004  0.2228278E+02  0.7546771E-02  0.1703407E+00
         -2   -1    0    0    0  501 -0.00000000000E+00  0.00000000000E+00  0.25799571388E+03  0.25799571388E+03  0.00000000000E+00 0. -1.
          2   -1    0    0  501    0  0.00000000000E+00 -0.00000000000E+00 -0.12620723159E+03  0.12620723159E+03  0.00000000000E+00 0. -1.
          2    1    1    2  502    0 -0.15763162868E+02 -0.15749438782E+02 -0.12473692548E+03  0.12671157289E+03  0.00000000000E+00 0. -1.
         -2    1    1    2    0  502  0.15763162868E+02  0.15749438782E+02  0.25652540777E+03  0.25749137259E+03  0.00000000000E+00 0. -1.
<mgrwt>
<rscale>  2 0.22282776E+02</rscale>
<asrwt>0</asrwt>
<pdfrwt beam="2">  1        2 0.19416497E-01 0.22282776E+02</pdfrwt>
<pdfrwt beam="1">  1       -2 0.39691648E-01 0.22282776E+02</pdfrwt>
<totfact> 0.15065823E+03</totfact>
</mgrwt>
</event>
<event>
 4    1  0.1352171E+004  0.2844844E+02  0.7546771E-02  0.1615901E+00
          2   -1    0    0  501    0  0.00000000000E+00  0.00000000000E+00  0.58646848002E+03  0.58646848002E+03  0.00000000000E+00 0. -1.
         -2   -1    0    0    0  501 -0.00000000000E+00 -0.00000000000E+00 -0.16309401652E+01  0.16309401652E+01  0.00000000000E+00 0. -1.
          2    1    1    2  502    0  0.74851576364E+01 -0.27446057295E+02  0.40776563620E+03  0.40875680754E+03  0.00000000000E+00 0. -1.
         -2    1    1    2    0  502 -0.74851576364E+01  0.27446057295E+02  0.17707190365E+03  0.17934261264E+03  0.00000000000E+00 0. -1.
<mgrwt>
<rscale>  2 0.28448438E+02</rscale>
<asrwt>0</asrwt>
<pdfrwt beam="1">  1        2 0.90225752E-01 0.28448438E+02</pdfrwt>
<pdfrwt beam="2">  1       -2 0.25091434E-03 0.28448438E+02</pdfrwt>
<totfact> 0.51251209E+05</totfact>
</mgrwt>
</event>
<event>
 4    1  0.1352171E+004  0.2189214E+02  0.7546771E-02  0.1710124E+00
          2   -1    0    0  501    0  0.00000000000E+00  0.00000000000E+00  0.17973066936E+04  0.17973066936E+04  0.00000000000E+00 0.  1.
         -2   -1    0    0    0  501 -0.00000000000E+00 -0.00000000000E+00 -0.35212435235E+00  0.35212435235E+00  0.00000000000E+00 0.  1.
          2    1    1    2  502    0 -0.51427549653E+01  0.21279518972E+02  0.13412973841E+04  0.13414760298E+04  0.00000000000E+00 0.  1.
         -2    1    1    2    0  502  0.51427549653E+01 -0.21279518972E+02  0.45565718514E+03  0.45618278817E+03  0.00000000000E+00 0.  1.
<mgrwt>
<rscale>  2 0.21892141E+02</rscale>
<asrwt>0</asrwt>
<pdfrwt beam="1">  1        2 0.27650138E+00 0.21892141E+02</pdfrwt>
<pdfrwt beam="2">  1       -2 0.54174416E-04 0.21892141E+02</pdfrwt>
<totfact> 0.80851628E+05</totfact>
</mgrwt>
</event>
<event>
 4    1  0.2701855E+004  0.2582142E+02  0.7546771E-02  0.1649476E+00
          2   -1    0    0  501    0  0.00000000000E+00  0.00000000000E+00  0.15474949837E+04  0.15474949837E+04  0.00000000000E+00 0. -1.
         -2   -1    0    0    0  501 -0.00000000000E+00 -0.00000000000E+00 -0.51346491575E+03  0.51346491575E+03  0.00000000000E+00 0.  1.
          2    1    1    2  502    0  0.12862000499E+02  0.22390057068E+02  0.15470625487E+04  0.15472780213E+04  0.00000000000E+00 0. -1.
         -2    1    1    2    0  502 -0.12862000499E+02 -0.22390057068E+02 -0.51303248069E+03  0.51368187817E+03  0.00000000000E+00 0.  1.
<mgrwt>
<rscale>  2 0.25821420E+02</rscale>
<asrwt>0</asrwt>
<pdfrwt beam="1">  1        2 0.23807615E+00 0.25821420E+02</pdfrwt>
<pdfrwt beam="2">  1       -2 0.78994603E-01 0.25821420E+02</pdfrwt>
<totfact> 0.24332162E+01</totfact>
</mgrwt>
</event>
<event>
 4    1  0.1352171E+004  0.3501744E+02  0.7546771E-02  0.1548446E+00
          2   -1    0    0  501    0  0.00000000000E+00  0.00000000000E+00  0.10237894073E+04  0.10237894073E+04  0.00000000000E+00 0. -1.
         -2   -1    0    0    0  501 -0.00000000000E+00 -0.00000000000E+00 -0.38233319045E+02  0.38233319045E+02  0.00000000000E+00 0. -1.
          2    1    1    2  502    0  0.34858111093E+02 -0.33365938445E+01  0.10154057834E+04  0.10160094123E+04  0.00000000000E+00 0. -1.
         -2    1    1    2    0  502 -0.34858111093E+02  0.33365938445E+01 -0.29849695202E+02  0.46013314063E+02  0.00000000000E+00 0. -1.
<mgrwt>
<rscale>  2 0.35017435E+02</rscale>
<asrwt>0</asrwt>
<pdfrwt beam="1">  1        2 0.15750604E+00 0.35017435E+02</pdfrwt>
<pdfrwt beam="2">  1       -2 0.58820499E-02 0.35017435E+02</pdfrwt>
<totfact> 0.35795124E+03</totfact>
</mgrwt>
</event>
<event>
 4    1  0.1352171E+004  0.2356536E+02  0.7546771E-02  0.1682506E+00
         -2   -1    0    0    0  501 -0.00000000000E+00  0.00000000000E+00  0.31488769543E+01  0.31488769543E+01  0.00000000000E+00 0. -1.
          2   -1    0    0  501    0  0.00000000000E+00 -0.00000000000E+00 -0.27601456779E+03  0.27601456779E+03  0.00000000000E+00 0. -1.
          2    1    1    2  502    0 -0.19875865190E+02 -0.12660031158E+02 -0.22030499097E+03  0.22156176442E+03  0.00000000000E+00 0. -1.
         -2    1    1    2    0  502  0.19875865190E+02  0.12660031158E+02 -0.52560699867E+02  0.57601680327E+02  0.00000000000E+00 0. -1.
<mgrwt>
<rscale>  2 0.23565365E+02</rscale>
<asrwt>0</asrwt>
<pdfrwt beam="2">  1        2 0.42463787E-01 0.23565365E+02</pdfrwt>
<pdfrwt beam="1">  1       -2 0.48444252E-03 0.23565365E+02</pdfrwt>
<totfact> 0.42893824E+05</totfact>
</mgrwt>
</event>
<event>
 4    1  0.1352171E+004  0.2610077E+02  0.7546771E-02  0.1645677E+00
          2   -1    0    0  501    0  0.00000000000E+00  0.00000000000E+00  0.76559607011E+03  0.76559607011E+03  0.00000000000E+00 0.  1.
         -2   -1    0    0    0  501 -0.00000000000E+00 -0.00000000000E+00 -0.66924212326E+01  0.66924212326E+01  0.00000000000E+00 0.  1.
          2    1    1    2  502    0  0.11165678565E+02  0.23591899687E+02  0.73900980598E+03  0.73947058321E+03  0.00000000000E+00 0.  1.
         -2    1    1    2    0  502 -0.11165678565E+02 -0.23591899687E+02  0.19893842903E+02  0.32817908131E+02  0.00000000000E+00 0.  1.
<mgrwt>
<rscale>  2 0.26100768E+02</rscale>
<asrwt>0</asrwt>
<pdfrwt beam="1">  1        2 0.11778394E+00 0.26100768E+02</pdfrwt>
<pdfrwt beam="2">  1       -2 0.10296039E-02 0.26100768E+02</pdfrwt>
<totfact> 0.56060857E+04</totfact>
</mgrwt>
</event>
<event>
 4    1  0.1352171E+004  0.2545289E+02  0.7546771E-02  0.1654581E+00
         -2   -1    0    0    0  501 -0.00000000000E+00  0.00000000000E+00  0.85799807256E+01  0.85799807256E+01  0.00000000000E+00 0.  1.
          2   -1    0    0  501    0  0.00000000000E+00 -0.00000000000E+00 -0.35282497031E+03  0.35282497031E+03  0.00000000000E+00 0. -1.
          2    1    1    2  502    0 -0.21512472914E+02 -0.13603789088E+02 -0.33232649791E+03  0.33329979115E+03  0.00000000000E+00 0. -1.
         -2    1    1    2    0  502  0.21512472914E+02  0.13603789088E+02 -0.11918491678E+02  0.28105159888E+02  0.00000000000E+00 0.  1.
<mgrwt>
<rscale>  2 0.25452889E+02</rscale>
<asrwt>0</asrwt>
<pdfrwt beam="2">  1        2 0.54280767E-01 0.25452889E+02</pdfrwt>
<pdfrwt beam="1">  1       -2 0.13199970E-02 0.25452889E+02</pdfrwt>
<totfact> 0.88574378E+04</totfact>
</mgrwt>
</event>
<event>
 4    1  0.1352171E+004  0.2222253E+02  0.7546771E-02  0.1704432E+00
         -2   -1    0    0    0  501 -0.00000000000E+00  0.00000000000E+00  0.33418079057E+03  0.33418079057E+03  0.00000000000E+00 0. -1.
          2   -1    0    0  501    0  0.00000000000E+00 -0.00000000000E+00 -0.82322117881E+01  0.82322117881E+01  0.00000000000E+00 0.  1.
          2    1    1    2  502    0  0.11054042614E+01 -0.22195019906E+02  0.78939073111E+01  0.23582930264E+02  0.00000000000E+00 0.  1.
         -2    1    1    2    0  502 -0.11054042614E+01  0.22195019906E+02  0.31805467147E+03  0.31883007210E+03  0.00000000000E+00 0. -1.
<mgrwt>
<rscale>  2 0.22222530E+02</rscale>
<asrwt>0</asrwt>
<pdfrwt beam="2">  1        2 0.12664944E-02 0.22222530E+02</pdfrwt>
<pdfrwt beam="1">  1       -2 0.51412419E-01 0.22222530E+02</pdfrwt>
<totfact> 0.25074085E+04</totfact>
</mgrwt>
</event>
<event>
 4    1  0.1352171E+004  0.3266645E+02  0.7546771E-02  0.1570356E+00
         -2   -1    0    0    0  501 -0.00000000000E+00  0.00000000000E+00  0.67373471196E+01  0.67373471196E+01  0.00000000000E+00 0.  1.
          2   -1    0    0  501    0  0.00000000000E+00 -0.00000000000E+00 -0.55657760866E+03  0.55657760866E+03  0.00000000000E+00 0. -1.
          2    1    1    2  502    0  0.32663077361E+02 -0.46923121623E+00 -0.51315473809E+03  0.51419342861E+03  0.00000000000E+00 0. -1.
         -2    1    1    2    0  502 -0.32663077361E+02  0.46923121623E+00 -0.36685523445E+02  0.49121527166E+02  0.00000000000E+00 0.  1.
<mgrwt>
<rscale>  2 0.32666448E+02</rscale>
<asrwt>0</asrwt>
<pdfrwt beam="2">  1        2 0.85627320E-01 0.32666448E+02</pdfrwt>
<pdfrwt beam="1">  1       -2 0.10365150E-02 0.32666448E+02</pdfrwt>
<totfact> 0.81837404E+04</totfact>
</mgrwt>
</event>
<event>
 4    1  0.1352171E+004  0.3009825E+02  0.7546771E-02  0.1597005E+00
          2   -1    0    0  501    0  0.00000000000E+00  0.00000000000E+00  0.19892027935E+04  0.19892027935E+04  0.00000000000E+00 0. -1.
         -2   -1    0    0    0  501 -0.00000000000E+00 -0.00000000000E+00 -0.13125547757E+01  0.13125547757E+01  0.00000000000E+00 0.  1.
          2    1    1    2  502    0  0.45445695398E+01 -0.29753175010E+02  0.17982184956E+04  0.17984703674E+04  0.00000000000E+00 0. -1.
         -2    1    1    2    0  502 -0.45445695398E+01  0.29753175010E+02  0.18967174307E+03  0.19204498081E+03  0.00000000000E+00 0.  1.
<mgrwt>
<rscale>  2 0.30098248E+02</rscale>
<asrwt>0</asrwt>
<pdfrwt beam="1">  1        2 0.30602879E+00 0.30098248E+02</pdfrwt>
<pdfrwt beam="2">  1       -2 0.20193310E-03 0.30098248E+02</pdfrwt>
<totfact> 0.12366443E+05</totfact>
</mgrwt>
</event>
<event>
 4    1  0.1352171E+004  0.2014159E+02  0.7546771E-02  0.1742527E+00
          2   -1    0    0  501    0  0.00000000000E+00  0.00000000000E+00  0.42912636955E+02  0.42912636955E+02  0.00000000000E+00 0.  1.
         -2   -1    0    0    0  501 -0.00000000000E+00 -0.00000000000E+00 -0.17588664041E+02  0.17588664041E+02  0.00000000000E+00 0. -1.
          2    1    1    2  502    0  0.19664655825E+02  0.43571748965E+01  0.33234900911E+02  0.38861836040E+02  0.00000000000E+00 0.  1.
         -2    1    1    2    0  502 -0.19664655825E+02 -0.43571748965E+01 -0.79109279977E+01  0.21639464956E+02  0.00000000000E+00 0. -1.
<mgrwt>
<rscale>  2 0.20141590E+02</rscale>
<asrwt>0</asrwt>
<pdfrwt beam="1">  1        2 0.66019441E-02 0.20141590E+02</pdfrwt>
<pdfrwt beam="2">  1       -2 0.27059483E-02 0.20141590E+02</pdfrwt>
<totfact> 0.29860332E+05</totfact>
</mgrwt>
</event>
<event>
 4    1  0.1352171E+004  0.3639049E+02  0.7546771E-02  0.1536588E+00
          2   -1    0    0  501    0  0.00000000000E+00  0.00000000000E+00  0.42673685120E+03  0.42673685120E+03  0.00000000000E+00 0. -1.
         -2   -1    0    0    0  501 -0.00000000000E+00 -0.00000000000E+00 -0.33648280804E+02  0.33648280804E+02  0.00000000000E+00 0.  1.
          2    1    1    2  502    0 -0.31279934656E+02 -0.18596590869E+02  0.41586527564E+03  0.41745442265E+03  0.00000000000E+00 0. -1.
         -2    1    1    2    0  502  0.31279934656E+02  0.18596590869E+02 -0.22776705245E+02  0.42930709357E+02  0.00000000000E+00 0.  1.
<mgrwt>
<rscale>  2 0.36390486E+02</rscale>
<asrwt>0</asrwt>
<pdfrwt beam="1">  1        2 0.65651819E-01 0.36390486E+02</pdfrwt>
<pdfrwt beam="2">  1       -2 0.51766589E-02 0.36390486E+02</pdfrwt>
<totfact> 0.11478398E+04</totfact>
</mgrwt>
</event>
<event>
 4    1  0.1352171E+004  0.3371476E+02  0.7546771E-02  0.1560319E+00
          2   -1    0    0  501    0  0.00000000000E+00  0.00000000000E+00  0.17855378086E+03  0.17855378086E+03  0.00000000000E+00 0.  1.
         -2   -1    0    0    0  501 -0.00000000000E+00 -0.00000000000E+00 -0.22003673746E+02  0.22003673746E+02  0.00000000000E+00 0.  1.
          2    1    1    2  502    0 -0.30417580272E+02 -0.14541518750E+02  0.16281196713E+03  0.16626611681E+03  0.00000000000E+00 0.  1.
         -2    1    1    2    0  502  0.30417580272E+02  0.14541518750E+02 -0.62618600163E+01  0.34291337799E+02  0.00000000000E+00 0.  1.
<mgrwt>
<rscale>  2 0.33714759E+02</rscale>
<asrwt>0</asrwt>
<pdfrwt beam="1">  1        2 0.27469812E-01 0.33714759E+02</pdfrwt>
<pdfrwt beam="2">  1       -2 0.33851807E-02 0.33714759E+02</pdfrwt>
<totfact> 0.50399736E+04</totfact>
</mgrwt>
</event>
<event>
 4    1  0.1352171E+004  0.2772584E+02  0.7546771E-02  0.1624679E+00
          2   -1    0    0  501    0  0.00000000000E+00  0.00000000000E+00  0.13695812543E+02  0.13695812543E+02  0.00000000000E+00 0.  1.
         -2   -1    0    0    0  501 -0.00000000000E+00 -0.00000000000E+00 -0.85856228192E+02  0.85856228192E+02  0.00000000000E+00 0.  1.
          2    1    1    2  502    0 -0.24974946922E+02  0.12040519706E+02 -0.67903742963E+01  0.28545249546E+02  0.00000000000E+00 0.  1.
         -2    1    1    2    0  502  0.24974946922E+02 -0.12040519706E+02 -0.65370041352E+02  0.71006791189E+02  0.00000000000E+00 0.  1.
<mgrwt>
<rscale>  2 0.27725838E+02</rscale>
<asrwt>0</asrwt>
<pdfrwt beam="1">  1        2 0.21070481E-02 0.27725838E+02</pdfrwt>
<pdfrwt beam="2">  1       -2 0.13208650E-01 0.27725838E+02</pdfrwt>
<totfact> 0.13733679E+05</totfact>
</mgrwt>
</event>
<event>
 4    1  0.1352171E+004  0.3137194E+02  0.7546771E-02  0.1583401E+00
          2   -1    0    0  501    0  0.00000000000E+00  0.00000000000E+00  0.26110703547E+04  0.26110703547E+04  0.00000000000E+00 0.  1.
         -2   -1    0    0    0  501 -0.00000000000E+00 -0.00000000000E+00 -0.38933754676E+00  0.38933754676E+00  0.00000000000E+00 0.  1.
          2    1    1    2  502    0 -0.28479222368E+02  0.13157954880E+02  0.10722710744E+04  0.10727299077E+04  0.00000000000E+00 0.  1.
         -2    1    1    2    0  502  0.28479222368E+02 -0.13157954880E+02  0.15384099427E+04  0.15387297845E+04  0.00000000000E+00 0.  1.
<mgrwt>
<rscale>  2 0.31371944E+02</rscale>
<asrwt>0</asrwt>
<pdfrwt beam="1">  1        2 0.40168911E+00 0.31371944E+02</pdfrwt>
<pdfrwt beam="2">  1       -2 0.59900175E-04 0.31371944E+02</pdfrwt>
<totfact> 0.31315772E+05</totfact>
</mgrwt>
</event>
<event>
 4    1  0.1352171E+004  0.2207517E+02  0.7546771E-02  0.1706955E+00
          2   -1    0    0  501    0  0.00000000000E+00  0.00000000000E+00  0.16091861088E+04  0.16091861088E+04  0.00000000000E+00 0.  1.
         -2   -1    0    0    0  501 -0.00000000000E+00 -0.00000000000E+00 -0.79898352559E+01  0.79898352559E+01  0.00000000000E+00 0. -1.
          2    1    1    2  502    0  0.22073074445E+02  0.30449211048E+00  0.15937144669E+04  0.15938673456E+04  0.00000000000E+00 0.  1.
         -2    1    1    2    0  502 -0.22073074445E+02 -0.30449211048E+00  0.74818066154E+01  0.23308598437E+02  0.00000000000E+00 0. -1.
<mgrwt>
<rscale>  2 0.22075175E+02</rscale>
<asrwt>0</asrwt>
<pdfrwt beam="1">  1        2 0.24756684E+00 0.22075175E+02</pdfrwt>
<pdfrwt beam="2">  1       -2 0.12292067E-02 0.22075175E+02</pdfrwt>
<totfact> 0.15667980E+04</totfact>
</mgrwt>
</event>
<event>
 4    1  0.1352171E+004  0.2564496E+02  0.7546771E-02  0.1651907E+00
          2   -1    0    0  501    0  0.00000000000E+00  0.00000000000E+00  0.53112879721E+03  0.53112879721E+03  0.00000000000E+00 0.  1.
         -2   -1    0    0    0  501 -0.00000000000E+00 -0.00000000000E+00 -0.31648389905E+01  0.31648389905E+01  0.00000000000E+00 0.  1.
          2    1    1    2  502    0  0.25214716013E+02  0.46778236688E+01  0.47241670169E+03  0.47311225304E+03  0.00000000000E+00 0.  1.
         -2    1    1    2    0  502 -0.25214716013E+02 -0.46778236688E+01  0.55547256529E+02  0.61181383163E+02  0.00000000000E+00 0.  1.
<mgrwt>
<rscale>  2 0.25644959E+02</rscale>
<asrwt>0</asrwt>
<pdfrwt beam="1">  1        2 0.81712051E-01 0.25644959E+02</pdfrwt>
<pdfrwt beam="2">  1       -2 0.48689873E-03 0.25644959E+02</pdfrwt>
<totfact> 0.22712388E+05</totfact>
</mgrwt>
</event>
<event>
 4    1  0.1352171E+004  0.2173842E+02  0.7546771E-02  0.1712816E+00
          2   -1    0    0  501    0  0.00000000000E+00  0.00000000000E+00  0.23723590750E+03  0.23723590750E+03  0.00000000000E+00 0. -1.
         -2   -1    0    0    0  501 -0.00000000000E+00 -0.00000000000E+00 -0.31372979758E+01  0.31372979758E+01  0.00000000000E+00 0.  1.
          2    1    1    2  502    0 -0.19356900865E+02 -0.98928874727E+01  0.18966817433E+03  0.19090986142E+03  0.00000000000E+00 0. -1.
         -2    1    1    2    0  502  0.19356900865E+02  0.98928874727E+01  0.44430435192E+02  0.49463344054E+02  0.00000000000E+00 0.  1.
<mgrwt>
<rscale>  2 0.21738418E+02</rscale>
<asrwt>0</asrwt>
<pdfrwt beam="1">  1        2 0.36497818E-01 0.21738418E+02</pdfrwt>
<pdfrwt beam="2">  1       -2 0.48266142E-03 0.21738418E+02</pdfrwt>
<totfact> 0.48883484E+05</totfact>
</mgrwt>
</event>
<event>
 4    1  0.1352171E+004  0.2249139E+02  0.7546771E-02  0.1699890E+00
          2   -1    0    0  501    0  0.00000000000E+00  0.00000000000E+00  0.17770626285E+03  0.17770626285E+03  0.00000000000E+00 0. -1.
         -2   -1    0    0    0  501 -0.00000000000E+00 -0.00000000000E+00 -0.53231053623E+01  0.53231053623E+01  0.00000000000E+00 0. -1.
          2    1    1    2  502    0 -0.52083135640E+00  0.22485360985E+02  0.14861188266E+03  0.15030420617E+03  0.00000000000E+00 0. -1.
         -2    1    1    2    0  502  0.52083135640E+00 -0.22485360985E+02  0.23771274827E+02  0.32725162044E+02  0.00000000000E+00 0. -1.
<mgrwt>
<rscale>  2 0.22491392E+02</rscale>
<asrwt>0</asrwt>
<pdfrwt beam="1">  1        2 0.27339420E-01 0.22491392E+02</pdfrwt>
<pdfrwt beam="2">  1       -2 0.81893942E-03 0.22491392E+02</pdfrwt>
<totfact> 0.32497601E+05</totfact>
</mgrwt>
</event>
<event>
 4    1  0.1352171E+004  0.2492196E+02  0.7546771E-02  0.1662125E+00
         -2   -1    0    0    0  501 -0.00000000000E+00  0.00000000000E+00  0.29074983158E+00  0.29074983158E+00  0.00000000000E+00 0.  1.
          2   -1    0    0  501    0  0.00000000000E+00 -0.00000000000E+00 -0.22155739078E+04  0.22155739078E+04  0.00000000000E+00 0. -1.
          2    1    1    2  502    0 -0.24832541147E+02  0.21092427187E+01 -0.13173275315E+04  0.13175632543E+04  0.00000000000E+00 0. -1.
         -2    1    1    2    0  502  0.24832541147E+02 -0.21092427187E+01 -0.89795562649E+03  0.89830140329E+03  0.00000000000E+00 0.  1.
<mgrwt>
<rscale>  2 0.24921958E+02</rscale>
<asrwt>0</asrwt>
<pdfrwt beam="2">  1        2 0.34086670E+00 0.24921958E+02</pdfrwt>
<pdfrwt beam="1">  1       -2 0.44729539E-04 0.24921958E+02</pdfrwt>
<totfact> 0.68522658E+05</totfact>
</mgrwt>
</event>
<event>
 4    1  0.1352171E+004  0.3255509E+02  0.7546771E-02  0.1571449E+00
          2   -1    0    0  501    0  0.00000000000E+00  0.00000000000E+00  0.59637082325E+02  0.59637082325E+02  0.00000000000E+00 0.  1.
         -2   -1    0    0    0  501 -0.00000000000E+00 -0.00000000000E+00 -0.46502262569E+03  0.46502262569E+03  0.00000000000E+00 0.  1.
          2    1    1    2  502    0 -0.32330395718E+02  0.38183138029E+01  0.54575630247E+02  0.63547882926E+02  0.00000000000E+00 0.  1.
         -2    1    1    2    0  502  0.32330395718E+02 -0.38183138029E+01 -0.45996117361E+03  0.46111182509E+03  0.00000000000E+00 0.  1.
<mgrwt>
<rscale>  2 0.32555092E+02</rscale>
<asrwt>0</asrwt>
<pdfrwt beam="1">  1        2 0.91749356E-02 0.32555092E+02</pdfrwt>
<pdfrwt beam="2">  1       -2 0.71541943E-01 0.32555092E+02</pdfrwt>
<totfact> 0.11540602E+03</totfact>
</mgrwt>
</event>
<event>
 4    1  0.1352171E+004  0.2046358E+02  0.7546771E-02  0.1736263E+00
          2   -1    0    0  501    0  0.00000000000E+00  0.00000000000E+00  0.94734949518E+01  0.94734949518E+01  0.00000000000E+00 0.  1.
         -2   -1    0    0    0  501 -0.00000000000E+00 -0.00000000000E+00 -0.78821787275E+02  0.78821787275E+02  0.00000000000E+00 0.  1.
          2    1    1    2  502    0 -0.19461725237E+02  0.63244990628E+01 -0.54164898212E+01  0.21168287592E+02  0.00000000000E+00 0.  1.
         -2    1    1    2    0  502  0.19461725237E+02 -0.63244990628E+01 -0.63931802502E+02  0.67126994635E+02  0.00000000000E+00 0.  1.
<mgrwt>
<rscale>  2 0.20463578E+02</rscale>
<asrwt>0</asrwt>
<pdfrwt beam="1">  1        2 0.14574608E-02 0.20463578E+02</pdfrwt>
<pdfrwt beam="2">  1       -2 0.12126428E-01 0.20463578E+02</pdfrwt>
<totfact> 0.23079805E+05</totfact>
</mgrwt>
</event>
<event>
 4    1  0.1352171E+004  0.2035442E+02  0.7546771E-02  0.1738370E+00
         -2   -1    0    0    0  501 -0.00000000000E+00  0.00000000000E+00  0.50159909631E+01  0.50159909631E+01  0.00000000000E+00 0. -1.
          2   -1    0    0  501    0  0.00000000000E+00 -0.00000000000E+00 -0.28318277483E+03  0.28318277483E+03  0.00000000000E+00 0. -1.
          2    1    1    2  502    0  0.19199319167E+02  0.67593306668E+01 -0.26036068728E+03  0.26115510696E+03  0.00000000000E+00 0. -1.
         -2    1    1    2    0  502 -0.19199319167E+02 -0.67593306668E+01 -0.17806096577E+02  0.27043658829E+02  0.00000000000E+00 0. -1.
<mgrwt>
<rscale>  2 0.20354420E+02</rscale>
<asrwt>0</asrwt>
<pdfrwt beam="2">  1        2 0.43566588E-01 0.20354420E+02</pdfrwt>
<pdfrwt beam="1">  1       -2 0.77169079E-03 0.20354420E+02</pdfrwt>
<totfact> 0.21495259E+05</totfact>
</mgrwt>
</event>
<event>
 4    1  0.1352171E+004  0.2670058E+02  0.7546771E-02  0.1637712E+00
          2   -1    0    0  501    0  0.00000000000E+00  0.00000000000E+00  0.74503931867E+02  0.74503931867E+02  0.00000000000E+00 0. -1.
         -2   -1    0    0    0  501 -0.00000000000E+00 -0.00000000000E+00 -0.46592473137E+03  0.46592473137E+03  0.00000000000E+00 0.  1.
          2    1    1    2  502    0 -0.24322066896E+02  0.11016273159E+02  0.71714780000E+02  0.76524054277E+02  0.00000000000E+00 0. -1.
         -2    1    1    2    0  502  0.24322066896E+02 -0.11016273159E+02 -0.46313557950E+03  0.46390460896E+03  0.00000000000E+00 0.  1.
<mgrwt>
<rscale>  2 0.26700584E+02</rscale>
<asrwt>0</asrwt>
<pdfrwt beam="1">  1        2 0.11462143E-01 0.26700584E+02</pdfrwt>
<pdfrwt beam="2">  1       -2 0.71680729E-01 0.26700584E+02</pdfrwt>
<totfact> 0.87313584E+02</totfact>
</mgrwt>
</event>
<event>
 4    1  0.1352171E+004  0.8131004E+02  0.7546771E-02  0.1325374E+00
          2   -1    0    0  501    0  0.00000000000E+00  0.00000000000E+00  0.94103103806E+03  0.94103103806E+03  0.00000000000E+00 0.  1.
         -2   -1    0    0    0  501 -0.00000000000E+00 -0.00000000000E+00 -0.65383323219E+02  0.65383323219E+02  0.00000000000E+00 0.  1.
          2    1    1    2  502    0  0.10157496128E+02  0.80673090323E+02  0.91322743630E+03  0.91684004746E+03  0.00000000000E+00 0.  1.
         -2    1    1    2    0  502 -0.10157496128E+02 -0.80673090323E+02 -0.37579721459E+02  0.89574313812E+02  0.00000000000E+00 0.  1.
<mgrwt>
<rscale>  2 0.81310038E+02</rscale>
<asrwt>0</asrwt>
<pdfrwt beam="1">  1        2 0.14477400E+00 0.81310038E+02</pdfrwt>
<pdfrwt beam="2">  1       -2 0.10058973E-01 0.81310038E+02</pdfrwt>
<totfact> 0.18478292E+03</totfact>
</mgrwt>
</event>
<event>
 4    1  0.1352171E+004  0.2169621E+02  0.7546771E-02  0.1713559E+00
          2   -1    0    0  501    0  0.00000000000E+00  0.00000000000E+00  0.34706746397E+03  0.34706746397E+03  0.00000000000E+00 0.  1.
         -2   -1    0    0    0  501 -0.00000000000E+00 -0.00000000000E+00 -0.24293139711E+01  0.24293139711E+01  0.00000000000E+00 0.  1.
          2    1    1    2  502    0 -0.20755793146E+02 -0.63184259734E+01  0.28845732991E+03  0.28927211520E+03  0.00000000000E+00 0.  1.
         -2    1    1    2    0  502  0.20755793146E+02  0.63184259734E+01  0.56180820086E+02  0.60224662734E+02  0.00000000000E+00 0.  1.
<mgrwt>
<rscale>  2 0.21696208E+02</rscale>
<asrwt>0</asrwt>
<pdfrwt beam="1">  1        2 0.53394955E-01 0.21696208E+02</pdfrwt>
<pdfrwt beam="2">  1       -2 0.37374089E-03 0.21696208E+02</pdfrwt>
<totfact> 0.47246611E+05</totfact>
</mgrwt>
</event>
<event>
 4    1  0.1352171E+004  0.2274998E+02  0.7546771E-02  0.1695595E+00
          2   -1    0    0  501    0  0.00000000000E+00  0.00000000000E+00  0.90926007038E+03  0.90926007038E+03  0.00000000000E+00 0.  1.
         -2   -1    0    0    0  501 -0.00000000000E+00 -0.00000000000E+00 -0.20803942271E+02  0.20803942271E+02  0.00000000000E+00 0.  1.
          2    1    1    2  502    0  0.18791544501E+02 -0.12823393954E+02  0.90285413245E+03  0.90314071221E+03  0.00000000000E+00 0.  1.
         -2    1    1    2    0  502 -0.18791544501E+02  0.12823393954E+02 -0.14398004343E+02  0.26923300435E+02  0.00000000000E+00 0.  1.
<mgrwt>
<rscale>  2 0.22749980E+02</rscale>
<asrwt>0</asrwt>
<pdfrwt beam="1">  1        2 0.13988613E+00 0.22749980E+02</pdfrwt>
<pdfrwt beam="2">  1       -2 0.32006072E-02 0.22749980E+02</pdfrwt>
<totfact> 0.94784003E+03</totfact>
</mgrwt>
</event>
<event>
 4    1  0.1352171E+004  0.6553993E+02  0.7546771E-02  0.1375952E+00
          2   -1    0    0  501    0  0.00000000000E+00  0.00000000000E+00  0.56942436515E+03  0.56942436515E+03  0.00000000000E+00 0. -1.
         -2   -1    0    0    0  501 -0.00000000000E+00 -0.00000000000E+00 -0.28119634756E+02  0.28119634756E+02  0.00000000000E+00 0.  1.
          2    1    1    2  502    0 -0.43574641459E+02 -0.48956442197E+02  0.52622620615E+03  0.53029190325E+03  0.00000000000E+00 0. -1.
         -2    1    1    2    0  502  0.43574641459E+02  0.48956442197E+02  0.15078524238E+02  0.67252096652E+02  0.00000000000E+00 0.  1.
<mgrwt>
<rscale>  2 0.65539931E+02</rscale>
<asrwt>0</asrwt>
<pdfrwt beam="1">  1        2 0.87603740E-01 0.65539931E+02</pdfrwt>
<pdfrwt beam="2">  1       -2 0.43260981E-02 0.65539931E+02</pdfrwt>
<totfact> 0.11720303E+04</totfact>
</mgrwt>
</event>
<event>
 4    1  0.1352171E+004  0.2659294E+02  0.7546771E-02  0.1639123E+00
         -2   -1    0    0    0  501 -0.00000000000E+00  0.00000000000E+00  0.27074043500E+01  0.27074043500E+01  0.00000000000E+00 0.  1.
          2   -1    0    0  501    0  0.00000000000E+00 -0.00000000000E+00 -0.33688491253E+03  0.33688491253E+03  0.00000000000E+00 0.  1.
          2    1    1    2  502    0  0.55437140100E+01 -0.26008688343E+02 -0.24756736723E+03  0.24899153792E+03  0.00000000000E+00 0.  1.
         -2    1    1    2    0  502 -0.55437140100E+01  0.26008688343E+02 -0.86610140947E+02  0.90600778966E+02  0.00000000000E+00 0.  1.
<mgrwt>
<rscale>  2 0.26592943E+02</rscale>
<asrwt>0</asrwt>
<pdfrwt beam="2">  1        2 0.51828398E-01 0.26592943E+02</pdfrwt>
<pdfrwt beam="1">  1       -2 0.41652415E-03 0.26592943E+02</pdfrwt>
<totfact> 0.44650075E+05</totfact>
</mgrwt>
</event>
<event>
 4    1  0.1352171E+004  0.2985007E+02  0.7546771E-02  0.1599752E+00
         -2   -1    0    0    0  501 -0.00000000000E+00  0.00000000000E+00  0.15171070832E+02  0.15171070832E+02  0.00000000000E+00 0.  1.
          2   -1    0    0  501    0  0.00000000000E+00 -0.00000000000E+00 -0.43155846538E+03  0.43155846538E+03  0.00000000000E+00 0.  1.
          2    1    1    2  502    0  0.29144258848E+02 -0.64527960186E+01 -0.41580369051E+03  0.41687376440E+03  0.00000000000E+00 0.  1.
         -2    1    1    2    0  502 -0.29144258848E+02  0.64527960186E+01 -0.58370403730E+00  0.29855771815E+02  0.00000000000E+00 0.  1.
<mgrwt>
<rscale>  2 0.29850065E+02</rscale>
<asrwt>0</asrwt>
<pdfrwt beam="2">  1        2 0.66393604E-01 0.29850065E+02</pdfrwt>
<pdfrwt beam="1">  1       -2 0.23340111E-02 0.29850065E+02</pdfrwt>
<totfact> 0.34090124E+04</totfact>
</mgrwt>
</event>
<event>
 4    1  0.1352171E+004  0.2924332E+02  0.7546771E-02  0.1606607E+00
          2   -1    0    0  501    0  0.00000000000E+00  0.00000000000E+00  0.60286710357E+03  0.60286710357E+03  0.00000000000E+00 0.  1.
         -2   -1    0    0    0  501 -0.00000000000E+00 -0.00000000000E+00 -0.15413660984E+01  0.15413660984E+01  0.00000000000E+00 0. -1.
          2    1    1    2  502    0  0.28251101788E+02 -0.75529292124E+01  0.38598279463E+03  0.38708899396E+03  0.00000000000E+00 0.  1.
         -2    1    1    2    0  502 -0.28251101788E+02  0.75529292124E+01  0.21534294284E+03  0.21731947571E+03  0.00000000000E+00 0. -1.
<mgrwt>
<rscale>  2 0.29243315E+02</rscale>
<asrwt>0</asrwt>
<pdfrwt beam="1">  1        2 0.92748597E-01 0.29243315E+02</pdfrwt>
<pdfrwt beam="2">  1       -2 0.23713373E-03 0.29243315E+02</pdfrwt>
<totfact> 0.54094937E+05</totfact>
</mgrwt>
</event>
<event>
 4    1  0.1352171E+004  0.2115658E+02  0.7546771E-02  0.1723260E+00
          2   -1    0    0  501    0  0.00000000000E+00  0.00000000000E+00  0.52470674750E+02  0.52470674750E+02  0.00000000000E+00 0. -1.
         -2   -1    0    0    0  501 -0.00000000000E+00 -0.00000000000E+00 -0.56743666929E+02  0.56743666929E+02  0.00000000000E+00 0. -1.
          2    1    1    2  502    0 -0.17665897957E+02  0.11641176875E+02  0.48198938158E+02  0.52637805703E+02  0.00000000000E+00 0. -1.
         -2    1    1    2    0  502  0.17665897957E+02 -0.11641176875E+02 -0.52471930338E+02  0.56576535976E+02  0.00000000000E+00 0. -1.
<mgrwt>
<rscale>  2 0.21156582E+02</rscale>
<asrwt>0</asrwt>
<pdfrwt beam="1">  1        2 0.80724115E-02 0.21156582E+02</pdfrwt>
<pdfrwt beam="2">  1       -2 0.87297949E-02 0.21156582E+02</pdfrwt>
<totfact> 0.45442586E+04</totfact>
</mgrwt>
</event>
<event>
 4    1  0.1352171E+004  0.2288205E+02  0.7546771E-02  0.1693429E+00
         -2   -1    0    0    0  501 -0.00000000000E+00  0.00000000000E+00  0.63626178240E+02  0.63626178240E+02  0.00000000000E+00 0. -1.
          2   -1    0    0  501    0  0.00000000000E+00 -0.00000000000E+00 -0.29724882695E+03  0.29724882695E+03  0.00000000000E+00 0.  1.
          2    1    1    2  502    0 -0.21294847736E+01 -0.22782743621E+02 -0.29473365267E+03  0.29562055769E+03  0.00000000000E+00 0.  1.
         -2    1    1    2    0  502  0.21294847736E+01  0.22782743621E+02  0.61111003965E+02  0.65254447495E+02  0.00000000000E+00 0. -1.
<mgrwt>
<rscale>  2 0.22882048E+02</rscale>
<asrwt>0</asrwt>
<pdfrwt beam="2">  1        2 0.45730589E-01 0.22882048E+02</pdfrwt>
<pdfrwt beam="1">  1       -2 0.97886427E-02 0.22882048E+02</pdfrwt>
<totfact> 0.61143994E+03</totfact>
</mgrwt>
</event>
<event>
 4    1  0.1352171E+004  0.3973633E+02  0.7546771E-02  0.1510161E+00
         -2   -1    0    0    0  501 -0.00000000000E+00  0.00000000000E+00  0.19737841189E+02  0.19737841189E+02  0.00000000000E+00 0.  1.
          2   -1    0    0  501    0  0.00000000000E+00 -0.00000000000E+00 -0.13457284196E+03  0.13457284196E+03  0.00000000000E+00 0. -1.
          2    1    1    2  502    0  0.20433352988E+02  0.34080111885E+02 -0.10655193062E+03  0.11372022625E+03  0.00000000000E+00 0. -1.
         -2    1    1    2    0  502 -0.20433352988E+02 -0.34080111885E+02 -0.82830701608E+01  0.40590456905E+02  0.00000000000E+00 0.  1.
<mgrwt>
<rscale>  2 0.39736330E+02</rscale>
<asrwt>0</asrwt>
<pdfrwt beam="2">  1        2 0.20703514E-01 0.39736330E+02</pdfrwt>
<pdfrwt beam="1">  1       -2 0.30365909E-02 0.39736330E+02</pdfrwt>
<totfact> 0.81838466E+04</totfact>
</mgrwt>
</event>
<event>
 4    1  0.1352171E+004  0.2033800E+02  0.7546771E-02  0.1738689E+00
          2   -1    0    0  501    0  0.00000000000E+00  0.00000000000E+00  0.45216108509E+01  0.45216108509E+01  0.00000000000E+00 0.  1.
         -2   -1    0    0    0  501 -0.00000000000E+00 -0.00000000000E+00 -0.11591248708E+03  0.11591248708E+03  0.00000000000E+00 0.  1.
          2    1    1    2  502    0 -0.14630852045E+02 -0.14127016580E+02 -0.28048746310E+02  0.34646307142E+02  0.00000000000E+00 0.  1.
         -2    1    1    2    0  502  0.14630852045E+02  0.14127016580E+02 -0.83342129921E+02  0.85787790791E+02  0.00000000000E+00 0.  1.
<mgrwt>
<rscale>  2 0.20338005E+02</rscale>
<asrwt>0</asrwt>
<pdfrwt beam="1">  1        2 0.69563251E-03 0.20338005E+02</pdfrwt>
<pdfrwt beam="2">  1       -2 0.17832688E-01 0.20338005E+02</pdfrwt>
<totfact> 0.33107450E+05</totfact>
</mgrwt>
</event>
<event>
 4    1  0.1352171E+004  0.2305880E+02  0.7546771E-02  0.1690559E+00
          2   -1    0    0  501    0  0.00000000000E+00  0.00000000000E+00  0.14935912760E+02  0.14935912760E+02  0.00000000000E+00 0. -1.
         -2   -1    0    0    0  501 -0.00000000000E+00 -0.00000000000E+00 -0.37427508338E+02  0.37427508338E+02  0.00000000000E+00 0. -1.
          2    1    1    2  502    0 -0.22805004090E+02 -0.34117842007E+01 -0.54593522210E+01  0.23696265732E+02  0.00000000000E+00 0. -1.
         -2    1    1    2    0  502  0.22805004090E+02  0.34117842007E+01 -0.17032243357E+02  0.28667155365E+02  0.00000000000E+00 0. -1.
<mgrwt>
<rscale>  2 0.23058805E+02</rscale>
<asrwt>0</asrwt>
<pdfrwt beam="1">  1        2 0.22978327E-02 0.23058805E+02</pdfrwt>
<pdfrwt beam="2">  1       -2 0.57580782E-02 0.23058805E+02</pdfrwt>
<totfact> 0.39857993E+05</totfact>
</mgrwt>
</event>
<event>
 4    1  0.1352171E+004  0.3334083E+02  0.7546771E-02  0.1563848E+00
          2   -1    0    0  501    0  0.00000000000E+00  0.00000000000E+00  0.47155512877E+03  0.47155512877E+03  0.00000000000E+00 0. -1.
         -2   -1    0    0    0  501 -0.00000000000E+00 -0.00000000000E+00 -0.18218332093E+03  0.18218332093E+03  0.00000000000E+00 0.  1.
          2    1    1    2  502    0 -0.32125641560E+02  0.89193154141E+01  0.46943350909E+03  0.47061601172E+03  0.00000000000E+00 0. -1.
         -2    1    1    2    0  502  0.32125641560E+02 -0.89193154141E+01 -0.18006170126E+03  0.18312243798E+03  0.00000000000E+00 0.  1.
<mgrwt>
<rscale>  2 0.33340831E+02</rscale>
<asrwt>0</asrwt>
<pdfrwt beam="1">  1        2 0.72546942E-01 0.33340831E+02</pdfrwt>
<pdfrwt beam="2">  1       -2 0.28028203E-01 0.33340831E+02</pdfrwt>
<totfact> 0.74831297E+02</totfact>
</mgrwt>
</event>
<event>
 4    1  0.1352171E+004  0.2539256E+02  0.7546771E-02  0.1655427E+00
         -2   -1    0    0    0  501 -0.00000000000E+00  0.00000000000E+00  0.26117685345E+01  0.26117685345E+01  0.00000000000E+00 0.  1.
          2   -1    0    0  501    0  0.00000000000E+00 -0.00000000000E+00 -0.29593810849E+03  0.29593810849E+03  0.00000000000E+00 0.  1.
          2    1    1    2  502    0 -0.24258238986E+02  0.75046750357E+01 -0.20744316795E+03  0.20899150757E+03  0.00000000000E+00 0.  1.
         -2    1    1    2    0  502  0.24258238986E+02 -0.75046750357E+01 -0.85883172006E+02  0.89558369458E+02  0.00000000000E+00 0.  1.
<mgrwt>
<rscale>  2 0.25392564E+02</rscale>
<asrwt>0</asrwt>
<pdfrwt beam="2">  1        2 0.45528947E-01 0.25392564E+02</pdfrwt>
<pdfrwt beam="1">  1       -2 0.40181048E-03 0.25392564E+02</pdfrwt>
<totfact> 0.52579253E+05</totfact>
</mgrwt>
</event>
<event>
 4    1  0.1352171E+004  0.2009041E+02  0.7546771E-02  0.1743536E+00
          2   -1    0    0  501    0  0.00000000000E+00  0.00000000000E+00  0.12190358721E+03  0.12190358721E+03  0.00000000000E+00 0. -1.
         -2   -1    0    0    0  501 -0.00000000000E+00 -0.00000000000E+00 -0.13810237825E+03  0.13810237825E+03  0.00000000000E+00 0. -1.
          2    1    1    2  502    0  0.18889887178E+02 -0.68408120292E+01  0.12033571729E+03  0.12200126804E+03  0.00000000000E+00 0. -1.
         -2    1    1    2    0  502 -0.18889887178E+02  0.68408120292E+01 -0.13653450833E+03  0.13800469743E+03  0.00000000000E+00 0. -1.
<mgrwt>
<rscale>  2 0.20090409E+02</rscale>
<asrwt>0</asrwt>
<pdfrwt beam="1">  1        2 0.18754398E-01 0.20090409E+02</pdfrwt>
<pdfrwt beam="2">  1       -2 0.21246520E-01 0.20090409E+02</pdfrwt>
<totfact> 0.44874575E+03</totfact>
</mgrwt>
</event>
<event>
 4    1  0.1352171E+004  0.2197918E+02  0.7546771E-02  0.1708612E+00
         -2   -1    0    0    0  501 -0.00000000000E+00  0.00000000000E+00  0.48105353313E+00  0.48105353313E+00  0.00000000000E+00 0.  1.
          2   -1    0    0  501    0  0.00000000000E+00 -0.00000000000E+00 -0.10044285730E+04  0.10044285730E+04  0.00000000000E+00 0.  1.
          2    1    1    2  502    0 -0.10654394270E+01 -0.21953343499E+02 -0.50918266014E+03  0.50965681183E+03  0.00000000000E+00 0.  1.
         -2    1    1    2    0  502  0.10654394270E+01  0.21953343499E+02 -0.49476485931E+03  0.49525281469E+03  0.00000000000E+00 0.  1.
<mgrwt>
<rscale>  2 0.21979182E+02</rscale>
<asrwt>0</asrwt>
<pdfrwt beam="2">  1        2 0.15452709E+00 0.21979182E+02</pdfrwt>
<pdfrwt beam="1">  1       -2 0.74008419E-04 0.21979182E+02</pdfrwt>
<totfact> 0.13024125E+06</totfact>
</mgrwt>
</event>
<event>
 4    1  0.1352171E+004  0.2817533E+02  0.7546771E-02  0.1619180E+00
          2   -1    0    0  501    0  0.00000000000E+00  0.00000000000E+00  0.78337510265E+01  0.78337510265E+01  0.00000000000E+00 0.  1.
         -2   -1    0    0    0  501 -0.00000000000E+00 -0.00000000000E+00 -0.27369424468E+03  0.27369424468E+03  0.00000000000E+00 0.  1.
          2    1    1    2  502    0  0.22658265393E+02 -0.16746711593E+02 -0.21225031692E+02  0.35275364068E+02  0.00000000000E+00 0.  1.
         -2    1    1    2    0  502 -0.22658265393E+02  0.16746711593E+02 -0.24463546196E+03  0.24625263163E+03  0.00000000000E+00 0.  1.
<mgrwt>
<rscale>  2 0.28175332E+02</rscale>
<asrwt>0</asrwt>
<pdfrwt beam="1">  1        2 0.12051926E-02 0.28175332E+02</pdfrwt>
<pdfrwt beam="2">  1       -2 0.42106803E-01 0.28175332E+02</pdfrwt>
<totfact> 0.41076563E+04</totfact>
</mgrwt>
</event>
<event>
 4    1  0.1352171E+004  0.3419018E+02  0.7546771E-02  0.1555912E+00
          2   -1    0    0  501    0  0.00000000000E+00  0.00000000000E+00  0.28412415091E+03  0.28412415091E+03  0.00000000000E+00 0.  1.
         -2   -1    0    0    0  501 -0.00000000000E+00 -0.00000000000E+00 -0.87050656261E+01  0.87050656261E+01  0.00000000000E+00 0.  1.
          2    1    1    2  502    0 -0.15875038787E+02 -0.30281205128E+02  0.24403605546E+03  0.24641948909E+03  0.00000000000E+00 0.  1.
         -2    1    1    2    0  502  0.15875038787E+02  0.30281205128E+02  0.31383029827E+02  0.46409727446E+02  0.00000000000E+00 0.  1.
<mgrwt>
<rscale>  2 0.34190178E+02</rscale>
<asrwt>0</asrwt>
<pdfrwt beam="1">  1        2 0.43711401E-01 0.34190178E+02</pdfrwt>
<pdfrwt beam="2">  1       -2 0.13392411E-02 0.34190178E+02</pdfrwt>
<totfact> 0.11484428E+05</totfact>
</mgrwt>
</event>
<event>
 4    1  0.1352171E+004  0.4709312E+02  0.7546771E-02  0.1461682E+00
         -2   -1    0    0    0  501 -0.00000000000E+00  0.00000000000E+00  0.46442083655E+01  0.46442083655E+01  0.00000000000E+00 0. -1.
          2   -1    0    0  501    0  0.00000000000E+00 -0.00000000000E+00 -0.18441942519E+04  0.18441942519E+04  0.00000000000E+00 0. -1.
          2    1    1    2  502    0 -0.44660764855E+02 -0.14939144254E+02 -0.17155606790E+04  0.17162069238E+04  0.00000000000E+00 0. -1.
         -2    1    1    2    0  502  0.44660764855E+02  0.14939144254E+02 -0.12398936450E+03  0.13263153644E+03  0.00000000000E+00 0. -1.
<mgrwt>
<rscale>  2 0.47093120E+02</rscale>
<asrwt>0</asrwt>
<pdfrwt beam="2">  1        2 0.28372182E+00 0.47093120E+02</pdfrwt>
<pdfrwt beam="1">  1       -2 0.71449453E-03 0.47093120E+02</pdfrwt>
<totfact> 0.27610882E+04</totfact>
</mgrwt>
</event>
<event>
 4    1  0.1352171E+004  0.3729120E+02  0.7546771E-02  0.1529147E+00
          2   -1    0    0  501    0  0.00000000000E+00  0.00000000000E+00  0.73451892865E+02  0.73451892865E+02  0.00000000000E+00 0. -1.
         -2   -1    0    0    0  501 -0.00000000000E+00 -0.00000000000E+00 -0.25740242000E+02  0.25740242000E+02  0.00000000000E+00 0. -1.
          2    1    1    2  502    0  0.36318004618E+02 -0.84638254102E+01  0.49361683454E+02  0.61864445309E+02  0.00000000000E+00 0. -1.
         -2    1    1    2    0  502 -0.36318004618E+02  0.84638254102E+01 -0.16500325892E+01  0.37327689556E+02  0.00000000000E+00 0. -1.
<mgrwt>
<rscale>  2 0.37291203E+02</rscale>
<asrwt>0</asrwt>
<pdfrwt beam="1">  1        2 0.11300291E-01 0.37291203E+02</pdfrwt>
<pdfrwt beam="2">  1       -2 0.39600372E-02 0.37291203E+02</pdfrwt>
<totfact> 0.10900080E+05</totfact>
</mgrwt>
</event>
<event>
 4    1  0.1352171E+004  0.2133817E+02  0.7546771E-02  0.1719956E+00
         -2   -1    0    0    0  501 -0.00000000000E+00  0.00000000000E+00  0.64325169034E+00  0.64325169034E+00  0.00000000000E+00 0.  1.
          2   -1    0    0  501    0  0.00000000000E+00 -0.00000000000E+00 -0.73211097092E+03  0.73211097092E+03  0.00000000000E+00 0. -1.
          2    1    1    2  502    0 -0.20844357417E+02  0.45640290788E+01 -0.43244629608E+03  0.43297242013E+03  0.00000000000E+00 0. -1.
         -2    1    1    2    0  502  0.20844357417E+02 -0.45640290788E+01 -0.29902142314E+03  0.29978180248E+03  0.00000000000E+00 0.  1.
<mgrwt>
<rscale>  2 0.21338172E+02</rscale>
<asrwt>0</asrwt>
<pdfrwt beam="2">  1        2 0.11263300E+00 0.21338172E+02</pdfrwt>
<pdfrwt beam="1">  1       -2 0.98961324E-04 0.21338172E+02</pdfrwt>
<totfact> 0.12728274E+06</totfact>
</mgrwt>
</event>
<event>
 4    1  0.1352171E+004  0.2449856E+02  0.7546771E-02  0.1668310E+00
         -2   -1    0    0    0  501 -0.00000000000E+00  0.00000000000E+00  0.15562416831E+02  0.15562416831E+02  0.00000000000E+00 0.  1.
          2   -1    0    0  501    0  0.00000000000E+00 -0.00000000000E+00 -0.16531996499E+03  0.16531996499E+03  0.00000000000E+00 0. -1.
          2    1    1    2  502    0 -0.97799429106E+01 -0.22461797151E+02 -0.15407134781E+03  0.15600692238E+03  0.00000000000E+00 0. -1.
         -2    1    1    2    0  502  0.97799429106E+01  0.22461797151E+02  0.43137996576E+01  0.24875459434E+02  0.00000000000E+00 0.  1.
<mgrwt>
<rscale>  2 0.24498564E+02</rscale>
<asrwt>0</asrwt>
<pdfrwt beam="2">  1        2 0.25433841E-01 0.24498564E+02</pdfrwt>
<pdfrwt beam="1">  1       -2 0.23942179E-02 0.24498564E+02</pdfrwt>
<totfact> 0.82952044E+04</totfact>
</mgrwt>
</event>
<event>
 4    1  0.1352171E+004  0.2047182E+02  0.7546771E-02  0.1736105E+00
          2   -1    0    0  501    0  0.00000000000E+00  0.00000000000E+00  0.24570301050E+01  0.24570301050E+01  0.00000000000E+00 0. -1.
         -2   -1    0    0    0  501 -0.00000000000E+00 -0.00000000000E+00 -0.25274001489E+03  0.25274001489E+03  0.00000000000E+00 0. -1.
          2    1    1    2  502    0 -0.16775905670E+02 -0.11733039637E+02 -0.52386005786E+02  0.56244011525E+02  0.00000000000E+00 0. -1.
         -2    1    1    2    0  502  0.16775905670E+02  0.11733039637E+02 -0.19789697900E+03  0.19895303347E+03  0.00000000000E+00 0. -1.
<mgrwt>
<rscale>  2 0.20471816E+02</rscale>
<asrwt>0</asrwt>
<pdfrwt beam="1">  1        2 0.37800472E-03 0.20471816E+02</pdfrwt>
<pdfrwt beam="2">  1       -2 0.38883070E-01 0.20471816E+02</pdfrwt>
<totfact> 0.19886792E+05</totfact>
</mgrwt>
</event>
<event>
 4    1  0.1352171E+004  0.2499331E+02  0.7546771E-02  0.1661098E+00
          2   -1    0    0  501    0  0.00000000000E+00  0.00000000000E+00  0.92455283333E+03  0.92455283333E+03  0.00000000000E+00 0.  1.
         -2   -1    0    0    0  501 -0.00000000000E+00 -0.00000000000E+00 -0.11935576880E+02  0.11935576880E+02  0.00000000000E+00 0. -1.
          2    1    1    2  502    0  0.11196707255E+01 -0.24968218903E+02  0.91110675433E+03  0.91144949581E+03  0.00000000000E+00 0.  1.
         -2    1    1    2    0  502 -0.11196707255E+01  0.24968218903E+02  0.15105021157E+01  0.25038914400E+02  0.00000000000E+00 0. -1.
<mgrwt>
<rscale>  2 0.24993311E+02</rscale>
<asrwt>0</asrwt>
<pdfrwt beam="1">  1        2 0.14223884E+00 0.24993311E+02</pdfrwt>
<pdfrwt beam="2">  1       -2 0.18362433E-02 0.24993311E+02</pdfrwt>
<totfact> 0.20274670E+04</totfact>
</mgrwt>
</event>
<event>
 4    1  0.1352171E+004  0.2419913E+02  0.7546771E-02  0.1672779E+00
         -2   -1    0    0    0  501 -0.00000000000E+00  0.00000000000E+00  0.22262628981E+01  0.22262628981E+01  0.00000000000E+00 0. -1.
          2   -1    0    0  501    0  0.00000000000E+00 -0.00000000000E+00 -0.27428344560E+03  0.27428344560E+03  0.00000000000E+00 0. -1.
          2    1    1    2  502    0  0.24155481952E+02  0.14526341876E+01 -0.10803753064E+03  0.11071452245E+03  0.00000000000E+00 0. -1.
         -2    1    1    2    0  502 -0.24155481952E+02 -0.14526341876E+01 -0.16401965206E+03  0.16579518604E+03  0.00000000000E+00 0. -1.
<mgrwt>
<rscale>  2 0.24199133E+02</rscale>
<asrwt>0</asrwt>
<pdfrwt beam="2">  1        2 0.42197430E-01 0.24199133E+02</pdfrwt>
<pdfrwt beam="1">  1       -2 0.34250218E-03 0.24199133E+02</pdfrwt>
<totfact> 0.69190808E+05</totfact>
</mgrwt>
</event>
<event>
 4    1  0.1352171E+004  0.2068263E+02  0.7546771E-02  0.1732084E+00
          2   -1    0    0  501    0  0.00000000000E+00  0.00000000000E+00  0.77238974364E+03  0.77238974364E+03  0.00000000000E+00 0.  1.
         -2   -1    0    0    0  501 -0.00000000000E+00 -0.00000000000E+00 -0.10264552237E+02  0.10264552237E+02  0.00000000000E+00 0.  1.
          2    1    1    2  502    0  0.11534619773E+02  0.17167515932E+02  0.76168625834E+03  0.76196701189E+03  0.00000000000E+00 0.  1.
         -2    1    1    2    0  502 -0.11534619773E+02 -0.17167515932E+02  0.43893305833E+00  0.20687283988E+02  0.00000000000E+00 0.  1.
<mgrwt>
<rscale>  2 0.20682627E+02</rscale>
<asrwt>0</asrwt>
<pdfrwt beam="1">  1        2 0.11882915E+00 0.20682627E+02</pdfrwt>
<pdfrwt beam="2">  1       -2 0.15791625E-02 0.20682627E+02</pdfrwt>
<totfact> 0.29755229E+04</totfact>
</mgrwt>
</event>
<event>
 4    1  0.1352171E+004  0.3016683E+02  0.7546771E-02  0.1596252E+00
         -2   -1    0    0    0  501 -0.00000000000E+00  0.00000000000E+00  0.29550656558E+02  0.29550656558E+02  0.00000000000E+00 0.  1.
          2   -1    0    0  501    0  0.00000000000E+00 -0.00000000000E+00 -0.33461979652E+02  0.33461979652E+02  0.00000000000E+00 0. -1.
          2    1    1    2  502    0 -0.28068237014E+02 -0.11054943127E+02 -0.10848945682E+02  0.32058342424E+02  0.00000000000E+00 0. -1.
         -2    1    1    2    0  502  0.28068237014E+02  0.11054943127E+02  0.69376225879E+01  0.30954293786E+02  0.00000000000E+00 0.  1.
<mgrwt>
<rscale>  2 0.30166831E+02</rscale>
<asrwt>0</asrwt>
<pdfrwt beam="2">  1        2 0.51479969E-02 0.30166831E+02</pdfrwt>
<pdfrwt beam="1">  1       -2 0.45462549E-02 0.30166831E+02</pdfrwt>
<totfact> 0.21869989E+05</totfact>
</mgrwt>
</event>
<event>
 4    1  0.1352171E+004  0.3719466E+02  0.7546771E-02  0.1529933E+00
          2   -1    0    0  501    0  0.00000000000E+00  0.00000000000E+00  0.10926178686E+04  0.10926178686E+04  0.00000000000E+00 0.  1.
         -2   -1    0    0    0  501 -0.00000000000E+00 -0.00000000000E+00 -0.52780529452E+01  0.52780529452E+01  0.00000000000E+00 0.  1.
          2    1    1    2  502    0 -0.30732059927E+02  0.20951926435E+02  0.10222650594E+04  0.10229414912E+04  0.00000000000E+00 0.  1.
         -2    1    1    2    0  502  0.30732059927E+02 -0.20951926435E+02  0.65074756281E+02  0.74954430381E+02  0.00000000000E+00 0.  1.
<mgrwt>
<rscale>  2 0.37194660E+02</rscale>
<asrwt>0</asrwt>
<pdfrwt beam="1">  1        2 0.16809488E+00 0.37194660E+02</pdfrwt>
<pdfrwt beam="2">  1       -2 0.81200901E-03 0.37194660E+02</pdfrwt>
<totfact> 0.53245601E+04</totfact>
</mgrwt>
</event>
<event>
 4    1  0.1352171E+004  0.2334183E+02  0.7546771E-02  0.1686028E+00
          2   -1    0    0  501    0  0.00000000000E+00  0.00000000000E+00  0.14855651737E+01  0.14855651737E+01  0.00000000000E+00 0.  1.
         -2   -1    0    0    0  501 -0.00000000000E+00 -0.00000000000E+00 -0.37996550416E+03  0.37996550416E+03  0.00000000000E+00 0.  1.
          2    1    1    2  502    0 -0.13284508376E+02  0.19192784612E+02 -0.15367956436E+03  0.15544211027E+03  0.00000000000E+00 0.  1.
         -2    1    1    2    0  502  0.13284508376E+02 -0.19192784612E+02 -0.22480037462E+03  0.22600895906E+03  0.00000000000E+00 0.  1.
<mgrwt>
<rscale>  2 0.23341832E+02</rscale>
<asrwt>0</asrwt>
<pdfrwt beam="1">  1        2 0.22854824E-03 0.23341832E+02</pdfrwt>
<pdfrwt beam="2">  1       -2 0.58456295E-01 0.23341832E+02</pdfrwt>
<totfact> 0.18651762E+05</totfact>
</mgrwt>
</event>
<event>
 4    1  0.1352171E+004  0.2094575E+02  0.7546771E-02  0.1727149E+00
          2   -1    0    0  501    0  0.00000000000E+00  0.00000000000E+00  0.27115873168E+01  0.27115873168E+01  0.00000000000E+00 0. -1.
         -2   -1    0    0    0  501 -0.00000000000E+00 -0.00000000000E+00 -0.46352153442E+03  0.46352153442E+03  0.00000000000E+00 0. -1.
          2    1    1    2  502    0  0.18564134664E+02  0.97003737985E+01 -0.42324328740E+02  0.47223650335E+02  0.00000000000E+00 0. -1.
         -2    1    1    2    0  502 -0.18564134664E+02 -0.97003737985E+01 -0.41848561836E+03  0.41900947140E+03  0.00000000000E+00 0. -1.
<mgrwt>
<rscale>  2 0.20945748E+02</rscale>
<asrwt>0</asrwt>
<pdfrwt beam="1">  1        2 0.41716803E-03 0.20945748E+02</pdfrwt>
<pdfrwt beam="2">  1       -2 0.71310877E-01 0.20945748E+02</pdfrwt>
<totfact> 0.54987998E+04</totfact>
</mgrwt>
</event>
<event>
 4    1  0.1352171E+004  0.2459998E+02  0.7546771E-02  0.1666815E+00
         -2   -1    0    0    0  501 -0.00000000000E+00  0.00000000000E+00  0.31930842307E+01  0.31930842307E+01  0.00000000000E+00 0. -1.
          2   -1    0    0  501    0  0.00000000000E+00 -0.00000000000E+00 -0.19826405513E+03  0.19826405513E+03  0.00000000000E+00 0.  1.
          2    1    1    2  502    0 -0.22471497244E+02 -0.10009535663E+02 -0.11868707560E+03  0.12120965682E+03  0.00000000000E+00 0.  1.
         -2    1    1    2    0  502  0.22471497244E+02  0.10009535663E+02 -0.76383895292E+02  0.80247482531E+02  0.00000000000E+00 0. -1.
<mgrwt>
<rscale>  2 0.24599980E+02</rscale>
<asrwt>0</asrwt>
<pdfrwt beam="2">  1        2 0.30502159E-01 0.24599980E+02</pdfrwt>
<pdfrwt beam="1">  1       -2 0.49124379E-03 0.24599980E+02</pdfrwt>
<totfact> 0.59365023E+05</totfact>
</mgrwt>
</event>
<event>
 4    1  0.1352171E+004  0.2057451E+02  0.7546771E-02  0.1734139E+00
          2   -1    0    0  501    0  0.00000000000E+00  0.00000000000E+00  0.14954155136E+04  0.14954155136E+04  0.00000000000E+00 0.  1.
         -2   -1    0    0    0  501 -0.00000000000E+00 -0.00000000000E+00 -0.29085399707E+02  0.29085399707E+02  0.00000000000E+00 0. -1.
          2    1    1    2  502    0  0.41694474095E+01 -0.20147607346E+02  0.14916971637E+04  0.14918390458E+04  0.00000000000E+00 0.  1.
         -2    1    1    2    0  502 -0.41694474095E+01  0.20147607346E+02 -0.25367049806E+02  0.32661867512E+02  0.00000000000E+00 0. -1.
<mgrwt>
<rscale>  2 0.20574508E+02</rscale>
<asrwt>0</asrwt>
<pdfrwt beam="1">  1        2 0.23006387E+00 0.20574508E+02</pdfrwt>
<pdfrwt beam="2">  1       -2 0.44746780E-02 0.20574508E+02</pdfrwt>
<totfact> 0.29724773E+03</totfact>
</mgrwt>
</event>
<event>
 4    1  0.1352171E+004  0.2002474E+02  0.7546771E-02  0.1744837E+00
          2   -1    0    0  501    0  0.00000000000E+00  0.00000000000E+00  0.18764664404E+01  0.18764664404E+01  0.00000000000E+00 0.  1.
         -2   -1    0    0    0  501 -0.00000000000E+00 -0.00000000000E+00 -0.21923107190E+03  0.21923107190E+03  0.00000000000E+00 0.  1.
          2    1    1    2  502    0 -0.19854390395E+02 -0.26063906262E+01 -0.91108071937E+02  0.93282746862E+02  0.00000000000E+00 0.  1.
         -2    1    1    2    0  502  0.19854390395E+02  0.26063906262E+01 -0.12624653353E+03  0.12782479148E+03  0.00000000000E+00 0.  1.
<mgrwt>
<rscale>  2 0.20024737E+02</rscale>
<asrwt>0</asrwt>
<pdfrwt beam="1">  1        2 0.28868701E-03 0.20024737E+02</pdfrwt>
<pdfrwt beam="2">  1       -2 0.33727873E-01 0.20024737E+02</pdfrwt>
<totfact> 0.36127162E+05</totfact>
</mgrwt>
</event>
<event>
 4    1  0.1352171E+004  0.2330690E+02  0.7546771E-02  0.1686583E+00
         -2   -1    0    0    0  501 -0.00000000000E+00  0.00000000000E+00  0.12470660584E+02  0.12470660584E+02  0.00000000000E+00 0.  1.
          2   -1    0    0  501    0  0.00000000000E+00 -0.00000000000E+00 -0.47565700621E+03  0.47565700621E+03  0.00000000000E+00 0.  1.
          2    1    1    2  502    0 -0.22297545607E+02 -0.67846149376E+01 -0.46421342830E+03  0.46479814818E+03  0.00000000000E+00 0.  1.
         -2    1    1    2    0  502  0.22297545607E+02  0.67846149376E+01  0.10270826707E+01  0.23329518614E+02  0.00000000000E+00 0.  1.
<mgrwt>
<rscale>  2 0.23306899E+02</rscale>
<asrwt>0</asrwt>
<pdfrwt beam="2">  1        2 0.73177998E-01 0.23306899E+02</pdfrwt>
<pdfrwt beam="1">  1       -2 0.19185632E-02 0.23306899E+02</pdfrwt>
<totfact> 0.38751007E+04</totfact>
</mgrwt>
</event>
<event>
 4    1  0.1352171E+004  0.2114184E+02  0.7546771E-02  0.1723530E+00
          2   -1    0    0  501    0  0.00000000000E+00  0.00000000000E+00  0.24235276256E+03  0.24235276256E+03  0.00000000000E+00 0.  1.
         -2   -1    0    0    0  501 -0.00000000000E+00 -0.00000000000E+00 -0.11821784103E+02  0.11821784103E+02  0.00000000000E+00 0. -1.
          2    1    1    2  502    0 -0.20900303629E+02  0.31866263029E+01  0.23201915534E+03  0.23298039773E+03  0.00000000000E+00 0.  1.
         -2    1    1    2    0  502  0.20900303629E+02 -0.31866263029E+01 -0.14881768798E+01  0.21194148942E+02  0.00000000000E+00 0. -1.
<mgrwt>
<rscale>  2 0.21141837E+02</rscale>
<asrwt>0</asrwt>
<pdfrwt beam="1">  1        2 0.37285037E-01 0.21141837E+02</pdfrwt>
<pdfrwt beam="2">  1       -2 0.18187362E-02 0.21141837E+02</pdfrwt>
<totfact> 0.79442910E+04</totfact>
</mgrwt>
</event>
<event>
 4    1  0.1352171E+004  0.2054729E+02  0.7546771E-02  0.1734659E+00
         -2   -1    0    0    0  501 -0.00000000000E+00  0.00000000000E+00  0.37138715951E+02  0.37138715951E+02  0.00000000000E+00 0.  1.
          2   -1    0    0  501    0  0.00000000000E+00 -0.00000000000E+00 -0.24676230818E+02  0.24676230818E+02  0.00000000000E+00 0.  1.
          2    1    1    2  502    0 -0.65069162119E+01  0.19489766908E+02 -0.16466627789E+02  0.26331365393E+02  0.00000000000E+00 0.  1.
         -2    1    1    2    0  502  0.65069162119E+01 -0.19489766908E+02  0.28929112923E+02  0.35483581375E+02  0.00000000000E+00 0.  1.
<mgrwt>
<rscale>  2 0.20547286E+02</rscale>
<asrwt>0</asrwt>
<pdfrwt beam="2">  1        2 0.37963432E-02 0.20547286E+02</pdfrwt>
<pdfrwt beam="1">  1       -2 0.57136486E-02 0.20547286E+02</pdfrwt>
<totfact> 0.20696498E+05</totfact>
</mgrwt>
</event>
<event>
 4    1  0.1652067E+004  0.2136362E+02  0.7546771E-02  0.1719496E+00
          2   -1    0    0  501    0  0.00000000000E+00  0.00000000000E+00  0.83678426767E+03  0.83678426767E+03  0.00000000000E+00 0.  1.
         -2   -1    0    0    0  501 -0.00000000000E+00 -0.00000000000E+00 -0.77408103093E+02  0.77408103093E+02  0.00000000000E+00 0. -1.
          2    1    1    2  502    0  0.13130799340E+02  0.16851894520E+02  0.83517104472E+03  0.83544424001E+03  0.00000000000E+00 0.  1.
         -2    1    1    2    0  502 -0.13130799340E+02 -0.16851894520E+02 -0.75794880142E+02  0.78748130746E+02  0.00000000000E+00 0. -1.
<mgrwt>
<rscale>  2 0.21363620E+02</rscale>
<asrwt>0</asrwt>
<pdfrwt beam="1">  1        2 0.12873603E+00 0.21363620E+02</pdfrwt>
<pdfrwt beam="2">  1       -2 0.11908940E-01 0.21363620E+02</pdfrwt>
<totfact> 0.15650580E+03</totfact>
</mgrwt>
</event>
<event>
 4    1  0.1352171E+004  0.2649466E+02  0.7546771E-02  0.1640417E+00
         -2   -1    0    0    0  501 -0.00000000000E+00  0.00000000000E+00  0.26126854603E+01  0.26126854603E+01  0.00000000000E+00 0.  1.
          2   -1    0    0  501    0  0.00000000000E+00 -0.00000000000E+00 -0.31696404642E+03  0.31696404642E+03  0.00000000000E+00 0.  1.
          2    1    1    2  502    0 -0.12574280572E+01  0.26464803434E+02 -0.21954315164E+03  0.22113607208E+03  0.00000000000E+00 0.  1.
         -2    1    1    2    0  502  0.12574280572E+01 -0.26464803434E+02 -0.94808209322E+02  0.98440659796E+02  0.00000000000E+00 0.  1.
<mgrwt>
<rscale>  2 0.26494659E+02</rscale>
<asrwt>0</asrwt>
<pdfrwt beam="2">  1        2 0.48763732E-01 0.26494659E+02</pdfrwt>
<pdfrwt beam="1">  1       -2 0.40195134E-03 0.26494659E+02</pdfrwt>
<totfact> 0.49704664E+05</totfact>
</mgrwt>
</event>
<event>
 4    1  0.1352171E+004  0.2059755E+02  0.7546771E-02  0.1733700E+00
          2   -1    0    0  501    0  0.00000000000E+00  0.00000000000E+00  0.58409143404E+03  0.58409143404E+03  0.00000000000E+00 0.  1.
         -2   -1    0    0    0  501 -0.00000000000E+00 -0.00000000000E+00 -0.18978216840E+02  0.18978216840E+02  0.00000000000E+00 0. -1.
          2    1    1    2  502    0 -0.32233905081E+01 -0.20343761057E+02  0.57826478899E+03  0.57863151059E+03  0.00000000000E+00 0.  1.
         -2    1    1    2    0  502  0.32233905081E+01  0.20343761057E+02 -0.13151571790E+02  0.24438140291E+02  0.00000000000E+00 0. -1.
<mgrwt>
<rscale>  2 0.20597545E+02</rscale>
<asrwt>0</asrwt>
<pdfrwt beam="1">  1        2 0.89860207E-01 0.20597545E+02</pdfrwt>
<pdfrwt beam="2">  1       -2 0.29197261E-02 0.20597545E+02</pdfrwt>
<totfact> 0.17267265E+04</totfact>
</mgrwt>
</event>
<event>
 4    1  0.1352171E+004  0.2238830E+02  0.7546771E-02  0.1701622E+00
          2   -1    0    0  501    0  0.00000000000E+00  0.00000000000E+00  0.19089302634E+04  0.19089302634E+04  0.00000000000E+00 0. -1.
         -2   -1    0    0    0  501 -0.00000000000E+00 -0.00000000000E+00 -0.26757681012E+00  0.26757681012E+00  0.00000000000E+00 0.  1.
          2    1    1    2  502    0  0.21504362719E+02 -0.62287972827E+01  0.82380385789E+03  0.82410802193E+03  0.00000000000E+00 0. -1.
         -2    1    1    2    0  502 -0.21504362719E+02  0.62287972827E+01  0.10848588287E+04  0.10850898183E+04  0.00000000000E+00 0.  1.
<mgrwt>
<rscale>  2 0.22388301E+02</rscale>
<asrwt>0</asrwt>
<pdfrwt beam="1">  1        2 0.29367067E+00 0.22388301E+02</pdfrwt>
<pdfrwt beam="2">  1       -2 0.41167192E-04 0.22388301E+02</pdfrwt>
<totfact> 0.10352791E+06</totfact>
</mgrwt>
</event>
<event>
 4    1  0.1352171E+004  0.2574841E+02  0.7546771E-02  0.1650479E+00
         -2   -1    0    0    0  501 -0.00000000000E+00  0.00000000000E+00  0.45876881017E+01  0.45876881017E+01  0.00000000000E+00 0. -1.
          2   -1    0    0  501    0  0.00000000000E+00 -0.00000000000E+00 -0.35568599846E+03  0.35568599846E+03  0.00000000000E+00 0.  1.
          2    1    1    2  502    0  0.18625450919E+02 -0.17778447657E+02 -0.31434879676E+03  0.31540156411E+03  0.00000000000E+00 0.  1.
         -2    1    1    2    0  502 -0.18625450919E+02  0.17778447657E+02 -0.36749513602E+02  0.44872122448E+02  0.00000000000E+00 0. -1.
<mgrwt>
<rscale>  2 0.25748410E+02</rscale>
<asrwt>0</asrwt>
<pdfrwt beam="2">  1        2 0.54720945E-01 0.25748410E+02</pdfrwt>
<pdfrwt beam="1">  1       -2 0.70579789E-03 0.25748410E+02</pdfrwt>
<totfact> 0.20610224E+05</totfact>
</mgrwt>
</event>
<event>
 4    1  0.1352171E+004  0.5314262E+02  0.7546771E-02  0.1429092E+00
         -2   -1    0    0    0  501 -0.00000000000E+00  0.00000000000E+00  0.57960878333E+01  0.57960878333E+01  0.00000000000E+00 0. -1.
          2   -1    0    0  501    0  0.00000000000E+00 -0.00000000000E+00 -0.52572522851E+03  0.52572522851E+03  0.00000000000E+00 0. -1.
          2    1    1    2  502    0  0.12898121105E+01  0.53126963350E+02 -0.33186105822E+03  0.33608912481E+03  0.00000000000E+00 0. -1.
         -2    1    1    2    0  502 -0.12898121105E+01 -0.53126963350E+02 -0.18806808245E+03  0.19543219153E+03  0.00000000000E+00 0. -1.
<mgrwt>
<rscale>  2 0.53142618E+02</rscale>
<asrwt>0</asrwt>
<pdfrwt beam="2">  1        2 0.80880826E-01 0.53142618E+02</pdfrwt>
<pdfrwt beam="1">  1       -2 0.89170558E-03 0.53142618E+02</pdfrwt>
<totfact> 0.11701035E+05</totfact>
</mgrwt>
</event>
<event>
 4    1  0.1352171E+004  0.2391628E+02  0.7546771E-02  0.1677074E+00
         -2   -1    0    0    0  501 -0.00000000000E+00  0.00000000000E+00  0.23013522763E+00  0.23013522763E+00  0.00000000000E+00 0.  1.
          2   -1    0    0  501    0  0.00000000000E+00 -0.00000000000E+00 -0.25415633585E+04  0.25415633585E+04  0.00000000000E+00 0.  1.
          2    1    1    2  502    0  0.99587104188E+01  0.21744258294E+02 -0.14595128729E+04  0.14597088116E+04  0.00000000000E+00 0.  1.
         -2    1    1    2    0  502 -0.99587104188E+01 -0.21744258294E+02 -0.10818203504E+04  0.10820846821E+04  0.00000000000E+00 0.  1.
<mgrwt>
<rscale>  2 0.23916285E+02</rscale>
<asrwt>0</asrwt>
<pdfrwt beam="2">  1        2 0.39100829E+00 0.23916285E+02</pdfrwt>
<pdfrwt beam="1">  1       -2 0.35405552E-04 0.23916285E+02</pdfrwt>
<totfact> 0.64218695E+05</totfact>
</mgrwt>
</event>
<event>
 4    1  0.1352171E+004  0.2061771E+02  0.7546771E-02  0.1733316E+00
         -2   -1    0    0    0  501 -0.00000000000E+00  0.00000000000E+00  0.61282966975E+02  0.61282966975E+02  0.00000000000E+00 0. -1.
          2   -1    0    0  501    0  0.00000000000E+00 -0.00000000000E+00 -0.33195513726E+03  0.33195513726E+03  0.00000000000E+00 0.  1.
          2    1    1    2  502    0  0.27388634980E+00  0.20615887066E+02 -0.32989002409E+03  0.33053368634E+03  0.00000000000E+00 0.  1.
         -2    1    1    2    0  502 -0.27388634980E+00 -0.20615887066E+02  0.59217853808E+02  0.62704417890E+02  0.00000000000E+00 0. -1.
<mgrwt>
<rscale>  2 0.20617706E+02</rscale>
<asrwt>0</asrwt>
<pdfrwt beam="2">  1        2 0.51070021E-01 0.20617706E+02</pdfrwt>
<pdfrwt beam="1">  1       -2 0.94281488E-02 0.20617706E+02</pdfrwt>
<totfact> 0.57233093E+03</totfact>
</mgrwt>
</event>
<event>
 4    1  0.1352171E+004  0.2395579E+02  0.7546771E-02  0.1676470E+00
         -2   -1    0    0    0  501 -0.00000000000E+00  0.00000000000E+00  0.29226530418E+02  0.29226530418E+02  0.00000000000E+00 0.  1.
          2   -1    0    0  501    0  0.00000000000E+00 -0.00000000000E+00 -0.35587846063E+03  0.35587846063E+03  0.00000000000E+00 0.  1.
          2    1    1    2  502    0 -0.17319253548E+02  0.16550632954E+02 -0.35049105453E+03  0.35130878056E+03  0.00000000000E+00 0.  1.
         -2    1    1    2    0  502  0.17319253548E+02 -0.16550632954E+02  0.23839124320E+02  0.33796210483E+02  0.00000000000E+00 0.  1.
<mgrwt>
<rscale>  2 0.23955793E+02</rscale>
<asrwt>0</asrwt>
<pdfrwt beam="2">  1        2 0.54750534E-01 0.23955793E+02</pdfrwt>
<pdfrwt beam="1">  1       -2 0.44963892E-02 0.23955793E+02</pdfrwt>
<totfact> 0.15887023E+04</totfact>
</mgrwt>
</event>
<event>
 4    1  0.1352171E+004  0.2367567E+02  0.7546771E-02  0.1680786E+00
         -2   -1    0    0    0  501 -0.00000000000E+00  0.00000000000E+00  0.80380238624E+00  0.80380238624E+00  0.00000000000E+00 0. -1.
          2   -1    0    0  501    0  0.00000000000E+00 -0.00000000000E+00 -0.13415437622E+04  0.13415437622E+04  0.00000000000E+00 0. -1.
          2    1    1    2  502    0 -0.40059700907E+01 -0.23334298697E+02 -0.11354615089E+04  0.11357083144E+04  0.00000000000E+00 0. -1.
         -2    1    1    2    0  502  0.40059700907E+01  0.23334298697E+02 -0.20527845095E+03  0.20663925019E+03  0.00000000000E+00 0. -1.
<mgrwt>
<rscale>  2 0.23675669E+02</rscale>
<asrwt>0</asrwt>
<pdfrwt beam="2">  1        2 0.20638859E+00 0.23675669E+02</pdfrwt>
<pdfrwt beam="1">  1       -2 0.12366356E-03 0.23675669E+02</pdfrwt>
<totfact> 0.45672371E+05</totfact>
</mgrwt>
</event>
<event>
 4    1  0.1352171E+004  0.2045281E+02  0.7546771E-02  0.1736471E+00
         -2   -1    0    0    0  501 -0.00000000000E+00  0.00000000000E+00  0.10537571927E+01  0.10537571927E+01  0.00000000000E+00 0. -1.
          2   -1    0    0  501    0  0.00000000000E+00 -0.00000000000E+00 -0.91659019658E+03  0.91659019658E+03  0.00000000000E+00 0.  1.
          2    1    1    2  502    0  0.18402382618E+02 -0.89257827653E+01 -0.80322739165E+03  0.80348774725E+03  0.00000000000E+00 0.  1.
         -2    1    1    2    0  502 -0.18402382618E+02  0.89257827653E+01 -0.11230904774E+03  0.11415620652E+03  0.00000000000E+00 0. -1.
<mgrwt>
<rscale>  2 0.20452806E+02</rscale>
<asrwt>0</asrwt>
<pdfrwt beam="2">  1        2 0.14101478E+00 0.20452806E+02</pdfrwt>
<pdfrwt beam="1">  1       -2 0.16211546E-03 0.20452806E+02</pdfrwt>
<totfact> 0.50870685E+05</totfact>
</mgrwt>
</event>
<event>
 4    1  0.1352171E+004  0.4126515E+02  0.7546771E-02  0.1499102E+00
         -2   -1    0    0    0  501 -0.00000000000E+00  0.00000000000E+00  0.87298197448E+02  0.87298197448E+02  0.00000000000E+00 0. -1.
          2   -1    0    0  501    0  0.00000000000E+00 -0.00000000000E+00 -0.86666596552E+03  0.86666596552E+03  0.00000000000E+00 0. -1.
          2    1    1    2  502    0  0.40212184723E+02  0.92624336096E+01 -0.86126779770E+03  0.86225578098E+03  0.00000000000E+00 0. -1.
         -2    1    1    2    0  502 -0.40212184723E+02 -0.92624336096E+01  0.81900029621E+02  0.91708381997E+02  0.00000000000E+00 0. -1.
<mgrwt>
<rscale>  2 0.41265148E+02</rscale>
<asrwt>0</asrwt>
<pdfrwt beam="2">  1        2 0.13333322E+00 0.41265148E+02</pdfrwt>
<pdfrwt beam="1">  1       -2 0.13430492E-01 0.41265148E+02</pdfrwt>
<totfact> 0.12838538E+03</totfact>
</mgrwt>
</event>
<event>
 4    1  0.1352171E+004  0.2773060E+02  0.7546771E-02  0.1624620E+00
         -2   -1    0    0    0  501 -0.00000000000E+00  0.00000000000E+00  0.60082301974E+01  0.60082301974E+01  0.00000000000E+00 0.  1.
          2   -1    0    0  501    0  0.00000000000E+00 -0.00000000000E+00 -0.21434610765E+03  0.21434610765E+03  0.00000000000E+00 0.  1.
          2    1    1    2  502    0 -0.12273094629E+02 -0.24866792770E+02 -0.17410212715E+03  0.17629672973E+03  0.00000000000E+00 0.  1.
         -2    1    1    2    0  502  0.12273094629E+02  0.24866792770E+02 -0.34235750300E+02  0.44057608117E+02  0.00000000000E+00 0.  1.
<mgrwt>
<rscale>  2 0.27730601E+02</rscale>
<asrwt>0</asrwt>
<pdfrwt beam="2">  1        2 0.32976328E-01 0.27730601E+02</pdfrwt>
<pdfrwt beam="1">  1       -2 0.92434300E-03 0.27730601E+02</pdfrwt>
<totfact> 0.24143562E+05</totfact>
</mgrwt>
</event>
<event>
 4    1  0.1352171E+004  0.2109285E+02  0.7546771E-02  0.1724430E+00
          2   -1    0    0  501    0  0.00000000000E+00  0.00000000000E+00  0.23266390991E+01  0.23266390991E+01  0.00000000000E+00 0.  1.
         -2   -1    0    0    0  501 -0.00000000000E+00 -0.00000000000E+00 -0.25940262400E+03  0.25940262400E+03  0.00000000000E+00 0.  1.
          2    1    1    2  502    0 -0.43266154664E+01 -0.20644335196E+02 -0.61447548052E+02  0.64966986529E+02  0.00000000000E+00 0.  1.
         -2    1    1    2    0  502  0.43266154664E+01  0.20644335196E+02 -0.19562843685E+03  0.19676227658E+03  0.00000000000E+00 0.  1.
<mgrwt>
<rscale>  2 0.21092847E+02</rscale>
<asrwt>0</asrwt>
<pdfrwt beam="1">  1        2 0.35794480E-03 0.21092847E+02</pdfrwt>
<pdfrwt beam="2">  1       -2 0.39908060E-01 0.21092847E+02</pdfrwt>
<totfact> 0.20576257E+05</totfact>
</mgrwt>
</event>
<event>
 4    1  0.1554334E+004  0.2438697E+02  0.7546771E-02  0.1669966E+00
          2   -1    0    0  501    0  0.00000000000E+00  0.00000000000E+00  0.12065874686E+04  0.12065874686E+04  0.00000000000E+00 0.  1.
         -2   -1    0    0    0  501 -0.00000000000E+00 -0.00000000000E+00 -0.63668914096E+02  0.63668914096E+02  0.00000000000E+00 0. -1.
          2    1    1    2  502    0 -0.13558584615E+02 -0.20270399995E+02  0.12041242450E+04  0.12043711728E+04  0.00000000000E+00 0.  1.
         -2    1    1    2    0  502  0.13558584615E+02  0.20270399995E+02 -0.61205690531E+02  0.65885209919E+02  0.00000000000E+00 0. -1.
<mgrwt>
<rscale>  2 0.24386971E+02</rscale>
<asrwt>0</asrwt>
<pdfrwt beam="1">  1        2 0.18562882E+00 0.24386971E+02</pdfrwt>
<pdfrwt beam="2">  1       -2 0.97952185E-02 0.24386971E+02</pdfrwt>
<totfact> 0.13322578E+03</totfact>
</mgrwt>
</event>
<event>
 4    1  0.1352171E+004  0.3026676E+02  0.7546771E-02  0.1595159E+00
         -2   -1    0    0    0  501 -0.00000000000E+00  0.00000000000E+00  0.47061019055E+02  0.47061019055E+02  0.00000000000E+00 0. -1.
          2   -1    0    0  501    0  0.00000000000E+00 -0.00000000000E+00 -0.40286143881E+02  0.40286143881E+02  0.00000000000E+00 0.  1.
          2    1    1    2  502    0 -0.19868038383E+02  0.22832829255E+02 -0.28009381339E+02  0.41238361800E+02  0.00000000000E+00 0.  1.
         -2    1    1    2    0  502  0.19868038383E+02 -0.22832829255E+02  0.34784256514E+02  0.46108801136E+02  0.00000000000E+00 0. -1.
<mgrwt>
<rscale>  2 0.30266765E+02</rscale>
<asrwt>0</asrwt>
<pdfrwt beam="2">  1        2 0.61978683E-02 0.30266765E+02</pdfrwt>
<pdfrwt beam="1">  1       -2 0.72401568E-02 0.30266765E+02</pdfrwt>
<totfact> 0.88915909E+04</totfact>
</mgrwt>
</event>
<event>
 4    1  0.1405048E+004  0.2831950E+02  0.7546771E-02  0.1617443E+00
          2   -1    0    0  501    0  0.00000000000E+00  0.00000000000E+00  0.77827855238E+03  0.77827855238E+03  0.00000000000E+00 0. -1.
         -2   -1    0    0    0  501 -0.00000000000E+00 -0.00000000000E+00 -0.59221922724E+02  0.59221922724E+02  0.00000000000E+00 0.  1.
          2    1    1    2  502    0 -0.69888744823E+01  0.27443573487E+02  0.77461940147E+03  0.77513689837E+03  0.00000000000E+00 0. -1.
         -2    1    1    2    0  502  0.69888744823E+01 -0.27443573487E+02 -0.55562771807E+02  0.62363576735E+02  0.00000000000E+00 0.  1.
<mgrwt>
<rscale>  2 0.28319500E+02</rscale>
<asrwt>0</asrwt>
<pdfrwt beam="1">  1        2 0.11973515E+00 0.28319500E+02</pdfrwt>
<pdfrwt beam="2">  1       -2 0.91110656E-02 0.28319500E+02</pdfrwt>
<totfact> 0.25848206E+03</totfact>
</mgrwt>
</event>
<event>
 4    1  0.1352171E+004  0.2506872E+02  0.7546771E-02  0.1660017E+00
         -2   -1    0    0    0  501 -0.00000000000E+00  0.00000000000E+00  0.20254187008E+01  0.20254187008E+01  0.00000000000E+00 0. -1.
          2   -1    0    0  501    0  0.00000000000E+00 -0.00000000000E+00 -0.39515292953E+03  0.39515292953E+03  0.00000000000E+00 0. -1.
          2    1    1    2  502    0  0.11622342412E+02  0.22211749091E+02 -0.28860139832E+03  0.28968812153E+03  0.00000000000E+00 0. -1.
         -2    1    1    2    0  502 -0.11622342412E+02 -0.22211749091E+02 -0.10452611251E+03  0.10749022671E+03  0.00000000000E+00 0. -1.
<mgrwt>
<rscale>  2 0.25068718E+02</rscale>
<asrwt>0</asrwt>
<pdfrwt beam="2">  1        2 0.60792733E-01 0.25068718E+02</pdfrwt>
<pdfrwt beam="1">  1       -2 0.31160301E-03 0.25068718E+02</pdfrwt>
<totfact> 0.55299280E+05</totfact>
</mgrwt>
</event>
<event>
 4    1  0.1352171E+004  0.2050573E+02  0.7546771E-02  0.1735454E+00
         -2   -1    0    0    0  501 -0.00000000000E+00  0.00000000000E+00  0.16328712071E+01  0.16328712071E+01  0.00000000000E+00 0.  1.
          2   -1    0    0  501    0  0.00000000000E+00 -0.00000000000E+00 -0.41744732357E+03  0.41744732357E+03  0.00000000000E+00 0.  1.
          2    1    1    2  502    0 -0.20282287623E+02  0.30189267069E+01 -0.33760649177E+03  0.33822866288E+03  0.00000000000E+00 0.  1.
         -2    1    1    2    0  502  0.20282287623E+02 -0.30189267069E+01 -0.78207960599E+02  0.80851531901E+02  0.00000000000E+00 0.  1.
<mgrwt>
<rscale>  2 0.20505734E+02</rscale>
<asrwt>0</asrwt>
<pdfrwt beam="2">  1        2 0.64222775E-01 0.20505734E+02</pdfrwt>
<pdfrwt beam="1">  1       -2 0.25121053E-03 0.20505734E+02</pdfrwt>
<totfact> 0.65611376E+05</totfact>
</mgrwt>
</event>
<event>
 4    1  0.1352171E+004  0.3247149E+02  0.7546771E-02  0.1572273E+00
          2   -1    0    0  501    0  0.00000000000E+00  0.00000000000E+00  0.29631696074E+02  0.29631696074E+02  0.00000000000E+00 0. -1.
         -2   -1    0    0    0  501 -0.00000000000E+00 -0.00000000000E+00 -0.96272453966E+03  0.96272453966E+03  0.00000000000E+00 0. -1.
          2    1    1    2  502    0  0.29560735622E+02  0.13437291561E+02  0.20375695079E+02  0.38334929829E+02  0.00000000000E+00 0. -1.
         -2    1    1    2    0  502 -0.29560735622E+02 -0.13437291561E+02 -0.95346853867E+03  0.95402130591E+03  0.00000000000E+00 0. -1.
<mgrwt>
<rscale>  2 0.32471494E+02</rscale>
<asrwt>0</asrwt>
<pdfrwt beam="1">  1        2 0.45587224E-02 0.32471494E+02</pdfrwt>
<pdfrwt beam="2">  1       -2 0.14811147E+00 0.32471494E+02</pdfrwt>
<totfact> 0.52360650E+02</totfact>
</mgrwt>
</event>
<event>
 4    1  0.1352171E+004  0.2146242E+02  0.7546771E-02  0.1717718E+00
          2   -1    0    0  501    0  0.00000000000E+00  0.00000000000E+00  0.79917761190E+02  0.79917761190E+02  0.00000000000E+00 0.  1.
         -2   -1    0    0    0  501 -0.00000000000E+00 -0.00000000000E+00 -0.60891391199E+01  0.60891391199E+01  0.00000000000E+00 0. -1.
          2    1    1    2  502    0 -0.20190427785E+02  0.72788834770E+01  0.46853417259E+02  0.51535213473E+02  0.00000000000E+00 0.  1.
         -2    1    1    2    0  502  0.20190427785E+02 -0.72788834770E+01  0.26975204811E+02  0.34471686837E+02  0.00000000000E+00 0. -1.
<mgrwt>
<rscale>  2 0.21462421E+02</rscale>
<asrwt>0</asrwt>
<pdfrwt beam="1">  1        2 0.12295039E-01 0.21462421E+02</pdfrwt>
<pdfrwt beam="2">  1       -2 0.93679069E-03 0.21462421E+02</pdfrwt>
<totfact> 0.62799510E+05</totfact>
</mgrwt>
</event>
<event>
 4    1  0.1352171E+004  0.3728750E+02  0.7546771E-02  0.1529177E+00
          2   -1    0    0  501    0  0.00000000000E+00  0.00000000000E+00  0.96973502893E+02  0.96973502893E+02  0.00000000000E+00 0. -1.
         -2   -1    0    0    0  501 -0.00000000000E+00 -0.00000000000E+00 -0.51993492828E+02  0.51993492828E+02  0.00000000000E+00 0.  1.
          2    1    1    2  502    0 -0.15296774447E+02  0.34005382081E+02  0.85877360704E+02  0.93623065537E+02  0.00000000000E+00 0. -1.
         -2    1    1    2    0  502  0.15296774447E+02 -0.34005382081E+02 -0.40897350639E+02  0.55343930184E+02  0.00000000000E+00 0.  1.
<mgrwt>
<rscale>  2 0.37287495E+02</rscale>
<asrwt>0</asrwt>
<pdfrwt beam="1">  1        2 0.14919000E-01 0.37287495E+02</pdfrwt>
<pdfrwt beam="2">  1       -2 0.79989989E-02 0.37287495E+02</pdfrwt>
<totfact> 0.28531186E+04</totfact>
</mgrwt>
</event>
<event>
 4    1  0.1377738E+004  0.2179921E+02  0.7546771E-02  0.1711748E+00
         -2   -1    0    0    0  501 -0.00000000000E+00  0.00000000000E+00  0.54579467418E+02  0.54579467418E+02  0.00000000000E+00 0. -1.
          2   -1    0    0  501    0  0.00000000000E+00 -0.00000000000E+00 -0.12186764935E+04  0.12186764935E+04  0.00000000000E+00 0.  1.
          2    1    1    2  502    0 -0.91499179818E+01 -0.19785969312E+02 -0.12163982648E+04  0.12165935822E+04  0.00000000000E+00 0.  1.
         -2    1    1    2    0  502  0.91499179818E+01  0.19785969312E+02  0.52301238776E+02  0.56662378685E+02  0.00000000000E+00 0. -1.
<mgrwt>
<rscale>  2 0.21799211E+02</rscale>
<asrwt>0</asrwt>
<pdfrwt beam="2">  1        2 0.18748869E+00 0.21799211E+02</pdfrwt>
<pdfrwt beam="1">  1       -2 0.83968411E-02 0.21799211E+02</pdfrwt>
<totfact> 0.16425399E+03</totfact>
</mgrwt>
</event>
<event>
 4    1  0.1352171E+004  0.3086311E+02  0.7546771E-02  0.1588739E+00
         -2   -1    0    0    0  501 -0.00000000000E+00  0.00000000000E+00  0.29175815268E+01  0.29175815268E+01  0.00000000000E+00 0.  1.
          2   -1    0    0  501    0  0.00000000000E+00 -0.00000000000E+00 -0.63525747045E+03  0.63525747045E+03  0.00000000000E+00 0.  1.
          2    1    1    2  502    0 -0.60227171356E+01 -0.30269763435E+02 -0.53863295759E+03  0.53951644526E+03  0.00000000000E+00 0.  1.
         -2    1    1    2    0  502  0.60227171356E+01  0.30269763435E+02 -0.93706931332E+02  0.98658606719E+02  0.00000000000E+00 0.  1.
<mgrwt>
<rscale>  2 0.30863112E+02</rscale>
<asrwt>0</asrwt>
<pdfrwt beam="2">  1        2 0.97731966E-01 0.30863112E+02</pdfrwt>
<pdfrwt beam="1">  1       -2 0.44885848E-03 0.30863112E+02</pdfrwt>
<totfact> 0.21961746E+05</totfact>
</mgrwt>
</event>
<event>
 4    1  0.1352171E+004  0.2506277E+02  0.7546771E-02  0.1660102E+00
         -2   -1    0    0    0  501 -0.00000000000E+00  0.00000000000E+00  0.42329004737E+02  0.42329004737E+02  0.00000000000E+00 0.  1.
          2   -1    0    0  501    0  0.00000000000E+00 -0.00000000000E+00 -0.45054716053E+02  0.45054716053E+02  0.00000000000E+00 0. -1.
          2    1    1    2  502    0  0.24648394047E+02  0.45386483254E+01 -0.37143077136E+02  0.44807932745E+02  0.00000000000E+00 0. -1.
         -2    1    1    2    0  502 -0.24648394047E+02 -0.45386483254E+01  0.34417365820E+02  0.42575788046E+02  0.00000000000E+00 0.  1.
<mgrwt>
<rscale>  2 0.25062774E+02</rscale>
<asrwt>0</asrwt>
<pdfrwt beam="2">  1        2 0.69314947E-02 0.25062774E+02</pdfrwt>
<pdfrwt beam="1">  1       -2 0.65121546E-02 0.25062774E+02</pdfrwt>
<totfact> 0.86773588E+04</totfact>
</mgrwt>
</event>
<event>
 4    1  0.1352171E+004  0.2000540E+02  0.7546771E-02  0.1745221E+00
          2   -1    0    0  501    0  0.00000000000E+00  0.00000000000E+00  0.18284444555E+03  0.18284444555E+03  0.00000000000E+00 0.  1.
         -2   -1    0    0    0  501 -0.00000000000E+00 -0.00000000000E+00 -0.23664814114E+02  0.23664814114E+02  0.00000000000E+00 0.  1.
          2    1    1    2  502    0 -0.43551732523E+01  0.19525581909E+02  0.17795343407E+03  0.17907439957E+03  0.00000000000E+00 0.  1.
         -2    1    1    2    0  502  0.43551732523E+01 -0.19525581909E+02 -0.18773802637E+02  0.27434860095E+02  0.00000000000E+00 0.  1.
<mgrwt>
<rscale>  2 0.20005396E+02</rscale>
<asrwt>0</asrwt>
<pdfrwt beam="1">  1        2 0.28129914E-01 0.20005396E+02</pdfrwt>
<pdfrwt beam="2">  1       -2 0.36407408E-02 0.20005396E+02</pdfrwt>
<totfact> 0.40005966E+04</totfact>
</mgrwt>
</event>
<event>
 4    1  0.1352171E+004  0.2152709E+02  0.7546771E-02  0.1716561E+00
          2   -1    0    0  501    0  0.00000000000E+00  0.00000000000E+00  0.90904035256E+02  0.90904035256E+02  0.00000000000E+00 0.  1.
         -2   -1    0    0    0  501 -0.00000000000E+00 -0.00000000000E+00 -0.14184549212E+02  0.14184549212E+02  0.00000000000E+00 0.  1.
          2    1    1    2  502    0  0.10650075200E+02  0.18708064759E+02  0.80415037844E+02  0.83246586118E+02  0.00000000000E+00 0.  1.
         -2    1    1    2    0  502 -0.10650075200E+02 -0.18708064759E+02 -0.36955518000E+01  0.21841998350E+02  0.00000000000E+00 0.  1.
<mgrwt>
<rscale>  2 0.21527094E+02</rscale>
<asrwt>0</asrwt>
<pdfrwt beam="1">  1        2 0.13985236E-01 0.21527094E+02</pdfrwt>
<pdfrwt beam="2">  1       -2 0.21822384E-02 0.21527094E+02</pdfrwt>
<totfact> 0.17271971E+05</totfact>
</mgrwt>
</event>
<event>
 4    1  0.1352171E+004  0.2774620E+02  0.7546771E-02  0.1624427E+00
         -2   -1    0    0    0  501 -0.00000000000E+00  0.00000000000E+00  0.38068358554E+00  0.38068358554E+00  0.00000000000E+00 0.  1.
          2   -1    0    0  501    0  0.00000000000E+00 -0.00000000000E+00 -0.21205813290E+04  0.21205813290E+04  0.00000000000E+00 0. -1.
          2    1    1    2  502    0 -0.27237664443E+02  0.52878374643E+01 -0.12884176879E+04  0.12887164118E+04  0.00000000000E+00 0. -1.
         -2    1    1    2    0  502  0.27237664443E+02 -0.52878374643E+01 -0.83178295753E+03  0.83224560079E+03  0.00000000000E+00 0.  1.
<mgrwt>
<rscale>  2 0.27746200E+02</rscale>
<asrwt>0</asrwt>
<pdfrwt beam="2">  1        2 0.32623833E+00 0.27746200E+02</pdfrwt>
<pdfrwt beam="1">  1       -2 0.58567595E-04 0.27746200E+02</pdfrwt>
<totfact> 0.54637445E+05</totfact>
</mgrwt>
</event>
<event>
 4    1  0.1352171E+004  0.2194856E+02  0.7546771E-02  0.1709143E+00
         -2   -1    0    0    0  501 -0.00000000000E+00  0.00000000000E+00  0.93853600739E+01  0.93853600739E+01  0.00000000000E+00 0. -1.
          2   -1    0    0  501    0  0.00000000000E+00 -0.00000000000E+00 -0.37515017875E+03  0.37515017875E+03  0.00000000000E+00 0. -1.
          2    1    1    2  502    0 -0.21846554288E+02  0.21136085442E+01 -0.36151334269E+03  0.36217901129E+03  0.00000000000E+00 0. -1.
         -2    1    1    2    0  502  0.21846554288E+02 -0.21136085442E+01 -0.42514759849E+01  0.22356527534E+02  0.00000000000E+00 0. -1.
<mgrwt>
<rscale>  2 0.21948560E+02</rscale>
<asrwt>0</asrwt>
<pdfrwt beam="2">  1        2 0.57715426E-01 0.21948560E+02</pdfrwt>
<pdfrwt beam="1">  1       -2 0.14439012E-02 0.21948560E+02</pdfrwt>
<totfact> 0.71390153E+04</totfact>
</mgrwt>
</event>
<event>
 4    1  0.1352171E+004  0.5018544E+02  0.7546771E-02  0.1444344E+00
         -2   -1    0    0    0  501 -0.00000000000E+00  0.00000000000E+00  0.10404736473E+04  0.10404736473E+04  0.00000000000E+00 0. -1.
          2   -1    0    0  501    0  0.00000000000E+00 -0.00000000000E+00 -0.14384977369E+03  0.14384977369E+03  0.00000000000E+00 0. -1.
          2    1    1    2  502    0  0.49421169712E+02  0.87250509554E+01 -0.13884638551E+03  0.14763772316E+03  0.00000000000E+00 0. -1.
         -2    1    1    2    0  502 -0.49421169712E+02 -0.87250509554E+01  0.10354702592E+04  0.10366856979E+04  0.00000000000E+00 0. -1.
<mgrwt>
<rscale>  2 0.50185441E+02</rscale>
<asrwt>0</asrwt>
<pdfrwt beam="2">  1        2 0.22130735E-01 0.50185441E+02</pdfrwt>
<pdfrwt beam="1">  1       -2 0.16007286E+00 0.50185441E+02</pdfrwt>
<totfact> 0.68676238E+01</totfact>
</mgrwt>
</event>
<event>
 4    1  0.1352171E+004  0.2854838E+02  0.7546771E-02  0.1614712E+00
         -2   -1    0    0    0  501 -0.00000000000E+00  0.00000000000E+00  0.34621707902E+03  0.34621707902E+03  0.00000000000E+00 0. -1.
          2   -1    0    0  501    0  0.00000000000E+00 -0.00000000000E+00 -0.50889510594E+01  0.50889510594E+01  0.00000000000E+00 0. -1.
          2    1    1    2  502    0 -0.17571960060E+02 -0.22499697898E+02  0.41794635073E+02  0.50614244109E+02  0.00000000000E+00 0. -1.
         -2    1    1    2    0  502  0.17571960060E+02  0.22499697898E+02  0.29933349289E+03  0.30069178597E+03  0.00000000000E+00 0. -1.
<mgrwt>
<rscale>  2 0.28548383E+02</rscale>
<asrwt>0</asrwt>
<pdfrwt beam="2">  1        2 0.78291582E-03 0.28548383E+02</pdfrwt>
<pdfrwt beam="1">  1       -2 0.53264147E-01 0.28548383E+02</pdfrwt>
<totfact> 0.46601585E+04</totfact>
</mgrwt>
</event>
<event>
 4    1  0.1352171E+004  0.4179391E+02  0.7546771E-02  0.1495410E+00
          2   -1    0    0  501    0  0.00000000000E+00  0.00000000000E+00  0.84299417798E+03  0.84299417798E+03  0.00000000000E+00 0. -1.
         -2   -1    0    0    0  501 -0.00000000000E+00 -0.00000000000E+00 -0.73143029128E+01  0.73143029128E+01  0.00000000000E+00 0.  1.
          2    1    1    2  502    0 -0.20847692605E+02 -0.36222982627E+02  0.77777056151E+03  0.77889266084E+03  0.00000000000E+00 0. -1.
         -2    1    1    2    0  502  0.20847692605E+02  0.36222982627E+02  0.57909313559E+02  0.71415820056E+02  0.00000000000E+00 0.  1.
<mgrwt>
<rscale>  2 0.41793908E+02</rscale>
<asrwt>0</asrwt>
<pdfrwt beam="1">  1        2 0.12969134E+00 0.41793908E+02</pdfrwt>
<pdfrwt beam="2">  1       -2 0.11252780E-02 0.41793908E+02</pdfrwt>
<totfact> 0.48020531E+04</totfact>
</mgrwt>
</event>
<event>
 4    1  0.1352171E+004  0.3974337E+02  0.7546771E-02  0.1510108E+00
          2   -1    0    0  501    0  0.00000000000E+00  0.00000000000E+00  0.17305031014E+04  0.17305031014E+04  0.00000000000E+00 0. -1.
         -2   -1    0    0    0  501 -0.00000000000E+00 -0.00000000000E+00 -0.63891929843E+01  0.63891929843E+01  0.00000000000E+00 0.  1.
          2    1    1    2  502    0 -0.97527068751E+01  0.38528177800E+02  0.16660804460E+04  0.16665544060E+04  0.00000000000E+00 0. -1.
         -2    1    1    2    0  502  0.97527068751E+01 -0.38528177800E+02  0.58033462432E+02  0.70337888353E+02  0.00000000000E+00 0.  1.
<mgrwt>
<rscale>  2 0.39743374E+02</rscale>
<asrwt>0</asrwt>
<pdfrwt beam="1">  1        2 0.26623087E+00 0.39743374E+02</pdfrwt>
<pdfrwt beam="2">  1       -2 0.98295414E-03 0.39743374E+02</pdfrwt>
<totfact> 0.19845683E+04</totfact>
</mgrwt>
</event>
<event>
 4    1  0.1609400E+004  0.2579353E+02  0.7546771E-02  0.1649859E+00
         -2   -1    0    0    0  501 -0.00000000000E+00  0.00000000000E+00  0.57287919702E+02  0.57287919702E+02  0.00000000000E+00 0. -1.
          2   -1    0    0  501    0  0.00000000000E+00 -0.00000000000E+00 -0.78663117591E+03  0.78663117591E+03  0.00000000000E+00 0.  1.
          2    1    1    2  502    0 -0.25719932786E+02  0.19471503904E+01 -0.78350480757E+03  0.78392926328E+03  0.00000000000E+00 0.  1.
         -2    1    1    2    0  502  0.25719932786E+02 -0.19471503904E+01  0.54161551364E+02  0.59989832333E+02  0.00000000000E+00 0. -1.
<mgrwt>
<rscale>  2 0.25793533E+02</rscale>
<asrwt>0</asrwt>
<pdfrwt beam="2">  1        2 0.12102018E+00 0.25793533E+02</pdfrwt>
<pdfrwt beam="1">  1       -2 0.88135261E-02 0.25793533E+02</pdfrwt>
<totfact> 0.26653275E+03</totfact>
</mgrwt>
</event>
<event>
 4    1  0.1352171E+004  0.2182890E+02  0.7546771E-02  0.1711228E+00
         -2   -1    0    0    0  501 -0.00000000000E+00  0.00000000000E+00  0.44603476609E+00  0.44603476609E+00  0.00000000000E+00 0. -1.
          2   -1    0    0  501    0  0.00000000000E+00 -0.00000000000E+00 -0.12481371001E+04  0.12481371001E+04  0.00000000000E+00 0. -1.
          2    1    1    2  502    0  0.30179704102E+01  0.21619262693E+02 -0.86081440413E+03  0.86109113283E+03  0.00000000000E+00 0. -1.
         -2    1    1    2    0  502 -0.30179704102E+01 -0.21619262693E+02 -0.38687666117E+03  0.38749200201E+03  0.00000000000E+00 0. -1.
<mgrwt>
<rscale>  2 0.21828895E+02</rscale>
<asrwt>0</asrwt>
<pdfrwt beam="2">  1        2 0.19202115E+00 0.21828895E+02</pdfrwt>
<pdfrwt beam="1">  1       -2 0.68620713E-04 0.21828895E+02</pdfrwt>
<totfact> 0.10759249E+06</totfact>
</mgrwt>
</event>
<event>
 4    1  0.1352171E+004  0.2022273E+02  0.7546771E-02  0.1740935E+00
          2   -1    0    0  501    0  0.00000000000E+00  0.00000000000E+00  0.24313647253E+01  0.24313647253E+01  0.00000000000E+00 0. -1.
         -2   -1    0    0    0  501 -0.00000000000E+00 -0.00000000000E+00 -0.18781770294E+03  0.18781770294E+03  0.00000000000E+00 0.  1.
          2    1    1    2  502    0 -0.73656594105E+01  0.18833638404E+02 -0.61951091971E+02  0.65168218254E+02  0.00000000000E+00 0. -1.
         -2    1    1    2    0  502  0.73656594105E+01 -0.18833638404E+02 -0.12343524624E+03  0.12508084941E+03  0.00000000000E+00 0.  1.
<mgrwt>
<rscale>  2 0.20222732E+02</rscale>
<asrwt>0</asrwt>
<pdfrwt beam="1">  1        2 0.37405614E-03 0.20222732E+02</pdfrwt>
<pdfrwt beam="2">  1       -2 0.28895029E-01 0.20222732E+02</pdfrwt>
<totfact> 0.33725866E+05</totfact>
</mgrwt>
</event>
<event>
 4    1  0.1352171E+004  0.3110926E+02  0.7546771E-02  0.1586141E+00
          2   -1    0    0  501    0  0.00000000000E+00  0.00000000000E+00  0.54347702686E+03  0.54347702686E+03  0.00000000000E+00 0. -1.
         -2   -1    0    0    0  501 -0.00000000000E+00 -0.00000000000E+00 -0.36835957444E+01  0.36835957444E+01  0.00000000000E+00 0. -1.
          2    1    1    2  502    0  0.18669688932E+02 -0.24884304247E+02  0.46652813957E+03  0.46756421045E+03  0.00000000000E+00 0. -1.
         -2    1    1    2    0  502 -0.18669688932E+02  0.24884304247E+02  0.73265291547E+02  0.79596412156E+02  0.00000000000E+00 0. -1.
<mgrwt>
<rscale>  2 0.31109257E+02</rscale>
<asrwt>0</asrwt>
<pdfrwt beam="1">  1        2 0.83611787E-01 0.31109257E+02</pdfrwt>
<pdfrwt beam="2">  1       -2 0.56670747E-03 0.31109257E+02</pdfrwt>
<totfact> 0.18919015E+05</totfact>
</mgrwt>
</event>
<event>
 4    1  0.1352171E+004  0.2292496E+02  0.7546771E-02  0.1692729E+00
         -2   -1    0    0    0  501 -0.00000000000E+00  0.00000000000E+00  0.11373758123E+01  0.11373758123E+01  0.00000000000E+00 0. -1.
          2   -1    0    0  501    0  0.00000000000E+00 -0.00000000000E+00 -0.73066189562E+03  0.73066189562E+03  0.00000000000E+00 0.  1.
          2    1    1    2  502    0  0.22547240455E+02  0.41443532521E+01 -0.58660519240E+03  0.58705298353E+03  0.00000000000E+00 0.  1.
         -2    1    1    2    0  502 -0.22547240455E+02 -0.41443532521E+01 -0.14291932741E+03  0.14474628791E+03  0.00000000000E+00 0. -1.
<mgrwt>
<rscale>  2 0.22924958E+02</rscale>
<asrwt>0</asrwt>
<pdfrwt beam="2">  1        2 0.11240927E+00 0.22924958E+02</pdfrwt>
<pdfrwt beam="1">  1       -2 0.17498128E-03 0.22924958E+02</pdfrwt>
<totfact> 0.61570424E+05</totfact>
</mgrwt>
</event>
<event>
 4    1  0.1352171E+004  0.3175244E+02  0.7546771E-02  0.1579488E+00
         -2   -1    0    0    0  501 -0.00000000000E+00  0.00000000000E+00  0.98123519908E+01  0.98123519908E+01  0.00000000000E+00 0. -1.
          2   -1    0    0  501    0  0.00000000000E+00 -0.00000000000E+00 -0.18180865198E+03  0.18180865198E+03  0.00000000000E+00 0. -1.
          2    1    1    2  502    0  0.31025029585E+02 -0.67576106945E+01 -0.14917834147E+03  0.15252014728E+03  0.00000000000E+00 0. -1.
         -2    1    1    2    0  502 -0.31025029585E+02  0.67576106945E+01 -0.22817958525E+02  0.39100856695E+02  0.00000000000E+00 0. -1.
<mgrwt>
<rscale>  2 0.31752445E+02</rscale>
<asrwt>0</asrwt>
<pdfrwt beam="2">  1        2 0.27970561E-01 0.31752445E+02</pdfrwt>
<pdfrwt beam="1">  1       -2 0.15095927E-02 0.31752445E+02</pdfrwt>
<totfact> 0.15082507E+05</totfact>
</mgrwt>
</event>
<event>
 4    1  0.1352171E+004  0.2167558E+02  0.7546771E-02  0.1713924E+00
          2   -1    0    0  501    0  0.00000000000E+00  0.00000000000E+00  0.10029175712E+04  0.10029175712E+04  0.00000000000E+00 0. -1.
         -2   -1    0    0    0  501 -0.00000000000E+00 -0.00000000000E+00 -0.49395411289E+00  0.49395411289E+00  0.00000000000E+00 0.  1.
          2    1    1    2  502    0  0.20321713623E+02 -0.75404802793E+01  0.61518185586E+03  0.61556360083E+03  0.00000000000E+00 0. -1.
         -2    1    1    2    0  502 -0.20321713623E+02  0.75404802793E+01  0.38724176120E+03  0.38784792446E+03  0.00000000000E+00 0.  1.
<mgrwt>
<rscale>  2 0.21675583E+02</rscale>
<asrwt>0</asrwt>
<pdfrwt beam="1">  1        2 0.15429338E+00 0.21675583E+02</pdfrwt>
<pdfrwt beam="2">  1       -2 0.75993743E-04 0.21675583E+02</pdfrwt>
<totfact> 0.12547999E+06</totfact>
</mgrwt>
</event>
<event>
 4    1  0.1352171E+004  0.3729587E+02  0.7546771E-02  0.1529109E+00
         -2   -1    0    0    0  501 -0.00000000000E+00  0.00000000000E+00  0.52737654558E+03  0.52737654558E+03  0.00000000000E+00 0.  1.
          2   -1    0    0  501    0  0.00000000000E+00 -0.00000000000E+00 -0.14197150881E+02  0.14197150881E+02  0.00000000000E+00 0. -1.
          2    1    1    2  502    0  0.34848816174E+02  0.13286902320E+02  0.12247543989E+02  0.39255370279E+02  0.00000000000E+00 0. -1.
         -2    1    1    2    0  502 -0.34848816174E+02 -0.13286902320E+02  0.50093185071E+03  0.50231832618E+03  0.00000000000E+00 0.  1.
<mgrwt>
<rscale>  2 0.37295868E+02</rscale>
<asrwt>0</asrwt>
<pdfrwt beam="2">  1        2 0.21841775E-02 0.37295868E+02</pdfrwt>
<pdfrwt beam="1">  1       -2 0.81134838E-01 0.37295868E+02</pdfrwt>
<totfact> 0.54105355E+03</totfact>
</mgrwt>
</event>
<event>
 4    1  0.1352171E+004  0.2998923E+02  0.7546771E-02  0.1598208E+00
          2   -1    0    0  501    0  0.00000000000E+00  0.00000000000E+00  0.40072045217E+01  0.40072045217E+01  0.00000000000E+00 0. -1.
         -2   -1    0    0    0  501 -0.00000000000E+00 -0.00000000000E+00 -0.22538597937E+03  0.22538597937E+03  0.00000000000E+00 0. -1.
          2    1    1    2  502    0 -0.79702551108E+01 -0.28910703296E+02 -0.10323596483E+03  0.10750357281E+03  0.00000000000E+00 0. -1.
         -2    1    1    2    0  502  0.79702551108E+01  0.28910703296E+02 -0.11814281001E+03  0.12188961108E+03  0.00000000000E+00 0. -1.
<mgrwt>
<rscale>  2 0.29989227E+02</rscale>
<asrwt>0</asrwt>
<pdfrwt beam="1">  1        2 0.61649296E-03 0.29989227E+02</pdfrwt>
<pdfrwt beam="2">  1       -2 0.34674768E-01 0.29989227E+02</pdfrwt>
<totfact> 0.14341406E+05</totfact>
</mgrwt>
</event>
<event>
 4    1  0.1352171E+004  0.2532212E+02  0.7546771E-02  0.1656418E+00
          2   -1    0    0  501    0  0.00000000000E+00  0.00000000000E+00  0.10762689847E+04  0.10762689847E+04  0.00000000000E+00 0. -1.
         -2   -1    0    0    0  501 -0.00000000000E+00 -0.00000000000E+00 -0.89564252437E+00  0.89564252437E+00  0.00000000000E+00 0. -1.
          2    1    1    2  502    0  0.21827626806E+02 -0.12836057579E+02  0.84932615169E+03  0.84970354926E+03  0.00000000000E+00 0. -1.
         -2    1    1    2    0  502 -0.21827626806E+02  0.12836057579E+02  0.22604719049E+03  0.22746107797E+03  0.00000000000E+00 0. -1.
<mgrwt>
<rscale>  2 0.25322118E+02</rscale>
<asrwt>0</asrwt>
<pdfrwt beam="1">  1        2 0.16557881E+00 0.25322118E+02</pdfrwt>
<pdfrwt beam="2">  1       -2 0.13779202E-03 0.25322118E+02</pdfrwt>
<totfact> 0.54786851E+05</totfact>
</mgrwt>
</event>
<event>
 4    1  0.1352171E+004  0.2396926E+02  0.7546771E-02  0.1676264E+00
         -2   -1    0    0    0  501 -0.00000000000E+00  0.00000000000E+00  0.17568091717E+02  0.17568091717E+02  0.00000000000E+00 0. -1.
          2   -1    0    0  501    0  0.00000000000E+00 -0.00000000000E+00 -0.74949768056E+02  0.74949768056E+02  0.00000000000E+00 0.  1.
          2    1    1    2  502    0  0.21514315695E+02 -0.10566922766E+02 -0.63421115667E+02  0.67799436199E+02  0.00000000000E+00 0.  1.
         -2    1    1    2    0  502 -0.21514315695E+02  0.10566922766E+02  0.60394393279E+01  0.24718423573E+02  0.00000000000E+00 0. -1.
<mgrwt>
<rscale>  2 0.23969264E+02</rscale>
<asrwt>0</asrwt>
<pdfrwt beam="2">  1        2 0.11530734E-01 0.23969264E+02</pdfrwt>
<pdfrwt beam="1">  1       -2 0.27027833E-02 0.23969264E+02</pdfrwt>
<totfact> 0.16425367E+05</totfact>
</mgrwt>
</event>
<event>
 4    1  0.1352171E+004  0.2750078E+02  0.7546771E-02  0.1627480E+00
          2   -1    0    0  501    0  0.00000000000E+00  0.00000000000E+00  0.56667225869E+03  0.56667225869E+03  0.00000000000E+00 0.  1.
         -2   -1    0    0    0  501 -0.00000000000E+00 -0.00000000000E+00 -0.33026221392E+01  0.33026221392E+01  0.00000000000E+00 0.  1.
          2    1    1    2  502    0 -0.26936294711E+02  0.55433486253E+01  0.50167786355E+03  0.50243106140E+03  0.00000000000E+00 0.  1.
         -2    1    1    2    0  502  0.26936294711E+02 -0.55433486253E+01  0.61691773008E+02  0.67543819433E+02  0.00000000000E+00 0.  1.
<mgrwt>
<rscale>  2 0.27500776E+02</rscale>
<asrwt>0</asrwt>
<pdfrwt beam="1">  1        2 0.87180271E-01 0.27500776E+02</pdfrwt>
<pdfrwt beam="2">  1       -2 0.50809616E-03 0.27500776E+02</pdfrwt>
<totfact> 0.20402557E+05</totfact>
</mgrwt>
</event>
<event>
 4    1  0.1352171E+004  0.3747717E+02  0.7546771E-02  0.1527642E+00
         -2   -1    0    0    0  501 -0.00000000000E+00  0.00000000000E+00  0.13013775129E+03  0.13013775129E+03  0.00000000000E+00 0.  1.
          2   -1    0    0  501    0  0.00000000000E+00 -0.00000000000E+00 -0.11192177666E+02  0.11192177666E+02  0.00000000000E+00 0.  1.
          2    1    1    2  502    0 -0.98686929358E+01 -0.36154472761E+02  0.72823241417E+02  0.81900924850E+02  0.00000000000E+00 0.  1.
         -2    1    1    2    0  502  0.98686929358E+01  0.36154472761E+02  0.46122332212E+02  0.59429004110E+02  0.00000000000E+00 0.  1.
<mgrwt>
<rscale>  2 0.37477172E+02</rscale>
<asrwt>0</asrwt>
<pdfrwt beam="2">  1        2 0.17218736E-02 0.37477172E+02</pdfrwt>
<pdfrwt beam="1">  1       -2 0.20021191E-01 0.37477172E+02</pdfrwt>
<totfact> 0.99309124E+04</totfact>
</mgrwt>
</event>
<event>
 4    1  0.1352171E+004  0.2748796E+02  0.7546771E-02  0.1627640E+00
          2   -1    0    0  501    0  0.00000000000E+00  0.00000000000E+00  0.13752560502E+03  0.13752560502E+03  0.00000000000E+00 0.  1.
         -2   -1    0    0    0  501 -0.00000000000E+00 -0.00000000000E+00 -0.98654513840E+03  0.98654513840E+03  0.00000000000E+00 0.  1.
          2    1    1    2  502    0  0.22608361619E+02  0.15634902489E+02  0.13595840578E+03  0.13870932302E+03  0.00000000000E+00 0.  1.
         -2    1    1    2    0  502 -0.22608361619E+02 -0.15634902489E+02 -0.98497793915E+03  0.98536142040E+03  0.00000000000E+00 0.  1.
<mgrwt>
<rscale>  2 0.27487964E+02</rscale>
<asrwt>0</asrwt>
<pdfrwt beam="1">  1        2 0.21157785E-01 0.27487964E+02</pdfrwt>
<pdfrwt beam="2">  1       -2 0.15177617E+00 0.27487964E+02</pdfrwt>
<totfact> 0.82203026E+01</totfact>
</mgrwt>
</event>
<event>
 4    1  0.1352171E+004  0.2093753E+02  0.7546771E-02  0.1727302E+00
          2   -1    0    0  501    0  0.00000000000E+00  0.00000000000E+00  0.75677565486E+02  0.75677565486E+02  0.00000000000E+00 0.  1.
         -2   -1    0    0    0  501 -0.00000000000E+00 -0.00000000000E+00 -0.98745157760E+01  0.98745157760E+01  0.00000000000E+00 0.  1.
          2    1    1    2  502    0 -0.12712903716E+02  0.16636172976E+02  0.60403726020E+02  0.63929572885E+02  0.00000000000E+00 0.  1.
         -2    1    1    2    0  502  0.12712903716E+02 -0.16636172976E+02  0.53993236897E+01  0.21622508376E+02  0.00000000000E+00 0.  1.
<mgrwt>
<rscale>  2 0.20937530E+02</rscale>
<asrwt>0</asrwt>
<pdfrwt beam="1">  1        2 0.11642702E-01 0.20937530E+02</pdfrwt>
<pdfrwt beam="2">  1       -2 0.15191563E-02 0.20937530E+02</pdfrwt>
<totfact> 0.34455520E+05</totfact>
</mgrwt>
</event>
<event>
 4    1  0.1352171E+004  0.2556090E+02  0.7546771E-02  0.1653074E+00
         -2   -1    0    0    0  501 -0.00000000000E+00  0.00000000000E+00  0.49375704719E+02  0.49375704719E+02  0.00000000000E+00 0.  1.
          2   -1    0    0  501    0  0.00000000000E+00 -0.00000000000E+00 -0.39526351716E+02  0.39526351716E+02  0.00000000000E+00 0.  1.
          2    1    1    2  502    0  0.11661279078E+02 -0.22745855840E+02 -0.31330191159E+02  0.40434394588E+02  0.00000000000E+00 0.  1.
         -2    1    1    2    0  502 -0.11661279078E+02  0.22745855840E+02  0.41179544161E+02  0.48467661847E+02  0.00000000000E+00 0.  1.
<mgrwt>
<rscale>  2 0.25560896E+02</rscale>
<asrwt>0</asrwt>
<pdfrwt beam="2">  1        2 0.60809772E-02 0.25560896E+02</pdfrwt>
<pdfrwt beam="1">  1       -2 0.75962622E-02 0.25560896E+02</pdfrwt>
<totfact> 0.81574901E+04</totfact>
</mgrwt>
</event>
<event>
 4    1  0.1352171E+004  0.3811972E+02  0.7546771E-02  0.1522522E+00
         -2   -1    0    0    0  501 -0.00000000000E+00  0.00000000000E+00  0.51664819693E+02  0.51664819693E+02  0.00000000000E+00 0. -1.
          2   -1    0    0  501    0  0.00000000000E+00 -0.00000000000E+00 -0.82563515881E+03  0.82563515881E+03  0.00000000000E+00 0.  1.
          2    1    1    2  502    0  0.37491040651E+02  0.68945445210E+01 -0.81809898039E+03  0.81898660221E+03  0.00000000000E+00 0.  1.
         -2    1    1    2    0  502 -0.37491040651E+02 -0.68945445210E+01  0.44128641281E+02  0.58313376292E+02  0.00000000000E+00 0. -1.
<mgrwt>
<rscale>  2 0.38119718E+02</rscale>
<asrwt>0</asrwt>
<pdfrwt beam="2">  1        2 0.12702078E+00 0.38119718E+02</pdfrwt>
<pdfrwt beam="1">  1       -2 0.79484344E-02 0.38119718E+02</pdfrwt>
<totfact> 0.30142401E+03</totfact>
</mgrwt>
</event>
<event>
 4    1  0.1352171E+004  0.3084800E+02  0.7546771E-02  0.1588900E+00
         -2   -1    0    0    0  501 -0.00000000000E+00  0.00000000000E+00  0.63763873774E+01  0.63763873774E+01  0.00000000000E+00 0.  1.
          2   -1    0    0  501    0  0.00000000000E+00 -0.00000000000E+00 -0.17345077421E+03  0.17345077421E+03  0.00000000000E+00 0. -1.
          2    1    1    2  502    0 -0.30849181253E+00  0.30846440325E+02 -0.49943232804E+02  0.58701997844E+02  0.00000000000E+00 0. -1.
         -2    1    1    2    0  502  0.30849181253E+00 -0.30846440325E+02 -0.11713115403E+03  0.12112516374E+03  0.00000000000E+00 0.  1.
<mgrwt>
<rscale>  2 0.30847998E+02</rscale>
<asrwt>0</asrwt>
<pdfrwt beam="2">  1        2 0.26684739E-01 0.30847998E+02</pdfrwt>
<pdfrwt beam="1">  1       -2 0.98098251E-03 0.30847998E+02</pdfrwt>
<totfact> 0.28422474E+05</totfact>
</mgrwt>
</event>
<event>
 4    1  0.1352171E+004  0.2069032E+02  0.7546771E-02  0.1731939E+00
         -2   -1    0    0    0  501 -0.00000000000E+00  0.00000000000E+00  0.12400431048E+03  0.12400431048E+03  0.00000000000E+00 0. -1.
          2   -1    0    0  501    0  0.00000000000E+00 -0.00000000000E+00 -0.30245424825E+03  0.30245424825E+03  0.00000000000E+00 0.  1.
          2    1    1    2  502    0  0.65103984480E+01  0.19639345239E+02 -0.30123385665E+03  0.30194358009E+03  0.00000000000E+00 0.  1.
         -2    1    1    2    0  502 -0.65103984480E+01 -0.19639345239E+02  0.12278391888E+03  0.12451497864E+03  0.00000000000E+00 0. -1.
<mgrwt>
<rscale>  2 0.20690316E+02</rscale>
<asrwt>0</asrwt>
<pdfrwt beam="2">  1        2 0.46531422E-01 0.20690316E+02</pdfrwt>
<pdfrwt beam="1">  1       -2 0.19077587E-01 0.20690316E+02</pdfrwt>
<totfact> 0.21340340E+03</totfact>
</mgrwt>
</event>
<event>
 4    1  0.1352171E+004  0.3432718E+02  0.7546771E-02  0.1554658E+00
         -2   -1    0    0    0  501 -0.00000000000E+00  0.00000000000E+00  0.66777498671E+02  0.66777498671E+02  0.00000000000E+00 0.  1.
          2   -1    0    0  501    0  0.00000000000E+00 -0.00000000000E+00 -0.10104418265E+03  0.10104418265E+03  0.00000000000E+00 0. -1.
          2    1    1    2  502    0 -0.13710292441E+02 -0.31470351459E+02 -0.93365941864E+02  0.99476400417E+02  0.00000000000E+00 0. -1.
         -2    1    1    2    0  502  0.13710292441E+02  0.31470351459E+02  0.59099257883E+02  0.68345280906E+02  0.00000000000E+00 0.  1.
<mgrwt>
<rscale>  2 0.34327178E+02</rscale>
<asrwt>0</asrwt>
<pdfrwt beam="2">  1        2 0.15545259E-01 0.34327178E+02</pdfrwt>
<pdfrwt beam="1">  1       -2 0.10273461E-01 0.34327178E+02</pdfrwt>
<totfact> 0.18473986E+04</totfact>
</mgrwt>
</event>
<event>
 4    1  0.1352171E+004  0.2751116E+02  0.7546771E-02  0.1627350E+00
         -2   -1    0    0    0  501 -0.00000000000E+00  0.00000000000E+00  0.27706292963E+03  0.27706292963E+03  0.00000000000E+00 0.  1.
          2   -1    0    0  501    0  0.00000000000E+00 -0.00000000000E+00 -0.14723843863E+03  0.14723843863E+03  0.00000000000E+00 0.  1.
          2    1    1    2  502    0  0.23842204441E+02 -0.13726365105E+02 -0.14526119082E+03  0.14784342181E+03  0.00000000000E+00 0.  1.
         -2    1    1    2    0  502 -0.23842204441E+02  0.13726365105E+02  0.27508568182E+03  0.27645794645E+03  0.00000000000E+00 0.  1.
<mgrwt>
<rscale>  2 0.27511158E+02</rscale>
<asrwt>0</asrwt>
<pdfrwt beam="2">  1        2 0.22652067E-01 0.27511158E+02</pdfrwt>
<pdfrwt beam="1">  1       -2 0.42625066E-01 0.27511158E+02</pdfrwt>
<totfact> 0.11440965E+03</totfact>
</mgrwt>
</event>
<event>
 4    1  0.1352171E+004  0.3863876E+02  0.7546771E-02  0.1518475E+00
         -2   -1    0    0    0  501 -0.00000000000E+00  0.00000000000E+00  0.28544851476E+01  0.28544851476E+01  0.00000000000E+00 0.  1.
          2   -1    0    0  501    0  0.00000000000E+00 -0.00000000000E+00 -0.71940705398E+03  0.71940705398E+03  0.00000000000E+00 0.  1.
          2    1    1    2  502    0  0.27862599681E+02 -0.26769930687E+02 -0.54695949362E+03  0.54832257049E+03  0.00000000000E+00 0.  1.
         -2    1    1    2    0  502 -0.27862599681E+02  0.26769930687E+02 -0.16959307521E+03  0.17393896864E+03  0.00000000000E+00 0.  1.
<mgrwt>
<rscale>  2 0.38638758E+02</rscale>
<asrwt>0</asrwt>
<pdfrwt beam="2">  1        2 0.11067813E+00 0.38638758E+02</pdfrwt>
<pdfrwt beam="1">  1       -2 0.43915106E-03 0.38638758E+02</pdfrwt>
<totfact> 0.20723893E+05</totfact>
</mgrwt>
</event>
<event>
 4    1  0.1352171E+004  0.2184850E+02  0.7546771E-02  0.1710885E+00
         -2   -1    0    0    0  501 -0.00000000000E+00  0.00000000000E+00  0.36473907484E+03  0.36473907484E+03  0.00000000000E+00 0.  1.
          2   -1    0    0  501    0  0.00000000000E+00 -0.00000000000E+00 -0.53580564731E+01  0.53580564731E+01  0.00000000000E+00 0.  1.
          2    1    1    2  502    0  0.21592541783E+02 -0.33345581134E+01  0.18821759256E+02  0.28837748871E+02  0.00000000000E+00 0.  1.
         -2    1    1    2    0  502 -0.21592541783E+02  0.33345581134E+01  0.34055925911E+03  0.34125938244E+03  0.00000000000E+00 0.  1.
<mgrwt>
<rscale>  2 0.21848504E+02</rscale>
<asrwt>0</asrwt>
<pdfrwt beam="2">  1        2 0.82431667E-03 0.21848504E+02</pdfrwt>
<pdfrwt beam="1">  1       -2 0.56113684E-01 0.21848504E+02</pdfrwt>
<totfact> 0.36859356E+04</totfact>
</mgrwt>
</event>
<event>
 4    1  0.1352171E+004  0.2681918E+02  0.7546771E-02  0.1636168E+00
          2   -1    0    0  501    0  0.00000000000E+00  0.00000000000E+00  0.23548728590E+03  0.23548728590E+03  0.00000000000E+00 0.  1.
         -2   -1    0    0    0  501 -0.00000000000E+00 -0.00000000000E+00 -0.57301850962E+01  0.57301850962E+01  0.00000000000E+00 0. -1.
          2    1    1    2  502    0  0.55089226873E+01  0.26247284052E+02  0.19729644331E+03  0.19911091053E+03  0.00000000000E+00 0.  1.
         -2    1    1    2    0  502 -0.55089226873E+01 -0.26247284052E+02  0.32460657489E+02  0.42106560461E+02  0.00000000000E+00 0. -1.
<mgrwt>
<rscale>  2 0.26819175E+02</rscale>
<asrwt>0</asrwt>
<pdfrwt beam="1">  1        2 0.36228806E-01 0.26819175E+02</pdfrwt>
<pdfrwt beam="2">  1       -2 0.88156712E-03 0.26819175E+02</pdfrwt>
<totfact> 0.23217948E+05</totfact>
</mgrwt>
</event>
<event>
 4    1  0.1352171E+004  0.2093886E+02  0.7546771E-02  0.1727277E+00
         -2   -1    0    0    0  501 -0.00000000000E+00  0.00000000000E+00  0.44096012920E+02  0.44096012920E+02  0.00000000000E+00 0.  1.
          2   -1    0    0  501    0  0.00000000000E+00 -0.00000000000E+00 -0.69948302334E+02  0.69948302334E+02  0.00000000000E+00 0. -1.
          2    1    1    2  502    0 -0.97984330700E+01  0.18504776125E+02 -0.65740349270E+02  0.68994416819E+02  0.00000000000E+00 0. -1.
         -2    1    1    2    0  502  0.97984330700E+01 -0.18504776125E+02  0.39888059855E+02  0.45049898436E+02  0.00000000000E+00 0.  1.
<mgrwt>
<rscale>  2 0.20938864E+02</rscale>
<asrwt>0</asrwt>
<pdfrwt beam="2">  1        2 0.10761277E-01 0.20938864E+02</pdfrwt>
<pdfrwt beam="1">  1       -2 0.67840019E-02 0.20938864E+02</pdfrwt>
<totfact> 0.46950388E+04</totfact>
</mgrwt>
</event>
<event>
 4    1  0.1352171E+004  0.3556026E+02  0.7546771E-02  0.1543681E+00
          2   -1    0    0  501    0  0.00000000000E+00  0.00000000000E+00  0.13540001095E+04  0.13540001095E+04  0.00000000000E+00 0. -1.
         -2   -1    0    0    0  501 -0.00000000000E+00 -0.00000000000E+00 -0.15680671079E+01  0.15680671079E+01  0.00000000000E+00 0.  1.
          2    1    1    2  502    0 -0.36766335906E-02  0.35560256592E+02  0.11072415792E+04  0.11078124600E+04  0.00000000000E+00 0. -1.
         -2    1    1    2    0  502  0.36766335906E-02 -0.35560256592E+02  0.24519046316E+03  0.24775571656E+03  0.00000000000E+00 0.  1.
<mgrwt>
<rscale>  2 0.35560257E+02</rscale>
<asrwt>0</asrwt>
<pdfrwt beam="1">  1        2 0.20830678E+00 0.35560257E+02</pdfrwt>
<pdfrwt beam="2">  1       -2 0.24124218E-03 0.35560257E+02</pdfrwt>
<totfact> 0.20214356E+05</totfact>
</mgrwt>
</event>
<event>
 4    1  0.1352171E+004  0.2079119E+02  0.7546771E-02  0.1730037E+00
          2   -1    0    0  501    0  0.00000000000E+00  0.00000000000E+00  0.53574923295E+03  0.53574923295E+03  0.00000000000E+00 0.  1.
         -2   -1    0    0    0  501 -0.00000000000E+00 -0.00000000000E+00 -0.82899015806E+00  0.82899015806E+00  0.00000000000E+00 0. -1.
          2    1    1    2  502    0 -0.19456656880E+02 -0.73288496443E+01  0.31129710045E+03  0.31199063813E+03  0.00000000000E+00 0.  1.
         -2    1    1    2    0  502  0.19456656880E+02  0.73288496443E+01  0.22362314235E+03  0.22458758498E+03  0.00000000000E+00 0. -1.
<mgrwt>
<rscale>  2 0.20791189E+02</rscale>
<asrwt>0</asrwt>
<pdfrwt beam="1">  1        2 0.82422682E-01 0.20791189E+02</pdfrwt>
<pdfrwt beam="2">  1       -2 0.12753738E-03 0.20791189E+02</pdfrwt>
<totfact> 0.12551816E+06</totfact>
</mgrwt>
</event>
<event>
 4    1  0.1352171E+004  0.2497020E+02  0.7546771E-02  0.1661430E+00
          2   -1    0    0  501    0  0.00000000000E+00  0.00000000000E+00  0.76336948988E+03  0.76336948988E+03  0.00000000000E+00 0. -1.
         -2   -1    0    0    0  501 -0.00000000000E+00 -0.00000000000E+00 -0.56976111985E+01  0.56976111985E+01  0.00000000000E+00 0.  1.
          2    1    1    2  502    0  0.66645579937E+01 -0.24064381587E+02  0.73474118194E+03  0.73516536591E+03  0.00000000000E+00 0. -1.
         -2    1    1    2    0  502 -0.66645579937E+01  0.24064381587E+02  0.22930696743E+02  0.33901735170E+02  0.00000000000E+00 0.  1.
<mgrwt>
<rscale>  2 0.24970198E+02</rscale>
<asrwt>0</asrwt>
<pdfrwt beam="1">  1        2 0.11744138E+00 0.24970198E+02</pdfrwt>
<pdfrwt beam="2">  1       -2 0.87655617E-03 0.24970198E+02</pdfrwt>
<totfact> 0.69376264E+04</totfact>
</mgrwt>
</event>
<event>
 4    1  0.1352171E+004  0.2232843E+02  0.7546771E-02  0.1702633E+00
         -2   -1    0    0    0  501 -0.00000000000E+00  0.00000000000E+00  0.29951690268E+02  0.29951690268E+02  0.00000000000E+00 0.  1.
          2   -1    0    0  501    0  0.00000000000E+00 -0.00000000000E+00 -0.83534993373E+03  0.83534993373E+03  0.00000000000E+00 0. -1.
          2    1    1    2  502    0  0.21574022834E+02  0.57550139332E+01 -0.83101768066E+03  0.83131759527E+03  0.00000000000E+00 0. -1.
         -2    1    1    2    0  502 -0.21574022834E+02 -0.57550139332E+01  0.25619437191E+02  0.33984028729E+02  0.00000000000E+00 0.  1.
<mgrwt>
<rscale>  2 0.22328427E+02</rscale>
<asrwt>0</asrwt>
<pdfrwt beam="2">  1        2 0.12851537E+00 0.22328427E+02</pdfrwt>
<pdfrwt beam="1">  1       -2 0.46079525E-02 0.22328427E+02</pdfrwt>
<totfact> 0.62659493E+03</totfact>
</mgrwt>
</event>
<event>
 4    1  0.1352171E+004  0.2703416E+02  0.7546771E-02  0.1633394E+00
          2   -1    0    0  501    0  0.00000000000E+00  0.00000000000E+00  0.21441836828E+03  0.21441836828E+03  0.00000000000E+00 0. -1.
         -2   -1    0    0    0  501 -0.00000000000E+00 -0.00000000000E+00 -0.29631713791E+03  0.29631713791E+03  0.00000000000E+00 0.  1.
          2    1    1    2  502    0 -0.27031687931E+02 -0.36585230822E+00  0.21294538604E+03  0.21465456771E+03  0.00000000000E+00 0. -1.
         -2    1    1    2    0  502  0.27031687931E+02  0.36585230822E+00 -0.29484415567E+03  0.29608093849E+03  0.00000000000E+00 0.  1.
<mgrwt>
<rscale>  2 0.27034164E+02</rscale>
<asrwt>0</asrwt>
<pdfrwt beam="1">  1        2 0.32987442E-01 0.27034164E+02</pdfrwt>
<pdfrwt beam="2">  1       -2 0.45587252E-01 0.27034164E+02</pdfrwt>
<totfact> 0.68472218E+02</totfact>
</mgrwt>
</event>
<event>
 4    1  0.1352171E+004  0.3403678E+02  0.7546771E-02  0.1557324E+00
         -2   -1    0    0    0  501 -0.00000000000E+00  0.00000000000E+00  0.28283668583E+02  0.28283668583E+02  0.00000000000E+00 0. -1.
          2   -1    0    0  501    0  0.00000000000E+00 -0.00000000000E+00 -0.77947407019E+03  0.77947407019E+03  0.00000000000E+00 0.  1.
          2    1    1    2  502    0  0.33183330123E+02 -0.75742318377E+01 -0.76871928217E+03  0.76947244081E+03  0.00000000000E+00 0.  1.
         -2    1    1    2    0  502 -0.33183330123E+02  0.75742318377E+01  0.17528880567E+02  0.38285297960E+02  0.00000000000E+00 0. -1.
<mgrwt>
<rscale>  2 0.34036780E+02</rscale>
<asrwt>0</asrwt>
<pdfrwt beam="2">  1        2 0.11991909E+00 0.34036780E+02</pdfrwt>
<pdfrwt beam="1">  1       -2 0.43513336E-02 0.34036780E+02</pdfrwt>
<totfact> 0.76885091E+03</totfact>
</mgrwt>
</event>
<event>
 4    1  0.1352171E+004  0.2814392E+02  0.7546771E-02  0.1619560E+00
          2   -1    0    0  501    0  0.00000000000E+00  0.00000000000E+00  0.13375666346E+04  0.13375666346E+04  0.00000000000E+00 0. -1.
         -2   -1    0    0    0  501 -0.00000000000E+00 -0.00000000000E+00 -0.26054248477E+01  0.26054248477E+01  0.00000000000E+00 0. -1.
          2    1    1    2  502    0  0.59134744044E+01  0.27515646774E+02  0.12565135740E+04  0.12568287241E+04  0.00000000000E+00 0. -1.
         -2    1    1    2    0  502 -0.59134744044E+01 -0.27515646774E+02  0.78447635740E+02  0.83343335367E+02  0.00000000000E+00 0. -1.
<mgrwt>
<rscale>  2 0.28143916E+02</rscale>
<asrwt>0</asrwt>
<pdfrwt beam="1">  1        2 0.20577893E+00 0.28143916E+02</pdfrwt>
<pdfrwt beam="2">  1       -2 0.40083566E-03 0.28143916E+02</pdfrwt>
<totfact> 0.99403276E+04</totfact>
</mgrwt>
</event>
<event>
 4    1  0.1352171E+004  0.3609231E+02  0.7546771E-02  0.1539109E+00
          2   -1    0    0  501    0  0.00000000000E+00  0.00000000000E+00  0.10907731512E+04  0.10907731512E+04  0.00000000000E+00 0. -1.
         -2   -1    0    0    0  501 -0.00000000000E+00 -0.00000000000E+00 -0.73061430825E+01  0.73061430825E+01  0.00000000000E+00 0. -1.
          2    1    1    2  502    0  0.37758411237E+01 -0.35894261899E+02  0.10438997544E+04  0.10445235048E+04  0.00000000000E+00 0. -1.
         -2    1    1    2    0  502 -0.37758411237E+01  0.35894261899E+02  0.39567253783E+02  0.53555789467E+02  0.00000000000E+00 0. -1.
<mgrwt>
<rscale>  2 0.36092312E+02</rscale>
<asrwt>0</asrwt>
<pdfrwt beam="1">  1        2 0.16781112E+00 0.36092312E+02</pdfrwt>
<pdfrwt beam="2">  1       -2 0.11240229E-02 0.36092312E+02</pdfrwt>
<totfact> 0.33979460E+04</totfact>
</mgrwt>
</event>
<event>
 4    1  0.1352171E+004  0.6035585E+02  0.7546771E-02  0.1396344E+00
         -2   -1    0    0    0  501 -0.00000000000E+00  0.00000000000E+00  0.33319761104E+02  0.33319761104E+02  0.00000000000E+00 0.  1.
          2   -1    0    0  501    0  0.00000000000E+00 -0.00000000000E+00 -0.47700673591E+03  0.47700673591E+03  0.00000000000E+00 0. -1.
          2    1    1    2  502    0  0.23614774766E+02  0.55544320749E+02 -0.44586478202E+03  0.44993136477E+03  0.00000000000E+00 0. -1.
         -2    1    1    2    0  502 -0.23614774766E+02 -0.55544320749E+02  0.21778072164E+01  0.60395132246E+02  0.00000000000E+00 0.  1.
<mgrwt>
<rscale>  2 0.60355854E+02</rscale>
<asrwt>0</asrwt>
<pdfrwt beam="2">  1        2 0.73385649E-01 0.60355854E+02</pdfrwt>
<pdfrwt beam="1">  1       -2 0.51261173E-02 0.60355854E+02</pdfrwt>
<totfact> 0.10962685E+04</totfact>
</mgrwt>
</event>
<event>
 4    1  0.1352171E+004  0.7209416E+02  0.7546771E-02  0.1353113E+00
         -2   -1    0    0    0  501 -0.00000000000E+00  0.00000000000E+00  0.16405438887E+03  0.16405438887E+03  0.00000000000E+00 0. -1.
          2   -1    0    0  501    0  0.00000000000E+00 -0.00000000000E+00 -0.23344681943E+04  0.23344681943E+04  0.00000000000E+00 0.  1.
          2    1    1    2  502    0 -0.70959131159E+02 -0.12742447269E+02 -0.23259621288E+04  0.23270791548E+04  0.00000000000E+00 0.  1.
         -2    1    1    2    0  502  0.70959131159E+02  0.12742447269E+02  0.15554832331E+03  0.17144342840E+03  0.00000000000E+00 0. -1.
<mgrwt>
<rscale>  2 0.72094162E+02</rscale>
<asrwt>0</asrwt>
<pdfrwt beam="2">  1        2 0.35914893E+00 0.72094162E+02</pdfrwt>
<pdfrwt beam="1">  1       -2 0.25239138E-01 0.72094162E+02</pdfrwt>
<totfact> 0.79102769E+01</totfact>
</mgrwt>
</event>
<event>
 4    1  0.1352171E+004  0.2098078E+02  0.7546771E-02  0.1726499E+00
          2   -1    0    0  501    0  0.00000000000E+00  0.00000000000E+00  0.14182313301E+04  0.14182313301E+04  0.00000000000E+00 0.  1.
         -2   -1    0    0    0  501 -0.00000000000E+00 -0.00000000000E+00 -0.12126898554E+01  0.12126898554E+01  0.00000000000E+00 0. -1.
          2    1    1    2  502    0 -0.20024454433E+02 -0.62621201060E+01  0.13207058515E+04  0.13208724916E+04  0.00000000000E+00 0.  1.
         -2    1    1    2    0  502  0.20024454433E+02  0.62621201060E+01  0.96312788812E+02  0.98571528406E+02  0.00000000000E+00 0. -1.
<mgrwt>
<rscale>  2 0.20980775E+02</rscale>
<asrwt>0</asrwt>
<pdfrwt beam="1">  1        2 0.21818811E+00 0.20980775E+02</pdfrwt>
<pdfrwt beam="2">  1       -2 0.18656881E-03 0.20980775E+02</pdfrwt>
<totfact> 0.23674744E+05</totfact>
</mgrwt>
</event>
<event>
 4    1  0.1352171E+004  0.2078921E+02  0.7546771E-02  0.1730074E+00
          2   -1    0    0  501    0  0.00000000000E+00  0.00000000000E+00  0.43784252187E+03  0.43784252187E+03  0.00000000000E+00 0.  1.
         -2   -1    0    0    0  501 -0.00000000000E+00 -0.00000000000E+00 -0.18185419292E+01  0.18185419292E+01  0.00000000000E+00 0.  1.
          2    1    1    2  502    0 -0.59883226221E+01 -0.19908070809E+02  0.36665487940E+03  0.36724377718E+03  0.00000000000E+00 0.  1.
         -2    1    1    2    0  502  0.59883226221E+01  0.19908070809E+02  0.69369100545E+02  0.72417286622E+02  0.00000000000E+00 0.  1.
<mgrwt>
<rscale>  2 0.20789211E+02</rscale>
<asrwt>0</asrwt>
<pdfrwt beam="1">  1        2 0.67360304E-01 0.20789211E+02</pdfrwt>
<pdfrwt beam="2">  1       -2 0.27977603E-03 0.20789211E+02</pdfrwt>
<totfact> 0.54511418E+05</totfact>
</mgrwt>
</event>
<event>
 4    1  0.1352171E+004  0.3608975E+02  0.7546771E-02  0.1539131E+00
         -2   -1    0    0    0  501 -0.00000000000E+00  0.00000000000E+00  0.11110292146E+02  0.11110292146E+02  0.00000000000E+00 0. -1.
          2   -1    0    0  501    0  0.00000000000E+00 -0.00000000000E+00 -0.41857666388E+03  0.41857666388E+03  0.00000000000E+00 0. -1.
          2    1    1    2  502    0  0.14590706164E+02  0.33008806656E+02 -0.38602500664E+03  0.38770836434E+03  0.00000000000E+00 0. -1.
         -2    1    1    2    0  502 -0.14590706164E+02 -0.33008806656E+02 -0.21441365091E+02  0.41978591689E+02  0.00000000000E+00 0. -1.
<mgrwt>
<rscale>  2 0.36089750E+02</rscale>
<asrwt>0</asrwt>
<pdfrwt beam="2">  1        2 0.64396410E-01 0.36089750E+02</pdfrwt>
<pdfrwt beam="1">  1       -2 0.17092757E-02 0.36089750E+02</pdfrwt>
<totfact> 0.56045952E+04</totfact>
</mgrwt>
</event>
<event>
 4    1  0.1352171E+004  0.2236790E+02  0.7546771E-02  0.1701966E+00
         -2   -1    0    0    0  501 -0.00000000000E+00  0.00000000000E+00  0.10216186805E+02  0.10216186805E+02  0.00000000000E+00 0.  1.
          2   -1    0    0  501    0  0.00000000000E+00 -0.00000000000E+00 -0.31351639960E+03  0.31351639960E+03  0.00000000000E+00 0.  1.
          2    1    1    2  502    0  0.22338960737E+02  0.11374315447E+01 -0.30033755351E+03  0.30116933603E+03  0.00000000000E+00 0.  1.
         -2    1    1    2    0  502 -0.22338960737E+02 -0.11374315447E+01 -0.29626592839E+01  0.22563250373E+02  0.00000000000E+00 0.  1.
<mgrwt>
<rscale>  2 0.22367899E+02</rscale>
<asrwt>0</asrwt>
<pdfrwt beam="2">  1        2 0.48233282E-01 0.22367899E+02</pdfrwt>
<pdfrwt beam="1">  1       -2 0.15717214E-02 0.22367899E+02</pdfrwt>
<totfact> 0.76205216E+04</totfact>
</mgrwt>
</event>
<event>
 4    1  0.1352171E+004  0.4455011E+02  0.7546771E-02  0.1477170E+00
          2   -1    0    0  501    0  0.00000000000E+00  0.00000000000E+00  0.49661989159E+03  0.49661989159E+03  0.00000000000E+00 0. -1.
         -2   -1    0    0    0  501 -0.00000000000E+00 -0.00000000000E+00 -0.43394299664E+01  0.43394299664E+01  0.00000000000E+00 0. -1.
          2    1    1    2  502    0  0.28082134223E+02  0.34584760625E+02  0.31656029412E+03  0.31967973308E+03  0.00000000000E+00 0. -1.
         -2    1    1    2    0  502 -0.28082134223E+02 -0.34584760625E+02  0.17572016750E+03  0.18127958847E+03  0.00000000000E+00 0. -1.
<mgrwt>
<rscale>  2 0.44550106E+02</rscale>
<asrwt>0</asrwt>
<pdfrwt beam="1">  1        2 0.76403015E-01 0.44550106E+02</pdfrwt>
<pdfrwt beam="2">  1       -2 0.66760500E-03 0.44550106E+02</pdfrwt>
<totfact> 0.17940142E+05</totfact>
</mgrwt>
</event>
<event>
 4    1  0.1352171E+004  0.2473382E+02  0.7546771E-02  0.1664855E+00
          2   -1    0    0  501    0  0.00000000000E+00  0.00000000000E+00  0.15297206305E+04  0.15297206305E+04  0.00000000000E+00 0.  1.
         -2   -1    0    0    0  501 -0.00000000000E+00 -0.00000000000E+00 -0.40550861765E+00  0.40550861765E+00  0.00000000000E+00 0.  1.
          2    1    1    2  502    0 -0.24464311052E+02  0.36412839443E+01  0.67481928829E+03  0.67527241415E+03  0.00000000000E+00 0.  1.
         -2    1    1    2    0  502  0.24464311052E+02 -0.36412839443E+01  0.85449583356E+03  0.85485372494E+03  0.00000000000E+00 0.  1.
<mgrwt>
<rscale>  2 0.24733825E+02</rscale>
<asrwt>0</asrwt>
<pdfrwt beam="1">  1        2 0.23533702E+00 0.24733825E+02</pdfrwt>
<pdfrwt beam="2">  1       -2 0.62387166E-04 0.24733825E+02</pdfrwt>
<totfact> 0.92526403E+05</totfact>
</mgrwt>
</event>
<event>
 4    1  0.1352171E+004  0.2623943E+02  0.7546771E-02  0.1643812E+00
          2   -1    0    0  501    0  0.00000000000E+00  0.00000000000E+00  0.29899991340E+03  0.29899991340E+03  0.00000000000E+00 0. -1.
         -2   -1    0    0    0  501 -0.00000000000E+00 -0.00000000000E+00 -0.23852669488E+01  0.23852669488E+01  0.00000000000E+00 0.  1.
          2    1    1    2  502    0 -0.25247833666E+02  0.71452447761E+01  0.17634369974E+03  0.17828518746E+03  0.00000000000E+00 0. -1.
         -2    1    1    2    0  502  0.25247833666E+02 -0.71452447761E+01  0.12027094671E+03  0.12309999289E+03  0.00000000000E+00 0.  1.
<mgrwt>
<rscale>  2 0.26239429E+02</rscale>
<asrwt>0</asrwt>
<pdfrwt beam="1">  1        2 0.45999957E-01 0.26239429E+02</pdfrwt>
<pdfrwt beam="2">  1       -2 0.36696438E-03 0.26239429E+02</pdfrwt>
<totfact> 0.59345351E+05</totfact>
</mgrwt>
</event>
<event>
 4    1  0.1352171E+004  0.3268830E+02  0.7546771E-02  0.1570142E+00
          2   -1    0    0  501    0  0.00000000000E+00  0.00000000000E+00  0.46901882550E+03  0.46901882550E+03  0.00000000000E+00 0.  1.
         -2   -1    0    0    0  501 -0.00000000000E+00 -0.00000000000E+00 -0.32486583200E+01  0.32486583200E+01  0.00000000000E+00 0.  1.
          2    1    1    2  502    0 -0.29224506632E+02 -0.14644221297E+02  0.36194502427E+03  0.36341811402E+03  0.00000000000E+00 0.  1.
         -2    1    1    2    0  502  0.29224506632E+02  0.14644221297E+02  0.10382514291E+03  0.10884936980E+03  0.00000000000E+00 0.  1.
<mgrwt>
<rscale>  2 0.32688301E+02</rscale>
<asrwt>0</asrwt>
<pdfrwt beam="1">  1        2 0.72156689E-01 0.32688301E+02</pdfrwt>
<pdfrwt beam="2">  1       -2 0.49979396E-03 0.32688301E+02</pdfrwt>
<totfact> 0.26418997E+05</totfact>
</mgrwt>
</event>
<event>
 4    1  0.1352171E+004  0.2815917E+02  0.7546771E-02  0.1619376E+00
          2   -1    0    0  501    0  0.00000000000E+00  0.00000000000E+00  0.14424612186E+03  0.14424612186E+03  0.00000000000E+00 0. -1.
         -2   -1    0    0    0  501 -0.00000000000E+00 -0.00000000000E+00 -0.10661520815E+02  0.10661520815E+02  0.00000000000E+00 0.  1.
          2    1    1    2  502    0 -0.19844152774E+02  0.19978698460E+02  0.12069904192E+03  0.12394029818E+03  0.00000000000E+00 0. -1.
         -2    1    1    2    0  502  0.19844152774E+02 -0.19978698460E+02  0.12885559127E+02  0.30967344502E+02  0.00000000000E+00 0.  1.
<mgrwt>
<rscale>  2 0.28159169E+02</rscale>
<asrwt>0</asrwt>
<pdfrwt beam="1">  1        2 0.22191710E-01 0.28159169E+02</pdfrwt>
<pdfrwt beam="2">  1       -2 0.16402341E-02 0.28159169E+02</pdfrwt>
<totfact> 0.16652060E+05</totfact>
</mgrwt>
</event>
<event>
 4    1  0.1352171E+004  0.2007245E+02  0.7546771E-02  0.1743891E+00
         -2   -1    0    0    0  501 -0.00000000000E+00  0.00000000000E+00  0.18759350323E+02  0.18759350323E+02  0.00000000000E+00 0.  1.
          2   -1    0    0  501    0  0.00000000000E+00 -0.00000000000E+00 -0.98685866736E+03  0.98685866736E+03  0.00000000000E+00 0.  1.
          2    1    1    2  502    0  0.57944509504E+01 -0.19217900132E+02 -0.98135713545E+03  0.98156239264E+03  0.00000000000E+00 0.  1.
         -2    1    1    2    0  502 -0.57944509504E+01  0.19217900132E+02  0.13257818411E+02  0.24055625045E+02  0.00000000000E+00 0.  1.
<mgrwt>
<rscale>  2 0.20072452E+02</rscale>
<asrwt>0</asrwt>
<pdfrwt beam="2">  1        2 0.15182444E+00 0.20072452E+02</pdfrwt>
<pdfrwt beam="1">  1       -2 0.28860532E-02 0.20072452E+02</pdfrwt>
<totfact> 0.97565411E+03</totfact>
</mgrwt>
</event>
<event>
 4    1  0.1352171E+004  0.2250843E+02  0.7546771E-02  0.1699605E+00
          2   -1    0    0  501    0  0.00000000000E+00  0.00000000000E+00  0.18909332843E+02  0.18909332843E+02  0.00000000000E+00 0. -1.
         -2   -1    0    0    0  501 -0.00000000000E+00 -0.00000000000E+00 -0.50900784499E+02  0.50900784499E+02  0.00000000000E+00 0.  1.
          2    1    1    2  502    0 -0.21753710651E+02 -0.57797374211E+01  0.80262550015E+01  0.23896653763E+02  0.00000000000E+00 0. -1.
         -2    1    1    2    0  502  0.21753710651E+02  0.57797374211E+01 -0.40017706657E+02  0.45913463579E+02  0.00000000000E+00 0.  1.
<mgrwt>
<rscale>  2 0.22508427E+02</rscale>
<asrwt>0</asrwt>
<pdfrwt beam="1">  1        2 0.29091282E-02 0.22508427E+02</pdfrwt>
<pdfrwt beam="2">  1       -2 0.78308898E-02 0.22508427E+02</pdfrwt>
<totfact> 0.18815839E+05</totfact>
</mgrwt>
</event>
<event>
 4    1  0.1352171E+004  0.4978156E+02  0.7546771E-02  0.1446523E+00
          2   -1    0    0  501    0  0.00000000000E+00  0.00000000000E+00  0.12827164996E+04  0.12827164996E+04  0.00000000000E+00 0. -1.
         -2   -1    0    0    0  501 -0.00000000000E+00 -0.00000000000E+00 -0.31707593960E+01  0.31707593960E+01  0.00000000000E+00 0. -1.
          2    1    1    2  502    0 -0.33456997899E+02 -0.36862354775E+02  0.10416426337E+04  0.10428315205E+04  0.00000000000E+00 0. -1.
         -2    1    1    2    0  502  0.33456997899E+02  0.36862354775E+02  0.23790310650E+03  0.24305573844E+03  0.00000000000E+00 0. -1.
<mgrwt>
<rscale>  2 0.49781562E+02</rscale>
<asrwt>0</asrwt>
<pdfrwt beam="1">  1        2 0.19734059E+00 0.49781562E+02</pdfrwt>
<pdfrwt beam="2">  1       -2 0.48781016E-03 0.49781562E+02</pdfrwt>
<totfact> 0.89053562E+04</totfact>
</mgrwt>
</event>
<event>
 4    1  0.1946502E+004  0.3285540E+02  0.7546771E-02  0.1568514E+00
          2   -1    0    0  501    0  0.00000000000E+00  0.00000000000E+00  0.12268269543E+04  0.12268269543E+04  0.00000000000E+00 0. -1.
         -2   -1    0    0    0  501 -0.00000000000E+00 -0.00000000000E+00 -0.12769783407E+03  0.12769783407E+03  0.00000000000E+00 0.  1.
          2    1    1    2  502    0 -0.32492216558E+02 -0.48716514563E+01  0.12244896049E+04  0.12249303122E+04  0.00000000000E+00 0. -1.
         -2    1    1    2    0  502  0.32492216558E+02  0.48716514563E+01 -0.12536048472E+03  0.12959447617E+03  0.00000000000E+00 0.  1.
<mgrwt>
<rscale>  2 0.32855397E+02</rscale>
<asrwt>0</asrwt>
<pdfrwt beam="1">  1        2 0.18874260E+00 0.32855397E+02</pdfrwt>
<pdfrwt beam="2">  1       -2 0.19645821E-01 0.32855397E+02</pdfrwt>
<totfact> 0.44303241E+02</totfact>
</mgrwt>
</event>
<event>
 4    1  0.1352171E+004  0.2179180E+02  0.7546771E-02  0.1711878E+00
          2   -1    0    0  501    0  0.00000000000E+00  0.00000000000E+00  0.17354023568E+03  0.17354023568E+03  0.00000000000E+00 0. -1.
         -2   -1    0    0    0  501 -0.00000000000E+00 -0.00000000000E+00 -0.63695097961E+02  0.63695097961E+02  0.00000000000E+00 0.  1.
          2    1    1    2  502    0 -0.96500054035E+00 -0.21770426449E+02  0.17096426439E+03  0.17234750475E+03  0.00000000000E+00 0. -1.
         -2    1    1    2    0  502  0.96500054035E+00  0.21770426449E+02 -0.61119126671E+02  0.64887828896E+02  0.00000000000E+00 0.  1.
<mgrwt>
<rscale>  2 0.21791803E+02</rscale>
<asrwt>0</asrwt>
<pdfrwt beam="1">  1        2 0.26698498E-01 0.21791803E+02</pdfrwt>
<pdfrwt beam="2">  1       -2 0.97992459E-02 0.21791803E+02</pdfrwt>
<totfact> 0.10380409E+04</totfact>
</mgrwt>
</event>
<event>
 4    1  0.1987869E+004  0.2223608E+02  0.7546771E-02  0.1704201E+00
          2   -1    0    0  501    0  0.00000000000E+00  0.00000000000E+00  0.16482117523E+04  0.16482117523E+04  0.00000000000E+00 0. -1.
         -2   -1    0    0    0  501 -0.00000000000E+00 -0.00000000000E+00 -0.48997075322E+03  0.48997075322E+03  0.00000000000E+00 0.  1.
          2    1    1    2  502    0  0.66451986630E+01  0.21219913213E+02  0.16478844232E+04  0.16480344400E+04  0.00000000000E+00 0. -1.
         -2    1    1    2    0  502 -0.66451986630E+01 -0.21219913213E+02 -0.48964342408E+03  0.49014806551E+03  0.00000000000E+00 0.  1.
<mgrwt>
<rscale>  2 0.22236083E+02</rscale>
<asrwt>0</asrwt>
<pdfrwt beam="1">  1        2 0.25357104E+00 0.22236083E+02</pdfrwt>
<pdfrwt beam="2">  1       -2 0.75380117E-01 0.22236083E+02</pdfrwt>
<totfact> 0.24457138E+01</totfact>
</mgrwt>
</event>
<event>
 4    1  0.1352171E+004  0.2320559E+02  0.7546771E-02  0.1688199E+00
          2   -1    0    0  501    0  0.00000000000E+00  0.00000000000E+00  0.12248520841E+04  0.12248520841E+04  0.00000000000E+00 0.  1.
         -2   -1    0    0    0  501 -0.00000000000E+00 -0.00000000000E+00 -0.26503958369E+01  0.26503958369E+01  0.00000000000E+00 0. -1.
          2    1    1    2  502    0  0.17728228922E+02  0.14973613932E+02  0.11716413251E+04  0.11718711080E+04  0.00000000000E+00 0.  1.
         -2    1    1    2    0  502 -0.17728228922E+02 -0.14973613932E+02  0.50560363240E+02  0.55631371958E+02  0.00000000000E+00 0. -1.
<mgrwt>
<rscale>  2 0.23205586E+02</rscale>
<asrwt>0</asrwt>
<pdfrwt beam="1">  1        2 0.18843833E+00 0.23205586E+02</pdfrwt>
<pdfrwt beam="2">  1       -2 0.40775418E-03 0.23205586E+02</pdfrwt>
<totfact> 0.10637998E+05</totfact>
</mgrwt>
</event>
<event>
 4    1  0.1352171E+004  0.2537554E+02  0.7546771E-02  0.1655666E+00
         -2   -1    0    0    0  501 -0.00000000000E+00  0.00000000000E+00  0.25601276942E+01  0.25601276942E+01  0.00000000000E+00 0.  1.
          2   -1    0    0  501    0  0.00000000000E+00 -0.00000000000E+00 -0.27169083269E+03  0.27169083269E+03  0.00000000000E+00 0. -1.
          2    1    1    2  502    0 -0.22116956552E+02 -0.12440196512E+02 -0.17193025593E+03  0.17379278224E+03  0.00000000000E+00 0.  1.
         -2    1    1    2    0  502  0.22116956552E+02  0.12440196512E+02 -0.97200449068E+02  0.10045817814E+03  0.00000000000E+00 0. -1.
<mgrwt>
<rscale>  2 0.25375544E+02</rscale>
<asrwt>0</asrwt>
<pdfrwt beam="2">  1        2 0.41798591E-01 0.25375544E+02</pdfrwt>
<pdfrwt beam="1">  1       -2 0.39386579E-03 0.25375544E+02</pdfrwt>
<totfact> 0.58768224E+05</totfact>
</mgrwt>
</event>
<event>
 4    1  0.1352171E+004  0.2478291E+02  0.7546771E-02  0.1664140E+00
         -2   -1    0    0    0  501 -0.00000000000E+00  0.00000000000E+00  0.57400169521E+01  0.57400169521E+01  0.00000000000E+00 0.  1.
          2   -1    0    0  501    0  0.00000000000E+00 -0.00000000000E+00 -0.75701180437E+03  0.75701180437E+03  0.00000000000E+00 0. -1.
          2    1    1    2  502    0 -0.24685220147E+02  0.21983551825E+01 -0.72903212259E+03  0.72945323951E+03  0.00000000000E+00 0. -1.
         -2    1    1    2    0  502  0.24685220147E+02 -0.21983551825E+01 -0.22239664826E+02  0.33298581813E+02  0.00000000000E+00 0.  1.
<mgrwt>
<rscale>  2 0.24782915E+02</rscale>
<asrwt>0</asrwt>
<pdfrwt beam="2">  1        2 0.11646336E+00 0.24782915E+02</pdfrwt>
<pdfrwt beam="1">  1       -2 0.88307948E-03 0.24782915E+02</pdfrwt>
<totfact> 0.69225671E+04</totfact>
</mgrwt>
</event>
<event>
 4    1  0.1352171E+004  0.2074719E+02  0.7546771E-02  0.1730865E+00
         -2   -1    0    0    0  501 -0.00000000000E+00  0.00000000000E+00  0.29827362343E+01  0.29827362343E+01  0.00000000000E+00 0.  1.
          2   -1    0    0  501    0  0.00000000000E+00 -0.00000000000E+00 -0.29113958060E+03  0.29113958060E+03  0.00000000000E+00 0. -1.
          2    1    1    2  502    0  0.19557377060E+02  0.69249587838E+01 -0.24851448090E+03  0.24937901529E+03  0.00000000000E+00 0. -1.
         -2    1    1    2    0  502 -0.19557377060E+02 -0.69249587838E+01 -0.39642363462E+02  0.44743301537E+02  0.00000000000E+00 0.  1.
<mgrwt>
<rscale>  2 0.20747194E+02</rscale>
<asrwt>0</asrwt>
<pdfrwt beam="2">  1        2 0.44790695E-01 0.20747194E+02</pdfrwt>
<pdfrwt beam="1">  1       -2 0.45888260E-03 0.20747194E+02</pdfrwt>
<totfact> 0.42129928E+05</totfact>
</mgrwt>
</event>
<event>
 4    1  0.1352171E+004  0.2095445E+02  0.7546771E-02  0.1726988E+00
         -2   -1    0    0    0  501 -0.00000000000E+00  0.00000000000E+00  0.56677993760E+01  0.56677993760E+01  0.00000000000E+00 0. -1.
          2   -1    0    0  501    0  0.00000000000E+00 -0.00000000000E+00 -0.24364797063E+03  0.24364797063E+03  0.00000000000E+00 0.  1.
          2    1    1    2  502    0  0.18145113780E+02 -0.10480635184E+02 -0.22193954125E+03  0.22292655481E+03  0.00000000000E+00 0.  1.
         -2    1    1    2    0  502 -0.18145113780E+02  0.10480635184E+02 -0.16040630007E+02  0.26389215202E+02  0.00000000000E+00 0. -1.
<mgrwt>
<rscale>  2 0.20954447E+02</rscale>
<asrwt>0</asrwt>
<pdfrwt beam="2">  1        2 0.37484311E-01 0.20954447E+02</pdfrwt>
<pdfrwt beam="1">  1       -2 0.87196894E-03 0.20954447E+02</pdfrwt>
<totfact> 0.21324684E+05</totfact>
</mgrwt>
</event>
<event>
 4    1  0.1352171E+004  0.3482158E+02  0.7546771E-02  0.1550191E+00
         -2   -1    0    0    0  501 -0.00000000000E+00  0.00000000000E+00  0.87968436029E+00  0.87968436029E+00  0.00000000000E+00 0. -1.
          2   -1    0    0  501    0  0.00000000000E+00 -0.00000000000E+00 -0.23586023798E+04  0.23586023798E+04  0.00000000000E+00 0.  1.
          2    1    1    2  502    0  0.55056523357E+01  0.34383570892E+02 -0.19393993396E+04  0.19397119220E+04  0.00000000000E+00 0.  1.
         -2    1    1    2    0  502 -0.55056523357E+01 -0.34383570892E+02 -0.41832335589E+03  0.41977014214E+03  0.00000000000E+00 0. -1.
<mgrwt>
<rscale>  2 0.34821576E+02</rscale>
<asrwt>0</asrwt>
<pdfrwt beam="2">  1        2 0.36285599E+00 0.34821576E+02</pdfrwt>
<pdfrwt beam="1">  1       -2 0.13533826E-03 0.34821576E+02</pdfrwt>
<totfact> 0.14364409E+05</totfact>
</mgrwt>
</event>
<event>
 4    1  0.1352171E+004  0.4649744E+02  0.7546771E-02  0.1465204E+00
          2   -1    0    0  501    0  0.00000000000E+00  0.00000000000E+00  0.45578492806E+03  0.45578492806E+03  0.00000000000E+00 0. -1.
         -2   -1    0    0    0  501 -0.00000000000E+00 -0.00000000000E+00 -0.50445837690E+01  0.50445837690E+01  0.00000000000E+00 0.  1.
          2    1    1    2  502    0  0.15398319073E+02 -0.43873723871E+02  0.28166227973E+03  0.28547443265E+03  0.00000000000E+00 0. -1.
         -2    1    1    2    0  502 -0.15398319073E+02  0.43873723871E+02  0.16907806456E+03  0.17535507917E+03  0.00000000000E+00 0.  1.
<mgrwt>
<rscale>  2 0.46497439E+02</rscale>
<asrwt>0</asrwt>
<pdfrwt beam="1">  1        2 0.70120726E-01 0.46497439E+02</pdfrwt>
<pdfrwt beam="2">  1       -2 0.77609017E-03 0.46497439E+02</pdfrwt>
<totfact> 0.16072993E+05</totfact>
</mgrwt>
</event>
<event>
 4    1  0.1352171E+004  0.3108339E+02  0.7546771E-02  0.1586413E+00
          2   -1    0    0  501    0  0.00000000000E+00  0.00000000000E+00  0.47574498678E+02  0.47574498678E+02  0.00000000000E+00 0.  1.
         -2   -1    0    0    0  501 -0.00000000000E+00 -0.00000000000E+00 -0.80691335095E+02  0.80691335095E+02  0.00000000000E+00 0.  1.
          2    1    1    2  502    0  0.18410502566E+02 -0.25044566499E+02  0.38919929815E+02  0.49809013769E+02  0.00000000000E+00 0.  1.
         -2    1    1    2    0  502 -0.18410502566E+02  0.25044566499E+02 -0.72036766233E+02  0.78456820004E+02  0.00000000000E+00 0.  1.
<mgrwt>
<rscale>  2 0.31083386E+02</rscale>
<asrwt>0</asrwt>
<pdfrwt beam="1">  1        2 0.73191538E-02 0.31083386E+02</pdfrwt>
<pdfrwt beam="2">  1       -2 0.12414051E-01 0.31083386E+02</pdfrwt>
<totfact> 0.32573226E+04</totfact>
</mgrwt>
</event>
<event>
 4    1  0.1352171E+004  0.2136556E+02  0.7546771E-02  0.1719461E+00
          2   -1    0    0  501    0  0.00000000000E+00  0.00000000000E+00  0.34010185696E+03  0.34010185696E+03  0.00000000000E+00 0. -1.
         -2   -1    0    0    0  501 -0.00000000000E+00 -0.00000000000E+00 -0.33586962597E+01  0.33586962597E+01  0.00000000000E+00 0. -1.
          2    1    1    2  502    0 -0.13493091678E+02  0.16565741565E+02  0.30143521741E+03  0.30219145854E+03  0.00000000000E+00 0. -1.
         -2    1    1    2    0  502  0.13493091678E+02 -0.16565741565E+02  0.35307943286E+02  0.41269094680E+02  0.00000000000E+00 0. -1.
<mgrwt>
<rscale>  2 0.21365564E+02</rscale>
<asrwt>0</asrwt>
<pdfrwt beam="1">  1        2 0.52323336E-01 0.21365564E+02</pdfrwt>
<pdfrwt beam="2">  1       -2 0.51672277E-03 0.21365564E+02</pdfrwt>
<totfact> 0.31146409E+05</totfact>
</mgrwt>
</event>
<event>
 4    1  0.1352171E+004  0.2894030E+02  0.7546771E-02  0.1610107E+00
          2   -1    0    0  501    0  0.00000000000E+00  0.00000000000E+00  0.38181752499E+03  0.38181752499E+03  0.00000000000E+00 0. -1.
         -2   -1    0    0    0  501 -0.00000000000E+00 -0.00000000000E+00 -0.56069460236E+02  0.56069460236E+02  0.00000000000E+00 0.  1.
          2    1    1    2  502    0  0.19000536057E+02 -0.21829346740E+02  0.37749201709E+03  0.37859974078E+03  0.00000000000E+00 0. -1.
         -2    1    1    2    0  502 -0.19000536057E+02  0.21829346740E+02 -0.51743952343E+02  0.59287244442E+02  0.00000000000E+00 0.  1.
<mgrwt>
<rscale>  2 0.28940296E+02</rscale>
<asrwt>0</asrwt>
<pdfrwt beam="1">  1        2 0.58741156E-01 0.28940296E+02</pdfrwt>
<pdfrwt beam="2">  1       -2 0.86260710E-02 0.28940296E+02</pdfrwt>
<totfact> 0.59207130E+03</totfact>
</mgrwt>
</event>
<event>
 4    1  0.1352171E+004  0.2209736E+02  0.7546771E-02  0.1706574E+00
          2   -1    0    0  501    0  0.00000000000E+00  0.00000000000E+00  0.22554664453E+03  0.22554664453E+03  0.00000000000E+00 0. -1.
         -2   -1    0    0    0  501 -0.00000000000E+00 -0.00000000000E+00 -0.29006899629E+01  0.29006899629E+01  0.00000000000E+00 0.  1.
          2    1    1    2  502    0  0.17206097291E+02  0.13865196542E+02  0.16885008268E+03  0.17028988190E+03  0.00000000000E+00 0. -1.
         -2    1    1    2    0  502 -0.17206097291E+02 -0.13865196542E+02  0.53795871892E+02  0.58157452590E+02  0.00000000000E+00 0.  1.
<mgrwt>
<rscale>  2 0.22097363E+02</rscale>
<asrwt>0</asrwt>
<pdfrwt beam="1">  1        2 0.34699470E-01 0.22097363E+02</pdfrwt>
<pdfrwt beam="2">  1       -2 0.44626017E-03 0.22097363E+02</pdfrwt>
<totfact> 0.57372009E+05</totfact>
</mgrwt>
</event>
<event>
 4    1  0.1352171E+004  0.2527565E+02  0.7546771E-02  0.1657074E+00
         -2   -1    0    0    0  501 -0.00000000000E+00  0.00000000000E+00  0.40021636084E+02  0.40021636084E+02  0.00000000000E+00 0.  1.
          2   -1    0    0  501    0  0.00000000000E+00 -0.00000000000E+00 -0.14919091089E+03  0.14919091089E+03  0.00000000000E+00 0. -1.
          2    1    1    2  502    0  0.56586394067E+01 -0.24634088452E+02 -0.14398651539E+03  0.14618814975E+03  0.00000000000E+00 0. -1.
         -2    1    1    2    0  502 -0.56586394067E+01  0.24634088452E+02  0.34817240588E+02  0.43024397218E+02  0.00000000000E+00 0.  1.
<mgrwt>
<rscale>  2 0.25275651E+02</rscale>
<asrwt>0</asrwt>
<pdfrwt beam="2">  1        2 0.22952448E-01 0.25275651E+02</pdfrwt>
<pdfrwt beam="1">  1       -2 0.61571747E-02 0.25275651E+02</pdfrwt>
<totfact> 0.24547591E+04</totfact>
</mgrwt>
</event>
<event>
 4    1  0.1352171E+004  0.2502098E+02  0.7546771E-02  0.1660701E+00
         -2   -1    0    0    0  501 -0.00000000000E+00  0.00000000000E+00  0.30316342059E+03  0.30316342059E+03  0.00000000000E+00 0. -1.
          2   -1    0    0  501    0  0.00000000000E+00 -0.00000000000E+00 -0.28323327907E+01  0.28323327907E+01  0.00000000000E+00 0.  1.
          2    1    1    2  502    0 -0.20162192776E+02  0.14816733699E+02  0.70533267376E+02  0.74839771658E+02  0.00000000000E+00 0.  1.
         -2    1    1    2    0  502  0.20162192776E+02 -0.14816733699E+02  0.22979782042E+03  0.23115598172E+03  0.00000000000E+00 0. -1.
<mgrwt>
<rscale>  2 0.25020983E+02</rscale>
<asrwt>0</asrwt>
<pdfrwt beam="2">  1        2 0.43574375E-03 0.25020983E+02</pdfrwt>
<pdfrwt beam="1">  1       -2 0.46640501E-01 0.25020983E+02</pdfrwt>
<totfact> 0.12560654E+05</totfact>
</mgrwt>
</event>
<event>
 4    1  0.1352171E+004  0.2896194E+02  0.7546771E-02  0.1609855E+00
         -2   -1    0    0    0  501 -0.00000000000E+00  0.00000000000E+00  0.21296938545E+02  0.21296938545E+02  0.00000000000E+00 0. -1.
          2   -1    0    0  501    0  0.00000000000E+00 -0.00000000000E+00 -0.87180210660E+02  0.87180210660E+02  0.00000000000E+00 0. -1.
          2    1    1    2  502    0 -0.27596612967E+02  0.87874910312E+01  0.72179013441E+01  0.29847799679E+02  0.00000000000E+00 0. -1.
         -2    1    1    2    0  502  0.27596612967E+02 -0.87874910312E+01 -0.73101173459E+02  0.78629349526E+02  0.00000000000E+00 0. -1.
<mgrwt>
<rscale>  2 0.28961939E+02</rscale>
<asrwt>0</asrwt>
<pdfrwt beam="2">  1        2 0.13412340E-01 0.28961939E+02</pdfrwt>
<pdfrwt beam="1">  1       -2 0.32764521E-02 0.28961939E+02</pdfrwt>
<totfact> 0.11090035E+05</totfact>
</mgrwt>
</event>
<event>
 4    1  0.1352171E+004  0.2986475E+02  0.7546771E-02  0.1599588E+00
          2   -1    0    0  501    0  0.00000000000E+00  0.00000000000E+00  0.54165898229E+03  0.54165898229E+03  0.00000000000E+00 0.  1.
         -2   -1    0    0    0  501 -0.00000000000E+00 -0.00000000000E+00 -0.42668338718E+01  0.42668338718E+01  0.00000000000E+00 0.  1.
          2    1    1    2  502    0 -0.28744637188E+02  0.81024315177E+01  0.48260041185E+03  0.48352358896E+03  0.00000000000E+00 0.  1.
         -2    1    1    2    0  502  0.28744637188E+02 -0.81024315177E+01  0.54791736572E+02  0.62402227205E+02  0.00000000000E+00 0.  1.
<mgrwt>
<rscale>  2 0.29864755E+02</rscale>
<asrwt>0</asrwt>
<pdfrwt beam="1">  1        2 0.83332097E-01 0.29864755E+02</pdfrwt>
<pdfrwt beam="2">  1       -2 0.65643641E-03 0.29864755E+02</pdfrwt>
<totfact> 0.15410101E+05</totfact>
</mgrwt>
</event>
<event>
 4    1  0.1352171E+004  0.2874111E+02  0.7546771E-02  0.1612436E+00
          2   -1    0    0  501    0  0.00000000000E+00  0.00000000000E+00  0.24793232714E+04  0.24793232714E+04  0.00000000000E+00 0. -1.
         -2   -1    0    0    0  501 -0.00000000000E+00 -0.00000000000E+00 -0.39551633817E+00  0.39551633817E+00  0.00000000000E+00 0. -1.
          2    1    1    2  502    0 -0.25395144758E+02 -0.13458748557E+02  0.17317010491E+04  0.17319395413E+04  0.00000000000E+00 0. -1.
         -2    1    1    2    0  502  0.25395144758E+02  0.13458748557E+02  0.74722670593E+03  0.74777924640E+03  0.00000000000E+00 0. -1.
<mgrwt>
<rscale>  2 0.28741108E+02</rscale>
<asrwt>0</asrwt>
<pdfrwt beam="1">  1        2 0.38142190E+00 0.28741108E+02</pdfrwt>
<pdfrwt beam="2">  1       -2 0.60850653E-04 0.28741108E+02</pdfrwt>
<totfact> 0.35097161E+05</totfact>
</mgrwt>
</event>
<event>
 4    1  0.1352171E+004  0.2075801E+02  0.7546771E-02  0.1730661E+00
         -2   -1    0    0    0  501 -0.00000000000E+00  0.00000000000E+00  0.56314810939E+00  0.56314810939E+00  0.00000000000E+00 0.  1.
          2   -1    0    0  501    0  0.00000000000E+00 -0.00000000000E+00 -0.14861770231E+04  0.14861770231E+04  0.00000000000E+00 0. -1.
          2    1    1    2  502    0 -0.45976545427E+01  0.20242439933E+02 -0.12605860140E+04  0.12607569129E+04  0.00000000000E+00 0. -1.
         -2    1    1    2    0  502  0.45976545427E+01 -0.20242439933E+02 -0.22502786099E+03  0.22598325828E+03  0.00000000000E+00 0.  1.
<mgrwt>
<rscale>  2 0.20758006E+02</rscale>
<asrwt>0</asrwt>
<pdfrwt beam="2">  1        2 0.22864289E+00 0.20758006E+02</pdfrwt>
<pdfrwt beam="1">  1       -2 0.86638070E-04 0.20758006E+02</pdfrwt>
<totfact> 0.60071564E+05</totfact>
</mgrwt>
</event>
<event>
 4    1  0.1352171E+004  0.3292388E+02  0.7546771E-02  0.1567850E+00
          2   -1    0    0  501    0  0.00000000000E+00  0.00000000000E+00  0.11019037016E+04  0.11019037016E+04  0.00000000000E+00 0.  1.
         -2   -1    0    0    0  501 -0.00000000000E+00 -0.00000000000E+00 -0.11329249236E+02  0.11329249236E+02  0.00000000000E+00 0. -1.
          2    1    1    2  502    0 -0.22602716746E+02  0.23939484724E+02  0.10771891037E+04  0.10776921392E+04  0.00000000000E+00 0.  1.
         -2    1    1    2    0  502  0.22602716746E+02 -0.23939484724E+02  0.13385348649E+02  0.35540811634E+02  0.00000000000E+00 0. -1.
<mgrwt>
<rscale>  2 0.32923878E+02</rscale>
<asrwt>0</asrwt>
<pdfrwt beam="1">  1        2 0.16952356E+00 0.32923878E+02</pdfrwt>
<pdfrwt beam="2">  1       -2 0.17429623E-02 0.32923878E+02</pdfrwt>
<totfact> 0.18067610E+04</totfact>
</mgrwt>
</event>
<event>
 4    1  0.1352171E+004  0.2663040E+02  0.7546771E-02  0.1638631E+00
          2   -1    0    0  501    0  0.00000000000E+00  0.00000000000E+00  0.10107526062E+04  0.10107526062E+04  0.00000000000E+00 0.  1.
         -2   -1    0    0    0  501 -0.00000000000E+00 -0.00000000000E+00 -0.13575661649E+02  0.13575661649E+02  0.00000000000E+00 0. -1.
          2    1    1    2  502    0 -0.26213156259E+02  0.46956080147E+01  0.99734188454E+03  0.99769735539E+03  0.00000000000E+00 0.  1.
         -2    1    1    2    0  502  0.26213156259E+02 -0.46956080147E+01 -0.16493994335E+00  0.26630912505E+02  0.00000000000E+00 0. -1.
<mgrwt>
<rscale>  2 0.26630402E+02</rscale>
<asrwt>0</asrwt>
<pdfrwt beam="1">  1        2 0.15550034E+00 0.26630402E+02</pdfrwt>
<pdfrwt beam="2">  1       -2 0.20885641E-02 0.26630402E+02</pdfrwt>
<totfact> 0.15338274E+04</totfact>
</mgrwt>
</event>
<event>
 4    1  0.1352171E+004  0.2505100E+02  0.7546771E-02  0.1660271E+00
          2   -1    0    0  501    0  0.00000000000E+00  0.00000000000E+00  0.23132390879E+03  0.23132390879E+03  0.00000000000E+00 0. -1.
         -2   -1    0    0    0  501 -0.00000000000E+00 -0.00000000000E+00 -0.10400397430E+03  0.10400397430E+03  0.00000000000E+00 0. -1.
          2    1    1    2  502    0  0.21275859573E+02 -0.13224606292E+02  0.22912275999E+03  0.23048815926E+03  0.00000000000E+00 0. -1.
         -2    1    1    2    0  502 -0.21275859573E+02  0.13224606292E+02 -0.10180282550E+03  0.10483972383E+03  0.00000000000E+00 0. -1.
<mgrwt>
<rscale>  2 0.25050996E+02</rscale>
<asrwt>0</asrwt>
<pdfrwt beam="1">  1        2 0.35588294E-01 0.25050996E+02</pdfrwt>
<pdfrwt beam="2">  1       -2 0.16000611E-01 0.25050996E+02</pdfrwt>
<totfact> 0.37464834E+03</totfact>
</mgrwt>
</event>
<event>
 4    1  0.1352171E+004  0.2508348E+02  0.7546771E-02  0.1659806E+00
          2   -1    0    0  501    0  0.00000000000E+00  0.00000000000E+00  0.24423755883E+03  0.24423755883E+03  0.00000000000E+00 0. -1.
         -2   -1    0    0    0  501 -0.00000000000E+00 -0.00000000000E+00 -0.54867595393E+01  0.54867595393E+01  0.00000000000E+00 0.  1.
          2    1    1    2  502    0 -0.24069944109E+02 -0.70582441029E+01  0.21031821291E+03  0.21180871489E+03  0.00000000000E+00 0. -1.
         -2    1    1    2    0  502  0.24069944109E+02  0.70582441029E+01  0.28432586374E+02  0.37915603479E+02  0.00000000000E+00 0.  1.
<mgrwt>
<rscale>  2 0.25083481E+02</rscale>
<asrwt>0</asrwt>
<pdfrwt beam="1">  1        2 0.37575001E-01 0.25083481E+02</pdfrwt>
<pdfrwt beam="2">  1       -2 0.84411704E-03 0.25083481E+02</pdfrwt>
<totfact> 0.23332128E+05</totfact>
</mgrwt>
</event>
