<event>
 5    1  0.5681061E+000  0.9227661E+02  0.7546771E-02  0.1297430E+00
         -1   -1    0    0    0  501 -0.00000000000E+00  0.00000000000E+00  0.16814503983E+03  0.16814503983E+03  0.00000000000E+00 0.  1.
          1   -1    0    0  501    0  0.00000000000E+00 -0.00000000000E+00 -0.12660159642E+02  0.12660159642E+02  0.00000000000E+00 0. -1.
         23    2    1    2    0    0  0.00000000000E+00  0.00000000000E+00  0.15548488019E+03  0.18080519947E+03  0.92276606945E+02 0.  0.
        -11    1    3    3    0    0 -0.23657094672E+02  0.29660517616E+02  0.12918654341E+03  0.13464236863E+03  0.00000000000E+00 0.  1.
         11    1    3    3    0    0  0.23657094672E+02 -0.29660517616E+02  0.26298336778E+02  0.46162830837E+02  0.00000000000E+00 0. -1.
<mgrwt>
<rscale>  0 0.92276607E+02</rscale>
<asrwt>0</asrwt>
<pdfrwt beam="2">  1        1 0.19477170E-02 0.92276607E+02</pdfrwt>
<pdfrwt beam="1">  1       -1 0.25868466E-01 0.92276607E+02</pdfrwt>
<totfact> 0.70505518E+04</totfact>
</mgrwt>
</event>
<event>
 5    1  0.5681061E+000  0.9069714E+02  0.7546771E-02  0.1301172E+00
          2   -1    0    0  501    0  0.00000000000E+00  0.00000000000E+00  0.10722142530E+02  0.10722142530E+02  0.00000000000E+00 0. -1.
         -2   -1    0    0    0  501 -0.00000000000E+00 -0.00000000000E+00 -0.19179867724E+03  0.19179867724E+03  0.00000000000E+00 0.  1.
         23    2    1    2    0    0  0.00000000000E+00  0.00000000000E+00 -0.18107653471E+03  0.20252081977E+03  0.90697138971E+02 0.  0.
        -11    1    3    3    0    0  0.36656308319E+02 -0.12535027316E+02 -0.14317498820E+03  0.14832359588E+03  0.00000000000E+00 0.  1.
         11    1    3    3    0    0 -0.36656308319E+02  0.12535027316E+02 -0.37901546513E+02  0.54197223890E+02  0.00000000000E+00 0. -1.
<mgrwt>
<rscale>  0 0.90697139E+02</rscale>
<asrwt>0</asrwt>
<pdfrwt beam="1">  1        2 0.16495605E-02 0.90697139E+02</pdfrwt>
<pdfrwt beam="2">  1       -2 0.29507487E-01 0.90697139E+02</pdfrwt>
<totfact> 0.64303630E+04</totfact>
</mgrwt>
</event>
<event>
 5    1  0.5681061E+000  0.9168506E+02  0.7546771E-02  0.1298822E+00
          1   -1    0    0  501    0  0.00000000000E+00  0.00000000000E+00  0.37047427064E+02  0.37047427064E+02  0.00000000000E+00 0. -1.
         -1   -1    0    0    0  501 -0.00000000000E+00 -0.00000000000E+00 -0.56725599554E+02  0.56725599554E+02  0.00000000000E+00 0.  1.
         23    2    1    2    0    0  0.00000000000E+00  0.00000000000E+00 -0.19678172490E+02  0.93773026617E+02  0.91685059025E+02 0.  0.
        -11    1    3    3    0    0 -0.17981229679E+02  0.15037394538E+02 -0.50132843615E+02  0.55342116550E+02  0.00000000000E+00 0.  1.
         11    1    3    3    0    0  0.17981229679E+02 -0.15037394538E+02  0.30454671125E+02  0.38430910068E+02  0.00000000000E+00 0. -1.
<mgrwt>
<rscale>  0 0.91685059E+02</rscale>
<asrwt>0</asrwt>
<pdfrwt beam="1">  1        1 0.56996042E-02 0.91685059E+02</pdfrwt>
<pdfrwt beam="2">  1       -1 0.87270153E-02 0.91685059E+02</pdfrwt>
<totfact> 0.88204075E+04</totfact>
</mgrwt>
</event>
<event>
 5    1  0.5681061E+000  0.8907136E+02  0.7546771E-02  0.1305116E+00
         -2   -1    0    0    0  501 -0.00000000000E+00  0.00000000000E+00  0.10041255235E+02  0.10041255235E+02  0.00000000000E+00 0.  1.
          2   -1    0    0  501    0  0.00000000000E+00 -0.00000000000E+00 -0.19752777681E+03  0.19752777681E+03  0.00000000000E+00 0. -1.
         23    2    1    2    0    0  0.00000000000E+00  0.00000000000E+00 -0.18748652157E+03  0.20756903204E+03  0.89071360671E+02 0.  0.
        -11    1    3    3    0    0 -0.38450101975E+02 -0.21341857529E+02 -0.11014573939E+03  0.11860003849E+03  0.00000000000E+00 0.  1.
         11    1    3    3    0    0  0.38450101975E+02  0.21341857529E+02 -0.77340782186E+02  0.88968993553E+02  0.00000000000E+00 0. -1.
<mgrwt>
<rscale>  0 0.89071361E+02</rscale>
<asrwt>0</asrwt>
<pdfrwt beam="2">  1        2 0.30388889E-01 0.89071361E+02</pdfrwt>
<pdfrwt beam="1">  1       -2 0.15448085E-02 0.89071361E+02</pdfrwt>
<totfact> 0.16396525E+05</totfact>
</mgrwt>
</event>
<event>
 5    1  0.5681061E+000  0.9174876E+02  0.7546771E-02  0.1298671E+00
         -2   -1    0    0    0  501 -0.00000000000E+00  0.00000000000E+00  0.11619765928E+02  0.11619765928E+02  0.00000000000E+00 0.  1.
          2   -1    0    0  501    0  0.00000000000E+00 -0.00000000000E+00 -0.18111026739E+03  0.18111026739E+03  0.00000000000E+00 0. -1.
         23    2    1    2    0    0  0.00000000000E+00  0.00000000000E+00 -0.16949050146E+03  0.19273003332E+03  0.91748763790E+02 0.  0.
        -11    1    3    3    0    0  0.40313146088E+02 -0.20899027323E+02 -0.98446085161E+02  0.10841379421E+03  0.00000000000E+00 0.  1.
         11    1    3    3    0    0 -0.40313146088E+02  0.20899027323E+02 -0.71044416302E+02  0.84316239113E+02  0.00000000000E+00 0. -1.
<mgrwt>
<rscale>  0 0.91748764E+02</rscale>
<asrwt>0</asrwt>
<pdfrwt beam="2">  1        2 0.27863118E-01 0.91748764E+02</pdfrwt>
<pdfrwt beam="1">  1       -2 0.17876563E-02 0.91748764E+02</pdfrwt>
<totfact> 0.14677093E+05</totfact>
</mgrwt>
</event>
<event>
 5    1  0.5681061E+000  0.8994661E+02  0.7546771E-02  0.1302981E+00
         -2   -1    0    0    0  501 -0.00000000000E+00  0.00000000000E+00  0.15451165163E+03  0.15451165163E+03  0.00000000000E+00 0.  1.
          2   -1    0    0  501    0  0.00000000000E+00 -0.00000000000E+00 -0.13090262299E+02  0.13090262299E+02  0.00000000000E+00 0. -1.
         23    2    1    2    0    0  0.00000000000E+00  0.00000000000E+00  0.14142138933E+03  0.16760191393E+03  0.89946607455E+02 0.  0.
        -11    1    3    3    0    0 -0.65592125271E+01 -0.38256758201E+02  0.28383739308E+02  0.48085751259E+02  0.00000000000E+00 0. -1.
         11    1    3    3    0    0  0.65592125271E+01  0.38256758201E+02  0.11303765002E+03  0.11951616267E+03  0.00000000000E+00 0.  1.
<mgrwt>
<rscale>  0 0.89946607E+02</rscale>
<asrwt>0</asrwt>
<pdfrwt beam="2">  1        2 0.20138866E-02 0.89946607E+02</pdfrwt>
<pdfrwt beam="1">  1       -2 0.23771022E-01 0.89946607E+02</pdfrwt>
<totfact> 0.71519072E+04</totfact>
</mgrwt>
</event>
<event>
 5    1  0.5681061E+000  0.9205844E+02  0.7546771E-02  0.1297942E+00
         -4   -1    0    0    0  501 -0.00000000000E+00  0.00000000000E+00  0.32013529377E+02  0.32013529377E+02  0.00000000000E+00 0.  1.
          4   -1    0    0  501    0  0.00000000000E+00 -0.00000000000E+00 -0.66181047610E+02  0.66181047610E+02  0.00000000000E+00 0. -1.
         23    2    1    2    0    0  0.00000000000E+00  0.00000000000E+00 -0.34167518234E+02  0.98194576987E+02  0.92058436047E+02 0.  0.
        -11    1    3    3    0    0  0.44289349759E+02  0.11105287727E+02 -0.23286427604E+02  0.51255552169E+02  0.00000000000E+00 0. -1.
         11    1    3    3    0    0 -0.44289349759E+02 -0.11105287727E+02 -0.10881090630E+02  0.46939024818E+02  0.00000000000E+00 0.  1.
<mgrwt>
<rscale>  0 0.92058436E+02</rscale>
<asrwt>0</asrwt>
<pdfrwt beam="2">  1        4 0.10181700E-01 0.92058436E+02</pdfrwt>
<pdfrwt beam="1">  1       -4 0.49251584E-02 0.92058436E+02</pdfrwt>
<totfact> 0.25884473E+04</totfact>
</mgrwt>
</event>
<event>
 5    1  0.5681061E+000  0.9341127E+02  0.7546771E-02  0.1294795E+00
          1   -1    0    0  501    0  0.00000000000E+00  0.00000000000E+00  0.86292826341E+01  0.86292826341E+01  0.00000000000E+00 0. -1.
         -1   -1    0    0    0  501 -0.00000000000E+00 -0.00000000000E+00 -0.25279230365E+03  0.25279230365E+03  0.00000000000E+00 0.  1.
         23    2    1    2    0    0  0.00000000000E+00  0.00000000000E+00 -0.24416302102E+03  0.26142158628E+03  0.93411267755E+02 0.  0.
        -11    1    3    3    0    0 -0.40225888613E+02  0.21013702515E+02 -0.15295746175E+03  0.15954837170E+03  0.00000000000E+00 0.  1.
         11    1    3    3    0    0  0.40225888613E+02 -0.21013702515E+02 -0.91205559268E+02  0.10187321458E+03  0.00000000000E+00 0. -1.
<mgrwt>
<rscale>  0 0.93411268E+02</rscale>
<asrwt>0</asrwt>
<pdfrwt beam="1">  1        1 0.13275819E-02 0.93411268E+02</pdfrwt>
<pdfrwt beam="2">  1       -1 0.38891124E-01 0.93411268E+02</pdfrwt>
<totfact> 0.60561852E+04</totfact>
</mgrwt>
</event>
<event>
 5    1  0.5681061E+000  0.9668791E+02  0.7546771E-02  0.1287419E+00
         -2   -1    0    0    0  501 -0.00000000000E+00  0.00000000000E+00  0.24952162219E+02  0.24952162219E+02  0.00000000000E+00 0.  1.
          2   -1    0    0  501    0  0.00000000000E+00 -0.00000000000E+00 -0.93664757128E+02  0.93664757128E+02  0.00000000000E+00 0. -1.
         23    2    1    2    0    0  0.00000000000E+00  0.00000000000E+00 -0.68712594909E+02  0.11861691935E+03  0.96687914738E+02 0.  0.
        -11    1    3    3    0    0 -0.19910215849E+02  0.29062405908E+02  0.62598900685E+01  0.35780250921E+02  0.00000000000E+00 0.  1.
         11    1    3    3    0    0  0.19910215849E+02 -0.29062405908E+02 -0.74972484978E+02  0.82836668427E+02  0.00000000000E+00 0. -1.
<mgrwt>
<rscale>  0 0.96687915E+02</rscale>
<asrwt>0</asrwt>
<pdfrwt beam="2">  1        2 0.14409963E-01 0.96687915E+02</pdfrwt>
<pdfrwt beam="1">  1       -2 0.38387942E-02 0.96687915E+02</pdfrwt>
<totfact> 0.10220255E+05</totfact>
</mgrwt>
</event>
<event>
 5    1  0.5681061E+000  0.9074274E+02  0.7546771E-02  0.1301063E+00
          1   -1    0    0  501    0  0.00000000000E+00  0.00000000000E+00  0.15615736873E+02  0.15615736873E+02  0.00000000000E+00 0. -1.
         -1   -1    0    0    0  501 -0.00000000000E+00 -0.00000000000E+00 -0.13182605952E+03  0.13182605952E+03  0.00000000000E+00 0.  1.
         23    2    1    2    0    0  0.00000000000E+00  0.00000000000E+00 -0.11621032265E+03  0.14744179640E+03  0.90742736538E+02 0.  0.
        -11    1    3    3    0    0  0.27707133835E+02 -0.14514514691E+02 -0.47026397753E+01  0.31630226413E+02  0.00000000000E+00 0. -1.
         11    1    3    3    0    0 -0.27707133835E+02  0.14514514691E+02 -0.11150768288E+03  0.11581156999E+03  0.00000000000E+00 0.  1.
<mgrwt>
<rscale>  0 0.90742737E+02</rscale>
<asrwt>0</asrwt>
<pdfrwt beam="1">  1        1 0.24024211E-02 0.90742737E+02</pdfrwt>
<pdfrwt beam="2">  1       -1 0.20280932E-01 0.90742737E+02</pdfrwt>
<totfact> 0.77950294E+04</totfact>
</mgrwt>
</event>
<event>
 5    1  0.5681061E+000  0.9248099E+02  0.7546771E-02  0.1296952E+00
          3   -1    0    0  501    0  0.00000000000E+00  0.00000000000E+00  0.18428827877E+02  0.18428827877E+02  0.00000000000E+00 0. -1.
         -3   -1    0    0    0  501 -0.00000000000E+00 -0.00000000000E+00 -0.11602384573E+03  0.11602384573E+03  0.00000000000E+00 0.  1.
         23    2    1    2    0    0  0.00000000000E+00  0.00000000000E+00 -0.97595017851E+02  0.13445267361E+03  0.92480992265E+02 0.  0.
        -11    1    3    3    0    0  0.20875401162E+01 -0.40784585121E+02 -0.80330894000E+02  0.90115441175E+02  0.00000000000E+00 0.  1.
         11    1    3    3    0    0 -0.20875401162E+01  0.40784585121E+02 -0.17264123851E+02  0.44337232430E+02  0.00000000000E+00 0. -1.
<mgrwt>
<rscale>  0 0.92480992E+02</rscale>
<asrwt>0</asrwt>
<pdfrwt beam="1">  1        3 0.28352043E-02 0.92480992E+02</pdfrwt>
<pdfrwt beam="2">  1       -3 0.17849822E-01 0.92480992E+02</pdfrwt>
<totfact> 0.31064212E+04</totfact>
</mgrwt>
</event>
<event>
 5    1  0.5681061E+000  0.8638371E+02  0.7546771E-02  0.1311853E+00
         -1   -1    0    0    0  501 -0.00000000000E+00  0.00000000000E+00  0.73373516639E+02  0.73373516639E+02  0.00000000000E+00 0.  1.
          1   -1    0    0  501    0  0.00000000000E+00 -0.00000000000E+00 -0.25425202798E+02  0.25425202798E+02  0.00000000000E+00 0. -1.
         23    2    1    2    0    0  0.00000000000E+00  0.00000000000E+00  0.47948313841E+02  0.98798719437E+02  0.86383714681E+02 0.  0.
        -11    1    3    3    0    0 -0.12701898561E+02  0.41281626637E+02  0.23791105680E+02  0.49310522551E+02  0.00000000000E+00 0.  1.
         11    1    3    3    0    0  0.12701898561E+02 -0.41281626637E+02  0.24157208161E+02  0.49488196885E+02  0.00000000000E+00 0. -1.
<mgrwt>
<rscale>  0 0.86383715E+02</rscale>
<asrwt>0</asrwt>
<pdfrwt beam="2">  1        1 0.39115697E-02 0.86383715E+02</pdfrwt>
<pdfrwt beam="1">  1       -1 0.11288233E-01 0.86383715E+02</pdfrwt>
<totfact> 0.98554817E+04</totfact>
</mgrwt>
</event>
<event>
 5    1  0.5681061E+000  0.9333414E+02  0.7546771E-02  0.1294973E+00
          2   -1    0    0  501    0  0.00000000000E+00  0.00000000000E+00  0.12356071743E+03  0.12356071743E+03  0.00000000000E+00 0. -1.
         -2   -1    0    0    0  501 -0.00000000000E+00 -0.00000000000E+00 -0.17625467020E+02  0.17625467020E+02  0.00000000000E+00 0.  1.
         23    2    1    2    0    0  0.00000000000E+00  0.00000000000E+00  0.10593525041E+03  0.14118618445E+03  0.93334138449E+02 0.  0.
        -11    1    3    3    0    0 -0.18671554580E+02  0.10745846931E+02 -0.96535191360E+01  0.23607003377E+02  0.00000000000E+00 0.  1.
         11    1    3    3    0    0  0.18671554580E+02 -0.10745846931E+02  0.11558876954E+03  0.11757918107E+03  0.00000000000E+00 0. -1.
<mgrwt>
<rscale>  0 0.93334138E+02</rscale>
<asrwt>0</asrwt>
<pdfrwt beam="1">  1        2 0.19009341E-01 0.93334138E+02</pdfrwt>
<pdfrwt beam="2">  1       -2 0.27116104E-02 0.93334138E+02</pdfrwt>
<totfact> 0.12296213E+05</totfact>
</mgrwt>
</event>
<event>
 5    1  0.5681061E+000  0.8354100E+02  0.7546771E-02  0.1319293E+00
         -3   -1    0    0    0  501 -0.00000000000E+00  0.00000000000E+00  0.85413361830E+02  0.85413361830E+02  0.00000000000E+00 0.  1.
          3   -1    0    0  501    0  0.00000000000E+00 -0.00000000000E+00 -0.20427418341E+02  0.20427418341E+02  0.00000000000E+00 0. -1.
         23    2    1    2    0    0  0.00000000000E+00  0.00000000000E+00  0.64985943489E+02  0.10584078017E+03  0.83540995302E+02 0.  0.
        -11    1    3    3    0    0 -0.89682356240E+01 -0.38738286992E+02  0.48702296331E+02  0.62872870121E+02  0.00000000000E+00 0. -1.
         11    1    3    3    0    0  0.89682356240E+01  0.38738286992E+02  0.16283647159E+02  0.42967910051E+02  0.00000000000E+00 0.  1.
<mgrwt>
<rscale>  0 0.83540995E+02</rscale>
<asrwt>0</asrwt>
<pdfrwt beam="2">  1        3 0.31426798E-02 0.83540995E+02</pdfrwt>
<pdfrwt beam="1">  1       -3 0.13140517E-01 0.83540995E+02</pdfrwt>
<totfact> 0.43375476E+04</totfact>
</mgrwt>
</event>
<event>
 5    1  0.5681061E+000  0.9030296E+02  0.7546771E-02  0.1302120E+00
          3   -1    0    0  501    0  0.00000000000E+00  0.00000000000E+00  0.15835309651E+03  0.15835309651E+03  0.00000000000E+00 0. -1.
         -3   -1    0    0    0  501 -0.00000000000E+00 -0.00000000000E+00 -0.12874116162E+02  0.12874116162E+02  0.00000000000E+00 0.  1.
         23    2    1    2    0    0  0.00000000000E+00  0.00000000000E+00  0.14547898034E+03  0.17122721267E+03  0.90302960285E+02 0.  0.
        -11    1    3    3    0    0  0.19892745963E+02  0.16724371811E+02  0.14274873606E+03  0.14509523631E+03  0.00000000000E+00 0. -1.
         11    1    3    3    0    0 -0.19892745963E+02 -0.16724371811E+02  0.27302442869E+01  0.26131976357E+02  0.00000000000E+00 0.  1.
<mgrwt>
<rscale>  0 0.90302960E+02</rscale>
<asrwt>0</asrwt>
<pdfrwt beam="1">  1        3 0.24362014E-01 0.90302960E+02</pdfrwt>
<pdfrwt beam="2">  1       -3 0.19806334E-02 0.90302960E+02</pdfrwt>
<totfact> 0.30848190E+04</totfact>
</mgrwt>
</event>
<event>
 5    1  0.5681061E+000  0.1000384E+03  0.7546771E-02  0.1280215E+00
         -2   -1    0    0    0  501 -0.00000000000E+00  0.00000000000E+00  0.72914418315E+01  0.72914418315E+01  0.00000000000E+00 0.  1.
          2   -1    0    0  501    0  0.00000000000E+00 -0.00000000000E+00 -0.34313111818E+03  0.34313111818E+03  0.00000000000E+00 0. -1.
         23    2    1    2    0    0  0.00000000000E+00  0.00000000000E+00 -0.33583967635E+03  0.35042256001E+03  0.10003840440E+03 0.  0.
        -11    1    3    3    0    0 -0.32430672204E+02  0.33624452822E+02 -0.10530069483E+03  0.11519804104E+03  0.00000000000E+00 0.  1.
         11    1    3    3    0    0  0.32430672204E+02 -0.33624452822E+02 -0.23053898151E+03  0.23522451897E+03  0.00000000000E+00 0. -1.
<mgrwt>
<rscale>  0 0.10003840E+03</rscale>
<asrwt>0</asrwt>
<pdfrwt beam="2">  1        2 0.52789412E-01 0.10003840E+03</pdfrwt>
<pdfrwt beam="1">  1       -2 0.11217601E-02 0.10003840E+03</pdfrwt>
<totfact> 0.14731445E+05</totfact>
</mgrwt>
</event>
<event>
 5    1  0.5681061E+000  0.9045896E+02  0.7546771E-02  0.1301744E+00
         -2   -1    0    0    0  501 -0.00000000000E+00  0.00000000000E+00  0.75115587161E+02  0.75115587161E+02  0.00000000000E+00 0.  1.
          2   -1    0    0  501    0  0.00000000000E+00 -0.00000000000E+00 -0.27234107983E+02  0.27234107983E+02  0.00000000000E+00 0. -1.
         23    2    1    2    0    0  0.00000000000E+00  0.00000000000E+00  0.47881479178E+02  0.10234969514E+03  0.90458963336E+02 0.  0.
        -11    1    3    3    0    0  0.28258226467E+02  0.31150606784E+01  0.63742581648E+02  0.69795040520E+02  0.00000000000E+00 0.  1.
         11    1    3    3    0    0 -0.28258226467E+02 -0.31150606784E+01 -0.15861102470E+02  0.32554654623E+02  0.00000000000E+00 0. -1.
<mgrwt>
<rscale>  0 0.90458963E+02</rscale>
<asrwt>0</asrwt>
<pdfrwt beam="2">  1        2 0.41898628E-02 0.90458963E+02</pdfrwt>
<pdfrwt beam="1">  1       -2 0.11556244E-01 0.90458963E+02</pdfrwt>
<totfact> 0.88249342E+04</totfact>
</mgrwt>
</event>
<event>
 5    1  0.5681061E+000  0.8969988E+02  0.7546771E-02  0.1303580E+00
         -2   -1    0    0    0  501 -0.00000000000E+00  0.00000000000E+00  0.87383798738E+02  0.87383798738E+02  0.00000000000E+00 0. -1.
          2   -1    0    0  501    0  0.00000000000E+00 -0.00000000000E+00 -0.23019338031E+02  0.23019338031E+02  0.00000000000E+00 0.  1.
         23    2    1    2    0    0  0.00000000000E+00  0.00000000000E+00  0.64364460706E+02  0.11040313677E+03  0.89699881864E+02 0.  0.
        -11    1    3    3    0    0  0.27707961321E+02  0.16625552835E+02  0.70463597293E+02  0.77519408351E+02  0.00000000000E+00 0. -1.
         11    1    3    3    0    0 -0.27707961321E+02 -0.16625552835E+02 -0.60991365863E+01  0.32883728419E+02  0.00000000000E+00 0.  1.
<mgrwt>
<rscale>  0 0.89699882E+02</rscale>
<asrwt>0</asrwt>
<pdfrwt beam="2">  1        2 0.35414367E-02 0.89699882E+02</pdfrwt>
<pdfrwt beam="1">  1       -2 0.13443661E-01 0.89699882E+02</pdfrwt>
<totfact> 0.86415353E+04</totfact>
</mgrwt>
</event>
<event>
 5    1  0.5681061E+000  0.9104583E+02  0.7546771E-02  0.1300339E+00
          3   -1    0    0  501    0  0.00000000000E+00  0.00000000000E+00  0.54208638233E+02  0.54208638233E+02  0.00000000000E+00 0. -1.
         -3   -1    0    0    0  501 -0.00000000000E+00 -0.00000000000E+00 -0.38228887357E+02  0.38228887357E+02  0.00000000000E+00 0.  1.
         23    2    1    2    0    0  0.00000000000E+00  0.00000000000E+00  0.15979750876E+02  0.92437525589E+02  0.91045832958E+02 0.  0.
        -11    1    3    3    0    0  0.12271008400E+02  0.26748079855E+02  0.43252581111E+02  0.52314655651E+02  0.00000000000E+00 0. -1.
         11    1    3    3    0    0 -0.12271008400E+02 -0.26748079855E+02 -0.27272830235E+02  0.40122869939E+02  0.00000000000E+00 0.  1.
<mgrwt>
<rscale>  0 0.91045833E+02</rscale>
<asrwt>0</asrwt>
<pdfrwt beam="1">  1        3 0.83397905E-02 0.91045833E+02</pdfrwt>
<pdfrwt beam="2">  1       -3 0.58813673E-02 0.91045833E+02</pdfrwt>
<totfact> 0.35380618E+04</totfact>
</mgrwt>
</event>
<event>
 5    1  0.5681061E+000  0.9119905E+02  0.7546771E-02  0.1299974E+00
         -2   -1    0    0    0  501 -0.00000000000E+00  0.00000000000E+00  0.23694502895E+02  0.23694502895E+02  0.00000000000E+00 0.  1.
          2   -1    0    0  501    0  0.00000000000E+00 -0.00000000000E+00 -0.87755227315E+02  0.87755227315E+02  0.00000000000E+00 0. -1.
         23    2    1    2    0    0  0.00000000000E+00  0.00000000000E+00 -0.64060724420E+02  0.11144973021E+03  0.91199045778E+02 0.  0.
        -11    1    3    3    0    0 -0.24930463492E+02 -0.37174391028E+02 -0.42673641997E+02  0.61842566889E+02  0.00000000000E+00 0.  1.
         11    1    3    3    0    0  0.24930463492E+02  0.37174391028E+02 -0.21387082424E+02  0.49607163321E+02  0.00000000000E+00 0. -1.
<mgrwt>
<rscale>  0 0.91199046E+02</rscale>
<asrwt>0</asrwt>
<pdfrwt beam="2">  1        2 0.13500805E-01 0.91199046E+02</pdfrwt>
<pdfrwt beam="1">  1       -2 0.36453081E-02 0.91199046E+02</pdfrwt>
<totfact> 0.11789741E+05</totfact>
</mgrwt>
</event>
<event>
 5    1  0.5681061E+000  0.9211787E+02  0.7546771E-02  0.1297803E+00
         -1   -1    0    0    0  501 -0.00000000000E+00  0.00000000000E+00  0.34706412855E+02  0.34706412855E+02  0.00000000000E+00 0.  1.
          1   -1    0    0  501    0  0.00000000000E+00 -0.00000000000E+00 -0.61124880936E+02  0.61124880936E+02  0.00000000000E+00 0. -1.
         23    2    1    2    0    0  0.00000000000E+00  0.00000000000E+00 -0.26418468080E+02  0.95831293791E+02  0.92117866964E+02 0.  0.
        -11    1    3    3    0    0 -0.66795564678E+01 -0.22258536329E+02 -0.54578683105E+02  0.59320245815E+02  0.00000000000E+00 0. -1.
         11    1    3    3    0    0  0.66795564678E+01  0.22258536329E+02  0.28160215024E+02  0.36511047976E+02  0.00000000000E+00 0.  1.
<mgrwt>
<rscale>  0 0.92117867E+02</rscale>
<asrwt>0</asrwt>
<pdfrwt beam="2">  1        1 0.94038278E-02 0.92117867E+02</pdfrwt>
<pdfrwt beam="1">  1       -1 0.53394482E-02 0.92117867E+02</pdfrwt>
<totfact> 0.93926375E+04</totfact>
</mgrwt>
</event>
<event>
 5    1  0.5681061E+000  0.9565779E+02  0.7546771E-02  0.1289701E+00
         -2   -1    0    0    0  501 -0.00000000000E+00  0.00000000000E+00  0.82768673765E+02  0.82768673765E+02  0.00000000000E+00 0.  1.
          2   -1    0    0  501    0  0.00000000000E+00 -0.00000000000E+00 -0.27638516822E+02  0.27638516822E+02  0.00000000000E+00 0. -1.
         23    2    1    2    0    0  0.00000000000E+00  0.00000000000E+00  0.55130156943E+02  0.11040719059E+03  0.95657793873E+02 0.  0.
        -11    1    3    3    0    0 -0.38169078065E+02  0.28148385727E+02  0.20413459035E+02  0.51632542540E+02  0.00000000000E+00 0. -1.
         11    1    3    3    0    0  0.38169078065E+02 -0.28148385727E+02  0.34716697908E+02  0.58774648046E+02  0.00000000000E+00 0.  1.
<mgrwt>
<rscale>  0 0.95657794E+02</rscale>
<asrwt>0</asrwt>
<pdfrwt beam="2">  1        2 0.42520796E-02 0.95657794E+02</pdfrwt>
<pdfrwt beam="1">  1       -2 0.12733642E-01 0.95657794E+02</pdfrwt>
<totfact> 0.74890721E+04</totfact>
</mgrwt>
</event>
<event>
 5    1  0.5681061E+000  0.8053349E+02  0.7546771E-02  0.1327544E+00
         -3   -1    0    0    0  501 -0.00000000000E+00  0.00000000000E+00  0.33481021927E+02  0.33481021927E+02  0.00000000000E+00 0.  1.
          3   -1    0    0  501    0  0.00000000000E+00 -0.00000000000E+00 -0.48427752940E+02  0.48427752940E+02  0.00000000000E+00 0. -1.
         23    2    1    2    0    0  0.00000000000E+00  0.00000000000E+00 -0.14946731012E+02  0.81908774867E+02  0.80533487645E+02 0.  0.
        -11    1    3    3    0    0 -0.16090744036E+02  0.18739526873E+02  0.24871108941E+02  0.35052160718E+02  0.00000000000E+00 0.  1.
         11    1    3    3    0    0  0.16090744036E+02 -0.18739526873E+02 -0.39817839953E+02  0.46856614150E+02  0.00000000000E+00 0. -1.
<mgrwt>
<rscale>  0 0.80533488E+02</rscale>
<asrwt>0</asrwt>
<pdfrwt beam="2">  1        3 0.74504235E-02 0.80533488E+02</pdfrwt>
<pdfrwt beam="1">  1       -3 0.51509265E-02 0.80533488E+02</pdfrwt>
<totfact> 0.50454887E+04</totfact>
</mgrwt>
</event>
<event>
 5    1  0.5681061E+000  0.9252946E+02  0.7546771E-02  0.1296839E+00
          2   -1    0    0  501    0  0.00000000000E+00  0.00000000000E+00  0.22736120522E+02  0.22736120522E+02  0.00000000000E+00 0. -1.
         -2   -1    0    0    0  501 -0.00000000000E+00 -0.00000000000E+00 -0.94142051486E+02  0.94142051486E+02  0.00000000000E+00 0.  1.
         23    2    1    2    0    0  0.00000000000E+00  0.00000000000E+00 -0.71405930964E+02  0.11687817201E+03  0.92529455393E+02 0.  0.
        -11    1    3    3    0    0  0.27037406171E+02 -0.24887186289E+02 -0.71206831911E+02  0.80129933762E+02  0.00000000000E+00 0.  1.
         11    1    3    3    0    0 -0.27037406171E+02  0.24887186289E+02 -0.19909905274E+00  0.36748238247E+02  0.00000000000E+00 0. -1.
<mgrwt>
<rscale>  0 0.92529455E+02</rscale>
<asrwt>0</asrwt>
<pdfrwt beam="1">  1        2 0.34978648E-02 0.92529455E+02</pdfrwt>
<pdfrwt beam="2">  1       -2 0.14483392E-01 0.92529455E+02</pdfrwt>
<totfact> 0.78323691E+04</totfact>
</mgrwt>
</event>
<event>
 5    1  0.5681061E+000  0.9246826E+02  0.7546771E-02  0.1296982E+00
         -2   -1    0    0    0  501 -0.00000000000E+00  0.00000000000E+00  0.14032372640E+02  0.14032372640E+02  0.00000000000E+00 0. -1.
          2   -1    0    0  501    0  0.00000000000E+00 -0.00000000000E+00 -0.15233308755E+03  0.15233308755E+03  0.00000000000E+00 0.  1.
         23    2    1    2    0    0  0.00000000000E+00  0.00000000000E+00 -0.13830071491E+03  0.16636546019E+03  0.92468257254E+02 0.  0.
        -11    1    3    3    0    0  0.19010428102E+02  0.19764701859E+02 -0.13612067404E+03  0.13885560024E+03  0.00000000000E+00 0.  1.
         11    1    3    3    0    0 -0.19010428102E+02 -0.19764701859E+02 -0.21800408647E+01  0.27509859948E+02  0.00000000000E+00 0. -1.
<mgrwt>
<rscale>  0 0.92468257E+02</rscale>
<asrwt>0</asrwt>
<pdfrwt beam="2">  1        2 0.23435859E-01 0.92468257E+02</pdfrwt>
<pdfrwt beam="1">  1       -2 0.21588266E-02 0.92468257E+02</pdfrwt>
<totfact> 0.13527629E+05</totfact>
</mgrwt>
</event>
<event>
 5    1  0.5681061E+000  0.9057272E+02  0.7546771E-02  0.1301471E+00
         -1   -1    0    0    0  501 -0.00000000000E+00  0.00000000000E+00  0.18287199850E+03  0.18287199850E+03  0.00000000000E+00 0.  1.
          1   -1    0    0  501    0  0.00000000000E+00 -0.00000000000E+00 -0.11214698537E+02  0.11214698537E+02  0.00000000000E+00 0. -1.
         23    2    1    2    0    0  0.00000000000E+00  0.00000000000E+00  0.17165729997E+03  0.19408669704E+03  0.90572718501E+02 0.  0.
        -11    1    3    3    0    0  0.23290053298E+02  0.14777811158E+02  0.16279495473E+03  0.16511513429E+03  0.00000000000E+00 0.  1.
         11    1    3    3    0    0 -0.23290053298E+02 -0.14777811158E+02  0.88623452357E+01  0.28971562753E+02  0.00000000000E+00 0. -1.
<mgrwt>
<rscale>  0 0.90572719E+02</rscale>
<asrwt>0</asrwt>
<pdfrwt beam="2">  1        1 0.17253384E-02 0.90572719E+02</pdfrwt>
<pdfrwt beam="1">  1       -1 0.28134151E-01 0.90572719E+02</pdfrwt>
<totfact> 0.72409330E+04</totfact>
</mgrwt>
</event>
<event>
 5    1  0.5681061E+000  0.9075187E+02  0.7546771E-02  0.1301041E+00
          1   -1    0    0  501    0  0.00000000000E+00  0.00000000000E+00  0.32749905122E+02  0.32749905122E+02  0.00000000000E+00 0. -1.
         -1   -1    0    0    0  501 -0.00000000000E+00 -0.00000000000E+00 -0.62869656971E+02  0.62869656971E+02  0.00000000000E+00 0.  1.
         23    2    1    2    0    0  0.00000000000E+00  0.00000000000E+00 -0.30119751849E+02  0.95619562092E+02  0.90751866115E+02 0.  0.
        -11    1    3    3    0    0  0.31275663778E+02  0.28429281903E+02 -0.32455556938E+02  0.53289345937E+02  0.00000000000E+00 0.  1.
         11    1    3    3    0    0 -0.31275663778E+02 -0.28429281903E+02  0.23358050890E+01  0.42330216155E+02  0.00000000000E+00 0. -1.
<mgrwt>
<rscale>  0 0.90751866E+02</rscale>
<asrwt>0</asrwt>
<pdfrwt beam="1">  1        1 0.50384471E-02 0.90751866E+02</pdfrwt>
<pdfrwt beam="2">  1       -1 0.96722547E-02 0.90751866E+02</pdfrwt>
<totfact> 0.89084829E+04</totfact>
</mgrwt>
</event>
<event>
 5    1  0.5681061E+000  0.9232023E+02  0.7546771E-02  0.1297328E+00
         -1   -1    0    0    0  501 -0.00000000000E+00  0.00000000000E+00  0.13226967437E+03  0.13226967437E+03  0.00000000000E+00 0.  1.
          1   -1    0    0  501    0  0.00000000000E+00 -0.00000000000E+00 -0.16109182663E+02  0.16109182663E+02  0.00000000000E+00 0. -1.
         23    2    1    2    0    0  0.00000000000E+00  0.00000000000E+00  0.11616049170E+03  0.14837885703E+03  0.92320232778E+02 0.  0.
        -11    1    3    3    0    0  0.34757794641E+02  0.30954241939E+01  0.95148129943E+01  0.36169290919E+02  0.00000000000E+00 0. -1.
         11    1    3    3    0    0 -0.34757794641E+02 -0.30954241939E+01  0.10664567871E+03  0.11220956611E+03  0.00000000000E+00 0.  1.
<mgrwt>
<rscale>  0 0.92320233E+02</rscale>
<asrwt>0</asrwt>
<pdfrwt beam="2">  1        1 0.24783359E-02 0.92320233E+02</pdfrwt>
<pdfrwt beam="1">  1       -1 0.20349180E-01 0.92320233E+02</pdfrwt>
<totfact> 0.74490605E+04</totfact>
</mgrwt>
</event>
<event>
 5    1  0.5681061E+000  0.8989967E+02  0.7546771E-02  0.1303095E+00
          1   -1    0    0  501    0  0.00000000000E+00  0.00000000000E+00  0.52408643692E+02  0.52408643692E+02  0.00000000000E+00 0. -1.
         -1   -1    0    0    0  501 -0.00000000000E+00 -0.00000000000E+00 -0.38552561845E+02  0.38552561845E+02  0.00000000000E+00 0.  1.
         23    2    1    2    0    0  0.00000000000E+00  0.00000000000E+00  0.13856081848E+02  0.90961205537E+02  0.89899665786E+02 0.  0.
        -11    1    3    3    0    0 -0.62482273482E+01 -0.32481475141E+02 -0.23868193414E+02  0.40789425458E+02  0.00000000000E+00 0.  1.
         11    1    3    3    0    0  0.62482273482E+01  0.32481475141E+02  0.37724275261E+02  0.50171780079E+02  0.00000000000E+00 0. -1.
<mgrwt>
<rscale>  0 0.89899666E+02</rscale>
<asrwt>0</asrwt>
<pdfrwt beam="1">  1        1 0.80628683E-02 0.89899666E+02</pdfrwt>
<pdfrwt beam="2">  1       -1 0.59311634E-02 0.89899666E+02</pdfrwt>
<totfact> 0.98210550E+04</totfact>
</mgrwt>
</event>
<event>
 5    1  0.5681061E+000  0.8926959E+02  0.7546771E-02  0.1304630E+00
         -3   -1    0    0    0  501 -0.00000000000E+00  0.00000000000E+00  0.19272574624E+03  0.19272574624E+03  0.00000000000E+00 0.  1.
          3   -1    0    0  501    0  0.00000000000E+00 -0.00000000000E+00 -0.10337306041E+02  0.10337306041E+02  0.00000000000E+00 0. -1.
         23    2    1    2    0    0  0.00000000000E+00  0.00000000000E+00  0.18238844020E+03  0.20306305228E+03  0.89269592153E+02 0.  0.
        -11    1    3    3    0    0 -0.17273542769E+02  0.37761763577E+02  0.12842869957E+03  0.13497502340E+03  0.00000000000E+00 0. -1.
         11    1    3    3    0    0  0.17273542769E+02 -0.37761763577E+02  0.53959740628E+02  0.68088028881E+02  0.00000000000E+00 0.  1.
<mgrwt>
<rscale>  0 0.89269592E+02</rscale>
<asrwt>0</asrwt>
<pdfrwt beam="2">  1        3 0.15903549E-02 0.89269592E+02</pdfrwt>
<pdfrwt beam="1">  1       -3 0.29650112E-01 0.89269592E+02</pdfrwt>
<totfact> 0.29998143E+04</totfact>
</mgrwt>
</event>
<event>
 5    1  0.5681061E+000  0.9294309E+02  0.7546771E-02  0.1295877E+00
          3   -1    0    0  501    0  0.00000000000E+00  0.00000000000E+00  0.16796194486E+02  0.16796194486E+02  0.00000000000E+00 0. -1.
         -3   -1    0    0    0  501 -0.00000000000E+00 -0.00000000000E+00 -0.12857701210E+03  0.12857701210E+03  0.00000000000E+00 0.  1.
         23    2    1    2    0    0  0.00000000000E+00  0.00000000000E+00 -0.11178081762E+03  0.14537320659E+03  0.92943090150E+02 0.  0.
        -11    1    3    3    0    0  0.20065015230E+02 -0.28918741809E+02 -0.84304061838E+01  0.36193510640E+02  0.00000000000E+00 0. -1.
         11    1    3    3    0    0 -0.20065015230E+02  0.28918741809E+02 -0.10335041143E+03  0.10917969595E+03  0.00000000000E+00 0.  1.
<mgrwt>
<rscale>  0 0.92943090E+02</rscale>
<asrwt>0</asrwt>
<pdfrwt beam="1">  1        3 0.25840299E-02 0.92943090E+02</pdfrwt>
<pdfrwt beam="2">  1       -3 0.19781079E-01 0.92943090E+02</pdfrwt>
<totfact> 0.29989344E+04</totfact>
</mgrwt>
</event>
<event>
 5    1  0.5681061E+000  0.9184122E+02  0.7546771E-02  0.1298453E+00
         -2   -1    0    0    0  501 -0.00000000000E+00  0.00000000000E+00  0.28432843169E+02  0.28432843169E+02  0.00000000000E+00 0.  1.
          2   -1    0    0  501    0  0.00000000000E+00 -0.00000000000E+00 -0.74164318995E+02  0.74164318995E+02  0.00000000000E+00 0. -1.
         23    2    1    2    0    0  0.00000000000E+00  0.00000000000E+00 -0.45731475825E+02  0.10259716216E+03  0.91841220608E+02 0.  0.
        -11    1    3    3    0    0  0.12683980847E+02  0.30259291308E+02 -0.58756149954E+02  0.67296309245E+02  0.00000000000E+00 0. -1.
         11    1    3    3    0    0 -0.12683980847E+02 -0.30259291308E+02  0.13024674129E+02  0.35300852918E+02  0.00000000000E+00 0.  1.
<mgrwt>
<rscale>  0 0.91841221E+02</rscale>
<asrwt>0</asrwt>
<pdfrwt beam="2">  1        2 0.11409895E-01 0.91841221E+02</pdfrwt>
<pdfrwt beam="1">  1       -2 0.43742836E-02 0.91841221E+02</pdfrwt>
<totfact> 0.11015950E+05</totfact>
</mgrwt>
</event>
<event>
 5    1  0.5681061E+000  0.9032901E+02  0.7546771E-02  0.1302057E+00
          1   -1    0    0  501    0  0.00000000000E+00  0.00000000000E+00  0.40162576362E+02  0.40162576362E+02  0.00000000000E+00 0. -1.
         -1   -1    0    0    0  501 -0.00000000000E+00 -0.00000000000E+00 -0.50789386495E+02  0.50789386495E+02  0.00000000000E+00 0.  1.
         23    2    1    2    0    0  0.00000000000E+00  0.00000000000E+00 -0.10626810133E+02  0.90951962858E+02  0.90329012250E+02 0.  0.
        -11    1    3    3    0    0  0.19065632916E+01  0.39386669018E+02  0.16858627270E+02  0.42885405366E+02  0.00000000000E+00 0.  1.
         11    1    3    3    0    0 -0.19065632916E+01 -0.39386669018E+02 -0.27485437403E+02  0.48066557492E+02  0.00000000000E+00 0. -1.
<mgrwt>
<rscale>  0 0.90329012E+02</rscale>
<asrwt>0</asrwt>
<pdfrwt beam="1">  1        1 0.61788579E-02 0.90329012E+02</pdfrwt>
<pdfrwt beam="2">  1       -1 0.78137518E-02 0.90329012E+02</pdfrwt>
<totfact> 0.93141417E+04</totfact>
</mgrwt>
</event>
<event>
 5    1  0.5681061E+000  0.9330410E+02  0.7546771E-02  0.1295042E+00
         -1   -1    0    0    0  501 -0.00000000000E+00  0.00000000000E+00  0.45578411688E+03  0.45578411688E+03  0.00000000000E+00 0.  1.
          1   -1    0    0  501    0  0.00000000000E+00 -0.00000000000E+00 -0.47750981597E+01  0.47750981597E+01  0.00000000000E+00 0. -1.
         23    2    1    2    0    0  0.00000000000E+00  0.00000000000E+00  0.45100901872E+03  0.46055921504E+03  0.93304102755E+02 0.  0.
        -11    1    3    3    0    0 -0.44439369285E+02 -0.13618668162E+02  0.20570570764E+03  0.21089135549E+03  0.00000000000E+00 0. -1.
         11    1    3    3    0    0  0.44439369285E+02  0.13618668162E+02  0.24530331108E+03  0.24966785955E+03  0.00000000000E+00 0.  1.
<mgrwt>
<rscale>  0 0.93304103E+02</rscale>
<asrwt>0</asrwt>
<pdfrwt beam="2">  1        1 0.73463085E-03 0.93304103E+02</pdfrwt>
<pdfrwt beam="1">  1       -1 0.70120599E-01 0.93304103E+02</pdfrwt>
<totfact> 0.46771980E+04</totfact>
</mgrwt>
</event>
<event>
 5    1  0.5681061E+000  0.9146941E+02  0.7546771E-02  0.1299332E+00
          1   -1    0    0  501    0  0.00000000000E+00  0.00000000000E+00  0.30647852905E+02  0.30647852905E+02  0.00000000000E+00 0. -1.
         -1   -1    0    0    0  501 -0.00000000000E+00 -0.00000000000E+00 -0.68248284581E+02  0.68248284581E+02  0.00000000000E+00 0.  1.
         23    2    1    2    0    0  0.00000000000E+00  0.00000000000E+00 -0.37600431676E+02  0.98896137486E+02  0.91469413179E+02 0.  0.
        -11    1    3    3    0    0  0.11895596116E+02 -0.22137906315E+02  0.22513139354E+02  0.33740680884E+02  0.00000000000E+00 0. -1.
         11    1    3    3    0    0 -0.11895596116E+02  0.22137906315E+02 -0.60113571030E+02  0.65155456601E+02  0.00000000000E+00 0.  1.
<mgrwt>
<rscale>  0 0.91469413E+02</rscale>
<asrwt>0</asrwt>
<pdfrwt beam="1">  1        1 0.47150544E-02 0.91469413E+02</pdfrwt>
<pdfrwt beam="2">  1       -1 0.10499736E-01 0.91469413E+02</pdfrwt>
<totfact> 0.86186510E+04</totfact>
</mgrwt>
</event>
<event>
 5    1  0.5681061E+000  0.8999692E+02  0.7546771E-02  0.1302859E+00
          1   -1    0    0  501    0  0.00000000000E+00  0.00000000000E+00  0.36648410089E+02  0.36648410089E+02  0.00000000000E+00 0. -1.
         -1   -1    0    0    0  501 -0.00000000000E+00 -0.00000000000E+00 -0.55251002914E+02  0.55251002914E+02  0.00000000000E+00 0.  1.
         23    2    1    2    0    0  0.00000000000E+00  0.00000000000E+00 -0.18602592825E+02  0.91899413003E+02  0.89996920228E+02 0.  0.
        -11    1    3    3    0    0 -0.14056989383E+02  0.36898820036E+02 -0.31338508204E+02  0.50410554124E+02  0.00000000000E+00 0.  1.
         11    1    3    3    0    0  0.14056989383E+02 -0.36898820036E+02  0.12735915379E+02  0.41488858880E+02  0.00000000000E+00 0. -1.
<mgrwt>
<rscale>  0 0.89996920E+02</rscale>
<asrwt>0</asrwt>
<pdfrwt beam="1">  1        1 0.56382170E-02 0.89996920E+02</pdfrwt>
<pdfrwt beam="2">  1       -1 0.85001543E-02 0.89996920E+02</pdfrwt>
<totfact> 0.92820417E+04</totfact>
</mgrwt>
</event>
<event>
 5    1  0.5681061E+000  0.8907017E+02  0.7546771E-02  0.1305119E+00
         -2   -1    0    0    0  501 -0.00000000000E+00  0.00000000000E+00  0.13557017416E+02  0.13557017416E+02  0.00000000000E+00 0.  1.
          2   -1    0    0  501    0  0.00000000000E+00 -0.00000000000E+00 -0.14629868768E+03  0.14629868768E+03  0.00000000000E+00 0. -1.
         23    2    1    2    0    0  0.00000000000E+00  0.00000000000E+00 -0.13274167027E+03  0.15985570510E+03  0.89070171366E+02 0.  0.
        -11    1    3    3    0    0 -0.22137323381E+02  0.33543197586E+02 -0.10080726219E+03  0.10852332146E+03  0.00000000000E+00 0. -1.
         11    1    3    3    0    0  0.22137323381E+02 -0.33543197586E+02 -0.31934408082E+02  0.51332383641E+02  0.00000000000E+00 0.  1.
<mgrwt>
<rscale>  0 0.89070171E+02</rscale>
<asrwt>0</asrwt>
<pdfrwt beam="2">  1        2 0.22507491E-01 0.89070171E+02</pdfrwt>
<pdfrwt beam="1">  1       -2 0.20856949E-02 0.89070171E+02</pdfrwt>
<totfact> 0.14769698E+05</totfact>
</mgrwt>
</event>
<event>
 5    1  0.5681061E+000  0.9163545E+02  0.7546771E-02  0.1298939E+00
          1   -1    0    0  501    0  0.00000000000E+00  0.00000000000E+00  0.40043551377E+03  0.40043551377E+03  0.00000000000E+00 0.  1.
         -1   -1    0    0    0  501 -0.00000000000E+00 -0.00000000000E+00 -0.52424515328E+01  0.52424515328E+01  0.00000000000E+00 0. -1.
         23    2    1    2    0    0  0.00000000000E+00  0.00000000000E+00  0.39519306224E+03  0.40567796531E+03  0.91635446700E+02 0.  0.
        -11    1    3    3    0    0 -0.31118629732E+02  0.33434470641E+02  0.21357753104E+03  0.21840694748E+03  0.00000000000E+00 0. -1.
         11    1    3    3    0    0  0.31118629732E+02 -0.33434470641E+02  0.18161553121E+03  0.18727101783E+03  0.00000000000E+00 0.  1.
<mgrwt>
<rscale>  0 0.91635447E+02</rscale>
<asrwt>0</asrwt>
<pdfrwt beam="1">  1        1 0.61605440E-01 0.91635447E+02</pdfrwt>
<pdfrwt beam="2">  1       -1 0.80653131E-03 0.91635447E+02</pdfrwt>
<totfact> 0.13312876E+05</totfact>
</mgrwt>
</event>
<event>
 5    1  0.5681061E+000  0.9167931E+02  0.7546771E-02  0.1298835E+00
          2   -1    0    0  501    0  0.00000000000E+00  0.00000000000E+00  0.70426121995E+02  0.70426121995E+02  0.00000000000E+00 0.  1.
         -2   -1    0    0    0  501 -0.00000000000E+00 -0.00000000000E+00 -0.29836568903E+02  0.29836568903E+02  0.00000000000E+00 0. -1.
         23    2    1    2    0    0  0.00000000000E+00  0.00000000000E+00  0.40589553092E+02  0.10026269090E+03  0.91679307185E+02 0.  0.
        -11    1    3    3    0    0  0.22427929069E+02  0.27283420813E+02  0.52251749668E+02  0.63068553154E+02  0.00000000000E+00 0.  1.
         11    1    3    3    0    0 -0.22427929069E+02 -0.27283420813E+02 -0.11662196576E+02  0.37194137744E+02  0.00000000000E+00 0. -1.
<mgrwt>
<rscale>  0 0.91679307E+02</rscale>
<asrwt>0</asrwt>
<pdfrwt beam="1">  1        2 0.10834788E-01 0.91679307E+02</pdfrwt>
<pdfrwt beam="2">  1       -2 0.45902414E-02 0.91679307E+02</pdfrwt>
<totfact> 0.10911324E+05</totfact>
</mgrwt>
</event>
<event>
 5    1  0.5681061E+000  0.8797950E+02  0.7546771E-02  0.1307820E+00
         -2   -1    0    0    0  501 -0.00000000000E+00  0.00000000000E+00  0.86674121311E+02  0.86674121311E+02  0.00000000000E+00 0.  1.
          2   -1    0    0  501    0  0.00000000000E+00 -0.00000000000E+00 -0.22326134800E+02  0.22326134800E+02  0.00000000000E+00 0. -1.
         23    2    1    2    0    0  0.00000000000E+00  0.00000000000E+00  0.64347986511E+02  0.10900025611E+03  0.87979500249E+02 0.  0.
        -11    1    3    3    0    0  0.36391159107E+02  0.19033581047E+02  0.51704481953E+02  0.66029895673E+02  0.00000000000E+00 0.  1.
         11    1    3    3    0    0 -0.36391159107E+02 -0.19033581047E+02  0.12643504558E+02  0.42970360437E+02  0.00000000000E+00 0. -1.
<mgrwt>
<rscale>  0 0.87979500E+02</rscale>
<asrwt>0</asrwt>
<pdfrwt beam="2">  1        2 0.34347900E-02 0.87979500E+02</pdfrwt>
<pdfrwt beam="1">  1       -2 0.13334480E-01 0.87979500E+02</pdfrwt>
<totfact> 0.90855083E+04</totfact>
</mgrwt>
</event>
<event>
 5    1  0.5681061E+000  0.9166980E+02  0.7546771E-02  0.1298858E+00
          2   -1    0    0  501    0  0.00000000000E+00  0.00000000000E+00  0.20688062245E+03  0.20688062245E+03  0.00000000000E+00 0.  1.
         -2   -1    0    0    0  501 -0.00000000000E+00 -0.00000000000E+00 -0.10154832099E+02  0.10154832099E+02  0.00000000000E+00 0. -1.
         23    2    1    2    0    0  0.00000000000E+00  0.00000000000E+00  0.19672579035E+03  0.21703545455E+03  0.91669798418E+02 0.  0.
        -11    1    3    3    0    0  0.29976625104E+02 -0.58470034013E+01  0.17927911538E+03  0.18186199909E+03  0.00000000000E+00 0.  1.
         11    1    3    3    0    0 -0.29976625104E+02  0.58470034013E+01  0.17446674971E+02  0.35173455459E+02  0.00000000000E+00 0. -1.
<mgrwt>
<rscale>  0 0.91669798E+02</rscale>
<asrwt>0</asrwt>
<pdfrwt beam="1">  1        2 0.31827785E-01 0.91669798E+02</pdfrwt>
<pdfrwt beam="2">  1       -2 0.15622820E-02 0.91669798E+02</pdfrwt>
<totfact> 0.15433055E+05</totfact>
</mgrwt>
</event>
<event>
 5    1  0.5681061E+000  0.9291532E+02  0.7546771E-02  0.1295942E+00
          1   -1    0    0  501    0  0.00000000000E+00  0.00000000000E+00  0.96323363480E+02  0.96323363480E+02  0.00000000000E+00 0. -1.
         -1   -1    0    0    0  501 -0.00000000000E+00 -0.00000000000E+00 -0.22406965996E+02  0.22406965996E+02  0.00000000000E+00 0.  1.
         23    2    1    2    0    0  0.00000000000E+00  0.00000000000E+00  0.73916397485E+02  0.11873032948E+03  0.92915323389E+02 0.  0.
        -11    1    3    3    0    0 -0.26904311042E+02  0.27006600560E+02  0.30265794790E+01  0.38240797714E+02  0.00000000000E+00 0. -1.
         11    1    3    3    0    0  0.26904311042E+02 -0.27006600560E+02  0.70889818005E+02  0.80489531762E+02  0.00000000000E+00 0.  1.
<mgrwt>
<rscale>  0 0.92915323E+02</rscale>
<asrwt>0</asrwt>
<pdfrwt beam="1">  1        1 0.14818979E-01 0.92915323E+02</pdfrwt>
<pdfrwt beam="2">  1       -1 0.34472256E-02 0.92915323E+02</pdfrwt>
<totfact> 0.98580104E+04</totfact>
</mgrwt>
</event>
<event>
 5    1  0.5681061E+000  0.9040176E+02  0.7546771E-02  0.1301882E+00
         -1   -1    0    0    0  501 -0.00000000000E+00  0.00000000000E+00  0.20186096295E+02  0.20186096295E+02  0.00000000000E+00 0.  1.
          1   -1    0    0  501    0  0.00000000000E+00 -0.00000000000E+00 -0.10121419549E+03  0.10121419549E+03  0.00000000000E+00 0. -1.
         23    2    1    2    0    0  0.00000000000E+00  0.00000000000E+00 -0.81028099198E+02  0.12140029179E+03  0.90401758758E+02 0.  0.
        -11    1    3    3    0    0 -0.41559078458E+01 -0.38187889980E+02 -0.72505829624E+02  0.82052920976E+02  0.00000000000E+00 0. -1.
         11    1    3    3    0    0  0.41559078458E+01  0.38187889980E+02 -0.85222695735E+01  0.39347370812E+02  0.00000000000E+00 0.  1.
<mgrwt>
<rscale>  0 0.90401759E+02</rscale>
<asrwt>0</asrwt>
<pdfrwt beam="2">  1        1 0.15571415E-01 0.90401759E+02</pdfrwt>
<pdfrwt beam="1">  1       -1 0.31055533E-02 0.90401759E+02</pdfrwt>
<totfact> 0.10712244E+05</totfact>
</mgrwt>
</event>
<event>
 5    1  0.5681061E+000  0.9169311E+02  0.7546771E-02  0.1298803E+00
         -2   -1    0    0    0  501 -0.00000000000E+00  0.00000000000E+00  0.37889367872E+02  0.37889367872E+02  0.00000000000E+00 0. -1.
          2   -1    0    0  501    0  0.00000000000E+00 -0.00000000000E+00 -0.55474837042E+02  0.55474837042E+02  0.00000000000E+00 0.  1.
         23    2    1    2    0    0  0.00000000000E+00  0.00000000000E+00 -0.17585469170E+02  0.93364204914E+02  0.91693107883E+02 0.  0.
        -11    1    3    3    0    0 -0.53747224966E+01 -0.34324038355E+02  0.21666987099E+02  0.40944909096E+02  0.00000000000E+00 0. -1.
         11    1    3    3    0    0  0.53747224966E+01  0.34324038355E+02 -0.39252456269E+02  0.52419295818E+02  0.00000000000E+00 0.  1.
<mgrwt>
<rscale>  0 0.91693108E+02</rscale>
<asrwt>0</asrwt>
<pdfrwt beam="2">  1        2 0.85345903E-02 0.91693108E+02</pdfrwt>
<pdfrwt beam="1">  1       -2 0.58291335E-02 0.91693108E+02</pdfrwt>
<totfact> 0.10222538E+05</totfact>
</mgrwt>
</event>
<event>
 5    1  0.5681061E+000  0.9171201E+02  0.7546771E-02  0.1298758E+00
          1   -1    0    0  501    0  0.00000000000E+00  0.00000000000E+00  0.29538194024E+02  0.29538194024E+02  0.00000000000E+00 0. -1.
         -1   -1    0    0    0  501 -0.00000000000E+00 -0.00000000000E+00 -0.71188281486E+02  0.71188281486E+02  0.00000000000E+00 0.  1.
         23    2    1    2    0    0  0.00000000000E+00  0.00000000000E+00 -0.41650087462E+02  0.10072647551E+03  0.91712011662E+02 0.  0.
        -11    1    3    3    0    0  0.27695484442E+02  0.27971279437E+02 -0.46660362217E+02  0.61046062396E+02  0.00000000000E+00 0. -1.
         11    1    3    3    0    0 -0.27695484442E+02 -0.27971279437E+02  0.50102747549E+01  0.39680413114E+02  0.00000000000E+00 0.  1.
<mgrwt>
<rscale>  0 0.91712012E+02</rscale>
<asrwt>0</asrwt>
<pdfrwt beam="1">  1        1 0.45443376E-02 0.91712012E+02</pdfrwt>
<pdfrwt beam="2">  1       -1 0.10952043E-01 0.91712012E+02</pdfrwt>
<totfact> 0.85023181E+04</totfact>
</mgrwt>
</event>
<event>
 5    1  0.5681061E+000  0.9213524E+02  0.7546771E-02  0.1297762E+00
         -3   -1    0    0    0  501 -0.00000000000E+00  0.00000000000E+00  0.31097686233E+02  0.31097686233E+02  0.00000000000E+00 0.  1.
          3   -1    0    0  501    0  0.00000000000E+00 -0.00000000000E+00 -0.68243841070E+02  0.68243841070E+02  0.00000000000E+00 0. -1.
         23    2    1    2    0    0  0.00000000000E+00  0.00000000000E+00 -0.37146154836E+02  0.99341527303E+02  0.92135238795E+02 0.  0.
        -11    1    3    3    0    0  0.17109997230E+02 -0.42551060936E+02 -0.23258134211E+02  0.51422617582E+02  0.00000000000E+00 0. -1.
         11    1    3    3    0    0 -0.17109997230E+02  0.42551060936E+02 -0.13888020625E+02  0.47918909721E+02  0.00000000000E+00 0.  1.
<mgrwt>
<rscale>  0 0.92135239E+02</rscale>
<asrwt>0</asrwt>
<pdfrwt beam="2">  1        3 0.10499052E-01 0.92135239E+02</pdfrwt>
<pdfrwt beam="1">  1       -3 0.47842595E-02 0.92135239E+02</pdfrwt>
<totfact> 0.33743392E+04</totfact>
</mgrwt>
</event>
<event>
 5    1  0.5681061E+000  0.9515617E+02  0.7546771E-02  0.1290825E+00
          2   -1    0    0  501    0  0.00000000000E+00  0.00000000000E+00  0.40341167791E+02  0.40341167791E+02  0.00000000000E+00 0. -1.
         -2   -1    0    0    0  501 -0.00000000000E+00 -0.00000000000E+00 -0.56113252563E+02  0.56113252563E+02  0.00000000000E+00 0.  1.
         23    2    1    2    0    0  0.00000000000E+00  0.00000000000E+00 -0.15772084772E+02  0.96454420353E+02  0.95156169257E+02 0.  0.
        -11    1    3    3    0    0  0.24822126381E+02  0.32368700122E+02  0.16938980541E+02  0.44167858986E+02  0.00000000000E+00 0. -1.
         11    1    3    3    0    0 -0.24822126381E+02 -0.32368700122E+02 -0.32711065313E+02  0.52286561367E+02  0.00000000000E+00 0.  1.
<mgrwt>
<rscale>  0 0.95156169E+02</rscale>
<asrwt>0</asrwt>
<pdfrwt beam="1">  1        2 0.62063335E-02 0.95156169E+02</pdfrwt>
<pdfrwt beam="2">  1       -2 0.86328080E-02 0.95156169E+02</pdfrwt>
<totfact> 0.84420362E+04</totfact>
</mgrwt>
</event>
<event>
 5    1  0.5681061E+000  0.9167734E+02  0.7546771E-02  0.1298840E+00
          1   -1    0    0  501    0  0.00000000000E+00  0.00000000000E+00  0.91091957199E+02  0.91091957199E+02  0.00000000000E+00 0. -1.
         -1   -1    0    0    0  501 -0.00000000000E+00 -0.00000000000E+00 -0.23066618836E+02  0.23066618836E+02  0.00000000000E+00 0.  1.
         23    2    1    2    0    0  0.00000000000E+00  0.00000000000E+00  0.68025338363E+02  0.11415857604E+03  0.91677335383E+02 0.  0.
        -11    1    3    3    0    0 -0.30211630554E+02  0.10744298475E+01 -0.88939518072E+01  0.31511892977E+02  0.00000000000E+00 0.  1.
         11    1    3    3    0    0  0.30211630554E+02 -0.10744298475E+01  0.76919290170E+02  0.82646683058E+02  0.00000000000E+00 0. -1.
<mgrwt>
<rscale>  0 0.91677335E+02</rscale>
<asrwt>0</asrwt>
<pdfrwt beam="1">  1        1 0.14014147E-01 0.91677335E+02</pdfrwt>
<pdfrwt beam="2">  1       -1 0.35487106E-02 0.91677335E+02</pdfrwt>
<totfact> 0.10133183E+05</totfact>
</mgrwt>
</event>
<event>
 5    1  0.5681061E+000  0.9707667E+02  0.7546771E-02  0.1286566E+00
          2   -1    0    0  501    0  0.00000000000E+00  0.00000000000E+00  0.29453026576E+03  0.29453026576E+03  0.00000000000E+00 0.  1.
         -2   -1    0    0    0  501 -0.00000000000E+00 -0.00000000000E+00 -0.79990753167E+01  0.79990753167E+01  0.00000000000E+00 0. -1.
         23    2    1    2    0    0  0.00000000000E+00  0.00000000000E+00  0.28653119045E+03  0.30252934108E+03  0.97076666175E+02 0.  0.
        -11    1    3    3    0    0  0.58365697553E+01  0.47547905666E+02  0.11890564207E+03  0.12819290384E+03  0.00000000000E+00 0.  1.
         11    1    3    3    0    0 -0.58365697553E+01 -0.47547905666E+02  0.16762554838E+03  0.17433643724E+03  0.00000000000E+00 0. -1.
<mgrwt>
<rscale>  0 0.97076666E+02</rscale>
<asrwt>0</asrwt>
<pdfrwt beam="1">  1        2 0.45312340E-01 0.97076666E+02</pdfrwt>
<pdfrwt beam="2">  1       -2 0.12306272E-02 0.97076666E+02</pdfrwt>
<totfact> 0.15083481E+05</totfact>
</mgrwt>
</event>
<event>
 5    1  0.5681061E+000  0.9215927E+02  0.7546771E-02  0.1297705E+00
         -3   -1    0    0    0  501 -0.00000000000E+00  0.00000000000E+00  0.19193153648E+02  0.19193153648E+02  0.00000000000E+00 0.  1.
          3   -1    0    0  501    0  0.00000000000E+00 -0.00000000000E+00 -0.11062969036E+03  0.11062969036E+03  0.00000000000E+00 0. -1.
         23    2    1    2    0    0  0.00000000000E+00  0.00000000000E+00 -0.91436536713E+02  0.12982284401E+03  0.92159267470E+02 0.  0.
        -11    1    3    3    0    0 -0.29938697042E+02  0.26913490469E+02 -0.77301317885E+02  0.87155925194E+02  0.00000000000E+00 0. -1.
         11    1    3    3    0    0  0.29938697042E+02 -0.26913490469E+02 -0.14135218828E+02  0.42666918814E+02  0.00000000000E+00 0.  1.
<mgrwt>
<rscale>  0 0.92159267E+02</rscale>
<asrwt>0</asrwt>
<pdfrwt beam="2">  1        3 0.17019952E-01 0.92159267E+02</pdfrwt>
<pdfrwt beam="1">  1       -3 0.29527929E-02 0.92159267E+02</pdfrwt>
<totfact> 0.31651554E+04</totfact>
</mgrwt>
</event>
<event>
 5    1  0.5681061E+000  0.9213974E+02  0.7546771E-02  0.1297751E+00
          2   -1    0    0  501    0  0.00000000000E+00  0.00000000000E+00  0.16310736495E+02  0.16310736495E+02  0.00000000000E+00 0. -1.
         -2   -1    0    0    0  501 -0.00000000000E+00 -0.00000000000E+00 -0.13012491202E+03  0.13012491202E+03  0.00000000000E+00 0.  1.
         23    2    1    2    0    0  0.00000000000E+00  0.00000000000E+00 -0.11381417553E+03  0.14643564852E+03  0.92139744983E+02 0.  0.
        -11    1    3    3    0    0  0.25662420976E+02 -0.38180987146E+02 -0.52986522259E+02  0.70170643227E+02  0.00000000000E+00 0. -1.
         11    1    3    3    0    0 -0.25662420976E+02  0.38180987146E+02 -0.60827653267E+02  0.76265005289E+02  0.00000000000E+00 0.  1.
<mgrwt>
<rscale>  0 0.92139745E+02</rscale>
<asrwt>0</asrwt>
<pdfrwt beam="1">  1        2 0.25093441E-02 0.92139745E+02</pdfrwt>
<pdfrwt beam="2">  1       -2 0.20019217E-01 0.92139745E+02</pdfrwt>
<totfact> 0.71505332E+04</totfact>
</mgrwt>
</event>
<event>
 5    1  0.5681061E+000  0.8486558E+02  0.7546771E-02  0.1315784E+00
          1   -1    0    0  501    0  0.00000000000E+00  0.00000000000E+00  0.11276695751E+02  0.11276695751E+02  0.00000000000E+00 0. -1.
         -1   -1    0    0    0  501 -0.00000000000E+00 -0.00000000000E+00 -0.15966926014E+03  0.15966926014E+03  0.00000000000E+00 0.  1.
         23    2    1    2    0    0  0.00000000000E+00  0.00000000000E+00 -0.14839256439E+03  0.17094595589E+03  0.84865580003E+02 0.  0.
        -11    1    3    3    0    0  0.50212822927E+01  0.32900524546E+02 -0.12721844939E+03  0.13149977816E+03  0.00000000000E+00 0.  1.
         11    1    3    3    0    0 -0.50212822927E+01 -0.32900524546E+02 -0.21174114994E+02  0.39446177724E+02  0.00000000000E+00 0. -1.
<mgrwt>
<rscale>  0 0.84865580E+02</rscale>
<asrwt>0</asrwt>
<pdfrwt beam="1">  1        1 0.17348763E-02 0.84865580E+02</pdfrwt>
<pdfrwt beam="2">  1       -1 0.24564502E-01 0.84865580E+02</pdfrwt>
<totfact> 0.88729492E+04</totfact>
</mgrwt>
</event>
<event>
 5    1  0.5681061E+000  0.9129478E+02  0.7546771E-02  0.1299746E+00
          1   -1    0    0  501    0  0.00000000000E+00  0.00000000000E+00  0.78553029992E+02  0.78553029992E+02  0.00000000000E+00 0. -1.
         -1   -1    0    0    0  501 -0.00000000000E+00 -0.00000000000E+00 -0.26525831376E+02  0.26525831376E+02  0.00000000000E+00 0.  1.
         23    2    1    2    0    0  0.00000000000E+00  0.00000000000E+00  0.52027198616E+02  0.10507886137E+03  0.91294784684E+02 0.  0.
        -11    1    3    3    0    0  0.19757547034E+02  0.35970651682E+02  0.30101490172E+01  0.41149841365E+02  0.00000000000E+00 0.  1.
         11    1    3    3    0    0 -0.19757547034E+02 -0.35970651682E+02  0.49017049599E+02  0.63929020004E+02  0.00000000000E+00 0. -1.
<mgrwt>
<rscale>  0 0.91294785E+02</rscale>
<asrwt>0</asrwt>
<pdfrwt beam="1">  1        1 0.12085081E-01 0.91294785E+02</pdfrwt>
<pdfrwt beam="2">  1       -1 0.40808972E-02 0.91294785E+02</pdfrwt>
<totfact> 0.10009845E+05</totfact>
</mgrwt>
</event>
<event>
 5    1  0.5681061E+000  0.9123543E+02  0.7546771E-02  0.1299887E+00
         -4   -1    0    0    0  501 -0.00000000000E+00  0.00000000000E+00  0.20033253641E+02  0.20033253641E+02  0.00000000000E+00 0.  1.
          4   -1    0    0  501    0  0.00000000000E+00 -0.00000000000E+00 -0.10387608907E+03  0.10387608907E+03  0.00000000000E+00 0. -1.
         23    2    1    2    0    0  0.00000000000E+00  0.00000000000E+00 -0.83842835432E+02  0.12390934272E+03  0.91235432584E+02 0.  0.
        -11    1    3    3    0    0  0.21418576182E+02  0.63051300474E+01  0.12105190985E+02  0.25397750281E+02  0.00000000000E+00 0.  1.
         11    1    3    3    0    0 -0.21418576182E+02 -0.63051300474E+01 -0.95948026417E+02  0.98511592434E+02  0.00000000000E+00 0. -1.
<mgrwt>
<rscale>  0 0.91235433E+02</rscale>
<asrwt>0</asrwt>
<pdfrwt beam="2">  1        4 0.15980937E-01 0.91235433E+02</pdfrwt>
<pdfrwt beam="1">  1       -4 0.30820390E-02 0.91235433E+02</pdfrwt>
<totfact> 0.25009444E+04</totfact>
</mgrwt>
</event>
<event>
 5    1  0.5681061E+000  0.9129949E+02  0.7546771E-02  0.1299735E+00
         -1   -1    0    0    0  501 -0.00000000000E+00  0.00000000000E+00  0.38846639038E+02  0.38846639038E+02  0.00000000000E+00 0.  1.
          1   -1    0    0  501    0  0.00000000000E+00 -0.00000000000E+00 -0.53644259464E+02  0.53644259464E+02  0.00000000000E+00 0. -1.
         23    2    1    2    0    0  0.00000000000E+00  0.00000000000E+00 -0.14797620426E+02  0.92490898502E+02  0.91299489240E+02 0.  0.
        -11    1    3    3    0    0  0.11007378826E+02  0.36145233341E+01  0.37332480476E+02  0.39088889292E+02  0.00000000000E+00 0.  1.
         11    1    3    3    0    0 -0.11007378826E+02 -0.36145233341E+01 -0.52130100902E+02  0.53402009210E+02  0.00000000000E+00 0. -1.
<mgrwt>
<rscale>  0 0.91299489E+02</rscale>
<asrwt>0</asrwt>
<pdfrwt beam="2">  1        1 0.82529630E-02 0.91299489E+02</pdfrwt>
<pdfrwt beam="1">  1       -1 0.59764060E-02 0.91299489E+02</pdfrwt>
<totfact> 0.94404556E+04</totfact>
</mgrwt>
</event>
<event>
 5    1  0.5681061E+000  0.8675838E+02  0.7546771E-02  0.1310897E+00
          1   -1    0    0  501    0  0.00000000000E+00  0.00000000000E+00  0.11107384454E+03  0.11107384454E+03  0.00000000000E+00 0. -1.
         -1   -1    0    0    0  501 -0.00000000000E+00 -0.00000000000E+00 -0.16941469845E+02  0.16941469845E+02  0.00000000000E+00 0.  1.
         23    2    1    2    0    0  0.00000000000E+00  0.00000000000E+00  0.94132374700E+02  0.12801531439E+03  0.86758381449E+02 0.  0.
        -11    1    3    3    0    0  0.30878755197E+02 -0.45417091316E+01  0.26128063539E+01  0.31320143700E+02  0.00000000000E+00 0.  1.
         11    1    3    3    0    0 -0.30878755197E+02  0.45417091316E+01  0.91519568346E+02  0.96695170689E+02  0.00000000000E+00 0. -1.
<mgrwt>
<rscale>  0 0.86758381E+02</rscale>
<asrwt>0</asrwt>
<pdfrwt beam="1">  1        1 0.17088283E-01 0.86758381E+02</pdfrwt>
<pdfrwt beam="2">  1       -1 0.26063800E-02 0.86758381E+02</pdfrwt>
<totfact> 0.12161764E+05</totfact>
</mgrwt>
</event>
<event>
 5    1  0.5681061E+000  0.9007789E+02  0.7546771E-02  0.1302663E+00
         -2   -1    0    0    0  501 -0.00000000000E+00  0.00000000000E+00  0.94240558369E+02  0.94240558369E+02  0.00000000000E+00 0.  1.
          2   -1    0    0  501    0  0.00000000000E+00 -0.00000000000E+00 -0.21524773617E+02  0.21524773617E+02  0.00000000000E+00 0. -1.
         23    2    1    2    0    0  0.00000000000E+00  0.00000000000E+00  0.72715784752E+02  0.11576533199E+03  0.90077892614E+02 0.  0.
        -11    1    3    3    0    0  0.20686668262E+02  0.29238658865E+02  0.12638475336E+01  0.35839011239E+02  0.00000000000E+00 0. -1.
         11    1    3    3    0    0 -0.20686668262E+02 -0.29238658865E+02  0.71451937218E+02  0.79926320748E+02  0.00000000000E+00 0.  1.
<mgrwt>
<rscale>  0 0.90077893E+02</rscale>
<asrwt>0</asrwt>
<pdfrwt beam="2">  1        2 0.33115037E-02 0.90077893E+02</pdfrwt>
<pdfrwt beam="1">  1       -2 0.14498547E-01 0.90077893E+02</pdfrwt>
<totfact> 0.83693510E+04</totfact>
</mgrwt>
</event>
<event>
 4    1  0.5681061E+000  0.3513548E+02  0.7546771E-02  0.1547401E+00
         -2   -1    0    0    0  501 -0.00000000000E+00  0.00000000000E+00  0.56404501356E+01  0.56404501356E+01  0.00000000000E+00 0.  1.
          2   -1    0    0  501    0  0.00000000000E+00 -0.00000000000E+00 -0.54716469221E+02  0.54716469221E+02  0.00000000000E+00 0. -1.
        -11    1    1    2    0    0 -0.28253023792E+01 -0.10296072769E+02 -0.48503735277E+02  0.49664915019E+02  0.00000000000E+00 0. -1.
         11    1    1    2    0    0  0.28253023792E+01  0.10296072769E+02 -0.57228380778E+00  0.10692004337E+02  0.00000000000E+00 0.  1.
<mgrwt>
<rscale>  0 0.35135482E+02</rscale>
<asrwt>0</asrwt>
<pdfrwt beam="2">  1        2 0.84179184E-02 0.35135482E+02</pdfrwt>
<pdfrwt beam="1">  1       -2 0.86776155E-03 0.35135482E+02</pdfrwt>
<totfact> 0.12617852E+06</totfact>
</mgrwt>
</event>
<event>
 5    1  0.5681061E+000  0.9116020E+02  0.7546771E-02  0.1300066E+00
         -2   -1    0    0    0  501 -0.00000000000E+00  0.00000000000E+00  0.97226657954E+01  0.97226657954E+01  0.00000000000E+00 0.  1.
          2   -1    0    0  501    0  0.00000000000E+00 -0.00000000000E+00 -0.21368065626E+03  0.21368065626E+03  0.00000000000E+00 0. -1.
         23    2    1    2    0    0  0.00000000000E+00  0.00000000000E+00 -0.20395799046E+03  0.22340332205E+03  0.91160202012E+02 0.  0.
        -11    1    3    3    0    0 -0.26105990391E+02 -0.36470946263E+02 -0.82085832717E+02  0.93540026665E+02  0.00000000000E+00 0. -1.
         11    1    3    3    0    0  0.26105990391E+02  0.36470946263E+02 -0.12187215774E+03  0.12986329539E+03  0.00000000000E+00 0.  1.
<mgrwt>
<rscale>  0 0.91160202E+02</rscale>
<asrwt>0</asrwt>
<pdfrwt beam="2">  1        2 0.32873946E-01 0.91160202E+02</pdfrwt>
<pdfrwt beam="1">  1       -2 0.14957948E-02 0.91160202E+02</pdfrwt>
<totfact> 0.15852089E+05</totfact>
</mgrwt>
</event>
<event>
 5    1  0.5681061E+000  0.9219670E+02  0.7546771E-02  0.1297618E+00
         -2   -1    0    0    0  501 -0.00000000000E+00  0.00000000000E+00  0.31865129598E+02  0.31865129598E+02  0.00000000000E+00 0.  1.
          2   -1    0    0  501    0  0.00000000000E+00 -0.00000000000E+00 -0.66689126451E+02  0.66689126451E+02  0.00000000000E+00 0. -1.
         23    2    1    2    0    0  0.00000000000E+00  0.00000000000E+00 -0.34823996853E+02  0.98554256049E+02  0.92196695324E+02 0.  0.
        -11    1    3    3    0    0  0.12250242790E+01 -0.20440468777E+02  0.26736606243E+02  0.33677285545E+02  0.00000000000E+00 0.  1.
         11    1    3    3    0    0 -0.12250242790E+01  0.20440468777E+02 -0.61560603096E+02  0.64876970504E+02  0.00000000000E+00 0. -1.
<mgrwt>
<rscale>  0 0.92196695E+02</rscale>
<asrwt>0</asrwt>
<pdfrwt beam="2">  1        2 0.10259866E-01 0.92196695E+02</pdfrwt>
<pdfrwt beam="1">  1       -2 0.49023277E-02 0.92196695E+02</pdfrwt>
<totfact> 0.10579357E+05</totfact>
</mgrwt>
</event>
<event>
 5    1  0.5681061E+000  0.9151769E+02  0.7546771E-02  0.1299217E+00
          4   -1    0    0  501    0  0.00000000000E+00  0.00000000000E+00  0.34578804071E+03  0.34578804071E+03  0.00000000000E+00 0. -1.
         -4   -1    0    0    0  501 -0.00000000000E+00 -0.00000000000E+00 -0.60553629663E+01  0.60553629663E+01  0.00000000000E+00 0.  1.
         23    2    1    2    0    0  0.00000000000E+00  0.00000000000E+00  0.33973267775E+03  0.35184340368E+03  0.91517694375E+02 0.  0.
        -11    1    3    3    0    0  0.39180197797E+02 -0.17020595839E+02  0.10680141321E+03  0.11502752038E+03  0.00000000000E+00 0.  1.
         11    1    3    3    0    0 -0.39180197797E+02  0.17020595839E+02  0.23293126454E+03  0.23681588330E+03  0.00000000000E+00 0. -1.
<mgrwt>
<rscale>  0 0.91517694E+02</rscale>
<asrwt>0</asrwt>
<pdfrwt beam="1">  1        4 0.53198145E-01 0.91517694E+02</pdfrwt>
<pdfrwt beam="2">  1       -4 0.93159457E-03 0.91517694E+02</pdfrwt>
<totfact> 0.16186446E+04</totfact>
</mgrwt>
</event>
<event>
 5    1  0.5681061E+000  0.9072995E+02  0.7546771E-02  0.1301094E+00
         -1   -1    0    0    0  501 -0.00000000000E+00  0.00000000000E+00  0.41734506293E+02  0.41734506293E+02  0.00000000000E+00 0.  1.
          1   -1    0    0  501    0  0.00000000000E+00 -0.00000000000E+00 -0.49311260850E+02  0.49311260850E+02  0.00000000000E+00 0. -1.
         23    2    1    2    0    0  0.00000000000E+00  0.00000000000E+00 -0.75767545571E+01  0.91045767144E+02  0.90729953737E+02 0.  0.
        -11    1    3    3    0    0 -0.94641783109E+01  0.22171314971E+02  0.34775107419E+02  0.42313661797E+02  0.00000000000E+00 0.  1.
         11    1    3    3    0    0  0.94641783109E+01 -0.22171314971E+02 -0.42351861976E+02  0.48732105347E+02  0.00000000000E+00 0. -1.
<mgrwt>
<rscale>  0 0.90729954E+02</rscale>
<asrwt>0</asrwt>
<pdfrwt beam="2">  1        1 0.75863477E-02 0.90729954E+02</pdfrwt>
<pdfrwt beam="1">  1       -1 0.64206933E-02 0.90729954E+02</pdfrwt>
<totfact> 0.94862651E+04</totfact>
</mgrwt>
</event>
<event>
 5    1  0.5681061E+000  0.9089816E+02  0.7546771E-02  0.1300691E+00
         -1   -1    0    0    0  501 -0.00000000000E+00  0.00000000000E+00  0.29723107523E+03  0.29723107523E+03  0.00000000000E+00 0.  1.
          1   -1    0    0  501    0  0.00000000000E+00 -0.00000000000E+00 -0.69495390853E+01  0.69495390853E+01  0.00000000000E+00 0. -1.
         23    2    1    2    0    0  0.00000000000E+00  0.00000000000E+00  0.29028153615E+03  0.30418061432E+03  0.90898162241E+02 0.  0.
        -11    1    3    3    0    0  0.34107839771E+02 -0.29965631090E+02  0.13817320817E+03  0.14544111949E+03  0.00000000000E+00 0.  1.
         11    1    3    3    0    0 -0.34107839771E+02  0.29965631090E+02  0.15210832797E+03  0.15873949483E+03  0.00000000000E+00 0. -1.
<mgrwt>
<rscale>  0 0.90898162E+02</rscale>
<asrwt>0</asrwt>
<pdfrwt beam="2">  1        1 0.10691601E-02 0.90898162E+02</pdfrwt>
<pdfrwt beam="1">  1       -1 0.45727848E-01 0.90898162E+02</pdfrwt>
<totfact> 0.61295784E+04</totfact>
</mgrwt>
</event>
<event>
 5    1  0.5681061E+000  0.9281565E+02  0.7546771E-02  0.1296173E+00
          3   -1    0    0  501    0  0.00000000000E+00  0.00000000000E+00  0.38288415126E+02  0.38288415126E+02  0.00000000000E+00 0. -1.
         -3   -1    0    0    0  501 -0.00000000000E+00 -0.00000000000E+00 -0.56249028990E+02  0.56249028990E+02  0.00000000000E+00 0.  1.
         23    2    1    2    0    0  0.00000000000E+00  0.00000000000E+00 -0.17960613864E+02  0.94537444116E+02  0.92815648948E+02 0.  0.
        -11    1    3    3    0    0  0.27248663285E+02 -0.18872215837E+02 -0.42064175647E+02  0.53554132000E+02  0.00000000000E+00 0.  1.
         11    1    3    3    0    0 -0.27248663285E+02  0.18872215837E+02  0.24103561783E+02  0.40983312116E+02  0.00000000000E+00 0. -1.
<mgrwt>
<rscale>  0 0.92815649E+02</rscale>
<asrwt>0</asrwt>
<pdfrwt beam="1">  1        3 0.58905255E-02 0.92815649E+02</pdfrwt>
<pdfrwt beam="2">  1       -3 0.86536967E-02 0.92815649E+02</pdfrwt>
<totfact> 0.33416973E+04</totfact>
</mgrwt>
</event>
<event>
 5    1  0.5681061E+000  0.9137812E+02  0.7546771E-02  0.1299548E+00
          1   -1    0    0  501    0  0.00000000000E+00  0.00000000000E+00  0.10067829830E+02  0.10067829830E+02  0.00000000000E+00 0. -1.
         -1   -1    0    0    0  501 -0.00000000000E+00 -0.00000000000E+00 -0.20734261991E+03  0.20734261991E+03  0.00000000000E+00 0.  1.
         23    2    1    2    0    0  0.00000000000E+00  0.00000000000E+00 -0.19727479008E+03  0.21741044974E+03  0.91378120221E+02 0.  0.
        -11    1    3    3    0    0  0.39423500842E+02 -0.21259112294E+02 -0.12009385546E+03  0.12817447637E+03  0.00000000000E+00 0.  1.
         11    1    3    3    0    0 -0.39423500842E+02  0.21259112294E+02 -0.77180934624E+02  0.89235973371E+02  0.00000000000E+00 0. -1.
<mgrwt>
<rscale>  0 0.91378120E+02</rscale>
<asrwt>0</asrwt>
<pdfrwt beam="1">  1        1 0.15488969E-02 0.91378120E+02</pdfrwt>
<pdfrwt beam="2">  1       -1 0.31898864E-01 0.91378120E+02</pdfrwt>
<totfact> 0.68308675E+04</totfact>
</mgrwt>
</event>
<event>
 5    1  0.5681061E+000  0.8874228E+02  0.7546771E-02  0.1305926E+00
         -2   -1    0    0    0  501 -0.00000000000E+00  0.00000000000E+00  0.68155952003E+02  0.68155952003E+02  0.00000000000E+00 0.  1.
          2   -1    0    0  501    0  0.00000000000E+00 -0.00000000000E+00 -0.28886665482E+02  0.28886665482E+02  0.00000000000E+00 0. -1.
         23    2    1    2    0    0  0.00000000000E+00  0.00000000000E+00  0.39269286521E+02  0.97042617485E+02  0.88742282732E+02 0.  0.
        -11    1    3    3    0    0  0.39504290257E+02 -0.72782209058E+01  0.40245253129E+02  0.56861602577E+02  0.00000000000E+00 0.  1.
         11    1    3    3    0    0 -0.39504290257E+02  0.72782209058E+01 -0.97596660748E+00  0.40181014908E+02  0.00000000000E+00 0. -1.
<mgrwt>
<rscale>  0 0.88742283E+02</rscale>
<asrwt>0</asrwt>
<pdfrwt beam="2">  1        2 0.44441024E-02 0.88742283E+02</pdfrwt>
<pdfrwt beam="1">  1       -2 0.10485531E-01 0.88742283E+02</pdfrwt>
<totfact> 0.94892771E+04</totfact>
</mgrwt>
</event>
<event>
 5    1  0.5681061E+000  0.9189603E+02  0.7546771E-02  0.1298324E+00
          1   -1    0    0  501    0  0.00000000000E+00  0.00000000000E+00  0.67998794253E+02  0.67998794253E+02  0.00000000000E+00 0. -1.
         -1   -1    0    0    0  501 -0.00000000000E+00 -0.00000000000E+00 -0.31047905444E+02  0.31047905444E+02  0.00000000000E+00 0.  1.
         23    2    1    2    0    0  0.00000000000E+00  0.00000000000E+00  0.36950888809E+02  0.99046699697E+02  0.91896031128E+02 0.  0.
        -11    1    3    3    0    0 -0.10884902365E+02  0.43111258171E+02  0.59914870661E+01  0.44866018298E+02  0.00000000000E+00 0.  1.
         11    1    3    3    0    0  0.10884902365E+02 -0.43111258171E+02  0.30959401743E+02  0.54180681399E+02  0.00000000000E+00 0. -1.
<mgrwt>
<rscale>  0 0.91896031E+02</rscale>
<asrwt>0</asrwt>
<pdfrwt beam="1">  1        1 0.10461353E-01 0.91896031E+02</pdfrwt>
<pdfrwt beam="2">  1       -1 0.47766009E-02 0.91896031E+02</pdfrwt>
<totfact> 0.96116259E+04</totfact>
</mgrwt>
</event>
<event>
 5    1  0.5681061E+000  0.9010597E+02  0.7546771E-02  0.1302595E+00
          4   -1    0    0  501    0  0.00000000000E+00  0.00000000000E+00  0.63024909562E+02  0.63024909562E+02  0.00000000000E+00 0. -1.
         -4   -1    0    0    0  501 -0.00000000000E+00 -0.00000000000E+00 -0.32205862281E+02  0.32205862281E+02  0.00000000000E+00 0.  1.
         23    2    1    2    0    0  0.00000000000E+00  0.00000000000E+00  0.30819047281E+02  0.95230771843E+02  0.90105972224E+02 0.  0.
        -11    1    3    3    0    0  0.17959601366E+02  0.31511497624E+02  0.43654992564E+02  0.56756322463E+02  0.00000000000E+00 0. -1.
         11    1    3    3    0    0 -0.17959601366E+02 -0.31511497624E+02 -0.12835945282E+02  0.38474449380E+02  0.00000000000E+00 0.  1.
<mgrwt>
<rscale>  0 0.90105972E+02</rscale>
<asrwt>0</asrwt>
<pdfrwt beam="1">  1        4 0.96961400E-02 0.90105972E+02</pdfrwt>
<pdfrwt beam="2">  1       -4 0.49547480E-02 0.90105972E+02</pdfrwt>
<totfact> 0.27626249E+04</totfact>
</mgrwt>
</event>
<event>
 5    1  0.5681061E+000  0.9217883E+02  0.7546771E-02  0.1297660E+00
         -1   -1    0    0    0  501 -0.00000000000E+00  0.00000000000E+00  0.29927232074E+02  0.29927232074E+02  0.00000000000E+00 0.  1.
          1   -1    0    0  501    0  0.00000000000E+00 -0.00000000000E+00 -0.70979970951E+02  0.70979970951E+02  0.00000000000E+00 0. -1.
         23    2    1    2    0    0  0.00000000000E+00  0.00000000000E+00 -0.41052738877E+02  0.10090720302E+03  0.92178827574E+02 0.  0.
        -11    1    3    3    0    0 -0.21373365730E+02 -0.24958584156E+02 -0.55905043070E+02  0.64846939221E+02  0.00000000000E+00 0. -1.
         11    1    3    3    0    0  0.21373365730E+02  0.24958584156E+02  0.14852304193E+02  0.36060263803E+02  0.00000000000E+00 0.  1.
<mgrwt>
<rscale>  0 0.92178828E+02</rscale>
<asrwt>0</asrwt>
<pdfrwt beam="2">  1        1 0.10919995E-01 0.92178828E+02</pdfrwt>
<pdfrwt beam="1">  1       -1 0.46041896E-02 0.92178828E+02</pdfrwt>
<totfact> 0.95939527E+04</totfact>
</mgrwt>
</event>
<event>
 5    1  0.5681061E+000  0.1114050E+03  0.7546771E-02  0.1257990E+00
          3   -1    0    0  501    0  0.00000000000E+00  0.00000000000E+00  0.18485341733E+02  0.18485341733E+02  0.00000000000E+00 0. -1.
         -3   -1    0    0    0  501 -0.00000000000E+00 -0.00000000000E+00 -0.16785006154E+03  0.16785006154E+03  0.00000000000E+00 0.  1.
         23    2    1    2    0    0  0.00000000000E+00  0.00000000000E+00 -0.14936471980E+03  0.18633540327E+03  0.11140495047E+03 0.  0.
        -11    1    3    3    0    0 -0.14507323629E+02  0.50774725180E+02 -0.10433170597E+03  0.11693434066E+03  0.00000000000E+00 0. -1.
         11    1    3    3    0    0  0.14507323629E+02 -0.50774725180E+02 -0.45033013839E+02  0.69401062610E+02  0.00000000000E+00 0.  1.
<mgrwt>
<rscale>  0 0.11140495E+03</rscale>
<asrwt>0</asrwt>
<pdfrwt beam="1">  1        3 0.28438986E-02 0.11140495E+03</pdfrwt>
<pdfrwt beam="2">  1       -3 0.25823087E-01 0.11140495E+03</pdfrwt>
<totfact> 0.16893908E+04</totfact>
</mgrwt>
</event>
<event>
 5    1  0.5681061E+000  0.9469987E+02  0.7546771E-02  0.1291853E+00
          1   -1    0    0  501    0  0.00000000000E+00  0.00000000000E+00  0.74217718282E+01  0.74217718282E+01  0.00000000000E+00 0. -1.
         -1   -1    0    0    0  501 -0.00000000000E+00 -0.00000000000E+00 -0.30208638864E+03  0.30208638864E+03  0.00000000000E+00 0.  1.
         23    2    1    2    0    0  0.00000000000E+00  0.00000000000E+00 -0.29466461681E+03  0.30950816047E+03  0.94699867980E+02 0.  0.
        -11    1    3    3    0    0 -0.43586840242E+02 -0.14960294027E+02 -0.11177031255E+03  0.12089758396E+03  0.00000000000E+00 0. -1.
         11    1    3    3    0    0  0.43586840242E+02  0.14960294027E+02 -0.18289430426E+03  0.18861057650E+03  0.00000000000E+00 0.  1.
<mgrwt>
<rscale>  0 0.94699868E+02</rscale>
<asrwt>0</asrwt>
<pdfrwt beam="1">  1        1 0.11418110E-02 0.94699868E+02</pdfrwt>
<pdfrwt beam="2">  1       -1 0.46474830E-01 0.94699868E+02</pdfrwt>
<totfact> 0.54707128E+04</totfact>
</mgrwt>
</event>
<event>
 5    1  0.5681061E+000  0.8282562E+02  0.7546771E-02  0.1321219E+00
          4   -1    0    0  501    0  0.00000000000E+00  0.00000000000E+00  0.92708176828E+02  0.92708176828E+02  0.00000000000E+00 0. -1.
         -4   -1    0    0    0  501 -0.00000000000E+00 -0.00000000000E+00 -0.18499132013E+02  0.18499132013E+02  0.00000000000E+00 0.  1.
         23    2    1    2    0    0  0.00000000000E+00  0.00000000000E+00  0.74209044815E+02  0.11120730884E+03  0.82825619269E+02 0.  0.
        -11    1    3    3    0    0  0.28725467423E+02 -0.55310803393E+01 -0.22536430725E+01  0.29339806330E+02  0.00000000000E+00 0.  1.
         11    1    3    3    0    0 -0.28725467423E+02  0.55310803393E+01  0.76462687888E+02  0.81867502511E+02  0.00000000000E+00 0. -1.
<mgrwt>
<rscale>  0 0.82825619E+02</rscale>
<asrwt>0</asrwt>
<pdfrwt beam="1">  1        4 0.14262796E-01 0.82825619E+02</pdfrwt>
<pdfrwt beam="2">  1       -4 0.28460204E-02 0.82825619E+02</pdfrwt>
<totfact> 0.33361386E+04</totfact>
</mgrwt>
</event>
<event>
 5    1  0.5681061E+000  0.9155045E+02  0.7546771E-02  0.1299140E+00
          1   -1    0    0  501    0  0.00000000000E+00  0.00000000000E+00  0.35049261354E+02  0.35049261354E+02  0.00000000000E+00 0. -1.
         -1   -1    0    0    0  501 -0.00000000000E+00 -0.00000000000E+00 -0.59783608035E+02  0.59783608035E+02  0.00000000000E+00 0.  1.
         23    2    1    2    0    0  0.00000000000E+00  0.00000000000E+00 -0.24734346681E+02  0.94832869389E+02  0.91550451724E+02 0.  0.
        -11    1    3    3    0    0 -0.20373368326E+02 -0.36480594193E+02 -0.31731359848E+02  0.52467009515E+02  0.00000000000E+00 0.  1.
         11    1    3    3    0    0  0.20373368326E+02  0.36480594193E+02  0.69970131669E+01  0.42365859874E+02  0.00000000000E+00 0. -1.
<mgrwt>
<rscale>  0 0.91550452E+02</rscale>
<asrwt>0</asrwt>
<pdfrwt beam="1">  1        1 0.53921941E-02 0.91550452E+02</pdfrwt>
<pdfrwt beam="2">  1       -1 0.91974780E-02 0.91550452E+02</pdfrwt>
<totfact> 0.87814372E+04</totfact>
</mgrwt>
</event>
<event>
 5    1  0.5681061E+000  0.8988568E+02  0.7546771E-02  0.1303129E+00
         -3   -1    0    0    0  501 -0.00000000000E+00  0.00000000000E+00  0.32115637313E+02  0.32115637313E+02  0.00000000000E+00 0.  1.
          3   -1    0    0  501    0  0.00000000000E+00 -0.00000000000E+00 -0.62893315629E+02  0.62893315629E+02  0.00000000000E+00 0. -1.
         23    2    1    2    0    0  0.00000000000E+00  0.00000000000E+00 -0.30777678316E+02  0.95008952943E+02  0.89885681044E+02 0.  0.
        -11    1    3    3    0    0  0.18660337978E+01  0.22694852183E+02  0.25566519013E+02  0.34237191652E+02  0.00000000000E+00 0.  1.
         11    1    3    3    0    0 -0.18660337978E+01 -0.22694852183E+02 -0.56344197329E+02  0.60771761291E+02  0.00000000000E+00 0. -1.
<mgrwt>
<rscale>  0 0.89885681E+02</rscale>
<asrwt>0</asrwt>
<pdfrwt beam="2">  1        3 0.96758947E-02 0.89885681E+02</pdfrwt>
<pdfrwt beam="1">  1       -3 0.49408673E-02 0.89885681E+02</pdfrwt>
<totfact> 0.36430210E+04</totfact>
</mgrwt>
</event>
<event>
 5    1  0.5681061E+000  0.9273290E+02  0.7546771E-02  0.1296365E+00
          2   -1    0    0  501    0  0.00000000000E+00  0.00000000000E+00  0.35493981180E+02  0.35493981180E+02  0.00000000000E+00 0. -1.
         -2   -1    0    0    0  501 -0.00000000000E+00 -0.00000000000E+00 -0.60569358267E+02  0.60569358267E+02  0.00000000000E+00 0.  1.
         23    2    1    2    0    0  0.00000000000E+00  0.00000000000E+00 -0.25075377087E+02  0.96063339446E+02  0.92732899499E+02 0.  0.
        -11    1    3    3    0    0  0.85883733944E+01  0.19788587312E+02 -0.55054360315E+02  0.59129780442E+02  0.00000000000E+00 0.  1.
         11    1    3    3    0    0 -0.85883733944E+01 -0.19788587312E+02  0.29978983228E+02  0.36933559005E+02  0.00000000000E+00 0. -1.
<mgrwt>
<rscale>  0 0.92732899E+02</rscale>
<asrwt>0</asrwt>
<pdfrwt beam="1">  1        2 0.54606125E-02 0.92732899E+02</pdfrwt>
<pdfrwt beam="2">  1       -2 0.93183627E-02 0.92732899E+02</pdfrwt>
<totfact> 0.87997248E+04</totfact>
</mgrwt>
</event>
<event>
 5    1  0.5681061E+000  0.9167018E+02  0.7546771E-02  0.1298857E+00
          4   -1    0    0  501    0  0.00000000000E+00  0.00000000000E+00  0.67290792248E+01  0.67290792248E+01  0.00000000000E+00 0.  1.
         -4   -1    0    0    0  501 -0.00000000000E+00 -0.00000000000E+00 -0.31220550976E+03  0.31220550976E+03  0.00000000000E+00 0. -1.
         23    2    1    2    0    0  0.00000000000E+00  0.00000000000E+00 -0.30547643053E+03  0.31893458898E+03  0.91670182930E+02 0.  0.
        -11    1    3    3    0    0  0.16139932545E+01 -0.45327683776E+02 -0.17572478669E+03  0.18148389611E+03  0.00000000000E+00 0. -1.
         11    1    3    3    0    0 -0.16139932545E+01  0.45327683776E+02 -0.12975164384E+03  0.13745069287E+03  0.00000000000E+00 0.  1.
<mgrwt>
<rscale>  0 0.91670183E+02</rscale>
<asrwt>0</asrwt>
<pdfrwt beam="1">  1        4 0.10352433E-02 0.91670183E+02</pdfrwt>
<pdfrwt beam="2">  1       -4 0.48031600E-01 0.91670183E+02</pdfrwt>
<totfact> 0.17011747E+04</totfact>
</mgrwt>
</event>
<event>
 5    1  0.5681061E+000  0.9140856E+02  0.7546771E-02  0.1299476E+00
         -1   -1    0    0    0  501 -0.00000000000E+00  0.00000000000E+00  0.27226005299E+02  0.27226005299E+02  0.00000000000E+00 0.  1.
          1   -1    0    0  501    0  0.00000000000E+00 -0.00000000000E+00 -0.76723753709E+02  0.76723753709E+02  0.00000000000E+00 0. -1.
         23    2    1    2    0    0  0.00000000000E+00  0.00000000000E+00 -0.49497748410E+02  0.10394975901E+03  0.91408562510E+02 0.  0.
        -11    1    3    3    0    0 -0.59293382641E+01 -0.19868674759E+02  0.21569634652E+02  0.29919398857E+02  0.00000000000E+00 0.  1.
         11    1    3    3    0    0  0.59293382641E+01  0.19868674759E+02 -0.71067383062E+02  0.74030360152E+02  0.00000000000E+00 0. -1.
<mgrwt>
<rscale>  0 0.91408563E+02</rscale>
<asrwt>0</asrwt>
<pdfrwt beam="2">  1        1 0.11803654E-01 0.91408563E+02</pdfrwt>
<pdfrwt beam="1">  1       -1 0.41886163E-02 0.91408563E+02</pdfrwt>
<totfact> 0.99387516E+04</totfact>
</mgrwt>
</event>
<event>
 5    1  0.5681061E+000  0.9223568E+02  0.7546771E-02  0.1297526E+00
          2   -1    0    0  501    0  0.00000000000E+00  0.00000000000E+00  0.46385756615E+03  0.46385756615E+03  0.00000000000E+00 0. -1.
         -2   -1    0    0    0  501 -0.00000000000E+00 -0.00000000000E+00 -0.45851474941E+01  0.45851474941E+01  0.00000000000E+00 0.  1.
         23    2    1    2    0    0  0.00000000000E+00  0.00000000000E+00  0.45927241866E+03  0.46844271365E+03  0.92235684137E+02 0.  0.
        -11    1    3    3    0    0  0.45419365534E+02  0.69310399318E+01  0.20938649570E+03  0.21436805420E+03  0.00000000000E+00 0. -1.
         11    1    3    3    0    0 -0.45419365534E+02 -0.69310399318E+01  0.24988592296E+03  0.25407465945E+03  0.00000000000E+00 0.  1.
<mgrwt>
<rscale>  0 0.92235684E+02</rscale>
<asrwt>0</asrwt>
<pdfrwt beam="1">  1        2 0.71362665E-01 0.92235684E+02</pdfrwt>
<pdfrwt beam="2">  1       -2 0.70540768E-03 0.92235684E+02</pdfrwt>
<totfact> 0.20386031E+05</totfact>
</mgrwt>
</event>
<event>
 5    1  0.5681061E+000  0.9391285E+02  0.7546771E-02  0.1293644E+00
          1   -1    0    0  501    0  0.00000000000E+00  0.00000000000E+00  0.88818658549E+02  0.88818658549E+02  0.00000000000E+00 0. -1.
         -1   -1    0    0    0  501 -0.00000000000E+00 -0.00000000000E+00 -0.24824802158E+02  0.24824802158E+02  0.00000000000E+00 0.  1.
         23    2    1    2    0    0  0.00000000000E+00  0.00000000000E+00  0.63993856392E+02  0.11364346071E+03  0.93912845264E+02 0.  0.
        -11    1    3    3    0    0 -0.19274618543E+02 -0.22201861314E+02  0.76301478751E+02  0.81770099825E+02  0.00000000000E+00 0. -1.
         11    1    3    3    0    0  0.19274618543E+02  0.22201861314E+02 -0.12307622359E+02  0.31873360882E+02  0.00000000000E+00 0.  1.
<mgrwt>
<rscale>  0 0.93912845E+02</rscale>
<asrwt>0</asrwt>
<pdfrwt beam="1">  1        1 0.13664409E-01 0.93912845E+02</pdfrwt>
<pdfrwt beam="2">  1       -1 0.38192004E-02 0.93912845E+02</pdfrwt>
<totfact> 0.94459497E+04</totfact>
</mgrwt>
</event>
<event>
 5    1  0.5681061E+000  0.9075278E+02  0.7546771E-02  0.1301039E+00
          1   -1    0    0  501    0  0.00000000000E+00  0.00000000000E+00  0.13103069045E+03  0.13103069045E+03  0.00000000000E+00 0. -1.
         -1   -1    0    0    0  501 -0.00000000000E+00 -0.00000000000E+00 -0.15714002240E+02  0.15714002240E+02  0.00000000000E+00 0.  1.
         23    2    1    2    0    0  0.00000000000E+00  0.00000000000E+00  0.11531668820E+03  0.14674469269E+03  0.90752775455E+02 0.  0.
        -11    1    3    3    0    0  0.41648960361E+02 -0.94293626576E+01  0.82470713350E+02  0.92870702268E+02  0.00000000000E+00 0. -1.
         11    1    3    3    0    0 -0.41648960361E+02  0.94293626576E+01  0.32845974855E+02  0.53873990417E+02  0.00000000000E+00 0.  1.
<mgrwt>
<rscale>  0 0.90752775E+02</rscale>
<asrwt>0</asrwt>
<pdfrwt beam="1">  1        1 0.20158567E-01 0.90752775E+02</pdfrwt>
<pdfrwt beam="2">  1       -1 0.24175389E-02 0.90752775E+02</pdfrwt>
<totfact> 0.11080928E+05</totfact>
</mgrwt>
</event>
<event>
 5    1  0.5681061E+000  0.8976273E+02  0.7546771E-02  0.1303427E+00
         -2   -1    0    0    0  501 -0.00000000000E+00  0.00000000000E+00  0.70112119373E+02  0.70112119373E+02  0.00000000000E+00 0.  1.
          2   -1    0    0  501    0  0.00000000000E+00 -0.00000000000E+00 -0.28730225456E+02  0.28730225456E+02  0.00000000000E+00 0. -1.
         23    2    1    2    0    0  0.00000000000E+00  0.00000000000E+00  0.41381893916E+02  0.98842344829E+02  0.89762731616E+02 0.  0.
        -11    1    3    3    0    0  0.38552094614E+02  0.83136321912E+01  0.44281208180E+02  0.59297604312E+02  0.00000000000E+00 0.  1.
         11    1    3    3    0    0 -0.38552094614E+02 -0.83136321912E+01 -0.28993142634E+01  0.39544740517E+02  0.00000000000E+00 0. -1.
<mgrwt>
<rscale>  0 0.89762732E+02</rscale>
<asrwt>0</asrwt>
<pdfrwt beam="2">  1        2 0.44200347E-02 0.89762732E+02</pdfrwt>
<pdfrwt beam="1">  1       -2 0.10786480E-01 0.89762732E+02</pdfrwt>
<totfact> 0.91603616E+04</totfact>
</mgrwt>
</event>
<event>
 5    1  0.5681061E+000  0.9113282E+02  0.7546771E-02  0.1300131E+00
          2   -1    0    0  501    0  0.00000000000E+00  0.00000000000E+00  0.16857651030E+03  0.16857651030E+03  0.00000000000E+00 0. -1.
         -2   -1    0    0    0  501 -0.00000000000E+00 -0.00000000000E+00 -0.12316650290E+02  0.12316650290E+02  0.00000000000E+00 0.  1.
         23    2    1    2    0    0  0.00000000000E+00  0.00000000000E+00  0.15625986001E+03  0.18089316059E+03  0.91132824481E+02 0.  0.
        -11    1    3    3    0    0 -0.80839094293E+00  0.39468206008E+02  0.12330225335E+03  0.12946751895E+03  0.00000000000E+00 0. -1.
         11    1    3    3    0    0  0.80839094293E+00 -0.39468206008E+02  0.32957606656E+02  0.51425641638E+02  0.00000000000E+00 0.  1.
<mgrwt>
<rscale>  0 0.91132824E+02</rscale>
<asrwt>0</asrwt>
<pdfrwt beam="1">  1        2 0.25934846E-01 0.91132824E+02</pdfrwt>
<pdfrwt beam="2">  1       -2 0.18948694E-02 0.91132824E+02</pdfrwt>
<totfact> 0.14574066E+05</totfact>
</mgrwt>
</event>
<event>
 5    1  0.5681061E+000  0.9184321E+02  0.7546771E-02  0.1298449E+00
         -1   -1    0    0    0  501 -0.00000000000E+00  0.00000000000E+00  0.46785900316E+01  0.46785900316E+01  0.00000000000E+00 0.  1.
          1   -1    0    0  501    0  0.00000000000E+00 -0.00000000000E+00 -0.45073276464E+03  0.45073276464E+03  0.00000000000E+00 0. -1.
         23    2    1    2    0    0  0.00000000000E+00  0.00000000000E+00 -0.44605417461E+03  0.45541135467E+03  0.91843210300E+02 0.  0.
        -11    1    3    3    0    0 -0.32267683553E+02  0.32673783335E+02 -0.22362005260E+03  0.22828645918E+03  0.00000000000E+00 0.  1.
         11    1    3    3    0    0  0.32267683553E+02 -0.32673783335E+02 -0.22243412201E+03  0.22712489550E+03  0.00000000000E+00 0. -1.
<mgrwt>
<rscale>  0 0.91843210E+02</rscale>
<asrwt>0</asrwt>
<pdfrwt beam="2">  1        1 0.69343514E-01 0.91843210E+02</pdfrwt>
<pdfrwt beam="1">  1       -1 0.71978296E-03 0.91843210E+02</pdfrwt>
<totfact> 0.13475912E+05</totfact>
</mgrwt>
</event>
<event>
 5    1  0.5681061E+000  0.9122529E+02  0.7546771E-02  0.1299911E+00
         -2   -1    0    0    0  501 -0.00000000000E+00  0.00000000000E+00  0.64983490110E+01  0.64983490110E+01  0.00000000000E+00 0.  1.
          2   -1    0    0  501    0  0.00000000000E+00 -0.00000000000E+00 -0.32016030261E+03  0.32016030261E+03  0.00000000000E+00 0. -1.
         23    2    1    2    0    0  0.00000000000E+00  0.00000000000E+00 -0.31366195360E+03  0.32665865162E+03  0.91225290042E+02 0.  0.
        -11    1    3    3    0    0  0.40279961984E+02  0.90962724216E+01 -0.22620003663E+03  0.22993841367E+03  0.00000000000E+00 0.  1.
         11    1    3    3    0    0 -0.40279961984E+02 -0.90962724216E+01 -0.87461916965E+02  0.96720237948E+02  0.00000000000E+00 0. -1.
<mgrwt>
<rscale>  0 0.91225290E+02</rscale>
<asrwt>0</asrwt>
<pdfrwt beam="2">  1        2 0.49255437E-01 0.91225290E+02</pdfrwt>
<pdfrwt beam="1">  1       -2 0.99974588E-03 0.91225290E+02</pdfrwt>
<totfact> 0.18379365E+05</totfact>
</mgrwt>
</event>
<event>
 5    1  0.5681061E+000  0.8998136E+02  0.7546771E-02  0.1302897E+00
         -3   -1    0    0    0  501 -0.00000000000E+00  0.00000000000E+00  0.93013910319E+02  0.93013910319E+02  0.00000000000E+00 0.  1.
          3   -1    0    0  501    0  0.00000000000E+00 -0.00000000000E+00 -0.21761920513E+02  0.21761920513E+02  0.00000000000E+00 0. -1.
         23    2    1    2    0    0  0.00000000000E+00  0.00000000000E+00  0.71251989807E+02  0.11477583083E+03  0.89981360802E+02 0.  0.
        -11    1    3    3    0    0  0.42621882688E+02  0.13946747087E+02  0.31022565371E+02  0.54530140293E+02  0.00000000000E+00 0. -1.
         11    1    3    3    0    0 -0.42621882688E+02 -0.13946747087E+02  0.40229424435E+02  0.60245690539E+02  0.00000000000E+00 0.  1.
<mgrwt>
<rscale>  0 0.89981361E+02</rscale>
<asrwt>0</asrwt>
<pdfrwt beam="2">  1        3 0.33479878E-02 0.89981361E+02</pdfrwt>
<pdfrwt beam="1">  1       -3 0.14309832E-01 0.89981361E+02</pdfrwt>
<totfact> 0.34833775E+04</totfact>
</mgrwt>
</event>
<event>
 5    1  0.5681061E+000  0.9663318E+02  0.7546771E-02  0.1287540E+00
         -2   -1    0    0    0  501 -0.00000000000E+00  0.00000000000E+00  0.14758725022E+02  0.14758725022E+02  0.00000000000E+00 0.  1.
          2   -1    0    0  501    0  0.00000000000E+00 -0.00000000000E+00 -0.15817713715E+03  0.15817713715E+03  0.00000000000E+00 0. -1.
         23    2    1    2    0    0  0.00000000000E+00  0.00000000000E+00 -0.14341841213E+03  0.17293586217E+03  0.96633180055E+02 0.  0.
        -11    1    3    3    0    0 -0.47593564582E+02 -0.73150307584E+00 -0.86554396978E+02  0.98779279824E+02  0.00000000000E+00 0.  1.
         11    1    3    3    0    0  0.47593564582E+02  0.73150307584E+00 -0.56864015149E+02  0.74156582346E+02  0.00000000000E+00 0. -1.
<mgrwt>
<rscale>  0 0.96633180E+02</rscale>
<asrwt>0</asrwt>
<pdfrwt beam="2">  1        2 0.24334943E-01 0.96633180E+02</pdfrwt>
<pdfrwt beam="1">  1       -2 0.22705732E-02 0.96633180E+02</pdfrwt>
<totfact> 0.12154067E+05</totfact>
</mgrwt>
</event>
<event>
 5    1  0.5681061E+000  0.9159854E+02  0.7546771E-02  0.1299026E+00
          4   -1    0    0  501    0  0.00000000000E+00  0.00000000000E+00  0.32803783012E+03  0.32803783012E+03  0.00000000000E+00 0. -1.
         -4   -1    0    0    0  501 -0.00000000000E+00 -0.00000000000E+00 -0.63943019175E+01  0.63943019175E+01  0.00000000000E+00 0.  1.
         23    2    1    2    0    0  0.00000000000E+00  0.00000000000E+00  0.32164352821E+03  0.33443213204E+03  0.91598535494E+02 0.  0.
        -11    1    3    3    0    0 -0.12062295581E+02  0.44154793869E+02  0.15513250876E+03  0.16174436643E+03  0.00000000000E+00 0. -1.
         11    1    3    3    0    0  0.12062295581E+02 -0.44154793869E+02  0.16651101944E+03  0.17268776561E+03  0.00000000000E+00 0.  1.
<mgrwt>
<rscale>  0 0.91598535E+02</rscale>
<asrwt>0</asrwt>
<pdfrwt beam="1">  1        4 0.50467345E-01 0.91598535E+02</pdfrwt>
<pdfrwt beam="2">  1       -4 0.98373902E-03 0.91598535E+02</pdfrwt>
<totfact> 0.16614010E+04</totfact>
</mgrwt>
</event>
<event>
 5    1  0.5681061E+000  0.9327715E+02  0.7546771E-02  0.1295104E+00
          3   -1    0    0  501    0  0.00000000000E+00  0.00000000000E+00  0.11237086712E+02  0.11237086712E+02  0.00000000000E+00 0. -1.
         -3   -1    0    0    0  501 -0.00000000000E+00 -0.00000000000E+00 -0.19356945009E+03  0.19356945009E+03  0.00000000000E+00 0.  1.
         23    2    1    2    0    0  0.00000000000E+00  0.00000000000E+00 -0.18233236337E+03  0.20480653680E+03  0.93277150372E+02 0.  0.
        -11    1    3    3    0    0  0.30181041955E+02 -0.35361825613E+02 -0.99323556729E+02  0.10966550472E+03  0.00000000000E+00 0.  1.
         11    1    3    3    0    0 -0.30181041955E+02  0.35361825613E+02 -0.83008806645E+02  0.95141032078E+02  0.00000000000E+00 0. -1.
<mgrwt>
<rscale>  0 0.93277150E+02</rscale>
<asrwt>0</asrwt>
<pdfrwt beam="1">  1        3 0.17287828E-02 0.93277150E+02</pdfrwt>
<pdfrwt beam="2">  1       -3 0.29779912E-01 0.93277150E+02</pdfrwt>
<totfact> 0.26562882E+04</totfact>
</mgrwt>
</event>
<event>
 5    1  0.5681061E+000  0.9153308E+02  0.7546771E-02  0.1299181E+00
          4   -1    0    0  501    0  0.00000000000E+00  0.00000000000E+00  0.12107683444E+03  0.12107683444E+03  0.00000000000E+00 0. -1.
         -4   -1    0    0    0  501 -0.00000000000E+00 -0.00000000000E+00 -0.17299560002E+02  0.17299560002E+02  0.00000000000E+00 0.  1.
         23    2    1    2    0    0  0.00000000000E+00  0.00000000000E+00  0.10377727443E+03  0.13837639444E+03  0.91533075164E+02 0.  0.
        -11    1    3    3    0    0  0.29735372049E+01  0.35802487826E+02  0.94752298795E+02  0.10133438797E+03  0.00000000000E+00 0. -1.
         11    1    3    3    0    0 -0.29735372049E+01 -0.35802487826E+02  0.90249756396E+01  0.37042006471E+02  0.00000000000E+00 0.  1.
<mgrwt>
<rscale>  0 0.91533075E+02</rscale>
<asrwt>0</asrwt>
<pdfrwt beam="1">  1        4 0.18627205E-01 0.91533075E+02</pdfrwt>
<pdfrwt beam="2">  1       -4 0.26614708E-02 0.91533075E+02</pdfrwt>
<totfact> 0.24016115E+04</totfact>
</mgrwt>
</event>
<event>
 5    1  0.5681061E+000  0.8898515E+02  0.7546771E-02  0.1305328E+00
          1   -1    0    0  501    0  0.00000000000E+00  0.00000000000E+00  0.83864972049E+02  0.83864972049E+02  0.00000000000E+00 0. -1.
         -1   -1    0    0    0  501 -0.00000000000E+00 -0.00000000000E+00 -0.23604480016E+02  0.23604480016E+02  0.00000000000E+00 0.  1.
         23    2    1    2    0    0  0.00000000000E+00  0.00000000000E+00  0.60260492034E+02  0.10746945207E+03  0.88985146104E+02 0.  0.
        -11    1    3    3    0    0  0.27593398921E+02 -0.20666697016E+02  0.64098873642E+02  0.72781684727E+02  0.00000000000E+00 0. -1.
         11    1    3    3    0    0 -0.27593398921E+02  0.20666697016E+02 -0.38383816080E+01  0.34687767339E+02  0.00000000000E+00 0.  1.
<mgrwt>
<rscale>  0 0.88985146E+02</rscale>
<asrwt>0</asrwt>
<pdfrwt beam="1">  1        1 0.12902303E-01 0.88985146E+02</pdfrwt>
<pdfrwt beam="2">  1       -1 0.36314585E-02 0.88985146E+02</pdfrwt>
<totfact> 0.10848219E+05</totfact>
</mgrwt>
</event>
<event>
 5    1  0.5681061E+000  0.9347626E+02  0.7546771E-02  0.1294645E+00
         -2   -1    0    0    0  501 -0.00000000000E+00  0.00000000000E+00  0.84686274967E+02  0.84686274967E+02  0.00000000000E+00 0.  1.
          2   -1    0    0  501    0  0.00000000000E+00 -0.00000000000E+00 -0.25794649349E+02  0.25794649349E+02  0.00000000000E+00 0. -1.
         23    2    1    2    0    0  0.00000000000E+00  0.00000000000E+00  0.58891625618E+02  0.11048092432E+03  0.93476259390E+02 0.  0.
        -11    1    3    3    0    0  0.13836670130E+02 -0.24138889179E+02  0.73831585368E+02  0.78900205380E+02  0.00000000000E+00 0.  1.
         11    1    3    3    0    0 -0.13836670130E+02  0.24138889179E+02 -0.14939959750E+02  0.31580718935E+02  0.00000000000E+00 0. -1.
<mgrwt>
<rscale>  0 0.93476259E+02</rscale>
<asrwt>0</asrwt>
<pdfrwt beam="2">  1        2 0.39684076E-02 0.93476259E+02</pdfrwt>
<pdfrwt beam="1">  1       -2 0.13028658E-01 0.93476259E+02</pdfrwt>
<totfact> 0.78750318E+04</totfact>
</mgrwt>
</event>
<event>
 5    1  0.5681061E+000  0.9274268E+02  0.7546771E-02  0.1296343E+00
          2   -1    0    0  501    0  0.00000000000E+00  0.00000000000E+00  0.16504457310E+03  0.16504457310E+03  0.00000000000E+00 0. -1.
         -2   -1    0    0    0  501 -0.00000000000E+00 -0.00000000000E+00 -0.13028609831E+02  0.13028609831E+02  0.00000000000E+00 0.  1.
         23    2    1    2    0    0  0.00000000000E+00  0.00000000000E+00  0.15201596327E+03  0.17807318294E+03  0.92742683760E+02 0.  0.
        -11    1    3    3    0    0 -0.26150326472E+02 -0.27166798118E+02  0.12782970314E+03  0.13327530716E+03  0.00000000000E+00 0. -1.
         11    1    3    3    0    0  0.26150326472E+02  0.27166798118E+02  0.24186260136E+02  0.44797875775E+02  0.00000000000E+00 0.  1.
<mgrwt>
<rscale>  0 0.92742684E+02</rscale>
<asrwt>0</asrwt>
<pdfrwt beam="1">  1        2 0.25391471E-01 0.92742684E+02</pdfrwt>
<pdfrwt beam="2">  1       -2 0.20044016E-02 0.92742684E+02</pdfrwt>
<totfact> 0.13796231E+05</totfact>
</mgrwt>
</event>
<event>
 5    1  0.5681061E+000  0.9191241E+02  0.7546771E-02  0.1298286E+00
          2   -1    0    0  501    0  0.00000000000E+00  0.00000000000E+00  0.20645629216E+02  0.20645629216E+02  0.00000000000E+00 0. -1.
         -2   -1    0    0    0  501 -0.00000000000E+00 -0.00000000000E+00 -0.10229636388E+03  0.10229636388E+03  0.00000000000E+00 0.  1.
         23    2    1    2    0    0  0.00000000000E+00  0.00000000000E+00 -0.81650734662E+02  0.12294199309E+03  0.91912410451E+02 0.  0.
        -11    1    3    3    0    0 -0.10223811052E+01 -0.24684890328E+02 -0.92657713793E+02  0.95894947724E+02  0.00000000000E+00 0.  1.
         11    1    3    3    0    0  0.10223811052E+01  0.24684890328E+02  0.11006979131E+02  0.27047045370E+02  0.00000000000E+00 0. -1.
<mgrwt>
<rscale>  0 0.91912410E+02</rscale>
<asrwt>0</asrwt>
<pdfrwt beam="1">  1        2 0.31762506E-02 0.91912410E+02</pdfrwt>
<pdfrwt beam="2">  1       -2 0.15737902E-01 0.91912410E+02</pdfrwt>
<totfact> 0.77692604E+04</totfact>
</mgrwt>
</event>
<event>
 5    1  0.5681061E+000  0.8788677E+02  0.7546771E-02  0.1308051E+00
          1   -1    0    0  501    0  0.00000000000E+00  0.00000000000E+00  0.36993337303E+03  0.36993337303E+03  0.00000000000E+00 0.  1.
         -1   -1    0    0    0  501 -0.00000000000E+00 -0.00000000000E+00 -0.52199153211E+01  0.52199153211E+01  0.00000000000E+00 0. -1.
         23    2    1    2    0    0  0.00000000000E+00  0.00000000000E+00  0.36471345771E+03  0.37515328835E+03  0.87886765367E+02 0.  0.
        -11    1    3    3    0    0 -0.18208295151E+02 -0.37823240170E+02  0.23782902612E+03  0.24150524875E+03  0.00000000000E+00 0. -1.
         11    1    3    3    0    0  0.18208295151E+02  0.37823240170E+02  0.12688443159E+03  0.13364803960E+03  0.00000000000E+00 0.  1.
<mgrwt>
<rscale>  0 0.87886765E+02</rscale>
<asrwt>0</asrwt>
<pdfrwt beam="1">  1        1 0.56912806E-01 0.87886765E+02</pdfrwt>
<pdfrwt beam="2">  1       -1 0.80306419E-03 0.87886765E+02</pdfrwt>
<totfact> 0.14674585E+05</totfact>
</mgrwt>
</event>
<event>
 5    1  0.5681061E+000  0.9014954E+02  0.7546771E-02  0.1302490E+00
          1   -1    0    0  501    0  0.00000000000E+00  0.00000000000E+00  0.27151315373E+03  0.27151315373E+03  0.00000000000E+00 0. -1.
         -1   -1    0    0    0  501 -0.00000000000E+00 -0.00000000000E+00 -0.74830067464E+01  0.74830067464E+01  0.00000000000E+00 0.  1.
         23    2    1    2    0    0  0.00000000000E+00  0.00000000000E+00  0.26403014698E+03  0.27899616047E+03  0.90149537127E+02 0.  0.
        -11    1    3    3    0    0  0.12733171658E+02  0.40018073283E+02  0.81336124087E+02  0.91537669466E+02  0.00000000000E+00 0.  1.
         11    1    3    3    0    0 -0.12733171658E+02 -0.40018073283E+02  0.18269402289E+03  0.18745849101E+03  0.00000000000E+00 0. -1.
<mgrwt>
<rscale>  0 0.90149537E+02</rscale>
<asrwt>0</asrwt>
<pdfrwt beam="1">  1        1 0.41771247E-01 0.90149537E+02</pdfrwt>
<pdfrwt beam="2">  1       -1 0.11512320E-02 0.90149537E+02</pdfrwt>
<totfact> 0.12953267E+05</totfact>
</mgrwt>
</event>
<event>
 5    1  0.5681061E+000  0.9175078E+02  0.7546771E-02  0.1298666E+00
          3   -1    0    0  501    0  0.00000000000E+00  0.00000000000E+00  0.26900297891E+03  0.26900297891E+03  0.00000000000E+00 0. -1.
         -3   -1    0    0    0  501 -0.00000000000E+00 -0.00000000000E+00 -0.78235246007E+01  0.78235246007E+01  0.00000000000E+00 0.  1.
         23    2    1    2    0    0  0.00000000000E+00  0.00000000000E+00  0.26117945431E+03  0.27682650351E+03  0.91750780339E+02 0.  0.
        -11    1    3    3    0    0 -0.34421621166E+02  0.16260232067E+02  0.53353557825E+02  0.65542698168E+02  0.00000000000E+00 0.  1.
         11    1    3    3    0    0  0.34421621166E+02 -0.16260232067E+02  0.20782589649E+03  0.21128380535E+03  0.00000000000E+00 0. -1.
<mgrwt>
<rscale>  0 0.91750780E+02</rscale>
<asrwt>0</asrwt>
<pdfrwt beam="1">  1        3 0.41385067E-01 0.91750780E+02</pdfrwt>
<pdfrwt beam="2">  1       -3 0.12036194E-02 0.91750780E+02</pdfrwt>
<totfact> 0.24538448E+04</totfact>
</mgrwt>
</event>
<event>
 5    1  0.5681061E+000  0.9185922E+02  0.7546771E-02  0.1298411E+00
          1   -1    0    0  501    0  0.00000000000E+00  0.00000000000E+00  0.37287492539E+02  0.37287492539E+02  0.00000000000E+00 0. -1.
         -1   -1    0    0    0  501 -0.00000000000E+00 -0.00000000000E+00 -0.56574713568E+02  0.56574713568E+02  0.00000000000E+00 0.  1.
         23    2    1    2    0    0  0.00000000000E+00  0.00000000000E+00 -0.19287221029E+02  0.93862206107E+02  0.91859222946E+02 0.  0.
        -11    1    3    3    0    0 -0.16515817099E+02 -0.42681235456E+02 -0.13610153449E+02  0.47746165830E+02  0.00000000000E+00 0.  1.
         11    1    3    3    0    0  0.16515817099E+02  0.42681235456E+02 -0.56770675800E+01  0.46116040277E+02  0.00000000000E+00 0. -1.
<mgrwt>
<rscale>  0 0.91859223E+02</rscale>
<asrwt>0</asrwt>
<pdfrwt beam="1">  1        1 0.57365374E-02 0.91859223E+02</pdfrwt>
<pdfrwt beam="2">  1       -1 0.87038020E-02 0.91859223E+02</pdfrwt>
<totfact> 0.87817332E+04</totfact>
</mgrwt>
</event>
<event>
 5    1  0.5681061E+000  0.9441305E+02  0.7546771E-02  0.1292504E+00
         -2   -1    0    0    0  501 -0.00000000000E+00  0.00000000000E+00  0.40943306600E+02  0.40943306600E+02  0.00000000000E+00 0.  1.
          2   -1    0    0  501    0  0.00000000000E+00 -0.00000000000E+00 -0.54427845636E+02  0.54427845636E+02  0.00000000000E+00 0. -1.
         23    2    1    2    0    0  0.00000000000E+00  0.00000000000E+00 -0.13484539036E+02  0.95371152237E+02  0.94413049341E+02 0.  0.
        -11    1    3    3    0    0  0.41461394700E+02  0.35641162696E+01  0.15770795157E+02  0.44502451113E+02  0.00000000000E+00 0.  1.
         11    1    3    3    0    0 -0.41461394700E+02 -0.35641162696E+01 -0.29255334193E+02  0.50868701123E+02  0.00000000000E+00 0. -1.
<mgrwt>
<rscale>  0 0.94413049E+02</rscale>
<asrwt>0</asrwt>
<pdfrwt beam="2">  1        2 0.83735147E-02 0.94413049E+02</pdfrwt>
<pdfrwt beam="1">  1       -2 0.62989702E-02 0.94413049E+02</pdfrwt>
<totfact> 0.93578958E+04</totfact>
</mgrwt>
</event>
<event>
 5    1  0.5681061E+000  0.9088615E+02  0.7546771E-02  0.1300720E+00
          3   -1    0    0  501    0  0.00000000000E+00  0.00000000000E+00  0.12990429989E+03  0.12990429989E+03  0.00000000000E+00 0. -1.
         -3   -1    0    0    0  501 -0.00000000000E+00 -0.00000000000E+00 -0.15896880377E+02  0.15896880377E+02  0.00000000000E+00 0.  1.
         23    2    1    2    0    0  0.00000000000E+00  0.00000000000E+00  0.11400741952E+03  0.14580118027E+03  0.90886151110E+02 0.  0.
        -11    1    3    3    0    0 -0.44164108482E+02 -0.51050375020E+00  0.74157893719E+02  0.86314090929E+02  0.00000000000E+00 0. -1.
         11    1    3    3    0    0  0.44164108482E+02  0.51050375020E+00  0.39849525798E+02  0.59487089343E+02  0.00000000000E+00 0.  1.
<mgrwt>
<rscale>  0 0.90886151E+02</rscale>
<asrwt>0</asrwt>
<pdfrwt beam="1">  1        3 0.19985276E-01 0.90886151E+02</pdfrwt>
<pdfrwt beam="2">  1       -3 0.24456740E-02 0.90886151E+02</pdfrwt>
<totfact> 0.31840024E+04</totfact>
</mgrwt>
</event>
<event>
 5    1  0.5681061E+000  0.9084211E+02  0.7546771E-02  0.1300825E+00
          2   -1    0    0  501    0  0.00000000000E+00  0.00000000000E+00  0.63867436055E+01  0.63867436055E+01  0.00000000000E+00 0.  1.
         -2   -1    0    0    0  501 -0.00000000000E+00 -0.00000000000E+00 -0.32302413835E+03  0.32302413835E+03  0.00000000000E+00 0. -1.
         23    2    1    2    0    0  0.00000000000E+00  0.00000000000E+00 -0.31663739475E+03  0.32941088196E+03  0.90842112482E+02 0.  0.
        -11    1    3    3    0    0 -0.27919245024E+02  0.28017272407E+02 -0.23929087244E+03  0.24253777733E+03  0.00000000000E+00 0. -1.
         11    1    3    3    0    0  0.27919245024E+02 -0.28017272407E+02 -0.77346522305E+02  0.86873104633E+02  0.00000000000E+00 0.  1.
<mgrwt>
<rscale>  0 0.90842112E+02</rscale>
<asrwt>0</asrwt>
<pdfrwt beam="1">  1        2 0.98257590E-03 0.90842112E+02</pdfrwt>
<pdfrwt beam="2">  1       -2 0.49696023E-01 0.90842112E+02</pdfrwt>
<totfact> 0.49339799E+04</totfact>
</mgrwt>
</event>
<event>
 5    1  0.5681061E+000  0.9206428E+02  0.7546771E-02  0.1297928E+00
         -2   -1    0    0    0  501 -0.00000000000E+00  0.00000000000E+00  0.92229102492E+02  0.92229102492E+02  0.00000000000E+00 0.  1.
          2   -1    0    0  501    0  0.00000000000E+00 -0.00000000000E+00 -0.22974935656E+02  0.22974935656E+02  0.00000000000E+00 0. -1.
         23    2    1    2    0    0  0.00000000000E+00  0.00000000000E+00  0.69254166837E+02  0.11520403815E+03  0.92064275272E+02 0.  0.
        -11    1    3    3    0    0 -0.25217736992E+02 -0.31356489432E+02  0.66519552070E+01  0.40784950614E+02  0.00000000000E+00 0. -1.
         11    1    3    3    0    0  0.25217736992E+02  0.31356489432E+02  0.62602211630E+02  0.74419087534E+02  0.00000000000E+00 0.  1.
<mgrwt>
<rscale>  0 0.92064275E+02</rscale>
<asrwt>0</asrwt>
<pdfrwt beam="2">  1        2 0.35346055E-02 0.92064275E+02</pdfrwt>
<pdfrwt beam="1">  1       -2 0.14189092E-01 0.92064275E+02</pdfrwt>
<totfact> 0.79786307E+04</totfact>
</mgrwt>
</event>
<event>
 5    1  0.5681061E+000  0.8888313E+02  0.7546771E-02  0.1305579E+00
         -2   -1    0    0    0  501 -0.00000000000E+00  0.00000000000E+00  0.72015542685E+02  0.72015542685E+02  0.00000000000E+00 0.  1.
          2   -1    0    0  501    0  0.00000000000E+00 -0.00000000000E+00 -0.27425366408E+02  0.27425366408E+02  0.00000000000E+00 0. -1.
         23    2    1    2    0    0  0.00000000000E+00  0.00000000000E+00  0.44590176277E+02  0.99440909093E+02  0.88883128775E+02 0.  0.
        -11    1    3    3    0    0  0.21894094483E+02 -0.11956033949E+02 -0.18853529479E+02  0.31269053309E+02  0.00000000000E+00 0. -1.
         11    1    3    3    0    0 -0.21894094483E+02  0.11956033949E+02  0.63443705756E+02  0.68171855784E+02  0.00000000000E+00 0.  1.
<mgrwt>
<rscale>  0 0.88883129E+02</rscale>
<asrwt>0</asrwt>
<pdfrwt beam="2">  1        2 0.42192872E-02 0.88883129E+02</pdfrwt>
<pdfrwt beam="1">  1       -2 0.11079314E-01 0.88883129E+02</pdfrwt>
<totfact> 0.93166075E+04</totfact>
</mgrwt>
</event>
<event>
 5    1  0.5681061E+000  0.8831784E+02  0.7546771E-02  0.1306977E+00
         -2   -1    0    0    0  501 -0.00000000000E+00  0.00000000000E+00  0.48656002516E+02  0.48656002516E+02  0.00000000000E+00 0.  1.
          2   -1    0    0  501    0  0.00000000000E+00 -0.00000000000E+00 -0.40077486513E+02  0.40077486513E+02  0.00000000000E+00 0. -1.
         23    2    1    2    0    0  0.00000000000E+00  0.00000000000E+00  0.85785160033E+01  0.88733489029E+02  0.88317841563E+02 0.  0.
        -11    1    3    3    0    0 -0.20178907981E+02 -0.39254773175E+02  0.56685774752E+01  0.44500093426E+02  0.00000000000E+00 0. -1.
         11    1    3    3    0    0  0.20178907981E+02  0.39254773175E+02  0.29099385281E+01  0.44233395603E+02  0.00000000000E+00 0.  1.
<mgrwt>
<rscale>  0 0.88317842E+02</rscale>
<asrwt>0</asrwt>
<pdfrwt beam="2">  1        2 0.61657671E-02 0.88317842E+02</pdfrwt>
<pdfrwt beam="1">  1       -2 0.74855389E-02 0.88317842E+02</pdfrwt>
<totfact> 0.10462032E+05</totfact>
</mgrwt>
</event>
<event>
 5    1  0.5681061E+000  0.9770109E+02  0.7546771E-02  0.1285206E+00
         -3   -1    0    0    0  501 -0.00000000000E+00  0.00000000000E+00  0.23637446491E+02  0.23637446491E+02  0.00000000000E+00 0.  1.
          3   -1    0    0  501    0  0.00000000000E+00 -0.00000000000E+00 -0.10095742241E+03  0.10095742241E+03  0.00000000000E+00 0. -1.
         23    2    1    2    0    0  0.00000000000E+00  0.00000000000E+00 -0.77319975921E+02  0.12459486890E+03  0.97701088432E+02 0.  0.
        -11    1    3    3    0    0  0.16586880784E+02 -0.74818177070E+01 -0.96474326683E+02  0.98175342726E+02  0.00000000000E+00 0. -1.
         11    1    3    3    0    0 -0.16586880784E+02  0.74818177070E+01  0.19154350762E+02  0.26419526178E+02  0.00000000000E+00 0.  1.
<mgrwt>
<rscale>  0 0.97701088E+02</rscale>
<asrwt>0</asrwt>
<pdfrwt beam="2">  1        3 0.15531911E-01 0.97701088E+02</pdfrwt>
<pdfrwt beam="1">  1       -3 0.36365303E-02 0.97701088E+02</pdfrwt>
<totfact> 0.27273420E+04</totfact>
</mgrwt>
</event>
<event>
 5    1  0.5681061E+000  0.9113463E+02  0.7546771E-02  0.1300127E+00
          1   -1    0    0  501    0  0.00000000000E+00  0.00000000000E+00  0.29202716064E+03  0.29202716064E+03  0.00000000000E+00 0. -1.
         -1   -1    0    0    0  501 -0.00000000000E+00 -0.00000000000E+00 -0.71102301643E+01  0.71102301643E+01  0.00000000000E+00 0.  1.
         23    2    1    2    0    0  0.00000000000E+00  0.00000000000E+00  0.28491693047E+03  0.29913739080E+03  0.91134632854E+02 0.  0.
        -11    1    3    3    0    0 -0.33737357876E+02 -0.21649831273E+02  0.71339633364E+02  0.81830726498E+02  0.00000000000E+00 0.  1.
         11    1    3    3    0    0  0.33737357876E+02  0.21649831273E+02  0.21357729711E+03  0.21730666430E+03  0.00000000000E+00 0. -1.
<mgrwt>
<rscale>  0 0.91134633E+02</rscale>
<asrwt>0</asrwt>
<pdfrwt beam="1">  1        1 0.44927246E-01 0.91134633E+02</pdfrwt>
<pdfrwt beam="2">  1       -1 0.10938818E-02 0.91134633E+02</pdfrwt>
<totfact> 0.12762077E+05</totfact>
</mgrwt>
</event>
<event>
 5    1  0.5681061E+000  0.9216360E+02  0.7546771E-02  0.1297695E+00
         -1   -1    0    0    0  501 -0.00000000000E+00  0.00000000000E+00  0.77029029941E+02  0.77029029941E+02  0.00000000000E+00 0.  1.
          1   -1    0    0  501    0  0.00000000000E+00 -0.00000000000E+00 -0.27567948120E+02  0.27567948120E+02  0.00000000000E+00 0. -1.
         23    2    1    2    0    0  0.00000000000E+00  0.00000000000E+00  0.49461081822E+02  0.10459697806E+03  0.92163600214E+02 0.  0.
        -11    1    3    3    0    0 -0.26814132601E+01 -0.17736936790E+02 -0.23442734459E+02  0.29518650082E+02  0.00000000000E+00 0. -1.
         11    1    3    3    0    0  0.26814132601E+01  0.17736936790E+02  0.72903816281E+02  0.75078327979E+02  0.00000000000E+00 0.  1.
<mgrwt>
<rscale>  0 0.92163600E+02</rscale>
<asrwt>0</asrwt>
<pdfrwt beam="2">  1        1 0.42412228E-02 0.92163600E+02</pdfrwt>
<pdfrwt beam="1">  1       -1 0.11850620E-01 0.92163600E+02</pdfrwt>
<totfact> 0.82874961E+04</totfact>
</mgrwt>
</event>
<event>
 5    1  0.5681061E+000  0.5656954E+02  0.7546771E-02  0.1412819E+00
          2   -1    0    0  501    0  0.00000000000E+00  0.00000000000E+00  0.35675665615E+02  0.35675665615E+02  0.00000000000E+00 0. -1.
         -2   -1    0    0    0  501 -0.00000000000E+00 -0.00000000000E+00 -0.22425040589E+02  0.22425040589E+02  0.00000000000E+00 0.  1.
         23    2    1    2    0    0  0.00000000000E+00  0.00000000000E+00  0.13250625026E+02  0.58100706203E+02  0.56569541255E+02 0.  0.
        -11    1    3    3    0    0 -0.21439455063E+02 -0.17581357544E+02  0.88164016106E+00  0.27740433592E+02  0.00000000000E+00 0. -1.
         11    1    3    3    0    0  0.21439455063E+02  0.17581357544E+02  0.12368984865E+02  0.30360272612E+02  0.00000000000E+00 0.  1.
<mgrwt>
<rscale>  0 0.56569541E+02</rscale>
<asrwt>0</asrwt>
<pdfrwt beam="1">  1        2 0.54885640E-02 0.56569541E+02</pdfrwt>
<pdfrwt beam="2">  1       -2 0.34500062E-02 0.56569541E+02</pdfrwt>
<totfact> 0.34916004E+05</totfact>
</mgrwt>
</event>
<event>
 5    1  0.5681061E+000  0.9036457E+02  0.7546771E-02  0.1301971E+00
          4   -1    0    0  501    0  0.00000000000E+00  0.00000000000E+00  0.90602690973E+01  0.90602690973E+01  0.00000000000E+00 0.  1.
         -4   -1    0    0    0  501 -0.00000000000E+00 -0.00000000000E+00 -0.22531768966E+03  0.22531768966E+03  0.00000000000E+00 0. -1.
         23    2    1    2    0    0  0.00000000000E+00  0.00000000000E+00 -0.21625742056E+03  0.23437795876E+03  0.90364570507E+02 0.  0.
        -11    1    3    3    0    0 -0.12041864055E+01 -0.44585805895E+02 -0.12684912872E+03  0.13446206011E+03  0.00000000000E+00 0.  1.
         11    1    3    3    0    0  0.12041864055E+01  0.44585805895E+02 -0.89408291847E+02  0.99915898651E+02  0.00000000000E+00 0. -1.
<mgrwt>
<rscale>  0 0.90364571E+02</rscale>
<asrwt>0</asrwt>
<pdfrwt beam="1">  1        4 0.13938876E-02 0.90364571E+02</pdfrwt>
<pdfrwt beam="2">  1       -4 0.34664258E-01 0.90364571E+02</pdfrwt>
<totfact> 0.20514335E+04</totfact>
</mgrwt>
</event>
<event>
 5    1  0.5681061E+000  0.8988705E+02  0.7546771E-02  0.1303125E+00
         -4   -1    0    0    0  501 -0.00000000000E+00  0.00000000000E+00  0.12140121838E+03  0.12140121838E+03  0.00000000000E+00 0.  1.
          4   -1    0    0  501    0  0.00000000000E+00 -0.00000000000E+00 -0.16638386763E+02  0.16638386763E+02  0.00000000000E+00 0. -1.
         23    2    1    2    0    0  0.00000000000E+00  0.00000000000E+00  0.10476283161E+03  0.13803960514E+03  0.89887049675E+02 0.  0.
        -11    1    3    3    0    0 -0.26813825487E+02 -0.18774517616E+02  0.99676426849E+02  0.10491355403E+03  0.00000000000E+00 0.  1.
         11    1    3    3    0    0  0.26813825487E+02  0.18774517616E+02  0.50864047652E+01  0.33126051114E+02  0.00000000000E+00 0. -1.
<mgrwt>
<rscale>  0 0.89887050E+02</rscale>
<asrwt>0</asrwt>
<pdfrwt beam="2">  1        4 0.25597519E-02 0.89887050E+02</pdfrwt>
<pdfrwt beam="1">  1       -4 0.18677110E-01 0.89887050E+02</pdfrwt>
<totfact> 0.25236145E+04</totfact>
</mgrwt>
</event>
<event>
 5    1  0.5681061E+000  0.9368141E+02  0.7546771E-02  0.1294174E+00
          1   -1    0    0  501    0  0.00000000000E+00  0.00000000000E+00  0.82270074654E+02  0.82270074654E+02  0.00000000000E+00 0. -1.
         -1   -1    0    0    0  501 -0.00000000000E+00 -0.00000000000E+00 -0.26668892438E+02  0.26668892438E+02  0.00000000000E+00 0.  1.
         23    2    1    2    0    0  0.00000000000E+00  0.00000000000E+00  0.55601182216E+02  0.10893896709E+03  0.93681412710E+02 0.  0.
        -11    1    3    3    0    0 -0.19137763487E+02 -0.31788954628E+02  0.61044339137E+02  0.71436706029E+02  0.00000000000E+00 0. -1.
         11    1    3    3    0    0  0.19137763487E+02  0.31788954628E+02 -0.54431569214E+01  0.37502261063E+02  0.00000000000E+00 0.  1.
<mgrwt>
<rscale>  0 0.93681413E+02</rscale>
<asrwt>0</asrwt>
<pdfrwt beam="1">  1        1 0.12656934E-01 0.93681413E+02</pdfrwt>
<pdfrwt beam="2">  1       -1 0.41029066E-02 0.93681413E+02</pdfrwt>
<totfact> 0.93924911E+04</totfact>
</mgrwt>
</event>
<event>
 5    1  0.5681061E+000  0.9072958E+02  0.7546771E-02  0.1301094E+00
         -1   -1    0    0    0  501 -0.00000000000E+00  0.00000000000E+00  0.21727720398E+02  0.21727720398E+02  0.00000000000E+00 0.  1.
          1   -1    0    0  501    0  0.00000000000E+00 -0.00000000000E+00 -0.94716055166E+02  0.94716055166E+02  0.00000000000E+00 0. -1.
         23    2    1    2    0    0  0.00000000000E+00  0.00000000000E+00 -0.72988334768E+02  0.11644377556E+03  0.90729575416E+02 0.  0.
        -11    1    3    3    0    0  0.28326741204E+02 -0.87183705269E-01 -0.81970430297E+02  0.86726946858E+02  0.00000000000E+00 0. -1.
         11    1    3    3    0    0 -0.28326741204E+02  0.87183705269E-01  0.89820955287E+01  0.29716828705E+02  0.00000000000E+00 0.  1.
<mgrwt>
<rscale>  0 0.90729575E+02</rscale>
<asrwt>0</asrwt>
<pdfrwt beam="2">  1        1 0.14571701E-01 0.90729575E+02</pdfrwt>
<pdfrwt beam="1">  1       -1 0.33427262E-02 0.90729575E+02</pdfrwt>
<totfact> 0.10491765E+05</totfact>
</mgrwt>
</event>
<event>
 5    1  0.5681061E+000  0.8891644E+02  0.7546771E-02  0.1305497E+00
         -2   -1    0    0    0  501 -0.00000000000E+00  0.00000000000E+00  0.92257838695E+01  0.92257838695E+01  0.00000000000E+00 0.  1.
          2   -1    0    0  501    0  0.00000000000E+00 -0.00000000000E+00 -0.21424014822E+03  0.21424014822E+03  0.00000000000E+00 0. -1.
         23    2    1    2    0    0  0.00000000000E+00  0.00000000000E+00 -0.20501436435E+03  0.22346593209E+03  0.88916439507E+02 0.  0.
        -11    1    3    3    0    0  0.23383013926E+02 -0.29621605311E+02 -0.43442486425E+02  0.57545238450E+02  0.00000000000E+00 0.  1.
         11    1    3    3    0    0 -0.23383013926E+02  0.29621605311E+02 -0.16157187793E+03  0.16592069364E+03  0.00000000000E+00 0. -1.
<mgrwt>
<rscale>  0 0.88916440E+02</rscale>
<asrwt>0</asrwt>
<pdfrwt beam="2">  1        2 0.32960022E-01 0.88916440E+02</pdfrwt>
<pdfrwt beam="1">  1       -2 0.14193514E-02 0.88916440E+02</pdfrwt>
<totfact> 0.16964047E+05</totfact>
</mgrwt>
</event>
<event>
 5    1  0.5681061E+000  0.9157049E+02  0.7546771E-02  0.1299092E+00
          1   -1    0    0  501    0  0.00000000000E+00  0.00000000000E+00  0.17925393441E+03  0.17925393441E+03  0.00000000000E+00 0. -1.
         -1   -1    0    0    0  501 -0.00000000000E+00 -0.00000000000E+00 -0.11694519133E+02  0.11694519133E+02  0.00000000000E+00 0.  1.
         23    2    1    2    0    0  0.00000000000E+00  0.00000000000E+00  0.16755941528E+03  0.19094845355E+03  0.91570487946E+02 0.  0.
        -11    1    3    3    0    0 -0.34711155596E+02 -0.29653399279E+02  0.91033348792E+02  0.10183937845E+03  0.00000000000E+00 0.  1.
         11    1    3    3    0    0  0.34711155596E+02  0.29653399279E+02  0.76526066490E+02  0.89109075094E+02  0.00000000000E+00 0. -1.
<mgrwt>
<rscale>  0 0.91570488E+02</rscale>
<asrwt>0</asrwt>
<pdfrwt beam="1">  1        1 0.27577526E-01 0.91570488E+02</pdfrwt>
<pdfrwt beam="2">  1       -1 0.17991569E-02 0.91570488E+02</pdfrwt>
<totfact> 0.11459813E+05</totfact>
</mgrwt>
</event>
<event>
 5    1  0.5681061E+000  0.9090564E+02  0.7546771E-02  0.1300673E+00
         -1   -1    0    0    0  501 -0.00000000000E+00  0.00000000000E+00  0.19859739875E+02  0.19859739875E+02  0.00000000000E+00 0.  1.
          1   -1    0    0  501    0  0.00000000000E+00 -0.00000000000E+00 -0.10402749846E+03  0.10402749846E+03  0.00000000000E+00 0. -1.
         23    2    1    2    0    0  0.00000000000E+00  0.00000000000E+00 -0.84167758582E+02  0.12388723833E+03  0.90905644690E+02 0.  0.
        -11    1    3    3    0    0  0.95535838433E+01  0.35392818399E+02 -0.54641358655E+01  0.37064529394E+02  0.00000000000E+00 0.  1.
         11    1    3    3    0    0 -0.95535838433E+01 -0.35392818399E+02 -0.78703622716E+02  0.86822708937E+02  0.00000000000E+00 0. -1.
<mgrwt>
<rscale>  0 0.90905645E+02</rscale>
<asrwt>0</asrwt>
<pdfrwt beam="2">  1        1 0.16004230E-01 0.90905645E+02</pdfrwt>
<pdfrwt beam="1">  1       -1 0.30553447E-02 0.90905645E+02</pdfrwt>
<totfact> 0.10599923E+05</totfact>
</mgrwt>
</event>
<event>
 5    1  0.5681061E+000  0.8991790E+02  0.7546771E-02  0.1303051E+00
          2   -1    0    0  501    0  0.00000000000E+00  0.00000000000E+00  0.20396796205E+03  0.20396796205E+03  0.00000000000E+00 0. -1.
         -2   -1    0    0    0  501 -0.00000000000E+00 -0.00000000000E+00 -0.99099254825E+01  0.99099254825E+01  0.00000000000E+00 0.  1.
         23    2    1    2    0    0  0.00000000000E+00  0.00000000000E+00  0.19405803657E+03  0.21387788753E+03  0.89917902661E+02 0.  0.
        -11    1    3    3    0    0  0.25499621920E+02  0.36356698464E+02  0.11372446548E+03  0.12208724049E+03  0.00000000000E+00 0. -1.
         11    1    3    3    0    0 -0.25499621920E+02 -0.36356698464E+02  0.80333571089E+02  0.91790647046E+02  0.00000000000E+00 0.  1.
<mgrwt>
<rscale>  0 0.89917903E+02</rscale>
<asrwt>0</asrwt>
<pdfrwt beam="1">  1        2 0.31379683E-01 0.89917903E+02</pdfrwt>
<pdfrwt beam="2">  1       -2 0.15246041E-02 0.89917903E+02</pdfrwt>
<totfact> 0.16171457E+05</totfact>
</mgrwt>
</event>
<event>
 5    1  0.5681061E+000  0.9471160E+02  0.7546771E-02  0.1291827E+00
         -3   -1    0    0    0  501 -0.00000000000E+00  0.00000000000E+00  0.40685084930E+02  0.40685084930E+02  0.00000000000E+00 0.  1.
          3   -1    0    0  501    0  0.00000000000E+00 -0.00000000000E+00 -0.55120240796E+02  0.55120240796E+02  0.00000000000E+00 0. -1.
         23    2    1    2    0    0  0.00000000000E+00  0.00000000000E+00 -0.14435155866E+02  0.95805325726E+02  0.94711597561E+02 0.  0.
        -11    1    3    3    0    0  0.24284624347E+01  0.42077022810E+02  0.14623389878E+02  0.44611846071E+02  0.00000000000E+00 0.  1.
         11    1    3    3    0    0 -0.24284624347E+01 -0.42077022810E+02 -0.29058545744E+02  0.51193479654E+02  0.00000000000E+00 0. -1.
<mgrwt>
<rscale>  0 0.94711598E+02</rscale>
<asrwt>0</asrwt>
<pdfrwt beam="2">  1        3 0.84800370E-02 0.94711598E+02</pdfrwt>
<pdfrwt beam="1">  1       -3 0.62592439E-02 0.94711598E+02</pdfrwt>
<totfact> 0.31531620E+04</totfact>
</mgrwt>
</event>
<event>
 5    1  0.5681061E+000  0.9185232E+02  0.7546771E-02  0.1298427E+00
          1   -1    0    0  501    0  0.00000000000E+00  0.00000000000E+00  0.33157745298E+03  0.33157745298E+03  0.00000000000E+00 0. -1.
         -1   -1    0    0    0  501 -0.00000000000E+00 -0.00000000000E+00 -0.63611444146E+01  0.63611444146E+01  0.00000000000E+00 0.  1.
         23    2    1    2    0    0  0.00000000000E+00  0.00000000000E+00  0.32521630857E+03  0.33793859740E+03  0.91852317620E+02 0.  0.
        -11    1    3    3    0    0 -0.14858054046E+02 -0.37583033725E+02  0.24287488674E+03  0.24621424980E+03  0.00000000000E+00 0. -1.
         11    1    3    3    0    0  0.14858054046E+02  0.37583033725E+02  0.82341421825E+02  0.91724347598E+02  0.00000000000E+00 0.  1.
<mgrwt>
<rscale>  0 0.91852318E+02</rscale>
<asrwt>0</asrwt>
<pdfrwt beam="1">  1        1 0.51011902E-01 0.91852318E+02</pdfrwt>
<pdfrwt beam="2">  1       -1 0.97863786E-03 0.91852318E+02</pdfrwt>
<totfact> 0.12800577E+05</totfact>
</mgrwt>
</event>
<event>
 5    1  0.5681061E+000  0.9306906E+02  0.7546771E-02  0.1295585E+00
         -1   -1    0    0    0  501 -0.00000000000E+00  0.00000000000E+00  0.70611923538E+02  0.70611923538E+02  0.00000000000E+00 0.  1.
          1   -1    0    0  501    0  0.00000000000E+00 -0.00000000000E+00 -0.30667092008E+02  0.30667092008E+02  0.00000000000E+00 0. -1.
         23    2    1    2    0    0  0.00000000000E+00  0.00000000000E+00  0.39944831530E+02  0.10127901555E+03  0.93069057285E+02 0.  0.
        -11    1    3    3    0    0 -0.21684396615E+02 -0.41077802987E+02  0.23023957918E+02  0.51843047682E+02  0.00000000000E+00 0. -1.
         11    1    3    3    0    0  0.21684396615E+02  0.41077802987E+02  0.16920873612E+02  0.49435967863E+02  0.00000000000E+00 0.  1.
<mgrwt>
<rscale>  0 0.93069057E+02</rscale>
<asrwt>0</asrwt>
<pdfrwt beam="2">  1        1 0.47180142E-02 0.93069057E+02</pdfrwt>
<pdfrwt beam="1">  1       -1 0.10863373E-01 0.93069057E+02</pdfrwt>
<totfact> 0.82002315E+04</totfact>
</mgrwt>
</event>
<event>
 5    1  0.5681061E+000  0.9089705E+02  0.7546771E-02  0.1300694E+00
          1   -1    0    0  501    0  0.00000000000E+00  0.00000000000E+00  0.60328911612E+02  0.60328911612E+02  0.00000000000E+00 0. -1.
         -1   -1    0    0    0  501 -0.00000000000E+00 -0.00000000000E+00 -0.34238452794E+02  0.34238452794E+02  0.00000000000E+00 0.  1.
         23    2    1    2    0    0  0.00000000000E+00  0.00000000000E+00  0.26090458818E+02  0.94567364406E+02  0.90897053689E+02 0.  0.
        -11    1    3    3    0    0  0.15487304588E+02  0.39480360392E+02  0.30045576554E+02  0.51973956272E+02  0.00000000000E+00 0.  1.
         11    1    3    3    0    0 -0.15487304588E+02 -0.39480360392E+02 -0.39551177366E+01  0.42593408133E+02  0.00000000000E+00 0. -1.
<mgrwt>
<rscale>  0 0.90897054E+02</rscale>
<asrwt>0</asrwt>
<pdfrwt beam="1">  1        1 0.92813710E-02 0.90897054E+02</pdfrwt>
<pdfrwt beam="2">  1       -1 0.52674543E-02 0.90897054E+02</pdfrwt>
<totfact> 0.97276457E+04</totfact>
</mgrwt>
</event>
<event>
 5    1  0.5681061E+000  0.8579326E+02  0.7546771E-02  0.1313371E+00
          2   -1    0    0  501    0  0.00000000000E+00  0.00000000000E+00  0.43450153394E+02  0.43450153394E+02  0.00000000000E+00 0. -1.
         -2   -1    0    0    0  501 -0.00000000000E+00 -0.00000000000E+00 -0.42350160481E+02  0.42350160481E+02  0.00000000000E+00 0.  1.
         23    2    1    2    0    0  0.00000000000E+00  0.00000000000E+00  0.10999929123E+01  0.85800313875E+02  0.85793262420E+02 0.  0.
        -11    1    3    3    0    0  0.27930344341E+02 -0.14753264004E+02  0.29575786884E+02  0.43272278697E+02  0.00000000000E+00 0. -1.
         11    1    3    3    0    0 -0.27930344341E+02  0.14753264004E+02 -0.28475793972E+02  0.42528035178E+02  0.00000000000E+00 0.  1.
<mgrwt>
<rscale>  0 0.85793262E+02</rscale>
<asrwt>0</asrwt>
<pdfrwt beam="1">  1        2 0.66846390E-02 0.85793262E+02</pdfrwt>
<pdfrwt beam="2">  1       -2 0.65154093E-02 0.85793262E+02</pdfrwt>
<totfact> 0.11597574E+05</totfact>
</mgrwt>
</event>
<event>
 5    1  0.5681061E+000  0.1154093E+03  0.7546771E-02  0.1250868E+00
         -2   -1    0    0    0  501 -0.00000000000E+00  0.00000000000E+00  0.66640291040E+02  0.66640291040E+02  0.00000000000E+00 0.  1.
          2   -1    0    0  501    0  0.00000000000E+00 -0.00000000000E+00 -0.49967163220E+02  0.49967163220E+02  0.00000000000E+00 0. -1.
         23    2    1    2    0    0  0.00000000000E+00  0.00000000000E+00  0.16673127819E+02  0.11660745426E+03  0.11540929424E+03 0.  0.
        -11    1    3    3    0    0 -0.54077887127E+01 -0.13108843034E+02  0.64852417419E+02  0.66384651762E+02  0.00000000000E+00 0.  1.
         11    1    3    3    0    0  0.54077887127E+01  0.13108843034E+02 -0.48179289599E+02  0.50222802498E+02  0.00000000000E+00 0. -1.
<mgrwt>
<rscale>  0 0.11540929E+03</rscale>
<asrwt>0</asrwt>
<pdfrwt beam="2">  1        2 0.76872559E-02 0.11540929E+03</pdfrwt>
<pdfrwt beam="1">  1       -2 0.10252352E-01 0.11540929E+03</pdfrwt>
<totfact> 0.50712242E+04</totfact>
</mgrwt>
</event>
<event>
 5    1  0.5681061E+000  0.9500324E+02  0.7546771E-02  0.1291169E+00
          1   -1    0    0  501    0  0.00000000000E+00  0.00000000000E+00  0.13112036555E+03  0.13112036555E+03  0.00000000000E+00 0. -1.
         -1   -1    0    0    0  501 -0.00000000000E+00 -0.00000000000E+00 -0.17208644893E+02  0.17208644893E+02  0.00000000000E+00 0.  1.
         23    2    1    2    0    0  0.00000000000E+00  0.00000000000E+00  0.11391172065E+03  0.14832901044E+03  0.95003238026E+02 0.  0.
        -11    1    3    3    0    0 -0.13867655692E+00 -0.46852613599E+02  0.44739992090E+02  0.64783126850E+02  0.00000000000E+00 0.  1.
         11    1    3    3    0    0  0.13867655692E+00  0.46852613599E+02  0.69171728564E+02  0.83545883589E+02  0.00000000000E+00 0. -1.
<mgrwt>
<rscale>  0 0.95003238E+02</rscale>
<asrwt>0</asrwt>
<pdfrwt beam="1">  1        1 0.20172363E-01 0.95003238E+02</pdfrwt>
<pdfrwt beam="2">  1       -1 0.26474839E-02 0.95003238E+02</pdfrwt>
<totfact> 0.97876597E+04</totfact>
</mgrwt>
</event>
<event>
 5    1  0.5681061E+000  0.8642142E+02  0.7546771E-02  0.1311757E+00
         -2   -1    0    0    0  501 -0.00000000000E+00  0.00000000000E+00  0.18369468399E+02  0.18369468399E+02  0.00000000000E+00 0.  1.
          2   -1    0    0  501    0  0.00000000000E+00 -0.00000000000E+00 -0.10164505708E+03  0.10164505708E+03  0.00000000000E+00 0. -1.
         23    2    1    2    0    0  0.00000000000E+00  0.00000000000E+00 -0.83275588684E+02  0.12001452548E+03  0.86421424751E+02 0.  0.
        -11    1    3    3    0    0  0.23985199753E+02 -0.31305920373E+02 -0.17115503678E+02  0.42991754137E+02  0.00000000000E+00 0. -1.
         11    1    3    3    0    0 -0.23985199753E+02  0.31305920373E+02 -0.66160085005E+02  0.77022771344E+02  0.00000000000E+00 0.  1.
<mgrwt>
<rscale>  0 0.86421425E+02</rscale>
<asrwt>0</asrwt>
<pdfrwt beam="2">  1        2 0.15637701E-01 0.86421425E+02</pdfrwt>
<pdfrwt beam="1">  1       -2 0.28260721E-02 0.86421425E+02</pdfrwt>
<totfact> 0.14276619E+05</totfact>
</mgrwt>
</event>
<event>
 5    1  0.5681061E+000  0.9045162E+02  0.7546771E-02  0.1301762E+00
         -2   -1    0    0    0  501 -0.00000000000E+00  0.00000000000E+00  0.58370474242E+01  0.58370474242E+01  0.00000000000E+00 0. -1.
          2   -1    0    0  501    0  0.00000000000E+00 -0.00000000000E+00 -0.35041240908E+03  0.35041240908E+03  0.00000000000E+00 0.  1.
         23    2    1    2    0    0  0.00000000000E+00  0.00000000000E+00 -0.34457536166E+03  0.35624945651E+03  0.90451619109E+02 0.  0.
        -11    1    3    3    0    0 -0.16254786906E+02  0.41470736338E+02 -0.20313289080E+03  0.20795915800E+03  0.00000000000E+00 0.  1.
         11    1    3    3    0    0  0.16254786906E+02 -0.41470736338E+02 -0.14144247086E+03  0.14829029851E+03  0.00000000000E+00 0. -1.
<mgrwt>
<rscale>  0 0.90451619E+02</rscale>
<asrwt>0</asrwt>
<pdfrwt beam="2">  1        2 0.53909591E-01 0.90451619E+02</pdfrwt>
<pdfrwt beam="1">  1       -2 0.89800747E-03 0.90451619E+02</pdfrwt>
<totfact> 0.19436145E+05</totfact>
</mgrwt>
</event>
<event>
 5    1  0.5681061E+000  0.9136507E+02  0.7546771E-02  0.1299579E+00
         -2   -1    0    0    0  501 -0.00000000000E+00  0.00000000000E+00  0.13368435901E+02  0.13368435901E+02  0.00000000000E+00 0.  1.
          2   -1    0    0  501    0  0.00000000000E+00 -0.00000000000E+00 -0.15610606035E+03  0.15610606035E+03  0.00000000000E+00 0. -1.
         23    2    1    2    0    0  0.00000000000E+00  0.00000000000E+00 -0.14273762445E+03  0.16947449625E+03  0.91365066882E+02 0.  0.
        -11    1    3    3    0    0  0.77664558529E+01 -0.38949903644E+02 -0.29500236752E+02  0.49474001241E+02  0.00000000000E+00 0. -1.
         11    1    3    3    0    0 -0.77664558529E+01  0.38949903644E+02 -0.11323738769E+03  0.12000049501E+03  0.00000000000E+00 0.  1.
<mgrwt>
<rscale>  0 0.91365067E+02</rscale>
<asrwt>0</asrwt>
<pdfrwt beam="2">  1        2 0.24016317E-01 0.91365067E+02</pdfrwt>
<pdfrwt beam="1">  1       -2 0.20566824E-02 0.91365067E+02</pdfrwt>
<totfact> 0.14093821E+05</totfact>
</mgrwt>
</event>
<event>
 5    1  0.5681061E+000  0.8872570E+02  0.7546771E-02  0.1305967E+00
          2   -1    0    0  501    0  0.00000000000E+00  0.00000000000E+00  0.64522568069E+01  0.64522568069E+01  0.00000000000E+00 0. -1.
         -2   -1    0    0    0  501 -0.00000000000E+00 -0.00000000000E+00 -0.30501922619E+03  0.30501922619E+03  0.00000000000E+00 0.  1.
         23    2    1    2    0    0  0.00000000000E+00  0.00000000000E+00 -0.29856696938E+03  0.31147148299E+03  0.88725698158E+02 0.  0.
        -11    1    3    3    0    0 -0.71889398825E+00 -0.44224005410E+02 -0.13723325727E+03  0.14418476467E+03  0.00000000000E+00 0. -1.
         11    1    3    3    0    0  0.71889398825E+00  0.44224005410E+02 -0.16133371211E+03  0.16728671832E+03  0.00000000000E+00 0.  1.
<mgrwt>
<rscale>  0 0.88725698E+02</rscale>
<asrwt>0</asrwt>
<pdfrwt beam="1">  1        2 0.99265513E-03 0.88725698E+02</pdfrwt>
<pdfrwt beam="2">  1       -2 0.46926023E-01 0.88725698E+02</pdfrwt>
<totfact> 0.54194249E+04</totfact>
</mgrwt>
</event>
<event>
 5    1  0.5681061E+000  0.9170401E+02  0.7546771E-02  0.1298777E+00
          1   -1    0    0  501    0  0.00000000000E+00  0.00000000000E+00  0.19791254409E+03  0.19791254409E+03  0.00000000000E+00 0. -1.
         -1   -1    0    0    0  501 -0.00000000000E+00 -0.00000000000E+00 -0.10622906985E+02  0.10622906985E+02  0.00000000000E+00 0.  1.
         23    2    1    2    0    0  0.00000000000E+00  0.00000000000E+00  0.18728963711E+03  0.20853545108E+03  0.91704014026E+02 0.  0.
        -11    1    3    3    0    0 -0.42151942580E+02 -0.12215728558E+01  0.13458500855E+03  0.14103688536E+03  0.00000000000E+00 0. -1.
         11    1    3    3    0    0  0.42151942580E+02  0.12215728558E+01  0.52704628554E+02  0.67498565722E+02  0.00000000000E+00 0.  1.
<mgrwt>
<rscale>  0 0.91704014E+02</rscale>
<asrwt>0</asrwt>
<pdfrwt beam="1">  1        1 0.30448081E-01 0.91704014E+02</pdfrwt>
<pdfrwt beam="2">  1       -1 0.16342935E-02 0.91704014E+02</pdfrwt>
<totfact> 0.11635015E+05</totfact>
</mgrwt>
</event>
<event>
 5    1  0.5681061E+000  0.1010146E+03  0.7546771E-02  0.1278177E+00
         -1   -1    0    0    0  501 -0.00000000000E+00  0.00000000000E+00  0.81490630240E+02  0.81490630240E+02  0.00000000000E+00 0.  1.
          1   -1    0    0  501    0  0.00000000000E+00 -0.00000000000E+00 -0.31304049260E+02  0.31304049260E+02  0.00000000000E+00 0. -1.
         23    2    1    2    0    0  0.00000000000E+00  0.00000000000E+00  0.50186580981E+02  0.11279467950E+03  0.10101458713E+03 0.  0.
        -11    1    3    3    0    0  0.12781027822E+02  0.17214536073E+02  0.76156938356E+02  0.79117470789E+02  0.00000000000E+00 0.  1.
         11    1    3    3    0    0 -0.12781027822E+02 -0.17214536073E+02 -0.25970357375E+02  0.33677208711E+02  0.00000000000E+00 0. -1.
<mgrwt>
<rscale>  0 0.10101459E+03</rscale>
<asrwt>0</asrwt>
<pdfrwt beam="2">  1        1 0.48160076E-02 0.10101459E+03</pdfrwt>
<pdfrwt beam="1">  1       -1 0.12537020E-01 0.10101459E+03</pdfrwt>
<totfact> 0.64880411E+04</totfact>
</mgrwt>
</event>
<event>
 5    1  0.5681061E+000  0.9049095E+02  0.7546771E-02  0.1301667E+00
         -2   -1    0    0    0  501 -0.00000000000E+00  0.00000000000E+00  0.99869110417E+02  0.99869110417E+02  0.00000000000E+00 0.  1.
          2   -1    0    0  501    0  0.00000000000E+00 -0.00000000000E+00 -0.20498358500E+02  0.20498358500E+02  0.00000000000E+00 0. -1.
         23    2    1    2    0    0  0.00000000000E+00  0.00000000000E+00  0.79370751917E+02  0.12036746892E+03  0.90490946032E+02 0.  0.
        -11    1    3    3    0    0 -0.38433514045E+01  0.32131223107E+02  0.81748024212E+02  0.87919999494E+02  0.00000000000E+00 0.  1.
         11    1    3    3    0    0  0.38433514045E+01 -0.32131223107E+02 -0.23772722957E+01  0.32447469423E+02  0.00000000000E+00 0. -1.
<mgrwt>
<rscale>  0 0.90490946E+02</rscale>
<asrwt>0</asrwt>
<pdfrwt beam="2">  1        2 0.31535937E-02 0.90490946E+02</pdfrwt>
<pdfrwt beam="1">  1       -2 0.15364478E-01 0.90490946E+02</pdfrwt>
<totfact> 0.81350784E+04</totfact>
</mgrwt>
</event>
<event>
 5    1  0.5681061E+000  0.8919433E+02  0.7546771E-02  0.1304815E+00
         -1   -1    0    0    0  501 -0.00000000000E+00  0.00000000000E+00  0.33528385530E+02  0.33528385530E+02  0.00000000000E+00 0.  1.
          1   -1    0    0  501    0  0.00000000000E+00 -0.00000000000E+00 -0.59320101638E+02  0.59320101638E+02  0.00000000000E+00 0. -1.
         23    2    1    2    0    0  0.00000000000E+00  0.00000000000E+00 -0.25791716109E+02  0.92848487168E+02  0.89194332497E+02 0.  0.
        -11    1    3    3    0    0  0.81081900319E+01  0.33954054322E+02  0.15995221367E+02  0.38398797599E+02  0.00000000000E+00 0.  1.
         11    1    3    3    0    0 -0.81081900319E+01 -0.33954054322E+02 -0.41786937476E+02  0.54449689568E+02  0.00000000000E+00 0. -1.
<mgrwt>
<rscale>  0 0.89194332E+02</rscale>
<asrwt>0</asrwt>
<pdfrwt beam="2">  1        1 0.91261695E-02 0.89194332E+02</pdfrwt>
<pdfrwt beam="1">  1       -1 0.51582132E-02 0.89194332E+02</pdfrwt>
<totfact> 0.10224148E+05</totfact>
</mgrwt>
</event>
<event>
 5    1  0.5681061E+000  0.1001202E+03  0.7546771E-02  0.1280043E+00
         -3   -1    0    0    0  501 -0.00000000000E+00  0.00000000000E+00  0.30244745868E+02  0.30244745868E+02  0.00000000000E+00 0.  1.
          3   -1    0    0  501    0  0.00000000000E+00 -0.00000000000E+00 -0.82857799574E+02  0.82857799574E+02  0.00000000000E+00 0. -1.
         23    2    1    2    0    0  0.00000000000E+00  0.00000000000E+00 -0.52613053706E+02  0.11310254544E+03  0.10012018960E+03 0.  0.
        -11    1    3    3    0    0 -0.33516299774E+02 -0.24686127763E+02  0.51068863820E+01  0.41938377925E+02  0.00000000000E+00 0.  1.
         11    1    3    3    0    0  0.33516299774E+02  0.24686127763E+02 -0.57719940088E+02  0.71164167516E+02  0.00000000000E+00 0. -1.
<mgrwt>
<rscale>  0 0.10012019E+03</rscale>
<asrwt>0</asrwt>
<pdfrwt beam="2">  1        3 0.12747354E-01 0.10012019E+03</pdfrwt>
<pdfrwt beam="1">  1       -3 0.46530379E-02 0.10012019E+03</pdfrwt>
<totfact> 0.26108034E+04</totfact>
</mgrwt>
</event>
<event>
 5    1  0.5681061E+000  0.9163279E+02  0.7546771E-02  0.1298945E+00
          2   -1    0    0  501    0  0.00000000000E+00  0.00000000000E+00  0.28332663575E+02  0.28332663575E+02  0.00000000000E+00 0. -1.
         -2   -1    0    0    0  501 -0.00000000000E+00 -0.00000000000E+00 -0.74089123233E+02  0.74089123233E+02  0.00000000000E+00 0.  1.
         23    2    1    2    0    0  0.00000000000E+00  0.00000000000E+00 -0.45756459658E+02  0.10242178681E+03  0.91632793325E+02 0.  0.
        -11    1    3    3    0    0 -0.30013166468E+00  0.23241829254E+02 -0.67009487253E+02  0.70926328595E+02  0.00000000000E+00 0.  1.
         11    1    3    3    0    0  0.30013166468E+00 -0.23241829254E+02  0.21253027595E+02  0.31495458213E+02  0.00000000000E+00 0. -1.
<mgrwt>
<rscale>  0 0.91632793E+02</rscale>
<asrwt>0</asrwt>
<pdfrwt beam="1">  1        2 0.43588713E-02 0.91632793E+02</pdfrwt>
<pdfrwt beam="2">  1       -2 0.11398327E-01 0.91632793E+02</pdfrwt>
<totfact> 0.85828931E+04</totfact>
</mgrwt>
</event>
<event>
 5    1  0.5681061E+000  0.9115845E+02  0.7546771E-02  0.1300070E+00
         -1   -1    0    0    0  501 -0.00000000000E+00  0.00000000000E+00  0.43189163504E+03  0.43189163504E+03  0.00000000000E+00 0. -1.
          1   -1    0    0  501    0  0.00000000000E+00 -0.00000000000E+00 -0.48101554138E+01  0.48101554138E+01  0.00000000000E+00 0.  1.
         23    2    1    2    0    0  0.00000000000E+00  0.00000000000E+00  0.42708147963E+03  0.43670179046E+03  0.91158452960E+02 0.  0.
        -11    1    3    3    0    0  0.21305914256E+02  0.39036417058E+02  0.16571116710E+03  0.17157498285E+03  0.00000000000E+00 0. -1.
         11    1    3    3    0    0 -0.21305914256E+02 -0.39036417058E+02  0.26137031253E+03  0.26512680761E+03  0.00000000000E+00 0.  1.
<mgrwt>
<rscale>  0 0.91158453E+02</rscale>
<asrwt>0</asrwt>
<pdfrwt beam="2">  1        1 0.74002425E-03 0.91158453E+02</pdfrwt>
<pdfrwt beam="1">  1       -1 0.66444837E-01 0.91158453E+02</pdfrwt>
<totfact> 0.51222615E+04</totfact>
</mgrwt>
</event>
<event>
 5    1  0.5681061E+000  0.9875716E+02  0.7546771E-02  0.1282931E+00
          3   -1    0    0  501    0  0.00000000000E+00  0.00000000000E+00  0.12762047931E+03  0.12762047931E+03  0.00000000000E+00 0. -1.
         -3   -1    0    0    0  501 -0.00000000000E+00 -0.00000000000E+00 -0.19105430985E+02  0.19105430985E+02  0.00000000000E+00 0.  1.
         23    2    1    2    0    0  0.00000000000E+00  0.00000000000E+00  0.10851504832E+03  0.14672591029E+03  0.98757161962E+02 0.  0.
        -11    1    3    3    0    0 -0.27851373712E+02  0.34095427780E+02  0.21034157060E+02  0.48791730614E+02  0.00000000000E+00 0.  1.
         11    1    3    3    0    0  0.27851373712E+02 -0.34095427780E+02  0.87480891261E+02  0.97934179677E+02  0.00000000000E+00 0. -1.
<mgrwt>
<rscale>  0 0.98757162E+02</rscale>
<asrwt>0</asrwt>
<pdfrwt beam="1">  1        3 0.19633919E-01 0.98757162E+02</pdfrwt>
<pdfrwt beam="2">  1       -3 0.29392972E-02 0.98757162E+02</pdfrwt>
<totfact> 0.25346903E+04</totfact>
</mgrwt>
</event>
<event>
 5    1  0.5681061E+000  0.9271106E+02  0.7546771E-02  0.1296416E+00
          1   -1    0    0  501    0  0.00000000000E+00  0.00000000000E+00  0.55787052363E+02  0.55787052363E+02  0.00000000000E+00 0. -1.
         -1   -1    0    0    0  501 -0.00000000000E+00 -0.00000000000E+00 -0.38518531033E+02  0.38518531033E+02  0.00000000000E+00 0.  1.
         23    2    1    2    0    0  0.00000000000E+00  0.00000000000E+00  0.17268521330E+02  0.94305583397E+02  0.92711063153E+02 0.  0.
        -11    1    3    3    0    0  0.50306632541E+01 -0.34909642607E+02  0.39232246646E+02  0.52755662224E+02  0.00000000000E+00 0. -1.
         11    1    3    3    0    0 -0.50306632541E+01  0.34909642607E+02 -0.21963725316E+02  0.41549921173E+02  0.00000000000E+00 0.  1.
<mgrwt>
<rscale>  0 0.92711063E+02</rscale>
<asrwt>0</asrwt>
<pdfrwt beam="1">  1        1 0.85826234E-02 0.92711063E+02</pdfrwt>
<pdfrwt beam="2">  1       -1 0.59259279E-02 0.92711063E+02</pdfrwt>
<totfact> 0.90985487E+04</totfact>
</mgrwt>
</event>
<event>
 5    1  0.5681061E+000  0.8981755E+02  0.7546771E-02  0.1303294E+00
          1   -1    0    0  501    0  0.00000000000E+00  0.00000000000E+00  0.44942103021E+02  0.44942103021E+02  0.00000000000E+00 0. -1.
         -1   -1    0    0    0  501 -0.00000000000E+00 -0.00000000000E+00 -0.44875476095E+02  0.44875476095E+02  0.00000000000E+00 0.  1.
         23    2    1    2    0    0  0.00000000000E+00  0.00000000000E+00  0.66626925437E-01  0.89817579116E+02  0.89817554404E+02 0.  0.
        -11    1    3    3    0    0 -0.17415692577E+02  0.22420048132E+02  0.34830353996E+02  0.44934602098E+02  0.00000000000E+00 0. -1.
         11    1    3    3    0    0  0.17415692577E+02 -0.22420048132E+02 -0.34763727071E+02  0.44882977018E+02  0.00000000000E+00 0.  1.
<mgrwt>
<rscale>  0 0.89817554E+02</rscale>
<asrwt>0</asrwt>
<pdfrwt beam="1">  1        1 0.69141697E-02 0.89817554E+02</pdfrwt>
<pdfrwt beam="2">  1       -1 0.69039194E-02 0.89817554E+02</pdfrwt>
<totfact> 0.96241933E+04</totfact>
</mgrwt>
</event>
<event>
 5    1  0.5681061E+000  0.7798227E+02  0.7546771E-02  0.1334877E+00
         -1   -1    0    0    0  501 -0.00000000000E+00  0.00000000000E+00  0.36960476941E+03  0.36960476941E+03  0.00000000000E+00 0.  1.
          1   -1    0    0  501    0  0.00000000000E+00 -0.00000000000E+00 -0.41133360422E+01  0.41133360422E+01  0.00000000000E+00 0. -1.
         23    2    1    2    0    0  0.00000000000E+00  0.00000000000E+00  0.36549143336E+03  0.37371810545E+03  0.77982270277E+02 0.  0.
        -11    1    3    3    0    0  0.94387119593E+01  0.37220498058E+02  0.15029410911E+03  0.15512180373E+03  0.00000000000E+00 0. -1.
         11    1    3    3    0    0 -0.94387119593E+01 -0.37220498058E+02  0.21519732425E+03  0.21859630172E+03  0.00000000000E+00 0.  1.
<mgrwt>
<rscale>  0 0.77982270E+02</rscale>
<asrwt>0</asrwt>
<pdfrwt beam="2">  1        1 0.63282122E-03 0.77982270E+02</pdfrwt>
<pdfrwt beam="1">  1       -1 0.56862246E-01 0.77982270E+02</pdfrwt>
<totfact> 0.83194356E+04</totfact>
</mgrwt>
</event>
<event>
 5    1  0.5681061E+000  0.9019368E+02  0.7546771E-02  0.1302383E+00
          4   -1    0    0  501    0  0.00000000000E+00  0.00000000000E+00  0.32143376183E+02  0.32143376183E+02  0.00000000000E+00 0. -1.
         -4   -1    0    0    0  501 -0.00000000000E+00 -0.00000000000E+00 -0.63270427466E+02  0.63270427466E+02  0.00000000000E+00 0.  1.
         23    2    1    2    0    0  0.00000000000E+00  0.00000000000E+00 -0.31127051283E+02  0.95413803649E+02  0.90193683843E+02 0.  0.
        -11    1    3    3    0    0  0.42095480965E+02  0.63498107038E+01  0.17629931524E+00  0.42572064727E+02  0.00000000000E+00 0.  1.
         11    1    3    3    0    0 -0.42095480965E+02 -0.63498107038E+01 -0.31303350598E+02  0.52841738922E+02  0.00000000000E+00 0. -1.
<mgrwt>
<rscale>  0 0.90193684E+02</rscale>
<asrwt>0</asrwt>
<pdfrwt beam="1">  1        4 0.49451349E-02 0.90193684E+02</pdfrwt>
<pdfrwt beam="2">  1       -4 0.97339118E-02 0.90193684E+02</pdfrwt>
<totfact> 0.27541730E+04</totfact>
</mgrwt>
</event>
<event>
 5    1  0.5681061E+000  0.9217281E+02  0.7546771E-02  0.1297674E+00
         -2   -1    0    0    0  501 -0.00000000000E+00  0.00000000000E+00  0.86886637495E+02  0.86886637495E+02  0.00000000000E+00 0. -1.
          2   -1    0    0  501    0  0.00000000000E+00 -0.00000000000E+00 -0.24445150346E+02  0.24445150346E+02  0.00000000000E+00 0.  1.
         23    2    1    2    0    0  0.00000000000E+00  0.00000000000E+00  0.62441487150E+02  0.11133178784E+03  0.92172814139E+02 0.  0.
        -11    1    3    3    0    0  0.97058433935E+01 -0.38948163226E+02  0.38688217313E+01  0.40325309623E+02  0.00000000000E+00 0.  1.
         11    1    3    3    0    0 -0.97058433935E+01  0.38948163226E+02  0.58572665418E+02  0.71006478217E+02  0.00000000000E+00 0. -1.
<mgrwt>
<rscale>  0 0.92172814E+02</rscale>
<asrwt>0</asrwt>
<pdfrwt beam="2">  1        2 0.37607924E-02 0.92172814E+02</pdfrwt>
<pdfrwt beam="1">  1       -2 0.13367175E-01 0.92172814E+02</pdfrwt>
<totfact> 0.80933056E+04</totfact>
</mgrwt>
</event>
<event>
 5    1  0.5681061E+000  0.9311011E+02  0.7546771E-02  0.1295490E+00
         -2   -1    0    0    0  501 -0.00000000000E+00  0.00000000000E+00  0.80773950242E+01  0.80773950242E+01  0.00000000000E+00 0.  1.
          2   -1    0    0  501    0  0.00000000000E+00 -0.00000000000E+00 -0.26832576543E+03  0.26832576543E+03  0.00000000000E+00 0. -1.
         23    2    1    2    0    0  0.00000000000E+00  0.00000000000E+00 -0.26024837041E+03  0.27640316046E+03  0.93110111214E+02 0.  0.
        -11    1    3    3    0    0  0.41214662410E+02  0.21539034114E+02 -0.12362390528E+03  0.13208121875E+03  0.00000000000E+00 0.  1.
         11    1    3    3    0    0 -0.41214662410E+02 -0.21539034114E+02 -0.13662446513E+03  0.14432194171E+03  0.00000000000E+00 0. -1.
<mgrwt>
<rscale>  0 0.93110111E+02</rscale>
<asrwt>0</asrwt>
<pdfrwt beam="2">  1        2 0.41280891E-01 0.93110111E+02</pdfrwt>
<pdfrwt beam="1">  1       -2 0.12426760E-02 0.93110111E+02</pdfrwt>
<totfact> 0.16291624E+05</totfact>
</mgrwt>
</event>
<event>
 5    1  0.5681061E+000  0.9009868E+02  0.7546771E-02  0.1302613E+00
          2   -1    0    0  501    0  0.00000000000E+00  0.00000000000E+00  0.32497935579E+03  0.32497935579E+03  0.00000000000E+00 0. -1.
         -2   -1    0    0    0  501 -0.00000000000E+00 -0.00000000000E+00 -0.62448371715E+01  0.62448371715E+01  0.00000000000E+00 0.  1.
         23    2    1    2    0    0  0.00000000000E+00  0.00000000000E+00  0.31873451862E+03  0.33122419296E+03  0.90098682810E+02 0.  0.
        -11    1    3    3    0    0  0.93361463487E+01  0.40410347965E+02  0.22401924242E+03  0.22782620750E+03  0.00000000000E+00 0. -1.
         11    1    3    3    0    0 -0.93361463487E+01 -0.40410347965E+02  0.94715276201E+02  0.10339798546E+03  0.00000000000E+00 0.  1.
<mgrwt>
<rscale>  0 0.90098683E+02</rscale>
<asrwt>0</asrwt>
<pdfrwt beam="1">  1        2 0.49996811E-01 0.90098683E+02</pdfrwt>
<pdfrwt beam="2">  1       -2 0.96074444E-03 0.90098683E+02</pdfrwt>
<totfact> 0.19102750E+05</totfact>
</mgrwt>
</event>
<event>
 5    1  0.5681061E+000  0.9397870E+02  0.7546771E-02  0.1293493E+00
         -3   -1    0    0    0  501 -0.00000000000E+00  0.00000000000E+00  0.12783031600E+03  0.12783031600E+03  0.00000000000E+00 0. -1.
          3   -1    0    0  501    0  0.00000000000E+00 -0.00000000000E+00 -0.17272889810E+02  0.17272889810E+02  0.00000000000E+00 0.  1.
         23    2    1    2    0    0  0.00000000000E+00  0.00000000000E+00  0.11055742619E+03  0.14510320581E+03  0.93978698919E+02 0.  0.
        -11    1    3    3    0    0 -0.65446411367E+01  0.30910538725E+02  0.15770966154E+01  0.31635122342E+02  0.00000000000E+00 0.  1.
         11    1    3    3    0    0  0.65446411367E+01 -0.30910538725E+02  0.10898032957E+03  0.11346808346E+03  0.00000000000E+00 0. -1.
<mgrwt>
<rscale>  0 0.93978699E+02</rscale>
<asrwt>0</asrwt>
<pdfrwt beam="2">  1        3 0.26573678E-02 0.93978699E+02</pdfrwt>
<pdfrwt beam="1">  1       -3 0.19666202E-01 0.93978699E+02</pdfrwt>
<totfact> 0.29114187E+04</totfact>
</mgrwt>
</event>
<event>
 5    1  0.5681061E+000  0.9231179E+02  0.7546771E-02  0.1297348E+00
         -1   -1    0    0    0  501 -0.00000000000E+00  0.00000000000E+00  0.16763452873E+02  0.16763452873E+02  0.00000000000E+00 0.  1.
          1   -1    0    0  501    0  0.00000000000E+00 -0.00000000000E+00 -0.12708401127E+03  0.12708401127E+03  0.00000000000E+00 0. -1.
         23    2    1    2    0    0  0.00000000000E+00  0.00000000000E+00 -0.11032055840E+03  0.14384746414E+03  0.92311794130E+02 0.  0.
        -11    1    3    3    0    0 -0.45401946115E+02 -0.44813356021E+01 -0.66062410370E+02  0.80284874937E+02  0.00000000000E+00 0. -1.
         11    1    3    3    0    0  0.45401946115E+02  0.44813356021E+01 -0.44258148029E+02  0.63562589208E+02  0.00000000000E+00 0.  1.
<mgrwt>
<rscale>  0 0.92311794E+02</rscale>
<asrwt>0</asrwt>
<pdfrwt beam="2">  1        1 0.19551386E-01 0.92311794E+02</pdfrwt>
<pdfrwt beam="1">  1       -1 0.25789928E-02 0.92311794E+02</pdfrwt>
<totfact> 0.10523687E+05</totfact>
</mgrwt>
</event>
<event>
 5    1  0.5681061E+000  0.9169877E+02  0.7546771E-02  0.1298789E+00
         -3   -1    0    0    0  501 -0.00000000000E+00  0.00000000000E+00  0.57116410856E+02  0.57116410856E+02  0.00000000000E+00 0.  1.
          3   -1    0    0  501    0  0.00000000000E+00 -0.00000000000E+00 -0.36804937512E+02  0.36804937512E+02  0.00000000000E+00 0. -1.
         23    2    1    2    0    0  0.00000000000E+00  0.00000000000E+00  0.20311473344E+02  0.93921348368E+02  0.91698766240E+02 0.  0.
        -11    1    3    3    0    0  0.14655920743E+02 -0.22016925256E+02  0.48515118691E+02  0.55256291516E+02  0.00000000000E+00 0.  1.
         11    1    3    3    0    0 -0.14655920743E+02  0.22016925256E+02 -0.28203645347E+02  0.38665056852E+02  0.00000000000E+00 0. -1.
<mgrwt>
<rscale>  0 0.91698766E+02</rscale>
<asrwt>0</asrwt>
<pdfrwt beam="2">  1        3 0.56622980E-02 0.91698766E+02</pdfrwt>
<pdfrwt beam="1">  1       -3 0.87871402E-02 0.91698766E+02</pdfrwt>
<totfact> 0.34586577E+04</totfact>
</mgrwt>
</event>
<event>
 5    1  0.5681061E+000  0.9117322E+02  0.7546771E-02  0.1300035E+00
          1   -1    0    0  501    0  0.00000000000E+00  0.00000000000E+00  0.45107378381E+03  0.45107378381E+03  0.00000000000E+00 0. -1.
         -1   -1    0    0    0  501 -0.00000000000E+00 -0.00000000000E+00 -0.46070932050E+01  0.46070932050E+01  0.00000000000E+00 0.  1.
         23    2    1    2    0    0  0.00000000000E+00  0.00000000000E+00  0.44646669061E+03  0.45568087702E+03  0.91173218970E+02 0.  0.
        -11    1    3    3    0    0  0.60000410714E+01  0.44985073887E+02  0.20174696366E+03  0.20678852655E+03  0.00000000000E+00 0.  1.
         11    1    3    3    0    0 -0.60000410714E+01 -0.44985073887E+02  0.24471972694E+03  0.24889235047E+03  0.00000000000E+00 0. -1.
<mgrwt>
<rscale>  0 0.91173219E+02</rscale>
<asrwt>0</asrwt>
<pdfrwt beam="1">  1        1 0.69395932E-01 0.91173219E+02</pdfrwt>
<pdfrwt beam="2">  1       -1 0.70878393E-03 0.91173219E+02</pdfrwt>
<totfact> 0.13741857E+05</totfact>
</mgrwt>
</event>
<event>
 5    1  0.5681061E+000  0.8407780E+02  0.7546771E-02  0.1317862E+00
         -3   -1    0    0    0  501 -0.00000000000E+00  0.00000000000E+00  0.36779623752E+02  0.36779623752E+02  0.00000000000E+00 0.  1.
          3   -1    0    0  501    0  0.00000000000E+00 -0.00000000000E+00 -0.48050227549E+02  0.48050227549E+02  0.00000000000E+00 0. -1.
         23    2    1    2    0    0  0.00000000000E+00  0.00000000000E+00 -0.11270603797E+02  0.84829851301E+02  0.84077804216E+02 0.  0.
        -11    1    3    3    0    0 -0.27665705821E+02  0.22489630233E+02  0.16837103970E+02  0.39429212732E+02  0.00000000000E+00 0.  1.
         11    1    3    3    0    0  0.27665705821E+02 -0.22489630233E+02 -0.28107707767E+02  0.45400638569E+02  0.00000000000E+00 0. -1.
<mgrwt>
<rscale>  0 0.84077804E+02</rscale>
<asrwt>0</asrwt>
<pdfrwt beam="2">  1        3 0.73923427E-02 0.84077804E+02</pdfrwt>
<pdfrwt beam="1">  1       -3 0.56584037E-02 0.84077804E+02</pdfrwt>
<totfact> 0.44637021E+04</totfact>
</mgrwt>
</event>
<event>
 5    1  0.5681061E+000  0.8957695E+02  0.7546771E-02  0.1303879E+00
          2   -1    0    0  501    0  0.00000000000E+00  0.00000000000E+00  0.20686290764E+03  0.20686290764E+03  0.00000000000E+00 0.  1.
         -2   -1    0    0    0  501 -0.00000000000E+00 -0.00000000000E+00 -0.96972806224E+01  0.96972806224E+01  0.00000000000E+00 0. -1.
         23    2    1    2    0    0  0.00000000000E+00  0.00000000000E+00  0.19716562702E+03  0.21656018826E+03  0.89576953861E+02 0.  0.
        -11    1    3    3    0    0  0.21611770106E+02 -0.37437343639E+02  0.70246002228E+02  0.82481053187E+02  0.00000000000E+00 0.  1.
         11    1    3    3    0    0 -0.21611770106E+02  0.37437343639E+02  0.12691962479E+03  0.13407913507E+03  0.00000000000E+00 0. -1.
<mgrwt>
<rscale>  0 0.89576954E+02</rscale>
<asrwt>0</asrwt>
<pdfrwt beam="1">  1        2 0.31825059E-01 0.89576954E+02</pdfrwt>
<pdfrwt beam="2">  1       -2 0.14918895E-02 0.89576954E+02</pdfrwt>
<totfact> 0.16420725E+05</totfact>
</mgrwt>
</event>
<event>
 5    1  0.5681061E+000  0.9199297E+02  0.7546771E-02  0.1298096E+00
          2   -1    0    0  501    0  0.00000000000E+00  0.00000000000E+00  0.96594158948E+02  0.96594158948E+02  0.00000000000E+00 0. -1.
         -2   -1    0    0    0  501 -0.00000000000E+00 -0.00000000000E+00 -0.21902736963E+02  0.21902736963E+02  0.00000000000E+00 0.  1.
         23    2    1    2    0    0  0.00000000000E+00  0.00000000000E+00  0.74691421985E+02  0.11849689591E+03  0.91992966157E+02 0.  0.
        -11    1    3    3    0    0  0.49967689299E+01 -0.21558838048E+02 -0.14594372160E+02  0.26509373747E+02  0.00000000000E+00 0.  1.
         11    1    3    3    0    0 -0.49967689299E+01  0.21558838048E+02  0.89285794145E+02  0.91987522164E+02  0.00000000000E+00 0. -1.
<mgrwt>
<rscale>  0 0.91992966E+02</rscale>
<asrwt>0</asrwt>
<pdfrwt beam="1">  1        2 0.14860640E-01 0.91992966E+02</pdfrwt>
<pdfrwt beam="2">  1       -2 0.33696519E-02 0.91992966E+02</pdfrwt>
<totfact> 0.11844420E+05</totfact>
</mgrwt>
</event>
<event>
 5    1  0.5681061E+000  0.8999184E+02  0.7546771E-02  0.1302871E+00
          3   -1    0    0  501    0  0.00000000000E+00  0.00000000000E+00  0.15889389679E+03  0.15889389679E+03  0.00000000000E+00 0. -1.
         -3   -1    0    0    0  501 -0.00000000000E+00 -0.00000000000E+00 -0.12742041480E+02  0.12742041480E+02  0.00000000000E+00 0.  1.
         23    2    1    2    0    0  0.00000000000E+00  0.00000000000E+00  0.14615185531E+03  0.17163593827E+03  0.89991835714E+02 0.  0.
        -11    1    3    3    0    0 -0.32559102977E+02  0.11298848690E+02  0.17901858620E+02  0.38836010486E+02  0.00000000000E+00 0.  1.
         11    1    3    3    0    0  0.32559102977E+02 -0.11298848690E+02  0.12824999669E+03  0.13279992779E+03  0.00000000000E+00 0. -1.
<mgrwt>
<rscale>  0 0.89991836E+02</rscale>
<asrwt>0</asrwt>
<pdfrwt beam="1">  1        3 0.24445213E-01 0.89991836E+02</pdfrwt>
<pdfrwt beam="2">  1       -3 0.19603142E-02 0.89991836E+02</pdfrwt>
<totfact> 0.31112413E+04</totfact>
</mgrwt>
</event>
<event>
 5    1  0.5681061E+000  0.8876559E+02  0.7546771E-02  0.1305869E+00
          1   -1    0    0  501    0  0.00000000000E+00  0.00000000000E+00  0.13130597873E+02  0.13130597873E+02  0.00000000000E+00 0. -1.
         -1   -1    0    0    0  501 -0.00000000000E+00 -0.00000000000E+00 -0.15001849904E+03  0.15001849904E+03  0.00000000000E+00 0.  1.
         23    2    1    2    0    0  0.00000000000E+00  0.00000000000E+00 -0.13688790116E+03  0.16314909691E+03  0.88765592082E+02 0.  0.
        -11    1    3    3    0    0 -0.23895585073E+02  0.28645322168E+02 -0.11264257715E+03  0.11865876982E+03  0.00000000000E+00 0. -1.
         11    1    3    3    0    0  0.23895585073E+02 -0.28645322168E+02 -0.24245324012E+02  0.44490327089E+02  0.00000000000E+00 0.  1.
<mgrwt>
<rscale>  0 0.88765592E+02</rscale>
<asrwt>0</asrwt>
<pdfrwt beam="1">  1        1 0.20200920E-02 0.88765592E+02</pdfrwt>
<pdfrwt beam="2">  1       -1 0.23079769E-01 0.88765592E+02</pdfrwt>
<totfact> 0.80165922E+04</totfact>
</mgrwt>
</event>
<event>
 5    1  0.5681061E+000  0.9144551E+02  0.7546771E-02  0.1299388E+00
          2   -1    0    0  501    0  0.00000000000E+00  0.00000000000E+00  0.66207466721E+02  0.66207466721E+02  0.00000000000E+00 0. -1.
         -2   -1    0    0    0  501 -0.00000000000E+00 -0.00000000000E+00 -0.31576047361E+02  0.31576047361E+02  0.00000000000E+00 0.  1.
         23    2    1    2    0    0  0.00000000000E+00  0.00000000000E+00  0.34631419361E+02  0.97783514082E+02  0.91445505189E+02 0.  0.
        -11    1    3    3    0    0  0.62039512880E+00 -0.16284669974E+02  0.62996550116E+02  0.65070275033E+02  0.00000000000E+00 0. -1.
         11    1    3    3    0    0 -0.62039512880E+00  0.16284669974E+02 -0.28365130756E+02  0.32713239049E+02  0.00000000000E+00 0.  1.
<mgrwt>
<rscale>  0 0.91445505E+02</rscale>
<asrwt>0</asrwt>
<pdfrwt beam="1">  1        2 0.10185764E-01 0.91445505E+02</pdfrwt>
<pdfrwt beam="2">  1       -2 0.48578535E-02 0.91445505E+02</pdfrwt>
<totfact> 0.10803939E+05</totfact>
</mgrwt>
</event>
<event>
 5    1  0.5681061E+000  0.8971995E+02  0.7546771E-02  0.1303531E+00
         -3   -1    0    0    0  501 -0.00000000000E+00  0.00000000000E+00  0.45338047049E+02  0.45338047049E+02  0.00000000000E+00 0.  1.
          3   -1    0    0  501    0  0.00000000000E+00 -0.00000000000E+00 -0.44386947187E+02  0.44386947187E+02  0.00000000000E+00 0. -1.
         23    2    1    2    0    0  0.00000000000E+00  0.00000000000E+00  0.95109986140E+00  0.89724994236E+02  0.89719953186E+02 0.  0.
        -11    1    3    3    0    0 -0.29421490225E+02 -0.44098602970E+01  0.34053418116E+02  0.45218428105E+02  0.00000000000E+00 0.  1.
         11    1    3    3    0    0  0.29421490225E+02  0.44098602970E+01 -0.33102318255E+02  0.44506566131E+02  0.00000000000E+00 0. -1.
<mgrwt>
<rscale>  0 0.89719953E+02</rscale>
<asrwt>0</asrwt>
<pdfrwt beam="2">  1        3 0.68287611E-02 0.89719953E+02</pdfrwt>
<pdfrwt beam="1">  1       -3 0.69750842E-02 0.89719953E+02</pdfrwt>
<totfact> 0.37037755E+04</totfact>
</mgrwt>
</event>
<event>
 5    1  0.5681061E+000  0.9007111E+02  0.7546771E-02  0.1302680E+00
          2   -1    0    0  501    0  0.00000000000E+00  0.00000000000E+00  0.64283320757E+02  0.64283320757E+02  0.00000000000E+00 0.  1.
         -2   -1    0    0    0  501 -0.00000000000E+00 -0.00000000000E+00 -0.31550969814E+02  0.31550969814E+02  0.00000000000E+00 0. -1.
         23    2    1    2    0    0  0.00000000000E+00  0.00000000000E+00  0.32732350943E+02  0.95834290572E+02  0.90071107749E+02 0.  0.
        -11    1    3    3    0    0 -0.17689805057E+02  0.23571093615E+02  0.52599122662E+02  0.60292564732E+02  0.00000000000E+00 0.  1.
         11    1    3    3    0    0  0.17689805057E+02 -0.23571093615E+02 -0.19866771719E+02  0.35541725840E+02  0.00000000000E+00 0. -1.
<mgrwt>
<rscale>  0 0.90071108E+02</rscale>
<asrwt>0</asrwt>
<pdfrwt beam="1">  1        2 0.98897416E-02 0.90071108E+02</pdfrwt>
<pdfrwt beam="2">  1       -2 0.48539954E-02 0.90071108E+02</pdfrwt>
<totfact> 0.11182575E+05</totfact>
</mgrwt>
</event>
<event>
 5    1  0.5681061E+000  0.9181023E+02  0.7546771E-02  0.1298526E+00
         -2   -1    0    0    0  501 -0.00000000000E+00  0.00000000000E+00  0.92186362071E+01  0.92186362071E+01  0.00000000000E+00 0.  1.
          2   -1    0    0  501    0  0.00000000000E+00 -0.00000000000E+00 -0.22858907793E+03  0.22858907793E+03  0.00000000000E+00 0. -1.
         23    2    1    2    0    0  0.00000000000E+00  0.00000000000E+00 -0.21937044172E+03  0.23780771413E+03  0.91810229284E+02 0.  0.
        -11    1    3    3    0    0 -0.31875026551E+02  0.10058701626E+02 -0.19118774385E+03  0.19408747562E+03  0.00000000000E+00 0. -1.
         11    1    3    3    0    0  0.31875026551E+02 -0.10058701626E+02 -0.28182697868E+02  0.43720238507E+02  0.00000000000E+00 0.  1.
<mgrwt>
<rscale>  0 0.91810229E+02</rscale>
<asrwt>0</asrwt>
<pdfrwt beam="2">  1        2 0.35167550E-01 0.91810229E+02</pdfrwt>
<pdfrwt beam="1">  1       -2 0.14182518E-02 0.91810229E+02</pdfrwt>
<totfact> 0.15941373E+05</totfact>
</mgrwt>
</event>
<event>
 5    1  0.5681061E+000  0.9110181E+02  0.7546771E-02  0.1300205E+00
         -1   -1    0    0    0  501 -0.00000000000E+00  0.00000000000E+00  0.55137849266E+01  0.55137849266E+01  0.00000000000E+00 0.  1.
          1   -1    0    0  501    0  0.00000000000E+00 -0.00000000000E+00 -0.37630867910E+03  0.37630867910E+03  0.00000000000E+00 0. -1.
         23    2    1    2    0    0  0.00000000000E+00  0.00000000000E+00 -0.37079489417E+03  0.38182246402E+03  0.91101813869E+02 0.  0.
        -11    1    3    3    0    0 -0.41543954782E+02 -0.18655451786E+02 -0.18950192432E+03  0.19489716617E+03  0.00000000000E+00 0.  1.
         11    1    3    3    0    0  0.41543954782E+02  0.18655451786E+02 -0.18129296985E+03  0.18692529786E+03  0.00000000000E+00 0. -1.
<mgrwt>
<rscale>  0 0.91101814E+02</rscale>
<asrwt>0</asrwt>
<pdfrwt beam="2">  1        1 0.57893644E-01 0.91101814E+02</pdfrwt>
<pdfrwt beam="1">  1       -1 0.84827459E-03 0.91101814E+02</pdfrwt>
<totfact> 0.13380687E+05</totfact>
</mgrwt>
</event>
<event>
 5    1  0.5681061E+000  0.6768395E+02  0.7546771E-02  0.1368151E+00
          1   -1    0    0  501    0  0.00000000000E+00  0.00000000000E+00  0.70655604814E+02  0.70655604814E+02  0.00000000000E+00 0. -1.
         -1   -1    0    0    0  501 -0.00000000000E+00 -0.00000000000E+00 -0.16209319070E+02  0.16209319070E+02  0.00000000000E+00 0.  1.
         23    2    1    2    0    0  0.00000000000E+00  0.00000000000E+00  0.54446285745E+02  0.86864923884E+02  0.67683949131E+02 0.  0.
        -11    1    3    3    0    0 -0.13611898513E+02  0.48588289097E+01 -0.12049171648E+02  0.18816868413E+02  0.00000000000E+00 0.  1.
         11    1    3    3    0    0  0.13611898513E+02 -0.48588289097E+01  0.66495457392E+02  0.68048055470E+02  0.00000000000E+00 0. -1.
<mgrwt>
<rscale>  0 0.67683949E+02</rscale>
<asrwt>0</asrwt>
<pdfrwt beam="1">  1        1 0.10870093E-01 0.67683949E+02</pdfrwt>
<pdfrwt beam="2">  1       -1 0.24937414E-02 0.67683949E+02</pdfrwt>
<totfact> 0.22077475E+05</totfact>
</mgrwt>
</event>
<event>
 5    1  0.5681061E+000  0.9122565E+02  0.7546771E-02  0.1299910E+00
          1   -1    0    0  501    0  0.00000000000E+00  0.00000000000E+00  0.20372232569E+02  0.20372232569E+02  0.00000000000E+00 0.  1.
         -1   -1    0    0    0  501 -0.00000000000E+00 -0.00000000000E+00 -0.10212575513E+03  0.10212575513E+03  0.00000000000E+00 0. -1.
         23    2    1    2    0    0  0.00000000000E+00  0.00000000000E+00 -0.81753522563E+02  0.12249798770E+03  0.91225646281E+02 0.  0.
        -11    1    3    3    0    0 -0.59533755945E+01 -0.28723469261E+02  0.60262460775E+01  0.29946552542E+02  0.00000000000E+00 0.  1.
         11    1    3    3    0    0  0.59533755945E+01  0.28723469261E+02 -0.87779768641E+02  0.92551435159E+02  0.00000000000E+00 0. -1.
<mgrwt>
<rscale>  0 0.91225646E+02</rscale>
<asrwt>0</asrwt>
<pdfrwt beam="1">  1        1 0.31341896E-02 0.91225646E+02</pdfrwt>
<pdfrwt beam="2">  1       -1 0.15711655E-01 0.91225646E+02</pdfrwt>
<totfact> 0.80939504E+04</totfact>
</mgrwt>
</event>
<event>
 5    1  0.5681061E+000  0.9251941E+02  0.7546771E-02  0.1296863E+00
         -2   -1    0    0    0  501 -0.00000000000E+00  0.00000000000E+00  0.22918555613E+02  0.22918555613E+02  0.00000000000E+00 0.  1.
          2   -1    0    0  501    0  0.00000000000E+00 -0.00000000000E+00 -0.93372393407E+02  0.93372393407E+02  0.00000000000E+00 0. -1.
         23    2    1    2    0    0  0.00000000000E+00  0.00000000000E+00 -0.70453837793E+02  0.11629094902E+03  0.92519411824E+02 0.  0.
        -11    1    3    3    0    0 -0.28410011559E+02 -0.36309268144E+02 -0.30445822233E+02  0.55248889594E+02  0.00000000000E+00 0.  1.
         11    1    3    3    0    0  0.28410011559E+02  0.36309268144E+02 -0.40008015560E+02  0.61042059426E+02  0.00000000000E+00 0. -1.
<mgrwt>
<rscale>  0 0.92519412E+02</rscale>
<asrwt>0</asrwt>
<pdfrwt beam="2">  1        2 0.14364984E-01 0.92519412E+02</pdfrwt>
<pdfrwt beam="1">  1       -2 0.35259316E-02 0.92519412E+02</pdfrwt>
<totfact> 0.11540305E+05</totfact>
</mgrwt>
</event>
<event>
 5    1  0.5681061E+000  0.9804570E+02  0.7546771E-02  0.1284460E+00
          2   -1    0    0  501    0  0.00000000000E+00  0.00000000000E+00  0.26524676498E+03  0.26524676498E+03  0.00000000000E+00 0.  1.
         -2   -1    0    0    0  501 -0.00000000000E+00 -0.00000000000E+00 -0.90603919186E+01  0.90603919186E+01  0.00000000000E+00 0. -1.
         23    2    1    2    0    0  0.00000000000E+00  0.00000000000E+00  0.25618637306E+03  0.27430715690E+03  0.98045696405E+02 0.  0.
        -11    1    3    3    0    0 -0.43922401556E+02  0.10988668263E+02  0.75505088513E+02  0.88039460357E+02  0.00000000000E+00 0.  1.
         11    1    3    3    0    0  0.43922401556E+02 -0.10988668263E+02  0.18068128455E+03  0.18626769654E+03  0.00000000000E+00 0. -1.
<mgrwt>
<rscale>  0 0.98045696E+02</rscale>
<asrwt>0</asrwt>
<pdfrwt beam="1">  1        2 0.40807189E-01 0.98045696E+02</pdfrwt>
<pdfrwt beam="2">  1       -2 0.13939066E-02 0.98045696E+02</pdfrwt>
<totfact> 0.14116980E+05</totfact>
</mgrwt>
</event>
<event>
 5    1  0.5681061E+000  0.9944254E+02  0.7546771E-02  0.1281473E+00
          1   -1    0    0  501    0  0.00000000000E+00  0.00000000000E+00  0.37374250413E+03  0.37374250413E+03  0.00000000000E+00 0. -1.
         -1   -1    0    0    0  501 -0.00000000000E+00 -0.00000000000E+00 -0.66147278020E+01  0.66147278020E+01  0.00000000000E+00 0.  1.
         23    2    1    2    0    0  0.00000000000E+00  0.00000000000E+00  0.36712777633E+03  0.38035723193E+03  0.99442544876E+02 0.  0.
        -11    1    3    3    0    0 -0.32689557755E+02 -0.34836636812E+02  0.13084045807E+03  0.13928899425E+03  0.00000000000E+00 0.  1.
         11    1    3    3    0    0  0.32689557755E+02  0.34836636812E+02  0.23628731826E+03  0.24106823768E+03  0.00000000000E+00 0. -1.
<mgrwt>
<rscale>  0 0.99442545E+02</rscale>
<asrwt>0</asrwt>
<pdfrwt beam="1">  1        1 0.57498830E-01 0.99442545E+02</pdfrwt>
<pdfrwt beam="2">  1       -1 0.10176507E-02 0.99442545E+02</pdfrwt>
<totfact> 0.10577748E+05</totfact>
</mgrwt>
</event>
<event>
 5    1  0.5681061E+000  0.6877561E+02  0.7546771E-02  0.1364307E+00
         -1   -1    0    0    0  501 -0.00000000000E+00  0.00000000000E+00  0.20765620117E+03  0.20765620117E+03  0.00000000000E+00 0.  1.
          1   -1    0    0  501    0  0.00000000000E+00 -0.00000000000E+00 -0.56946098604E+01  0.56946098604E+01  0.00000000000E+00 0. -1.
         23    2    1    2    0    0  0.00000000000E+00  0.00000000000E+00  0.20196159131E+03  0.21335081103E+03  0.68775607616E+02 0.  0.
        -11    1    3    3    0    0 -0.32961095820E+02  0.93973837583E+01  0.10963144928E+03  0.11486426481E+03  0.00000000000E+00 0. -1.
         11    1    3    3    0    0  0.32961095820E+02 -0.93973837583E+01  0.92330142033E+02  0.98486546224E+02  0.00000000000E+00 0.  1.
<mgrwt>
<rscale>  0 0.68775608E+02</rscale>
<asrwt>0</asrwt>
<pdfrwt beam="2">  1        1 0.87609399E-03 0.68775608E+02</pdfrwt>
<pdfrwt beam="1">  1       -1 0.31947102E-01 0.68775608E+02</pdfrwt>
<totfact> 0.14216406E+05</totfact>
</mgrwt>
</event>
<event>
 5    1  0.5681061E+000  0.9048251E+02  0.7546771E-02  0.1301687E+00
         -1   -1    0    0    0  501 -0.00000000000E+00  0.00000000000E+00  0.40480449348E+02  0.40480449348E+02  0.00000000000E+00 0.  1.
          1   -1    0    0  501    0  0.00000000000E+00 -0.00000000000E+00 -0.50561963841E+02  0.50561963841E+02  0.00000000000E+00 0. -1.
         23    2    1    2    0    0  0.00000000000E+00  0.00000000000E+00 -0.10081514493E+02  0.91042413189E+02  0.90482506954E+02 0.  0.
        -11    1    3    3    0    0  0.32305800241E+02  0.24919330089E+02 -0.24709951252E+02  0.47699260289E+02  0.00000000000E+00 0.  1.
         11    1    3    3    0    0 -0.32305800241E+02 -0.24919330089E+02  0.14628436759E+02  0.43343152900E+02  0.00000000000E+00 0. -1.
<mgrwt>
<rscale>  0 0.90482507E+02</rscale>
<asrwt>0</asrwt>
<pdfrwt beam="2">  1        1 0.77787636E-02 0.90482507E+02</pdfrwt>
<pdfrwt beam="1">  1       -1 0.62277615E-02 0.90482507E+02</pdfrwt>
<totfact> 0.95946321E+04</totfact>
</mgrwt>
</event>
<event>
 5    1  0.5681061E+000  0.9128788E+02  0.7546771E-02  0.1299763E+00
          1   -1    0    0  501    0  0.00000000000E+00  0.00000000000E+00  0.17617403431E+03  0.17617403431E+03  0.00000000000E+00 0. -1.
         -1   -1    0    0    0  501 -0.00000000000E+00 -0.00000000000E+00 -0.11825630847E+02  0.11825630847E+02  0.00000000000E+00 0.  1.
         23    2    1    2    0    0  0.00000000000E+00  0.00000000000E+00  0.16434840347E+03  0.18799966516E+03  0.91287876404E+02 0.  0.
        -11    1    3    3    0    0  0.43483231388E+02 -0.51428528773E+01  0.10871820158E+03  0.11720446963E+03  0.00000000000E+00 0. -1.
         11    1    3    3    0    0 -0.43483231388E+02  0.51428528773E+01  0.55630201890E+02  0.70795195529E+02  0.00000000000E+00 0.  1.
<mgrwt>
<rscale>  0 0.91287876E+02</rscale>
<asrwt>0</asrwt>
<pdfrwt beam="1">  1        1 0.27103696E-01 0.91287876E+02</pdfrwt>
<pdfrwt beam="2">  1       -1 0.18193279E-02 0.91287876E+02</pdfrwt>
<totfact> 0.11517377E+05</totfact>
</mgrwt>
</event>
<event>
 5    1  0.5681061E+000  0.9106091E+02  0.7546771E-02  0.1300303E+00
         -1   -1    0    0    0  501 -0.00000000000E+00  0.00000000000E+00  0.19164157712E+03  0.19164157712E+03  0.00000000000E+00 0.  1.
          1   -1    0    0  501    0  0.00000000000E+00 -0.00000000000E+00 -0.10817183538E+02  0.10817183538E+02  0.00000000000E+00 0. -1.
         23    2    1    2    0    0  0.00000000000E+00  0.00000000000E+00  0.18082439358E+03  0.20245876066E+03  0.91060905183E+02 0.  0.
        -11    1    3    3    0    0 -0.39746474860E+02 -0.22079538399E+02  0.85088330366E+02  0.96474412381E+02  0.00000000000E+00 0. -1.
         11    1    3    3    0    0  0.39746474860E+02  0.22079538399E+02  0.95736063214E+02  0.10598434828E+03  0.00000000000E+00 0.  1.
<mgrwt>
<rscale>  0 0.91060905E+02</rscale>
<asrwt>0</asrwt>
<pdfrwt beam="2">  1        1 0.16641822E-02 0.91060905E+02</pdfrwt>
<pdfrwt beam="1">  1       -1 0.29483317E-01 0.91060905E+02</pdfrwt>
<totfact> 0.70497891E+04</totfact>
</mgrwt>
</event>
<event>
 5    1  0.5681061E+000  0.9532890E+02  0.7546771E-02  0.1290437E+00
         -1   -1    0    0    0  501 -0.00000000000E+00  0.00000000000E+00  0.10571711850E+02  0.10571711850E+02  0.00000000000E+00 0.  1.
          1   -1    0    0  501    0  0.00000000000E+00 -0.00000000000E+00 -0.21490369881E+03  0.21490369881E+03  0.00000000000E+00 0. -1.
         23    2    1    2    0    0  0.00000000000E+00  0.00000000000E+00 -0.20433198696E+03  0.22547541066E+03  0.95328903892E+02 0.  0.
        -11    1    3    3    0    0  0.41007075885E+02  0.24088723474E+02 -0.10966536316E+03  0.11953383935E+03  0.00000000000E+00 0.  1.
         11    1    3    3    0    0 -0.41007075885E+02 -0.24088723474E+02 -0.94666623796E+02  0.10594157131E+03  0.00000000000E+00 0. -1.
<mgrwt>
<rscale>  0 0.95328904E+02</rscale>
<asrwt>0</asrwt>
<pdfrwt beam="2">  1        1 0.33062107E-01 0.95328904E+02</pdfrwt>
<pdfrwt beam="1">  1       -1 0.16264172E-02 0.95328904E+02</pdfrwt>
<totfact> 0.10653299E+05</totfact>
</mgrwt>
</event>
<event>
 5    1  0.5681061E+000  0.9099798E+02  0.7546771E-02  0.1300453E+00
          1   -1    0    0  501    0  0.00000000000E+00  0.00000000000E+00  0.23913511473E+03  0.23913511473E+03  0.00000000000E+00 0.  1.
         -1   -1    0    0    0  501 -0.00000000000E+00 -0.00000000000E+00 -0.86568550617E+01  0.86568550617E+01  0.00000000000E+00 0. -1.
         23    2    1    2    0    0  0.00000000000E+00  0.00000000000E+00  0.23047825967E+03  0.24779196980E+03  0.90997978624E+02 0.  0.
        -11    1    3    3    0    0  0.24867839781E+02 -0.35223024311E+02  0.15480186983E+03  0.16069439878E+03  0.00000000000E+00 0.  1.
         11    1    3    3    0    0 -0.24867839781E+02  0.35223024311E+02  0.75676389845E+02  0.87097571016E+02  0.00000000000E+00 0. -1.
<mgrwt>
<rscale>  0 0.90997979E+02</rscale>
<asrwt>0</asrwt>
<pdfrwt beam="1">  1        1 0.36790013E-01 0.90997979E+02</pdfrwt>
<pdfrwt beam="2">  1       -1 0.13318240E-02 0.90997979E+02</pdfrwt>
<totfact> 0.12324899E+05</totfact>
</mgrwt>
</event>
<event>
 5    1  0.5681061E+000  0.9121367E+02  0.7546771E-02  0.1299939E+00
          2   -1    0    0  501    0  0.00000000000E+00  0.00000000000E+00  0.13359332569E+02  0.13359332569E+02  0.00000000000E+00 0. -1.
         -2   -1    0    0    0  501 -0.00000000000E+00 -0.00000000000E+00 -0.15569517258E+03  0.15569517258E+03  0.00000000000E+00 0.  1.
         23    2    1    2    0    0  0.00000000000E+00  0.00000000000E+00 -0.14233584002E+03  0.16905450515E+03  0.91213674192E+02 0.  0.
        -11    1    3    3    0    0  0.21023970258E+02 -0.20954831453E+02 -0.69948108325E+01  0.30496551693E+02  0.00000000000E+00 0. -1.
         11    1    3    3    0    0 -0.21023970258E+02  0.20954831453E+02 -0.13534102918E+03  0.13855795346E+03  0.00000000000E+00 0.  1.
<mgrwt>
<rscale>  0 0.91213674E+02</rscale>
<asrwt>0</asrwt>
<pdfrwt beam="1">  1        2 0.20552820E-02 0.91213674E+02</pdfrwt>
<pdfrwt beam="2">  1       -2 0.23953102E-01 0.91213674E+02</pdfrwt>
<totfact> 0.68834897E+04</totfact>
</mgrwt>
</event>
<event>
 5    1  0.5681061E+000  0.8794597E+02  0.7546771E-02  0.1307903E+00
          1   -1    0    0  501    0  0.00000000000E+00  0.00000000000E+00  0.66759954790E+02  0.66759954790E+02  0.00000000000E+00 0. -1.
         -1   -1    0    0    0  501 -0.00000000000E+00 -0.00000000000E+00 -0.28963820928E+02  0.28963820928E+02  0.00000000000E+00 0.  1.
         23    2    1    2    0    0  0.00000000000E+00  0.00000000000E+00  0.37796133862E+02  0.95723775718E+02  0.87945969225E+02 0.  0.
        -11    1    3    3    0    0  0.27476374642E+02  0.63005102085E+01 -0.17835332919E+02  0.33357858035E+02  0.00000000000E+00 0.  1.
         11    1    3    3    0    0 -0.27476374642E+02 -0.63005102085E+01  0.55631466780E+02  0.62365917683E+02  0.00000000000E+00 0. -1.
<mgrwt>
<rscale>  0 0.87945969E+02</rscale>
<asrwt>0</asrwt>
<pdfrwt beam="1">  1        1 0.10270762E-01 0.87945969E+02</pdfrwt>
<pdfrwt beam="2">  1       -1 0.44559724E-02 0.87945969E+02</pdfrwt>
<totfact> 0.10817912E+05</totfact>
</mgrwt>
</event>
<event>
 5    1  0.5681061E+000  0.8510547E+02  0.7546771E-02  0.1315157E+00
         -3   -1    0    0    0  501 -0.00000000000E+00  0.00000000000E+00  0.43882160954E+03  0.43882160954E+03  0.00000000000E+00 0.  1.
          3   -1    0    0  501    0  0.00000000000E+00 -0.00000000000E+00 -0.41263584668E+01  0.41263584668E+01  0.00000000000E+00 0. -1.
         23    2    1    2    0    0  0.00000000000E+00  0.00000000000E+00  0.43469525107E+03  0.44294796801E+03  0.85105470187E+02 0.  0.
        -11    1    3    3    0    0  0.35886758501E+02 -0.22823785050E+02  0.21007842757E+03  0.21434022098E+03  0.00000000000E+00 0. -1.
         11    1    3    3    0    0 -0.35886758501E+02  0.22823785050E+02  0.22461682351E+03  0.22860774703E+03  0.00000000000E+00 0.  1.
<mgrwt>
<rscale>  0 0.85105470E+02</rscale>
<asrwt>0</asrwt>
<pdfrwt beam="2">  1        3 0.63482473E-03 0.85105470E+02</pdfrwt>
<pdfrwt beam="1">  1       -3 0.67510980E-01 0.85105470E+02</pdfrwt>
<totfact> 0.23255745E+04</totfact>
</mgrwt>
</event>
<event>
 5    1  0.5681061E+000  0.9113501E+02  0.7546771E-02  0.1300126E+00
         -2   -1    0    0    0  501 -0.00000000000E+00  0.00000000000E+00  0.14601372255E+03  0.14601372255E+03  0.00000000000E+00 0.  1.
          2   -1    0    0  501    0  0.00000000000E+00 -0.00000000000E+00 -0.14220562867E+02  0.14220562867E+02  0.00000000000E+00 0. -1.
         23    2    1    2    0    0  0.00000000000E+00  0.00000000000E+00  0.13179315968E+03  0.16023428541E+03  0.91135005808E+02 0.  0.
        -11    1    3    3    0    0 -0.11872686452E+01 -0.41068792151E+02  0.10054451978E+03  0.10861517276E+03  0.00000000000E+00 0.  1.
         11    1    3    3    0    0  0.11872686452E+01  0.41068792151E+02  0.31248639895E+02  0.51619112651E+02  0.00000000000E+00 0. -1.
<mgrwt>
<rscale>  0 0.91135006E+02</rscale>
<asrwt>0</asrwt>
<pdfrwt beam="2">  1        2 0.21877790E-02 0.91135006E+02</pdfrwt>
<pdfrwt beam="1">  1       -2 0.22463649E-01 0.91135006E+02</pdfrwt>
<totfact> 0.70621819E+04</totfact>
</mgrwt>
</event>
<event>
 5    1  0.5681061E+000  0.9336662E+02  0.7546771E-02  0.1294898E+00
          2   -1    0    0  501    0  0.00000000000E+00  0.00000000000E+00  0.20562261974E+02  0.20562261974E+02  0.00000000000E+00 0. -1.
         -2   -1    0    0    0  501 -0.00000000000E+00 -0.00000000000E+00 -0.10598693976E+03  0.10598693976E+03  0.00000000000E+00 0.  1.
         23    2    1    2    0    0  0.00000000000E+00  0.00000000000E+00 -0.85424677787E+02  0.12654920173E+03  0.93366615472E+02 0.  0.
        -11    1    3    3    0    0  0.17732083237E+02 -0.34706227946E+02 -0.77543300868E+02  0.86786591958E+02  0.00000000000E+00 0.  1.
         11    1    3    3    0    0 -0.17732083237E+02  0.34706227946E+02 -0.78813769191E+01  0.39762609777E+02  0.00000000000E+00 0. -1.
<mgrwt>
<rscale>  0 0.93366615E+02</rscale>
<asrwt>0</asrwt>
<pdfrwt beam="1">  1        2 0.31634249E-02 0.93366615E+02</pdfrwt>
<pdfrwt beam="2">  1       -2 0.16305683E-01 0.93366615E+02</pdfrwt>
<totfact> 0.73904517E+04</totfact>
</mgrwt>
</event>
<event>
 5    1  0.5681061E+000  0.8997797E+02  0.7546771E-02  0.1302905E+00
         -1   -1    0    0    0  501 -0.00000000000E+00  0.00000000000E+00  0.35353922504E+02  0.35353922504E+02  0.00000000000E+00 0.  1.
          1   -1    0    0  501    0  0.00000000000E+00 -0.00000000000E+00 -0.57249905258E+02  0.57249905258E+02  0.00000000000E+00 0. -1.
         23    2    1    2    0    0  0.00000000000E+00  0.00000000000E+00 -0.21895982754E+02  0.92603827762E+02  0.89977968723E+02 0.  0.
        -11    1    3    3    0    0  0.67135150401E+01 -0.34552353256E+02 -0.39784825877E+02  0.53120323510E+02  0.00000000000E+00 0. -1.
         11    1    3    3    0    0 -0.67135150401E+01  0.34552353256E+02  0.17888843123E+02  0.39483504252E+02  0.00000000000E+00 0.  1.
<mgrwt>
<rscale>  0 0.89977969E+02</rscale>
<asrwt>0</asrwt>
<pdfrwt beam="2">  1        1 0.88076777E-02 0.89977969E+02</pdfrwt>
<pdfrwt beam="1">  1       -1 0.54390650E-02 0.89977969E+02</pdfrwt>
<totfact> 0.99269627E+04</totfact>
</mgrwt>
</event>
<event>
 5    1  0.5681061E+000  0.9137111E+02  0.7546771E-02  0.1299565E+00
         -2   -1    0    0    0  501 -0.00000000000E+00  0.00000000000E+00  0.16227896984E+02  0.16227896984E+02  0.00000000000E+00 0.  1.
          2   -1    0    0  501    0  0.00000000000E+00 -0.00000000000E+00 -0.12861615557E+03  0.12861615557E+03  0.00000000000E+00 0. -1.
         23    2    1    2    0    0  0.00000000000E+00  0.00000000000E+00 -0.11238825858E+03  0.14484405255E+03  0.91371105347E+02 0.  0.
        -11    1    3    3    0    0 -0.20987523283E+02 -0.12051936238E+02  0.52310480557E+01  0.24760637399E+02  0.00000000000E+00 0.  1.
         11    1    3    3    0    0  0.20987523283E+02  0.12051936238E+02 -0.11761930664E+03  0.12008341515E+03  0.00000000000E+00 0. -1.
<mgrwt>
<rscale>  0 0.91371105E+02</rscale>
<asrwt>0</asrwt>
<pdfrwt beam="2">  1        2 0.19787101E-01 0.91371105E+02</pdfrwt>
<pdfrwt beam="1">  1       -2 0.24965996E-02 0.91371105E+02</pdfrwt>
<totfact> 0.13204453E+05</totfact>
</mgrwt>
</event>
<event>
 5    1  0.5681061E+000  0.9214093E+02  0.7546771E-02  0.1297748E+00
          1   -1    0    0  501    0  0.00000000000E+00  0.00000000000E+00  0.15446078382E+03  0.15446078382E+03  0.00000000000E+00 0. -1.
         -1   -1    0    0    0  501 -0.00000000000E+00 -0.00000000000E+00 -0.13741272855E+02  0.13741272855E+02  0.00000000000E+00 0.  1.
         23    2    1    2    0    0  0.00000000000E+00  0.00000000000E+00  0.14071951097E+03  0.16820205668E+03  0.92140930663E+02 0.  0.
        -11    1    3    3    0    0 -0.19913097672E+02  0.31546424367E+02  0.21011493301E+02  0.42815782137E+02  0.00000000000E+00 0.  1.
         11    1    3    3    0    0  0.19913097672E+02 -0.31546424367E+02  0.11970801767E+03  0.12538627454E+03  0.00000000000E+00 0. -1.
<mgrwt>
<rscale>  0 0.92140931E+02</rscale>
<asrwt>0</asrwt>
<pdfrwt beam="1">  1        1 0.23763196E-01 0.92140931E+02</pdfrwt>
<pdfrwt beam="2">  1       -1 0.21140421E-02 0.92140931E+02</pdfrwt>
<totfact> 0.10958364E+05</totfact>
</mgrwt>
</event>
<event>
 5    1  0.5681061E+000  0.8320940E+02  0.7546771E-02  0.1320183E+00
          1   -1    0    0  501    0  0.00000000000E+00  0.00000000000E+00  0.41545667613E+02  0.41545667613E+02  0.00000000000E+00 0. -1.
         -1   -1    0    0    0  501 -0.00000000000E+00 -0.00000000000E+00 -0.41663820216E+02  0.41663820216E+02  0.00000000000E+00 0.  1.
         23    2    1    2    0    0  0.00000000000E+00  0.00000000000E+00 -0.11815260346E+00  0.83209487829E+02  0.83209403944E+02 0.  0.
        -11    1    3    3    0    0  0.51283308894E+01 -0.30041884338E+02  0.28262969019E+02  0.41564528267E+02  0.00000000000E+00 0. -1.
         11    1    3    3    0    0 -0.51283308894E+01  0.30041884338E+02 -0.28381121623E+02  0.41644959561E+02  0.00000000000E+00 0.  1.
<mgrwt>
<rscale>  0 0.83209404E+02</rscale>
<asrwt>0</asrwt>
<pdfrwt beam="1">  1        1 0.63916412E-02 0.83209404E+02</pdfrwt>
<pdfrwt beam="2">  1       -1 0.64098185E-02 0.83209404E+02</pdfrwt>
<totfact> 0.11775095E+05</totfact>
</mgrwt>
</event>
<event>
 5    1  0.5681061E+000  0.9225404E+02  0.7546771E-02  0.1297483E+00
         -2   -1    0    0    0  501 -0.00000000000E+00  0.00000000000E+00  0.31210867828E+02  0.31210867828E+02  0.00000000000E+00 0.  1.
          2   -1    0    0  501    0  0.00000000000E+00 -0.00000000000E+00 -0.68171823847E+02  0.68171823847E+02  0.00000000000E+00 0. -1.
         23    2    1    2    0    0  0.00000000000E+00  0.00000000000E+00 -0.36960956019E+02  0.99382691675E+02  0.92254035872E+02 0.  0.
        -11    1    3    3    0    0  0.24092808174E+01  0.34966471377E+02 -0.50785044723E+02  0.61705587446E+02  0.00000000000E+00 0. -1.
         11    1    3    3    0    0 -0.24092808174E+01 -0.34966471377E+02  0.13824088704E+02  0.37677104229E+02  0.00000000000E+00 0.  1.
<mgrwt>
<rscale>  0 0.92254036E+02</rscale>
<asrwt>0</asrwt>
<pdfrwt beam="2">  1        2 0.10487973E-01 0.92254036E+02</pdfrwt>
<pdfrwt beam="1">  1       -2 0.48016720E-02 0.92254036E+02</pdfrwt>
<totfact> 0.10625263E+05</totfact>
</mgrwt>
</event>
<event>
 5    1  0.5681061E+000  0.9195307E+02  0.7546771E-02  0.1298190E+00
         -2   -1    0    0    0  501 -0.00000000000E+00  0.00000000000E+00  0.13802497074E+03  0.13802497074E+03  0.00000000000E+00 0.  1.
          2   -1    0    0  501    0  0.00000000000E+00 -0.00000000000E+00 -0.15314923715E+02  0.15314923715E+02  0.00000000000E+00 0. -1.
         23    2    1    2    0    0  0.00000000000E+00  0.00000000000E+00  0.12271004703E+03  0.15333989446E+03  0.91953072765E+02 0.  0.
        -11    1    3    3    0    0 -0.21360547040E+02 -0.39380565954E+02  0.44126327147E+02  0.62882705828E+02  0.00000000000E+00 0.  1.
         11    1    3    3    0    0  0.21360547040E+02  0.39380565954E+02  0.78583719881E+02  0.90457188631E+02  0.00000000000E+00 0. -1.
<mgrwt>
<rscale>  0 0.91953073E+02</rscale>
<asrwt>0</asrwt>
<pdfrwt beam="2">  1        2 0.23561422E-02 0.91953073E+02</pdfrwt>
<pdfrwt beam="1">  1       -2 0.21234610E-01 0.91953073E+02</pdfrwt>
<totfact> 0.70431225E+04</totfact>
</mgrwt>
</event>
<event>
 5    1  0.5681061E+000  0.9172234E+02  0.7546771E-02  0.1298734E+00
          3   -1    0    0  501    0  0.00000000000E+00  0.00000000000E+00  0.18347801787E+02  0.18347801787E+02  0.00000000000E+00 0. -1.
         -3   -1    0    0    0  501 -0.00000000000E+00 -0.00000000000E+00 -0.11463209682E+03  0.11463209682E+03  0.00000000000E+00 0.  1.
         23    2    1    2    0    0  0.00000000000E+00  0.00000000000E+00 -0.96284295037E+02  0.13297989861E+03  0.91722341683E+02 0.  0.
        -11    1    3    3    0    0 -0.63307092511E+01 -0.32258088201E+02 -0.17803204961E+01  0.32921598915E+02  0.00000000000E+00 0. -1.
         11    1    3    3    0    0  0.63307092511E+01  0.32258088201E+02 -0.94503974541E+02  0.10005829970E+03  0.00000000000E+00 0.  1.
<mgrwt>
<rscale>  0 0.91722342E+02</rscale>
<asrwt>0</asrwt>
<pdfrwt beam="1">  1        3 0.28227388E-02 0.91722342E+02</pdfrwt>
<pdfrwt beam="2">  1       -3 0.17635707E-01 0.91722342E+02</pdfrwt>
<totfact> 0.31861785E+04</totfact>
</mgrwt>
</event>
<event>
 5    1  0.5681061E+000  0.8561595E+02  0.7546771E-02  0.1313830E+00
          2   -1    0    0  501    0  0.00000000000E+00  0.00000000000E+00  0.32299221255E+03  0.32299221255E+03  0.00000000000E+00 0.  1.
         -2   -1    0    0    0  501 -0.00000000000E+00 -0.00000000000E+00 -0.56735820887E+01  0.56735820887E+01  0.00000000000E+00 0. -1.
         23    2    1    2    0    0  0.00000000000E+00  0.00000000000E+00  0.31731863046E+03  0.32866579464E+03  0.85615952530E+02 0.  0.
        -11    1    3    3    0    0 -0.85213413938E+01 -0.40900352622E+02  0.12283846389E+03  0.12974875843E+03  0.00000000000E+00 0. -1.
         11    1    3    3    0    0  0.85213413938E+01  0.40900352622E+02  0.19448016657E+03  0.19891703621E+03  0.00000000000E+00 0.  1.
<mgrwt>
<rscale>  0 0.85615953E+02</rscale>
<asrwt>0</asrwt>
<pdfrwt beam="1">  1        2 0.49691095E-01 0.85615953E+02</pdfrwt>
<pdfrwt beam="2">  1       -2 0.87285903E-03 0.85615953E+02</pdfrwt>
<totfact> 0.21821971E+05</totfact>
</mgrwt>
</event>
<event>
 5    1  0.5681061E+000  0.8926536E+02  0.7546771E-02  0.1304641E+00
         -2   -1    0    0    0  501 -0.00000000000E+00  0.00000000000E+00  0.69510004296E+01  0.69510004296E+01  0.00000000000E+00 0.  1.
          2   -1    0    0  501    0  0.00000000000E+00 -0.00000000000E+00 -0.28658840290E+03  0.28658840290E+03  0.00000000000E+00 0. -1.
         23    2    1    2    0    0  0.00000000000E+00  0.00000000000E+00 -0.27963740247E+03  0.29353940333E+03  0.89265359724E+02 0.  0.
        -11    1    3    3    0    0 -0.94606313027E+01 -0.36440497176E+02 -0.60988984771E+02  0.71673353783E+02  0.00000000000E+00 0.  1.
         11    1    3    3    0    0  0.94606313027E+01  0.36440497176E+02 -0.21864841770E+03  0.22186604954E+03  0.00000000000E+00 0. -1.
<mgrwt>
<rscale>  0 0.89265360E+02</rscale>
<asrwt>0</asrwt>
<pdfrwt beam="2">  1        2 0.44090520E-01 0.89265360E+02</pdfrwt>
<pdfrwt beam="1">  1       -2 0.10693848E-02 0.89265360E+02</pdfrwt>
<totfact> 0.18688665E+05</totfact>
</mgrwt>
</event>
<event>
 5    1  0.5681061E+000  0.9210193E+02  0.7546771E-02  0.1297840E+00
         -1   -1    0    0    0  501 -0.00000000000E+00  0.00000000000E+00  0.12981362997E+02  0.12981362997E+02  0.00000000000E+00 0.  1.
          1   -1    0    0  501    0  0.00000000000E+00 -0.00000000000E+00 -0.16336431795E+03  0.16336431795E+03  0.00000000000E+00 0. -1.
         23    2    1    2    0    0  0.00000000000E+00  0.00000000000E+00 -0.15038295495E+03  0.17634568094E+03  0.92101932921E+02 0.  0.
        -11    1    3    3    0    0  0.29476231951E+02 -0.35303755789E+02 -0.79676934110E+02  0.91997919824E+02  0.00000000000E+00 0.  1.
         11    1    3    3    0    0 -0.29476231951E+02  0.35303755789E+02 -0.70706020841E+02  0.84347761120E+02  0.00000000000E+00 0. -1.
<mgrwt>
<rscale>  0 0.92101933E+02</rscale>
<asrwt>0</asrwt>
<pdfrwt beam="2">  1        1 0.25132971E-01 0.92101933E+02</pdfrwt>
<pdfrwt beam="1">  1       -1 0.19971329E-02 0.92101933E+02</pdfrwt>
<totfact> 0.11086244E+05</totfact>
</mgrwt>
</event>
<event>
 5    1  0.5681061E+000  0.9263909E+02  0.7546771E-02  0.1296584E+00
          1   -1    0    0  501    0  0.00000000000E+00  0.00000000000E+00  0.19966178202E+02  0.19966178202E+02  0.00000000000E+00 0. -1.
         -1   -1    0    0    0  501 -0.00000000000E+00 -0.00000000000E+00 -0.10745674227E+03  0.10745674227E+03  0.00000000000E+00 0.  1.
         23    2    1    2    0    0  0.00000000000E+00  0.00000000000E+00 -0.87490564069E+02  0.12742292047E+03  0.92639094666E+02 0.  0.
        -11    1    3    3    0    0 -0.22273756157E+02 -0.92096139502E+01 -0.98151660306E+02  0.10106772790E+03  0.00000000000E+00 0.  1.
         11    1    3    3    0    0  0.22273756157E+02  0.92096139502E+01  0.10661096237E+02  0.26355192570E+02  0.00000000000E+00 0. -1.
<mgrwt>
<rscale>  0 0.92639095E+02</rscale>
<asrwt>0</asrwt>
<pdfrwt beam="1">  1        1 0.30717196E-02 0.92639095E+02</pdfrwt>
<pdfrwt beam="2">  1       -1 0.16531807E-01 0.92639095E+02</pdfrwt>
<totfact> 0.77038948E+04</totfact>
</mgrwt>
</event>
<event>
 5    1  0.5681061E+000  0.8995541E+02  0.7546771E-02  0.1302960E+00
         -2   -1    0    0    0  501 -0.00000000000E+00  0.00000000000E+00  0.44246000302E+02  0.44246000302E+02  0.00000000000E+00 0.  1.
          2   -1    0    0  501    0  0.00000000000E+00 -0.00000000000E+00 -0.45721513691E+02  0.45721513691E+02  0.00000000000E+00 0. -1.
         23    2    1    2    0    0  0.00000000000E+00  0.00000000000E+00 -0.14755133887E+01  0.89967513993E+02  0.89955413590E+02 0.  0.
        -11    1    3    3    0    0  0.24935773557E+02 -0.19233768066E+02 -0.32855367631E+02  0.45510502294E+02  0.00000000000E+00 0. -1.
         11    1    3    3    0    0 -0.24935773557E+02  0.19233768066E+02  0.31379854242E+02  0.44457011698E+02  0.00000000000E+00 0.  1.
<mgrwt>
<rscale>  0 0.89955414E+02</rscale>
<asrwt>0</asrwt>
<pdfrwt beam="2">  1        2 0.70340790E-02 0.89955414E+02</pdfrwt>
<pdfrwt beam="1">  1       -2 0.68070770E-02 0.89955414E+02</pdfrwt>
<totfact> 0.10263701E+05</totfact>
</mgrwt>
</event>
<event>
 5    1  0.5681061E+000  0.9504416E+02  0.7546771E-02  0.1291077E+00
         -1   -1    0    0    0  501 -0.00000000000E+00  0.00000000000E+00  0.22785664583E+02  0.22785664583E+02  0.00000000000E+00 0.  1.
          1   -1    0    0  501    0  0.00000000000E+00 -0.00000000000E+00 -0.99112667824E+02  0.99112667824E+02  0.00000000000E+00 0. -1.
         23    2    1    2    0    0  0.00000000000E+00  0.00000000000E+00 -0.76327003242E+02  0.12189833241E+03  0.95044158262E+02 0.  0.
        -11    1    3    3    0    0 -0.40199550663E+02  0.19223491809E+02 -0.16980099624E+02  0.47685116064E+02  0.00000000000E+00 0.  1.
         11    1    3    3    0    0  0.40199550663E+02 -0.19223491809E+02 -0.59346903618E+02  0.74213216342E+02  0.00000000000E+00 0. -1.
<mgrwt>
<rscale>  0 0.95044158E+02</rscale>
<asrwt>0</asrwt>
<pdfrwt beam="2">  1        1 0.15248103E-01 0.95044158E+02</pdfrwt>
<pdfrwt beam="1">  1       -1 0.35054869E-02 0.95044158E+02</pdfrwt>
<totfact> 0.93090469E+04</totfact>
</mgrwt>
</event>
<event>
 5    1  0.5681061E+000  0.9130174E+02  0.7546771E-02  0.1299730E+00
         -3   -1    0    0    0  501 -0.00000000000E+00  0.00000000000E+00  0.35395832081E+03  0.35395832081E+03  0.00000000000E+00 0.  1.
          3   -1    0    0  501    0  0.00000000000E+00 -0.00000000000E+00 -0.58877048626E+01  0.58877048626E+01  0.00000000000E+00 0. -1.
         23    2    1    2    0    0  0.00000000000E+00  0.00000000000E+00  0.34807061594E+03  0.35984602567E+03  0.91301744268E+02 0.  0.
        -11    1    3    3    0    0 -0.12717436539E+02 -0.43176785740E+02  0.14401056548E+03  0.15088078403E+03  0.00000000000E+00 0.  1.
         11    1    3    3    0    0  0.12717436539E+02  0.43176785740E+02  0.20406005047E+03  0.20896524164E+03  0.00000000000E+00 0. -1.
<mgrwt>
<rscale>  0 0.91301744E+02</rscale>
<asrwt>0</asrwt>
<pdfrwt beam="2">  1        3 0.90580102E-03 0.91301744E+02</pdfrwt>
<pdfrwt beam="1">  1       -3 0.54455110E-01 0.91301744E+02</pdfrwt>
<totfact> 0.21794221E+04</totfact>
</mgrwt>
</event>
<event>
 5    1  0.5681061E+000  0.9154763E+02  0.7546771E-02  0.1299147E+00
         -1   -1    0    0    0  501 -0.00000000000E+00  0.00000000000E+00  0.97861531476E+01  0.97861531476E+01  0.00000000000E+00 0.  1.
          1   -1    0    0  501    0  0.00000000000E+00 -0.00000000000E+00 -0.21410271245E+03  0.21410271245E+03  0.00000000000E+00 0. -1.
         23    2    1    2    0    0  0.00000000000E+00  0.00000000000E+00 -0.20431655931E+03  0.22388886560E+03  0.91547625494E+02 0.  0.
        -11    1    3    3    0    0 -0.41842023189E+02  0.30746687922E+01 -0.14692234182E+03  0.15279523232E+03  0.00000000000E+00 0. -1.
         11    1    3    3    0    0  0.41842023189E+02 -0.30746687922E+01 -0.57394217484E+02  0.71093633283E+02  0.00000000000E+00 0.  1.
<mgrwt>
<rscale>  0 0.91547625E+02</rscale>
<asrwt>0</asrwt>
<pdfrwt beam="2">  1        1 0.32938878E-01 0.91547625E+02</pdfrwt>
<pdfrwt beam="1">  1       -1 0.15055621E-02 0.91547625E+02</pdfrwt>
<totfact> 0.11868706E+05</totfact>
</mgrwt>
</event>
<event>
 5    1  0.5681061E+000  0.9122002E+02  0.7546771E-02  0.1299924E+00
          1   -1    0    0  501    0  0.00000000000E+00  0.00000000000E+00  0.60887766493E+02  0.60887766493E+02  0.00000000000E+00 0. -1.
         -1   -1    0    0    0  501 -0.00000000000E+00 -0.00000000000E+00 -0.34165701252E+02  0.34165701252E+02  0.00000000000E+00 0.  1.
         23    2    1    2    0    0  0.00000000000E+00  0.00000000000E+00  0.26722065241E+02  0.95053467744E+02  0.91220024992E+02 0.  0.
        -11    1    3    3    0    0 -0.17731954262E+01  0.31325271796E+02 -0.21133843985E+02  0.37829303942E+02  0.00000000000E+00 0.  1.
         11    1    3    3    0    0  0.17731954262E+01 -0.31325271796E+02  0.47855909226E+02  0.57224163803E+02  0.00000000000E+00 0. -1.
<mgrwt>
<rscale>  0 0.91220025E+02</rscale>
<asrwt>0</asrwt>
<pdfrwt beam="1">  1        1 0.93673487E-02 0.91220025E+02</pdfrwt>
<pdfrwt beam="2">  1       -1 0.52562617E-02 0.91220025E+02</pdfrwt>
<totfact> 0.96459040E+04</totfact>
</mgrwt>
</event>
<event>
 5    1  0.5681061E+000  0.9073257E+02  0.7546771E-02  0.1301087E+00
         -2   -1    0    0    0  501 -0.00000000000E+00  0.00000000000E+00  0.38317833748E+02  0.38317833748E+02  0.00000000000E+00 0.  1.
          2   -1    0    0  501    0  0.00000000000E+00 -0.00000000000E+00 -0.53711280868E+02  0.53711280868E+02  0.00000000000E+00 0. -1.
         23    2    1    2    0    0  0.00000000000E+00  0.00000000000E+00 -0.15393447120E+02  0.92029114617E+02  0.90732572557E+02 0.  0.
        -11    1    3    3    0    0  0.96783454093E+01  0.39479883785E+02 -0.28128263304E+02  0.49432082599E+02  0.00000000000E+00 0. -1.
         11    1    3    3    0    0 -0.96783454093E+01 -0.39479883785E+02  0.12734816184E+02  0.42597032018E+02  0.00000000000E+00 0.  1.
<mgrwt>
<rscale>  0 0.90732573E+02</rscale>
<asrwt>0</asrwt>
<pdfrwt beam="2">  1        2 0.82632739E-02 0.90732573E+02</pdfrwt>
<pdfrwt beam="1">  1       -2 0.58950514E-02 0.90732573E+02</pdfrwt>
<totfact> 0.10443121E+05</totfact>
</mgrwt>
</event>
<event>
 5    1  0.5681061E+000  0.9364504E+02  0.7546771E-02  0.1294257E+00
          1   -1    0    0  501    0  0.00000000000E+00  0.00000000000E+00  0.15624379393E+03  0.15624379393E+03  0.00000000000E+00 0. -1.
         -1   -1    0    0    0  501 -0.00000000000E+00 -0.00000000000E+00 -0.14031586214E+02  0.14031586214E+02  0.00000000000E+00 0.  1.
         23    2    1    2    0    0  0.00000000000E+00  0.00000000000E+00  0.14221220771E+03  0.17027538014E+03  0.93645037560E+02 0.  0.
        -11    1    3    3    0    0 -0.16924858539E+02 -0.40964057995E+02  0.43659709533E+02  0.62214750024E+02  0.00000000000E+00 0.  1.
         11    1    3    3    0    0  0.16924858539E+02  0.40964057995E+02  0.98552498181E+02  0.10806063012E+03  0.00000000000E+00 0. -1.
<mgrwt>
<rscale>  0 0.93645038E+02</rscale>
<asrwt>0</asrwt>
<pdfrwt beam="1">  1        1 0.24037506E-01 0.93645038E+02</pdfrwt>
<pdfrwt beam="2">  1       -1 0.21587057E-02 0.93645038E+02</pdfrwt>
<totfact> 0.10511437E+05</totfact>
</mgrwt>
</event>
<event>
 5    1  0.5681061E+000  0.8987546E+02  0.7546771E-02  0.1303154E+00
         -2   -1    0    0    0  501 -0.00000000000E+00  0.00000000000E+00  0.61691788870E+02  0.61691788870E+02  0.00000000000E+00 0.  1.
          2   -1    0    0  501    0  0.00000000000E+00 -0.00000000000E+00 -0.32733685004E+02  0.32733685004E+02  0.00000000000E+00 0. -1.
         23    2    1    2    0    0  0.00000000000E+00  0.00000000000E+00  0.28958103866E+02  0.94425473874E+02  0.89875460149E+02 0.  0.
        -11    1    3    3    0    0  0.19518639783E+02  0.25352904434E+02  0.47630457397E+02  0.57379504477E+02  0.00000000000E+00 0.  1.
         11    1    3    3    0    0 -0.19518639783E+02 -0.25352904434E+02 -0.18672353531E+02  0.37045969397E+02  0.00000000000E+00 0. -1.
<mgrwt>
<rscale>  0 0.89875460E+02</rscale>
<asrwt>0</asrwt>
<pdfrwt beam="2">  1        2 0.50359515E-02 0.89875460E+02</pdfrwt>
<pdfrwt beam="1">  1       -2 0.94910444E-02 0.89875460E+02</pdfrwt>
<totfact> 0.94439772E+04</totfact>
</mgrwt>
</event>
<event>
 5    1  0.5681061E+000  0.9238303E+02  0.7546771E-02  0.1297181E+00
          1   -1    0    0  501    0  0.00000000000E+00  0.00000000000E+00  0.47933000627E+02  0.47933000627E+02  0.00000000000E+00 0. -1.
         -1   -1    0    0    0  501 -0.00000000000E+00 -0.00000000000E+00 -0.44513300321E+02  0.44513300321E+02  0.00000000000E+00 0.  1.
         23    2    1    2    0    0  0.00000000000E+00  0.00000000000E+00  0.34197003059E+01  0.92446300948E+02  0.92383029875E+02 0.  0.
        -11    1    3    3    0    0 -0.28193295371E+02  0.35038294485E+02 -0.88383400422E+01  0.45832960181E+02  0.00000000000E+00 0.  1.
         11    1    3    3    0    0  0.28193295371E+02 -0.35038294485E+02  0.12258040348E+02  0.46613340767E+02  0.00000000000E+00 0. -1.
<mgrwt>
<rscale>  0 0.92383030E+02</rscale>
<asrwt>0</asrwt>
<pdfrwt beam="1">  1        1 0.73743078E-02 0.92383030E+02</pdfrwt>
<pdfrwt beam="2">  1       -1 0.68482000E-02 0.92383030E+02</pdfrwt>
<totfact> 0.89798018E+04</totfact>
</mgrwt>
</event>
<event>
 5    1  0.5681061E+000  0.8994654E+02  0.7546771E-02  0.1302981E+00
          1   -1    0    0  501    0  0.00000000000E+00  0.00000000000E+00  0.38486270061E+02  0.38486270061E+02  0.00000000000E+00 0. -1.
         -1   -1    0    0    0  501 -0.00000000000E+00 -0.00000000000E+00 -0.52553675954E+02  0.52553675954E+02  0.00000000000E+00 0.  1.
         23    2    1    2    0    0  0.00000000000E+00  0.00000000000E+00 -0.14067405893E+02  0.91039946014E+02  0.89946538909E+02 0.  0.
        -11    1    3    3    0    0  0.29910661302E+02  0.11393061890E+02 -0.39011198697E+02  0.50461105245E+02  0.00000000000E+00 0.  1.
         11    1    3    3    0    0 -0.29910661302E+02 -0.11393061890E+02  0.24943792804E+02  0.40578840770E+02  0.00000000000E+00 0. -1.
<mgrwt>
<rscale>  0 0.89946539E+02</rscale>
<asrwt>0</asrwt>
<pdfrwt beam="1">  1        1 0.59209647E-02 0.89946539E+02</pdfrwt>
<pdfrwt beam="2">  1       -1 0.80851809E-02 0.89946539E+02</pdfrwt>
<totfact> 0.93658501E+04</totfact>
</mgrwt>
</event>
<event>
 5    1  0.5681061E+000  0.9177964E+02  0.7546771E-02  0.1298598E+00
         -2   -1    0    0    0  501 -0.00000000000E+00  0.00000000000E+00  0.42538378167E+02  0.42538378167E+02  0.00000000000E+00 0.  1.
          2   -1    0    0  501    0  0.00000000000E+00 -0.00000000000E+00 -0.49505310761E+02  0.49505310761E+02  0.00000000000E+00 0. -1.
         23    2    1    2    0    0  0.00000000000E+00  0.00000000000E+00 -0.69669325936E+01  0.92043688928E+02  0.91779641107E+02 0.  0.
        -11    1    3    3    0    0 -0.21790767158E+02  0.22239904668E+02 -0.37291351131E+02  0.48580816812E+02  0.00000000000E+00 0. -1.
         11    1    3    3    0    0  0.21790767158E+02 -0.22239904668E+02  0.30324418537E+02  0.43462872116E+02  0.00000000000E+00 0.  1.
<mgrwt>
<rscale>  0 0.91779641E+02</rscale>
<asrwt>0</asrwt>
<pdfrwt beam="2">  1        2 0.76162016E-02 0.91779641E+02</pdfrwt>
<pdfrwt beam="1">  1       -2 0.65443659E-02 0.91779641E+02</pdfrwt>
<totfact> 0.98933440E+04</totfact>
</mgrwt>
</event>
<event>
 5    1  0.5681061E+000  0.9098913E+02  0.7546771E-02  0.1300474E+00
          3   -1    0    0  501    0  0.00000000000E+00  0.00000000000E+00  0.63593534482E+02  0.63593534482E+02  0.00000000000E+00 0. -1.
         -3   -1    0    0    0  501 -0.00000000000E+00 -0.00000000000E+00 -0.32546630764E+02  0.32546630764E+02  0.00000000000E+00 0.  1.
         23    2    1    2    0    0  0.00000000000E+00  0.00000000000E+00  0.31046903719E+02  0.96140165246E+02  0.90989126510E+02 0.  0.
        -11    1    3    3    0    0 -0.33597928288E+01  0.44195922460E+02  0.26360162267E+02  0.51569622111E+02  0.00000000000E+00 0. -1.
         11    1    3    3    0    0  0.33597928288E+01 -0.44195922460E+02  0.46867414512E+01  0.44570543135E+02  0.00000000000E+00 0.  1.
<mgrwt>
<rscale>  0 0.90989127E+02</rscale>
<asrwt>0</asrwt>
<pdfrwt beam="1">  1        3 0.97836207E-02 0.90989127E+02</pdfrwt>
<pdfrwt beam="2">  1       -3 0.50071740E-02 0.90989127E+02</pdfrwt>
<totfact> 0.35156738E+04</totfact>
</mgrwt>
</event>
<event>
 5    1  0.5681061E+000  0.8903263E+02  0.7546771E-02  0.1305211E+00
          1   -1    0    0  501    0  0.00000000000E+00  0.00000000000E+00  0.30371118443E+02  0.30371118443E+02  0.00000000000E+00 0. -1.
         -1   -1    0    0    0  501 -0.00000000000E+00 -0.00000000000E+00 -0.65249569831E+02  0.65249569831E+02  0.00000000000E+00 0.  1.
         23    2    1    2    0    0  0.00000000000E+00  0.00000000000E+00 -0.34878451389E+02  0.95620688274E+02  0.89032632527E+02 0.  0.
        -11    1    3    3    0    0 -0.16848361194E+02  0.22498094165E+01  0.26748543400E+02  0.31692483200E+02  0.00000000000E+00 0. -1.
         11    1    3    3    0    0  0.16848361194E+02 -0.22498094165E+01 -0.61626994789E+02  0.63928205074E+02  0.00000000000E+00 0.  1.
<mgrwt>
<rscale>  0 0.89032633E+02</rscale>
<asrwt>0</asrwt>
<pdfrwt beam="1">  1        1 0.46724798E-02 0.89032633E+02</pdfrwt>
<pdfrwt beam="2">  1       -1 0.10038395E-01 0.89032633E+02</pdfrwt>
<totfact> 0.92973657E+04</totfact>
</mgrwt>
</event>
<event>
 5    1  0.5681061E+000  0.9363400E+02  0.7546771E-02  0.1294283E+00
         -1   -1    0    0    0  501 -0.00000000000E+00  0.00000000000E+00  0.30125339099E+02  0.30125339099E+02  0.00000000000E+00 0.  1.
          1   -1    0    0  501    0  0.00000000000E+00 -0.00000000000E+00 -0.72757071626E+02  0.72757071626E+02  0.00000000000E+00 0. -1.
         23    2    1    2    0    0  0.00000000000E+00  0.00000000000E+00 -0.42631732527E+02  0.10288241072E+03  0.93633999265E+02 0.  0.
        -11    1    3    3    0    0 -0.13237757265E+02 -0.30171534236E+02 -0.57861750290E+02  0.66584846941E+02  0.00000000000E+00 0. -1.
         11    1    3    3    0    0  0.13237757265E+02  0.30171534236E+02  0.15230017763E+02  0.36297563784E+02  0.00000000000E+00 0.  1.
<mgrwt>
<rscale>  0 0.93633999E+02</rscale>
<asrwt>0</asrwt>
<pdfrwt beam="2">  1        1 0.11193395E-01 0.93633999E+02</pdfrwt>
<pdfrwt beam="1">  1       -1 0.46346676E-02 0.93633999E+02</pdfrwt>
<totfact> 0.92230089E+04</totfact>
</mgrwt>
</event>
<event>
 5    1  0.5681061E+000  0.9221437E+02  0.7546771E-02  0.1297576E+00
          1   -1    0    0  501    0  0.00000000000E+00  0.00000000000E+00  0.10245684783E+02  0.10245684783E+02  0.00000000000E+00 0. -1.
         -1   -1    0    0    0  501 -0.00000000000E+00 -0.00000000000E+00 -0.20748954592E+03  0.20748954592E+03  0.00000000000E+00 0.  1.
         23    2    1    2    0    0  0.00000000000E+00  0.00000000000E+00 -0.19724386114E+03  0.21773523070E+03  0.92214369451E+02 0.  0.
        -11    1    3    3    0    0 -0.43812977149E+02  0.46069355000E+01 -0.66500116242E+02  0.79768830263E+02  0.00000000000E+00 0. -1.
         11    1    3    3    0    0  0.43812977149E+02 -0.46069355000E+01 -0.13074374489E+03  0.13796640044E+03  0.00000000000E+00 0.  1.
<mgrwt>
<rscale>  0 0.92214369E+02</rscale>
<asrwt>0</asrwt>
<pdfrwt beam="1">  1        1 0.15762593E-02 0.92214369E+02</pdfrwt>
<pdfrwt beam="2">  1       -1 0.31921467E-01 0.92214369E+02</pdfrwt>
<totfact> 0.66689959E+04</totfact>
</mgrwt>
</event>
<event>
 5    1  0.5681061E+000  0.9322403E+02  0.7546771E-02  0.1295227E+00
          2   -1    0    0  501    0  0.00000000000E+00  0.00000000000E+00  0.77600535458E+01  0.77600535458E+01  0.00000000000E+00 0. -1.
         -2   -1    0    0    0  501 -0.00000000000E+00 -0.00000000000E+00 -0.27998258358E+03  0.27998258358E+03  0.00000000000E+00 0.  1.
         23    2    1    2    0    0  0.00000000000E+00  0.00000000000E+00 -0.27222253004E+03  0.28774263713E+03  0.93224027814E+02 0.  0.
        -11    1    3    3    0    0 -0.37382329970E+02 -0.93028227131E+00 -0.22200317272E+03  0.22513043489E+03  0.00000000000E+00 0.  1.
         11    1    3    3    0    0  0.37382329970E+02  0.93028227131E+00 -0.50219357320E+02  0.62612202235E+02  0.00000000000E+00 0. -1.
<mgrwt>
<rscale>  0 0.93224028E+02</rscale>
<asrwt>0</asrwt>
<pdfrwt beam="1">  1        2 0.11938545E-02 0.93224028E+02</pdfrwt>
<pdfrwt beam="2">  1       -2 0.43074239E-01 0.93224028E+02</pdfrwt>
<totfact> 0.50030788E+04</totfact>
</mgrwt>
</event>
<event>
 5    1  0.5681061E+000  0.9366933E+02  0.7546771E-02  0.1294202E+00
          1   -1    0    0  501    0  0.00000000000E+00  0.00000000000E+00  0.23593923983E+02  0.23593923983E+02  0.00000000000E+00 0. -1.
         -1   -1    0    0    0  501 -0.00000000000E+00 -0.00000000000E+00 -0.92968252551E+02  0.92968252551E+02  0.00000000000E+00 0.  1.
         23    2    1    2    0    0  0.00000000000E+00  0.00000000000E+00 -0.69374328568E+02  0.11656217653E+03  0.93669330808E+02 0.  0.
        -11    1    3    3    0    0  0.45988306275E+02 -0.87028365009E+01 -0.36777685654E+02  0.59525304193E+02  0.00000000000E+00 0.  1.
         11    1    3    3    0    0 -0.45988306275E+02  0.87028365009E+01 -0.32596642915E+02  0.57036872342E+02  0.00000000000E+00 0. -1.
<mgrwt>
<rscale>  0 0.93669331E+02</rscale>
<asrwt>0</asrwt>
<pdfrwt beam="1">  1        1 0.36298345E-02 0.93669331E+02</pdfrwt>
<pdfrwt beam="2">  1       -1 0.14302808E-01 0.93669331E+02</pdfrwt>
<totfact> 0.76932529E+04</totfact>
</mgrwt>
</event>
<event>
 5    1  0.5681061E+000  0.9143269E+02  0.7546771E-02  0.1299419E+00
         -4   -1    0    0    0  501 -0.00000000000E+00  0.00000000000E+00  0.18594761978E+03  0.18594761978E+03  0.00000000000E+00 0.  1.
          4   -1    0    0  501    0  0.00000000000E+00 -0.00000000000E+00 -0.11239639053E+02  0.11239639053E+02  0.00000000000E+00 0. -1.
         23    2    1    2    0    0  0.00000000000E+00  0.00000000000E+00  0.17470798072E+03  0.19718725883E+03  0.91432688443E+02 0.  0.
        -11    1    3    3    0    0 -0.37330445455E+02  0.19349314495E+02  0.12605504754E+03  0.13288277969E+03  0.00000000000E+00 0.  1.
         11    1    3    3    0    0  0.37330445455E+02 -0.19349314495E+02  0.48652933187E+02  0.64304479137E+02  0.00000000000E+00 0. -1.
<mgrwt>
<rscale>  0 0.91432688E+02</rscale>
<asrwt>0</asrwt>
<pdfrwt beam="2">  1        4 0.17291754E-02 0.91432688E+02</pdfrwt>
<pdfrwt beam="1">  1       -4 0.28607324E-01 0.91432688E+02</pdfrwt>
<totfact> 0.21343183E+04</totfact>
</mgrwt>
</event>
<event>
 5    1  0.5681061E+000  0.9305453E+02  0.7546771E-02  0.1295619E+00
         -2   -1    0    0    0  501 -0.00000000000E+00  0.00000000000E+00  0.90305678948E+01  0.90305678948E+01  0.00000000000E+00 0.  1.
          2   -1    0    0  501    0  0.00000000000E+00 -0.00000000000E+00 -0.23971764294E+03  0.23971764294E+03  0.00000000000E+00 0. -1.
         23    2    1    2    0    0  0.00000000000E+00  0.00000000000E+00 -0.23068707505E+03  0.24874821083E+03  0.93054531328E+02 0.  0.
        -11    1    3    3    0    0  0.23826784269E+02 -0.38457381777E+02 -0.14439369361E+03  0.15131498477E+03  0.00000000000E+00 0. -1.
         11    1    3    3    0    0 -0.23826784269E+02  0.38457381777E+02 -0.86293381437E+02  0.97433226066E+02  0.00000000000E+00 0.  1.
<mgrwt>
<rscale>  0 0.93054531E+02</rscale>
<asrwt>0</asrwt>
<pdfrwt beam="2">  1        2 0.36879638E-01 0.93054531E+02</pdfrwt>
<pdfrwt beam="1">  1       -2 0.13893181E-02 0.93054531E+02</pdfrwt>
<totfact> 0.15647038E+05</totfact>
</mgrwt>
</event>
<event>
 5    1  0.5681061E+000  0.9582207E+02  0.7546771E-02  0.1289335E+00
          1   -1    0    0  501    0  0.00000000000E+00  0.00000000000E+00  0.39981210462E+02  0.39981210462E+02  0.00000000000E+00 0. -1.
         -1   -1    0    0    0  501 -0.00000000000E+00 -0.00000000000E+00 -0.57413655962E+02  0.57413655962E+02  0.00000000000E+00 0.  1.
         23    2    1    2    0    0  0.00000000000E+00  0.00000000000E+00 -0.17432445500E+02  0.97394866424E+02  0.95822073916E+02 0.  0.
        -11    1    3    3    0    0 -0.18434453966E+02  0.11877673679E+02  0.34580604750E+02  0.40947850370E+02  0.00000000000E+00 0. -1.
         11    1    3    3    0    0  0.18434453966E+02 -0.11877673679E+02 -0.52013050250E+02  0.56447016054E+02  0.00000000000E+00 0.  1.
<mgrwt>
<rscale>  0 0.95822074E+02</rscale>
<asrwt>0</asrwt>
<pdfrwt beam="1">  1        1 0.61509554E-02 0.95822074E+02</pdfrwt>
<pdfrwt beam="2">  1       -1 0.88328702E-02 0.95822074E+02</pdfrwt>
<totfact> 0.78727148E+04</totfact>
</mgrwt>
</event>
<event>
 5    1  0.5681061E+000  0.8903210E+02  0.7546771E-02  0.1305213E+00
          2   -1    0    0  501    0  0.00000000000E+00  0.00000000000E+00  0.14734955181E+03  0.14734955181E+03  0.00000000000E+00 0. -1.
         -2   -1    0    0    0  501 -0.00000000000E+00 -0.00000000000E+00 -0.13448826093E+02  0.13448826093E+02  0.00000000000E+00 0.  1.
         23    2    1    2    0    0  0.00000000000E+00  0.00000000000E+00  0.13390072572E+03  0.16079837790E+03  0.89032095272E+02 0.  0.
        -11    1    3    3    0    0  0.20118761936E+02 -0.26665829832E+02  0.13806177216E+02  0.36144731176E+02  0.00000000000E+00 0.  1.
         11    1    3    3    0    0 -0.20118761936E+02  0.26665829832E+02  0.12009454850E+03  0.12465364673E+03  0.00000000000E+00 0. -1.
<mgrwt>
<rscale>  0 0.89032095E+02</rscale>
<asrwt>0</asrwt>
<pdfrwt beam="1">  1        2 0.22669161E-01 0.89032095E+02</pdfrwt>
<pdfrwt beam="2">  1       -2 0.20690503E-02 0.89032095E+02</pdfrwt>
<totfact> 0.14822448E+05</totfact>
</mgrwt>
</event>
<event>
 5    1  0.5681061E+000  0.9117284E+02  0.7546771E-02  0.1300036E+00
          2   -1    0    0  501    0  0.00000000000E+00  0.00000000000E+00  0.80969130450E+02  0.80969130450E+02  0.00000000000E+00 0. -1.
         -2   -1    0    0    0  501 -0.00000000000E+00 -0.00000000000E+00 -0.25665602696E+02  0.25665602696E+02  0.00000000000E+00 0.  1.
         23    2    1    2    0    0  0.00000000000E+00  0.00000000000E+00  0.55303527754E+02  0.10663473315E+03  0.91172836586E+02 0.  0.
        -11    1    3    3    0    0 -0.32979599058E+02 -0.30632931686E+02  0.36093171652E+02  0.57695298748E+02  0.00000000000E+00 0. -1.
         11    1    3    3    0    0  0.32979599058E+02  0.30632931686E+02  0.19210356102E+02  0.48939434399E+02  0.00000000000E+00 0.  1.
<mgrwt>
<rscale>  0 0.91172837E+02</rscale>
<asrwt>0</asrwt>
<pdfrwt beam="1">  1        2 0.12456789E-01 0.91172837E+02</pdfrwt>
<pdfrwt beam="2">  1       -2 0.39485543E-02 0.91172837E+02</pdfrwt>
<totfact> 0.11526668E+05</totfact>
</mgrwt>
</event>
<event>
 5    1  0.5681061E+000  0.9354024E+02  0.7546771E-02  0.1294498E+00
         -3   -1    0    0    0  501 -0.00000000000E+00  0.00000000000E+00  0.45571062336E+01  0.45571062336E+01  0.00000000000E+00 0.  1.
          3   -1    0    0  501    0  0.00000000000E+00 -0.00000000000E+00 -0.48000724355E+03  0.48000724355E+03  0.00000000000E+00 0. -1.
         23    2    1    2    0    0  0.00000000000E+00  0.00000000000E+00 -0.47545013731E+03  0.48456434978E+03  0.93540237369E+02 0.  0.
        -11    1    3    3    0    0 -0.85409343009E+01  0.45972949106E+02 -0.23258537359E+03  0.23723915279E+03  0.00000000000E+00 0. -1.
         11    1    3    3    0    0  0.85409343009E+01 -0.45972949106E+02 -0.24286476372E+03  0.24732519698E+03  0.00000000000E+00 0.  1.
<mgrwt>
<rscale>  0 0.93540237E+02</rscale>
<asrwt>0</asrwt>
<pdfrwt beam="2">  1        3 0.73847302E-01 0.93540237E+02</pdfrwt>
<pdfrwt beam="1">  1       -3 0.70109294E-03 0.93540237E+02</pdfrwt>
<totfact> 0.17081081E+04</totfact>
</mgrwt>
</event>
<event>
 5    1  0.5681061E+000  0.9297374E+02  0.7546771E-02  0.1295806E+00
         -1   -1    0    0    0  501 -0.00000000000E+00  0.00000000000E+00  0.14559469605E+02  0.14559469605E+02  0.00000000000E+00 0.  1.
          1   -1    0    0  501    0  0.00000000000E+00 -0.00000000000E+00 -0.14842771870E+03  0.14842771870E+03  0.00000000000E+00 0. -1.
         23    2    1    2    0    0  0.00000000000E+00  0.00000000000E+00 -0.13386824910E+03  0.16298718831E+03  0.92973735193E+02 0.  0.
        -11    1    3    3    0    0  0.85590346658E+01 -0.43190902345E+02 -0.40795649457E+02  0.60024962594E+02  0.00000000000E+00 0.  1.
         11    1    3    3    0    0 -0.85590346658E+01  0.43190902345E+02 -0.93072599641E+02  0.10296222571E+03  0.00000000000E+00 0. -1.
<mgrwt>
<rscale>  0 0.92973735E+02</rscale>
<asrwt>0</asrwt>
<pdfrwt beam="2">  1        1 0.22835034E-01 0.92973735E+02</pdfrwt>
<pdfrwt beam="1">  1       -1 0.22399184E-02 0.92973735E+02</pdfrwt>
<totfact> 0.10616359E+05</totfact>
</mgrwt>
</event>
<event>
 5    1  0.5681061E+000  0.9199071E+02  0.7546771E-02  0.1298101E+00
         -4   -1    0    0    0  501 -0.00000000000E+00  0.00000000000E+00  0.19727085850E+02  0.19727085850E+02  0.00000000000E+00 0.  1.
          4   -1    0    0  501    0  0.00000000000E+00 -0.00000000000E+00 -0.10724203661E+03  0.10724203661E+03  0.00000000000E+00 0. -1.
         23    2    1    2    0    0  0.00000000000E+00  0.00000000000E+00 -0.87514950756E+02  0.12696912246E+03  0.91990713940E+02 0.  0.
        -11    1    3    3    0    0 -0.26502025484E+01 -0.22621839869E+02 -0.98911805590E+02  0.10150032757E+03  0.00000000000E+00 0. -1.
         11    1    3    3    0    0  0.26502025484E+01  0.22621839869E+02  0.11396854834E+02  0.25468794881E+02  0.00000000000E+00 0.  1.
<mgrwt>
<rscale>  0 0.91990714E+02</rscale>
<asrwt>0</asrwt>
<pdfrwt beam="2">  1        4 0.16498775E-01 0.91990714E+02</pdfrwt>
<pdfrwt beam="1">  1       -4 0.30349363E-02 0.91990714E+02</pdfrwt>
<totfact> 0.24292293E+04</totfact>
</mgrwt>
</event>
<event>
 5    1  0.5681061E+000  0.8997633E+02  0.7546771E-02  0.1302909E+00
          1   -1    0    0  501    0  0.00000000000E+00  0.00000000000E+00  0.10284614552E+02  0.10284614552E+02  0.00000000000E+00 0. -1.
         -1   -1    0    0    0  501 -0.00000000000E+00 -0.00000000000E+00 -0.19679247661E+03  0.19679247661E+03  0.00000000000E+00 0.  1.
         23    2    1    2    0    0  0.00000000000E+00  0.00000000000E+00 -0.18650786206E+03  0.20707709117E+03  0.89976325079E+02 0.  0.
        -11    1    3    3    0    0 -0.20931944976E+02  0.35907963955E+02 -0.53630897724E+02  0.67851318237E+02  0.00000000000E+00 0. -1.
         11    1    3    3    0    0  0.20931944976E+02 -0.35907963955E+02 -0.13287696434E+03  0.13922577293E+03  0.00000000000E+00 0.  1.
<mgrwt>
<rscale>  0 0.89976325E+02</rscale>
<asrwt>0</asrwt>
<pdfrwt beam="1">  1        1 0.15822483E-02 0.89976325E+02</pdfrwt>
<pdfrwt beam="2">  1       -1 0.30275767E-01 0.89976325E+02</pdfrwt>
<totfact> 0.72192062E+04</totfact>
</mgrwt>
</event>
<event>
 5    1  0.5681061E+000  0.9284473E+02  0.7546771E-02  0.1296105E+00
         -2   -1    0    0    0  501 -0.00000000000E+00  0.00000000000E+00  0.68035944749E+02  0.68035944749E+02  0.00000000000E+00 0.  1.
          2   -1    0    0  501    0  0.00000000000E+00 -0.00000000000E+00 -0.31674963727E+02  0.31674963727E+02  0.00000000000E+00 0. -1.
         23    2    1    2    0    0  0.00000000000E+00  0.00000000000E+00  0.36360981022E+02  0.99710908476E+02  0.92844732366E+02 0.  0.
        -11    1    3    3    0    0 -0.25431366124E+02  0.35774874606E+02  0.34412471447E+02  0.55774673707E+02  0.00000000000E+00 0.  1.
         11    1    3    3    0    0  0.25431366124E+02 -0.35774874606E+02  0.19485095747E+01  0.43936234768E+02  0.00000000000E+00 0. -1.
<mgrwt>
<rscale>  0 0.92844732E+02</rscale>
<asrwt>0</asrwt>
<pdfrwt beam="2">  1        2 0.48730714E-02 0.92844732E+02</pdfrwt>
<pdfrwt beam="1">  1       -2 0.10467068E-01 0.92844732E+02</pdfrwt>
<totfact> 0.85059635E+04</totfact>
</mgrwt>
</event>
<event>
 5    1  0.5681061E+000  0.9108851E+02  0.7546771E-02  0.1300237E+00
         -1   -1    0    0    0  501 -0.00000000000E+00  0.00000000000E+00  0.11310131016E+03  0.11310131016E+03  0.00000000000E+00 0.  1.
          1   -1    0    0  501    0  0.00000000000E+00 -0.00000000000E+00 -0.18340011805E+02  0.18340011805E+02  0.00000000000E+00 0. -1.
         23    2    1    2    0    0  0.00000000000E+00  0.00000000000E+00  0.94761298355E+02  0.13144132197E+03  0.91088514392E+02 0.  0.
        -11    1    3    3    0    0  0.24695072981E+02  0.37862668300E+02  0.39365649525E+02  0.59942327640E+02  0.00000000000E+00 0. -1.
         11    1    3    3    0    0 -0.24695072981E+02 -0.37862668300E+02  0.55395648830E+02  0.71498994326E+02  0.00000000000E+00 0.  1.
<mgrwt>
<rscale>  0 0.91088514E+02</rscale>
<asrwt>0</asrwt>
<pdfrwt beam="2">  1        1 0.28215403E-02 0.91088514E+02</pdfrwt>
<pdfrwt beam="1">  1       -1 0.17400201E-01 0.91088514E+02</pdfrwt>
<totfact> 0.79671175E+04</totfact>
</mgrwt>
</event>
<event>
 5    1  0.5681061E+000  0.9131506E+02  0.7546771E-02  0.1299698E+00
         -1   -1    0    0    0  501 -0.00000000000E+00  0.00000000000E+00  0.78666939742E+01  0.78666939742E+01  0.00000000000E+00 0.  1.
          1   -1    0    0  501    0  0.00000000000E+00 -0.00000000000E+00 -0.26499186403E+03  0.26499186403E+03  0.00000000000E+00 0. -1.
         23    2    1    2    0    0  0.00000000000E+00  0.00000000000E+00 -0.25712517006E+03  0.27285855801E+03  0.91315056809E+02 0.  0.
        -11    1    3    3    0    0  0.15302454194E+02  0.38484791309E+02 -0.18599055026E+03  0.19054587125E+03  0.00000000000E+00 0. -1.
         11    1    3    3    0    0 -0.15302454194E+02 -0.38484791309E+02 -0.71134619803E+02  0.82312686756E+02  0.00000000000E+00 0.  1.
<mgrwt>
<rscale>  0 0.91315057E+02</rscale>
<asrwt>0</asrwt>
<pdfrwt beam="2">  1        1 0.40767972E-01 0.91315057E+02</pdfrwt>
<pdfrwt beam="1">  1       -1 0.12102608E-02 0.91315057E+02</pdfrwt>
<totfact> 0.12457918E+05</totfact>
</mgrwt>
</event>
<event>
 5    1  0.5681061E+000  0.9127032E+02  0.7546771E-02  0.1299804E+00
          2   -1    0    0  501    0  0.00000000000E+00  0.00000000000E+00  0.11453289377E+02  0.11453289377E+02  0.00000000000E+00 0. -1.
         -2   -1    0    0    0  501 -0.00000000000E+00 -0.00000000000E+00 -0.18183142714E+03  0.18183142714E+03  0.00000000000E+00 0.  1.
         23    2    1    2    0    0  0.00000000000E+00  0.00000000000E+00 -0.17037813776E+03  0.19328471652E+03  0.91270322733E+02 0.  0.
        -11    1    3    3    0    0 -0.31537602925E+02 -0.24786336487E+01 -0.15484245049E+03  0.15804097095E+03  0.00000000000E+00 0.  1.
         11    1    3    3    0    0  0.31537602925E+02  0.24786336487E+01 -0.15535687271E+02  0.35243745572E+02  0.00000000000E+00 0. -1.
<mgrwt>
<rscale>  0 0.91270323E+02</rscale>
<asrwt>0</asrwt>
<pdfrwt beam="1">  1        2 0.17620446E-02 0.91270323E+02</pdfrwt>
<pdfrwt beam="2">  1       -2 0.27974065E-01 0.91270323E+02</pdfrwt>
<totfact> 0.64696447E+04</totfact>
</mgrwt>
</event>
<event>
 5    1  0.5681061E+000  0.9149906E+02  0.7546771E-02  0.1299262E+00
          2   -1    0    0  501    0  0.00000000000E+00  0.00000000000E+00  0.33463714378E+02  0.33463714378E+02  0.00000000000E+00 0. -1.
         -2   -1    0    0    0  501 -0.00000000000E+00 -0.00000000000E+00 -0.62545943735E+02  0.62545943735E+02  0.00000000000E+00 0.  1.
         23    2    1    2    0    0  0.00000000000E+00  0.00000000000E+00 -0.29082229357E+02  0.96009658112E+02  0.91499062217E+02 0.  0.
        -11    1    3    3    0    0 -0.92799707139E+01  0.38654267163E+02 -0.38301356044E+02  0.55202029864E+02  0.00000000000E+00 0.  1.
         11    1    3    3    0    0  0.92799707139E+01 -0.38654267163E+02  0.92191266870E+01  0.40807628248E+02  0.00000000000E+00 0. -1.
<mgrwt>
<rscale>  0 0.91499062E+02</rscale>
<asrwt>0</asrwt>
<pdfrwt beam="1">  1        2 0.51482638E-02 0.91499062E+02</pdfrwt>
<pdfrwt beam="2">  1       -2 0.96224528E-02 0.91499062E+02</pdfrwt>
<totfact> 0.90120461E+04</totfact>
</mgrwt>
</event>
<event>
 5    1  0.5681061E+000  0.9109830E+02  0.7546771E-02  0.1300214E+00
         -1   -1    0    0    0  501 -0.00000000000E+00  0.00000000000E+00  0.40231179416E+02  0.40231179416E+02  0.00000000000E+00 0.  1.
          1   -1    0    0  501    0  0.00000000000E+00 -0.00000000000E+00 -0.51570082001E+02  0.51570082001E+02  0.00000000000E+00 0. -1.
         23    2    1    2    0    0  0.00000000000E+00  0.00000000000E+00 -0.11338902585E+02  0.91801261417E+02  0.91098303420E+02 0.  0.
        -11    1    3    3    0    0  0.13039504615E+02 -0.39044236298E+02  0.13980868931E+02  0.43473506470E+02  0.00000000000E+00 0.  1.
         11    1    3    3    0    0 -0.13039504615E+02  0.39044236298E+02 -0.25319771516E+02  0.48327754948E+02  0.00000000000E+00 0. -1.
<mgrwt>
<rscale>  0 0.91098303E+02</rscale>
<asrwt>0</asrwt>
<pdfrwt beam="2">  1        1 0.79338587E-02 0.91098303E+02</pdfrwt>
<pdfrwt beam="1">  1       -1 0.61894122E-02 0.91098303E+02</pdfrwt>
<totfact> 0.94427171E+04</totfact>
</mgrwt>
</event>
<event>
 5    1  0.5681061E+000  0.7674168E+02  0.7546771E-02  0.1338561E+00
         -2   -1    0    0    0  501 -0.00000000000E+00  0.00000000000E+00  0.83752551478E+01  0.83752551478E+01  0.00000000000E+00 0.  1.
          2   -1    0    0  501    0  0.00000000000E+00 -0.00000000000E+00 -0.17579419007E+03  0.17579419007E+03  0.00000000000E+00 0. -1.
         23    2    1    2    0    0  0.00000000000E+00  0.00000000000E+00 -0.16741893492E+03  0.18416944522E+03  0.76741675649E+02 0.  0.
        -11    1    3    3    0    0 -0.29203747137E+02 -0.14485924489E+02 -0.35138465887E+02  0.47931332550E+02  0.00000000000E+00 0.  1.
         11    1    3    3    0    0  0.29203747137E+02  0.14485924489E+02 -0.13228046904E+03  0.13623811267E+03  0.00000000000E+00 0. -1.
<mgrwt>
<rscale>  0 0.76741676E+02</rscale>
<asrwt>0</asrwt>
<pdfrwt beam="2">  1        2 0.27045258E-01 0.76741676E+02</pdfrwt>
<pdfrwt beam="1">  1       -2 0.12885009E-02 0.76741676E+02</pdfrwt>
<totfact> 0.23411132E+05</totfact>
</mgrwt>
</event>
<event>
 5    1  0.5681061E+000  0.9243999E+02  0.7546771E-02  0.1297048E+00
         -1   -1    0    0    0  501 -0.00000000000E+00  0.00000000000E+00  0.23357036770E+02  0.23357036770E+02  0.00000000000E+00 0.  1.
          1   -1    0    0  501    0  0.00000000000E+00 -0.00000000000E+00 -0.91462277669E+02  0.91462277669E+02  0.00000000000E+00 0. -1.
         23    2    1    2    0    0  0.00000000000E+00  0.00000000000E+00 -0.68105240900E+02  0.11481931444E+03  0.92439986642E+02 0.  0.
        -11    1    3    3    0    0 -0.31089248212E+02 -0.29428224382E+02 -0.12405701659E+02  0.44569756318E+02  0.00000000000E+00 0.  1.
         11    1    3    3    0    0  0.31089248212E+02  0.29428224382E+02 -0.55699539240E+02  0.70249558121E+02  0.00000000000E+00 0. -1.
<mgrwt>
<rscale>  0 0.92439987E+02</rscale>
<asrwt>0</asrwt>
<pdfrwt beam="2">  1        1 0.14071120E-01 0.92439987E+02</pdfrwt>
<pdfrwt beam="1">  1       -1 0.35933902E-02 0.92439987E+02</pdfrwt>
<totfact> 0.99123792E+04</totfact>
</mgrwt>
</event>
<event>
 5    1  0.5681061E+000  0.9375194E+02  0.7546771E-02  0.1294012E+00
          2   -1    0    0  501    0  0.00000000000E+00  0.00000000000E+00  0.26416362156E+02  0.26416362156E+02  0.00000000000E+00 0. -1.
         -2   -1    0    0    0  501 -0.00000000000E+00 -0.00000000000E+00 -0.83181650691E+02  0.83181650691E+02  0.00000000000E+00 0.  1.
         23    2    1    2    0    0  0.00000000000E+00  0.00000000000E+00 -0.56765288535E+02  0.10959801285E+03  0.93751940981E+02 0.  0.
        -11    1    3    3    0    0  0.16235409171E+02  0.22352047121E+02 -0.72653744946E+02  0.77728818183E+02  0.00000000000E+00 0.  1.
         11    1    3    3    0    0 -0.16235409171E+02 -0.22352047121E+02  0.15888456411E+02  0.31869194664E+02  0.00000000000E+00 0. -1.
<mgrwt>
<rscale>  0 0.93751941E+02</rscale>
<asrwt>0</asrwt>
<pdfrwt beam="1">  1        2 0.40640558E-02 0.93751941E+02</pdfrwt>
<pdfrwt beam="2">  1       -2 0.12797177E-01 0.93751941E+02</pdfrwt>
<totfact> 0.78580581E+04</totfact>
</mgrwt>
</event>
<event>
 5    1  0.5681061E+000  0.9061136E+02  0.7546771E-02  0.1301378E+00
         -1   -1    0    0    0  501 -0.00000000000E+00  0.00000000000E+00  0.79879764430E+01  0.79879764430E+01  0.00000000000E+00 0.  1.
          1   -1    0    0  501    0  0.00000000000E+00 -0.00000000000E+00 -0.25696175770E+03  0.25696175770E+03  0.00000000000E+00 0. -1.
         23    2    1    2    0    0  0.00000000000E+00  0.00000000000E+00 -0.24897378126E+03  0.26494973415E+03  0.90611356182E+02 0.  0.
        -11    1    3    3    0    0 -0.43438726216E+02 -0.59519313923E+01 -0.91115077674E+02  0.10111530943E+03  0.00000000000E+00 0.  1.
         11    1    3    3    0    0  0.43438726216E+02  0.59519313923E+01 -0.15785870359E+03  0.16383442471E+03  0.00000000000E+00 0. -1.
<mgrwt>
<rscale>  0 0.90611356E+02</rscale>
<asrwt>0</asrwt>
<pdfrwt beam="2">  1        1 0.39532574E-01 0.90611356E+02</pdfrwt>
<pdfrwt beam="1">  1       -1 0.12289196E-02 0.90611356E+02</pdfrwt>
<totfact> 0.12641446E+05</totfact>
</mgrwt>
</event>
<event>
 5    1  0.5681061E+000  0.9058962E+02  0.7546771E-02  0.1301430E+00
         -3   -1    0    0    0  501 -0.00000000000E+00  0.00000000000E+00  0.12527699543E+02  0.12527699543E+02  0.00000000000E+00 0.  1.
          3   -1    0    0  501    0  0.00000000000E+00 -0.00000000000E+00 -0.16376667565E+03  0.16376667565E+03  0.00000000000E+00 0. -1.
         23    2    1    2    0    0  0.00000000000E+00  0.00000000000E+00 -0.15123897611E+03  0.17629437519E+03  0.90589617676E+02 0.  0.
        -11    1    3    3    0    0  0.41179042330E+02  0.17422187222E+02 -0.89703167449E+02  0.10022925913E+03  0.00000000000E+00 0.  1.
         11    1    3    3    0    0 -0.41179042330E+02 -0.17422187222E+02 -0.61535808658E+02  0.76065116065E+02  0.00000000000E+00 0. -1.
<mgrwt>
<rscale>  0 0.90589618E+02</rscale>
<asrwt>0</asrwt>
<pdfrwt beam="2">  1        3 0.25194870E-01 0.90589618E+02</pdfrwt>
<pdfrwt beam="1">  1       -3 0.19273386E-02 0.90589618E+02</pdfrwt>
<totfact> 0.30295286E+04</totfact>
</mgrwt>
</event>
<event>
 5    1  0.5681061E+000  0.9044901E+02  0.7546771E-02  0.1301768E+00
          4   -1    0    0  501    0  0.00000000000E+00  0.00000000000E+00  0.19216700381E+03  0.19216700381E+03  0.00000000000E+00 0. -1.
         -4   -1    0    0    0  501 -0.00000000000E+00 -0.00000000000E+00 -0.10643117319E+02  0.10643117319E+02  0.00000000000E+00 0.  1.
         23    2    1    2    0    0  0.00000000000E+00  0.00000000000E+00  0.18152388649E+03  0.20281012113E+03  0.90449012521E+02 0.  0.
        -11    1    3    3    0    0 -0.40540945973E+02 -0.19424674430E+02  0.79692881965E+02  0.91497768896E+02  0.00000000000E+00 0.  1.
         11    1    3    3    0    0  0.40540945973E+02  0.19424674430E+02  0.10183100453E+03  0.11131235224E+03  0.00000000000E+00 0. -1.
<mgrwt>
<rscale>  0 0.90449013E+02</rscale>
<asrwt>0</asrwt>
<pdfrwt beam="1">  1        4 0.29564152E-01 0.90449013E+02</pdfrwt>
<pdfrwt beam="2">  1       -4 0.16374028E-02 0.90449013E+02</pdfrwt>
<totfact> 0.21729696E+04</totfact>
</mgrwt>
</event>
<event>
 5    1  0.5681061E+000  0.9074264E+02  0.7546771E-02  0.1301063E+00
          2   -1    0    0  501    0  0.00000000000E+00  0.00000000000E+00  0.30991754941E+03  0.30991754941E+03  0.00000000000E+00 0. -1.
         -2   -1    0    0    0  501 -0.00000000000E+00 -0.00000000000E+00 -0.66422724976E+01  0.66422724976E+01  0.00000000000E+00 0.  1.
         23    2    1    2    0    0  0.00000000000E+00  0.00000000000E+00  0.30327527691E+03  0.31655982191E+03  0.90742643007E+02 0.  0.
        -11    1    3    3    0    0 -0.40004461239E+02  0.10723046564E+02  0.87008519182E+02  0.96362975550E+02  0.00000000000E+00 0.  1.
         11    1    3    3    0    0  0.40004461239E+02 -0.10723046564E+02  0.21626675773E+03  0.22019684636E+03  0.00000000000E+00 0. -1.
<mgrwt>
<rscale>  0 0.90742643E+02</rscale>
<asrwt>0</asrwt>
<pdfrwt beam="1">  1        2 0.47679612E-01 0.90742643E+02</pdfrwt>
<pdfrwt beam="2">  1       -2 0.10218883E-02 0.90742643E+02</pdfrwt>
<totfact> 0.18417532E+05</totfact>
</mgrwt>
</event>
<event>
 5    1  0.5681061E+000  0.9545255E+02  0.7546771E-02  0.1290160E+00
          1   -1    0    0  501    0  0.00000000000E+00  0.00000000000E+00  0.15344155014E+03  0.15344155014E+03  0.00000000000E+00 0. -1.
         -1   -1    0    0    0  501 -0.00000000000E+00 -0.00000000000E+00 -0.14844724367E+02  0.14844724367E+02  0.00000000000E+00 0.  1.
         23    2    1    2    0    0  0.00000000000E+00  0.00000000000E+00  0.13859682578E+03  0.16828627451E+03  0.95452554041E+02 0.  0.
        -11    1    3    3    0    0  0.26513830818E+02  0.39244001872E+02  0.58909566417E+02  0.75587114795E+02  0.00000000000E+00 0. -1.
         11    1    3    3    0    0 -0.26513830818E+02 -0.39244001872E+02  0.79687259359E+02  0.92699159715E+02  0.00000000000E+00 0.  1.
<mgrwt>
<rscale>  0 0.95452554E+02</rscale>
<asrwt>0</asrwt>
<pdfrwt beam="1">  1        1 0.23606391E-01 0.95452554E+02</pdfrwt>
<pdfrwt beam="2">  1       -1 0.22838038E-02 0.95452554E+02</pdfrwt>
<totfact> 0.99471047E+04</totfact>
</mgrwt>
</event>
<event>
 5    1  0.5681061E+000  0.9091155E+02  0.7546771E-02  0.1300659E+00
         -1   -1    0    0    0  501 -0.00000000000E+00  0.00000000000E+00  0.14962640033E+03  0.14962640033E+03  0.00000000000E+00 0.  1.
          1   -1    0    0  501    0  0.00000000000E+00 -0.00000000000E+00 -0.13809244131E+02  0.13809244131E+02  0.00000000000E+00 0. -1.
         23    2    1    2    0    0  0.00000000000E+00  0.00000000000E+00  0.13581715620E+03  0.16343564446E+03  0.90911550214E+02 0.  0.
        -11    1    3    3    0    0  0.14190157302E+01 -0.43487967117E+02  0.91554925940E+02  0.10136824628E+03  0.00000000000E+00 0.  1.
         11    1    3    3    0    0 -0.14190157302E+01  0.43487967117E+02  0.44262230258E+02  0.62067398181E+02  0.00000000000E+00 0. -1.
<mgrwt>
<rscale>  0 0.90911550E+02</rscale>
<asrwt>0</asrwt>
<pdfrwt beam="2">  1        1 0.21244992E-02 0.90911550E+02</pdfrwt>
<pdfrwt beam="1">  1       -1 0.23019445E-01 0.90911550E+02</pdfrwt>
<totfact> 0.75400238E+04</totfact>
</mgrwt>
</event>
<event>
 5    1  0.5681061E+000  0.9168547E+02  0.7546771E-02  0.1298821E+00
         -1   -1    0    0    0  501 -0.00000000000E+00  0.00000000000E+00  0.10953626854E+03  0.10953626854E+03  0.00000000000E+00 0.  1.
          1   -1    0    0  501    0  0.00000000000E+00 -0.00000000000E+00 -0.19185942549E+02  0.19185942549E+02  0.00000000000E+00 0. -1.
         23    2    1    2    0    0  0.00000000000E+00  0.00000000000E+00  0.90350325991E+02  0.12872221109E+03  0.91685474426E+02 0.  0.
        -11    1    3    3    0    0 -0.28279966650E+02 -0.78051387267E+01 -0.42807041273E+01  0.29647953253E+02  0.00000000000E+00 0. -1.
         11    1    3    3    0    0  0.28279966650E+02  0.78051387267E+01  0.94631030118E+02  0.99074257835E+02  0.00000000000E+00 0.  1.
<mgrwt>
<rscale>  0 0.91685474E+02</rscale>
<asrwt>0</asrwt>
<pdfrwt beam="2">  1        1 0.29516835E-02 0.91685474E+02</pdfrwt>
<pdfrwt beam="1">  1       -1 0.16851733E-01 0.91685474E+02</pdfrwt>
<totfact> 0.78832067E+04</totfact>
</mgrwt>
</event>
<event>
 5    1  0.5681061E+000  0.9108710E+02  0.7546771E-02  0.1300240E+00
          2   -1    0    0  501    0  0.00000000000E+00  0.00000000000E+00  0.11609241210E+03  0.11609241210E+03  0.00000000000E+00 0. -1.
         -2   -1    0    0    0  501 -0.00000000000E+00 -0.00000000000E+00 -0.17866928370E+02  0.17866928370E+02  0.00000000000E+00 0.  1.
         23    2    1    2    0    0  0.00000000000E+00  0.00000000000E+00  0.98225483726E+02  0.13395934046E+03  0.91087097026E+02 0.  0.
        -11    1    3    3    0    0  0.13356882129E+02 -0.36672114316E+02  0.14592171334E+02  0.41667514119E+02  0.00000000000E+00 0.  1.
         11    1    3    3    0    0 -0.13356882129E+02  0.36672114316E+02  0.83633312392E+02  0.92291826346E+02  0.00000000000E+00 0. -1.
<mgrwt>
<rscale>  0 0.91087097E+02</rscale>
<asrwt>0</asrwt>
<pdfrwt beam="1">  1        2 0.17860371E-01 0.91087097E+02</pdfrwt>
<pdfrwt beam="2">  1       -2 0.27487583E-02 0.91087097E+02</pdfrwt>
<totfact> 0.12884810E+05</totfact>
</mgrwt>
</event>
<event>
 5    1  0.5681061E+000  0.9053668E+02  0.7546771E-02  0.1301557E+00
         -1   -1    0    0    0  501 -0.00000000000E+00  0.00000000000E+00  0.11959704504E+02  0.11959704504E+02  0.00000000000E+00 0.  1.
          1   -1    0    0  501    0  0.00000000000E+00 -0.00000000000E+00 -0.17134390674E+03  0.17134390674E+03  0.00000000000E+00 0. -1.
         23    2    1    2    0    0  0.00000000000E+00  0.00000000000E+00 -0.15938420224E+03  0.18330361124E+03  0.90536677498E+02 0.  0.
        -11    1    3    3    0    0  0.54529647212E+01  0.32970402664E+02 -0.17868120157E+02  0.37895276672E+02  0.00000000000E+00 0.  1.
         11    1    3    3    0    0 -0.54529647212E+01 -0.32970402664E+02 -0.14151608208E+03  0.14540833457E+03  0.00000000000E+00 0. -1.
<mgrwt>
<rscale>  0 0.90536677E+02</rscale>
<asrwt>0</asrwt>
<pdfrwt beam="2">  1        1 0.26360601E-01 0.90536677E+02</pdfrwt>
<pdfrwt beam="1">  1       -1 0.18399546E-02 0.90536677E+02</pdfrwt>
<totfact> 0.11714324E+05</totfact>
</mgrwt>
</event>
<event>
 5    1  0.5681061E+000  0.9198337E+02  0.7546771E-02  0.1298119E+00
          1   -1    0    0  501    0  0.00000000000E+00  0.00000000000E+00  0.72709402854E+01  0.72709402854E+01  0.00000000000E+00 0. -1.
         -1   -1    0    0    0  501 -0.00000000000E+00 -0.00000000000E+00 -0.29091629965E+03  0.29091629965E+03  0.00000000000E+00 0.  1.
         23    2    1    2    0    0  0.00000000000E+00  0.00000000000E+00 -0.28364535936E+03  0.29818723993E+03  0.91983368992E+02 0.  0.
        -11    1    3    3    0    0  0.32463651119E+01  0.44609370647E+02 -0.17654125085E+03  0.18211904922E+03  0.00000000000E+00 0.  1.
         11    1    3    3    0    0 -0.32463651119E+01 -0.44609370647E+02 -0.10710410852E+03  0.11606819072E+03  0.00000000000E+00 0. -1.
<mgrwt>
<rscale>  0 0.91983369E+02</rscale>
<asrwt>0</asrwt>
<pdfrwt beam="1">  1        1 0.11186064E-02 0.91983369E+02</pdfrwt>
<pdfrwt beam="2">  1       -1 0.44756344E-01 0.91983369E+02</pdfrwt>
<totfact> 0.59917836E+04</totfact>
</mgrwt>
</event>
<event>
 5    1  0.5681061E+000  0.9052565E+02  0.7546771E-02  0.1301584E+00
         -3   -1    0    0    0  501 -0.00000000000E+00  0.00000000000E+00  0.95994011516E+02  0.95994011516E+02  0.00000000000E+00 0.  1.
          3   -1    0    0  501    0  0.00000000000E+00 -0.00000000000E+00 -0.21342201256E+02  0.21342201256E+02  0.00000000000E+00 0. -1.
         23    2    1    2    0    0  0.00000000000E+00  0.00000000000E+00  0.74651810260E+02  0.11733621277E+03  0.90525654113E+02 0.  0.
        -11    1    3    3    0    0  0.15144969093E+02 -0.32758099632E+02  0.19175645724E+01  0.36140562174E+02  0.00000000000E+00 0. -1.
         11    1    3    3    0    0 -0.15144969093E+02  0.32758099632E+02  0.72734245687E+02  0.81195650598E+02  0.00000000000E+00 0.  1.
<mgrwt>
<rscale>  0 0.90525654E+02</rscale>
<asrwt>0</asrwt>
<pdfrwt beam="2">  1        3 0.32834156E-02 0.90525654E+02</pdfrwt>
<pdfrwt beam="1">  1       -3 0.14768309E-01 0.90525654E+02</pdfrwt>
<totfact> 0.34087593E+04</totfact>
</mgrwt>
</event>
<event>
 5    1  0.5681061E+000  0.9402913E+02  0.7546771E-02  0.1293378E+00
         -2   -1    0    0    0  501 -0.00000000000E+00  0.00000000000E+00  0.32388734833E+02  0.32388734833E+02  0.00000000000E+00 0.  1.
          2   -1    0    0  501    0  0.00000000000E+00 -0.00000000000E+00 -0.68245005960E+02  0.68245005960E+02  0.00000000000E+00 0. -1.
         23    2    1    2    0    0  0.00000000000E+00  0.00000000000E+00 -0.35856271127E+02  0.10063374079E+03  0.94029131692E+02 0.  0.
        -11    1    3    3    0    0 -0.34814116043E+02  0.23996153897E+02 -0.39927525942E+02  0.58155355777E+02  0.00000000000E+00 0. -1.
         11    1    3    3    0    0  0.34814116043E+02 -0.23996153897E+02  0.40712548152E+01  0.42478385015E+02  0.00000000000E+00 0.  1.
<mgrwt>
<rscale>  0 0.94029132E+02</rscale>
<asrwt>0</asrwt>
<pdfrwt beam="2">  1        2 0.10499232E-01 0.94029132E+02</pdfrwt>
<pdfrwt beam="1">  1       -2 0.49828823E-02 0.94029132E+02</pdfrwt>
<totfact> 0.10073443E+05</totfact>
</mgrwt>
</event>
<event>
 5    1  0.5681061E+000  0.8739134E+02  0.7546771E-02  0.1309295E+00
          1   -1    0    0  501    0  0.00000000000E+00  0.00000000000E+00  0.11173990576E+02  0.11173990576E+02  0.00000000000E+00 0. -1.
         -1   -1    0    0    0  501 -0.00000000000E+00 -0.00000000000E+00 -0.17087106424E+03  0.17087106424E+03  0.00000000000E+00 0.  1.
         23    2    1    2    0    0  0.00000000000E+00  0.00000000000E+00 -0.15969707366E+03  0.18204505482E+03  0.87391341941E+02 0.  0.
        -11    1    3    3    0    0  0.39870271285E+01 -0.43485421365E+02 -0.76599028413E+02  0.88171930967E+02  0.00000000000E+00 0.  1.
         11    1    3    3    0    0 -0.39870271285E+01  0.43485421365E+02 -0.83098045251E+02  0.93873123849E+02  0.00000000000E+00 0. -1.
<mgrwt>
<rscale>  0 0.87391342E+02</rscale>
<asrwt>0</asrwt>
<pdfrwt beam="1">  1        1 0.17190755E-02 0.87391342E+02</pdfrwt>
<pdfrwt beam="2">  1       -1 0.26287855E-01 0.87391342E+02</pdfrwt>
<totfact> 0.80871720E+04</totfact>
</mgrwt>
</event>
<event>
 5    1  0.5681061E+000  0.9097281E+02  0.7546771E-02  0.1300513E+00
          1   -1    0    0  501    0  0.00000000000E+00  0.00000000000E+00  0.40232722061E+01  0.40232722061E+01  0.00000000000E+00 0. -1.
         -1   -1    0    0    0  501 -0.00000000000E+00 -0.00000000000E+00 -0.51426130070E+03  0.51426130070E+03  0.00000000000E+00 0.  1.
         23    2    1    2    0    0  0.00000000000E+00  0.00000000000E+00 -0.51023802850E+03  0.51828457291E+03  0.90972813473E+02 0.  0.
        -11    1    3    3    0    0  0.59418377417E+01 -0.45026854556E+02 -0.26940750958E+03  0.27320894803E+03  0.00000000000E+00 0. -1.
         11    1    3    3    0    0 -0.59418377417E+01  0.45026854556E+02 -0.24083051892E+03  0.24507562488E+03  0.00000000000E+00 0.  1.
<mgrwt>
<rscale>  0 0.90972813E+02</rscale>
<asrwt>0</asrwt>
<pdfrwt beam="1">  1        1 0.61896484E-03 0.90972813E+02</pdfrwt>
<pdfrwt beam="2">  1       -1 0.79117138E-01 0.90972813E+02</pdfrwt>
<totfact> 0.46495449E+04</totfact>
</mgrwt>
</event>
<event>
 5    1  0.5681061E+000  0.9472999E+02  0.7546771E-02  0.1291785E+00
          2   -1    0    0  501    0  0.00000000000E+00  0.00000000000E+00  0.41230543541E+02  0.41230543541E+02  0.00000000000E+00 0. -1.
         -2   -1    0    0    0  501 -0.00000000000E+00 -0.00000000000E+00 -0.54412151577E+02  0.54412151577E+02  0.00000000000E+00 0.  1.
         23    2    1    2    0    0  0.00000000000E+00  0.00000000000E+00 -0.13181608037E+02  0.95642695118E+02  0.94729986482E+02 0.  0.
        -11    1    3    3    0    0  0.36216199624E+02 -0.18105734734E+02 -0.31404248548E+02  0.51241170677E+02  0.00000000000E+00 0.  1.
         11    1    3    3    0    0 -0.36216199624E+02  0.18105734734E+02  0.18222640511E+02  0.44401524441E+02  0.00000000000E+00 0. -1.
<mgrwt>
<rscale>  0 0.94729986E+02</rscale>
<asrwt>0</asrwt>
<pdfrwt beam="1">  1        2 0.63431606E-02 0.94729986E+02</pdfrwt>
<pdfrwt beam="2">  1       -2 0.83711002E-02 0.94729986E+02</pdfrwt>
<totfact> 0.86035116E+04</totfact>
</mgrwt>
</event>
<event>
 5    1  0.5681061E+000  0.9759583E+02  0.7546771E-02  0.1285434E+00
         -2   -1    0    0    0  501 -0.00000000000E+00  0.00000000000E+00  0.45970646614E+01  0.45970646614E+01  0.00000000000E+00 0.  1.
          2   -1    0    0  501    0  0.00000000000E+00 -0.00000000000E+00 -0.51799067598E+03  0.51799067598E+03  0.00000000000E+00 0. -1.
         23    2    1    2    0    0  0.00000000000E+00  0.00000000000E+00 -0.51339361132E+03  0.52258774064E+03  0.97595832524E+02 0.  0.
        -11    1    3    3    0    0  0.34676476450E+02 -0.33840689258E+02 -0.22566482947E+03  0.23080785413E+03  0.00000000000E+00 0.  1.
         11    1    3    3    0    0 -0.34676476450E+02  0.33840689258E+02 -0.28772878185E+03  0.29177988651E+03  0.00000000000E+00 0. -1.
<mgrwt>
<rscale>  0 0.97595833E+02</rscale>
<asrwt>0</asrwt>
<pdfrwt beam="2">  1        2 0.79690839E-01 0.97595833E+02</pdfrwt>
<pdfrwt beam="1">  1       -2 0.70724102E-03 0.97595833E+02</pdfrwt>
<totfact> 0.18193244E+05</totfact>
</mgrwt>
</event>
<event>
 5    1  0.5681061E+000  0.9114170E+02  0.7546771E-02  0.1300110E+00
         -4   -1    0    0    0  501 -0.00000000000E+00  0.00000000000E+00  0.12662840828E+02  0.12662840828E+02  0.00000000000E+00 0.  1.
          4   -1    0    0  501    0  0.00000000000E+00 -0.00000000000E+00 -0.16399971447E+03  0.16399971447E+03  0.00000000000E+00 0. -1.
         23    2    1    2    0    0  0.00000000000E+00  0.00000000000E+00 -0.15133687364E+03  0.17666255530E+03  0.91141698037E+02 0.  0.
        -11    1    3    3    0    0  0.24372691959E+02 -0.31439015642E+02 -0.32575488694E+02  0.51415973019E+02  0.00000000000E+00 0.  1.
         11    1    3    3    0    0 -0.24372691959E+02  0.31439015642E+02 -0.11876138495E+03  0.12524658228E+03  0.00000000000E+00 0. -1.
<mgrwt>
<rscale>  0 0.91141698E+02</rscale>
<asrwt>0</asrwt>
<pdfrwt beam="2">  1        4 0.25230723E-01 0.91141698E+02</pdfrwt>
<pdfrwt beam="1">  1       -4 0.19481296E-02 0.91141698E+02</pdfrwt>
<totfact> 0.22424976E+04</totfact>
</mgrwt>
</event>
<event>
 5    1  0.5681061E+000  0.9011109E+02  0.7546771E-02  0.1302583E+00
         -4   -1    0    0    0  501 -0.00000000000E+00  0.00000000000E+00  0.31232848963E+02  0.31232848963E+02  0.00000000000E+00 0.  1.
          4   -1    0    0  501    0  0.00000000000E+00 -0.00000000000E+00 -0.64995744365E+02  0.64995744365E+02  0.00000000000E+00 0. -1.
         23    2    1    2    0    0  0.00000000000E+00  0.00000000000E+00 -0.33762895402E+02  0.96228593328E+02  0.90111092924E+02 0.  0.
        -11    1    3    3    0    0  0.14037162050E+02 -0.81643212622E+01  0.27999149981E+02  0.32367428995E+02  0.00000000000E+00 0.  1.
         11    1    3    3    0    0 -0.14037162050E+02  0.81643212622E+01 -0.61762045383E+02  0.63861164333E+02  0.00000000000E+00 0. -1.
<mgrwt>
<rscale>  0 0.90111093E+02</rscale>
<asrwt>0</asrwt>
<pdfrwt beam="2">  1        4 0.99993453E-02 0.90111093E+02</pdfrwt>
<pdfrwt beam="1">  1       -4 0.48050537E-02 0.90111093E+02</pdfrwt>
<totfact> 0.27556694E+04</totfact>
</mgrwt>
</event>
<event>
 5    1  0.5681061E+000  0.9138002E+02  0.7546771E-02  0.1299544E+00
         -1   -1    0    0    0  501 -0.00000000000E+00  0.00000000000E+00  0.12466443992E+02  0.12466443992E+02  0.00000000000E+00 0.  1.
          1   -1    0    0  501    0  0.00000000000E+00 -0.00000000000E+00 -0.16745568795E+03  0.16745568795E+03  0.00000000000E+00 0. -1.
         23    2    1    2    0    0  0.00000000000E+00  0.00000000000E+00 -0.15498924396E+03  0.17992213194E+03  0.91380018713E+02 0.  0.
        -11    1    3    3    0    0 -0.36372975472E+02 -0.21059527073E+01 -0.23209278723E+02  0.43198368028E+02  0.00000000000E+00 0.  1.
         11    1    3    3    0    0  0.36372975472E+02  0.21059527073E+01 -0.13177996523E+03  0.13672376391E+03  0.00000000000E+00 0. -1.
<mgrwt>
<rscale>  0 0.91380019E+02</rscale>
<asrwt>0</asrwt>
<pdfrwt beam="2">  1        1 0.25762411E-01 0.91380019E+02</pdfrwt>
<pdfrwt beam="1">  1       -1 0.19179147E-02 0.91380019E+02</pdfrwt>
<totfact> 0.11376634E+05</totfact>
</mgrwt>
</event>
<event>
 5    1  0.5681061E+000  0.9108954E+02  0.7546771E-02  0.1300234E+00
         -1   -1    0    0    0  501 -0.00000000000E+00  0.00000000000E+00  0.11300085239E+02  0.11300085239E+02  0.00000000000E+00 0.  1.
          1   -1    0    0  501    0  0.00000000000E+00 -0.00000000000E+00 -0.18356728949E+03  0.18356728949E+03  0.00000000000E+00 0. -1.
         23    2    1    2    0    0  0.00000000000E+00  0.00000000000E+00 -0.17226720425E+03  0.19486737473E+03  0.91089538769E+02 0.  0.
        -11    1    3    3    0    0  0.10246601745E+02 -0.41916421558E+02 -0.54959535024E+02  0.69875100956E+02  0.00000000000E+00 0.  1.
         11    1    3    3    0    0 -0.10246601745E+02  0.41916421558E+02 -0.11730766923E+03  0.12499227377E+03  0.00000000000E+00 0. -1.
<mgrwt>
<rscale>  0 0.91089539E+02</rscale>
<asrwt>0</asrwt>
<pdfrwt beam="2">  1        1 0.28241118E-01 0.91089539E+02</pdfrwt>
<pdfrwt beam="1">  1       -1 0.17384748E-02 0.91089539E+02</pdfrwt>
<totfact> 0.11676347E+05</totfact>
</mgrwt>
</event>
<event>
 5    1  0.5681061E+000  0.9158897E+02  0.7546771E-02  0.1299049E+00
         -2   -1    0    0    0  501 -0.00000000000E+00  0.00000000000E+00  0.27655304608E+02  0.27655304608E+02  0.00000000000E+00 0.  1.
          2   -1    0    0  501    0  0.00000000000E+00 -0.00000000000E+00 -0.75831201578E+02  0.75831201578E+02  0.00000000000E+00 0. -1.
         23    2    1    2    0    0  0.00000000000E+00  0.00000000000E+00 -0.48175896970E+02  0.10348650619E+03  0.91588972664E+02 0.  0.
        -11    1    3    3    0    0 -0.19571520018E+02 -0.33997522979E+02  0.26088024237E+01  0.39315160111E+02  0.00000000000E+00 0.  1.
         11    1    3    3    0    0  0.19571520018E+02  0.33997522979E+02 -0.50784699393E+02  0.64171346074E+02  0.00000000000E+00 0. -1.
<mgrwt>
<rscale>  0 0.91588973E+02</rscale>
<asrwt>0</asrwt>
<pdfrwt beam="2">  1        2 0.11666339E-01 0.91588973E+02</pdfrwt>
<pdfrwt beam="1">  1       -2 0.42546623E-02 0.91588973E+02</pdfrwt>
<totfact> 0.11170815E+05</totfact>
</mgrwt>
</event>
<event>
 5    1  0.5681061E+000  0.9009246E+02  0.7546771E-02  0.1302628E+00
          2   -1    0    0  501    0  0.00000000000E+00  0.00000000000E+00  0.20548889443E+02  0.20548889443E+02  0.00000000000E+00 0. -1.
         -2   -1    0    0    0  501 -0.00000000000E+00 -0.00000000000E+00 -0.98748043434E+02  0.98748043434E+02  0.00000000000E+00 0.  1.
         23    2    1    2    0    0  0.00000000000E+00  0.00000000000E+00 -0.78199153991E+02  0.11929693288E+03  0.90092455339E+02 0.  0.
        -11    1    3    3    0    0  0.19781622172E+02 -0.78675441869E+01 -0.91666471416E+02  0.94106072116E+02  0.00000000000E+00 0.  1.
         11    1    3    3    0    0 -0.19781622172E+02  0.78675441869E+01  0.13467317425E+02  0.25190860761E+02  0.00000000000E+00 0. -1.
<mgrwt>
<rscale>  0 0.90092455E+02</rscale>
<asrwt>0</asrwt>
<pdfrwt beam="1">  1        2 0.31613676E-02 0.90092455E+02</pdfrwt>
<pdfrwt beam="2">  1       -2 0.15192007E-01 0.90092455E+02</pdfrwt>
<totfact> 0.82523577E+04</totfact>
</mgrwt>
</event>
<event>
 5    1  0.5681061E+000  0.8984242E+02  0.7546771E-02  0.1303234E+00
         -1   -1    0    0    0  501 -0.00000000000E+00  0.00000000000E+00  0.24655348932E+02  0.24655348932E+02  0.00000000000E+00 0.  1.
          1   -1    0    0  501    0  0.00000000000E+00 -0.00000000000E+00 -0.81844915467E+02  0.81844915467E+02  0.00000000000E+00 0. -1.
         23    2    1    2    0    0  0.00000000000E+00  0.00000000000E+00 -0.57189566534E+02  0.10650026440E+03  0.89842416467E+02 0.  0.
        -11    1    3    3    0    0  0.31690879439E+02  0.14741437592E+02 -0.62045524456E+02  0.71212842430E+02  0.00000000000E+00 0. -1.
         11    1    3    3    0    0 -0.31690879439E+02 -0.14741437592E+02  0.48559579218E+01  0.35287421969E+02  0.00000000000E+00 0.  1.
<mgrwt>
<rscale>  0 0.89842416E+02</rscale>
<asrwt>0</asrwt>
<pdfrwt beam="2">  1        1 0.12591525E-01 0.89842416E+02</pdfrwt>
<pdfrwt beam="1">  1       -1 0.37931306E-02 0.89842416E+02</pdfrwt>
<totfact> 0.10527309E+05</totfact>
</mgrwt>
</event>
<event>
 5    1  0.5681061E+000  0.9070003E+02  0.7546771E-02  0.1301165E+00
         -2   -1    0    0    0  501 -0.00000000000E+00  0.00000000000E+00  0.10344626344E+03  0.10344626344E+03  0.00000000000E+00 0. -1.
          2   -1    0    0  501    0  0.00000000000E+00 -0.00000000000E+00 -0.19881082882E+02  0.19881082882E+02  0.00000000000E+00 0.  1.
         23    2    1    2    0    0  0.00000000000E+00  0.00000000000E+00  0.83565180554E+02  0.12332734632E+03  0.90700027281E+02 0.  0.
        -11    1    3    3    0    0  0.27905251042E+02 -0.35486675102E+02  0.47649400714E+02  0.65638955917E+02  0.00000000000E+00 0. -1.
         11    1    3    3    0    0 -0.27905251042E+02  0.35486675102E+02  0.35915779840E+02  0.57688390401E+02  0.00000000000E+00 0.  1.
<mgrwt>
<rscale>  0 0.90700027E+02</rscale>
<asrwt>0</asrwt>
<pdfrwt beam="2">  1        2 0.30586282E-02 0.90700027E+02</pdfrwt>
<pdfrwt beam="1">  1       -2 0.15914809E-01 0.90700027E+02</pdfrwt>
<totfact> 0.80036900E+04</totfact>
</mgrwt>
</event>
<event>
 5    1  0.5681061E+000  0.9128303E+02  0.7546771E-02  0.1299774E+00
         -4   -1    0    0    0  501 -0.00000000000E+00  0.00000000000E+00  0.39628456543E+02  0.39628456543E+02  0.00000000000E+00 0.  1.
          4   -1    0    0  501    0  0.00000000000E+00 -0.00000000000E+00 -0.52566964635E+02  0.52566964635E+02  0.00000000000E+00 0. -1.
         23    2    1    2    0    0  0.00000000000E+00  0.00000000000E+00 -0.12938508092E+02  0.92195421178E+02  0.91283025227E+02 0.  0.
        -11    1    3    3    0    0  0.17275948556E+02 -0.20005963098E+02  0.31110858642E+02  0.40823798003E+02  0.00000000000E+00 0.  1.
         11    1    3    3    0    0 -0.17275948556E+02  0.20005963098E+02 -0.44049366734E+02  0.51371623175E+02  0.00000000000E+00 0. -1.
<mgrwt>
<rscale>  0 0.91283025E+02</rscale>
<asrwt>0</asrwt>
<pdfrwt beam="2">  1        4 0.80872253E-02 0.91283025E+02</pdfrwt>
<pdfrwt beam="1">  1       -4 0.60966857E-02 0.91283025E+02</pdfrwt>
<totfact> 0.26865912E+04</totfact>
</mgrwt>
</event>
<event>
 5    1  0.5681061E+000  0.9071364E+02  0.7546771E-02  0.1301133E+00
         -2   -1    0    0    0  501 -0.00000000000E+00  0.00000000000E+00  0.23816957039E+02  0.23816957039E+02  0.00000000000E+00 0.  1.
          2   -1    0    0  501    0  0.00000000000E+00 -0.00000000000E+00 -0.86377160931E+02  0.86377160931E+02  0.00000000000E+00 0. -1.
         23    2    1    2    0    0  0.00000000000E+00  0.00000000000E+00 -0.62560203892E+02  0.11019411797E+03  0.90713640232E+02 0.  0.
        -11    1    3    3    0    0  0.60121075191E+01 -0.41718952026E+02 -0.51629370014E+02  0.66649893046E+02  0.00000000000E+00 0. -1.
         11    1    3    3    0    0 -0.60121075191E+01  0.41718952026E+02 -0.10930833878E+02  0.43544224924E+02  0.00000000000E+00 0.  1.
<mgrwt>
<rscale>  0 0.90713640E+02</rscale>
<asrwt>0</asrwt>
<pdfrwt beam="2">  1        2 0.13288794E-01 0.90713640E+02</pdfrwt>
<pdfrwt beam="1">  1       -2 0.36641472E-02 0.90713640E+02</pdfrwt>
<totfact> 0.11909811E+05</totfact>
</mgrwt>
</event>
<event>
 5    1  0.5681061E+000  0.9415187E+02  0.7546771E-02  0.1293098E+00
          1   -1    0    0  501    0  0.00000000000E+00  0.00000000000E+00  0.19748138873E+02  0.19748138873E+02  0.00000000000E+00 0. -1.
         -1   -1    0    0    0  501 -0.00000000000E+00 -0.00000000000E+00 -0.11222039076E+03  0.11222039076E+03  0.00000000000E+00 0.  1.
         23    2    1    2    0    0  0.00000000000E+00  0.00000000000E+00 -0.92472251883E+02  0.13196852963E+03  0.94151874353E+02 0.  0.
        -11    1    3    3    0    0 -0.39181423735E+02 -0.18939097394E+02 -0.71398503465E+02  0.83615905622E+02  0.00000000000E+00 0.  1.
         11    1    3    3    0    0  0.39181423735E+02  0.18939097394E+02 -0.21073748418E+02  0.48352624007E+02  0.00000000000E+00 0. -1.
<mgrwt>
<rscale>  0 0.94151874E+02</rscale>
<asrwt>0</asrwt>
<pdfrwt beam="1">  1        1 0.30381752E-02 0.94151874E+02</pdfrwt>
<pdfrwt beam="2">  1       -1 0.17264676E-01 0.94151874E+02</pdfrwt>
<totfact> 0.73253645E+04</totfact>
</mgrwt>
</event>
<event>
 5    1  0.5681061E+000  0.9153016E+02  0.7546771E-02  0.1299188E+00
          1   -1    0    0  501    0  0.00000000000E+00  0.00000000000E+00  0.48693877064E+02  0.48693877064E+02  0.00000000000E+00 0. -1.
         -1   -1    0    0    0  501 -0.00000000000E+00 -0.00000000000E+00 -0.43012439356E+02  0.43012439356E+02  0.00000000000E+00 0.  1.
         23    2    1    2    0    0  0.00000000000E+00  0.00000000000E+00  0.56814377074E+01  0.91706316420E+02  0.91530157527E+02 0.  0.
        -11    1    3    3    0    0 -0.32047973596E+02  0.31680059513E+02 -0.51586092412E+01  0.45357579650E+02  0.00000000000E+00 0. -1.
         11    1    3    3    0    0  0.32047973596E+02 -0.31680059513E+02  0.10840046949E+02  0.46348736770E+02  0.00000000000E+00 0.  1.
<mgrwt>
<rscale>  0 0.91530158E+02</rscale>
<asrwt>0</asrwt>
<pdfrwt beam="1">  1        1 0.74913657E-02 0.91530158E+02</pdfrwt>
<pdfrwt beam="2">  1       -1 0.66172983E-02 0.91530158E+02</pdfrwt>
<totfact> 0.92385436E+04</totfact>
</mgrwt>
</event>
<event>
 5    1  0.5681061E+000  0.8912271E+02  0.7546771E-02  0.1304990E+00
         -1   -1    0    0    0  501 -0.00000000000E+00  0.00000000000E+00  0.50458804283E+02  0.50458804283E+02  0.00000000000E+00 0.  1.
          1   -1    0    0  501    0  0.00000000000E+00 -0.00000000000E+00 -0.39353182511E+02  0.39353182511E+02  0.00000000000E+00 0. -1.
         23    2    1    2    0    0  0.00000000000E+00  0.00000000000E+00  0.11105621772E+02  0.89811986794E+02  0.89122713923E+02 0.  0.
        -11    1    3    3    0    0  0.40781787959E+02  0.68095697604E+01  0.22300308588E+02  0.46976890409E+02  0.00000000000E+00 0.  1.
         11    1    3    3    0    0 -0.40781787959E+02 -0.68095697604E+01 -0.11194686816E+02  0.42835096385E+02  0.00000000000E+00 0. -1.
<mgrwt>
<rscale>  0 0.89122714E+02</rscale>
<asrwt>0</asrwt>
<pdfrwt beam="2">  1        1 0.60543358E-02 0.89122714E+02</pdfrwt>
<pdfrwt beam="1">  1       -1 0.77628930E-02 0.89122714E+02</pdfrwt>
<totfact> 0.96439583E+04</totfact>
</mgrwt>
</event>
<event>
 5    1  0.5681061E+000  0.8957389E+02  0.7546771E-02  0.1303887E+00
         -1   -1    0    0    0  501 -0.00000000000E+00  0.00000000000E+00  0.48363354454E+02  0.48363354454E+02  0.00000000000E+00 0.  1.
          1   -1    0    0  501    0  0.00000000000E+00 -0.00000000000E+00 -0.41475004911E+02  0.41475004911E+02  0.00000000000E+00 0. -1.
         23    2    1    2    0    0  0.00000000000E+00  0.00000000000E+00  0.68883495437E+01  0.89838359365E+02  0.89573888238E+02 0.  0.
        -11    1    3    3    0    0  0.70519180209E+01 -0.36524567592E+02 -0.21571335241E+02  0.43001117307E+02  0.00000000000E+00 0. -1.
         11    1    3    3    0    0 -0.70519180209E+01  0.36524567592E+02  0.28459684785E+02  0.46837242058E+02  0.00000000000E+00 0.  1.
<mgrwt>
<rscale>  0 0.89573888E+02</rscale>
<asrwt>0</asrwt>
<pdfrwt beam="2">  1        1 0.63807700E-02 0.89573888E+02</pdfrwt>
<pdfrwt beam="1">  1       -1 0.74405161E-02 0.89573888E+02</pdfrwt>
<totfact> 0.95827110E+04</totfact>
</mgrwt>
</event>
<event>
 5    1  0.5681061E+000  0.8943990E+02  0.7546771E-02  0.1304214E+00
         -4   -1    0    0    0  501 -0.00000000000E+00  0.00000000000E+00  0.34397559388E+03  0.34397559388E+03  0.00000000000E+00 0.  1.
          4   -1    0    0  501    0  0.00000000000E+00 -0.00000000000E+00 -0.58139997335E+01  0.58139997335E+01  0.00000000000E+00 0. -1.
         23    2    1    2    0    0  0.00000000000E+00  0.00000000000E+00  0.33816159415E+03  0.34978959362E+03  0.89439901859E+02 0.  0.
        -11    1    3    3    0    0  0.39010111206E+02  0.19169485063E+02  0.21021325835E+03  0.21465989826E+03  0.00000000000E+00 0. -1.
         11    1    3    3    0    0 -0.39010111206E+02 -0.19169485063E+02  0.12794833580E+03  0.13512969536E+03  0.00000000000E+00 0.  1.
<mgrwt>
<rscale>  0 0.89439902E+02</rscale>
<asrwt>0</asrwt>
<pdfrwt beam="2">  1        4 0.89446176E-03 0.89439902E+02</pdfrwt>
<pdfrwt beam="1">  1       -4 0.52919306E-01 0.89439902E+02</pdfrwt>
<totfact> 0.17257741E+04</totfact>
</mgrwt>
</event>
<event>
 5    1  0.5681061E+000  0.9238297E+02  0.7546771E-02  0.1297181E+00
          2   -1    0    0  501    0  0.00000000000E+00  0.00000000000E+00  0.15378256346E+03  0.15378256346E+03  0.00000000000E+00 0. -1.
         -2   -1    0    0    0  501 -0.00000000000E+00 -0.00000000000E+00 -0.13874482514E+02  0.13874482514E+02  0.00000000000E+00 0.  1.
         23    2    1    2    0    0  0.00000000000E+00  0.00000000000E+00  0.13990808094E+03  0.16765704597E+03  0.92382974356E+02 0.  0.
        -11    1    3    3    0    0  0.17401433276E+02  0.17695346125E+02  0.14065502464E+03  0.14282776730E+03  0.00000000000E+00 0. -1.
         11    1    3    3    0    0 -0.17401433276E+02 -0.17695346125E+02 -0.74694369817E+00  0.24829278674E+02  0.00000000000E+00 0.  1.
<mgrwt>
<rscale>  0 0.92382974E+02</rscale>
<asrwt>0</asrwt>
<pdfrwt beam="1">  1        2 0.23658855E-01 0.92382974E+02</pdfrwt>
<pdfrwt beam="2">  1       -2 0.21345359E-02 0.92382974E+02</pdfrwt>
<totfact> 0.13605726E+05</totfact>
</mgrwt>
</event>
<event>
 5    1  0.5681061E+000  0.9066351E+02  0.7546771E-02  0.1301253E+00
          3   -1    0    0  501    0  0.00000000000E+00  0.00000000000E+00  0.34851670201E+03  0.34851670201E+03  0.00000000000E+00 0. -1.
         -3   -1    0    0    0  501 -0.00000000000E+00 -0.00000000000E+00 -0.58963258978E+01  0.58963258978E+01  0.00000000000E+00 0.  1.
         23    2    1    2    0    0  0.00000000000E+00  0.00000000000E+00  0.34262037612E+03  0.35441302791E+03  0.90663510982E+02 0.  0.
        -11    1    3    3    0    0 -0.39231873002E+02 -0.14163806345E+02  0.24071353832E+03  0.24430055424E+03  0.00000000000E+00 0. -1.
         11    1    3    3    0    0  0.39231873002E+02  0.14163806345E+02  0.10190683780E+03  0.11011247368E+03  0.00000000000E+00 0.  1.
<mgrwt>
<rscale>  0 0.90663511E+02</rscale>
<asrwt>0</asrwt>
<pdfrwt beam="1">  1        3 0.53617938E-01 0.90663511E+02</pdfrwt>
<pdfrwt beam="2">  1       -3 0.90712733E-03 0.90663511E+02</pdfrwt>
<totfact> 0.22403824E+04</totfact>
</mgrwt>
</event>
<event>
 5    1  0.5681061E+000  0.9240379E+02  0.7546771E-02  0.1297133E+00
          1   -1    0    0  501    0  0.00000000000E+00  0.00000000000E+00  0.52198870046E+02  0.52198870046E+02  0.00000000000E+00 0. -1.
         -1   -1    0    0    0  501 -0.00000000000E+00 -0.00000000000E+00 -0.40893892364E+02  0.40893892364E+02  0.00000000000E+00 0.  1.
         23    2    1    2    0    0  0.00000000000E+00  0.00000000000E+00  0.11304977682E+02  0.93092762409E+02  0.92403787220E+02 0.  0.
        -11    1    3    3    0    0 -0.38479348152E+02  0.11880370907E+02  0.28466677849E+02  0.49316885494E+02  0.00000000000E+00 0. -1.
         11    1    3    3    0    0  0.38479348152E+02 -0.11880370907E+02 -0.17161700167E+02  0.43775876915E+02  0.00000000000E+00 0.  1.
<mgrwt>
<rscale>  0 0.92403787E+02</rscale>
<asrwt>0</asrwt>
<pdfrwt beam="1">  1        1 0.80305954E-02 0.92403787E+02</pdfrwt>
<pdfrwt beam="2">  1       -1 0.62913681E-02 0.92403787E+02</pdfrwt>
<totfact> 0.90910105E+04</totfact>
</mgrwt>
</event>
<event>
 5    1  0.5681061E+000  0.9797950E+02  0.7546771E-02  0.1284603E+00
          2   -1    0    0  501    0  0.00000000000E+00  0.00000000000E+00  0.33595460090E+03  0.33595460090E+03  0.00000000000E+00 0. -1.
         -2   -1    0    0    0  501 -0.00000000000E+00 -0.00000000000E+00 -0.71438094523E+01  0.71438094523E+01  0.00000000000E+00 0.  1.
         23    2    1    2    0    0  0.00000000000E+00  0.00000000000E+00  0.32881079144E+03  0.34309841035E+03  0.97979500987E+02 0.  0.
        -11    1    3    3    0    0 -0.43354644084E+02  0.22686686789E+02  0.17275447321E+03  0.17955060271E+03  0.00000000000E+00 0. -1.
         11    1    3    3    0    0  0.43354644084E+02 -0.22686686789E+02  0.15605631824E+03  0.16354780764E+03  0.00000000000E+00 0.  1.
<mgrwt>
<rscale>  0 0.97979501E+02</rscale>
<asrwt>0</asrwt>
<pdfrwt beam="1">  1        2 0.51685311E-01 0.97979501E+02</pdfrwt>
<pdfrwt beam="2">  1       -2 0.10990479E-02 0.97979501E+02</pdfrwt>
<totfact> 0.15456005E+05</totfact>
</mgrwt>
</event>
<event>
 5    1  0.5681061E+000  0.9016583E+02  0.7546771E-02  0.1302451E+00
         -1   -1    0    0    0  501 -0.00000000000E+00  0.00000000000E+00  0.72274097823E+01  0.72274097823E+01  0.00000000000E+00 0.  1.
          1   -1    0    0  501    0  0.00000000000E+00 -0.00000000000E+00 -0.28121684099E+03  0.28121684099E+03  0.00000000000E+00 0. -1.
         23    2    1    2    0    0  0.00000000000E+00  0.00000000000E+00 -0.27398943120E+03  0.28844425077E+03  0.90165832719E+02 0.  0.
        -11    1    3    3    0    0  0.37461659622E+02  0.13459066274E+02 -0.69287777121E+02  0.79908187722E+02  0.00000000000E+00 0.  1.
         11    1    3    3    0    0 -0.37461659622E+02 -0.13459066274E+02 -0.20470165408E+03  0.20853606305E+03  0.00000000000E+00 0. -1.
<mgrwt>
<rscale>  0 0.90165833E+02</rscale>
<asrwt>0</asrwt>
<pdfrwt beam="2">  1        1 0.43264136E-01 0.90165833E+02</pdfrwt>
<pdfrwt beam="1">  1       -1 0.11119090E-02 0.90165833E+02</pdfrwt>
<totfact> 0.13035463E+05</totfact>
</mgrwt>
</event>
<event>
 5    1  0.5681061E+000  0.8860974E+02  0.7546771E-02  0.1306254E+00
          2   -1    0    0  501    0  0.00000000000E+00  0.00000000000E+00  0.28645972767E+02  0.28645972767E+02  0.00000000000E+00 0. -1.
         -2   -1    0    0    0  501 -0.00000000000E+00 -0.00000000000E+00 -0.68523471645E+02  0.68523471645E+02  0.00000000000E+00 0.  1.
         23    2    1    2    0    0  0.00000000000E+00  0.00000000000E+00 -0.39877498878E+02  0.97169444412E+02  0.88609739931E+02 0.  0.
        -11    1    3    3    0    0 -0.28083652602E+02  0.59110691873E+01 -0.56952683909E+02  0.63774920516E+02  0.00000000000E+00 0.  1.
         11    1    3    3    0    0  0.28083652602E+02 -0.59110691873E+01  0.17075185032E+02  0.33394523896E+02  0.00000000000E+00 0. -1.
<mgrwt>
<rscale>  0 0.88609740E+02</rscale>
<asrwt>0</asrwt>
<pdfrwt beam="1">  1        2 0.44070728E-02 0.88609740E+02</pdfrwt>
<pdfrwt beam="2">  1       -2 0.10542072E-01 0.88609740E+02</pdfrwt>
<totfact> 0.95104559E+04</totfact>
</mgrwt>
</event>
<event>
 5    1  0.5681061E+000  0.8915560E+02  0.7546771E-02  0.1304910E+00
          1   -1    0    0  501    0  0.00000000000E+00  0.00000000000E+00  0.11227579187E+03  0.11227579187E+03  0.00000000000E+00 0. -1.
         -1   -1    0    0    0  501 -0.00000000000E+00 -0.00000000000E+00 -0.17699098085E+02  0.17699098085E+02  0.00000000000E+00 0.  1.
         23    2    1    2    0    0  0.00000000000E+00  0.00000000000E+00  0.94576693783E+02  0.12997488995E+03  0.89155599999E+02 0.  0.
        -11    1    3    3    0    0 -0.17822728982E+02 -0.35604038683E+02  0.76513759858E+02  0.86253421303E+02  0.00000000000E+00 0. -1.
         11    1    3    3    0    0  0.17822728982E+02  0.35604038683E+02  0.18062933925E+02  0.43721468649E+02  0.00000000000E+00 0.  1.
<mgrwt>
<rscale>  0 0.89155600E+02</rscale>
<asrwt>0</asrwt>
<pdfrwt beam="1">  1        1 0.17273198E-01 0.89155600E+02</pdfrwt>
<pdfrwt beam="2">  1       -1 0.27229382E-02 0.89155600E+02</pdfrwt>
<totfact> 0.11318448E+05</totfact>
</mgrwt>
</event>
<event>
 5    1  0.5681061E+000  0.8857287E+02  0.7546771E-02  0.1306345E+00
          1   -1    0    0  501    0  0.00000000000E+00  0.00000000000E+00  0.77775802347E+01  0.77775802347E+01  0.00000000000E+00 0. -1.
         -1   -1    0    0    0  501 -0.00000000000E+00 -0.00000000000E+00 -0.25217205663E+03  0.25217205663E+03  0.00000000000E+00 0.  1.
         23    2    1    2    0    0  0.00000000000E+00  0.00000000000E+00 -0.24439447640E+03  0.25994963686E+03  0.88572871770E+02 0.  0.
        -11    1    3    3    0    0 -0.36173781950E+02  0.13070945337E+02 -0.57770628091E+02  0.69403440712E+02  0.00000000000E+00 0.  1.
         11    1    3    3    0    0  0.36173781950E+02 -0.13070945337E+02 -0.18662384830E+03  0.19054619615E+03  0.00000000000E+00 0. -1.
<mgrwt>
<rscale>  0 0.88572872E+02</rscale>
<asrwt>0</asrwt>
<pdfrwt beam="1">  1        1 0.11965508E-02 0.88572872E+02</pdfrwt>
<pdfrwt beam="2">  1       -1 0.38795700E-01 0.88572872E+02</pdfrwt>
<totfact> 0.69642227E+04</totfact>
</mgrwt>
</event>
<event>
 5    1  0.5681061E+000  0.8713045E+02  0.7546771E-02  0.1309953E+00
         -2   -1    0    0    0  501 -0.00000000000E+00  0.00000000000E+00  0.11177310229E+02  0.11177310229E+02  0.00000000000E+00 0.  1.
          2   -1    0    0  501    0  0.00000000000E+00 -0.00000000000E+00 -0.16980192442E+03  0.16980192442E+03  0.00000000000E+00 0. -1.
         23    2    1    2    0    0  0.00000000000E+00  0.00000000000E+00 -0.15862461420E+03  0.18097923465E+03  0.87130449023E+02 0.  0.
        -11    1    3    3    0    0  0.76833284332E+01  0.26164341506E+02 -0.14988267357E+03  0.15234310663E+03  0.00000000000E+00 0. -1.
         11    1    3    3    0    0 -0.76833284332E+01 -0.26164341506E+02 -0.87419406301E+01  0.28636128024E+02  0.00000000000E+00 0.  1.
<mgrwt>
<rscale>  0 0.87130449E+02</rscale>
<asrwt>0</asrwt>
<pdfrwt beam="2">  1        2 0.26123374E-01 0.87130449E+02</pdfrwt>
<pdfrwt beam="1">  1       -2 0.17195861E-02 0.87130449E+02</pdfrwt>
<totfact> 0.16490515E+05</totfact>
</mgrwt>
</event>
<event>
 5    1  0.5681061E+000  0.8842817E+02  0.7546771E-02  0.1306703E+00
         -1   -1    0    0    0  501 -0.00000000000E+00  0.00000000000E+00  0.12902412002E+03  0.12902412002E+03  0.00000000000E+00 0.  1.
          1   -1    0    0  501    0  0.00000000000E+00 -0.00000000000E+00 -0.15151315841E+02  0.15151315841E+02  0.00000000000E+00 0. -1.
         23    2    1    2    0    0  0.00000000000E+00  0.00000000000E+00  0.11387280418E+03  0.14417543586E+03  0.88428167311E+02 0.  0.
        -11    1    3    3    0    0 -0.23615491347E+02 -0.14374753319E+02  0.11319337166E+03  0.11652066063E+03  0.00000000000E+00 0.  1.
         11    1    3    3    0    0  0.23615491347E+02  0.14374753319E+02  0.67943251335E+00  0.27654775232E+02  0.00000000000E+00 0. -1.
<mgrwt>
<rscale>  0 0.88428167E+02</rscale>
<asrwt>0</asrwt>
<pdfrwt beam="2">  1        1 0.23309718E-02 0.88428167E+02</pdfrwt>
<pdfrwt beam="1">  1       -1 0.19849864E-01 0.88428167E+02</pdfrwt>
<totfact> 0.83718333E+04</totfact>
</mgrwt>
</event>
<event>
 5    1  0.5681061E+000  0.8878673E+02  0.7546771E-02  0.1305817E+00
         -3   -1    0    0    0  501 -0.00000000000E+00  0.00000000000E+00  0.28252642142E+02  0.28252642142E+02  0.00000000000E+00 0.  1.
          3   -1    0    0  501    0  0.00000000000E+00 -0.00000000000E+00 -0.69755273088E+02  0.69755273088E+02  0.00000000000E+00 0. -1.
         23    2    1    2    0    0  0.00000000000E+00  0.00000000000E+00 -0.41502630946E+02  0.98007915230E+02  0.88786728018E+02 0.  0.
        -11    1    3    3    0    0  0.41735111557E+02  0.15074503076E+02 -0.19307585890E+02  0.48392592952E+02  0.00000000000E+00 0.  1.
         11    1    3    3    0    0 -0.41735111557E+02 -0.15074503076E+02 -0.22195045056E+02  0.49615322278E+02  0.00000000000E+00 0. -1.
<mgrwt>
<rscale>  0 0.88786728E+02</rscale>
<asrwt>0</asrwt>
<pdfrwt beam="2">  1        3 0.10731580E-01 0.88786728E+02</pdfrwt>
<pdfrwt beam="1">  1       -3 0.43465603E-02 0.88786728E+02</pdfrwt>
<totfact> 0.37422506E+04</totfact>
</mgrwt>
</event>
<event>
 5    1  0.5681061E+000  0.9011674E+02  0.7546771E-02  0.1302569E+00
          1   -1    0    0  501    0  0.00000000000E+00  0.00000000000E+00  0.41381431215E+02  0.41381431215E+02  0.00000000000E+00 0. -1.
         -1   -1    0    0    0  501 -0.00000000000E+00 -0.00000000000E+00 -0.49062024490E+02  0.49062024490E+02  0.00000000000E+00 0.  1.
         23    2    1    2    0    0  0.00000000000E+00  0.00000000000E+00 -0.76805932754E+01  0.90443455705E+02  0.90116741879E+02 0.  0.
        -11    1    3    3    0    0  0.37074674652E+02  0.62163200112E+01 -0.28771505460E+02  0.47338923324E+02  0.00000000000E+00 0.  1.
         11    1    3    3    0    0 -0.37074674652E+02 -0.62163200112E+01  0.21090912184E+02  0.43104532381E+02  0.00000000000E+00 0. -1.
<mgrwt>
<rscale>  0 0.90116742E+02</rscale>
<asrwt>0</asrwt>
<pdfrwt beam="1">  1        1 0.63663740E-02 0.90116742E+02</pdfrwt>
<pdfrwt beam="2">  1       -1 0.75480038E-02 0.90116742E+02</pdfrwt>
<totfact> 0.94182038E+04</totfact>
</mgrwt>
</event>
<event>
 5    1  0.5681061E+000  0.9004700E+02  0.7546771E-02  0.1302738E+00
          1   -1    0    0  501    0  0.00000000000E+00  0.00000000000E+00  0.70718358793E+02  0.70718358793E+02  0.00000000000E+00 0. -1.
         -1   -1    0    0    0  501 -0.00000000000E+00 -0.00000000000E+00 -0.28664631135E+02  0.28664631135E+02  0.00000000000E+00 0.  1.
         23    2    1    2    0    0  0.00000000000E+00  0.00000000000E+00  0.42053727658E+02  0.99382989928E+02  0.90047002599E+02 0.  0.
        -11    1    3    3    0    0  0.61327321473E+01 -0.42589445483E+02  0.63997059090E+01  0.43502040249E+02  0.00000000000E+00 0.  1.
         11    1    3    3    0    0 -0.61327321473E+01  0.42589445483E+02  0.35654021750E+02  0.55880949679E+02  0.00000000000E+00 0. -1.
<mgrwt>
<rscale>  0 0.90047003E+02</rscale>
<asrwt>0</asrwt>
<pdfrwt beam="1">  1        1 0.10879748E-01 0.90047003E+02</pdfrwt>
<pdfrwt beam="2">  1       -1 0.44099433E-02 0.90047003E+02</pdfrwt>
<totfact> 0.10227313E+05</totfact>
</mgrwt>
</event>
<event>
 5    1  0.5681061E+000  0.9119145E+02  0.7546771E-02  0.1299992E+00
         -3   -1    0    0    0  501 -0.00000000000E+00  0.00000000000E+00  0.71625292195E+02  0.71625292195E+02  0.00000000000E+00 0.  1.
          3   -1    0    0  501    0  0.00000000000E+00 -0.00000000000E+00 -0.29025644165E+02  0.29025644165E+02  0.00000000000E+00 0. -1.
         23    2    1    2    0    0  0.00000000000E+00  0.00000000000E+00  0.42599648030E+02  0.10065093636E+03  0.91191452330E+02 0.  0.
        -11    1    3    3    0    0 -0.38508680704E+02 -0.18030064106E+02  0.39468493536E+02  0.58015202173E+02  0.00000000000E+00 0.  1.
         11    1    3    3    0    0  0.38508680704E+02  0.18030064106E+02  0.31311544941E+01  0.42635734187E+02  0.00000000000E+00 0. -1.
<mgrwt>
<rscale>  0 0.91191452E+02</rscale>
<asrwt>0</asrwt>
<pdfrwt beam="2">  1        3 0.44654837E-02 0.91191452E+02</pdfrwt>
<pdfrwt beam="1">  1       -3 0.11019276E-01 0.91191452E+02</pdfrwt>
<totfact> 0.34609104E+04</totfact>
</mgrwt>
</event>
<event>
 5    1  0.5681061E+000  0.9143159E+02  0.7546771E-02  0.1299421E+00
         -2   -1    0    0    0  501 -0.00000000000E+00  0.00000000000E+00  0.71568553070E+02  0.71568553070E+02  0.00000000000E+00 0.  1.
          2   -1    0    0  501    0  0.00000000000E+00 -0.00000000000E+00 -0.29201846510E+02  0.29201846510E+02  0.00000000000E+00 0. -1.
         23    2    1    2    0    0  0.00000000000E+00  0.00000000000E+00  0.42366706560E+02  0.10077039958E+03  0.91431589764E+02 0.  0.
        -11    1    3    3    0    0  0.33311612963E+02 -0.29385605279E+02  0.33092409043E+02  0.55392101351E+02  0.00000000000E+00 0.  1.
         11    1    3    3    0    0 -0.33311612963E+02  0.29385605279E+02  0.92742975179E+01  0.45378298230E+02  0.00000000000E+00 0. -1.
<mgrwt>
<rscale>  0 0.91431590E+02</rscale>
<asrwt>0</asrwt>
<pdfrwt beam="2">  1        2 0.44925918E-02 0.91431590E+02</pdfrwt>
<pdfrwt beam="1">  1       -2 0.11010547E-01 0.91431590E+02</pdfrwt>
<totfact> 0.87102699E+04</totfact>
</mgrwt>
</event>
<event>
 5    1  0.5681061E+000  0.9359761E+02  0.7546771E-02  0.1294366E+00
         -3   -1    0    0    0  501 -0.00000000000E+00  0.00000000000E+00  0.31525243073E+03  0.31525243073E+03  0.00000000000E+00 0.  1.
          3   -1    0    0  501    0  0.00000000000E+00 -0.00000000000E+00 -0.69472212263E+01  0.69472212263E+01  0.00000000000E+00 0. -1.
         23    2    1    2    0    0  0.00000000000E+00  0.00000000000E+00  0.30830520950E+03  0.32219965195E+03  0.93597614893E+02 0.  0.
        -11    1    3    3    0    0  0.41766117145E+02 -0.10480549552E+02  0.91063987142E+02  0.10073182325E+03  0.00000000000E+00 0. -1.
         11    1    3    3    0    0 -0.41766117145E+02  0.10480549552E+02  0.21724122236E+03  0.22146782871E+03  0.00000000000E+00 0.  1.
<mgrwt>
<rscale>  0 0.93597615E+02</rscale>
<asrwt>0</asrwt>
<pdfrwt beam="2">  1        3 0.10688035E-02 0.93597615E+02</pdfrwt>
<pdfrwt beam="1">  1       -3 0.48500363E-01 0.93597615E+02</pdfrwt>
<totfact> 0.21610064E+04</totfact>
</mgrwt>
</event>
<event>
 5    1  0.5681061E+000  0.9208019E+02  0.7546771E-02  0.1297891E+00
          2   -1    0    0  501    0  0.00000000000E+00  0.00000000000E+00  0.93147905765E+01  0.93147905765E+01  0.00000000000E+00 0. -1.
         -2   -1    0    0    0  501 -0.00000000000E+00 -0.00000000000E+00 -0.22756179569E+03  0.22756179569E+03  0.00000000000E+00 0.  1.
         23    2    1    2    0    0  0.00000000000E+00  0.00000000000E+00 -0.21824700511E+03  0.23687658627E+03  0.92080192660E+02 0.  0.
        -11    1    3    3    0    0 -0.45786500501E+02  0.28362776905E+01 -0.11916693535E+03  0.12769184226E+03  0.00000000000E+00 0. -1.
         11    1    3    3    0    0  0.45786500501E+02 -0.28362776905E+01 -0.99080069765E+02  0.10918474401E+03  0.00000000000E+00 0.  1.
<mgrwt>
<rscale>  0 0.92080193E+02</rscale>
<asrwt>0</asrwt>
<pdfrwt beam="1">  1        2 0.14330447E-02 0.92080193E+02</pdfrwt>
<pdfrwt beam="2">  1       -2 0.35009507E-01 0.92080193E+02</pdfrwt>
<totfact> 0.57326515E+04</totfact>
</mgrwt>
</event>
<event>
 5    1  0.5681061E+000  0.9194147E+02  0.7546771E-02  0.1298217E+00
         -1   -1    0    0    0  501 -0.00000000000E+00  0.00000000000E+00  0.37531491789E+02  0.37531491789E+02  0.00000000000E+00 0.  1.
          1   -1    0    0  501    0  0.00000000000E+00 -0.00000000000E+00 -0.56307603716E+02  0.56307603716E+02  0.00000000000E+00 0. -1.
         23    2    1    2    0    0  0.00000000000E+00  0.00000000000E+00 -0.18776111927E+02  0.93839095505E+02  0.91941467609E+02 0.  0.
        -11    1    3    3    0    0 -0.26754573112E+02  0.37241422433E+02 -0.60686011820E+01  0.46255363446E+02  0.00000000000E+00 0.  1.
         11    1    3    3    0    0  0.26754573112E+02 -0.37241422433E+02 -0.12707510745E+02  0.47583732058E+02  0.00000000000E+00 0. -1.
<mgrwt>
<rscale>  0 0.91941468E+02</rscale>
<asrwt>0</asrwt>
<pdfrwt beam="2">  1        1 0.86627082E-02 0.91941468E+02</pdfrwt>
<pdfrwt beam="1">  1       -1 0.57740757E-02 0.91941468E+02</pdfrwt>
<totfact> 0.93257227E+04</totfact>
</mgrwt>
</event>
<event>
 5    1  0.5681061E+000  0.9545609E+02  0.7546771E-02  0.1290152E+00
         -1   -1    0    0    0  501 -0.00000000000E+00  0.00000000000E+00  0.64056945618E+02  0.64056945618E+02  0.00000000000E+00 0.  1.
          1   -1    0    0  501    0  0.00000000000E+00 -0.00000000000E+00 -0.35561579303E+02  0.35561579303E+02  0.00000000000E+00 0. -1.
         23    2    1    2    0    0  0.00000000000E+00  0.00000000000E+00  0.28495366315E+02  0.99618524921E+02  0.95456087318E+02 0.  0.
        -11    1    3    3    0    0 -0.12106726635E+02 -0.45105797095E+02  0.39767575261E+01  0.46871317048E+02  0.00000000000E+00 0. -1.
         11    1    3    3    0    0  0.12106726635E+02  0.45105797095E+02  0.24518608789E+02  0.52747207873E+02  0.00000000000E+00 0.  1.
<mgrwt>
<rscale>  0 0.95456087E+02</rscale>
<asrwt>0</asrwt>
<pdfrwt beam="2">  1        1 0.54710122E-02 0.95456087E+02</pdfrwt>
<pdfrwt beam="1">  1       -1 0.98549147E-02 0.95456087E+02</pdfrwt>
<totfact> 0.78107608E+04</totfact>
</mgrwt>
</event>
<event>
 5    1  0.5681061E+000  0.8929628E+02  0.7546771E-02  0.1304565E+00
          1   -1    0    0  501    0  0.00000000000E+00  0.00000000000E+00  0.40520848722E+01  0.40520848722E+01  0.00000000000E+00 0. -1.
         -1   -1    0    0    0  501 -0.00000000000E+00 -0.00000000000E+00 -0.49195821628E+03  0.49195821628E+03  0.00000000000E+00 0.  1.
         23    2    1    2    0    0  0.00000000000E+00  0.00000000000E+00 -0.48790613141E+03  0.49601030115E+03  0.89296280906E+02 0.  0.
        -11    1    3    3    0    0  0.35072056890E+02 -0.27284663514E+02 -0.21976993957E+03  0.22421714559E+03  0.00000000000E+00 0.  1.
         11    1    3    3    0    0 -0.35072056890E+02  0.27284663514E+02 -0.26813619184E+03  0.27179315557E+03  0.00000000000E+00 0. -1.
<mgrwt>
<rscale>  0 0.89296281E+02</rscale>
<asrwt>0</asrwt>
<pdfrwt beam="1">  1        1 0.62339812E-03 0.89296281E+02</pdfrwt>
<pdfrwt beam="2">  1       -1 0.75685826E-01 0.89296281E+02</pdfrwt>
<totfact> 0.50178145E+04</totfact>
</mgrwt>
</event>
<event>
 5    1  0.5681061E+000  0.9068611E+02  0.7546771E-02  0.1301199E+00
         -1   -1    0    0    0  501 -0.00000000000E+00  0.00000000000E+00  0.89506290182E+02  0.89506290182E+02  0.00000000000E+00 0.  1.
          1   -1    0    0  501    0  0.00000000000E+00 -0.00000000000E+00 -0.22970372035E+02  0.22970372035E+02  0.00000000000E+00 0. -1.
         23    2    1    2    0    0  0.00000000000E+00  0.00000000000E+00  0.66535918147E+02  0.11247666222E+03  0.90686113268E+02 0.  0.
        -11    1    3    3    0    0 -0.33098039557E+02  0.75182697785E+01  0.70558871324E+02  0.78297885831E+02  0.00000000000E+00 0.  1.
         11    1    3    3    0    0  0.33098039557E+02 -0.75182697785E+01 -0.40229531771E+01  0.34178776386E+02  0.00000000000E+00 0. -1.
<mgrwt>
<rscale>  0 0.90686113E+02</rscale>
<asrwt>0</asrwt>
<pdfrwt beam="2">  1        1 0.35339034E-02 0.90686113E+02</pdfrwt>
<pdfrwt beam="1">  1       -1 0.13770198E-01 0.90686113E+02</pdfrwt>
<totfact> 0.84180922E+04</totfact>
</mgrwt>
</event>
<event>
 5    1  0.5681061E+000  0.8395679E+02  0.7546771E-02  0.1318183E+00
         -1   -1    0    0    0  501 -0.00000000000E+00  0.00000000000E+00  0.11275976388E+02  0.11275976388E+02  0.00000000000E+00 0.  1.
          1   -1    0    0  501    0  0.00000000000E+00 -0.00000000000E+00 -0.15627787692E+03  0.15627787692E+03  0.00000000000E+00 0. -1.
         23    2    1    2    0    0  0.00000000000E+00  0.00000000000E+00 -0.14500190053E+03  0.16755385331E+03  0.83956790078E+02 0.  0.
        -11    1    3    3    0    0 -0.20437083875E+02 -0.33184527580E+02 -0.41371732720E+02  0.56837553926E+02  0.00000000000E+00 0.  1.
         11    1    3    3    0    0  0.20437083875E+02  0.33184527580E+02 -0.10363016781E+03  0.11071629938E+03  0.00000000000E+00 0. -1.
<mgrwt>
<rscale>  0 0.83956790E+02</rscale>
<asrwt>0</asrwt>
<pdfrwt beam="2">  1        1 0.24042751E-01 0.83956790E+02</pdfrwt>
<pdfrwt beam="1">  1       -1 0.17347655E-02 0.83956790E+02</pdfrwt>
<totfact> 0.14094875E+05</totfact>
</mgrwt>
</event>
<event>
 5    1  0.5681061E+000  0.9035127E+02  0.7546771E-02  0.1302003E+00
          2   -1    0    0  501    0  0.00000000000E+00  0.00000000000E+00  0.19077129254E+03  0.19077129254E+03  0.00000000000E+00 0. -1.
         -2   -1    0    0    0  501 -0.00000000000E+00 -0.00000000000E+00 -0.10697825884E+02  0.10697825884E+02  0.00000000000E+00 0.  1.
         23    2    1    2    0    0  0.00000000000E+00  0.00000000000E+00  0.18007346666E+03  0.20146911843E+03  0.90351271631E+02 0.  0.
        -11    1    3    3    0    0 -0.24585285506E+02 -0.19820946655E+02  0.18004467216E+02  0.36351987971E+02  0.00000000000E+00 0.  1.
         11    1    3    3    0    0  0.24585285506E+02  0.19820946655E+02  0.16206899944E+03  0.16511713046E+03  0.00000000000E+00 0. -1.
<mgrwt>
<rscale>  0 0.90351272E+02</rscale>
<asrwt>0</asrwt>
<pdfrwt beam="1">  1        2 0.29349427E-01 0.90351272E+02</pdfrwt>
<pdfrwt beam="2">  1       -2 0.16458195E-02 0.90351272E+02</pdfrwt>
<totfact> 0.15583980E+05</totfact>
</mgrwt>
</event>
<event>
 5    1  0.5681061E+000  0.9173385E+02  0.7546771E-02  0.1298706E+00
          2   -1    0    0  501    0  0.00000000000E+00  0.00000000000E+00  0.15318874381E+02  0.15318874381E+02  0.00000000000E+00 0. -1.
         -2   -1    0    0    0  501 -0.00000000000E+00 -0.00000000000E+00 -0.13733221529E+03  0.13733221529E+03  0.00000000000E+00 0.  1.
         23    2    1    2    0    0  0.00000000000E+00  0.00000000000E+00 -0.12201334091E+03  0.15265108967E+03  0.91733853173E+02 0.  0.
        -11    1    3    3    0    0 -0.61148938199E+01  0.41454529308E+02 -0.92045163347E+02  0.10113447494E+03  0.00000000000E+00 0.  1.
         11    1    3    3    0    0  0.61148938199E+01 -0.41454529308E+02 -0.29968177563E+02  0.51516614728E+02  0.00000000000E+00 0. -1.
<mgrwt>
<rscale>  0 0.91733853E+02</rscale>
<asrwt>0</asrwt>
<pdfrwt beam="1">  1        2 0.23567499E-02 0.91733853E+02</pdfrwt>
<pdfrwt beam="2">  1       -2 0.21128034E-01 0.91733853E+02</pdfrwt>
<totfact> 0.70981454E+04</totfact>
</mgrwt>
</event>
<event>
 5    1  0.5681061E+000  0.1123904E+03  0.7546771E-02  0.1256206E+00
          3   -1    0    0  501    0  0.00000000000E+00  0.00000000000E+00  0.35893659131E+02  0.35893659131E+02  0.00000000000E+00 0. -1.
         -3   -1    0    0    0  501 -0.00000000000E+00 -0.00000000000E+00 -0.87979313504E+02  0.87979313504E+02  0.00000000000E+00 0.  1.
         23    2    1    2    0    0  0.00000000000E+00  0.00000000000E+00 -0.52085654374E+02  0.12387297263E+03  0.11239038196E+03 0.  0.
        -11    1    3    3    0    0 -0.45827804457E+02 -0.89219061049E+01 -0.60512850503E+02  0.76430315621E+02  0.00000000000E+00 0.  1.
         11    1    3    3    0    0  0.45827804457E+02  0.89219061049E+01  0.84271961296E+01  0.47442657014E+02  0.00000000000E+00 0. -1.
<mgrwt>
<rscale>  0 0.11239038E+03</rscale>
<asrwt>0</asrwt>
<pdfrwt beam="1">  1        3 0.55221015E-02 0.11239038E+03</pdfrwt>
<pdfrwt beam="2">  1       -3 0.13535279E-01 0.11239038E+03</pdfrwt>
<totfact> 0.18552761E+04</totfact>
</mgrwt>
</event>
<event>
 5    1  0.5681061E+000  0.8372681E+02  0.7546771E-02  0.1318796E+00
          1   -1    0    0  501    0  0.00000000000E+00  0.00000000000E+00  0.84838159869E+02  0.84838159869E+02  0.00000000000E+00 0. -1.
         -1   -1    0    0    0  501 -0.00000000000E+00 -0.00000000000E+00 -0.20657504990E+02  0.20657504990E+02  0.00000000000E+00 0.  1.
         23    2    1    2    0    0  0.00000000000E+00  0.00000000000E+00  0.64180654879E+02  0.10549566486E+03  0.83726810781E+02 0.  0.
        -11    1    3    3    0    0  0.23534286833E+02  0.36892881508E+01 -0.11284952214E+02  0.26359507778E+02  0.00000000000E+00 0.  1.
         11    1    3    3    0    0 -0.23534286833E+02 -0.36892881508E+01  0.75465607093E+02  0.79136157082E+02  0.00000000000E+00 0. -1.
<mgrwt>
<rscale>  0 0.83726811E+02</rscale>
<asrwt>0</asrwt>
<pdfrwt beam="1">  1        1 0.13052024E-01 0.83726811E+02</pdfrwt>
<pdfrwt beam="2">  1       -1 0.31780777E-02 0.83726811E+02</pdfrwt>
<totfact> 0.12824522E+05</totfact>
</mgrwt>
</event>
<event>
 5    1  0.5681061E+000  0.8262688E+02  0.7546771E-02  0.1321758E+00
         -1   -1    0    0    0  501 -0.00000000000E+00  0.00000000000E+00  0.42992052011E+02  0.42992052011E+02  0.00000000000E+00 0.  1.
          1   -1    0    0  501    0  0.00000000000E+00 -0.00000000000E+00 -0.39700371942E+02  0.39700371942E+02  0.00000000000E+00 0. -1.
         23    2    1    2    0    0  0.00000000000E+00  0.00000000000E+00  0.32916800693E+01  0.82692423953E+02  0.82626883164E+02 0.  0.
        -11    1    3    3    0    0  0.96056263015E+01  0.36848288044E+02 -0.14389855200E+02  0.40707890158E+02  0.00000000000E+00 0. -1.
         11    1    3    3    0    0 -0.96056263015E+01 -0.36848288044E+02  0.17681535269E+02  0.41984533794E+02  0.00000000000E+00 0.  1.
<mgrwt>
<rscale>  0 0.82626883E+02</rscale>
<asrwt>0</asrwt>
<pdfrwt beam="2">  1        1 0.61077495E-02 0.82626883E+02</pdfrwt>
<pdfrwt beam="1">  1       -1 0.66141618E-02 0.82626883E+02</pdfrwt>
<totfact> 0.11931406E+05</totfact>
</mgrwt>
</event>
<event>
 5    1  0.5681061E+000  0.9408350E+02  0.7546771E-02  0.1293254E+00
         -2   -1    0    0    0  501 -0.00000000000E+00  0.00000000000E+00  0.90363463667E+01  0.90363463667E+01  0.00000000000E+00 0.  1.
          2   -1    0    0  501    0  0.00000000000E+00 -0.00000000000E+00 -0.24489168046E+03  0.24489168046E+03  0.00000000000E+00 0. -1.
         23    2    1    2    0    0  0.00000000000E+00  0.00000000000E+00 -0.23585533409E+03  0.25392802682E+03  0.94083495831E+02 0.  0.
        -11    1    3    3    0    0 -0.34917935663E+02  0.24696079309E+00 -0.20300298896E+03  0.20598431189E+03  0.00000000000E+00 0. -1.
         11    1    3    3    0    0  0.34917935663E+02 -0.24696079309E+00 -0.32852345133E+02  0.47943714930E+02  0.00000000000E+00 0.  1.
<mgrwt>
<rscale>  0 0.94083496E+02</rscale>
<asrwt>0</asrwt>
<pdfrwt beam="2">  1        2 0.37675645E-01 0.94083496E+02</pdfrwt>
<pdfrwt beam="1">  1       -2 0.13902071E-02 0.94083496E+02</pdfrwt>
<totfact> 0.15311816E+05</totfact>
</mgrwt>
</event>
<event>
 5    1  0.5681061E+000  0.9124011E+02  0.7546771E-02  0.1299876E+00
         -3   -1    0    0    0  501 -0.00000000000E+00  0.00000000000E+00  0.50537021294E+02  0.50537021294E+02  0.00000000000E+00 0.  1.
          3   -1    0    0  501    0  0.00000000000E+00 -0.00000000000E+00 -0.41181481148E+02  0.41181481148E+02  0.00000000000E+00 0. -1.
         23    2    1    2    0    0  0.00000000000E+00  0.00000000000E+00  0.93555401455E+01  0.91718502442E+02  0.91240109375E+02 0.  0.
        -11    1    3    3    0    0 -0.37561107531E+02  0.21117207936E+02  0.19736841120E+02  0.47395317990E+02  0.00000000000E+00 0.  1.
         11    1    3    3    0    0  0.37561107531E+02 -0.21117207936E+02 -0.10381300975E+02  0.44323184451E+02  0.00000000000E+00 0. -1.
<mgrwt>
<rscale>  0 0.91240109E+02</rscale>
<asrwt>0</asrwt>
<pdfrwt beam="2">  1        3 0.63356125E-02 0.91240109E+02</pdfrwt>
<pdfrwt beam="1">  1       -3 0.77749264E-02 0.91240109E+02</pdfrwt>
<totfact> 0.35230738E+04</totfact>
</mgrwt>
</event>
<event>
 5    1  0.5681061E+000  0.8922021E+02  0.7546771E-02  0.1304751E+00
         -2   -1    0    0    0  501 -0.00000000000E+00  0.00000000000E+00  0.74598681243E+02  0.74598681243E+02  0.00000000000E+00 0.  1.
          2   -1    0    0  501    0  0.00000000000E+00 -0.00000000000E+00 -0.26676900554E+02  0.26676900554E+02  0.00000000000E+00 0. -1.
         23    2    1    2    0    0  0.00000000000E+00  0.00000000000E+00  0.47921780689E+02  0.10127558180E+03  0.89220212978E+02 0.  0.
        -11    1    3    3    0    0  0.25562278545E+02  0.19366799326E+02 -0.11238032179E+02  0.33982294917E+02  0.00000000000E+00 0. -1.
         11    1    3    3    0    0 -0.25562278545E+02 -0.19366799326E+02  0.59159812869E+02  0.67293286880E+02  0.00000000000E+00 0.  1.
<mgrwt>
<rscale>  0 0.89220213E+02</rscale>
<asrwt>0</asrwt>
<pdfrwt beam="2">  1        2 0.41041386E-02 0.89220213E+02</pdfrwt>
<pdfrwt beam="1">  1       -2 0.11476720E-01 0.89220213E+02</pdfrwt>
<totfact> 0.91445657E+04</totfact>
</mgrwt>
</event>
<event>
 5    1  0.5681061E+000  0.8883589E+02  0.7546771E-02  0.1305695E+00
         -1   -1    0    0    0  501 -0.00000000000E+00  0.00000000000E+00  0.17817502452E+03  0.17817502452E+03  0.00000000000E+00 0.  1.
          1   -1    0    0  501    0  0.00000000000E+00 -0.00000000000E+00 -0.11073122822E+02  0.11073122822E+02  0.00000000000E+00 0. -1.
         23    2    1    2    0    0  0.00000000000E+00  0.00000000000E+00  0.16710190170E+03  0.18924814734E+03  0.88835892077E+02 0.  0.
        -11    1    3    3    0    0 -0.31919113374E+00  0.27205424355E+02  0.87555576464E+01  0.28581406316E+02  0.00000000000E+00 0. -1.
         11    1    3    3    0    0  0.31919113374E+00 -0.27205424355E+02  0.15834634405E+03  0.16066674103E+03  0.00000000000E+00 0.  1.
<mgrwt>
<rscale>  0 0.88835892E+02</rscale>
<asrwt>0</asrwt>
<pdfrwt beam="2">  1        1 0.17035575E-02 0.88835892E+02</pdfrwt>
<pdfrwt beam="1">  1       -1 0.27411540E-01 0.88835892E+02</pdfrwt>
<totfact> 0.76671797E+04</totfact>
</mgrwt>
</event>
<event>
 5    1  0.5681061E+000  0.9118940E+02  0.7546771E-02  0.1299997E+00
          2   -1    0    0  501    0  0.00000000000E+00  0.00000000000E+00  0.41030160461E+02  0.41030160461E+02  0.00000000000E+00 0. -1.
         -2   -1    0    0    0  501 -0.00000000000E+00 -0.00000000000E+00 -0.50667035930E+02  0.50667035930E+02  0.00000000000E+00 0.  1.
         23    2    1    2    0    0  0.00000000000E+00  0.00000000000E+00 -0.96368754688E+01  0.91697196391E+02  0.91189398820E+02 0.  0.
        -11    1    3    3    0    0 -0.10026242000E+02  0.36789943899E+02 -0.29954658324E+02  0.48490277953E+02  0.00000000000E+00 0.  1.
         11    1    3    3    0    0  0.10026242000E+02 -0.36789943899E+02  0.20317782855E+02  0.43206918437E+02  0.00000000000E+00 0. -1.
<mgrwt>
<rscale>  0 0.91189399E+02</rscale>
<asrwt>0</asrwt>
<pdfrwt beam="1">  1        2 0.63123324E-02 0.91189399E+02</pdfrwt>
<pdfrwt beam="2">  1       -2 0.77949286E-02 0.91189399E+02</pdfrwt>
<totfact> 0.95979969E+04</totfact>
</mgrwt>
</event>
<event>
 5    1  0.5681061E+000  0.1024170E+03  0.7546771E-02  0.1275294E+00
         -3   -1    0    0    0  501 -0.00000000000E+00  0.00000000000E+00  0.82919673226E+02  0.82919673226E+02  0.00000000000E+00 0.  1.
          3   -1    0    0  501    0  0.00000000000E+00 -0.00000000000E+00 -0.31624678840E+02  0.31624678840E+02  0.00000000000E+00 0. -1.
         23    2    1    2    0    0  0.00000000000E+00  0.00000000000E+00  0.51294994387E+02  0.11454435207E+03  0.10241695241E+03 0.  0.
        -11    1    3    3    0    0 -0.29274805723E+02 -0.20382435320E+02 -0.15443303638E+02  0.38870985927E+02  0.00000000000E+00 0. -1.
         11    1    3    3    0    0  0.29274805723E+02  0.20382435320E+02  0.66738298024E+02  0.75673366139E+02  0.00000000000E+00 0.  1.
<mgrwt>
<rscale>  0 0.10241695E+03</rscale>
<asrwt>0</asrwt>
<pdfrwt beam="2">  1        3 0.48653352E-02 0.10241695E+03</pdfrwt>
<pdfrwt beam="1">  1       -3 0.12756873E-01 0.10241695E+03</pdfrwt>
<totfact> 0.24456094E+04</totfact>
</mgrwt>
</event>
<event>
 5    1  0.5681061E+000  0.9234856E+02  0.7546771E-02  0.1297262E+00
         -1   -1    0    0    0  501 -0.00000000000E+00  0.00000000000E+00  0.46976705352E+02  0.46976705352E+02  0.00000000000E+00 0.  1.
          1   -1    0    0  501    0  0.00000000000E+00 -0.00000000000E+00 -0.45385557046E+02  0.45385557046E+02  0.00000000000E+00 0. -1.
         23    2    1    2    0    0  0.00000000000E+00  0.00000000000E+00  0.15911483062E+01  0.92362262397E+02  0.92348555821E+02 0.  0.
        -11    1    3    3    0    0 -0.20956551553E+02  0.24749407882E+02 -0.32078038636E+02  0.45614809067E+02  0.00000000000E+00 0. -1.
         11    1    3    3    0    0  0.20956551553E+02 -0.24749407882E+02  0.33669186942E+02  0.46747453330E+02  0.00000000000E+00 0.  1.
<mgrwt>
<rscale>  0 0.92348556E+02</rscale>
<asrwt>0</asrwt>
<pdfrwt beam="2">  1        1 0.69823934E-02 0.92348556E+02</pdfrwt>
<pdfrwt beam="1">  1       -1 0.72271854E-02 0.92348556E+02</pdfrwt>
<totfact> 0.89149632E+04</totfact>
</mgrwt>
</event>
<event>
 5    1  0.5681061E+000  0.9248150E+02  0.7546771E-02  0.1296951E+00
         -1   -1    0    0    0  501 -0.00000000000E+00  0.00000000000E+00  0.29687979013E+02  0.29687979013E+02  0.00000000000E+00 0.  1.
          1   -1    0    0  501    0  0.00000000000E+00 -0.00000000000E+00 -0.72022654512E+02  0.72022654512E+02  0.00000000000E+00 0. -1.
         23    2    1    2    0    0  0.00000000000E+00  0.00000000000E+00 -0.42334675499E+02  0.10171063353E+03  0.92481502056E+02 0.  0.
        -11    1    3    3    0    0  0.36289351989E+02  0.74812215024E+01  0.92578585181E+01  0.38191539473E+02  0.00000000000E+00 0.  1.
         11    1    3    3    0    0 -0.36289351989E+02 -0.74812215024E+01 -0.51592534017E+02  0.63519094053E+02  0.00000000000E+00 0. -1.
<mgrwt>
<rscale>  0 0.92481502E+02</rscale>
<asrwt>0</asrwt>
<pdfrwt beam="2">  1        1 0.11080408E-01 0.92481502E+02</pdfrwt>
<pdfrwt beam="1">  1       -1 0.45673814E-02 0.92481502E+02</pdfrwt>
<totfact> 0.95291061E+04</totfact>
</mgrwt>
</event>
<event>
 5    1  0.5681061E+000  0.9252163E+02  0.7546771E-02  0.1296858E+00
         -2   -1    0    0    0  501 -0.00000000000E+00  0.00000000000E+00  0.64260466753E+01  0.64260466753E+01  0.00000000000E+00 0.  1.
          2   -1    0    0  501    0  0.00000000000E+00 -0.00000000000E+00 -0.33302949139E+03  0.33302949139E+03  0.00000000000E+00 0. -1.
         23    2    1    2    0    0  0.00000000000E+00  0.00000000000E+00 -0.32660344471E+03  0.33945553806E+03  0.92521631111E+02 0.  0.
        -11    1    3    3    0    0 -0.19762078788E+02 -0.40805527223E+02 -0.19701444198E+03  0.20216409463E+03  0.00000000000E+00 0. -1.
         11    1    3    3    0    0  0.19762078788E+02  0.40805527223E+02 -0.12958900273E+03  0.13729144343E+03  0.00000000000E+00 0.  1.
<mgrwt>
<rscale>  0 0.92521631E+02</rscale>
<asrwt>0</asrwt>
<pdfrwt beam="2">  1        2 0.51235307E-01 0.92521631E+02</pdfrwt>
<pdfrwt beam="1">  1       -2 0.98862256E-03 0.92521631E+02</pdfrwt>
<totfact> 0.17960374E+05</totfact>
</mgrwt>
</event>
<event>
 5    1  0.5681061E+000  0.9085516E+02  0.7546771E-02  0.1300794E+00
          1   -1    0    0  501    0  0.00000000000E+00  0.00000000000E+00  0.34283862677E+03  0.34283862677E+03  0.00000000000E+00 0. -1.
         -1   -1    0    0    0  501 -0.00000000000E+00 -0.00000000000E+00 -0.60193481985E+01  0.60193481985E+01  0.00000000000E+00 0.  1.
         23    2    1    2    0    0  0.00000000000E+00  0.00000000000E+00  0.33681927857E+03  0.34885797497E+03  0.90855161007E+02 0.  0.
        -11    1    3    3    0    0  0.17055546499E+02  0.42089067110E+02  0.17276028242E+03  0.17862949482E+03  0.00000000000E+00 0.  1.
         11    1    3    3    0    0 -0.17055546499E+02 -0.42089067110E+02  0.16405899615E+03  0.17022848015E+03  0.00000000000E+00 0. -1.
<mgrwt>
<rscale>  0 0.90855161E+02</rscale>
<asrwt>0</asrwt>
<pdfrwt beam="1">  1        1 0.52744389E-01 0.90855161E+02</pdfrwt>
<pdfrwt beam="2">  1       -1 0.92605383E-03 0.90855161E+02</pdfrwt>
<totfact> 0.13258419E+05</totfact>
</mgrwt>
</event>
<event>
 5    1  0.5681061E+000  0.8504177E+02  0.7546771E-02  0.1315323E+00
         -1   -1    0    0    0  501 -0.00000000000E+00  0.00000000000E+00  0.44482466925E+02  0.44482466925E+02  0.00000000000E+00 0.  1.
          1   -1    0    0  501    0  0.00000000000E+00 -0.00000000000E+00 -0.40645800646E+02  0.40645800646E+02  0.00000000000E+00 0. -1.
         23    2    1    2    0    0  0.00000000000E+00  0.00000000000E+00  0.38366662791E+01  0.85128267571E+02  0.85041765806E+02 0.  0.
        -11    1    3    3    0    0  0.35924777374E+02  0.15681198656E+02 -0.14576773356E+02  0.41820711880E+02  0.00000000000E+00 0. -1.
         11    1    3    3    0    0 -0.35924777374E+02 -0.15681198656E+02  0.18413439635E+02  0.43307555690E+02  0.00000000000E+00 0.  1.
<mgrwt>
<rscale>  0 0.85041766E+02</rscale>
<asrwt>0</asrwt>
<pdfrwt beam="2">  1        1 0.62532001E-02 0.85041766E+02</pdfrwt>
<pdfrwt beam="1">  1       -1 0.68434564E-02 0.85041766E+02</pdfrwt>
<totfact> 0.11048646E+05</totfact>
</mgrwt>
</event>
<event>
 4    1  0.5681061E+000  0.4387322E+02  0.7546771E-02  0.1481501E+00
          2   -1    0    0  501    0  0.00000000000E+00  0.00000000000E+00  0.21407725420E+01  0.21407725420E+01  0.00000000000E+00 0. -1.
         -2   -1    0    0    0  501 -0.00000000000E+00 -0.00000000000E+00 -0.22478561975E+03  0.22478561975E+03  0.00000000000E+00 0.  1.
        -11    1    1    2    0    0 -0.21625067411E+02  0.26126221687E+01 -0.12475607550E+03  0.12664338794E+03  0.00000000000E+00 0.  1.
         11    1    1    2    0    0  0.21625067411E+02 -0.26126221687E+01 -0.97888771711E+02  0.10028300435E+03  0.00000000000E+00 0. -1.
<mgrwt>
<rscale>  0 0.43873221E+02</rscale>
<asrwt>0</asrwt>
<pdfrwt beam="1">  1        2 0.32934989E-03 0.43873221E+02</pdfrwt>
<pdfrwt beam="2">  1       -2 0.34582375E-01 0.43873221E+02</pdfrwt>
<totfact> 0.36898540E+05</totfact>
</mgrwt>
</event>
<event>
 5    1  0.5681061E+000  0.9156139E+02  0.7546771E-02  0.1299114E+00
         -1   -1    0    0    0  501 -0.00000000000E+00  0.00000000000E+00  0.21753668993E+03  0.21753668993E+03  0.00000000000E+00 0.  1.
          1   -1    0    0  501    0  0.00000000000E+00 -0.00000000000E+00 -0.96345687707E+01  0.96345687707E+01  0.00000000000E+00 0. -1.
         23    2    1    2    0    0  0.00000000000E+00  0.00000000000E+00  0.20790212116E+03  0.22717125870E+03  0.91561393595E+02 0.  0.
        -11    1    3    3    0    0  0.29641952277E+02 -0.29647101339E+02  0.14958382109E+03  0.15534772443E+03  0.00000000000E+00 0.  1.
         11    1    3    3    0    0 -0.29641952277E+02  0.29647101339E+02  0.58318300065E+02  0.71823534270E+02  0.00000000000E+00 0. -1.
<mgrwt>
<rscale>  0 0.91561394E+02</rscale>
<asrwt>0</asrwt>
<pdfrwt beam="2">  1        1 0.14822415E-02 0.91561394E+02</pdfrwt>
<pdfrwt beam="1">  1       -1 0.33467179E-01 0.91561394E+02</pdfrwt>
<totfact> 0.66983924E+04</totfact>
</mgrwt>
</event>
<event>
 5    1  0.5681061E+000  0.1036224E+03  0.7546771E-02  0.1272858E+00
         -3   -1    0    0    0  501 -0.00000000000E+00  0.00000000000E+00  0.79089276505E+01  0.79089276505E+01  0.00000000000E+00 0.  1.
          3   -1    0    0  501    0  0.00000000000E+00 -0.00000000000E+00 -0.33941406836E+03  0.33941406836E+03  0.00000000000E+00 0. -1.
         23    2    1    2    0    0  0.00000000000E+00  0.00000000000E+00 -0.33150514071E+03  0.34732299601E+03  0.10362241669E+03 0.  0.
        -11    1    3    3    0    0  0.34987547292E+02 -0.35825375263E+02 -0.21032227768E+03  0.21620140256E+03  0.00000000000E+00 0.  1.
         11    1    3    3    0    0 -0.34987547292E+02  0.35825375263E+02 -0.12118286303E+03  0.13112159346E+03  0.00000000000E+00 0. -1.
<mgrwt>
<rscale>  0 0.10362242E+03</rscale>
<asrwt>0</asrwt>
<pdfrwt beam="2">  1        3 0.52217543E-01 0.10362242E+03</pdfrwt>
<pdfrwt beam="1">  1       -3 0.12167582E-02 0.10362242E+03</pdfrwt>
<totfact> 0.15790285E+04</totfact>
</mgrwt>
</event>
<event>
 5    1  0.5681061E+000  0.9134517E+02  0.7546771E-02  0.1299626E+00
         -2   -1    0    0    0  501 -0.00000000000E+00  0.00000000000E+00  0.20488450612E+02  0.20488450612E+02  0.00000000000E+00 0.  1.
          2   -1    0    0  501    0  0.00000000000E+00 -0.00000000000E+00 -0.10181273681E+03  0.10181273681E+03  0.00000000000E+00 0. -1.
         23    2    1    2    0    0  0.00000000000E+00  0.00000000000E+00 -0.81324286197E+02  0.12230118742E+03  0.91345174581E+02 0.  0.
        -11    1    3    3    0    0 -0.41459577775E+02  0.15949995202E+02 -0.26449311490E+02  0.51699758361E+02  0.00000000000E+00 0.  1.
         11    1    3    3    0    0  0.41459577775E+02 -0.15949995202E+02 -0.54874974707E+02  0.70601429060E+02  0.00000000000E+00 0. -1.
<mgrwt>
<rscale>  0 0.91345175E+02</rscale>
<asrwt>0</asrwt>
<pdfrwt beam="2">  1        2 0.15663498E-01 0.91345175E+02</pdfrwt>
<pdfrwt beam="1">  1       -2 0.31520694E-02 0.91345175E+02</pdfrwt>
<totfact> 0.12272580E+05</totfact>
</mgrwt>
</event>
<event>
 5    1  0.5681061E+000  0.9380288E+02  0.7546771E-02  0.1293895E+00
          1   -1    0    0  501    0  0.00000000000E+00  0.00000000000E+00  0.26658260459E+03  0.26658260459E+03  0.00000000000E+00 0.  1.
         -1   -1    0    0    0  501 -0.00000000000E+00 -0.00000000000E+00 -0.82516456981E+01  0.82516456981E+01  0.00000000000E+00 0. -1.
         23    2    1    2    0    0  0.00000000000E+00  0.00000000000E+00  0.25833095889E+03  0.27483425028E+03  0.93802882734E+02 0.  0.
        -11    1    3    3    0    0 -0.26532334523E+02 -0.26748257150E+02  0.21100980608E+03  0.21434685044E+03  0.00000000000E+00 0.  1.
         11    1    3    3    0    0  0.26532334523E+02  0.26748257150E+02  0.47321152813E+02  0.60487399840E+02  0.00000000000E+00 0. -1.
<mgrwt>
<rscale>  0 0.93802883E+02</rscale>
<asrwt>0</asrwt>
<pdfrwt beam="1">  1        1 0.41012702E-01 0.93802883E+02</pdfrwt>
<pdfrwt beam="2">  1       -1 0.12694842E-02 0.93802883E+02</pdfrwt>
<totfact> 0.11607230E+05</totfact>
</mgrwt>
</event>
<event>
 5    1  0.5681061E+000  0.9120482E+02  0.7546771E-02  0.1299960E+00
          1   -1    0    0  501    0  0.00000000000E+00  0.00000000000E+00  0.75425984558E+02  0.75425984558E+02  0.00000000000E+00 0. -1.
         -1   -1    0    0    0  501 -0.00000000000E+00 -0.00000000000E+00 -0.27571132811E+02  0.27571132811E+02  0.00000000000E+00 0.  1.
         23    2    1    2    0    0  0.00000000000E+00  0.00000000000E+00  0.47854851747E+02  0.10299711737E+03  0.91204820873E+02 0.  0.
        -11    1    3    3    0    0  0.21532384087E+02 -0.11652239665E+02  0.67374630514E+02  0.71685138562E+02  0.00000000000E+00 0. -1.
         11    1    3    3    0    0 -0.21532384087E+02  0.11652239665E+02 -0.19519778767E+02  0.31311978807E+02  0.00000000000E+00 0.  1.
<mgrwt>
<rscale>  0 0.91204821E+02</rscale>
<asrwt>0</asrwt>
<pdfrwt beam="1">  1        1 0.11603998E-01 0.91204821E+02</pdfrwt>
<pdfrwt beam="2">  1       -1 0.42417128E-02 0.91204821E+02</pdfrwt>
<totfact> 0.99733266E+04</totfact>
</mgrwt>
</event>
<event>
 5    1  0.5681061E+000  0.8855659E+02  0.7546771E-02  0.1306385E+00
         -3   -1    0    0    0  501 -0.00000000000E+00  0.00000000000E+00  0.19350428734E+03  0.19350428734E+03  0.00000000000E+00 0.  1.
          3   -1    0    0  501    0  0.00000000000E+00 -0.00000000000E+00 -0.10131906863E+02  0.10131906863E+02  0.00000000000E+00 0. -1.
         23    2    1    2    0    0  0.00000000000E+00  0.00000000000E+00  0.18337238047E+03  0.20363619420E+03  0.88556590198E+02 0.  0.
        -11    1    3    3    0    0  0.24890276838E+02  0.23468974282E+02  0.15632837160E+03  0.16002774260E+03  0.00000000000E+00 0.  1.
         11    1    3    3    0    0 -0.24890276838E+02 -0.23468974282E+02  0.27044008876E+02  0.43608451601E+02  0.00000000000E+00 0. -1.
<mgrwt>
<rscale>  0 0.88556590E+02</rscale>
<asrwt>0</asrwt>
<pdfrwt beam="2">  1        3 0.15587550E-02 0.88556590E+02</pdfrwt>
<pdfrwt beam="1">  1       -3 0.29769888E-01 0.88556590E+02</pdfrwt>
<totfact> 0.30619397E+04</totfact>
</mgrwt>
</event>
<event>
 5    1  0.5681061E+000  0.9349781E+02  0.7546771E-02  0.1294596E+00
          4   -1    0    0  501    0  0.00000000000E+00  0.00000000000E+00  0.29388176896E+02  0.29388176896E+02  0.00000000000E+00 0.  1.
         -4   -1    0    0    0  501 -0.00000000000E+00 -0.00000000000E+00 -0.74365290245E+02  0.74365290245E+02  0.00000000000E+00 0. -1.
         23    2    1    2    0    0  0.00000000000E+00  0.00000000000E+00 -0.44977113349E+02  0.10375346714E+03  0.93497813978E+02 0.  0.
        -11    1    3    3    0    0 -0.20588314879E+02  0.19443937391E+02 -0.63764126816E+02  0.69769687396E+02  0.00000000000E+00 0. -1.
         11    1    3    3    0    0  0.20588314879E+02 -0.19443937391E+02  0.18787013467E+02  0.33983779745E+02  0.00000000000E+00 0.  1.
<mgrwt>
<rscale>  0 0.93497814E+02</rscale>
<asrwt>0</asrwt>
<pdfrwt beam="1">  1        4 0.45212580E-02 0.93497814E+02</pdfrwt>
<pdfrwt beam="2">  1       -4 0.11440814E-01 0.93497814E+02</pdfrwt>
<totfact> 0.24495475E+04</totfact>
</mgrwt>
</event>
<event>
 5    1  0.5681061E+000  0.9178359E+02  0.7546771E-02  0.1298589E+00
          1   -1    0    0  501    0  0.00000000000E+00  0.00000000000E+00  0.18621527841E+03  0.18621527841E+03  0.00000000000E+00 0. -1.
         -1   -1    0    0    0  501 -0.00000000000E+00 -0.00000000000E+00 -0.11309797106E+02  0.11309797106E+02  0.00000000000E+00 0.  1.
         23    2    1    2    0    0  0.00000000000E+00  0.00000000000E+00  0.17490548131E+03  0.19752507552E+03  0.91783593675E+02 0.  0.
        -11    1    3    3    0    0 -0.30615440304E+02 -0.13964970693E+02  0.15460749607E+03  0.15822706290E+03  0.00000000000E+00 0. -1.
         11    1    3    3    0    0  0.30615440304E+02  0.13964970693E+02  0.20297985234E+02  0.39298012622E+02  0.00000000000E+00 0.  1.
<mgrwt>
<rscale>  0 0.91783594E+02</rscale>
<asrwt>0</asrwt>
<pdfrwt beam="1">  1        1 0.28648502E-01 0.91783594E+02</pdfrwt>
<pdfrwt beam="2">  1       -1 0.17399689E-02 0.91783594E+02</pdfrwt>
<totfact> 0.11471990E+05</totfact>
</mgrwt>
</event>
<event>
 5    1  0.5681061E+000  0.9262132E+02  0.7546771E-02  0.1296625E+00
          1   -1    0    0  501    0  0.00000000000E+00  0.00000000000E+00  0.35715944355E+02  0.35715944355E+02  0.00000000000E+00 0. -1.
         -1   -1    0    0    0  501 -0.00000000000E+00 -0.00000000000E+00 -0.60048177517E+02  0.60048177517E+02  0.00000000000E+00 0.  1.
         23    2    1    2    0    0  0.00000000000E+00  0.00000000000E+00 -0.24332233163E+02  0.95764121872E+02  0.92621322962E+02 0.  0.
        -11    1    3    3    0    0 -0.17429580415E+02  0.17791639064E+02 -0.52533763947E+02  0.58138877254E+02  0.00000000000E+00 0.  1.
         11    1    3    3    0    0  0.17429580415E+02 -0.17791639064E+02  0.28201530784E+02  0.37625244618E+02  0.00000000000E+00 0. -1.
<mgrwt>
<rscale>  0 0.92621323E+02</rscale>
<asrwt>0</asrwt>
<pdfrwt beam="1">  1        1 0.54947607E-02 0.92621323E+02</pdfrwt>
<pdfrwt beam="2">  1       -1 0.92381811E-02 0.92621323E+02</pdfrwt>
<totfact> 0.85201509E+04</totfact>
</mgrwt>
</event>
<event>
 5    1  0.5681061E+000  0.8123826E+02  0.7546771E-02  0.1325574E+00
         -1   -1    0    0    0  501 -0.00000000000E+00  0.00000000000E+00  0.87105114376E+02  0.87105114376E+02  0.00000000000E+00 0.  1.
          1   -1    0    0  501    0  0.00000000000E+00 -0.00000000000E+00 -0.18941642066E+02  0.18941642066E+02  0.00000000000E+00 0. -1.
         23    2    1    2    0    0  0.00000000000E+00  0.00000000000E+00  0.68163472310E+02  0.10604675644E+03  0.81238264349E+02 0.  0.
        -11    1    3    3    0    0 -0.28136839097E+02 -0.12491715109E+02  0.68672793556E+02  0.75257406516E+02  0.00000000000E+00 0.  1.
         11    1    3    3    0    0  0.28136839097E+02  0.12491715109E+02 -0.50932124527E+00  0.30789349926E+02  0.00000000000E+00 0. -1.
<mgrwt>
<rscale>  0 0.81238264E+02</rscale>
<asrwt>0</asrwt>
<pdfrwt beam="2">  1        1 0.29140988E-02 0.81238264E+02</pdfrwt>
<pdfrwt beam="1">  1       -1 0.13400787E-01 0.81238264E+02</pdfrwt>
<totfact> 0.11209640E+05</totfact>
</mgrwt>
</event>
<event>
 5    1  0.5681061E+000  0.8933456E+02  0.7546771E-02  0.1304471E+00
         -2   -1    0    0    0  501 -0.00000000000E+00  0.00000000000E+00  0.15464157462E+02  0.15464157462E+02  0.00000000000E+00 0.  1.
          2   -1    0    0  501    0  0.00000000000E+00 -0.00000000000E+00 -0.12901872436E+03  0.12901872436E+03  0.00000000000E+00 0. -1.
         23    2    1    2    0    0  0.00000000000E+00  0.00000000000E+00 -0.11355456690E+03  0.14448288182E+03  0.89334559248E+02 0.  0.
        -11    1    3    3    0    0 -0.34870865114E+02  0.27382065966E+01 -0.11849129474E+02  0.36930703737E+02  0.00000000000E+00 0.  1.
         11    1    3    3    0    0  0.34870865114E+02 -0.27382065966E+01 -0.10170543742E+03  0.10755217808E+03  0.00000000000E+00 0. -1.
<mgrwt>
<rscale>  0 0.89334559E+02</rscale>
<asrwt>0</asrwt>
<pdfrwt beam="2">  1        2 0.19849035E-01 0.89334559E+02</pdfrwt>
<pdfrwt beam="1">  1       -2 0.23791011E-02 0.89334559E+02</pdfrwt>
<totfact> 0.14054462E+05</totfact>
</mgrwt>
</event>
<event>
 5    1  0.5681061E+000  0.1053472E+03  0.7546771E-02  0.1269437E+00
         -3   -1    0    0    0  501 -0.00000000000E+00  0.00000000000E+00  0.94488558928E+01  0.94488558928E+01  0.00000000000E+00 0.  1.
          3   -1    0    0  501    0  0.00000000000E+00 -0.00000000000E+00 -0.29363422226E+03  0.29363422226E+03  0.00000000000E+00 0. -1.
         23    2    1    2    0    0  0.00000000000E+00  0.00000000000E+00 -0.28418536637E+03  0.30308307816E+03  0.10534718698E+03 0.  0.
        -11    1    3    3    0    0 -0.51098501696E+02 -0.12357231104E+02 -0.15152527769E+03  0.16038599632E+03  0.00000000000E+00 0. -1.
         11    1    3    3    0    0  0.51098501696E+02  0.12357231104E+02 -0.13266008868E+03  0.14269708183E+03  0.00000000000E+00 0.  1.
<mgrwt>
<rscale>  0 0.10534719E+03</rscale>
<asrwt>0</asrwt>
<pdfrwt beam="2">  1        3 0.45174502E-01 0.10534719E+03</pdfrwt>
<pdfrwt beam="1">  1       -3 0.14536699E-02 0.10534719E+03</pdfrwt>
<totfact> 0.16171040E+04</totfact>
</mgrwt>
</event>
<event>
 5    1  0.5681061E+000  0.9137323E+02  0.7546771E-02  0.1299560E+00
         -1   -1    0    0    0  501 -0.00000000000E+00  0.00000000000E+00  0.80637701400E+01  0.80637701400E+01  0.00000000000E+00 0.  1.
          1   -1    0    0  501    0  0.00000000000E+00 -0.00000000000E+00 -0.25884503697E+03  0.25884503697E+03  0.00000000000E+00 0. -1.
         23    2    1    2    0    0  0.00000000000E+00  0.00000000000E+00 -0.25078126683E+03  0.26690880711E+03  0.91373231966E+02 0.  0.
        -11    1    3    3    0    0  0.36781227655E+02 -0.24225009703E+02 -0.89907338602E+02  0.10011513041E+03  0.00000000000E+00 0.  1.
         11    1    3    3    0    0 -0.36781227655E+02  0.24225009703E+02 -0.16087392822E+03  0.16679367669E+03  0.00000000000E+00 0. -1.
<mgrwt>
<rscale>  0 0.91373232E+02</rscale>
<asrwt>0</asrwt>
<pdfrwt beam="2">  1        1 0.39822315E-01 0.91373232E+02</pdfrwt>
<pdfrwt beam="1">  1       -1 0.12405800E-02 0.91373232E+02</pdfrwt>
<totfact> 0.12379725E+05</totfact>
</mgrwt>
</event>
<event>
 5    1  0.5681061E+000  0.9229010E+02  0.7546771E-02  0.1297399E+00
          2   -1    0    0  501    0  0.00000000000E+00  0.00000000000E+00  0.66447858414E+01  0.66447858414E+01  0.00000000000E+00 0. -1.
         -2   -1    0    0    0  501 -0.00000000000E+00 -0.00000000000E+00 -0.32045659501E+03  0.32045659501E+03  0.00000000000E+00 0.  1.
         23    2    1    2    0    0  0.00000000000E+00  0.00000000000E+00 -0.31381180917E+03  0.32710138085E+03  0.92290095792E+02 0.  0.
        -11    1    3    3    0    0  0.69634056462E+01  0.40877453455E+02 -0.22866412457E+03  0.23239349622E+03  0.00000000000E+00 0.  1.
         11    1    3    3    0    0 -0.69634056462E+01 -0.40877453455E+02 -0.85147684596E+02  0.94707884630E+02  0.00000000000E+00 0. -1.
<mgrwt>
<rscale>  0 0.92290096E+02</rscale>
<asrwt>0</asrwt>
<pdfrwt beam="1">  1        2 0.10222746E-02 0.92290096E+02</pdfrwt>
<pdfrwt beam="2">  1       -2 0.49301024E-01 0.92290096E+02</pdfrwt>
<totfact> 0.47590444E+04</totfact>
</mgrwt>
</event>
<event>
 5    1  0.5681061E+000  0.9169370E+02  0.7546771E-02  0.1298801E+00
          2   -1    0    0  501    0  0.00000000000E+00  0.00000000000E+00  0.21196309118E+03  0.21196309118E+03  0.00000000000E+00 0. -1.
         -2   -1    0    0    0  501 -0.00000000000E+00 -0.00000000000E+00 -0.99165083617E+01  0.99165083617E+01  0.00000000000E+00 0.  1.
         23    2    1    2    0    0  0.00000000000E+00  0.00000000000E+00  0.20204658282E+03  0.22187959954E+03  0.91693702424E+02 0.  0.
        -11    1    3    3    0    0  0.20881269989E+02 -0.27851227101E+02  0.28825246880E+02  0.45195277907E+02  0.00000000000E+00 0.  1.
         11    1    3    3    0    0 -0.20881269989E+02  0.27851227101E+02  0.17322133594E+03  0.17668432163E+03  0.00000000000E+00 0. -1.
<mgrwt>
<rscale>  0 0.91693702E+02</rscale>
<asrwt>0</asrwt>
<pdfrwt beam="1">  1        2 0.32609703E-01 0.91693702E+02</pdfrwt>
<pdfrwt beam="2">  1       -2 0.15256168E-02 0.91693702E+02</pdfrwt>
<totfact> 0.15559203E+05</totfact>
</mgrwt>
</event>
<event>
 5    1  0.5681061E+000  0.9302903E+02  0.7546771E-02  0.1295678E+00
          4   -1    0    0  501    0  0.00000000000E+00  0.00000000000E+00  0.58834346674E+02  0.58834346674E+02  0.00000000000E+00 0.  1.
         -4   -1    0    0    0  501 -0.00000000000E+00 -0.00000000000E+00 -0.36774439862E+02  0.36774439862E+02  0.00000000000E+00 0. -1.
         23    2    1    2    0    0  0.00000000000E+00  0.00000000000E+00  0.22059906812E+02  0.95608786537E+02  0.93029030815E+02 0.  0.
        -11    1    3    3    0    0  0.17829035561E+02 -0.20901895974E+02 -0.27545371130E+02  0.38903871723E+02  0.00000000000E+00 0.  1.
         11    1    3    3    0    0 -0.17829035561E+02  0.20901895974E+02  0.49605277942E+02  0.56704914814E+02  0.00000000000E+00 0. -1.
<mgrwt>
<rscale>  0 0.93029031E+02</rscale>
<asrwt>0</asrwt>
<pdfrwt beam="1">  1        4 0.90514379E-02 0.93029031E+02</pdfrwt>
<pdfrwt beam="2">  1       -4 0.56576061E-02 0.93029031E+02</pdfrwt>
<totfact> 0.25309875E+04</totfact>
</mgrwt>
</event>
<event>
 5    1  0.5681061E+000  0.8862554E+02  0.7546771E-02  0.1306215E+00
         -2   -1    0    0    0  501 -0.00000000000E+00  0.00000000000E+00  0.19608718134E+02  0.19608718134E+02  0.00000000000E+00 0.  1.
          2   -1    0    0  501    0  0.00000000000E+00 -0.00000000000E+00 -0.10014024057E+03  0.10014024057E+03  0.00000000000E+00 0. -1.
         23    2    1    2    0    0  0.00000000000E+00  0.00000000000E+00 -0.80531522437E+02  0.11974895870E+03  0.88625543748E+02 0.  0.
        -11    1    3    3    0    0  0.24187911891E+02 -0.27654468117E+02 -0.73741119646E+02  0.82386755095E+02  0.00000000000E+00 0. -1.
         11    1    3    3    0    0 -0.24187911891E+02  0.27654468117E+02 -0.67904027907E+01  0.37362203609E+02  0.00000000000E+00 0.  1.
<mgrwt>
<rscale>  0 0.88625544E+02</rscale>
<asrwt>0</asrwt>
<pdfrwt beam="2">  1        2 0.15406191E-01 0.88625544E+02</pdfrwt>
<pdfrwt beam="1">  1       -2 0.30167259E-02 0.88625544E+02</pdfrwt>
<totfact> 0.13267186E+05</totfact>
</mgrwt>
</event>
<event>
 5    1  0.5681061E+000  0.9096771E+02  0.7546771E-02  0.1300525E+00
         -4   -1    0    0    0  501 -0.00000000000E+00  0.00000000000E+00  0.13935982298E+02  0.13935982298E+02  0.00000000000E+00 0.  1.
          4   -1    0    0  501    0  0.00000000000E+00 -0.00000000000E+00 -0.14844889667E+03  0.14844889667E+03  0.00000000000E+00 0. -1.
         23    2    1    2    0    0  0.00000000000E+00  0.00000000000E+00 -0.13451291437E+03  0.16238487897E+03  0.90967712869E+02 0.  0.
        -11    1    3    3    0    0  0.25488044800E+02 -0.11323021913E+01 -0.40129671293E-01  0.25513215132E+02  0.00000000000E+00 0.  1.
         11    1    3    3    0    0 -0.25488044800E+02  0.11323021913E+01 -0.13447278470E+03  0.13687166384E+03  0.00000000000E+00 0. -1.
<mgrwt>
<rscale>  0 0.90967713E+02</rscale>
<asrwt>0</asrwt>
<pdfrwt beam="2">  1        4 0.22838292E-01 0.90967713E+02</pdfrwt>
<pdfrwt beam="1">  1       -4 0.21439972E-02 0.90967713E+02</pdfrwt>
<totfact> 0.23209307E+04</totfact>
</mgrwt>
</event>
<event>
 5    1  0.5681061E+000  0.9113941E+02  0.7546771E-02  0.1300116E+00
         -3   -1    0    0    0  501 -0.00000000000E+00  0.00000000000E+00  0.68842330192E+02  0.68842330192E+02  0.00000000000E+00 0.  1.
          3   -1    0    0  501    0  0.00000000000E+00 -0.00000000000E+00 -0.30164553965E+02  0.30164553965E+02  0.00000000000E+00 0. -1.
         23    2    1    2    0    0  0.00000000000E+00  0.00000000000E+00  0.38677776227E+02  0.99006884157E+02  0.91139413738E+02 0.  0.
        -11    1    3    3    0    0  0.41927160525E+02 -0.49849930310E+01  0.71671690771E+00  0.42228552288E+02  0.00000000000E+00 0. -1.
         11    1    3    3    0    0 -0.41927160525E+02  0.49849930310E+01  0.37961059319E+02  0.56778331869E+02  0.00000000000E+00 0.  1.
<mgrwt>
<rscale>  0 0.91139414E+02</rscale>
<asrwt>0</asrwt>
<pdfrwt beam="2">  1        3 0.46407006E-02 0.91139414E+02</pdfrwt>
<pdfrwt beam="1">  1       -3 0.10591128E-01 0.91139414E+02</pdfrwt>
<totfact> 0.34784998E+04</totfact>
</mgrwt>
</event>
<event>
 5    1  0.5681061E+000  0.9242523E+02  0.7546771E-02  0.1297083E+00
          1   -1    0    0  501    0  0.00000000000E+00  0.00000000000E+00  0.14564818955E+02  0.14564818955E+02  0.00000000000E+00 0. -1.
         -1   -1    0    0    0  501 -0.00000000000E+00 -0.00000000000E+00 -0.14662770058E+03  0.14662770058E+03  0.00000000000E+00 0.  1.
         23    2    1    2    0    0  0.00000000000E+00  0.00000000000E+00 -0.13206288162E+03  0.16119251953E+03  0.92425232758E+02 0.  0.
        -11    1    3    3    0    0 -0.21751730325E+02 -0.37158129547E+02 -0.95305286531E+02  0.10457993117E+03  0.00000000000E+00 0.  1.
         11    1    3    3    0    0  0.21751730325E+02  0.37158129547E+02 -0.36757595090E+02  0.56612588356E+02  0.00000000000E+00 0. -1.
<mgrwt>
<rscale>  0 0.92425233E+02</rscale>
<asrwt>0</asrwt>
<pdfrwt beam="1">  1        1 0.22407415E-02 0.92425233E+02</pdfrwt>
<pdfrwt beam="2">  1       -1 0.22558107E-01 0.92425233E+02</pdfrwt>
<totfact> 0.72575105E+04</totfact>
</mgrwt>
</event>
<event>
 5    1  0.5681061E+000  0.8891378E+02  0.7546771E-02  0.1305504E+00
         -2   -1    0    0    0  501 -0.00000000000E+00  0.00000000000E+00  0.39578639728E+02  0.39578639728E+02  0.00000000000E+00 0.  1.
          2   -1    0    0  501    0  0.00000000000E+00 -0.00000000000E+00 -0.49936404176E+02  0.49936404176E+02  0.00000000000E+00 0. -1.
         23    2    1    2    0    0  0.00000000000E+00  0.00000000000E+00 -0.10357764448E+02  0.89515043904E+02  0.88913777340E+02 0.  0.
        -11    1    3    3    0    0 -0.35645552885E+02 -0.13517145403E+02 -0.28204844459E+02  0.47421850568E+02  0.00000000000E+00 0. -1.
         11    1    3    3    0    0  0.35645552885E+02  0.13517145403E+02  0.17847080011E+02  0.42093193337E+02  0.00000000000E+00 0.  1.
<mgrwt>
<rscale>  0 0.88913777E+02</rscale>
<asrwt>0</asrwt>
<pdfrwt beam="2">  1        2 0.76825237E-02 0.88913777E+02</pdfrwt>
<pdfrwt beam="1">  1       -2 0.60890215E-02 0.88913777E+02</pdfrwt>
<totfact> 0.10852807E+05</totfact>
</mgrwt>
</event>
<event>
 5    1  0.5681061E+000  0.9405769E+02  0.7546771E-02  0.1293313E+00
          1   -1    0    0  501    0  0.00000000000E+00  0.00000000000E+00  0.29097269158E+02  0.29097269158E+02  0.00000000000E+00 0. -1.
         -1   -1    0    0    0  501 -0.00000000000E+00 -0.00000000000E+00 -0.76010991500E+02  0.76010991500E+02  0.00000000000E+00 0.  1.
         23    2    1    2    0    0  0.00000000000E+00  0.00000000000E+00 -0.46913722342E+02  0.10510826066E+03  0.94057690352E+02 0.  0.
        -11    1    3    3    0    0 -0.44234252684E+01  0.14343014482E+02  0.26348771814E+02  0.30324025651E+02  0.00000000000E+00 0. -1.
         11    1    3    3    0    0  0.44234252684E+01 -0.14343014482E+02 -0.73262494156E+02  0.74784235007E+02  0.00000000000E+00 0.  1.
<mgrwt>
<rscale>  0 0.94057690E+02</rscale>
<asrwt>0</asrwt>
<pdfrwt beam="1">  1        1 0.44765031E-02 0.94057690E+02</pdfrwt>
<pdfrwt beam="2">  1       -1 0.11693998E-01 0.94057690E+02</pdfrwt>
<totfact> 0.78845681E+04</totfact>
</mgrwt>
</event>
<event>
 5    1  0.5681061E+000  0.9116740E+02  0.7546771E-02  0.1300049E+00
         -2   -1    0    0    0  501 -0.00000000000E+00  0.00000000000E+00  0.60885571586E+02  0.60885571586E+02  0.00000000000E+00 0.  1.
          2   -1    0    0  501    0  0.00000000000E+00 -0.00000000000E+00 -0.34127519716E+02  0.34127519716E+02  0.00000000000E+00 0. -1.
         23    2    1    2    0    0  0.00000000000E+00  0.00000000000E+00  0.26758051870E+02  0.95013091303E+02  0.91167396469E+02 0.  0.
        -11    1    3    3    0    0  0.20441678404E+02 -0.37125053612E+02  0.30872234695E+02  0.52433068733E+02  0.00000000000E+00 0.  1.
         11    1    3    3    0    0 -0.20441678404E+02  0.37125053612E+02 -0.41141828246E+01  0.42580022570E+02  0.00000000000E+00 0. -1.
<mgrwt>
<rscale>  0 0.91167396E+02</rscale>
<asrwt>0</asrwt>
<pdfrwt beam="2">  1        2 0.52503877E-02 0.91167396E+02</pdfrwt>
<pdfrwt beam="1">  1       -2 0.93670110E-02 0.91167396E+02</pdfrwt>
<totfact> 0.91559159E+04</totfact>
</mgrwt>
</event>
<event>
 5    1  0.5681061E+000  0.6373669E+02  0.7546771E-02  0.1382788E+00
         -1   -1    0    0    0  501 -0.00000000000E+00  0.00000000000E+00  0.81834911025E+01  0.81834911025E+01  0.00000000000E+00 0.  1.
          1   -1    0    0  501    0  0.00000000000E+00 -0.00000000000E+00 -0.12410247155E+03  0.12410247155E+03  0.00000000000E+00 0. -1.
         23    2    1    2    0    0  0.00000000000E+00  0.00000000000E+00 -0.11591898045E+03  0.13228596265E+03  0.63736691842E+02 0.  0.
        -11    1    3    3    0    0  0.21900363473E+02  0.15725243374E+02 -0.93223711771E+02  0.97044163327E+02  0.00000000000E+00 0. -1.
         11    1    3    3    0    0 -0.21900363473E+02 -0.15725243374E+02 -0.22695268677E+02  0.35241799326E+02  0.00000000000E+00 0.  1.
<mgrwt>
<rscale>  0 0.63736692E+02</rscale>
<asrwt>0</asrwt>
<pdfrwt beam="2">  1        1 0.19092686E-01 0.63736692E+02</pdfrwt>
<pdfrwt beam="1">  1       -1 0.12589987E-02 0.63736692E+02</pdfrwt>
<totfact> 0.27993333E+05</totfact>
</mgrwt>
</event>
<event>
 5    1  0.5681061E+000  0.1069441E+03  0.7546771E-02  0.1266336E+00
         -2   -1    0    0    0  501 -0.00000000000E+00  0.00000000000E+00  0.63398340702E+02  0.63398340702E+02  0.00000000000E+00 0.  1.
          2   -1    0    0  501    0  0.00000000000E+00 -0.00000000000E+00 -0.45099889463E+02  0.45099889463E+02  0.00000000000E+00 0. -1.
         23    2    1    2    0    0  0.00000000000E+00  0.00000000000E+00  0.18298451239E+02  0.10849823016E+03  0.10694406309E+03 0.  0.
        -11    1    3    3    0    0 -0.86126875934E+01  0.39327724785E+02  0.44851687966E+02  0.60270409304E+02  0.00000000000E+00 0.  1.
         11    1    3    3    0    0  0.86126875934E+01 -0.39327724785E+02 -0.26553236726E+02  0.48227820861E+02  0.00000000000E+00 0. -1.
<mgrwt>
<rscale>  0 0.10694406E+03</rscale>
<asrwt>0</asrwt>
<pdfrwt beam="2">  1        2 0.69384445E-02 0.10694406E+03</pdfrwt>
<pdfrwt beam="1">  1       -2 0.97535909E-02 0.10694406E+03</pdfrwt>
<totfact> 0.61730760E+04</totfact>
</mgrwt>
</event>
<event>
 5    1  0.5681061E+000  0.8469886E+02  0.7546771E-02  0.1316222E+00
          2   -1    0    0  501    0  0.00000000000E+00  0.00000000000E+00  0.12517403225E+02  0.12517403225E+02  0.00000000000E+00 0. -1.
         -2   -1    0    0    0  501 -0.00000000000E+00 -0.00000000000E+00 -0.14327844718E+03  0.14327844718E+03  0.00000000000E+00 0.  1.
         23    2    1    2    0    0  0.00000000000E+00  0.00000000000E+00 -0.13076104395E+03  0.15579585040E+03  0.84698857060E+02 0.  0.
        -11    1    3    3    0    0 -0.25771128128E+02  0.13886372402E+02 -0.12167039975E+03  0.12514259290E+03  0.00000000000E+00 0.  1.
         11    1    3    3    0    0  0.25771128128E+02 -0.13886372402E+02 -0.90906442079E+01  0.30653257504E+02  0.00000000000E+00 0. -1.
<mgrwt>
<rscale>  0 0.84698857E+02</rscale>
<asrwt>0</asrwt>
<pdfrwt beam="1">  1        2 0.19257543E-02 0.84698857E+02</pdfrwt>
<pdfrwt beam="2">  1       -2 0.22042839E-01 0.84698857E+02</pdfrwt>
<totfact> 0.85539463E+04</totfact>
</mgrwt>
</event>
<event>
 5    1  0.5681061E+000  0.9245745E+02  0.7546771E-02  0.1297007E+00
         -2   -1    0    0    0  501 -0.00000000000E+00  0.00000000000E+00  0.19430358055E+02  0.19430358055E+02  0.00000000000E+00 0.  1.
          2   -1    0    0  501    0  0.00000000000E+00 -0.00000000000E+00 -0.10998742967E+03  0.10998742967E+03  0.00000000000E+00 0. -1.
         23    2    1    2    0    0  0.00000000000E+00  0.00000000000E+00 -0.90557071618E+02  0.12941778773E+03  0.92457452703E+02 0.  0.
        -11    1    3    3    0    0  0.81414325968E+01  0.33898177343E+02 -0.27820599060E+01  0.34972978273E+02  0.00000000000E+00 0.  1.
         11    1    3    3    0    0 -0.81414325968E+01 -0.33898177343E+02 -0.87775011712E+02  0.94444809455E+02  0.00000000000E+00 0. -1.
<mgrwt>
<rscale>  0 0.92457453E+02</rscale>
<asrwt>0</asrwt>
<pdfrwt beam="2">  1        2 0.16921142E-01 0.92457453E+02</pdfrwt>
<pdfrwt beam="1">  1       -2 0.29892860E-02 0.92457453E+02</pdfrwt>
<totfact> 0.12158284E+05</totfact>
</mgrwt>
</event>
<event>
 5    1  0.5681061E+000  0.9241889E+02  0.7546771E-02  0.1297098E+00
          1   -1    0    0  501    0  0.00000000000E+00  0.00000000000E+00  0.25670800609E+03  0.25670800609E+03  0.00000000000E+00 0. -1.
         -1   -1    0    0    0  501 -0.00000000000E+00 -0.00000000000E+00 -0.83180604456E+01  0.83180604456E+01  0.00000000000E+00 0.  1.
         23    2    1    2    0    0  0.00000000000E+00  0.00000000000E+00  0.24838994565E+03  0.26502606654E+03  0.92418887929E+02 0.  0.
        -11    1    3    3    0    0  0.10741619067E+02  0.44124273336E+02  0.99697216389E+02  0.10955304119E+03  0.00000000000E+00 0.  1.
         11    1    3    3    0    0 -0.10741619067E+02 -0.44124273336E+02  0.14869272926E+03  0.15547302535E+03  0.00000000000E+00 0. -1.
<mgrwt>
<rscale>  0 0.92418888E+02</rscale>
<asrwt>0</asrwt>
<pdfrwt beam="1">  1        1 0.39493533E-01 0.92418888E+02</pdfrwt>
<pdfrwt beam="2">  1       -1 0.12797018E-02 0.92418888E+02</pdfrwt>
<totfact> 0.11989158E+05</totfact>
</mgrwt>
</event>
<event>
 5    1  0.5681061E+000  0.9242049E+02  0.7546771E-02  0.1297094E+00
         -4   -1    0    0    0  501 -0.00000000000E+00  0.00000000000E+00  0.43034910671E+02  0.43034910671E+02  0.00000000000E+00 0.  1.
          4   -1    0    0  501    0  0.00000000000E+00 -0.00000000000E+00 -0.49619872406E+02  0.49619872406E+02  0.00000000000E+00 0. -1.
         23    2    1    2    0    0  0.00000000000E+00  0.00000000000E+00 -0.65849617350E+01  0.92654783078E+02  0.92420490727E+02 0.  0.
        -11    1    3    3    0    0 -0.35038616976E+02 -0.15678150437E+02 -0.29084684362E+02  0.48160439628E+02  0.00000000000E+00 0. -1.
         11    1    3    3    0    0  0.35038616976E+02  0.15678150437E+02  0.22499722627E+02  0.44494343450E+02  0.00000000000E+00 0.  1.
<mgrwt>
<rscale>  0 0.92420491E+02</rscale>
<asrwt>0</asrwt>
<pdfrwt beam="2">  1        4 0.76338265E-02 0.92420491E+02</pdfrwt>
<pdfrwt beam="1">  1       -4 0.66207555E-02 0.92420491E+02</pdfrwt>
<totfact> 0.25946680E+04</totfact>
</mgrwt>
</event>
<event>
 5    1  0.5681061E+000  0.8903349E+02  0.7546771E-02  0.1305209E+00
          3   -1    0    0  501    0  0.00000000000E+00  0.00000000000E+00  0.37837182637E+02  0.37837182637E+02  0.00000000000E+00 0. -1.
         -3   -1    0    0    0  501 -0.00000000000E+00 -0.00000000000E+00 -0.52375476321E+02  0.52375476321E+02  0.00000000000E+00 0.  1.
         23    2    1    2    0    0  0.00000000000E+00  0.00000000000E+00 -0.14538293684E+02  0.90212658958E+02  0.89033487256E+02 0.  0.
        -11    1    3    3    0    0  0.30168511874E+02  0.32423264570E+02 -0.27001831718E+01  0.44370014460E+02  0.00000000000E+00 0.  1.
         11    1    3    3    0    0 -0.30168511874E+02 -0.32423264570E+02 -0.11838110513E+02  0.45842644498E+02  0.00000000000E+00 0. -1.
<mgrwt>
<rscale>  0 0.89033487E+02</rscale>
<asrwt>0</asrwt>
<pdfrwt beam="1">  1        3 0.58211050E-02 0.89033487E+02</pdfrwt>
<pdfrwt beam="2">  1       -3 0.80577656E-02 0.89033487E+02</pdfrwt>
<totfact> 0.37778146E+04</totfact>
</mgrwt>
</event>
<event>
 5    1  0.5681061E+000  0.8939693E+02  0.7546771E-02  0.1304319E+00
         -1   -1    0    0    0  501 -0.00000000000E+00  0.00000000000E+00  0.70805796138E+01  0.70805796138E+01  0.00000000000E+00 0.  1.
          1   -1    0    0  501    0  0.00000000000E+00 -0.00000000000E+00 -0.28217362840E+03  0.28217362840E+03  0.00000000000E+00 0. -1.
         23    2    1    2    0    0  0.00000000000E+00  0.00000000000E+00 -0.27509304879E+03  0.28925420802E+03  0.89396931510E+02 0.  0.
        -11    1    3    3    0    0 -0.41617707481E+02 -0.15694441968E+02 -0.12322046593E+03  0.13100241337E+03  0.00000000000E+00 0.  1.
         11    1    3    3    0    0  0.41617707481E+02  0.15694441968E+02 -0.15187258286E+03  0.15825179465E+03  0.00000000000E+00 0. -1.
<mgrwt>
<rscale>  0 0.89396932E+02</rscale>
<asrwt>0</asrwt>
<pdfrwt beam="2">  1        1 0.43411322E-01 0.89396932E+02</pdfrwt>
<pdfrwt beam="1">  1       -1 0.10893201E-02 0.89396932E+02</pdfrwt>
<totfact> 0.13344675E+05</totfact>
</mgrwt>
</event>
<event>
 5    1  0.5681061E+000  0.9903627E+02  0.7546771E-02  0.1282336E+00
          1   -1    0    0  501    0  0.00000000000E+00  0.00000000000E+00  0.48561375077E+02  0.48561375077E+02  0.00000000000E+00 0. -1.
         -1   -1    0    0    0  501 -0.00000000000E+00 -0.00000000000E+00 -0.50493747323E+02  0.50493747323E+02  0.00000000000E+00 0.  1.
         23    2    1    2    0    0  0.00000000000E+00  0.00000000000E+00 -0.19323722463E+01  0.99055122400E+02  0.99036272199E+02 0.  0.
        -11    1    3    3    0    0 -0.83131144150E+01  0.20194431576E+02  0.43484627274E+02  0.48660412525E+02  0.00000000000E+00 0. -1.
         11    1    3    3    0    0  0.83131144150E+01 -0.20194431576E+02 -0.45416999520E+02  0.50394709875E+02  0.00000000000E+00 0.  1.
<mgrwt>
<rscale>  0 0.99036272E+02</rscale>
<asrwt>0</asrwt>
<pdfrwt beam="1">  1        1 0.74709807E-02 0.99036272E+02</pdfrwt>
<pdfrwt beam="2">  1       -1 0.77682689E-02 0.99036272E+02</pdfrwt>
<totfact> 0.73938988E+04</totfact>
</mgrwt>
</event>
<event>
 5    1  0.5681061E+000  0.9144050E+02  0.7546771E-02  0.1299400E+00
          2   -1    0    0  501    0  0.00000000000E+00  0.00000000000E+00  0.28914223596E+03  0.28914223596E+03  0.00000000000E+00 0. -1.
         -2   -1    0    0    0  501 -0.00000000000E+00 -0.00000000000E+00 -0.72294564954E+01  0.72294564954E+01  0.00000000000E+00 0.  1.
         23    2    1    2    0    0  0.00000000000E+00  0.00000000000E+00  0.28191277947E+03  0.29637169246E+03  0.91440499033E+02 0.  0.
        -11    1    3    3    0    0 -0.42646257258E+00  0.40248523802E+02  0.70673973276E+02  0.81332257052E+02  0.00000000000E+00 0.  1.
         11    1    3    3    0    0  0.42646257258E+00 -0.40248523802E+02  0.21123880619E+03  0.21503943541E+03  0.00000000000E+00 0. -1.
<mgrwt>
<rscale>  0 0.91440499E+02</rscale>
<asrwt>0</asrwt>
<pdfrwt beam="1">  1        2 0.44483412E-01 0.91440499E+02</pdfrwt>
<pdfrwt beam="2">  1       -2 0.11122243E-02 0.91440499E+02</pdfrwt>
<totfact> 0.17584650E+05</totfact>
</mgrwt>
</event>
<event>
 5    1  0.5681061E+000  0.8995359E+02  0.7546771E-02  0.1302964E+00
         -2   -1    0    0    0  501 -0.00000000000E+00  0.00000000000E+00  0.17294004334E+03  0.17294004334E+03  0.00000000000E+00 0.  1.
          2   -1    0    0  501    0  0.00000000000E+00 -0.00000000000E+00 -0.11697186254E+02  0.11697186254E+02  0.00000000000E+00 0. -1.
         23    2    1    2    0    0  0.00000000000E+00  0.00000000000E+00  0.16124285708E+03  0.18463722959E+03  0.89953585760E+02 0.  0.
        -11    1    3    3    0    0 -0.30158108788E+02 -0.99353287072E+01  0.15238043232E+02  0.35219600277E+02  0.00000000000E+00 0. -1.
         11    1    3    3    0    0  0.30158108788E+02  0.99353287072E+01  0.14600481385E+03  0.14941762932E+03  0.00000000000E+00 0.  1.
<mgrwt>
<rscale>  0 0.89953586E+02</rscale>
<asrwt>0</asrwt>
<pdfrwt beam="2">  1        2 0.17995672E-02 0.89953586E+02</pdfrwt>
<pdfrwt beam="1">  1       -2 0.26606159E-01 0.89953586E+02</pdfrwt>
<totfact> 0.68496741E+04</totfact>
</mgrwt>
</event>
<event>
 5    1  0.5681061E+000  0.9067504E+02  0.7546771E-02  0.1301225E+00
         -1   -1    0    0    0  501 -0.00000000000E+00  0.00000000000E+00  0.48525714678E+02  0.48525714678E+02  0.00000000000E+00 0.  1.
          1   -1    0    0  501    0  0.00000000000E+00 -0.00000000000E+00 -0.42358795281E+02  0.42358795281E+02  0.00000000000E+00 0. -1.
         23    2    1    2    0    0  0.00000000000E+00  0.00000000000E+00  0.61669193967E+01  0.90884509959E+02  0.90675042077E+02 0.  0.
        -11    1    3    3    0    0  0.13001626364E+02  0.42156813016E+01  0.46411512582E+02  0.48382256635E+02  0.00000000000E+00 0.  1.
         11    1    3    3    0    0 -0.13001626364E+02 -0.42156813016E+01 -0.40244593186E+02  0.42502253324E+02  0.00000000000E+00 0. -1.
<mgrwt>
<rscale>  0 0.90675042E+02</rscale>
<asrwt>0</asrwt>
<pdfrwt beam="2">  1        1 0.65167377E-02 0.90675042E+02</pdfrwt>
<pdfrwt beam="1">  1       -1 0.74654946E-02 0.90675042E+02</pdfrwt>
<totfact> 0.92885575E+04</totfact>
</mgrwt>
</event>
<event>
 5    1  0.5681061E+000  0.9479706E+02  0.7546771E-02  0.1291634E+00
         -2   -1    0    0    0  501 -0.00000000000E+00  0.00000000000E+00  0.10844833240E+03  0.10844833240E+03  0.00000000000E+00 0.  1.
          2   -1    0    0  501    0  0.00000000000E+00 -0.00000000000E+00 -0.20716045153E+02  0.20716045153E+02  0.00000000000E+00 0. -1.
         23    2    1    2    0    0  0.00000000000E+00  0.00000000000E+00  0.87732287250E+02  0.12916437756E+03  0.94797057988E+02 0.  0.
        -11    1    3    3    0    0  0.39230860560E+02  0.23240149940E+02  0.26234301695E+02  0.52606117277E+02  0.00000000000E+00 0. -1.
         11    1    3    3    0    0 -0.39230860560E+02 -0.23240149940E+02  0.61497985555E+02  0.76558260279E+02  0.00000000000E+00 0.  1.
<mgrwt>
<rscale>  0 0.94797058E+02</rscale>
<asrwt>0</asrwt>
<pdfrwt beam="2">  1        2 0.31870839E-02 0.94797058E+02</pdfrwt>
<pdfrwt beam="1">  1       -2 0.16684358E-01 0.94797058E+02</pdfrwt>
<totfact> 0.70644578E+04</totfact>
</mgrwt>
</event>
<event>
 5    1  0.5681061E+000  0.9129847E+02  0.7546771E-02  0.1299737E+00
          2   -1    0    0  501    0  0.00000000000E+00  0.00000000000E+00  0.13129517643E+03  0.13129517643E+03  0.00000000000E+00 0.  1.
         -2   -1    0    0    0  501 -0.00000000000E+00 -0.00000000000E+00 -0.15871509404E+02  0.15871509404E+02  0.00000000000E+00 0. -1.
         23    2    1    2    0    0  0.00000000000E+00  0.00000000000E+00  0.11542366703E+03  0.14716668583E+03  0.91298469371E+02 0.  0.
        -11    1    3    3    0    0  0.11105673979E+02 -0.37646591082E+02  0.95282266961E+02  0.10305004712E+03  0.00000000000E+00 0.  1.
         11    1    3    3    0    0 -0.11105673979E+02  0.37646591082E+02  0.20141400065E+02  0.44116638712E+02  0.00000000000E+00 0. -1.
<mgrwt>
<rscale>  0 0.91298469E+02</rscale>
<asrwt>0</asrwt>
<pdfrwt beam="1">  1        2 0.20199257E-01 0.91298469E+02</pdfrwt>
<pdfrwt beam="2">  1       -2 0.24417708E-02 0.91298469E+02</pdfrwt>
<totfact> 0.13322995E+05</totfact>
</mgrwt>
</event>
<event>
 5    1  0.5681061E+000  0.9137521E+02  0.7546771E-02  0.1299555E+00
         -1   -1    0    0    0  501 -0.00000000000E+00  0.00000000000E+00  0.11788405567E+03  0.11788405567E+03  0.00000000000E+00 0.  1.
          1   -1    0    0  501    0  0.00000000000E+00 -0.00000000000E+00 -0.17706865095E+02  0.17706865095E+02  0.00000000000E+00 0. -1.
         23    2    1    2    0    0  0.00000000000E+00  0.00000000000E+00  0.10017719058E+03  0.13559092077E+03  0.91375206060E+02 0.  0.
        -11    1    3    3    0    0  0.43984833380E+02  0.36768836452E+00  0.68416690239E+02  0.81336610856E+02  0.00000000000E+00 0.  1.
         11    1    3    3    0    0 -0.43984833380E+02 -0.36768836452E+00  0.31760500336E+02  0.54254309910E+02  0.00000000000E+00 0. -1.
<mgrwt>
<rscale>  0 0.91375206E+02</rscale>
<asrwt>0</asrwt>
<pdfrwt beam="2">  1        1 0.27241332E-02 0.91375206E+02</pdfrwt>
<pdfrwt beam="1">  1       -1 0.18136008E-01 0.91375206E+02</pdfrwt>
<totfact> 0.78373634E+04</totfact>
</mgrwt>
</event>
<event>
 5    1  0.5681061E+000  0.9274277E+02  0.7546771E-02  0.1296342E+00
          4   -1    0    0  501    0  0.00000000000E+00  0.00000000000E+00  0.11268589897E+02  0.11268589897E+02  0.00000000000E+00 0. -1.
         -4   -1    0    0    0  501 -0.00000000000E+00 -0.00000000000E+00 -0.19082294047E+03  0.19082294047E+03  0.00000000000E+00 0.  1.
         23    2    1    2    0    0  0.00000000000E+00  0.00000000000E+00 -0.17955435057E+03  0.20209153037E+03  0.92742772423E+02 0.  0.
        -11    1    3    3    0    0 -0.73143321034E+01  0.41127036264E+02 -0.13364997914E+03  0.14002588865E+03  0.00000000000E+00 0.  1.
         11    1    3    3    0    0  0.73143321034E+01 -0.41127036264E+02 -0.45904371427E+02  0.62065641720E+02  0.00000000000E+00 0. -1.
<mgrwt>
<rscale>  0 0.92742772E+02</rscale>
<asrwt>0</asrwt>
<pdfrwt beam="1">  1        4 0.17336293E-02 0.92742772E+02</pdfrwt>
<pdfrwt beam="2">  1       -4 0.29357375E-01 0.92742772E+02</pdfrwt>
<totfact> 0.20347453E+04</totfact>
</mgrwt>
</event>
<event>
 5    1  0.5681061E+000  0.9058632E+02  0.7546771E-02  0.1301438E+00
         -1   -1    0    0    0  501 -0.00000000000E+00  0.00000000000E+00  0.89949021304E+02  0.89949021304E+02  0.00000000000E+00 0.  1.
          1   -1    0    0  501    0  0.00000000000E+00 -0.00000000000E+00 -0.22807033008E+02  0.22807033008E+02  0.00000000000E+00 0. -1.
         23    2    1    2    0    0  0.00000000000E+00  0.00000000000E+00  0.67141988296E+02  0.11275605431E+03  0.90586319009E+02 0.  0.
        -11    1    3    3    0    0  0.26553312973E+02  0.10965375986E+02  0.77157241945E+02  0.82331997941E+02  0.00000000000E+00 0.  1.
         11    1    3    3    0    0 -0.26553312973E+02 -0.10965375986E+02 -0.10015253649E+02  0.30424056370E+02  0.00000000000E+00 0. -1.
<mgrwt>
<rscale>  0 0.90586319E+02</rscale>
<asrwt>0</asrwt>
<pdfrwt beam="2">  1        1 0.35087744E-02 0.90586319E+02</pdfrwt>
<pdfrwt beam="1">  1       -1 0.13838311E-01 0.90586319E+02</pdfrwt>
<totfact> 0.84345406E+04</totfact>
</mgrwt>
</event>
<event>
 5    1  0.5681061E+000  0.9126948E+02  0.7546771E-02  0.1299806E+00
         -2   -1    0    0    0  501 -0.00000000000E+00  0.00000000000E+00  0.11726464634E+02  0.11726464634E+02  0.00000000000E+00 0.  1.
          2   -1    0    0  501    0  0.00000000000E+00 -0.00000000000E+00 -0.17759225520E+03  0.17759225520E+03  0.00000000000E+00 0. -1.
         23    2    1    2    0    0  0.00000000000E+00  0.00000000000E+00 -0.16586579057E+03  0.18931871983E+03  0.91269475727E+02 0.  0.
        -11    1    3    3    0    0 -0.44817736430E+02 -0.69775991041E+01 -0.93348380485E+02  0.10378456787E+03  0.00000000000E+00 0.  1.
         11    1    3    3    0    0  0.44817736430E+02  0.69775991041E+01 -0.72517410080E+02  0.85534151967E+02  0.00000000000E+00 0. -1.
<mgrwt>
<rscale>  0 0.91269476E+02</rscale>
<asrwt>0</asrwt>
<pdfrwt beam="2">  1        2 0.27321884E-01 0.91269476E+02</pdfrwt>
<pdfrwt beam="1">  1       -2 0.18040716E-02 0.91269476E+02</pdfrwt>
<totfact> 0.14783058E+05</totfact>
</mgrwt>
</event>
<event>
 5    1  0.5681061E+000  0.9045669E+02  0.7546771E-02  0.1301750E+00
         -2   -1    0    0    0  501 -0.00000000000E+00  0.00000000000E+00  0.85330503127E+02  0.85330503127E+02  0.00000000000E+00 0.  1.
          2   -1    0    0  501    0  0.00000000000E+00 -0.00000000000E+00 -0.23972707497E+02  0.23972707497E+02  0.00000000000E+00 0. -1.
         23    2    1    2    0    0  0.00000000000E+00  0.00000000000E+00  0.61357795631E+02  0.10930321062E+03  0.90456690013E+02 0.  0.
        -11    1    3    3    0    0  0.41122427528E+02  0.99904875901E+01  0.49964810924E+02  0.65477829980E+02  0.00000000000E+00 0.  1.
         11    1    3    3    0    0 -0.41122427528E+02 -0.99904875901E+01  0.11392984706E+02  0.43825380644E+02  0.00000000000E+00 0. -1.
<mgrwt>
<rscale>  0 0.90456690E+02</rscale>
<asrwt>0</asrwt>
<pdfrwt beam="2">  1        2 0.36881089E-02 0.90456690E+02</pdfrwt>
<pdfrwt beam="1">  1       -2 0.13127770E-01 0.90456690E+02</pdfrwt>
<totfact> 0.85211221E+04</totfact>
</mgrwt>
</event>
<event>
 5    1  0.5681061E+000  0.9117691E+02  0.7546771E-02  0.1300026E+00
          2   -1    0    0  501    0  0.00000000000E+00  0.00000000000E+00  0.23737219656E+02  0.23737219656E+02  0.00000000000E+00 0. -1.
         -2   -1    0    0    0  501 -0.00000000000E+00 -0.00000000000E+00 -0.87554784924E+02  0.87554784924E+02  0.00000000000E+00 0.  1.
         23    2    1    2    0    0  0.00000000000E+00  0.00000000000E+00 -0.63817565268E+02  0.11129200458E+03  0.91176908516E+02 0.  0.
        -11    1    3    3    0    0 -0.43276298981E+02 -0.12429592588E+01 -0.49339427063E+02  0.65641161356E+02  0.00000000000E+00 0.  1.
         11    1    3    3    0    0  0.43276298981E+02  0.12429592588E+01 -0.14478138205E+02  0.45650843224E+02  0.00000000000E+00 0. -1.
<mgrwt>
<rscale>  0 0.91176909E+02</rscale>
<asrwt>0</asrwt>
<pdfrwt beam="1">  1        2 0.36518799E-02 0.91176909E+02</pdfrwt>
<pdfrwt beam="2">  1       -2 0.13469967E-01 0.91176909E+02</pdfrwt>
<totfact> 0.82954622E+04</totfact>
</mgrwt>
</event>
<event>
 5    1  0.5681061E+000  0.9194742E+02  0.7546771E-02  0.1298203E+00
          2   -1    0    0  501    0  0.00000000000E+00  0.00000000000E+00  0.27680453182E+03  0.27680453182E+03  0.00000000000E+00 0.  1.
         -2   -1    0    0    0  501 -0.00000000000E+00 -0.00000000000E+00 -0.76356489696E+01  0.76356489696E+01  0.00000000000E+00 0. -1.
         23    2    1    2    0    0  0.00000000000E+00  0.00000000000E+00  0.26916888286E+03  0.28444018079E+03  0.91947424939E+02 0.  0.
        -11    1    3    3    0    0 -0.39156652751E+02  0.15005354744E+02  0.19288523584E+03  0.19739077570E+03  0.00000000000E+00 0.  1.
         11    1    3    3    0    0  0.39156652751E+02 -0.15005354744E+02  0.76283647017E+02  0.87049405098E+02  0.00000000000E+00 0. -1.
<mgrwt>
<rscale>  0 0.91947425E+02</rscale>
<asrwt>0</asrwt>
<pdfrwt beam="1">  1        2 0.42585305E-01 0.91947425E+02</pdfrwt>
<pdfrwt beam="2">  1       -2 0.11747154E-02 0.91947425E+02</pdfrwt>
<totfact> 0.17046667E+05</totfact>
</mgrwt>
</event>
<event>
 4    1  0.5681061E+000  0.1360935E+03  0.7546771E-02  0.1218684E+00
          3   -1    0    0  501    0  0.00000000000E+00  0.00000000000E+00  0.14276344586E+02  0.14276344586E+02  0.00000000000E+00 0. -1.
         -3   -1    0    0    0  501 -0.00000000000E+00 -0.00000000000E+00 -0.32433808988E+03  0.32433808988E+03  0.00000000000E+00 0.  1.
        -11    1    1    2    0    0 -0.65283422807E+02  0.11168231802E+01 -0.10735339670E+03  0.12565000744E+03  0.00000000000E+00 0.  1.
         11    1    1    2    0    0  0.65283422807E+02 -0.11168231802E+01 -0.20270834859E+03  0.21296442702E+03  0.00000000000E+00 0. -1.
<mgrwt>
<rscale>  0 0.13609353E+03</rscale>
<asrwt>0</asrwt>
<pdfrwt beam="1">  1        3 0.21963607E-02 0.13609353E+03</pdfrwt>
<pdfrwt beam="2">  1       -3 0.49898167E-01 0.13609353E+03</pdfrwt>
<totfact> 0.75267340E+03</totfact>
</mgrwt>
</event>
<event>
 5    1  0.5681061E+000  0.9232800E+02  0.7546771E-02  0.1297310E+00
          3   -1    0    0  501    0  0.00000000000E+00  0.00000000000E+00  0.58425629380E+02  0.58425629380E+02  0.00000000000E+00 0. -1.
         -3   -1    0    0    0  501 -0.00000000000E+00 -0.00000000000E+00 -0.36475685706E+02  0.36475685706E+02  0.00000000000E+00 0.  1.
         23    2    1    2    0    0  0.00000000000E+00  0.00000000000E+00  0.21949943674E+02  0.94901315086E+02  0.92327999967E+02 0.  0.
        -11    1    3    3    0    0  0.20279882484E+02  0.27058585236E+02 -0.21328236856E+02  0.39979174027E+02  0.00000000000E+00 0.  1.
         11    1    3    3    0    0 -0.20279882484E+02 -0.27058585236E+02  0.43278180530E+02  0.54922141059E+02  0.00000000000E+00 0. -1.
<mgrwt>
<rscale>  0 0.92328000E+02</rscale>
<asrwt>0</asrwt>
<pdfrwt beam="1">  1        3 0.89885584E-02 0.92328000E+02</pdfrwt>
<pdfrwt beam="2">  1       -3 0.56116440E-02 0.92328000E+02</pdfrwt>
<totfact> 0.33874095E+04</totfact>
</mgrwt>
</event>
<event>
 5    1  0.5681061E+000  0.9135772E+02  0.7546771E-02  0.1299597E+00
         -4   -1    0    0    0  501 -0.00000000000E+00  0.00000000000E+00  0.70403687672E+02  0.70403687672E+02  0.00000000000E+00 0.  1.
          4   -1    0    0  501    0  0.00000000000E+00 -0.00000000000E+00 -0.29637057034E+02  0.29637057034E+02  0.00000000000E+00 0. -1.
         23    2    1    2    0    0  0.00000000000E+00  0.00000000000E+00  0.40766630637E+02  0.10004074471E+03  0.91357716849E+02 0.  0.
        -11    1    3    3    0    0  0.36956574669E+01  0.16548477256E+02 -0.26063192783E+02  0.31093407688E+02  0.00000000000E+00 0. -1.
         11    1    3    3    0    0 -0.36956574669E+01 -0.16548477256E+02  0.66829823420E+02  0.68947337019E+02  0.00000000000E+00 0.  1.
<mgrwt>
<rscale>  0 0.91357717E+02</rscale>
<asrwt>0</asrwt>
<pdfrwt beam="2">  1        4 0.45595473E-02 0.91357717E+02</pdfrwt>
<pdfrwt beam="1">  1       -4 0.10831337E-01 0.91357717E+02</pdfrwt>
<totfact> 0.26313656E+04</totfact>
</mgrwt>
</event>
<event>
 5    1  0.5681061E+000  0.9210452E+02  0.7546771E-02  0.1297834E+00
         -2   -1    0    0    0  501 -0.00000000000E+00  0.00000000000E+00  0.48666983994E+02  0.48666983994E+02  0.00000000000E+00 0.  1.
          2   -1    0    0  501    0  0.00000000000E+00 -0.00000000000E+00 -0.43578015257E+02  0.43578015257E+02  0.00000000000E+00 0. -1.
         23    2    1    2    0    0  0.00000000000E+00  0.00000000000E+00  0.50889687369E+01  0.92244999251E+02  0.92104518260E+02 0.  0.
        -11    1    3    3    0    0  0.31472617038E+02  0.24312398702E+01  0.36127314867E+02  0.47975195987E+02  0.00000000000E+00 0.  1.
         11    1    3    3    0    0 -0.31472617038E+02 -0.24312398702E+01 -0.31038346130E+02  0.44269803264E+02  0.00000000000E+00 0. -1.
<mgrwt>
<rscale>  0 0.92104518E+02</rscale>
<asrwt>0</asrwt>
<pdfrwt beam="2">  1        2 0.67043100E-02 0.92104518E+02</pdfrwt>
<pdfrwt beam="1">  1       -2 0.74872283E-02 0.92104518E+02</pdfrwt>
<totfact> 0.94720790E+04</totfact>
</mgrwt>
</event>
<event>
 5    1  0.5681061E+000  0.8560874E+02  0.7546771E-02  0.1313848E+00
          4   -1    0    0  501    0  0.00000000000E+00  0.00000000000E+00  0.30552086211E+02  0.30552086211E+02  0.00000000000E+00 0. -1.
         -4   -1    0    0    0  501 -0.00000000000E+00 -0.00000000000E+00 -0.59970173309E+02  0.59970173309E+02  0.00000000000E+00 0.  1.
         23    2    1    2    0    0  0.00000000000E+00  0.00000000000E+00 -0.29418087097E+02  0.90522259520E+02  0.85608735653E+02 0.  0.
        -11    1    3    3    0    0 -0.28033426017E+02  0.12236591665E+02 -0.46371040742E+02  0.55550702690E+02  0.00000000000E+00 0.  1.
         11    1    3    3    0    0  0.28033426017E+02 -0.12236591665E+02  0.16952953645E+02  0.34971556830E+02  0.00000000000E+00 0. -1.
<mgrwt>
<rscale>  0 0.85608736E+02</rscale>
<asrwt>0</asrwt>
<pdfrwt beam="1">  1        4 0.47003210E-02 0.85608736E+02</pdfrwt>
<pdfrwt beam="2">  1       -4 0.92261804E-02 0.85608736E+02</pdfrwt>
<totfact> 0.32073882E+04</totfact>
</mgrwt>
</event>
<event>
 5    1  0.5681061E+000  0.9014700E+02  0.7546771E-02  0.1302496E+00
          3   -1    0    0  501    0  0.00000000000E+00  0.00000000000E+00  0.24336343681E+02  0.24336343681E+02  0.00000000000E+00 0. -1.
         -3   -1    0    0    0  501 -0.00000000000E+00 -0.00000000000E+00 -0.83480917509E+02  0.83480917509E+02  0.00000000000E+00 0.  1.
         23    2    1    2    0    0  0.00000000000E+00  0.00000000000E+00 -0.59144573828E+02  0.10781726119E+03  0.90146997717E+02 0.  0.
        -11    1    3    3    0    0  0.32055811270E+02 -0.18060843592E+02 -0.60711254552E+02  0.70990320021E+02  0.00000000000E+00 0.  1.
         11    1    3    3    0    0 -0.32055811270E+02  0.18060843592E+02  0.15666807240E+01  0.36826941170E+02  0.00000000000E+00 0. -1.
<mgrwt>
<rscale>  0 0.90146998E+02</rscale>
<asrwt>0</asrwt>
<pdfrwt beam="1">  1        3 0.37440529E-02 0.90146998E+02</pdfrwt>
<pdfrwt beam="2">  1       -3 0.12843218E-01 0.90146998E+02</pdfrwt>
<totfact> 0.35170322E+04</totfact>
</mgrwt>
</event>
<event>
 5    1  0.5681061E+000  0.9216326E+02  0.7546771E-02  0.1297696E+00
          2   -1    0    0  501    0  0.00000000000E+00  0.00000000000E+00  0.96847031470E+02  0.96847031470E+02  0.00000000000E+00 0. -1.
         -2   -1    0    0    0  501 -0.00000000000E+00 -0.00000000000E+00 -0.21926499896E+02  0.21926499896E+02  0.00000000000E+00 0.  1.
         23    2    1    2    0    0  0.00000000000E+00  0.00000000000E+00  0.74920531574E+02  0.11877353137E+03  0.92163255704E+02 0.  0.
        -11    1    3    3    0    0 -0.45355695423E+01 -0.19979363524E+02  0.90654841980E+02  0.92941092808E+02  0.00000000000E+00 0. -1.
         11    1    3    3    0    0  0.45355695423E+01  0.19979363524E+02 -0.15734310406E+02  0.25832438558E+02  0.00000000000E+00 0.  1.
<mgrwt>
<rscale>  0 0.92163256E+02</rscale>
<asrwt>0</asrwt>
<pdfrwt beam="1">  1        2 0.14899543E-01 0.92163256E+02</pdfrwt>
<pdfrwt beam="2">  1       -2 0.33733077E-02 0.92163256E+02</pdfrwt>
<totfact> 0.11793379E+05</totfact>
</mgrwt>
</event>
<event>
 5    1  0.5681061E+000  0.1230574E+03  0.7546771E-02  0.1238137E+00
          4   -1    0    0  501    0  0.00000000000E+00  0.00000000000E+00  0.96709214854E+02  0.96709214854E+02  0.00000000000E+00 0.  1.
         -4   -1    0    0    0  501 -0.00000000000E+00 -0.00000000000E+00 -0.39146004190E+02  0.39146004190E+02  0.00000000000E+00 0. -1.
         23    2    1    2    0    0  0.00000000000E+00  0.00000000000E+00  0.57563210665E+02  0.13585521904E+03  0.12305737410E+03 0.  0.
        -11    1    3    3    0    0 -0.14687053975E+02  0.17643157657E+02 -0.34241063242E+02  0.41224276567E+02  0.00000000000E+00 0. -1.
         11    1    3    3    0    0  0.14687053975E+02 -0.17643157657E+02  0.91804273906E+02  0.94630942477E+02  0.00000000000E+00 0.  1.
<mgrwt>
<rscale>  0 0.12305737E+03</rscale>
<asrwt>0</asrwt>
<pdfrwt beam="1">  1        4 0.14878341E-01 0.12305737E+03</pdfrwt>
<pdfrwt beam="2">  1       -4 0.60224622E-02 0.12305737E+03</pdfrwt>
<totfact> 0.10680896E+04</totfact>
</mgrwt>
</event>
<event>
 5    1  0.5681061E+000  0.9143854E+02  0.7546771E-02  0.1299405E+00
         -1   -1    0    0    0  501 -0.00000000000E+00  0.00000000000E+00  0.10329274707E+03  0.10329274707E+03  0.00000000000E+00 0.  1.
          1   -1    0    0  501    0  0.00000000000E+00 -0.00000000000E+00 -0.20236191585E+02  0.20236191585E+02  0.00000000000E+00 0. -1.
         23    2    1    2    0    0  0.00000000000E+00  0.00000000000E+00  0.83056555483E+02  0.12352893865E+03  0.91438543710E+02 0.  0.
        -11    1    3    3    0    0 -0.26985057427E+02  0.19924417021E+02 -0.43990746745E+00  0.33546523464E+02  0.00000000000E+00 0. -1.
         11    1    3    3    0    0  0.26985057427E+02 -0.19924417021E+02  0.83496462951E+02  0.89982415189E+02  0.00000000000E+00 0.  1.
<mgrwt>
<rscale>  0 0.91438544E+02</rscale>
<asrwt>0</asrwt>
<pdfrwt beam="2">  1        1 0.31132603E-02 0.91438544E+02</pdfrwt>
<pdfrwt beam="1">  1       -1 0.15891192E-01 0.91438544E+02</pdfrwt>
<totfact> 0.80282151E+04</totfact>
</mgrwt>
</event>
<event>
 5    1  0.5681061E+000  0.8780703E+02  0.7546771E-02  0.1308251E+00
         -2   -1    0    0    0  501 -0.00000000000E+00  0.00000000000E+00  0.84813896316E+02  0.84813896316E+02  0.00000000000E+00 0.  1.
          2   -1    0    0  501    0  0.00000000000E+00 -0.00000000000E+00 -0.22726445866E+02  0.22726445866E+02  0.00000000000E+00 0. -1.
         23    2    1    2    0    0  0.00000000000E+00  0.00000000000E+00  0.62087450451E+02  0.10754034218E+03  0.87807025306E+02 0.  0.
        -11    1    3    3    0    0  0.16406561213E+02 -0.71766355777E+01  0.80137716552E+02  0.82114145939E+02  0.00000000000E+00 0.  1.
         11    1    3    3    0    0 -0.16406561213E+02  0.71766355777E+01 -0.18050266101E+02  0.25426196243E+02  0.00000000000E+00 0. -1.
<mgrwt>
<rscale>  0 0.87807025E+02</rscale>
<asrwt>0</asrwt>
<pdfrwt beam="2">  1        2 0.34963763E-02 0.87807025E+02</pdfrwt>
<pdfrwt beam="1">  1       -2 0.13048292E-01 0.87807025E+02</pdfrwt>
<totfact> 0.91847137E+04</totfact>
</mgrwt>
</event>
<event>
 5    1  0.5681061E+000  0.8929862E+02  0.7546771E-02  0.1304559E+00
          2   -1    0    0  501    0  0.00000000000E+00  0.00000000000E+00  0.26618196121E+02  0.26618196121E+02  0.00000000000E+00 0. -1.
         -2   -1    0    0    0  501 -0.00000000000E+00 -0.00000000000E+00 -0.74894668726E+02  0.74894668726E+02  0.00000000000E+00 0.  1.
         23    2    1    2    0    0  0.00000000000E+00  0.00000000000E+00 -0.48276472604E+02  0.10151286485E+03  0.89298622175E+02 0.  0.
        -11    1    3    3    0    0  0.14769543807E+02  0.26232625244E+02 -0.61622174614E+02  0.68582668771E+02  0.00000000000E+00 0.  1.
         11    1    3    3    0    0 -0.14769543807E+02 -0.26232625244E+02  0.13345702010E+02  0.32930196076E+02  0.00000000000E+00 0. -1.
<mgrwt>
<rscale>  0 0.89298622E+02</rscale>
<asrwt>0</asrwt>
<pdfrwt beam="1">  1        2 0.40951072E-02 0.89298622E+02</pdfrwt>
<pdfrwt beam="2">  1       -2 0.11522257E-01 0.89298622E+02</pdfrwt>
<totfact> 0.91152558E+04</totfact>
</mgrwt>
</event>
<event>
 5    1  0.5681061E+000  0.8980187E+02  0.7546771E-02  0.1303332E+00
         -2   -1    0    0    0  501 -0.00000000000E+00  0.00000000000E+00  0.18377722713E+02  0.18377722713E+02  0.00000000000E+00 0. -1.
          2   -1    0    0  501    0  0.00000000000E+00 -0.00000000000E+00 -0.10970313977E+03  0.10970313977E+03  0.00000000000E+00 0.  1.
         23    2    1    2    0    0  0.00000000000E+00  0.00000000000E+00 -0.91325417054E+02  0.12808086248E+03  0.89801868207E+02 0.  0.
        -11    1    3    3    0    0 -0.42864949850E+02  0.71395791852E+01 -0.61781116704E+02  0.75533329715E+02  0.00000000000E+00 0.  1.
         11    1    3    3    0    0  0.42864949850E+02 -0.71395791852E+01 -0.29544300350E+02  0.52547532765E+02  0.00000000000E+00 0. -1.
<mgrwt>
<rscale>  0 0.89801868E+02</rscale>
<asrwt>0</asrwt>
<pdfrwt beam="2">  1        2 0.16877407E-01 0.89801868E+02</pdfrwt>
<pdfrwt beam="1">  1       -2 0.28273419E-02 0.89801868E+02</pdfrwt>
<totfact> 0.13159367E+05</totfact>
</mgrwt>
</event>
<event>
 5    1  0.5681061E+000  0.9051145E+02  0.7546771E-02  0.1301618E+00
          1   -1    0    0  501    0  0.00000000000E+00  0.00000000000E+00  0.10246417381E+02  0.10246417381E+02  0.00000000000E+00 0. -1.
         -1   -1    0    0    0  501 -0.00000000000E+00 -0.00000000000E+00 -0.19988260322E+03  0.19988260322E+03  0.00000000000E+00 0.  1.
         23    2    1    2    0    0  0.00000000000E+00  0.00000000000E+00 -0.18963618584E+03  0.21012902060E+03  0.90511448552E+02 0.  0.
        -11    1    3    3    0    0  0.27158206467E+02 -0.24845684649E+02 -0.33693896551E+02  0.49901451773E+02  0.00000000000E+00 0. -1.
         11    1    3    3    0    0 -0.27158206467E+02  0.24845684649E+02 -0.15594228929E+03  0.16022756883E+03  0.00000000000E+00 0.  1.
<mgrwt>
<rscale>  0 0.90511449E+02</rscale>
<asrwt>0</asrwt>
<pdfrwt beam="1">  1        1 0.15763718E-02 0.90511449E+02</pdfrwt>
<pdfrwt beam="2">  1       -1 0.30751171E-01 0.90511449E+02</pdfrwt>
<totfact> 0.70773111E+04</totfact>
</mgrwt>
</event>
<event>
 5    1  0.5681061E+000  0.9277358E+02  0.7546771E-02  0.1296271E+00
          2   -1    0    0  501    0  0.00000000000E+00  0.00000000000E+00  0.67028086162E+02  0.67028086162E+02  0.00000000000E+00 0. -1.
         -2   -1    0    0    0  501 -0.00000000000E+00 -0.00000000000E+00 -0.32101981538E+02  0.32101981538E+02  0.00000000000E+00 0.  1.
         23    2    1    2    0    0  0.00000000000E+00  0.00000000000E+00  0.34926104623E+02  0.99130067700E+02  0.92773582113E+02 0.  0.
        -11    1    3    3    0    0  0.19673209579E+02  0.19242943416E+02 -0.22437238651E+02  0.35507122169E+02  0.00000000000E+00 0.  1.
         11    1    3    3    0    0 -0.19673209579E+02 -0.19242943416E+02  0.57363343274E+02  0.63622945531E+02  0.00000000000E+00 0. -1.
<mgrwt>
<rscale>  0 0.92773582E+02</rscale>
<asrwt>0</asrwt>
<pdfrwt beam="1">  1        2 0.10312013E-01 0.92773582E+02</pdfrwt>
<pdfrwt beam="2">  1       -2 0.49387664E-02 0.92773582E+02</pdfrwt>
<totfact> 0.10409874E+05</totfact>
</mgrwt>
</event>
<event>
 5    1  0.5681061E+000  0.9082566E+02  0.7546771E-02  0.1300864E+00
         -2   -1    0    0    0  501 -0.00000000000E+00  0.00000000000E+00  0.23340375856E+02  0.23340375856E+02  0.00000000000E+00 0. -1.
          2   -1    0    0  501    0  0.00000000000E+00 -0.00000000000E+00 -0.88358685327E+02  0.88358685327E+02  0.00000000000E+00 0.  1.
         23    2    1    2    0    0  0.00000000000E+00  0.00000000000E+00 -0.65018309472E+02  0.11169906118E+03  0.90825655531E+02 0.  0.
        -11    1    3    3    0    0  0.44961994179E+02 -0.92219769811E+00 -0.24741456244E+02  0.51328072496E+02  0.00000000000E+00 0.  1.
         11    1    3    3    0    0 -0.44961994179E+02  0.92219769811E+00 -0.40276853228E+02  0.60370988687E+02  0.00000000000E+00 0. -1.
<mgrwt>
<rscale>  0 0.90825656E+02</rscale>
<asrwt>0</asrwt>
<pdfrwt beam="2">  1        2 0.13593644E-01 0.90825656E+02</pdfrwt>
<pdfrwt beam="1">  1       -2 0.35908271E-02 0.90825656E+02</pdfrwt>
<totfact> 0.11948337E+05</totfact>
</mgrwt>
</event>
<event>
 5    1  0.5681061E+000  0.9056136E+02  0.7546771E-02  0.1301498E+00
         -3   -1    0    0    0  501 -0.00000000000E+00  0.00000000000E+00  0.69656288692E+02  0.69656288692E+02  0.00000000000E+00 0.  1.
          3   -1    0    0  501    0  0.00000000000E+00 -0.00000000000E+00 -0.29435099959E+02  0.29435099959E+02  0.00000000000E+00 0. -1.
         23    2    1    2    0    0  0.00000000000E+00  0.00000000000E+00  0.40221188732E+02  0.99091388651E+02  0.90561356448E+02 0.  0.
        -11    1    3    3    0    0  0.12558934933E+02 -0.15005553143E+02 -0.24569998823E+02  0.31409844220E+02  0.00000000000E+00 0. -1.
         11    1    3    3    0    0 -0.12558934933E+02  0.15005553143E+02  0.64791187555E+02  0.67681544431E+02  0.00000000000E+00 0.  1.
<mgrwt>
<rscale>  0 0.90561356E+02</rscale>
<asrwt>0</asrwt>
<pdfrwt beam="2">  1        3 0.45284769E-02 0.90561356E+02</pdfrwt>
<pdfrwt beam="1">  1       -3 0.10716352E-01 0.90561356E+02</pdfrwt>
<totfact> 0.35385436E+04</totfact>
</mgrwt>
</event>
<event>
 5    1  0.5681061E+000  0.9272608E+02  0.7546771E-02  0.1296381E+00
          1   -1    0    0  501    0  0.00000000000E+00  0.00000000000E+00  0.45913711603E+02  0.45913711603E+02  0.00000000000E+00 0. -1.
         -1   -1    0    0    0  501 -0.00000000000E+00 -0.00000000000E+00 -0.46816765424E+02  0.46816765424E+02  0.00000000000E+00 0.  1.
         23    2    1    2    0    0  0.00000000000E+00  0.00000000000E+00 -0.90305382108E+00  0.92730477026E+02  0.92726079737E+02 0.  0.
        -11    1    3    3    0    0  0.12206775940E+02 -0.11226334625E+02 -0.43749024391E+02  0.46786890292E+02  0.00000000000E+00 0.  1.
         11    1    3    3    0    0 -0.12206775940E+02  0.11226334625E+02  0.42845970570E+02  0.45943586735E+02  0.00000000000E+00 0. -1.
<mgrwt>
<rscale>  0 0.92726080E+02</rscale>
<asrwt>0</asrwt>
<pdfrwt beam="1">  1        1 0.70636479E-02 0.92726080E+02</pdfrwt>
<pdfrwt beam="2">  1       -1 0.72025793E-02 0.92726080E+02</pdfrwt>
<totfact> 0.88286677E+04</totfact>
</mgrwt>
</event>
<event>
 5    1  0.5681061E+000  0.8915863E+02  0.7546771E-02  0.1304902E+00
          1   -1    0    0  501    0  0.00000000000E+00  0.00000000000E+00  0.14450070597E+03  0.14450070597E+03  0.00000000000E+00 0. -1.
         -1   -1    0    0    0  501 -0.00000000000E+00 -0.00000000000E+00 -0.13752979354E+02  0.13752979354E+02  0.00000000000E+00 0.  1.
         23    2    1    2    0    0  0.00000000000E+00  0.00000000000E+00  0.13074772662E+03  0.15825368533E+03  0.89158627757E+02 0.  0.
        -11    1    3    3    0    0  0.42035952732E+02  0.10193051798E+02  0.84523420517E+02  0.94948029168E+02  0.00000000000E+00 0.  1.
         11    1    3    3    0    0 -0.42035952732E+02 -0.10193051798E+02  0.46224306100E+02  0.63305656157E+02  0.00000000000E+00 0. -1.
<mgrwt>
<rscale>  0 0.89158628E+02</rscale>
<asrwt>0</asrwt>
<pdfrwt beam="1">  1        1 0.22230877E-01 0.89158628E+02</pdfrwt>
<pdfrwt beam="2">  1       -1 0.21158431E-02 0.89158628E+02</pdfrwt>
<totfact> 0.11829218E+05</totfact>
</mgrwt>
</event>
<event>
 5    1  0.5681061E+000  0.8979474E+02  0.7546771E-02  0.1303350E+00
         -2   -1    0    0    0  501 -0.00000000000E+00  0.00000000000E+00  0.12200852293E+02  0.12200852293E+02  0.00000000000E+00 0.  1.
          2   -1    0    0  501    0  0.00000000000E+00 -0.00000000000E+00 -0.16521581744E+03  0.16521581744E+03  0.00000000000E+00 0. -1.
         23    2    1    2    0    0  0.00000000000E+00  0.00000000000E+00 -0.15301496515E+03  0.17741666973E+03  0.89794738936E+02 0.  0.
        -11    1    3    3    0    0  0.36292094324E+02 -0.13637717040E+02 -0.31770917984E+02  0.50124790932E+02  0.00000000000E+00 0.  1.
         11    1    3    3    0    0 -0.36292094324E+02  0.13637717040E+02 -0.12124404716E+03  0.12729187880E+03  0.00000000000E+00 0. -1.
<mgrwt>
<rscale>  0 0.89794739E+02</rscale>
<asrwt>0</asrwt>
<pdfrwt beam="2">  1        2 0.25417817E-01 0.89794739E+02</pdfrwt>
<pdfrwt beam="1">  1       -2 0.18770543E-02 0.89794739E+02</pdfrwt>
<totfact> 0.15062246E+05</totfact>
</mgrwt>
</event>
<event>
 5    1  0.5681061E+000  0.9006192E+02  0.7546771E-02  0.1302702E+00
          1   -1    0    0  501    0  0.00000000000E+00  0.00000000000E+00  0.19140361857E+03  0.19140361857E+03  0.00000000000E+00 0. -1.
         -1   -1    0    0    0  501 -0.00000000000E+00 -0.00000000000E+00 -0.10594299079E+02  0.10594299079E+02  0.00000000000E+00 0.  1.
         23    2    1    2    0    0  0.00000000000E+00  0.00000000000E+00  0.18080931949E+03  0.20199791765E+03  0.90061916033E+02 0.  0.
        -11    1    3    3    0    0 -0.29717513311E+02  0.15597553856E+02  0.15774231001E+03  0.16127321741E+03  0.00000000000E+00 0. -1.
         11    1    3    3    0    0  0.29717513311E+02 -0.15597553856E+02  0.23067009476E+02  0.40724700242E+02  0.00000000000E+00 0.  1.
<mgrwt>
<rscale>  0 0.90061916E+02</rscale>
<asrwt>0</asrwt>
<pdfrwt beam="1">  1        1 0.29446708E-01 0.90061916E+02</pdfrwt>
<pdfrwt beam="2">  1       -1 0.16298923E-02 0.90061916E+02</pdfrwt>
<totfact> 0.12134047E+05</totfact>
</mgrwt>
</event>
<event>
 5    1  0.5681061E+000  0.5538417E+02  0.7546771E-02  0.1418291E+00
          3   -1    0    0  501    0  0.00000000000E+00  0.00000000000E+00  0.11725625215E+02  0.11725625215E+02  0.00000000000E+00 0. -1.
         -3   -1    0    0    0  501 -0.00000000000E+00 -0.00000000000E+00 -0.65399638768E+02  0.65399638768E+02  0.00000000000E+00 0.  1.
         23    2    1    2    0    0  0.00000000000E+00  0.00000000000E+00 -0.53674013554E+02  0.77125263983E+02  0.55384172951E+02 0.  0.
        -11    1    3    3    0    0 -0.23291637763E+02 -0.38690773606E+01 -0.46987243211E+02  0.52585845756E+02  0.00000000000E+00 0.  1.
         11    1    3    3    0    0  0.23291637763E+02  0.38690773606E+01 -0.66867703429E+01  0.24539418227E+02  0.00000000000E+00 0. -1.
<mgrwt>
<rscale>  0 0.55384173E+02</rscale>
<asrwt>0</asrwt>
<pdfrwt beam="1">  1        3 0.18039424E-02 0.55384173E+02</pdfrwt>
<pdfrwt beam="2">  1       -3 0.10061483E-01 0.55384173E+02</pdfrwt>
<totfact> 0.13605025E+05</totfact>
</mgrwt>
</event>
<event>
 5    1  0.5681061E+000  0.9265430E+02  0.7546771E-02  0.1296548E+00
          2   -1    0    0  501    0  0.00000000000E+00  0.00000000000E+00  0.15133461344E+03  0.15133461344E+03  0.00000000000E+00 0. -1.
         -2   -1    0    0    0  501 -0.00000000000E+00 -0.00000000000E+00 -0.14181850477E+02  0.14181850477E+02  0.00000000000E+00 0.  1.
         23    2    1    2    0    0  0.00000000000E+00  0.00000000000E+00  0.13715276296E+03  0.16551646391E+03  0.92654300704E+02 0.  0.
        -11    1    3    3    0    0  0.25646094937E+02  0.38575219415E+02  0.67398013906E+02  0.81781795144E+02  0.00000000000E+00 0.  1.
         11    1    3    3    0    0 -0.25646094937E+02 -0.38575219415E+02  0.69754749054E+02  0.83734668770E+02  0.00000000000E+00 0. -1.
<mgrwt>
<rscale>  0 0.92654301E+02</rscale>
<asrwt>0</asrwt>
<pdfrwt beam="1">  1        2 0.23282247E-01 0.92654301E+02</pdfrwt>
<pdfrwt beam="2">  1       -2 0.21818233E-02 0.92654301E+02</pdfrwt>
<totfact> 0.13423600E+05</totfact>
</mgrwt>
</event>
<event>
 5    1  0.5681061E+000  0.8734612E+02  0.7546771E-02  0.1309409E+00
          1   -1    0    0  501    0  0.00000000000E+00  0.00000000000E+00  0.29163181948E+03  0.29163181948E+03  0.00000000000E+00 0. -1.
         -1   -1    0    0    0  501 -0.00000000000E+00 -0.00000000000E+00 -0.65402197202E+01  0.65402197202E+01  0.00000000000E+00 0.  1.
         23    2    1    2    0    0  0.00000000000E+00  0.00000000000E+00  0.28509159976E+03  0.29817203920E+03  0.87346120161E+02 0.  0.
        -11    1    3    3    0    0  0.42284722297E+02 -0.75076431190E+01  0.16963542606E+03  0.17498725731E+03  0.00000000000E+00 0.  1.
         11    1    3    3    0    0 -0.42284722297E+02  0.75076431190E+01  0.11545617370E+03  0.12318478189E+03  0.00000000000E+00 0. -1.
<mgrwt>
<rscale>  0 0.87346120E+02</rscale>
<asrwt>0</asrwt>
<pdfrwt beam="1">  1        1 0.44866424E-01 0.87346120E+02</pdfrwt>
<pdfrwt beam="2">  1       -1 0.10061879E-02 0.87346120E+02</pdfrwt>
<totfact> 0.14283143E+05</totfact>
</mgrwt>
</event>
<event>
 5    1  0.5681061E+000  0.9119431E+02  0.7546771E-02  0.1299985E+00
         -3   -1    0    0    0  501 -0.00000000000E+00  0.00000000000E+00  0.14980279622E+02  0.14980279622E+02  0.00000000000E+00 0.  1.
          3   -1    0    0  501    0  0.00000000000E+00 -0.00000000000E+00 -0.13878918033E+03  0.13878918033E+03  0.00000000000E+00 0. -1.
         23    2    1    2    0    0  0.00000000000E+00  0.00000000000E+00 -0.12380890070E+03  0.15376945995E+03  0.91194314073E+02 0.  0.
        -11    1    3    3    0    0  0.48509507386E+01  0.32657539230E+02 -0.11493331881E+03  0.11958141313E+03  0.00000000000E+00 0. -1.
         11    1    3    3    0    0 -0.48509507386E+01 -0.32657539230E+02 -0.88755818904E+01  0.34188046823E+02  0.00000000000E+00 0.  1.
<mgrwt>
<rscale>  0 0.91194314E+02</rscale>
<asrwt>0</asrwt>
<pdfrwt beam="2">  1        3 0.21352183E-01 0.91194314E+02</pdfrwt>
<pdfrwt beam="1">  1       -3 0.23046583E-02 0.91194314E+02</pdfrwt>
<totfact> 0.31061849E+04</totfact>
</mgrwt>
</event>
<event>
 5    1  0.5681061E+000  0.9005977E+02  0.7546771E-02  0.1302707E+00
         -4   -1    0    0    0  501 -0.00000000000E+00  0.00000000000E+00  0.17110422703E+03  0.17110422703E+03  0.00000000000E+00 0.  1.
          4   -1    0    0  501    0  0.00000000000E+00 -0.00000000000E+00 -0.11850617330E+02  0.11850617330E+02  0.00000000000E+00 0. -1.
         23    2    1    2    0    0  0.00000000000E+00  0.00000000000E+00  0.15925360970E+03  0.18295484436E+03  0.90059773888E+02 0.  0.
        -11    1    3    3    0    0  0.15824930714E+02 -0.30945995605E+02  0.21467921331E+02  0.40852842280E+02  0.00000000000E+00 0. -1.
         11    1    3    3    0    0 -0.15824930714E+02  0.30945995605E+02  0.13778568837E+03  0.14210200208E+03  0.00000000000E+00 0.  1.
<mgrwt>
<rscale>  0 0.90059774E+02</rscale>
<asrwt>0</asrwt>
<pdfrwt beam="2">  1        4 0.18231720E-02 0.90059774E+02</pdfrwt>
<pdfrwt beam="1">  1       -4 0.26323725E-01 0.90059774E+02</pdfrwt>
<totfact> 0.22861193E+04</totfact>
</mgrwt>
</event>
<event>
 5    1  0.5681061E+000  0.1026033E+03  0.7546771E-02  0.1274915E+00
         -2   -1    0    0    0  501 -0.00000000000E+00  0.00000000000E+00  0.85867769711E+02  0.85867769711E+02  0.00000000000E+00 0.  1.
          2   -1    0    0  501    0  0.00000000000E+00 -0.00000000000E+00 -0.30650160474E+02  0.30650160474E+02  0.00000000000E+00 0. -1.
         23    2    1    2    0    0  0.00000000000E+00  0.00000000000E+00  0.55217609237E+02  0.11651793018E+03  0.10260333174E+03 0.  0.
        -11    1    3    3    0    0 -0.23898899132E+02  0.37632407257E+02 -0.12211925753E+01  0.44596488280E+02  0.00000000000E+00 0.  1.
         11    1    3    3    0    0  0.23898899132E+02 -0.37632407257E+02  0.56438801812E+02  0.71921441905E+02  0.00000000000E+00 0. -1.
<mgrwt>
<rscale>  0 0.10260333E+03</rscale>
<asrwt>0</asrwt>
<pdfrwt beam="2">  1        2 0.47154093E-02 0.10260333E+03</pdfrwt>
<pdfrwt beam="1">  1       -2 0.13210426E-01 0.10260333E+03</pdfrwt>
<totfact> 0.62368552E+04</totfact>
</mgrwt>
</event>
<event>
 5    1  0.5681061E+000  0.9092668E+02  0.7546771E-02  0.1300623E+00
         -2   -1    0    0    0  501 -0.00000000000E+00  0.00000000000E+00  0.32993710486E+03  0.32993710486E+03  0.00000000000E+00 0.  1.
          2   -1    0    0  501    0  0.00000000000E+00 -0.00000000000E+00 -0.62645731514E+01  0.62645731514E+01  0.00000000000E+00 0. -1.
         23    2    1    2    0    0  0.00000000000E+00  0.00000000000E+00  0.32367253171E+03  0.33620167802E+03  0.90926676587E+02 0.  0.
        -11    1    3    3    0    0  0.38115335237E+02 -0.23804214368E+02  0.13635412990E+03  0.14356833963E+03  0.00000000000E+00 0.  1.
         11    1    3    3    0    0 -0.38115335237E+02  0.23804214368E+02  0.18731840181E+03  0.19263333839E+03  0.00000000000E+00 0. -1.
<mgrwt>
<rscale>  0 0.90926677E+02</rscale>
<asrwt>0</asrwt>
<pdfrwt beam="2">  1        2 0.96378074E-03 0.90926677E+02</pdfrwt>
<pdfrwt beam="1">  1       -2 0.50759541E-01 0.90926677E+02</pdfrwt>
<totfact> 0.48606356E+04</totfact>
</mgrwt>
</event>
<event>
 5    1  0.5681061E+000  0.9029256E+02  0.7546771E-02  0.1302145E+00
          2   -1    0    0  501    0  0.00000000000E+00  0.00000000000E+00  0.43165082441E+03  0.43165082441E+03  0.00000000000E+00 0. -1.
         -2   -1    0    0    0  501 -0.00000000000E+00 -0.00000000000E+00 -0.47218407558E+01  0.47218407558E+01  0.00000000000E+00 0.  1.
         23    2    1    2    0    0  0.00000000000E+00  0.00000000000E+00  0.42692898365E+03  0.43637266516E+03  0.90292556835E+02 0.  0.
        -11    1    3    3    0    0 -0.13122554602E+01 -0.45080167519E+02  0.22341943709E+03  0.22792583967E+03  0.00000000000E+00 0. -1.
         11    1    3    3    0    0  0.13122554602E+01  0.45080167519E+02  0.20350954656E+03  0.20844682549E+03  0.00000000000E+00 0.  1.
<mgrwt>
<rscale>  0 0.90292557E+02</rscale>
<asrwt>0</asrwt>
<pdfrwt beam="1">  1        2 0.66407788E-01 0.90292557E+02</pdfrwt>
<pdfrwt beam="2">  1       -2 0.72643738E-03 0.90292557E+02</pdfrwt>
<totfact> 0.21043167E+05</totfact>
</mgrwt>
</event>
<event>
 5    1  0.5681061E+000  0.1051849E+03  0.7546771E-02  0.1269756E+00
          1   -1    0    0  501    0  0.00000000000E+00  0.00000000000E+00  0.34325975077E+02  0.34325975077E+02  0.00000000000E+00 0. -1.
         -1   -1    0    0    0  501 -0.00000000000E+00 -0.00000000000E+00 -0.80579439457E+02  0.80579439457E+02  0.00000000000E+00 0.  1.
         23    2    1    2    0    0  0.00000000000E+00  0.00000000000E+00 -0.46253464380E+02  0.11490541453E+03  0.10518493867E+03 0.  0.
        -11    1    3    3    0    0 -0.22318319472E+02 -0.44116268234E+02 -0.35357909421E+01  0.49566665457E+02  0.00000000000E+00 0. -1.
         11    1    3    3    0    0  0.22318319472E+02  0.44116268234E+02 -0.42717673438E+02  0.65338749077E+02  0.00000000000E+00 0.  1.
<mgrwt>
<rscale>  0 0.10518494E+03</rscale>
<asrwt>0</asrwt>
<pdfrwt beam="1">  1        1 0.52809194E-02 0.10518494E+03</pdfrwt>
<pdfrwt beam="2">  1       -1 0.12396837E-01 0.10518494E+03</pdfrwt>
<totfact> 0.58603091E+04</totfact>
</mgrwt>
</event>
<event>
 5    1  0.5681061E+000  0.9087443E+02  0.7546771E-02  0.1300748E+00
         -2   -1    0    0    0  501 -0.00000000000E+00  0.00000000000E+00  0.14347197732E+03  0.14347197732E+03  0.00000000000E+00 0.  1.
          2   -1    0    0  501    0  0.00000000000E+00 -0.00000000000E+00 -0.14389852520E+02  0.14389852520E+02  0.00000000000E+00 0. -1.
         23    2    1    2    0    0  0.00000000000E+00  0.00000000000E+00  0.12908212480E+03  0.15786182984E+03  0.90874431924E+02 0.  0.
        -11    1    3    3    0    0 -0.32727133571E+02  0.22378271399E+02  0.10309968792E+03  0.11045993822E+03  0.00000000000E+00 0.  1.
         11    1    3    3    0    0  0.32727133571E+02 -0.22378271399E+02  0.25982436873E+02  0.47401891612E+02  0.00000000000E+00 0. -1.
<mgrwt>
<rscale>  0 0.90874432E+02</rscale>
<asrwt>0</asrwt>
<pdfrwt beam="2">  1        2 0.22138236E-02 0.90874432E+02</pdfrwt>
<pdfrwt beam="1">  1       -2 0.22072611E-01 0.90874432E+02</pdfrwt>
<totfact> 0.71581944E+04</totfact>
</mgrwt>
</event>
<event>
 5    1  0.5681061E+000  0.9991274E+02  0.7546771E-02  0.1280480E+00
          1   -1    0    0  501    0  0.00000000000E+00  0.00000000000E+00  0.17991062285E+03  0.17991062285E+03  0.00000000000E+00 0. -1.
         -1   -1    0    0    0  501 -0.00000000000E+00 -0.00000000000E+00 -0.13871547602E+02  0.13871547602E+02  0.00000000000E+00 0.  1.
         23    2    1    2    0    0  0.00000000000E+00  0.00000000000E+00  0.16603907525E+03  0.19378217045E+03  0.99912737307E+02 0.  0.
        -11    1    3    3    0    0  0.14188747714E+02  0.46913008877E+02  0.10177252412E+03  0.11295927421E+03  0.00000000000E+00 0. -1.
         11    1    3    3    0    0 -0.14188747714E+02 -0.46913008877E+02  0.64266551126E+02  0.80822896244E+02  0.00000000000E+00 0.  1.
<mgrwt>
<rscale>  0 0.99912737E+02</rscale>
<asrwt>0</asrwt>
<pdfrwt beam="1">  1        1 0.27678556E-01 0.99912737E+02</pdfrwt>
<pdfrwt beam="2">  1       -1 0.21340844E-02 0.99912737E+02</pdfrwt>
<totfact> 0.90597146E+04</totfact>
</mgrwt>
</event>
<event>
 5    1  0.5681061E+000  0.8627295E+02  0.7546771E-02  0.1312137E+00
         -1   -1    0    0    0  501 -0.00000000000E+00  0.00000000000E+00  0.26909251935E+02  0.26909251935E+02  0.00000000000E+00 0.  1.
          1   -1    0    0  501    0  0.00000000000E+00 -0.00000000000E+00 -0.69149290491E+02  0.69149290491E+02  0.00000000000E+00 0. -1.
         23    2    1    2    0    0  0.00000000000E+00  0.00000000000E+00 -0.42240038557E+02  0.96058542426E+02  0.86272954718E+02 0.  0.
        -11    1    3    3    0    0  0.19113329101E+02 -0.24184760876E+02 -0.54717702069E+02  0.62803255709E+02  0.00000000000E+00 0. -1.
         11    1    3    3    0    0 -0.19113329101E+02  0.24184760876E+02  0.12477663512E+02  0.33255286717E+02  0.00000000000E+00 0.  1.
<mgrwt>
<rscale>  0 0.86272955E+02</rscale>
<asrwt>0</asrwt>
<pdfrwt beam="2">  1        1 0.10638352E-01 0.86272955E+02</pdfrwt>
<pdfrwt beam="1">  1       -1 0.41398849E-02 0.86272955E+02</pdfrwt>
<totfact> 0.11462558E+05</totfact>
</mgrwt>
</event>
<event>
 5    1  0.5681061E+000  0.9356454E+02  0.7546771E-02  0.1294442E+00
         -1   -1    0    0    0  501 -0.00000000000E+00  0.00000000000E+00  0.39157592469E+02  0.39157592469E+02  0.00000000000E+00 0.  1.
          1   -1    0    0  501    0  0.00000000000E+00 -0.00000000000E+00 -0.55891608064E+02  0.55891608064E+02  0.00000000000E+00 0. -1.
         23    2    1    2    0    0  0.00000000000E+00  0.00000000000E+00 -0.16734015596E+02  0.95049200533E+02  0.93564540527E+02 0.  0.
        -11    1    3    3    0    0  0.41070288345E+02 -0.95812618916E+01 -0.28937054412E+02  0.51146087653E+02  0.00000000000E+00 0. -1.
         11    1    3    3    0    0 -0.41070288345E+02  0.95812618916E+01  0.12203038817E+02  0.43903112880E+02  0.00000000000E+00 0.  1.
<mgrwt>
<rscale>  0 0.93564541E+02</rscale>
<asrwt>0</asrwt>
<pdfrwt beam="2">  1        1 0.85987089E-02 0.93564541E+02</pdfrwt>
<pdfrwt beam="1">  1       -1 0.60242450E-02 0.93564541E+02</pdfrwt>
<totfact> 0.88711478E+04</totfact>
</mgrwt>
</event>
<event>
 5    1  0.5681061E+000  0.9206306E+02  0.7546771E-02  0.1297931E+00
          3   -1    0    0  501    0  0.00000000000E+00  0.00000000000E+00  0.73802585165E+02  0.73802585165E+02  0.00000000000E+00 0. -1.
         -3   -1    0    0    0  501 -0.00000000000E+00 -0.00000000000E+00 -0.28710397183E+02  0.28710397183E+02  0.00000000000E+00 0.  1.
         23    2    1    2    0    0  0.00000000000E+00  0.00000000000E+00  0.45092187982E+02  0.10251298235E+03  0.92063055201E+02 0.  0.
        -11    1    3    3    0    0 -0.27033249003E+02  0.38850756352E+01  0.63806217164E+02  0.69405502037E+02  0.00000000000E+00 0. -1.
         11    1    3    3    0    0  0.27033249003E+02 -0.38850756352E+01 -0.18714029181E+02  0.33107480311E+02  0.00000000000E+00 0.  1.
<mgrwt>
<rscale>  0 0.92063055E+02</rscale>
<asrwt>0</asrwt>
<pdfrwt beam="1">  1        3 0.11354244E-01 0.92063055E+02</pdfrwt>
<pdfrwt beam="2">  1       -3 0.44169842E-02 0.92063055E+02</pdfrwt>
<totfact> 0.33587974E+04</totfact>
</mgrwt>
</event>
<event>
 5    1  0.5681061E+000  0.9225251E+02  0.7546771E-02  0.1297487E+00
         -3   -1    0    0    0  501 -0.00000000000E+00  0.00000000000E+00  0.46600368570E+02  0.46600368570E+02  0.00000000000E+00 0.  1.
          3   -1    0    0  501    0  0.00000000000E+00 -0.00000000000E+00 -0.45656967909E+02  0.45656967909E+02  0.00000000000E+00 0. -1.
         23    2    1    2    0    0  0.00000000000E+00  0.00000000000E+00  0.94340066069E+00  0.92257336479E+02  0.92252512862E+02 0.  0.
        -11    1    3    3    0    0 -0.16286858053E+02  0.49343413037E+01  0.43346101524E+02  0.46567091241E+02  0.00000000000E+00 0.  1.
         11    1    3    3    0    0  0.16286858053E+02 -0.49343413037E+01 -0.42402700863E+02  0.45690245237E+02  0.00000000000E+00 0. -1.
<mgrwt>
<rscale>  0 0.92252513E+02</rscale>
<asrwt>0</asrwt>
<pdfrwt beam="2">  1        3 0.70241489E-02 0.92252513E+02</pdfrwt>
<pdfrwt beam="1">  1       -3 0.71692875E-02 0.92252513E+02</pdfrwt>
<totfact> 0.34144251E+04</totfact>
</mgrwt>
</event>
<event>
 5    1  0.5681061E+000  0.9470443E+02  0.7546771E-02  0.1291843E+00
          1   -1    0    0  501    0  0.00000000000E+00  0.00000000000E+00  0.57203615767E+02  0.57203615767E+02  0.00000000000E+00 0. -1.
         -1   -1    0    0    0  501 -0.00000000000E+00 -0.00000000000E+00 -0.39197385696E+02  0.39197385696E+02  0.00000000000E+00 0.  1.
         23    2    1    2    0    0  0.00000000000E+00  0.00000000000E+00  0.18006230071E+02  0.96401001462E+02  0.94704428416E+02 0.  0.
        -11    1    3    3    0    0  0.41117320167E+02 -0.19161133431E+02 -0.48213894465E+01  0.45618295105E+02  0.00000000000E+00 0.  1.
         11    1    3    3    0    0 -0.41117320167E+02  0.19161133431E+02  0.22827619518E+02  0.50782706357E+02  0.00000000000E+00 0. -1.
<mgrwt>
<rscale>  0 0.94704428E+02</rscale>
<asrwt>0</asrwt>
<pdfrwt beam="1">  1        1 0.88005563E-02 0.94704428E+02</pdfrwt>
<pdfrwt beam="2">  1       -1 0.60303670E-02 0.94704428E+02</pdfrwt>
<totfact> 0.86065448E+04</totfact>
</mgrwt>
</event>
<event>
 5    1  0.5681061E+000  0.9048164E+02  0.7546771E-02  0.1301690E+00
         -4   -1    0    0    0  501 -0.00000000000E+00  0.00000000000E+00  0.12678275541E+02  0.12678275541E+02  0.00000000000E+00 0.  1.
          4   -1    0    0  501    0  0.00000000000E+00 -0.00000000000E+00 -0.16143613605E+03  0.16143613605E+03  0.00000000000E+00 0. -1.
         23    2    1    2    0    0  0.00000000000E+00  0.00000000000E+00 -0.14875786051E+03  0.17411441159E+03  0.90481640463E+02 0.  0.
        -11    1    3    3    0    0  0.43149539446E+02  0.62086406703E+00 -0.10051435607E+03  0.10938648912E+03  0.00000000000E+00 0. -1.
         11    1    3    3    0    0 -0.43149539446E+02 -0.62086406703E+00 -0.48243504442E+02  0.64727922471E+02  0.00000000000E+00 0.  1.
<mgrwt>
<rscale>  0 0.90481640E+02</rscale>
<asrwt>0</asrwt>
<pdfrwt beam="2">  1        4 0.24836328E-01 0.90481640E+02</pdfrwt>
<pdfrwt beam="1">  1       -4 0.19505040E-02 0.90481640E+02</pdfrwt>
<totfact> 0.22984296E+04</totfact>
</mgrwt>
</event>
<event>
 5    1  0.5681061E+000  0.9115770E+02  0.7546771E-02  0.1300072E+00
         -1   -1    0    0    0  501 -0.00000000000E+00  0.00000000000E+00  0.28633348418E+02  0.28633348418E+02  0.00000000000E+00 0.  1.
          1   -1    0    0  501    0  0.00000000000E+00 -0.00000000000E+00 -0.72552875519E+02  0.72552875519E+02  0.00000000000E+00 0. -1.
         23    2    1    2    0    0  0.00000000000E+00  0.00000000000E+00 -0.43919527101E+02  0.10118622394E+03  0.91157704303E+02 0.  0.
        -11    1    3    3    0    0  0.28827686175E+02 -0.28152942789E+02 -0.45606114151E+02  0.60856727860E+02  0.00000000000E+00 0. -1.
         11    1    3    3    0    0 -0.28827686175E+02  0.28152942789E+02  0.16865870504E+01  0.40329496076E+02  0.00000000000E+00 0.  1.
<mgrwt>
<rscale>  0 0.91157704E+02</rscale>
<asrwt>0</asrwt>
<pdfrwt beam="2">  1        1 0.11161981E-01 0.91157704E+02</pdfrwt>
<pdfrwt beam="1">  1       -1 0.44051305E-02 0.91157704E+02</pdfrwt>
<totfact> 0.99272987E+04</totfact>
</mgrwt>
</event>
<event>
 5    1  0.5681061E+000  0.9267297E+02  0.7546771E-02  0.1296505E+00
          2   -1    0    0  501    0  0.00000000000E+00  0.00000000000E+00  0.37075249277E+03  0.37075249277E+03  0.00000000000E+00 0. -1.
         -2   -1    0    0    0  501 -0.00000000000E+00 -0.00000000000E+00 -0.57911133267E+01  0.57911133267E+01  0.00000000000E+00 0.  1.
         23    2    1    2    0    0  0.00000000000E+00  0.00000000000E+00  0.36496137944E+03  0.37654360610E+03  0.92672966971E+02 0.  0.
        -11    1    3    3    0    0 -0.29276584321E+00  0.43496038354E+02  0.24737389925E+03  0.25116894134E+03  0.00000000000E+00 0. -1.
         11    1    3    3    0    0  0.29276584321E+00 -0.43496038354E+02  0.11758748019E+03  0.12537466475E+03  0.00000000000E+00 0.  1.
<mgrwt>
<rscale>  0 0.92672967E+02</rscale>
<asrwt>0</asrwt>
<pdfrwt beam="1">  1        2 0.57038827E-01 0.92672967E+02</pdfrwt>
<pdfrwt beam="2">  1       -2 0.89094080E-03 0.92672967E+02</pdfrwt>
<totfact> 0.18599307E+05</totfact>
</mgrwt>
</event>
<event>
 5    1  0.5681061E+000  0.9500978E+02  0.7546771E-02  0.1291154E+00
          1   -1    0    0  501    0  0.00000000000E+00  0.00000000000E+00  0.25312639402E+03  0.25312639402E+03  0.00000000000E+00 0. -1.
         -1   -1    0    0    0  501 -0.00000000000E+00 -0.00000000000E+00 -0.89153665295E+01  0.89153665295E+01  0.00000000000E+00 0.  1.
         23    2    1    2    0    0  0.00000000000E+00  0.00000000000E+00  0.24421102749E+03  0.26204176055E+03  0.95009780149E+02 0.  0.
        -11    1    3    3    0    0 -0.20171400329E+02  0.37172254297E+02  0.62436401977E+02  0.75411976321E+02  0.00000000000E+00 0.  1.
         11    1    3    3    0    0  0.20171400329E+02 -0.37172254297E+02  0.18177462552E+03  0.18662978423E+03  0.00000000000E+00 0. -1.
<mgrwt>
<rscale>  0 0.95009780E+02</rscale>
<asrwt>0</asrwt>
<pdfrwt beam="1">  1        1 0.38942517E-01 0.95009780E+02</pdfrwt>
<pdfrwt beam="2">  1       -1 0.13715950E-02 0.95009780E+02</pdfrwt>
<totfact> 0.11102325E+05</totfact>
</mgrwt>
</event>
<event>
 5    1  0.5681061E+000  0.8947022E+02  0.7546771E-02  0.1304140E+00
         -1   -1    0    0    0  501 -0.00000000000E+00  0.00000000000E+00  0.26168037336E+03  0.26168037336E+03  0.00000000000E+00 0.  1.
          1   -1    0    0  501    0  0.00000000000E+00 -0.00000000000E+00 -0.76476124981E+01  0.76476124981E+01  0.00000000000E+00 0. -1.
         23    2    1    2    0    0  0.00000000000E+00  0.00000000000E+00  0.25403276086E+03  0.26932798586E+03  0.89470220606E+02 0.  0.
        -11    1    3    3    0    0 -0.39224663468E+02  0.20662397694E+02  0.10902493975E+03  0.11769429209E+03  0.00000000000E+00 0. -1.
         11    1    3    3    0    0  0.39224663468E+02 -0.20662397694E+02  0.14500782111E+03  0.15163369377E+03  0.00000000000E+00 0.  1.
<mgrwt>
<rscale>  0 0.89470221E+02</rscale>
<asrwt>0</asrwt>
<pdfrwt beam="2">  1        1 0.11765560E-02 0.89470221E+02</pdfrwt>
<pdfrwt beam="1">  1       -1 0.40258512E-01 0.89470221E+02</pdfrwt>
<totfact> 0.66972777E+04</totfact>
</mgrwt>
</event>
<event>
 5    1  0.5681061E+000  0.9187005E+02  0.7546771E-02  0.1298385E+00
          3   -1    0    0  501    0  0.00000000000E+00  0.00000000000E+00  0.17229422639E+03  0.17229422639E+03  0.00000000000E+00 0. -1.
         -3   -1    0    0    0  501 -0.00000000000E+00 -0.00000000000E+00 -0.12246646070E+02  0.12246646070E+02  0.00000000000E+00 0.  1.
         23    2    1    2    0    0  0.00000000000E+00  0.00000000000E+00  0.16004758032E+03  0.18454087246E+03  0.91870047578E+02 0.  0.
        -11    1    3    3    0    0 -0.33147722558E+01  0.34961078449E+02  0.20545371908E+02  0.40686324831E+02  0.00000000000E+00 0.  1.
         11    1    3    3    0    0  0.33147722558E+01 -0.34961078449E+02  0.13950220842E+03  0.14385454763E+03  0.00000000000E+00 0. -1.
<mgrwt>
<rscale>  0 0.91870048E+02</rscale>
<asrwt>0</asrwt>
<pdfrwt beam="1">  1        3 0.26506802E-01 0.91870048E+02</pdfrwt>
<pdfrwt beam="2">  1       -3 0.18840995E-02 0.91870048E+02</pdfrwt>
<totfact> 0.28723014E+04</totfact>
</mgrwt>
</event>
<event>
 5    1  0.5681061E+000  0.8548196E+02  0.7546771E-02  0.1314177E+00
         -1   -1    0    0    0  501 -0.00000000000E+00  0.00000000000E+00  0.33582923758E+02  0.33582923758E+02  0.00000000000E+00 0.  1.
          1   -1    0    0  501    0  0.00000000000E+00 -0.00000000000E+00 -0.54396436382E+02  0.54396436382E+02  0.00000000000E+00 0. -1.
         23    2    1    2    0    0  0.00000000000E+00  0.00000000000E+00 -0.20813512624E+02  0.87979360140E+02  0.85481960102E+02 0.  0.
        -11    1    3    3    0    0  0.10591360680E+01  0.26601375195E+02  0.24007176564E+02  0.35848283893E+02  0.00000000000E+00 0.  1.
         11    1    3    3    0    0 -0.10591360680E+01 -0.26601375195E+02 -0.44820689188E+02  0.52131076248E+02  0.00000000000E+00 0. -1.
<mgrwt>
<rscale>  0 0.85481960E+02</rscale>
<asrwt>0</asrwt>
<pdfrwt beam="2">  1        1 0.83686825E-02 0.85481960E+02</pdfrwt>
<pdfrwt beam="1">  1       -1 0.51666036E-02 0.85481960E+02</pdfrwt>
<totfact> 0.11352340E+05</totfact>
</mgrwt>
</event>
<event>
 5    1  0.5681061E+000  0.8794242E+02  0.7546771E-02  0.1307912E+00
          3   -1    0    0  501    0  0.00000000000E+00  0.00000000000E+00  0.13524260029E+03  0.13524260029E+03  0.00000000000E+00 0. -1.
         -3   -1    0    0    0  501 -0.00000000000E+00 -0.00000000000E+00 -0.14296290502E+02  0.14296290502E+02  0.00000000000E+00 0.  1.
         23    2    1    2    0    0  0.00000000000E+00  0.00000000000E+00  0.12094630978E+03  0.14953889079E+03  0.87942424390E+02 0.  0.
        -11    1    3    3    0    0  0.17620856267E+02 -0.40285733977E+02  0.60780004818E+02  0.75017624085E+02  0.00000000000E+00 0. -1.
         11    1    3    3    0    0 -0.17620856267E+02  0.40285733977E+02  0.60166304966E+02  0.74521266703E+02  0.00000000000E+00 0.  1.
<mgrwt>
<rscale>  0 0.87942424E+02</rscale>
<asrwt>0</asrwt>
<pdfrwt beam="1">  1        3 0.20806553E-01 0.87942424E+02</pdfrwt>
<pdfrwt beam="2">  1       -3 0.21994294E-02 0.87942424E+02</pdfrwt>
<totfact> 0.34543201E+04</totfact>
</mgrwt>
</event>
<event>
 5    1  0.5681061E+000  0.8965771E+02  0.7546771E-02  0.1303683E+00
          1   -1    0    0  501    0  0.00000000000E+00  0.00000000000E+00  0.25986335983E+03  0.25986335983E+03  0.00000000000E+00 0. -1.
         -1   -1    0    0    0  501 -0.00000000000E+00 -0.00000000000E+00 -0.77333962516E+01  0.77333962516E+01  0.00000000000E+00 0.  1.
         23    2    1    2    0    0  0.00000000000E+00  0.00000000000E+00  0.25212996358E+03  0.26759675608E+03  0.89657712057E+02 0.  0.
        -11    1    3    3    0    0 -0.38530110244E+02  0.33820664059E+01  0.58423432137E+02  0.70066434126E+02  0.00000000000E+00 0.  1.
         11    1    3    3    0    0  0.38530110244E+02 -0.33820664059E+01  0.19370653144E+03  0.19753032195E+03  0.00000000000E+00 0. -1.
<mgrwt>
<rscale>  0 0.89657712E+02</rscale>
<asrwt>0</asrwt>
<pdfrwt beam="1">  1        1 0.39978972E-01 0.89657712E+02</pdfrwt>
<pdfrwt beam="2">  1       -1 0.11897535E-02 0.89657712E+02</pdfrwt>
<totfact> 0.13031555E+05</totfact>
</mgrwt>
</event>
<event>
 5    1  0.5681061E+000  0.8805447E+02  0.7546771E-02  0.1307633E+00
          2   -1    0    0  501    0  0.00000000000E+00  0.00000000000E+00  0.87298018458E+02  0.87298018458E+02  0.00000000000E+00 0.  1.
         -2   -1    0    0    0  501 -0.00000000000E+00 -0.00000000000E+00 -0.22204368756E+02  0.22204368756E+02  0.00000000000E+00 0. -1.
         23    2    1    2    0    0  0.00000000000E+00  0.00000000000E+00  0.65093649702E+02  0.10950238721E+03  0.88054469359E+02 0.  0.
        -11    1    3    3    0    0 -0.24754861839E+02 -0.96460231783E+01 -0.11112215161E+02  0.28798094965E+02  0.00000000000E+00 0. -1.
         11    1    3    3    0    0  0.24754861839E+02  0.96460231783E+01  0.76205864863E+02  0.80704292249E+02  0.00000000000E+00 0.  1.
<mgrwt>
<rscale>  0 0.88054469E+02</rscale>
<asrwt>0</asrwt>
<pdfrwt beam="1">  1        2 0.13430464E-01 0.88054469E+02</pdfrwt>
<pdfrwt beam="2">  1       -2 0.34160568E-02 0.88054469E+02</pdfrwt>
<totfact> 0.12968256E+05</totfact>
</mgrwt>
</event>
<event>
 5    1  0.5681061E+000  0.9091092E+02  0.7546771E-02  0.1300661E+00
          1   -1    0    0  501    0  0.00000000000E+00  0.00000000000E+00  0.20756165153E+02  0.20756165153E+02  0.00000000000E+00 0. -1.
         -1   -1    0    0    0  501 -0.00000000000E+00 -0.00000000000E+00 -0.99546274488E+02  0.99546274488E+02  0.00000000000E+00 0.  1.
         23    2    1    2    0    0  0.00000000000E+00  0.00000000000E+00 -0.78790109335E+02  0.12030243964E+03  0.90910921536E+02 0.  0.
        -11    1    3    3    0    0 -0.20552934945E+02  0.21509436249E+01  0.14180616483E+02  0.25062712885E+02  0.00000000000E+00 0. -1.
         11    1    3    3    0    0  0.20552934945E+02 -0.21509436249E+01 -0.92970725818E+02  0.95239726755E+02  0.00000000000E+00 0.  1.
<mgrwt>
<rscale>  0 0.90910922E+02</rscale>
<asrwt>0</asrwt>
<pdfrwt beam="1">  1        1 0.31932561E-02 0.90910922E+02</pdfrwt>
<pdfrwt beam="2">  1       -1 0.15314812E-01 0.90910922E+02</pdfrwt>
<totfact> 0.82054176E+04</totfact>
</mgrwt>
</event>
<event>
 5    1  0.5681061E+000  0.8879953E+02  0.7546771E-02  0.1305785E+00
         -1   -1    0    0    0  501 -0.00000000000E+00  0.00000000000E+00  0.64412287405E+02  0.64412287405E+02  0.00000000000E+00 0.  1.
          1   -1    0    0  501    0  0.00000000000E+00 -0.00000000000E+00 -0.30605019959E+02  0.30605019959E+02  0.00000000000E+00 0. -1.
         23    2    1    2    0    0  0.00000000000E+00  0.00000000000E+00  0.33807267445E+02  0.95017307364E+02  0.88799534720E+02 0.  0.
        -11    1    3    3    0    0  0.11750447301E+02 -0.22456047956E+02  0.55911594871E+02  0.61387731206E+02  0.00000000000E+00 0.  1.
         11    1    3    3    0    0 -0.11750447301E+02  0.22456047956E+02 -0.22104327426E+02  0.33629576157E+02  0.00000000000E+00 0. -1.
<mgrwt>
<rscale>  0 0.88799535E+02</rscale>
<asrwt>0</asrwt>
<pdfrwt beam="2">  1        1 0.47084646E-02 0.88799535E+02</pdfrwt>
<pdfrwt beam="1">  1       -1 0.99095826E-02 0.88799535E+02</pdfrwt>
<totfact> 0.93783732E+04</totfact>
</mgrwt>
</event>
<event>
 5    1  0.5681061E+000  0.9080109E+02  0.7546771E-02  0.1300923E+00
         -1   -1    0    0    0  501 -0.00000000000E+00  0.00000000000E+00  0.73525013541E+02  0.73525013541E+02  0.00000000000E+00 0.  1.
          1   -1    0    0  501    0  0.00000000000E+00 -0.00000000000E+00 -0.28034124237E+02  0.28034124237E+02  0.00000000000E+00 0. -1.
         23    2    1    2    0    0  0.00000000000E+00  0.00000000000E+00  0.45490889303E+02  0.10155913778E+03  0.90801087309E+02 0.  0.
        -11    1    3    3    0    0 -0.42459120821E+02 -0.15821631019E+02  0.25930345699E+02  0.52206166083E+02  0.00000000000E+00 0.  1.
         11    1    3    3    0    0  0.42459120821E+02  0.15821631019E+02  0.19560543605E+02  0.49352971695E+02  0.00000000000E+00 0. -1.
<mgrwt>
<rscale>  0 0.90801087E+02</rscale>
<asrwt>0</asrwt>
<pdfrwt beam="2">  1        1 0.43129422E-02 0.90801087E+02</pdfrwt>
<pdfrwt beam="1">  1       -1 0.11311540E-01 0.90801087E+02</pdfrwt>
<totfact> 0.86759024E+04</totfact>
</mgrwt>
</event>
<event>
 5    1  0.5681061E+000  0.9214147E+02  0.7546771E-02  0.1297747E+00
          2   -1    0    0  501    0  0.00000000000E+00  0.00000000000E+00  0.16137692047E+02  0.16137692047E+02  0.00000000000E+00 0.  1.
         -2   -1    0    0    0  501 -0.00000000000E+00 -0.00000000000E+00 -0.13152515314E+03  0.13152515314E+03  0.00000000000E+00 0. -1.
         23    2    1    2    0    0  0.00000000000E+00  0.00000000000E+00 -0.11538746110E+03  0.14766284519E+03  0.92141465537E+02 0.  0.
        -11    1    3    3    0    0 -0.19145009619E+02 -0.32384524861E+02 -0.15075591599E+02  0.40528536932E+02  0.00000000000E+00 0.  1.
         11    1    3    3    0    0  0.19145009619E+02  0.32384524861E+02 -0.10031186950E+03  0.10713430826E+03  0.00000000000E+00 0. -1.
<mgrwt>
<rscale>  0 0.92141466E+02</rscale>
<asrwt>0</asrwt>
<pdfrwt beam="1">  1        2 0.24827219E-02 0.92141466E+02</pdfrwt>
<pdfrwt beam="2">  1       -2 0.20234638E-01 0.92141466E+02</pdfrwt>
<totfact> 0.71242632E+04</totfact>
</mgrwt>
</event>
<event>
 5    1  0.5681061E+000  0.9321926E+02  0.7546771E-02  0.1295238E+00
         -1   -1    0    0    0  501 -0.00000000000E+00  0.00000000000E+00  0.23416637733E+03  0.23416637733E+03  0.00000000000E+00 0.  1.
          1   -1    0    0  501    0  0.00000000000E+00 -0.00000000000E+00 -0.92774096150E+01  0.92774096150E+01  0.00000000000E+00 0. -1.
         23    2    1    2    0    0  0.00000000000E+00  0.00000000000E+00  0.22488896772E+03  0.24344378695E+03  0.93219255534E+02 0.  0.
        -11    1    3    3    0    0 -0.48344745509E+01 -0.45762801144E+02  0.13178582029E+03  0.13958907028E+03  0.00000000000E+00 0.  1.
         11    1    3    3    0    0  0.48344745509E+01  0.45762801144E+02  0.93103147424E+02  0.10385471666E+03  0.00000000000E+00 0. -1.
<mgrwt>
<rscale>  0 0.93219256E+02</rscale>
<asrwt>0</asrwt>
<pdfrwt beam="2">  1        1 0.14272940E-02 0.93219256E+02</pdfrwt>
<pdfrwt beam="1">  1       -1 0.36025592E-01 0.93219256E+02</pdfrwt>
<totfact> 0.62457169E+04</totfact>
</mgrwt>
</event>
<event>
 5    1  0.5681061E+000  0.8322268E+02  0.7546771E-02  0.1320147E+00
         -4   -1    0    0    0  501 -0.00000000000E+00  0.00000000000E+00  0.89882129297E+02  0.89882129297E+02  0.00000000000E+00 0.  1.
          4   -1    0    0  501    0  0.00000000000E+00 -0.00000000000E+00 -0.19264157888E+02  0.19264157888E+02  0.00000000000E+00 0. -1.
         23    2    1    2    0    0  0.00000000000E+00  0.00000000000E+00  0.70617971409E+02  0.10914628719E+03  0.83222677922E+02 0.  0.
        -11    1    3    3    0    0 -0.26690967068E+02  0.77830837439E+00  0.77163824587E+02  0.81653348442E+02  0.00000000000E+00 0.  1.
         11    1    3    3    0    0  0.26690967068E+02 -0.77830837439E+00 -0.65458531779E+01  0.27492938744E+02  0.00000000000E+00 0. -1.
<mgrwt>
<rscale>  0 0.83222678E+02</rscale>
<asrwt>0</asrwt>
<pdfrwt beam="2">  1        4 0.29637166E-02 0.83222678E+02</pdfrwt>
<pdfrwt beam="1">  1       -4 0.13828020E-01 0.83222678E+02</pdfrwt>
<totfact> 0.33097165E+04</totfact>
</mgrwt>
</event>
<event>
 5    1  0.5681061E+000  0.9532630E+02  0.7546771E-02  0.1290443E+00
         -1   -1    0    0    0  501 -0.00000000000E+00  0.00000000000E+00  0.83385730904E+02  0.83385730904E+02  0.00000000000E+00 0.  1.
          1   -1    0    0  501    0  0.00000000000E+00 -0.00000000000E+00 -0.27244179619E+02  0.27244179619E+02  0.00000000000E+00 0. -1.
         23    2    1    2    0    0  0.00000000000E+00  0.00000000000E+00  0.56141551285E+02  0.11062991052E+03  0.95326299213E+02 0.  0.
        -11    1    3    3    0    0 -0.25643535276E+02  0.37886084876E+02  0.12551215388E+02  0.47439217282E+02  0.00000000000E+00 0.  1.
         11    1    3    3    0    0  0.25643535276E+02 -0.37886084876E+02  0.43590335897E+02  0.63190693241E+02  0.00000000000E+00 0. -1.
<mgrwt>
<rscale>  0 0.95326299E+02</rscale>
<asrwt>0</asrwt>
<pdfrwt beam="2">  1        1 0.41914123E-02 0.95326299E+02</pdfrwt>
<pdfrwt beam="1">  1       -1 0.12828574E-01 0.95326299E+02</pdfrwt>
<totfact> 0.74982270E+04</totfact>
</mgrwt>
</event>
<event>
 5    1  0.5681061E+000  0.8926171E+02  0.7546771E-02  0.1304649E+00
          1   -1    0    0  501    0  0.00000000000E+00  0.00000000000E+00  0.35704109327E+02  0.35704109327E+02  0.00000000000E+00 0. -1.
         -1   -1    0    0    0  501 -0.00000000000E+00 -0.00000000000E+00 -0.55789472923E+02  0.55789472923E+02  0.00000000000E+00 0.  1.
         23    2    1    2    0    0  0.00000000000E+00  0.00000000000E+00 -0.20085363596E+02  0.91493582250E+02  0.89261714986E+02 0.  0.
        -11    1    3    3    0    0  0.28473740111E+02  0.29102025169E+02  0.86964394556E+01  0.41633037411E+02  0.00000000000E+00 0.  1.
         11    1    3    3    0    0 -0.28473740111E+02 -0.29102025169E+02 -0.28781803051E+02  0.49860544840E+02  0.00000000000E+00 0. -1.
<mgrwt>
<rscale>  0 0.89261715E+02</rscale>
<asrwt>0</asrwt>
<pdfrwt beam="1">  1        1 0.54929399E-02 0.89261715E+02</pdfrwt>
<pdfrwt beam="2">  1       -1 0.85829958E-02 0.89261715E+02</pdfrwt>
<totfact> 0.94623633E+04</totfact>
</mgrwt>
</event>
<event>
 5    1  0.5681061E+000  0.9144162E+02  0.7546771E-02  0.1299398E+00
          2   -1    0    0  501    0  0.00000000000E+00  0.00000000000E+00  0.53727091972E+02  0.53727091972E+02  0.00000000000E+00 0. -1.
         -2   -1    0    0    0  501 -0.00000000000E+00 -0.00000000000E+00 -0.38907609020E+02  0.38907609020E+02  0.00000000000E+00 0.  1.
         23    2    1    2    0    0  0.00000000000E+00  0.00000000000E+00  0.14819482952E+02  0.92634700992E+02  0.91441624837E+02 0.  0.
        -11    1    3    3    0    0  0.42746171968E+02 -0.12573814417E+02 -0.29737059165E+01  0.44656230851E+02  0.00000000000E+00 0.  1.
         11    1    3    3    0    0 -0.42746171968E+02  0.12573814417E+02  0.17793188869E+02  0.47978470141E+02  0.00000000000E+00 0. -1.
<mgrwt>
<rscale>  0 0.91441625E+02</rscale>
<asrwt>0</asrwt>
<pdfrwt beam="1">  1        2 0.82657064E-02 0.91441625E+02</pdfrwt>
<pdfrwt beam="2">  1       -2 0.59857860E-02 0.91441625E+02</pdfrwt>
<totfact> 0.10215669E+05</totfact>
</mgrwt>
</event>
<event>
 5    1  0.5681061E+000  0.9152665E+02  0.7546771E-02  0.1299196E+00
          2   -1    0    0  501    0  0.00000000000E+00  0.00000000000E+00  0.63624701405E+02  0.63624701405E+02  0.00000000000E+00 0. -1.
         -2   -1    0    0    0  501 -0.00000000000E+00 -0.00000000000E+00 -0.32916176129E+02  0.32916176129E+02  0.00000000000E+00 0.  1.
         23    2    1    2    0    0  0.00000000000E+00  0.00000000000E+00  0.30708525275E+02  0.96540877534E+02  0.91526649182E+02 0.  0.
        -11    1    3    3    0    0  0.51921085093E+01  0.12765911861E+02  0.61383913193E+02  0.62911932853E+02  0.00000000000E+00 0. -1.
         11    1    3    3    0    0 -0.51921085093E+01 -0.12765911861E+02 -0.30675387918E+02  0.33628944681E+02  0.00000000000E+00 0.  1.
<mgrwt>
<rscale>  0 0.91526649E+02</rscale>
<asrwt>0</asrwt>
<pdfrwt beam="1">  1        2 0.97884156E-02 0.91526649E+02</pdfrwt>
<pdfrwt beam="2">  1       -2 0.50640271E-02 0.91526649E+02</pdfrwt>
<totfact> 0.10660584E+05</totfact>
</mgrwt>
</event>
<event>
 5    1  0.5681061E+000  0.9202366E+02  0.7546771E-02  0.1298024E+00
          1   -1    0    0  501    0  0.00000000000E+00  0.00000000000E+00  0.14469111394E+03  0.14469111394E+03  0.00000000000E+00 0. -1.
         -1   -1    0    0    0  501 -0.00000000000E+00 -0.00000000000E+00 -0.14631779628E+02  0.14631779628E+02  0.00000000000E+00 0.  1.
         23    2    1    2    0    0  0.00000000000E+00  0.00000000000E+00  0.13005933431E+03  0.15932289357E+03  0.92023659856E+02 0.  0.
        -11    1    3    3    0    0 -0.14562990560E+02 -0.26032355091E+02  0.12568351369E+03  0.12917472593E+03  0.00000000000E+00 0. -1.
         11    1    3    3    0    0  0.14562990560E+02  0.26032355091E+02  0.43758206173E+01  0.30148167634E+02  0.00000000000E+00 0.  1.
<mgrwt>
<rscale>  0 0.92023660E+02</rscale>
<asrwt>0</asrwt>
<pdfrwt beam="1">  1        1 0.22260170E-01 0.92023660E+02</pdfrwt>
<pdfrwt beam="2">  1       -1 0.22510431E-02 0.92023660E+02</pdfrwt>
<totfact> 0.10864529E+05</totfact>
</mgrwt>
</event>
<event>
 5    1  0.5681061E+000  0.8682784E+02  0.7546771E-02  0.1310721E+00
         -1   -1    0    0    0  501 -0.00000000000E+00  0.00000000000E+00  0.15490235851E+03  0.15490235851E+03  0.00000000000E+00 0.  1.
          1   -1    0    0  501    0  0.00000000000E+00 -0.00000000000E+00 -0.12167460085E+02  0.12167460085E+02  0.00000000000E+00 0. -1.
         23    2    1    2    0    0  0.00000000000E+00  0.00000000000E+00  0.14273489842E+03  0.16706981859E+03  0.86827835725E+02 0.  0.
        -11    1    3    3    0    0 -0.14182603233E+02  0.28950802603E+02  0.12731600901E+03  0.13133415914E+03  0.00000000000E+00 0.  1.
         11    1    3    3    0    0  0.14182603233E+02 -0.28950802603E+02  0.15418889407E+02  0.35735659451E+02  0.00000000000E+00 0. -1.
<mgrwt>
<rscale>  0 0.86827836E+02</rscale>
<asrwt>0</asrwt>
<pdfrwt beam="2">  1        1 0.18719170E-02 0.86827836E+02</pdfrwt>
<pdfrwt beam="1">  1       -1 0.23831131E-01 0.86827836E+02</pdfrwt>
<totfact> 0.84242935E+04</totfact>
</mgrwt>
</event>
<event>
 5    1  0.5681061E+000  0.8962516E+02  0.7546771E-02  0.1303762E+00
         -2   -1    0    0    0  501 -0.00000000000E+00  0.00000000000E+00  0.82502145831E+01  0.82502145831E+01  0.00000000000E+00 0.  1.
          2   -1    0    0  501    0  0.00000000000E+00 -0.00000000000E+00 -0.24340789808E+03  0.24340789808E+03  0.00000000000E+00 0. -1.
         23    2    1    2    0    0  0.00000000000E+00  0.00000000000E+00 -0.23515768350E+03  0.25165811267E+03  0.89625161432E+02 0.  0.
        -11    1    3    3    0    0  0.41028344195E+02 -0.14061606305E+02 -0.14923636820E+03  0.15541089857E+03  0.00000000000E+00 0.  1.
         11    1    3    3    0    0 -0.41028344195E+02  0.14061606305E+02 -0.85921315296E+02  0.96247214097E+02  0.00000000000E+00 0. -1.
<mgrwt>
<rscale>  0 0.89625161E+02</rscale>
<asrwt>0</asrwt>
<pdfrwt beam="2">  1        2 0.37447364E-01 0.89625161E+02</pdfrwt>
<pdfrwt beam="1">  1       -2 0.12692640E-02 0.89625161E+02</pdfrwt>
<totfact> 0.17402077E+05</totfact>
</mgrwt>
</event>
<event>
 5    1  0.5681061E+000  0.9016744E+02  0.7546771E-02  0.1302447E+00
         -1   -1    0    0    0  501 -0.00000000000E+00  0.00000000000E+00  0.36830834053E+02  0.36830834053E+02  0.00000000000E+00 0.  1.
          1   -1    0    0  501    0  0.00000000000E+00 -0.00000000000E+00 -0.55185875349E+02  0.55185875349E+02  0.00000000000E+00 0. -1.
         23    2    1    2    0    0  0.00000000000E+00  0.00000000000E+00 -0.18355041296E+02  0.92016709402E+02  0.90167440178E+02 0.  0.
        -11    1    3    3    0    0  0.43549241264E+02 -0.11630413773E+02 -0.83003112312E+01  0.45833373275E+02  0.00000000000E+00 0. -1.
         11    1    3    3    0    0 -0.43549241264E+02  0.11630413773E+02 -0.10054730065E+02  0.46183336128E+02  0.00000000000E+00 0.  1.
<mgrwt>
<rscale>  0 0.90167440E+02</rscale>
<asrwt>0</asrwt>
<pdfrwt beam="2">  1        1 0.84901347E-02 0.90167440E+02</pdfrwt>
<pdfrwt beam="1">  1       -1 0.56662822E-02 0.90167440E+02</pdfrwt>
<totfact> 0.98153223E+04</totfact>
</mgrwt>
</event>
<event>
 5    1  0.5681061E+000  0.9126066E+02  0.7546771E-02  0.1299827E+00
          3   -1    0    0  501    0  0.00000000000E+00  0.00000000000E+00  0.98576942846E+02  0.98576942846E+02  0.00000000000E+00 0. -1.
         -3   -1    0    0    0  501 -0.00000000000E+00 -0.00000000000E+00 -0.21121846804E+02  0.21121846804E+02  0.00000000000E+00 0.  1.
         23    2    1    2    0    0  0.00000000000E+00  0.00000000000E+00  0.77455096042E+02  0.11969878965E+03  0.91260661519E+02 0.  0.
        -11    1    3    3    0    0  0.44598448727E+02 -0.94618908136E+01  0.41208572691E+02  0.61454824627E+02  0.00000000000E+00 0.  1.
         11    1    3    3    0    0 -0.44598448727E+02  0.94618908136E+01  0.36246523351E+02  0.58243965024E+02  0.00000000000E+00 0. -1.
<mgrwt>
<rscale>  0 0.91260662E+02</rscale>
<asrwt>0</asrwt>
<pdfrwt beam="1">  1        3 0.15165683E-01 0.91260662E+02</pdfrwt>
<pdfrwt beam="2">  1       -3 0.32495149E-02 0.91260662E+02</pdfrwt>
<totfact> 0.33183820E+04</totfact>
</mgrwt>
</event>
<event>
 5    1  0.5681061E+000  0.9053026E+02  0.7546771E-02  0.1301573E+00
          3   -1    0    0  501    0  0.00000000000E+00  0.00000000000E+00  0.10304035243E+02  0.10304035243E+02  0.00000000000E+00 0. -1.
         -3   -1    0    0    0  501 -0.00000000000E+00 -0.00000000000E+00 -0.19884752714E+03  0.19884752714E+03  0.00000000000E+00 0.  1.
         23    2    1    2    0    0  0.00000000000E+00  0.00000000000E+00 -0.18854349190E+03  0.20915156238E+03  0.90530258538E+02 0.  0.
        -11    1    3    3    0    0  0.31040541337E+02 -0.15658623327E+02 -0.16123937989E+03  0.16494497663E+03  0.00000000000E+00 0.  1.
         11    1    3    3    0    0 -0.31040541337E+02  0.15658623327E+02 -0.27304112013E+02  0.44206585751E+02  0.00000000000E+00 0. -1.
<mgrwt>
<rscale>  0 0.90530259E+02</rscale>
<asrwt>0</asrwt>
<pdfrwt beam="1">  1        3 0.15852362E-02 0.90530259E+02</pdfrwt>
<pdfrwt beam="2">  1       -3 0.30591927E-01 0.90530259E+02</pdfrwt>
<totfact> 0.28572845E+04</totfact>
</mgrwt>
</event>
<event>
 5    1  0.5681061E+000  0.9189039E+02  0.7546771E-02  0.1298337E+00
          2   -1    0    0  501    0  0.00000000000E+00  0.00000000000E+00  0.10009389919E+03  0.10009389919E+03  0.00000000000E+00 0. -1.
         -2   -1    0    0    0  501 -0.00000000000E+00 -0.00000000000E+00 -0.21089808475E+02  0.21089808475E+02  0.00000000000E+00 0.  1.
         23    2    1    2    0    0  0.00000000000E+00  0.00000000000E+00  0.79004090712E+02  0.12118370766E+03  0.91890394783E+02 0.  0.
        -11    1    3    3    0    0 -0.25226548572E+02 -0.14934726377E+02 -0.71527032730E+01  0.30175917035E+02  0.00000000000E+00 0.  1.
         11    1    3    3    0    0  0.25226548572E+02  0.14934726377E+02  0.86156793985E+02  0.91007790626E+02  0.00000000000E+00 0. -1.
<mgrwt>
<rscale>  0 0.91890395E+02</rscale>
<asrwt>0</asrwt>
<pdfrwt beam="1">  1        2 0.15399061E-01 0.91890395E+02</pdfrwt>
<pdfrwt beam="2">  1       -2 0.32445860E-02 0.91890395E+02</pdfrwt>
<totfact> 0.12010201E+05</totfact>
</mgrwt>
</event>
<event>
 5    1  0.5681061E+000  0.9188381E+02  0.7546771E-02  0.1298353E+00
         -3   -1    0    0    0  501 -0.00000000000E+00  0.00000000000E+00  0.46468422488E+02  0.46468422488E+02  0.00000000000E+00 0.  1.
          3   -1    0    0  501    0  0.00000000000E+00 -0.00000000000E+00 -0.45421352869E+02  0.45421352869E+02  0.00000000000E+00 0. -1.
         23    2    1    2    0    0  0.00000000000E+00  0.00000000000E+00  0.10470696188E+01  0.91889775357E+02  0.91883809566E+02 0.  0.
        -11    1    3    3    0    0  0.14220188104E+02  0.40003759788E+02  0.18078707367E+02  0.46144926124E+02  0.00000000000E+00 0.  1.
         11    1    3    3    0    0 -0.14220188104E+02 -0.40003759788E+02 -0.17031637748E+02  0.45744849233E+02  0.00000000000E+00 0. -1.
<mgrwt>
<rscale>  0 0.91883810E+02</rscale>
<asrwt>0</asrwt>
<pdfrwt beam="2">  1        3 0.69879004E-02 0.91883810E+02</pdfrwt>
<pdfrwt beam="1">  1       -3 0.71489881E-02 0.91883810E+02</pdfrwt>
<totfact> 0.34547441E+04</totfact>
</mgrwt>
</event>
<event>
 5    1  0.5681061E+000  0.9047330E+02  0.7546771E-02  0.1301710E+00
          1   -1    0    0  501    0  0.00000000000E+00  0.00000000000E+00  0.78868522508E+02  0.78868522508E+02  0.00000000000E+00 0. -1.
         -1   -1    0    0    0  501 -0.00000000000E+00 -0.00000000000E+00 -0.25946401830E+02  0.25946401830E+02  0.00000000000E+00 0.  1.
         23    2    1    2    0    0  0.00000000000E+00  0.00000000000E+00  0.52922120678E+02  0.10481492434E+03  0.90473297205E+02 0.  0.
        -11    1    3    3    0    0 -0.90877208825E+01  0.41811074514E+02  0.94500992210E+01  0.43818454995E+02  0.00000000000E+00 0.  1.
         11    1    3    3    0    0  0.90877208825E+01 -0.41811074514E+02  0.43472021457E+02  0.60996469344E+02  0.00000000000E+00 0. -1.
<mgrwt>
<rscale>  0 0.90473297E+02</rscale>
<asrwt>0</asrwt>
<pdfrwt beam="1">  1        1 0.12133619E-01 0.90473297E+02</pdfrwt>
<pdfrwt beam="2">  1       -1 0.39917541E-02 0.90473297E+02</pdfrwt>
<totfact> 0.10267686E+05</totfact>
</mgrwt>
</event>
<event>
 5    1  0.5681061E+000  0.9275519E+02  0.7546771E-02  0.1296314E+00
         -3   -1    0    0    0  501 -0.00000000000E+00  0.00000000000E+00  0.27941277244E+03  0.27941277244E+03  0.00000000000E+00 0.  1.
          3   -1    0    0  501    0  0.00000000000E+00 -0.00000000000E+00 -0.76978631946E+01  0.76978631946E+01  0.00000000000E+00 0. -1.
         23    2    1    2    0    0  0.00000000000E+00  0.00000000000E+00  0.27171490924E+03  0.28711063563E+03  0.92755189549E+02 0.  0.
        -11    1    3    3    0    0 -0.43512778855E+02  0.65185914197E+01  0.90467692790E+02  0.10059949004E+03  0.00000000000E+00 0. -1.
         11    1    3    3    0    0  0.43512778855E+02 -0.65185914197E+01  0.18124721645E+03  0.18651114559E+03  0.00000000000E+00 0.  1.
<mgrwt>
<rscale>  0 0.92755190E+02</rscale>
<asrwt>0</asrwt>
<pdfrwt beam="2">  1        3 0.11842869E-02 0.92755190E+02</pdfrwt>
<pdfrwt beam="1">  1       -3 0.42986573E-01 0.92755190E+02</pdfrwt>
<totfact> 0.23424265E+04</totfact>
</mgrwt>
</event>
<event>
 5    1  0.5681061E+000  0.9797954E+02  0.7546771E-02  0.1284603E+00
         -2   -1    0    0    0  501 -0.00000000000E+00  0.00000000000E+00  0.81041109583E+02  0.81041109583E+02  0.00000000000E+00 0.  1.
          2   -1    0    0  501    0  0.00000000000E+00 -0.00000000000E+00 -0.29614568828E+02  0.29614568828E+02  0.00000000000E+00 0. -1.
         23    2    1    2    0    0  0.00000000000E+00  0.00000000000E+00  0.51426540754E+02  0.11065567841E+03  0.97979539041E+02 0.  0.
        -11    1    3    3    0    0  0.31980042865E+01  0.28948639338E+02  0.70201867356E+02  0.76003638934E+02  0.00000000000E+00 0.  1.
         11    1    3    3    0    0 -0.31980042865E+01 -0.28948639338E+02 -0.18775326601E+02  0.34652039477E+02  0.00000000000E+00 0. -1.
<mgrwt>
<rscale>  0 0.97979539E+02</rscale>
<asrwt>0</asrwt>
<pdfrwt beam="2">  1        2 0.45560875E-02 0.97979539E+02</pdfrwt>
<pdfrwt beam="1">  1       -2 0.12467863E-01 0.97979539E+02</pdfrwt>
<totfact> 0.71037906E+04</totfact>
</mgrwt>
</event>
<event>
 5    1  0.5681061E+000  0.9221846E+02  0.7546771E-02  0.1297567E+00
          2   -1    0    0  501    0  0.00000000000E+00  0.00000000000E+00  0.65067208488E+02  0.65067208488E+02  0.00000000000E+00 0. -1.
         -2   -1    0    0    0  501 -0.00000000000E+00 -0.00000000000E+00 -0.32674844149E+02  0.32674844149E+02  0.00000000000E+00 0.  1.
         23    2    1    2    0    0  0.00000000000E+00  0.00000000000E+00  0.32392364339E+02  0.97742052637E+02  0.92218455779E+02 0.  0.
        -11    1    3    3    0    0  0.41475738188E+02  0.12650791375E+02  0.32812631166E+02  0.54377827694E+02  0.00000000000E+00 0.  1.
         11    1    3    3    0    0 -0.41475738188E+02 -0.12650791375E+02 -0.42026682693E+00  0.43364224943E+02  0.00000000000E+00 0. -1.
<mgrwt>
<rscale>  0 0.92218456E+02</rscale>
<asrwt>0</asrwt>
<pdfrwt beam="1">  1        2 0.10010340E-01 0.92218456E+02</pdfrwt>
<pdfrwt beam="2">  1       -2 0.50268991E-02 0.92218456E+02</pdfrwt>
<totfact> 0.10500990E+05</totfact>
</mgrwt>
</event>
<event>
 5    1  0.5681061E+000  0.8777430E+02  0.7546771E-02  0.1308333E+00
          3   -1    0    0  501    0  0.00000000000E+00  0.00000000000E+00  0.29792977445E+02  0.29792977445E+02  0.00000000000E+00 0. -1.
         -3   -1    0    0    0  501 -0.00000000000E+00 -0.00000000000E+00 -0.64648860314E+02  0.64648860314E+02  0.00000000000E+00 0.  1.
         23    2    1    2    0    0  0.00000000000E+00  0.00000000000E+00 -0.34855882869E+02  0.94441837760E+02  0.87774302326E+02 0.  0.
        -11    1    3    3    0    0 -0.41552456511E+02 -0.68040054073E+01 -0.30744725560E+02  0.52135777365E+02  0.00000000000E+00 0.  1.
         11    1    3    3    0    0  0.41552456511E+02  0.68040054073E+01 -0.41111573089E+01  0.42306060395E+02  0.00000000000E+00 0. -1.
<mgrwt>
<rscale>  0 0.87774302E+02</rscale>
<asrwt>0</asrwt>
<pdfrwt beam="1">  1        3 0.45835350E-02 0.87774302E+02</pdfrwt>
<pdfrwt beam="2">  1       -3 0.99459785E-02 0.87774302E+02</pdfrwt>
<totfact> 0.38904010E+04</totfact>
</mgrwt>
</event>
<event>
 5    1  0.5681061E+000  0.9119922E+02  0.7546771E-02  0.1299973E+00
         -4   -1    0    0    0  501 -0.00000000000E+00  0.00000000000E+00  0.74334311753E+02  0.74334311753E+02  0.00000000000E+00 0.  1.
          4   -1    0    0  501    0  0.00000000000E+00 -0.00000000000E+00 -0.27972606183E+02  0.27972606183E+02  0.00000000000E+00 0. -1.
         23    2    1    2    0    0  0.00000000000E+00  0.00000000000E+00  0.46361705571E+02  0.10230691794E+03  0.91199219921E+02 0.  0.
        -11    1    3    3    0    0  0.13617857355E+02  0.30592847767E+02  0.57901408797E+02  0.66887528839E+02  0.00000000000E+00 0.  1.
         11    1    3    3    0    0 -0.13617857355E+02 -0.30592847767E+02 -0.11539703227E+02  0.35419389097E+02  0.00000000000E+00 0. -1.
<mgrwt>
<rscale>  0 0.91199220E+02</rscale>
<asrwt>0</asrwt>
<pdfrwt beam="2">  1        4 0.43034779E-02 0.91199220E+02</pdfrwt>
<pdfrwt beam="1">  1       -4 0.11436048E-01 0.91199220E+02</pdfrwt>
<totfact> 0.26298747E+04</totfact>
</mgrwt>
</event>
<event>
 5    1  0.5681061E+000  0.8994839E+02  0.7546771E-02  0.1302977E+00
         -3   -1    0    0    0  501 -0.00000000000E+00  0.00000000000E+00  0.27188439804E+02  0.27188439804E+02  0.00000000000E+00 0.  1.
          3   -1    0    0  501    0  0.00000000000E+00 -0.00000000000E+00 -0.74394787500E+02  0.74394787500E+02  0.00000000000E+00 0. -1.
         23    2    1    2    0    0  0.00000000000E+00  0.00000000000E+00 -0.47206347695E+02  0.10158322730E+03  0.89948389684E+02 0.  0.
        -11    1    3    3    0    0  0.15160340701E+02  0.40940451865E+02 -0.35804424942E+02  0.56461609741E+02  0.00000000000E+00 0. -1.
         11    1    3    3    0    0 -0.15160340701E+02 -0.40940451865E+02 -0.11401922753E+02  0.45121617563E+02  0.00000000000E+00 0.  1.
<mgrwt>
<rscale>  0 0.89948390E+02</rscale>
<asrwt>0</asrwt>
<pdfrwt beam="2">  1        3 0.11445352E-01 0.89948390E+02</pdfrwt>
<pdfrwt beam="1">  1       -3 0.41828369E-02 0.89948390E+02</pdfrwt>
<totfact> 0.35850690E+04</totfact>
</mgrwt>
</event>
<event>
 5    1  0.5681061E+000  0.9252888E+02  0.7546771E-02  0.1296841E+00
         -4   -1    0    0    0  501 -0.00000000000E+00  0.00000000000E+00  0.33686394584E+02  0.33686394584E+02  0.00000000000E+00 0.  1.
          4   -1    0    0  501    0  0.00000000000E+00 -0.00000000000E+00 -0.63538961929E+02  0.63538961929E+02  0.00000000000E+00 0. -1.
         23    2    1    2    0    0  0.00000000000E+00  0.00000000000E+00 -0.29852567346E+02  0.97225356513E+02  0.92528882907E+02 0.  0.
        -11    1    3    3    0    0  0.12674556723E+02  0.43993266617E+02 -0.21923617942E+02  0.50761175316E+02  0.00000000000E+00 0.  1.
         11    1    3    3    0    0 -0.12674556723E+02 -0.43993266617E+02 -0.79289494031E+01  0.46464181198E+02  0.00000000000E+00 0. -1.
<mgrwt>
<rscale>  0 0.92528883E+02</rscale>
<asrwt>0</asrwt>
<pdfrwt beam="2">  1        4 0.97752249E-02 0.92528883E+02</pdfrwt>
<pdfrwt beam="1">  1       -4 0.51825223E-02 0.92528883E+02</pdfrwt>
<totfact> 0.25586214E+04</totfact>
</mgrwt>
</event>
<event>
 5    1  0.5681061E+000  0.9330529E+02  0.7546771E-02  0.1295039E+00
         -2   -1    0    0    0  501 -0.00000000000E+00  0.00000000000E+00  0.21907407501E+02  0.21907407501E+02  0.00000000000E+00 0.  1.
          2   -1    0    0  501    0  0.00000000000E+00 -0.00000000000E+00 -0.99348544977E+02  0.99348544977E+02  0.00000000000E+00 0. -1.
         23    2    1    2    0    0  0.00000000000E+00  0.00000000000E+00 -0.77441137475E+02  0.12125595248E+03  0.93305285155E+02 0.  0.
        -11    1    3    3    0    0 -0.27988589623E+02 -0.32147417694E+02 -0.63366074123E+02  0.76368036266E+02  0.00000000000E+00 0. -1.
         11    1    3    3    0    0  0.27988589623E+02  0.32147417694E+02 -0.14075063352E+02  0.44887916211E+02  0.00000000000E+00 0.  1.
<mgrwt>
<rscale>  0 0.93305285E+02</rscale>
<asrwt>0</asrwt>
<pdfrwt beam="2">  1        2 0.15284392E-01 0.93305285E+02</pdfrwt>
<pdfrwt beam="1">  1       -2 0.33703703E-02 0.93305285E+02</pdfrwt>
<totfact> 0.11487578E+05</totfact>
</mgrwt>
</event>
<event>
 5    1  0.5681061E+000  0.9136241E+02  0.7546771E-02  0.1299586E+00
         -2   -1    0    0    0  501 -0.00000000000E+00  0.00000000000E+00  0.28607284853E+02  0.28607284853E+02  0.00000000000E+00 0. -1.
          2   -1    0    0  501    0  0.00000000000E+00 -0.00000000000E+00 -0.72945500291E+02  0.72945500291E+02  0.00000000000E+00 0.  1.
         23    2    1    2    0    0  0.00000000000E+00  0.00000000000E+00 -0.44338215437E+02  0.10155278514E+03  0.91362414714E+02 0.  0.
        -11    1    3    3    0    0 -0.17760604859E+02  0.40514852378E+02 -0.34836756295E+02  0.56307121551E+02  0.00000000000E+00 0.  1.
         11    1    3    3    0    0  0.17760604859E+02 -0.40514852378E+02 -0.95014591426E+01  0.45245663593E+02  0.00000000000E+00 0. -1.
<mgrwt>
<rscale>  0 0.91362415E+02</rscale>
<asrwt>0</asrwt>
<pdfrwt beam="2">  1        2 0.11222384E-01 0.91362415E+02</pdfrwt>
<pdfrwt beam="1">  1       -2 0.44011208E-02 0.91362415E+02</pdfrwt>
<totfact> 0.11126191E+05</totfact>
</mgrwt>
</event>
<event>
 5    1  0.5681061E+000  0.8998516E+02  0.7546771E-02  0.1302888E+00
          1   -1    0    0  501    0  0.00000000000E+00  0.00000000000E+00  0.56898559732E+02  0.56898559732E+02  0.00000000000E+00 0. -1.
         -1   -1    0    0    0  501 -0.00000000000E+00 -0.00000000000E+00 -0.35577921053E+02  0.35577921053E+02  0.00000000000E+00 0.  1.
         23    2    1    2    0    0  0.00000000000E+00  0.00000000000E+00  0.21320638678E+02  0.92476480785E+02  0.89985164693E+02 0.  0.
        -11    1    3    3    0    0 -0.15950335456E+02 -0.41659377839E+02  0.46314282324E+01  0.44848267420E+02  0.00000000000E+00 0.  1.
         11    1    3    3    0    0  0.15950335456E+02  0.41659377839E+02  0.16689210446E+02  0.47628213366E+02  0.00000000000E+00 0. -1.
<mgrwt>
<rscale>  0 0.89985165E+02</rscale>
<asrwt>0</asrwt>
<pdfrwt beam="1">  1        1 0.87536246E-02 0.89985165E+02</pdfrwt>
<pdfrwt beam="2">  1       -1 0.54735263E-02 0.89985165E+02</pdfrwt>
<totfact> 0.99156514E+04</totfact>
</mgrwt>
</event>
<event>
 5    1  0.5681061E+000  0.9179633E+02  0.7546771E-02  0.1298559E+00
          2   -1    0    0  501    0  0.00000000000E+00  0.00000000000E+00  0.41041828213E+03  0.41041828213E+03  0.00000000000E+00 0. -1.
         -2   -1    0    0    0  501 -0.00000000000E+00 -0.00000000000E+00 -0.51329136479E+01  0.51329136479E+01  0.00000000000E+00 0.  1.
         23    2    1    2    0    0  0.00000000000E+00  0.00000000000E+00  0.40528536848E+03  0.41555119577E+03  0.91796331118E+02 0.  0.
        -11    1    3    3    0    0 -0.23961452810E+02  0.38913784217E+02  0.22195915128E+03  0.22661486858E+03  0.00000000000E+00 0.  1.
         11    1    3    3    0    0  0.23961452810E+02 -0.38913784217E+02  0.18332621720E+03  0.18893632720E+03  0.00000000000E+00 0. -1.
<mgrwt>
<rscale>  0 0.91796331E+02</rscale>
<asrwt>0</asrwt>
<pdfrwt beam="1">  1        2 0.63141249E-01 0.91796331E+02</pdfrwt>
<pdfrwt beam="2">  1       -2 0.78967934E-03 0.91796331E+02</pdfrwt>
<totfact> 0.19787012E+05</totfact>
</mgrwt>
</event>
<event>
 5    1  0.5681061E+000  0.9649990E+02  0.7546771E-02  0.1287833E+00
          1   -1    0    0  501    0  0.00000000000E+00  0.00000000000E+00  0.18312623869E+03  0.18312623869E+03  0.00000000000E+00 0. -1.
         -1   -1    0    0    0  501 -0.00000000000E+00 -0.00000000000E+00 -0.12712858168E+02  0.12712858168E+02  0.00000000000E+00 0.  1.
         23    2    1    2    0    0  0.00000000000E+00  0.00000000000E+00  0.17041338053E+03  0.19583909686E+03  0.96499904649E+02 0.  0.
        -11    1    3    3    0    0 -0.36225105239E+02 -0.20921564531E+01  0.14974815622E+03  0.15408162012E+03  0.00000000000E+00 0.  1.
         11    1    3    3    0    0  0.36225105239E+02  0.20921564531E+01  0.20665224310E+02  0.41757476743E+02  0.00000000000E+00 0. -1.
<mgrwt>
<rscale>  0 0.96499905E+02</rscale>
<asrwt>0</asrwt>
<pdfrwt beam="1">  1        1 0.28173266E-01 0.96499905E+02</pdfrwt>
<pdfrwt beam="2">  1       -1 0.19558245E-02 0.96499905E+02</pdfrwt>
<totfact> 0.99893300E+04</totfact>
</mgrwt>
</event>
<event>
 5    1  0.5681061E+000  0.9031365E+02  0.7546771E-02  0.1302094E+00
         -2   -1    0    0    0  501 -0.00000000000E+00  0.00000000000E+00  0.24806923467E+02  0.24806923467E+02  0.00000000000E+00 0.  1.
          2   -1    0    0  501    0  0.00000000000E+00 -0.00000000000E+00 -0.82200396122E+02  0.82200396122E+02  0.00000000000E+00 0. -1.
         23    2    1    2    0    0  0.00000000000E+00  0.00000000000E+00 -0.57393472655E+02  0.10700731959E+03  0.90313652026E+02 0.  0.
        -11    1    3    3    0    0  0.36987504345E+02 -0.92502778706E+01 -0.27113481908E-01  0.38126681648E+02  0.00000000000E+00 0.  1.
         11    1    3    3    0    0 -0.36987504345E+02  0.92502778706E+01 -0.57366359173E+02  0.68880637941E+02  0.00000000000E+00 0. -1.
<mgrwt>
<rscale>  0 0.90313652E+02</rscale>
<asrwt>0</asrwt>
<pdfrwt beam="2">  1        2 0.12646215E-01 0.90313652E+02</pdfrwt>
<pdfrwt beam="1">  1       -2 0.38164497E-02 0.90313652E+02</pdfrwt>
<totfact> 0.11884653E+05</totfact>
</mgrwt>
</event>
<event>
 5    1  0.5681061E+000  0.1016396E+03  0.7546771E-02  0.1276885E+00
          1   -1    0    0  501    0  0.00000000000E+00  0.00000000000E+00  0.14100988427E+03  0.14100988427E+03  0.00000000000E+00 0. -1.
         -1   -1    0    0    0  501 -0.00000000000E+00 -0.00000000000E+00 -0.18315408395E+02  0.18315408395E+02  0.00000000000E+00 0.  1.
         23    2    1    2    0    0  0.00000000000E+00  0.00000000000E+00  0.12269447587E+03  0.15932529266E+03  0.10163963042E+03 0.  0.
        -11    1    3    3    0    0 -0.27193152977E+02 -0.38904887317E+02  0.89805768830E+02  0.10157821588E+03  0.00000000000E+00 0. -1.
         11    1    3    3    0    0  0.27193152977E+02  0.38904887317E+02  0.32888707041E+02  0.57747076781E+02  0.00000000000E+00 0.  1.
<mgrwt>
<rscale>  0 0.10163963E+03</rscale>
<asrwt>0</asrwt>
<pdfrwt beam="1">  1        1 0.21693828E-01 0.10163963E+03</pdfrwt>
<pdfrwt beam="2">  1       -1 0.28177552E-02 0.10163963E+03</pdfrwt>
<totfact> 0.82503210E+04</totfact>
</mgrwt>
</event>
<event>
 5    1  0.5681061E+000  0.9281253E+02  0.7546771E-02  0.1296180E+00
         -1   -1    0    0    0  501 -0.00000000000E+00  0.00000000000E+00  0.35547135672E+02  0.35547135672E+02  0.00000000000E+00 0.  1.
          1   -1    0    0  501    0  0.00000000000E+00 -0.00000000000E+00 -0.60582700731E+02  0.60582700731E+02  0.00000000000E+00 0. -1.
         23    2    1    2    0    0  0.00000000000E+00  0.00000000000E+00 -0.25035565059E+02  0.96129836403E+02  0.92812531099E+02 0.  0.
        -11    1    3    3    0    0 -0.35856661169E+01 -0.44396717952E+02  0.97137689708E+00  0.44551870213E+02  0.00000000000E+00 0.  1.
         11    1    3    3    0    0  0.35856661169E+01  0.44396717952E+02 -0.26006941957E+02  0.51577966190E+02  0.00000000000E+00 0. -1.
<mgrwt>
<rscale>  0 0.92812531E+02</rscale>
<asrwt>0</asrwt>
<pdfrwt beam="2">  1        1 0.93204153E-02 0.92812531E+02</pdfrwt>
<pdfrwt beam="1">  1       -1 0.54687902E-02 0.92812531E+02</pdfrwt>
<totfact> 0.91859213E+04</totfact>
</mgrwt>
</event>
<event>
 5    1  0.5681061E+000  0.9143796E+02  0.7546771E-02  0.1299406E+00
          2   -1    0    0  501    0  0.00000000000E+00  0.00000000000E+00  0.24321257097E+02  0.24321257097E+02  0.00000000000E+00 0. -1.
         -2   -1    0    0    0  501 -0.00000000000E+00 -0.00000000000E+00 -0.85942323674E+02  0.85942323674E+02  0.00000000000E+00 0.  1.
         23    2    1    2    0    0  0.00000000000E+00  0.00000000000E+00 -0.61621066577E+02  0.11026358077E+03  0.91437964753E+02 0.  0.
        -11    1    3    3    0    0 -0.30642571101E+02  0.10166912960E+02 -0.69846399178E+02  0.76947077664E+02  0.00000000000E+00 0.  1.
         11    1    3    3    0    0  0.30642571101E+02 -0.10166912960E+02  0.82253326012E+01  0.33316503106E+02  0.00000000000E+00 0. -1.
<mgrwt>
<rscale>  0 0.91437965E+02</rscale>
<asrwt>0</asrwt>
<pdfrwt beam="1">  1        2 0.37417319E-02 0.91437965E+02</pdfrwt>
<pdfrwt beam="2">  1       -2 0.13221896E-01 0.91437965E+02</pdfrwt>
<totfact> 0.82806162E+04</totfact>
</mgrwt>
</event>
<event>
 5    1  0.5681061E+000  0.8782001E+02  0.7546771E-02  0.1308218E+00
          1   -1    0    0  501    0  0.00000000000E+00  0.00000000000E+00  0.60940385251E+02  0.60940385251E+02  0.00000000000E+00 0. -1.
         -1   -1    0    0    0  501 -0.00000000000E+00 -0.00000000000E+00 -0.31638930027E+02  0.31638930027E+02  0.00000000000E+00 0.  1.
         23    2    1    2    0    0  0.00000000000E+00  0.00000000000E+00  0.29301455224E+02  0.92579315278E+02  0.87820011040E+02 0.  0.
        -11    1    3    3    0    0 -0.26287358238E+01  0.43729948718E+02  0.11511084559E+02  0.45295957156E+02  0.00000000000E+00 0.  1.
         11    1    3    3    0    0  0.26287358238E+01 -0.43729948718E+02  0.17790370665E+02  0.47283358122E+02  0.00000000000E+00 0. -1.
<mgrwt>
<rscale>  0 0.87820011E+02</rscale>
<asrwt>0</asrwt>
<pdfrwt beam="1">  1        1 0.93754438E-02 0.87820011E+02</pdfrwt>
<pdfrwt beam="2">  1       -1 0.48675277E-02 0.87820011E+02</pdfrwt>
<totfact> 0.10714393E+05</totfact>
</mgrwt>
</event>
<event>
 5    1  0.5681061E+000  0.9039322E+02  0.7546771E-02  0.1301902E+00
          2   -1    0    0  501    0  0.00000000000E+00  0.00000000000E+00  0.30535474277E+03  0.30535474277E+03  0.00000000000E+00 0. -1.
         -2   -1    0    0    0  501 -0.00000000000E+00 -0.00000000000E+00 -0.66897064367E+01  0.66897064367E+01  0.00000000000E+00 0.  1.
         23    2    1    2    0    0  0.00000000000E+00  0.00000000000E+00  0.29866503633E+03  0.31204444921E+03  0.90393220723E+02 0.  0.
        -11    1    3    3    0    0  0.36366103020E+02 -0.16158882042E+02  0.75363687459E+02  0.85224927722E+02  0.00000000000E+00 0.  1.
         11    1    3    3    0    0 -0.36366103020E+02  0.16158882042E+02  0.22330134887E+03  0.22681952148E+03  0.00000000000E+00 0. -1.
<mgrwt>
<rscale>  0 0.90393221E+02</rscale>
<asrwt>0</asrwt>
<pdfrwt beam="1">  1        2 0.46977642E-01 0.90393221E+02</pdfrwt>
<pdfrwt beam="2">  1       -2 0.10291858E-02 0.90393221E+02</pdfrwt>
<totfact> 0.18505514E+05</totfact>
</mgrwt>
</event>
<event>
 5    1  0.5681061E+000  0.8819358E+02  0.7546771E-02  0.1307286E+00
         -2   -1    0    0    0  501 -0.00000000000E+00  0.00000000000E+00  0.33649941580E+02  0.33649941580E+02  0.00000000000E+00 0. -1.
          2   -1    0    0  501    0  0.00000000000E+00 -0.00000000000E+00 -0.57786935901E+02  0.57786935901E+02  0.00000000000E+00 0.  1.
         23    2    1    2    0    0  0.00000000000E+00  0.00000000000E+00 -0.24136994321E+02  0.91436877481E+02  0.88193582922E+02 0.  0.
        -11    1    3    3    0    0  0.11751323559E+02 -0.37067388441E+02  0.94914849971E+01  0.40027155516E+02  0.00000000000E+00 0. -1.
         11    1    3    3    0    0 -0.11751323559E+02  0.37067388441E+02 -0.33628479318E+02  0.51409721965E+02  0.00000000000E+00 0.  1.
<mgrwt>
<rscale>  0 0.88193583E+02</rscale>
<asrwt>0</asrwt>
<pdfrwt beam="2">  1        2 0.88902977E-02 0.88193583E+02</pdfrwt>
<pdfrwt beam="1">  1       -2 0.51769142E-02 0.88193583E+02</pdfrwt>
<totfact> 0.11532059E+05</totfact>
</mgrwt>
</event>
<event>
 5    1  0.5681061E+000  0.8994567E+02  0.7546771E-02  0.1302983E+00
          2   -1    0    0  501    0  0.00000000000E+00  0.00000000000E+00  0.18967998793E+02  0.18967998793E+02  0.00000000000E+00 0. -1.
         -2   -1    0    0    0  501 -0.00000000000E+00 -0.00000000000E+00 -0.10662989360E+03  0.10662989360E+03  0.00000000000E+00 0.  1.
         23    2    1    2    0    0  0.00000000000E+00  0.00000000000E+00 -0.87661894807E+02  0.12559789239E+03  0.89945665667E+02 0.  0.
        -11    1    3    3    0    0  0.41660364241E+02 -0.74280188476E+01 -0.65090468108E+02  0.77637171840E+02  0.00000000000E+00 0. -1.
         11    1    3    3    0    0 -0.41660364241E+02  0.74280188476E+01 -0.22571426699E+02  0.47960720553E+02  0.00000000000E+00 0.  1.
<mgrwt>
<rscale>  0 0.89945666E+02</rscale>
<asrwt>0</asrwt>
<pdfrwt beam="1">  1        2 0.29181537E-02 0.89945666E+02</pdfrwt>
<pdfrwt beam="2">  1       -2 0.16404599E-01 0.89945666E+02</pdfrwt>
<totfact> 0.80972578E+04</totfact>
</mgrwt>
</event>
<event>
 5    1  0.5681061E+000  0.9131007E+02  0.7546771E-02  0.1299710E+00
          2   -1    0    0  501    0  0.00000000000E+00  0.00000000000E+00  0.54739451094E+02  0.54739451094E+02  0.00000000000E+00 0. -1.
         -2   -1    0    0    0  501 -0.00000000000E+00 -0.00000000000E+00 -0.38078247586E+02  0.38078247586E+02  0.00000000000E+00 0.  1.
         23    2    1    2    0    0  0.00000000000E+00  0.00000000000E+00  0.16661203508E+02  0.92817698679E+02  0.91310073299E+02 0.  0.
        -11    1    3    3    0    0  0.15811134919E+02 -0.19359984268E+02  0.47165865957E+02  0.53379957753E+02  0.00000000000E+00 0. -1.
         11    1    3    3    0    0 -0.15811134919E+02  0.19359984268E+02 -0.30504662449E+02  0.39437740926E+02  0.00000000000E+00 0.  1.
<mgrwt>
<rscale>  0 0.91310073E+02</rscale>
<asrwt>0</asrwt>
<pdfrwt beam="1">  1        2 0.84214540E-02 0.91310073E+02</pdfrwt>
<pdfrwt beam="2">  1       -2 0.58581919E-02 0.91310073E+02</pdfrwt>
<totfact> 0.10308244E+05</totfact>
</mgrwt>
</event>
<event>
 5    1  0.5681061E+000  0.9101454E+02  0.7546771E-02  0.1300413E+00
          2   -1    0    0  501    0  0.00000000000E+00  0.00000000000E+00  0.33942541054E+03  0.33942541054E+03  0.00000000000E+00 0. -1.
         -2   -1    0    0    0  501 -0.00000000000E+00 -0.00000000000E+00 -0.61012272945E+01  0.61012272945E+01  0.00000000000E+00 0.  1.
         23    2    1    2    0    0  0.00000000000E+00  0.00000000000E+00  0.33332418324E+03  0.34552663783E+03  0.91014539041E+02 0.  0.
        -11    1    3    3    0    0  0.42801179051E+02 -0.47538743616E+01  0.11081885041E+03  0.11889221108E+03  0.00000000000E+00 0.  1.
         11    1    3    3    0    0 -0.42801179051E+02  0.47538743616E+01  0.22250533283E+03  0.22663442675E+03  0.00000000000E+00 0. -1.
<mgrwt>
<rscale>  0 0.91014539E+02</rscale>
<asrwt>0</asrwt>
<pdfrwt beam="1">  1        2 0.52219279E-01 0.91014539E+02</pdfrwt>
<pdfrwt beam="2">  1       -2 0.93865062E-03 0.91014539E+02</pdfrwt>
<totfact> 0.18896250E+05</totfact>
</mgrwt>
</event>
<event>
 5    1  0.5681061E+000  0.8763483E+02  0.7546771E-02  0.1308683E+00
          1   -1    0    0  501    0  0.00000000000E+00  0.00000000000E+00  0.35185794515E+02  0.35185794515E+02  0.00000000000E+00 0. -1.
         -1   -1    0    0    0  501 -0.00000000000E+00 -0.00000000000E+00 -0.54566501209E+02  0.54566501209E+02  0.00000000000E+00 0.  1.
         23    2    1    2    0    0  0.00000000000E+00  0.00000000000E+00 -0.19380706694E+02  0.89752295724E+02  0.87634826386E+02 0.  0.
        -11    1    3    3    0    0  0.31388354641E+02 -0.30497639547E+02 -0.74864105701E+01  0.44400238380E+02  0.00000000000E+00 0.  1.
         11    1    3    3    0    0 -0.31388354641E+02  0.30497639547E+02 -0.11894296124E+02  0.45352057343E+02  0.00000000000E+00 0. -1.
<mgrwt>
<rscale>  0 0.87634826E+02</rscale>
<asrwt>0</asrwt>
<pdfrwt beam="1">  1        1 0.54131992E-02 0.87634826E+02</pdfrwt>
<pdfrwt beam="2">  1       -1 0.83948463E-02 0.87634826E+02</pdfrwt>
<totfact> 0.99451868E+04</totfact>
</mgrwt>
</event>
<event>
 5    1  0.5681061E+000  0.9361506E+02  0.7546771E-02  0.1294326E+00
         -2   -1    0    0    0  501 -0.00000000000E+00  0.00000000000E+00  0.12380954824E+02  0.12380954824E+02  0.00000000000E+00 0.  1.
          2   -1    0    0  501    0  0.00000000000E+00 -0.00000000000E+00 -0.17696088680E+03  0.17696088680E+03  0.00000000000E+00 0. -1.
         23    2    1    2    0    0  0.00000000000E+00  0.00000000000E+00 -0.16457993198E+03  0.18934184163E+03  0.93615057444E+02 0.  0.
        -11    1    3    3    0    0  0.31611019380E+02 -0.38108090632E+01 -0.15168361601E+03  0.15498934859E+03  0.00000000000E+00 0. -1.
         11    1    3    3    0    0 -0.31611019380E+02  0.38108090632E+01 -0.12896315971E+02  0.34352493033E+02  0.00000000000E+00 0.  1.
<mgrwt>
<rscale>  0 0.93615057E+02</rscale>
<asrwt>0</asrwt>
<pdfrwt beam="2">  1        2 0.27224750E-01 0.93615057E+02</pdfrwt>
<pdfrwt beam="1">  1       -2 0.19047624E-02 0.93615057E+02</pdfrwt>
<totfact> 0.13784100E+05</totfact>
</mgrwt>
</event>
<event>
 5    1  0.5681061E+000  0.7363388E+02  0.7546771E-02  0.1348154E+00
          2   -1    0    0  501    0  0.00000000000E+00  0.00000000000E+00  0.28965691389E+02  0.28965691389E+02  0.00000000000E+00 0. -1.
         -2   -1    0    0    0  501 -0.00000000000E+00 -0.00000000000E+00 -0.46796301820E+02  0.46796301820E+02  0.00000000000E+00 0.  1.
         23    2    1    2    0    0  0.00000000000E+00  0.00000000000E+00 -0.17830610430E+02  0.75761993209E+02  0.73633884501E+02 0.  0.
        -11    1    3    3    0    0  0.16870958473E+02 -0.17559112497E+02 -0.37327431223E+02  0.44567799959E+02  0.00000000000E+00 0.  1.
         11    1    3    3    0    0 -0.16870958473E+02  0.17559112497E+02  0.19496820793E+02  0.31194193250E+02  0.00000000000E+00 0. -1.
<mgrwt>
<rscale>  0 0.73633885E+02</rscale>
<asrwt>0</asrwt>
<pdfrwt beam="1">  1        2 0.44562602E-02 0.73633885E+02</pdfrwt>
<pdfrwt beam="2">  1       -2 0.71994310E-02 0.73633885E+02</pdfrwt>
<totfact> 0.16287516E+05</totfact>
</mgrwt>
</event>
<event>
 5    1  0.5681061E+000  0.9263170E+02  0.7546771E-02  0.1296601E+00
          2   -1    0    0  501    0  0.00000000000E+00  0.00000000000E+00  0.36544445306E+03  0.36544445306E+03  0.00000000000E+00 0. -1.
         -2   -1    0    0    0  501 -0.00000000000E+00 -0.00000000000E+00 -0.58699978491E+01  0.58699978491E+01  0.00000000000E+00 0.  1.
         23    2    1    2    0    0  0.00000000000E+00  0.00000000000E+00  0.35957445521E+03  0.37131445091E+03  0.92631704149E+02 0.  0.
        -11    1    3    3    0    0  0.95857896316E+01 -0.42899279241E+02  0.23827877486E+03  0.24229942235E+03  0.00000000000E+00 0. -1.
         11    1    3    3    0    0 -0.95857896316E+01  0.42899279241E+02  0.12129568035E+03  0.12901502856E+03  0.00000000000E+00 0.  1.
<mgrwt>
<rscale>  0 0.92631704E+02</rscale>
<asrwt>0</asrwt>
<pdfrwt beam="1">  1        2 0.56222206E-01 0.92631704E+02</pdfrwt>
<pdfrwt beam="2">  1       -2 0.90307688E-03 0.92631704E+02</pdfrwt>
<totfact> 0.18524082E+05</totfact>
</mgrwt>
</event>
<event>
 5    1  0.5681061E+000  0.9018906E+02  0.7546771E-02  0.1302395E+00
          2   -1    0    0  501    0  0.00000000000E+00  0.00000000000E+00  0.12518572210E+03  0.12518572210E+03  0.00000000000E+00 0. -1.
         -2   -1    0    0    0  501 -0.00000000000E+00 -0.00000000000E+00 -0.16243997880E+02  0.16243997880E+02  0.00000000000E+00 0.  1.
         23    2    1    2    0    0  0.00000000000E+00  0.00000000000E+00  0.10894172422E+03  0.14142971998E+03  0.90189059302E+02 0.  0.
        -11    1    3    3    0    0  0.23045873298E+02  0.24275982097E+02  0.70857969248E+01  0.34214676688E+02  0.00000000000E+00 0.  1.
         11    1    3    3    0    0 -0.23045873298E+02 -0.24275982097E+02  0.10185592730E+03  0.10721504329E+03  0.00000000000E+00 0. -1.
<mgrwt>
<rscale>  0 0.90189059E+02</rscale>
<asrwt>0</asrwt>
<pdfrwt beam="1">  1        2 0.19259341E-01 0.90189059E+02</pdfrwt>
<pdfrwt beam="2">  1       -2 0.24990767E-02 0.90189059E+02</pdfrwt>
<totfact> 0.13561688E+05</totfact>
</mgrwt>
</event>
<event>
 5    1  0.5681061E+000  0.9119973E+02  0.7546771E-02  0.1299972E+00
          1   -1    0    0  501    0  0.00000000000E+00  0.00000000000E+00  0.68773898059E+02  0.68773898059E+02  0.00000000000E+00 0. -1.
         -1   -1    0    0    0  501 -0.00000000000E+00 -0.00000000000E+00 -0.30234550405E+02  0.30234550405E+02  0.00000000000E+00 0.  1.
         23    2    1    2    0    0  0.00000000000E+00  0.00000000000E+00  0.38539347654E+02  0.99008448465E+02  0.91199734374E+02 0.  0.
        -11    1    3    3    0    0 -0.29233540268E+02 -0.33201616789E+02  0.31280435506E+02  0.54179450712E+02  0.00000000000E+00 0. -1.
         11    1    3    3    0    0  0.29233540268E+02  0.33201616789E+02  0.72589121483E+01  0.44828997753E+02  0.00000000000E+00 0.  1.
<mgrwt>
<rscale>  0 0.91199734E+02</rscale>
<asrwt>0</asrwt>
<pdfrwt beam="1">  1        1 0.10580600E-01 0.91199734E+02</pdfrwt>
<pdfrwt beam="2">  1       -1 0.46514693E-02 0.91199734E+02</pdfrwt>
<totfact> 0.98330367E+04</totfact>
</mgrwt>
</event>
<event>
 5    1  0.5681061E+000  0.9272035E+02  0.7546771E-02  0.1296395E+00
          4   -1    0    0  501    0  0.00000000000E+00  0.00000000000E+00  0.40869193130E+02  0.40869193130E+02  0.00000000000E+00 0. -1.
         -4   -1    0    0    0  501 -0.00000000000E+00 -0.00000000000E+00 -0.52588897814E+02  0.52588897814E+02  0.00000000000E+00 0.  1.
         23    2    1    2    0    0  0.00000000000E+00  0.00000000000E+00 -0.11719704684E+02  0.93458090944E+02  0.92720349897E+02 0.  0.
        -11    1    3    3    0    0  0.21266593416E+02  0.39456672270E+02  0.60736406363E+01  0.45232577781E+02  0.00000000000E+00 0. -1.
         11    1    3    3    0    0 -0.21266593416E+02 -0.39456672270E+02 -0.17793345320E+02  0.48225513163E+02  0.00000000000E+00 0.  1.
<mgrwt>
<rscale>  0 0.92720350E+02</rscale>
<asrwt>0</asrwt>
<pdfrwt beam="1">  1        4 0.62875682E-02 0.92720350E+02</pdfrwt>
<pdfrwt beam="2">  1       -4 0.80905997E-02 0.92720350E+02</pdfrwt>
<totfact> 0.25670078E+04</totfact>
</mgrwt>
</event>
<event>
 5    1  0.5681061E+000  0.8829754E+02  0.7546771E-02  0.1307028E+00
         -1   -1    0    0    0  501 -0.00000000000E+00  0.00000000000E+00  0.15569999415E+02  0.15569999415E+02  0.00000000000E+00 0.  1.
          1   -1    0    0  501    0  0.00000000000E+00 -0.00000000000E+00 -0.12518394114E+03  0.12518394114E+03  0.00000000000E+00 0. -1.
         23    2    1    2    0    0  0.00000000000E+00  0.00000000000E+00 -0.10961394173E+03  0.14075394056E+03  0.88297539950E+02 0.  0.
        -11    1    3    3    0    0 -0.39952637329E+02 -0.10884589951E+02 -0.30399926945E+02  0.51369670879E+02  0.00000000000E+00 0.  1.
         11    1    3    3    0    0  0.39952637329E+02  0.10884589951E+02 -0.79214014784E+02  0.89384269680E+02  0.00000000000E+00 0. -1.
<mgrwt>
<rscale>  0 0.88297540E+02</rscale>
<asrwt>0</asrwt>
<pdfrwt beam="2">  1        1 0.19259068E-01 0.88297540E+02</pdfrwt>
<pdfrwt beam="1">  1       -1 0.23953845E-02 0.88297540E+02</pdfrwt>
<totfact> 0.11836967E+05</totfact>
</mgrwt>
</event>
<event>
 5    1  0.5681061E+000  0.8936562E+02  0.7546771E-02  0.1304395E+00
         -1   -1    0    0    0  501 -0.00000000000E+00  0.00000000000E+00  0.16315661892E+02  0.16315661892E+02  0.00000000000E+00 0.  1.
          1   -1    0    0  501    0  0.00000000000E+00 -0.00000000000E+00 -0.12237036407E+03  0.12237036407E+03  0.00000000000E+00 0. -1.
         23    2    1    2    0    0  0.00000000000E+00  0.00000000000E+00 -0.10605470218E+03  0.13868602597E+03  0.89365619471E+02 0.  0.
        -11    1    3    3    0    0  0.31380101018E+02 -0.27418821092E+02 -0.28001347984E+02  0.50205358069E+02  0.00000000000E+00 0.  1.
         11    1    3    3    0    0 -0.31380101018E+02  0.27418821092E+02 -0.78053354198E+02  0.88480667897E+02  0.00000000000E+00 0. -1.
<mgrwt>
<rscale>  0 0.89365619E+02</rscale>
<asrwt>0</asrwt>
<pdfrwt beam="2">  1        1 0.18826211E-01 0.89365619E+02</pdfrwt>
<pdfrwt beam="1">  1       -1 0.25101017E-02 0.89365619E+02</pdfrwt>
<totfact> 0.11413737E+05</totfact>
</mgrwt>
</event>
<event>
 5    1  0.5681061E+000  0.9171863E+02  0.7546771E-02  0.1298742E+00
          2   -1    0    0  501    0  0.00000000000E+00  0.00000000000E+00  0.38049705106E+02  0.38049705106E+02  0.00000000000E+00 0. -1.
         -2   -1    0    0    0  501 -0.00000000000E+00 -0.00000000000E+00 -0.55271832750E+02  0.55271832750E+02  0.00000000000E+00 0.  1.
         23    2    1    2    0    0  0.00000000000E+00  0.00000000000E+00 -0.17222127645E+02  0.93321537856E+02  0.91718633588E+02 0.  0.
        -11    1    3    3    0    0 -0.36973518006E+02 -0.18882134343E+02 -0.28432299221E+02  0.50318700998E+02  0.00000000000E+00 0. -1.
         11    1    3    3    0    0  0.36973518006E+02  0.18882134343E+02  0.11210171576E+02  0.43002836858E+02  0.00000000000E+00 0.  1.
<mgrwt>
<rscale>  0 0.91718634E+02</rscale>
<asrwt>0</asrwt>
<pdfrwt beam="1">  1        2 0.58538008E-02 0.91718634E+02</pdfrwt>
<pdfrwt beam="2">  1       -2 0.85033589E-02 0.91718634E+02</pdfrwt>
<totfact> 0.92550558E+04</totfact>
</mgrwt>
</event>
<event>
 5    1  0.5681061E+000  0.9157768E+02  0.7546771E-02  0.1299075E+00
         -3   -1    0    0    0  501 -0.00000000000E+00  0.00000000000E+00  0.83433421419E+02  0.83433421419E+02  0.00000000000E+00 0.  1.
          3   -1    0    0  501    0  0.00000000000E+00 -0.00000000000E+00 -0.25129232106E+02  0.25129232106E+02  0.00000000000E+00 0. -1.
         23    2    1    2    0    0  0.00000000000E+00  0.00000000000E+00  0.58304189313E+02  0.10856265353E+03  0.91577678771E+02 0.  0.
        -11    1    3    3    0    0 -0.23385111579E+02  0.22760912967E+02  0.67229427979E+02  0.74730974763E+02  0.00000000000E+00 0.  1.
         11    1    3    3    0    0  0.23385111579E+02 -0.22760912967E+02 -0.89252386658E+01  0.33831678763E+02  0.00000000000E+00 0. -1.
<mgrwt>
<rscale>  0 0.91577679E+02</rscale>
<asrwt>0</asrwt>
<pdfrwt beam="2">  1        3 0.38660357E-02 0.91577679E+02</pdfrwt>
<pdfrwt beam="1">  1       -3 0.12835911E-01 0.91577679E+02</pdfrwt>
<totfact> 0.33644722E+04</totfact>
</mgrwt>
</event>
<event>
 5    1  0.5681061E+000  0.8966958E+02  0.7546771E-02  0.1303654E+00
         -1   -1    0    0    0  501 -0.00000000000E+00  0.00000000000E+00  0.20969346090E+02  0.20969346090E+02  0.00000000000E+00 0.  1.
          1   -1    0    0  501    0  0.00000000000E+00 -0.00000000000E+00 -0.95861755747E+02  0.95861755747E+02  0.00000000000E+00 0. -1.
         23    2    1    2    0    0  0.00000000000E+00  0.00000000000E+00 -0.74892409657E+02  0.11683110184E+03  0.89669578633E+02 0.  0.
        -11    1    3    3    0    0  0.44328301972E+02  0.62196571069E+01 -0.34130609711E+02  0.56290150200E+02  0.00000000000E+00 0.  1.
         11    1    3    3    0    0 -0.44328301972E+02 -0.62196571069E+01 -0.40761799946E+02  0.60540951637E+02  0.00000000000E+00 0. -1.
<mgrwt>
<rscale>  0 0.89669579E+02</rscale>
<asrwt>0</asrwt>
<pdfrwt beam="2">  1        1 0.14747963E-01 0.89669579E+02</pdfrwt>
<pdfrwt beam="1">  1       -1 0.32260532E-02 0.89669579E+02</pdfrwt>
<totfact> 0.10854307E+05</totfact>
</mgrwt>
</event>
<event>
 5    1  0.5681061E+000  0.7180643E+02  0.7546771E-02  0.1354056E+00
          2   -1    0    0  501    0  0.00000000000E+00  0.00000000000E+00  0.10206461087E+03  0.10206461087E+03  0.00000000000E+00 0. -1.
         -2   -1    0    0    0  501 -0.00000000000E+00 -0.00000000000E+00 -0.12629655570E+02  0.12629655570E+02  0.00000000000E+00 0.  1.
         23    2    1    2    0    0  0.00000000000E+00  0.00000000000E+00  0.89434955303E+02  0.11469426644E+03  0.71806430945E+02 0.  0.
        -11    1    3    3    0    0  0.17232018774E+02  0.31068467279E+02  0.36441097853E+02  0.50893474462E+02  0.00000000000E+00 0.  1.
         11    1    3    3    0    0 -0.17232018774E+02 -0.31068467279E+02  0.52993857450E+02  0.63800791981E+02  0.00000000000E+00 0. -1.
<mgrwt>
<rscale>  0 0.71806431E+02</rscale>
<asrwt>0</asrwt>
<pdfrwt beam="1">  1        2 0.15702247E-01 0.71806431E+02</pdfrwt>
<pdfrwt beam="2">  1       -2 0.19430240E-02 0.71806431E+02</pdfrwt>
<totfact> 0.23540509E+05</totfact>
</mgrwt>
</event>
<event>
 5    1  0.5681061E+000  0.8867725E+02  0.7546771E-02  0.1306087E+00
         -2   -1    0    0    0  501 -0.00000000000E+00  0.00000000000E+00  0.18478330115E+02  0.18478330115E+02  0.00000000000E+00 0.  1.
          2   -1    0    0  501    0  0.00000000000E+00 -0.00000000000E+00 -0.10639022024E+03  0.10639022024E+03  0.00000000000E+00 0. -1.
         23    2    1    2    0    0  0.00000000000E+00  0.00000000000E+00 -0.87911890124E+02  0.12486855035E+03  0.88677248730E+02 0.  0.
        -11    1    3    3    0    0  0.31807930999E+02 -0.15740763926E+01 -0.51603310445E+00  0.31851035793E+02  0.00000000000E+00 0.  1.
         11    1    3    3    0    0 -0.31807930999E+02  0.15740763926E+01 -0.87395857020E+02  0.93017514561E+02  0.00000000000E+00 0. -1.
<mgrwt>
<rscale>  0 0.88677249E+02</rscale>
<asrwt>0</asrwt>
<pdfrwt beam="2">  1        2 0.16367726E-01 0.88677249E+02</pdfrwt>
<pdfrwt beam="1">  1       -2 0.28428201E-02 0.88677249E+02</pdfrwt>
<totfact> 0.13492255E+05</totfact>
</mgrwt>
</event>
<event>
 5    1  0.5681061E+000  0.9255406E+02  0.7546771E-02  0.1296782E+00
          2   -1    0    0  501    0  0.00000000000E+00  0.00000000000E+00  0.34673486196E+03  0.34673486196E+03  0.00000000000E+00 0. -1.
         -2   -1    0    0    0  501 -0.00000000000E+00 -0.00000000000E+00 -0.61763726089E+01  0.61763726089E+01  0.00000000000E+00 0.  1.
         23    2    1    2    0    0  0.00000000000E+00  0.00000000000E+00  0.34055848935E+03  0.35291123457E+03  0.92554064286E+02 0.  0.
        -11    1    3    3    0    0 -0.34335999253E+02  0.30760322684E+02  0.15483511276E+03  0.16155206728E+03  0.00000000000E+00 0. -1.
         11    1    3    3    0    0  0.34335999253E+02 -0.30760322684E+02  0.18572337658E+03  0.19135916729E+03  0.00000000000E+00 0.  1.
<mgrwt>
<rscale>  0 0.92554064E+02</rscale>
<asrwt>0</asrwt>
<pdfrwt beam="1">  1        2 0.53343810E-01 0.92554064E+02</pdfrwt>
<pdfrwt beam="2">  1       -2 0.95021144E-03 0.92554064E+02</pdfrwt>
<totfact> 0.18212217E+05</totfact>
</mgrwt>
</event>
<event>
 5    1  0.5681061E+000  0.7775728E+02  0.7546771E-02  0.1335539E+00
          2   -1    0    0  501    0  0.00000000000E+00  0.00000000000E+00  0.89946368736E+01  0.89946368736E+01  0.00000000000E+00 0. -1.
         -2   -1    0    0    0  501 -0.00000000000E+00 -0.00000000000E+00 -0.16804997326E+03  0.16804997326E+03  0.00000000000E+00 0.  1.
         23    2    1    2    0    0  0.00000000000E+00  0.00000000000E+00 -0.15905533639E+03  0.17704461013E+03  0.77757275829E+02 0.  0.
        -11    1    3    3    0    0 -0.33357928015E+02 -0.18350007294E+02 -0.61588686464E+02  0.72406080059E+02  0.00000000000E+00 0.  1.
         11    1    3    3    0    0  0.33357928015E+02  0.18350007294E+02 -0.97466649921E+02  0.10463853007E+03  0.00000000000E+00 0. -1.
<mgrwt>
<rscale>  0 0.77757276E+02</rscale>
<asrwt>0</asrwt>
<pdfrwt beam="1">  1        2 0.13837904E-02 0.77757276E+02</pdfrwt>
<pdfrwt beam="2">  1       -2 0.25853841E-01 0.77757276E+02</pdfrwt>
<totfact> 0.10021043E+05</totfact>
</mgrwt>
</event>
<event>
 5    1  0.5681061E+000  0.9170078E+02  0.7546771E-02  0.1298785E+00
         -2   -1    0    0    0  501 -0.00000000000E+00  0.00000000000E+00  0.69326107870E+01  0.69326107870E+01  0.00000000000E+00 0. -1.
          2   -1    0    0  501    0  0.00000000000E+00 -0.00000000000E+00 -0.30324192613E+03  0.30324192613E+03  0.00000000000E+00 0.  1.
         23    2    1    2    0    0  0.00000000000E+00  0.00000000000E+00 -0.29630931534E+03  0.31017453691E+03  0.91700779673E+02 0.  0.
        -11    1    3    3    0    0 -0.21627507157E+02 -0.35062198896E+02 -0.80071172131E+02  0.90047206862E+02  0.00000000000E+00 0. -1.
         11    1    3    3    0    0  0.21627507157E+02  0.35062198896E+02 -0.21623814321E+03  0.22012733005E+03  0.00000000000E+00 0.  1.
<mgrwt>
<rscale>  0 0.91700780E+02</rscale>
<asrwt>0</asrwt>
<pdfrwt beam="2">  1        2 0.46652609E-01 0.91700780E+02</pdfrwt>
<pdfrwt beam="1">  1       -2 0.10665554E-02 0.91700780E+02</pdfrwt>
<totfact> 0.17764159E+05</totfact>
</mgrwt>
</event>
<event>
 5    1  0.5681061E+000  0.9139168E+02  0.7546771E-02  0.1299516E+00
          1   -1    0    0  501    0  0.00000000000E+00  0.00000000000E+00  0.54353152515E+02  0.54353152515E+02  0.00000000000E+00 0. -1.
         -1   -1    0    0    0  501 -0.00000000000E+00 -0.00000000000E+00 -0.38417457161E+02  0.38417457161E+02  0.00000000000E+00 0.  1.
         23    2    1    2    0    0  0.00000000000E+00  0.00000000000E+00  0.15935695354E+02  0.92770609677E+02  0.91391682518E+02 0.  0.
        -11    1    3    3    0    0  0.38156130682E+02  0.55978451806E+01  0.32850631133E+02  0.50659551371E+02  0.00000000000E+00 0. -1.
         11    1    3    3    0    0 -0.38156130682E+02 -0.55978451806E+01 -0.16914935779E+02  0.42111058306E+02  0.00000000000E+00 0.  1.
<mgrwt>
<rscale>  0 0.91391683E+02</rscale>
<asrwt>0</asrwt>
<pdfrwt beam="1">  1        1 0.83620235E-02 0.91391683E+02</pdfrwt>
<pdfrwt beam="2">  1       -1 0.59103780E-02 0.91391683E+02</pdfrwt>
<totfact> 0.94325219E+04</totfact>
</mgrwt>
</event>
<event>
 5    1  0.5681061E+000  0.9135906E+02  0.7546771E-02  0.1299594E+00
          3   -1    0    0  501    0  0.00000000000E+00  0.00000000000E+00  0.81634254316E+02  0.81634254316E+02  0.00000000000E+00 0. -1.
         -3   -1    0    0    0  501 -0.00000000000E+00 -0.00000000000E+00 -0.25560588927E+02  0.25560588927E+02  0.00000000000E+00 0.  1.
         23    2    1    2    0    0  0.00000000000E+00  0.00000000000E+00  0.56073665390E+02  0.10719484324E+03  0.91359063413E+02 0.  0.
        -11    1    3    3    0    0  0.18553218270E+02  0.32740141144E+02 -0.23451036395E+01  0.37704618569E+02  0.00000000000E+00 0. -1.
         11    1    3    3    0    0 -0.18553218270E+02 -0.32740141144E+02  0.58418769029E+02  0.69490224674E+02  0.00000000000E+00 0.  1.
<mgrwt>
<rscale>  0 0.91359063E+02</rscale>
<asrwt>0</asrwt>
<pdfrwt beam="1">  1        3 0.12559116E-01 0.91359063E+02</pdfrwt>
<pdfrwt beam="2">  1       -3 0.39323983E-02 0.91359063E+02</pdfrwt>
<totfact> 0.33960447E+04</totfact>
</mgrwt>
</event>
<event>
 5    1  0.5681061E+000  0.9036317E+02  0.7546771E-02  0.1301975E+00
         -2   -1    0    0    0  501 -0.00000000000E+00  0.00000000000E+00  0.60929809017E+01  0.60929809017E+01  0.00000000000E+00 0.  1.
          2   -1    0    0  501    0  0.00000000000E+00 -0.00000000000E+00 -0.33503722743E+03  0.33503722743E+03  0.00000000000E+00 0. -1.
         23    2    1    2    0    0  0.00000000000E+00  0.00000000000E+00 -0.32894424653E+03  0.34113020834E+03  0.90363165684E+02 0.  0.
        -11    1    3    3    0    0  0.36430226287E+02 -0.26573892722E+02 -0.17517789476E+03  0.18088844069E+03  0.00000000000E+00 0. -1.
         11    1    3    3    0    0 -0.36430226287E+02  0.26573892722E+02 -0.15376635177E+03  0.16024176764E+03  0.00000000000E+00 0.  1.
<mgrwt>
<rscale>  0 0.90363166E+02</rscale>
<asrwt>0</asrwt>
<pdfrwt beam="2">  1        2 0.51544199E-01 0.90363166E+02</pdfrwt>
<pdfrwt beam="1">  1       -2 0.93738149E-03 0.90363166E+02</pdfrwt>
<totfact> 0.19168644E+05</totfact>
</mgrwt>
</event>
<event>
 5    1  0.5681061E+000  0.9028391E+02  0.7546771E-02  0.1302166E+00
          2   -1    0    0  501    0  0.00000000000E+00  0.00000000000E+00  0.42345633669E+03  0.42345633669E+03  0.00000000000E+00 0. -1.
         -2   -1    0    0    0  501 -0.00000000000E+00 -0.00000000000E+00 -0.48122932431E+01  0.48122932431E+01  0.00000000000E+00 0.  1.
         23    2    1    2    0    0  0.00000000000E+00  0.00000000000E+00  0.41864404344E+03  0.42826862993E+03  0.90283909260E+02 0.  0.
        -11    1    3    3    0    0 -0.35720182834E+02 -0.27534529932E+02  0.20017999468E+03  0.20519773895E+03  0.00000000000E+00 0.  1.
         11    1    3    3    0    0  0.35720182834E+02  0.27534529932E+02  0.21846404876E+03  0.22307089098E+03  0.00000000000E+00 0. -1.
<mgrwt>
<rscale>  0 0.90283909E+02</rscale>
<asrwt>0</asrwt>
<pdfrwt beam="1">  1        2 0.65147099E-01 0.90283909E+02</pdfrwt>
<pdfrwt beam="2">  1       -2 0.74035314E-03 0.90283909E+02</pdfrwt>
<totfact> 0.20908000E+05</totfact>
</mgrwt>
</event>
<event>
 5    1  0.5681061E+000  0.9139680E+02  0.7546771E-02  0.1299504E+00
         -3   -1    0    0    0  501 -0.00000000000E+00  0.00000000000E+00  0.28529494643E+02  0.28529494643E+02  0.00000000000E+00 0.  1.
          3   -1    0    0  501    0  0.00000000000E+00 -0.00000000000E+00 -0.73199466041E+02  0.73199466041E+02  0.00000000000E+00 0. -1.
         23    2    1    2    0    0  0.00000000000E+00  0.00000000000E+00 -0.44669971398E+02  0.10172896068E+03  0.91396800257E+02 0.  0.
        -11    1    3    3    0    0  0.16702630004E+02  0.25433331256E+01  0.24925602222E+02  0.30111991607E+02  0.00000000000E+00 0.  1.
         11    1    3    3    0    0 -0.16702630004E+02 -0.25433331256E+01 -0.69595573619E+02  0.71616969077E+02  0.00000000000E+00 0. -1.
<mgrwt>
<rscale>  0 0.91396800E+02</rscale>
<asrwt>0</asrwt>
<pdfrwt beam="2">  1        3 0.11261456E-01 0.91396800E+02</pdfrwt>
<pdfrwt beam="1">  1       -3 0.43891531E-02 0.91396800E+02</pdfrwt>
<totfact> 0.34317212E+04</totfact>
</mgrwt>
</event>
<event>
 5    1  0.5681061E+000  0.8301910E+02  0.7546771E-02  0.1320696E+00
          3   -1    0    0  501    0  0.00000000000E+00  0.00000000000E+00  0.67423729654E+02  0.67423729654E+02  0.00000000000E+00 0. -1.
         -3   -1    0    0    0  501 -0.00000000000E+00 -0.00000000000E+00 -0.25555435914E+02  0.25555435914E+02  0.00000000000E+00 0.  1.
         23    2    1    2    0    0  0.00000000000E+00  0.00000000000E+00  0.41868293740E+02  0.92979165568E+02  0.83019101471E+02 0.  0.
        -11    1    3    3    0    0 -0.18500727150E+02 -0.28230691395E+02 -0.61264526851E+01  0.34304260147E+02  0.00000000000E+00 0.  1.
         11    1    3    3    0    0  0.18500727150E+02  0.28230691395E+02  0.47994746425E+02  0.58674905421E+02  0.00000000000E+00 0. -1.
<mgrwt>
<rscale>  0 0.83019101E+02</rscale>
<asrwt>0</asrwt>
<pdfrwt beam="1">  1        3 0.10372881E-01 0.83019101E+02</pdfrwt>
<pdfrwt beam="2">  1       -3 0.39316056E-02 0.83019101E+02</pdfrwt>
<totfact> 0.45358605E+04</totfact>
</mgrwt>
</event>
<event>
 5    1  0.5681061E+000  0.9551896E+02  0.7546771E-02  0.1290012E+00
         -2   -1    0    0    0  501 -0.00000000000E+00  0.00000000000E+00  0.14909880232E+02  0.14909880232E+02  0.00000000000E+00 0.  1.
          2   -1    0    0  501    0  0.00000000000E+00 -0.00000000000E+00 -0.15298364160E+03  0.15298364160E+03  0.00000000000E+00 0. -1.
         23    2    1    2    0    0  0.00000000000E+00  0.00000000000E+00 -0.13807376136E+03  0.16789352183E+03  0.95518956731E+02 0.  0.
        -11    1    3    3    0    0 -0.38508836629E+02 -0.25750671019E+01 -0.19589405443E+02  0.43281708315E+02  0.00000000000E+00 0.  1.
         11    1    3    3    0    0  0.38508836629E+02  0.25750671019E+01 -0.11848435592E+03  0.12461181351E+03  0.00000000000E+00 0. -1.
<mgrwt>
<rscale>  0 0.95518957E+02</rscale>
<asrwt>0</asrwt>
<pdfrwt beam="2">  1        2 0.23535943E-01 0.95518957E+02</pdfrwt>
<pdfrwt beam="1">  1       -2 0.22938279E-02 0.95518957E+02</pdfrwt>
<totfact> 0.12400530E+05</totfact>
</mgrwt>
</event>
<event>
 5    1  0.5681061E+000  0.9734755E+02  0.7546771E-02  0.1285975E+00
          2   -1    0    0  501    0  0.00000000000E+00  0.00000000000E+00  0.49444206848E+02  0.49444206848E+02  0.00000000000E+00 0. -1.
         -2   -1    0    0    0  501 -0.00000000000E+00 -0.00000000000E+00 -0.47915349427E+02  0.47915349427E+02  0.00000000000E+00 0.  1.
         23    2    1    2    0    0  0.00000000000E+00  0.00000000000E+00  0.15288574209E+01  0.97359556276E+02  0.97347551552E+02 0.  0.
        -11    1    3    3    0    0  0.39254949833E+02 -0.10306704887E+02  0.27637003357E+02  0.49101763783E+02  0.00000000000E+00 0. -1.
         11    1    3    3    0    0 -0.39254949833E+02  0.10306704887E+02 -0.26108145936E+02  0.48257792493E+02  0.00000000000E+00 0.  1.
<mgrwt>
<rscale>  0 0.97347552E+02</rscale>
<asrwt>0</asrwt>
<pdfrwt beam="1">  1        2 0.76068010E-02 0.97347552E+02</pdfrwt>
<pdfrwt beam="2">  1       -2 0.73715922E-02 0.97347552E+02</pdfrwt>
<totfact> 0.83484989E+04</totfact>
</mgrwt>
</event>
<event>
 5    1  0.5681061E+000  0.8855479E+02  0.7546771E-02  0.1306390E+00
         -2   -1    0    0    0  501 -0.00000000000E+00  0.00000000000E+00  0.10050463568E+03  0.10050463568E+03  0.00000000000E+00 0.  1.
          2   -1    0    0  501    0  0.00000000000E+00 -0.00000000000E+00 -0.19506442689E+02  0.19506442689E+02  0.00000000000E+00 0. -1.
         23    2    1    2    0    0  0.00000000000E+00  0.00000000000E+00  0.80998192987E+02  0.12001107836E+03  0.88554794693E+02 0.  0.
        -11    1    3    3    0    0 -0.18006048113E+02  0.39005730001E+02  0.55021016225E+02  0.69806711482E+02  0.00000000000E+00 0.  1.
         11    1    3    3    0    0  0.18006048113E+02 -0.39005730001E+02  0.25977176762E+02  0.50204366883E+02  0.00000000000E+00 0. -1.
<mgrwt>
<rscale>  0 0.88554795E+02</rscale>
<asrwt>0</asrwt>
<pdfrwt beam="2">  1        2 0.30009913E-02 0.88554795E+02</pdfrwt>
<pdfrwt beam="1">  1       -2 0.15462251E-01 0.88554795E+02</pdfrwt>
<totfact> 0.85685147E+04</totfact>
</mgrwt>
</event>
<event>
 5    1  0.5681061E+000  0.9122057E+02  0.7546771E-02  0.1299923E+00
          1   -1    0    0  501    0  0.00000000000E+00  0.00000000000E+00  0.18214660592E+03  0.18214660592E+03  0.00000000000E+00 0. -1.
         -1   -1    0    0    0  501 -0.00000000000E+00 -0.00000000000E+00 -0.11421010270E+02  0.11421010270E+02  0.00000000000E+00 0.  1.
         23    2    1    2    0    0  0.00000000000E+00  0.00000000000E+00  0.17072559565E+03  0.19356761619E+03  0.91220573489E+02 0.  0.
        -11    1    3    3    0    0 -0.33796879645E+02 -0.95856309677E+01  0.23636173189E+02  0.42341257395E+02  0.00000000000E+00 0.  1.
         11    1    3    3    0    0  0.33796879645E+02  0.95856309677E+01  0.14708942246E+03  0.15122635879E+03  0.00000000000E+00 0. -1.
<mgrwt>
<rscale>  0 0.91220573E+02</rscale>
<asrwt>0</asrwt>
<pdfrwt beam="1">  1        1 0.28022553E-01 0.91220573E+02</pdfrwt>
<pdfrwt beam="2">  1       -1 0.17570786E-02 0.91220573E+02</pdfrwt>
<totfact> 0.11613995E+05</totfact>
</mgrwt>
</event>
<event>
 5    1  0.5681061E+000  0.8724494E+02  0.7546771E-02  0.1309664E+00
         -2   -1    0    0    0  501 -0.00000000000E+00  0.00000000000E+00  0.52591170281E+01  0.52591170281E+01  0.00000000000E+00 0.  1.
          2   -1    0    0  501    0  0.00000000000E+00 -0.00000000000E+00 -0.36183254959E+03  0.36183254959E+03  0.00000000000E+00 0. -1.
         23    2    1    2    0    0  0.00000000000E+00  0.00000000000E+00 -0.35657343256E+03  0.36709166662E+03  0.87244936194E+02 0.  0.
        -11    1    3    3    0    0 -0.42429455862E+02 -0.74837343985E+01 -0.14954702632E+03  0.15562961828E+03  0.00000000000E+00 0.  1.
         11    1    3    3    0    0  0.42429455862E+02  0.74837343985E+01 -0.20702640624E+03  0.21146204833E+03  0.00000000000E+00 0. -1.
<mgrwt>
<rscale>  0 0.87244936E+02</rscale>
<asrwt>0</asrwt>
<pdfrwt beam="2">  1        2 0.55666556E-01 0.87244936E+02</pdfrwt>
<pdfrwt beam="1">  1       -2 0.80909479E-03 0.87244936E+02</pdfrwt>
<totfact> 0.21638854E+05</totfact>
</mgrwt>
</event>
<event>
 5    1  0.5681061E+000  0.9053870E+02  0.7546771E-02  0.1301552E+00
          4   -1    0    0  501    0  0.00000000000E+00  0.00000000000E+00  0.70715229986E+02  0.70715229986E+02  0.00000000000E+00 0. -1.
         -4   -1    0    0    0  501 -0.00000000000E+00 -0.00000000000E+00 -0.28979810728E+02  0.28979810728E+02  0.00000000000E+00 0.  1.
         23    2    1    2    0    0  0.00000000000E+00  0.00000000000E+00  0.41735419259E+02  0.99695040714E+02  0.90538698479E+02 0.  0.
        -11    1    3    3    0    0 -0.21932460776E+01 -0.45199020667E+02  0.22239572692E+02  0.50421824552E+02  0.00000000000E+00 0.  1.
         11    1    3    3    0    0  0.21932460776E+01  0.45199020667E+02  0.19495846566E+02  0.49273216162E+02  0.00000000000E+00 0. -1.
<mgrwt>
<rscale>  0 0.90538698E+02</rscale>
<asrwt>0</asrwt>
<pdfrwt beam="1">  1        4 0.10879266E-01 0.90538698E+02</pdfrwt>
<pdfrwt beam="2">  1       -4 0.44584324E-02 0.90538698E+02</pdfrwt>
<totfact> 0.26985159E+04</totfact>
</mgrwt>
</event>
<event>
 5    1  0.5681061E+000  0.9196880E+02  0.7546771E-02  0.1298153E+00
          1   -1    0    0  501    0  0.00000000000E+00  0.00000000000E+00  0.27224694851E+02  0.27224694851E+02  0.00000000000E+00 0. -1.
         -1   -1    0    0    0  501 -0.00000000000E+00 -0.00000000000E+00 -0.77670837500E+02  0.77670837500E+02  0.00000000000E+00 0.  1.
         23    2    1    2    0    0  0.00000000000E+00  0.00000000000E+00 -0.50446142649E+02  0.10489553235E+03  0.91968795789E+02 0.  0.
        -11    1    3    3    0    0  0.16325610451E+02 -0.21524080217E+02 -0.67665740665E+02  0.72859207006E+02  0.00000000000E+00 0.  1.
         11    1    3    3    0    0 -0.16325610451E+02  0.21524080217E+02  0.17219598016E+02  0.32036325345E+02  0.00000000000E+00 0. -1.
<mgrwt>
<rscale>  0 0.91968796E+02</rscale>
<asrwt>0</asrwt>
<pdfrwt beam="1">  1        1 0.41884146E-02 0.91968796E+02</pdfrwt>
<pdfrwt beam="2">  1       -1 0.11949360E-01 0.91968796E+02</pdfrwt>
<totfact> 0.83209205E+04</totfact>
</mgrwt>
</event>
<event>
 5    1  0.5681061E+000  0.9783347E+02  0.7546771E-02  0.1284919E+00
          3   -1    0    0  501    0  0.00000000000E+00  0.00000000000E+00  0.45529466743E+02  0.45529466743E+02  0.00000000000E+00 0. -1.
         -3   -1    0    0    0  501 -0.00000000000E+00 -0.00000000000E+00 -0.52556009740E+02  0.52556009740E+02  0.00000000000E+00 0.  1.
         23    2    1    2    0    0  0.00000000000E+00  0.00000000000E+00 -0.70265429966E+01  0.98085476482E+02  0.97833472750E+02 0.  0.
        -11    1    3    3    0    0 -0.22806502726E+02  0.21054857568E+02  0.34391567610E+02  0.46327351710E+02  0.00000000000E+00 0. -1.
         11    1    3    3    0    0  0.22806502726E+02 -0.21054857568E+02 -0.41418110606E+02  0.51758124773E+02  0.00000000000E+00 0.  1.
<mgrwt>
<rscale>  0 0.97833473E+02</rscale>
<asrwt>0</asrwt>
<pdfrwt beam="1">  1        3 0.70045334E-02 0.97833473E+02</pdfrwt>
<pdfrwt beam="2">  1       -3 0.80855399E-02 0.97833473E+02</pdfrwt>
<totfact> 0.28707023E+04</totfact>
</mgrwt>
</event>
<event>
 5    1  0.5681061E+000  0.9167420E+02  0.7546771E-02  0.1298847E+00
         -1   -1    0    0    0  501 -0.00000000000E+00  0.00000000000E+00  0.19226224061E+02  0.19226224061E+02  0.00000000000E+00 0.  1.
          1   -1    0    0  501    0  0.00000000000E+00 -0.00000000000E+00 -0.10927989468E+03  0.10927989468E+03  0.00000000000E+00 0. -1.
         23    2    1    2    0    0  0.00000000000E+00  0.00000000000E+00 -0.90053670616E+02  0.12850611874E+03  0.91674200086E+02 0.  0.
        -11    1    3    3    0    0  0.26499285768E+02  0.16296314546E+02  0.21621916231E+01  0.31184244205E+02  0.00000000000E+00 0.  1.
         11    1    3    3    0    0 -0.26499285768E+02 -0.16296314546E+02 -0.92215862239E+02  0.97321874533E+02  0.00000000000E+00 0. -1.
<mgrwt>
<rscale>  0 0.91674200E+02</rscale>
<asrwt>0</asrwt>
<pdfrwt beam="2">  1        1 0.16812292E-01 0.91674200E+02</pdfrwt>
<pdfrwt beam="1">  1       -1 0.29578806E-02 0.91674200E+02</pdfrwt>
<totfact> 0.10446254E+05</totfact>
</mgrwt>
</event>
<event>
 5    1  0.5681061E+000  0.9257798E+02  0.7546771E-02  0.1296726E+00
         -1   -1    0    0    0  501 -0.00000000000E+00  0.00000000000E+00  0.53024699530E+02  0.53024699530E+02  0.00000000000E+00 0.  1.
          1   -1    0    0  501    0  0.00000000000E+00 -0.00000000000E+00 -0.40408917924E+02  0.40408917924E+02  0.00000000000E+00 0. -1.
         23    2    1    2    0    0  0.00000000000E+00  0.00000000000E+00  0.12615781606E+02  0.93433617454E+02  0.92577982939E+02 0.  0.
        -11    1    3    3    0    0 -0.28185627952E+02 -0.29824276330E+02 -0.15308601149E+02  0.43798063323E+02  0.00000000000E+00 0. -1.
         11    1    3    3    0    0  0.28185627952E+02  0.29824276330E+02  0.27924382755E+02  0.49635554131E+02  0.00000000000E+00 0.  1.
<mgrwt>
<rscale>  0 0.92577983E+02</rscale>
<asrwt>0</asrwt>
<pdfrwt beam="2">  1        1 0.62167566E-02 0.92577983E+02</pdfrwt>
<pdfrwt beam="1">  1       -1 0.81576461E-02 0.92577983E+02</pdfrwt>
<totfact> 0.86968619E+04</totfact>
</mgrwt>
</event>
<event>
 5    1  0.5681061E+000  0.8838515E+02  0.7546771E-02  0.1306810E+00
         -3   -1    0    0    0  501 -0.00000000000E+00  0.00000000000E+00  0.40848191783E+02  0.40848191783E+02  0.00000000000E+00 0.  1.
          3   -1    0    0  501    0  0.00000000000E+00 -0.00000000000E+00 -0.47810773832E+02  0.47810773832E+02  0.00000000000E+00 0. -1.
         23    2    1    2    0    0  0.00000000000E+00  0.00000000000E+00 -0.69625820485E+01  0.88658965615E+02  0.88385149404E+02 0.  0.
        -11    1    3    3    0    0 -0.14063524871E+02  0.10238727471E+02  0.37269302571E+02  0.41129249763E+02  0.00000000000E+00 0.  1.
         11    1    3    3    0    0  0.14063524871E+02 -0.10238727471E+02 -0.44231884619E+02  0.47529715852E+02  0.00000000000E+00 0. -1.
<mgrwt>
<rscale>  0 0.88385149E+02</rscale>
<asrwt>0</asrwt>
<pdfrwt beam="2">  1        3 0.73555037E-02 0.88385149E+02</pdfrwt>
<pdfrwt beam="1">  1       -3 0.62843372E-02 0.88385149E+02</pdfrwt>
<totfact> 0.38665743E+04</totfact>
</mgrwt>
</event>
<event>
 5    1  0.5681061E+000  0.8891887E+02  0.7546771E-02  0.1305491E+00
         -2   -1    0    0    0  501 -0.00000000000E+00  0.00000000000E+00  0.14621636284E+03  0.14621636284E+03  0.00000000000E+00 0.  1.
          2   -1    0    0  501    0  0.00000000000E+00 -0.00000000000E+00 -0.13518605620E+02  0.13518605620E+02  0.00000000000E+00 0. -1.
         23    2    1    2    0    0  0.00000000000E+00  0.00000000000E+00  0.13269775722E+03  0.15973496846E+03  0.88918869640E+02 0.  0.
        -11    1    3    3    0    0  0.25291539457E+02 -0.24546364996E+02  0.11503316002E+03  0.12031132078E+03  0.00000000000E+00 0.  1.
         11    1    3    3    0    0 -0.25291539457E+02  0.24546364996E+02  0.17664597202E+02  0.39423647686E+02  0.00000000000E+00 0. -1.
<mgrwt>
<rscale>  0 0.88918870E+02</rscale>
<asrwt>0</asrwt>
<pdfrwt beam="2">  1        2 0.20797856E-02 0.88918870E+02</pdfrwt>
<pdfrwt beam="1">  1       -2 0.22494824E-01 0.88918870E+02</pdfrwt>
<totfact> 0.75116973E+04</totfact>
</mgrwt>
</event>
<event>
 5    1  0.5681061E+000  0.9117029E+02  0.7546771E-02  0.1300042E+00
          2   -1    0    0  501    0  0.00000000000E+00  0.00000000000E+00  0.58252216734E+02  0.58252216734E+02  0.00000000000E+00 0. -1.
         -2   -1    0    0    0  501 -0.00000000000E+00 -0.00000000000E+00 -0.35672552517E+02  0.35672552517E+02  0.00000000000E+00 0.  1.
         23    2    1    2    0    0  0.00000000000E+00  0.00000000000E+00  0.22579664217E+02  0.93924769251E+02  0.91170285964E+02 0.  0.
        -11    1    3    3    0    0 -0.49558464218E+01 -0.16608167051E+02  0.54725400209E+02  0.57404364421E+02  0.00000000000E+00 0. -1.
         11    1    3    3    0    0  0.49558464218E+01  0.16608167051E+02 -0.32145735991E+02  0.36520404830E+02  0.00000000000E+00 0.  1.
<mgrwt>
<rscale>  0 0.91170286E+02</rscale>
<asrwt>0</asrwt>
<pdfrwt beam="1">  1        2 0.89618795E-02 0.91170286E+02</pdfrwt>
<pdfrwt beam="2">  1       -2 0.54880850E-02 0.91170286E+02</pdfrwt>
<totfact> 0.10525492E+05</totfact>
</mgrwt>
</event>
<event>
 5    1  0.5681061E+000  0.8927814E+02  0.7546771E-02  0.1304609E+00
         -2   -1    0    0    0  501 -0.00000000000E+00  0.00000000000E+00  0.67951549703E+02  0.67951549703E+02  0.00000000000E+00 0.  1.
          2   -1    0    0  501    0  0.00000000000E+00 -0.00000000000E+00 -0.29324521354E+02  0.29324521354E+02  0.00000000000E+00 0. -1.
         23    2    1    2    0    0  0.00000000000E+00  0.00000000000E+00  0.38627028348E+02  0.97276071057E+02  0.89278142236E+02 0.  0.
        -11    1    3    3    0    0 -0.10477701516E+02  0.23657247162E+02  0.58948022476E+02  0.64376369315E+02  0.00000000000E+00 0.  1.
         11    1    3    3    0    0  0.10477701516E+02 -0.23657247162E+02 -0.20320994128E+02  0.32899701742E+02  0.00000000000E+00 0. -1.
<mgrwt>
<rscale>  0 0.89278142E+02</rscale>
<asrwt>0</asrwt>
<pdfrwt beam="2">  1        2 0.45114648E-02 0.89278142E+02</pdfrwt>
<pdfrwt beam="1">  1       -2 0.10454085E-01 0.89278142E+02</pdfrwt>
<totfact> 0.93587421E+04</totfact>
</mgrwt>
</event>
<event>
 5    1  0.5681061E+000  0.8868105E+02  0.7546771E-02  0.1306078E+00
         -2   -1    0    0    0  501 -0.00000000000E+00  0.00000000000E+00  0.16255084686E+02  0.16255084686E+02  0.00000000000E+00 0.  1.
          2   -1    0    0  501    0  0.00000000000E+00 -0.00000000000E+00 -0.12095182863E+03  0.12095182863E+03  0.00000000000E+00 0. -1.
         23    2    1    2    0    0  0.00000000000E+00  0.00000000000E+00 -0.10469674394E+03  0.13720691331E+03  0.88681051352E+02 0.  0.
        -11    1    3    3    0    0  0.11224309936E+02 -0.40644313453E+02 -0.31126576942E+02  0.52410009939E+02  0.00000000000E+00 0.  1.
         11    1    3    3    0    0 -0.11224309936E+02  0.40644313453E+02 -0.73570166999E+02  0.84796903375E+02  0.00000000000E+00 0. -1.
<mgrwt>
<rscale>  0 0.88681051E+02</rscale>
<asrwt>0</asrwt>
<pdfrwt beam="2">  1        2 0.18607973E-01 0.88681051E+02</pdfrwt>
<pdfrwt beam="1">  1       -2 0.25007823E-02 0.88681051E+02</pdfrwt>
<totfact> 0.14042569E+05</totfact>
</mgrwt>
</event>
<event>
 5    1  0.5681061E+000  0.9533261E+02  0.7546771E-02  0.1290429E+00
         -2   -1    0    0    0  501 -0.00000000000E+00  0.00000000000E+00  0.57261555861E+02  0.57261555861E+02  0.00000000000E+00 0.  1.
          2   -1    0    0  501    0  0.00000000000E+00 -0.00000000000E+00 -0.39678920613E+02  0.39678920613E+02  0.00000000000E+00 0. -1.
         23    2    1    2    0    0  0.00000000000E+00  0.00000000000E+00  0.17582635248E+02  0.96940476474E+02  0.95332612031E+02 0.  0.
        -11    1    3    3    0    0 -0.28250966309E+02  0.25250178745E+02 -0.20616824015E+02  0.43136319460E+02  0.00000000000E+00 0. -1.
         11    1    3    3    0    0  0.28250966309E+02 -0.25250178745E+02  0.38199459262E+02  0.53804157014E+02  0.00000000000E+00 0.  1.
<mgrwt>
<rscale>  0 0.95332612E+02</rscale>
<asrwt>0</asrwt>
<pdfrwt beam="2">  1        2 0.61044493E-02 0.95332612E+02</pdfrwt>
<pdfrwt beam="1">  1       -2 0.88094701E-02 0.95332612E+02</pdfrwt>
<totfact> 0.83591341E+04</totfact>
</mgrwt>
</event>
<event>
 5    1  0.5681061E+000  0.9055918E+02  0.7546771E-02  0.1301503E+00
          1   -1    0    0  501    0  0.00000000000E+00  0.00000000000E+00  0.42800133905E+02  0.42800133905E+02  0.00000000000E+00 0. -1.
         -1   -1    0    0    0  501 -0.00000000000E+00 -0.00000000000E+00 -0.47902682866E+02  0.47902682866E+02  0.00000000000E+00 0.  1.
         23    2    1    2    0    0  0.00000000000E+00  0.00000000000E+00 -0.51025489612E+01  0.90702816771E+02  0.90559179349E+02 0.  0.
        -11    1    3    3    0    0 -0.15885208046E+01 -0.27456372357E+02 -0.38578669028E+02  0.47378154094E+02  0.00000000000E+00 0.  1.
         11    1    3    3    0    0  0.15885208046E+01  0.27456372357E+02  0.33476120067E+02  0.43324662677E+02  0.00000000000E+00 0. -1.
<mgrwt>
<rscale>  0 0.90559179E+02</rscale>
<asrwt>0</asrwt>
<pdfrwt beam="1">  1        1 0.65846360E-02 0.90559179E+02</pdfrwt>
<pdfrwt beam="2">  1       -1 0.73696435E-02 0.90559179E+02</pdfrwt>
<totfact> 0.93365144E+04</totfact>
</mgrwt>
</event>
<event>
 5    1  0.5681061E+000  0.9139793E+02  0.7546771E-02  0.1299501E+00
         -4   -1    0    0    0  501 -0.00000000000E+00  0.00000000000E+00  0.16528539903E+02  0.16528539903E+02  0.00000000000E+00 0.  1.
          4   -1    0    0  501    0  0.00000000000E+00 -0.00000000000E+00 -0.12635085673E+03  0.12635085673E+03  0.00000000000E+00 0. -1.
         23    2    1    2    0    0  0.00000000000E+00  0.00000000000E+00 -0.10982231683E+03  0.14287939664E+03  0.91397925082E+02 0.  0.
        -11    1    3    3    0    0  0.36492534604E+01  0.27387733172E+02  0.19924233728E+01  0.27701529380E+02  0.00000000000E+00 0.  1.
         11    1    3    3    0    0 -0.36492534604E+01 -0.27387733172E+02 -0.11181474020E+03  0.11517786726E+03  0.00000000000E+00 0. -1.
<mgrwt>
<rscale>  0 0.91397925E+02</rscale>
<asrwt>0</asrwt>
<pdfrwt beam="2">  1        4 0.19438594E-01 0.91397925E+02</pdfrwt>
<pdfrwt beam="1">  1       -4 0.25428522E-02 0.91397925E+02</pdfrwt>
<totfact> 0.23879094E+04</totfact>
</mgrwt>
</event>
<event>
 5    1  0.5681061E+000  0.9197688E+02  0.7546771E-02  0.1298134E+00
          2   -1    0    0  501    0  0.00000000000E+00  0.00000000000E+00  0.86068914437E+02  0.86068914437E+02  0.00000000000E+00 0. -1.
         -2   -1    0    0    0  501 -0.00000000000E+00 -0.00000000000E+00 -0.24572597156E+02  0.24572597156E+02  0.00000000000E+00 0.  1.
         23    2    1    2    0    0  0.00000000000E+00  0.00000000000E+00  0.61496317282E+02  0.11064151159E+03  0.91976883228E+02 0.  0.
        -11    1    3    3    0    0  0.24946204070E+02  0.33823283326E+02  0.82882070973E+01  0.42837156410E+02  0.00000000000E+00 0. -1.
         11    1    3    3    0    0 -0.24946204070E+02 -0.33823283326E+02  0.53208110184E+02  0.67804355183E+02  0.00000000000E+00 0.  1.
<mgrwt>
<rscale>  0 0.91976883E+02</rscale>
<asrwt>0</asrwt>
<pdfrwt beam="1">  1        2 0.13241371E-01 0.91976883E+02</pdfrwt>
<pdfrwt beam="2">  1       -2 0.37803996E-02 0.91976883E+02</pdfrwt>
<totfact> 0.11449904E+05</totfact>
</mgrwt>
</event>
<event>
 5    1  0.5681061E+000  0.9173647E+02  0.7546771E-02  0.1298700E+00
          3   -1    0    0  501    0  0.00000000000E+00  0.00000000000E+00  0.11329110302E+03  0.11329110302E+03  0.00000000000E+00 0. -1.
         -3   -1    0    0    0  501 -0.00000000000E+00 -0.00000000000E+00 -0.18570699512E+02  0.18570699512E+02  0.00000000000E+00 0.  1.
         23    2    1    2    0    0  0.00000000000E+00  0.00000000000E+00  0.94720403508E+02  0.13186180253E+03  0.91736471079E+02 0.  0.
        -11    1    3    3    0    0  0.43404261722E+02  0.90671788122E+00  0.68638688481E+02  0.81215895177E+02  0.00000000000E+00 0. -1.
         11    1    3    3    0    0 -0.43404261722E+02 -0.90671788122E+00  0.26081715027E+02  0.50645907354E+02  0.00000000000E+00 0.  1.
<mgrwt>
<rscale>  0 0.91736471E+02</rscale>
<asrwt>0</asrwt>
<pdfrwt beam="1">  1        3 0.17429400E-01 0.91736471E+02</pdfrwt>
<pdfrwt beam="2">  1       -3 0.28570308E-02 0.91736471E+02</pdfrwt>
<totfact> 0.31918549E+04</totfact>
</mgrwt>
</event>
<event>
 5    1  0.5681061E+000  0.9053203E+02  0.7546771E-02  0.1301568E+00
         -1   -1    0    0    0  501 -0.00000000000E+00  0.00000000000E+00  0.51676179350E+01  0.51676179350E+01  0.00000000000E+00 0.  1.
          1   -1    0    0  501    0  0.00000000000E+00 -0.00000000000E+00 -0.39650999910E+03  0.39650999910E+03  0.00000000000E+00 0. -1.
         23    2    1    2    0    0  0.00000000000E+00  0.00000000000E+00 -0.39134238117E+03  0.40167761704E+03  0.90532031520E+02 0.  0.
        -11    1    3    3    0    0  0.23306943030E+02  0.38799260256E+02 -0.19280952855E+03  0.19805077755E+03  0.00000000000E+00 0. -1.
         11    1    3    3    0    0 -0.23306943030E+02 -0.38799260256E+02 -0.19853285262E+03  0.20362683949E+03  0.00000000000E+00 0.  1.
<mgrwt>
<rscale>  0 0.90532032E+02</rscale>
<asrwt>0</asrwt>
<pdfrwt beam="2">  1        1 0.61001541E-01 0.90532032E+02</pdfrwt>
<pdfrwt beam="1">  1       -1 0.79501811E-03 0.90532032E+02</pdfrwt>
<totfact> 0.13725839E+05</totfact>
</mgrwt>
</event>
<event>
 5    1  0.5681061E+000  0.9152348E+02  0.7546771E-02  0.1299204E+00
         -2   -1    0    0    0  501 -0.00000000000E+00  0.00000000000E+00  0.95286031811E+01  0.95286031811E+01  0.00000000000E+00 0. -1.
          2   -1    0    0  501    0  0.00000000000E+00 -0.00000000000E+00 -0.21977373460E+03  0.21977373460E+03  0.00000000000E+00 0.  1.
         23    2    1    2    0    0  0.00000000000E+00  0.00000000000E+00 -0.21024513142E+03  0.22930233778E+03  0.91523476914E+02 0.  0.
        -11    1    3    3    0    0 -0.19161057468E+02 -0.31860199995E+02 -0.38274163385E+02  0.53358504943E+02  0.00000000000E+00 0. -1.
         11    1    3    3    0    0  0.19161057468E+02  0.31860199995E+02 -0.17197096803E+03  0.17594383283E+03  0.00000000000E+00 0.  1.
<mgrwt>
<rscale>  0 0.91523477E+02</rscale>
<asrwt>0</asrwt>
<pdfrwt beam="2">  1        2 0.33811343E-01 0.91523477E+02</pdfrwt>
<pdfrwt beam="1">  1       -2 0.14659390E-02 0.91523477E+02</pdfrwt>
<totfact> 0.15845491E+05</totfact>
</mgrwt>
</event>
<event>
 5    1  0.5681061E+000  0.8774422E+02  0.7546771E-02  0.1308408E+00
          1   -1    0    0  501    0  0.00000000000E+00  0.00000000000E+00  0.65883074247E+02  0.65883074247E+02  0.00000000000E+00 0. -1.
         -1   -1    0    0    0  501 -0.00000000000E+00 -0.00000000000E+00 -0.29214816340E+02  0.29214816340E+02  0.00000000000E+00 0.  1.
         23    2    1    2    0    0  0.00000000000E+00  0.00000000000E+00  0.36668257907E+02  0.95097890587E+02  0.87744217223E+02 0.  0.
        -11    1    3    3    0    0 -0.13388127857E+02  0.25326664142E+02 -0.17678320120E+02  0.33663108685E+02  0.00000000000E+00 0.  1.
         11    1    3    3    0    0  0.13388127857E+02 -0.25326664142E+02  0.54346578027E+02  0.61434781902E+02  0.00000000000E+00 0. -1.
<mgrwt>
<rscale>  0 0.87744217E+02</rscale>
<asrwt>0</asrwt>
<pdfrwt beam="1">  1        1 0.10135858E-01 0.87744217E+02</pdfrwt>
<pdfrwt beam="2">  1       -1 0.44945871E-02 0.87744217E+02</pdfrwt>
<totfact> 0.10864871E+05</totfact>
</mgrwt>
</event>
<event>
 5    1  0.5681061E+000  0.6075150E+02  0.7546771E-02  0.1394705E+00
         -1   -1    0    0    0  501 -0.00000000000E+00  0.00000000000E+00  0.56746578170E+02  0.56746578170E+02  0.00000000000E+00 0.  1.
          1   -1    0    0  501    0  0.00000000000E+00 -0.00000000000E+00 -0.16259769241E+02  0.16259769241E+02  0.00000000000E+00 0. -1.
         23    2    1    2    0    0  0.00000000000E+00  0.00000000000E+00  0.40486808928E+02  0.73006347411E+02  0.60751502575E+02 0.  0.
        -11    1    3    3    0    0 -0.11434592269E+02  0.15849398303E+02  0.48187818659E+02  0.52000184558E+02  0.00000000000E+00 0.  1.
         11    1    3    3    0    0  0.11434592269E+02 -0.15849398303E+02 -0.77010097308E+01  0.21006162853E+02  0.00000000000E+00 0. -1.
<mgrwt>
<rscale>  0 0.60751503E+02</rscale>
<asrwt>0</asrwt>
<pdfrwt beam="2">  1        1 0.25015030E-02 0.60751503E+02</pdfrwt>
<pdfrwt beam="1">  1       -1 0.87302427E-02 0.60751503E+02</pdfrwt>
<totfact> 0.24855552E+05</totfact>
</mgrwt>
</event>
<event>
 5    1  0.5681061E+000  0.9062245E+02  0.7546771E-02  0.1301351E+00
          2   -1    0    0  501    0  0.00000000000E+00  0.00000000000E+00  0.15515370783E+02  0.15515370783E+02  0.00000000000E+00 0. -1.
         -2   -1    0    0    0  501 -0.00000000000E+00 -0.00000000000E+00 -0.13232728528E+03  0.13232728528E+03  0.00000000000E+00 0.  1.
         23    2    1    2    0    0  0.00000000000E+00  0.00000000000E+00 -0.11681191450E+03  0.14784265607E+03  0.90622445251E+02 0.  0.
        -11    1    3    3    0    0 -0.28762691179E+02  0.33559697698E+02 -0.74684255547E+02  0.86782969182E+02  0.00000000000E+00 0. -1.
         11    1    3    3    0    0  0.28762691179E+02 -0.33559697698E+02 -0.42127658953E+02  0.61059686884E+02  0.00000000000E+00 0.  1.
<mgrwt>
<rscale>  0 0.90622445E+02</rscale>
<asrwt>0</asrwt>
<pdfrwt beam="1">  1        2 0.23869802E-02 0.90622445E+02</pdfrwt>
<pdfrwt beam="2">  1       -2 0.20358043E-01 0.90622445E+02</pdfrwt>
<totfact> 0.74137689E+04</totfact>
</mgrwt>
</event>
<event>
 5    1  0.5681061E+000  0.9241975E+02  0.7546771E-02  0.1297096E+00
          1   -1    0    0  501    0  0.00000000000E+00  0.00000000000E+00  0.21525515088E+02  0.21525515088E+02  0.00000000000E+00 0. -1.
         -1   -1    0    0    0  501 -0.00000000000E+00 -0.00000000000E+00 -0.99200989169E+02  0.99200989169E+02  0.00000000000E+00 0.  1.
         23    2    1    2    0    0  0.00000000000E+00  0.00000000000E+00 -0.77675474082E+02  0.12072650426E+03  0.92419746572E+02 0.  0.
        -11    1    3    3    0    0  0.41266733656E+02 -0.18429958882E+02 -0.51417855751E+02  0.68457304804E+02  0.00000000000E+00 0.  1.
         11    1    3    3    0    0 -0.41266733656E+02  0.18429958882E+02 -0.26257618331E+02  0.52269199453E+02  0.00000000000E+00 0. -1.
<mgrwt>
<rscale>  0 0.92419747E+02</rscale>
<asrwt>0</asrwt>
<pdfrwt beam="1">  1        1 0.33116178E-02 0.92419747E+02</pdfrwt>
<pdfrwt beam="2">  1       -1 0.15261690E-01 0.92419747E+02</pdfrwt>
<totfact> 0.78696618E+04</totfact>
</mgrwt>
</event>
<event>
 5    1  0.5681061E+000  0.8840675E+02  0.7546771E-02  0.1306756E+00
         -2   -1    0    0    0  501 -0.00000000000E+00  0.00000000000E+00  0.24438297935E+03  0.24438297935E+03  0.00000000000E+00 0.  1.
          2   -1    0    0  501    0  0.00000000000E+00 -0.00000000000E+00 -0.79953955160E+01  0.79953955160E+01  0.00000000000E+00 0. -1.
         23    2    1    2    0    0  0.00000000000E+00  0.00000000000E+00  0.23638758383E+03  0.25237837486E+03  0.88406754884E+02 0.  0.
        -11    1    3    3    0    0  0.75035268576E+01 -0.41047431774E+02  0.76555264940E+02  0.87188893562E+02  0.00000000000E+00 0.  1.
         11    1    3    3    0    0 -0.75035268576E+01  0.41047431774E+02  0.15983231889E+03  0.16518948130E+03  0.00000000000E+00 0. -1.
<mgrwt>
<rscale>  0 0.88406755E+02</rscale>
<asrwt>0</asrwt>
<pdfrwt beam="2">  1        2 0.12300610E-02 0.88406755E+02</pdfrwt>
<pdfrwt beam="1">  1       -2 0.37597376E-01 0.88406755E+02</pdfrwt>
<totfact> 0.61486017E+04</totfact>
</mgrwt>
</event>
<event>
 5    1  0.5681061E+000  0.9171779E+02  0.7546771E-02  0.1298744E+00
          1   -1    0    0  501    0  0.00000000000E+00  0.00000000000E+00  0.30205154687E+02  0.30205154687E+02  0.00000000000E+00 0. -1.
         -1   -1    0    0    0  501 -0.00000000000E+00 -0.00000000000E+00 -0.69625147553E+02  0.69625147553E+02  0.00000000000E+00 0.  1.
         23    2    1    2    0    0  0.00000000000E+00  0.00000000000E+00 -0.39419992866E+02  0.99830302241E+02  0.91717792210E+02 0.  0.
        -11    1    3    3    0    0 -0.10895552838E+02  0.40137792085E+02  0.13194508030E+01  0.41611252991E+02  0.00000000000E+00 0. -1.
         11    1    3    3    0    0  0.10895552838E+02 -0.40137792085E+02 -0.40739443669E+02  0.58219049250E+02  0.00000000000E+00 0.  1.
<mgrwt>
<rscale>  0 0.91717792E+02</rscale>
<asrwt>0</asrwt>
<pdfrwt beam="1">  1        1 0.46469469E-02 0.91717792E+02</pdfrwt>
<pdfrwt beam="2">  1       -1 0.10711561E-01 0.91717792E+02</pdfrwt>
<totfact> 0.85316816E+04</totfact>
</mgrwt>
</event>
<event>
 5    1  0.5681061E+000  0.9063549E+02  0.7546771E-02  0.1301320E+00
         -1   -1    0    0    0  501 -0.00000000000E+00  0.00000000000E+00  0.47629444473E+02  0.47629444473E+02  0.00000000000E+00 0.  1.
          1   -1    0    0  501    0  0.00000000000E+00 -0.00000000000E+00 -0.43118241730E+02  0.43118241730E+02  0.00000000000E+00 0. -1.
         23    2    1    2    0    0  0.00000000000E+00  0.00000000000E+00  0.45112027438E+01  0.90747686203E+02  0.90635487537E+02 0.  0.
        -11    1    3    3    0    0 -0.20663254736E+02 -0.25862083860E+02  0.33243557608E+02  0.46914300595E+02  0.00000000000E+00 0.  1.
         11    1    3    3    0    0  0.20663254736E+02  0.25862083860E+02 -0.28732354864E+02  0.43833385608E+02  0.00000000000E+00 0. -1.
<mgrwt>
<rscale>  0 0.90635488E+02</rscale>
<asrwt>0</asrwt>
<pdfrwt beam="2">  1        1 0.66335756E-02 0.90635488E+02</pdfrwt>
<pdfrwt beam="1">  1       -1 0.73276068E-02 0.90635488E+02</pdfrwt>
<totfact> 0.93248056E+04</totfact>
</mgrwt>
</event>
<event>
 5    1  0.5681061E+000  0.8729733E+02  0.7546771E-02  0.1309532E+00
          3   -1    0    0  501    0  0.00000000000E+00  0.00000000000E+00  0.13066692558E+03  0.13066692558E+03  0.00000000000E+00 0. -1.
         -3   -1    0    0    0  501 -0.00000000000E+00 -0.00000000000E+00 -0.14580630320E+02  0.14580630320E+02  0.00000000000E+00 0.  1.
         23    2    1    2    0    0  0.00000000000E+00  0.00000000000E+00  0.11608629526E+03  0.14524755590E+03  0.87297334138E+02 0.  0.
        -11    1    3    3    0    0  0.40898804214E+02 -0.67343929921E+01  0.35282041125E+02  0.54432404513E+02  0.00000000000E+00 0.  1.
         11    1    3    3    0    0 -0.40898804214E+02  0.67343929921E+01  0.80804254136E+02  0.90815151387E+02  0.00000000000E+00 0. -1.
<mgrwt>
<rscale>  0 0.87297334E+02</rscale>
<asrwt>0</asrwt>
<pdfrwt beam="1">  1        3 0.20102603E-01 0.87297334E+02</pdfrwt>
<pdfrwt beam="2">  1       -3 0.22431740E-02 0.87297334E+02</pdfrwt>
<totfact> 0.35534065E+04</totfact>
</mgrwt>
</event>
<event>
 5    1  0.5681061E+000  0.8882959E+02  0.7546771E-02  0.1305711E+00
         -2   -1    0    0    0  501 -0.00000000000E+00  0.00000000000E+00  0.69398309392E+02  0.69398309392E+02  0.00000000000E+00 0.  1.
          2   -1    0    0  501    0  0.00000000000E+00 -0.00000000000E+00 -0.28425388701E+02  0.28425388701E+02  0.00000000000E+00 0. -1.
         23    2    1    2    0    0  0.00000000000E+00  0.00000000000E+00  0.40972920692E+02  0.97823698093E+02  0.88829587856E+02 0.  0.
        -11    1    3    3    0    0 -0.20870105669E+02  0.37980402993E+02  0.31197599578E+02  0.53398151107E+02  0.00000000000E+00 0. -1.
         11    1    3    3    0    0  0.20870105669E+02 -0.37980402993E+02  0.97753211131E+01  0.44425546986E+02  0.00000000000E+00 0.  1.
<mgrwt>
<rscale>  0 0.88829588E+02</rscale>
<asrwt>0</asrwt>
<pdfrwt beam="2">  1        2 0.43731368E-02 0.88829588E+02</pdfrwt>
<pdfrwt beam="1">  1       -2 0.10676663E-01 0.88829588E+02</pdfrwt>
<totfact> 0.94218711E+04</totfact>
</mgrwt>
</event>
<event>
 5    1  0.5681061E+000  0.8091339E+02  0.7546771E-02  0.1326479E+00
          1   -1    0    0  501    0  0.00000000000E+00  0.00000000000E+00  0.90560970225E+02  0.90560970225E+02  0.00000000000E+00 0. -1.
         -1   -1    0    0    0  501 -0.00000000000E+00 -0.00000000000E+00 -0.18073393933E+02  0.18073393933E+02  0.00000000000E+00 0.  1.
         23    2    1    2    0    0  0.00000000000E+00  0.00000000000E+00  0.72487576292E+02  0.10863436416E+03  0.80913388011E+02 0.  0.
        -11    1    3    3    0    0 -0.73867145264E+01 -0.30596477948E+02  0.21185865617E+01  0.31546733957E+02  0.00000000000E+00 0.  1.
         11    1    3    3    0    0  0.73867145264E+01  0.30596477948E+02  0.70368989731E+02  0.77087630201E+02  0.00000000000E+00 0. -1.
<mgrwt>
<rscale>  0 0.80913388E+02</rscale>
<asrwt>0</asrwt>
<pdfrwt beam="1">  1        1 0.13932457E-01 0.80913388E+02</pdfrwt>
<pdfrwt beam="2">  1       -1 0.27805222E-02 0.80913388E+02</pdfrwt>
<totfact> 0.14205082E+05</totfact>
</mgrwt>
</event>
<event>
 5    1  0.5681061E+000  0.8973803E+02  0.7546771E-02  0.1303487E+00
          1   -1    0    0  501    0  0.00000000000E+00  0.00000000000E+00  0.59785060297E+02  0.59785060297E+02  0.00000000000E+00 0. -1.
         -1   -1    0    0    0  501 -0.00000000000E+00 -0.00000000000E+00 -0.33674442213E+02  0.33674442213E+02  0.00000000000E+00 0.  1.
         23    2    1    2    0    0  0.00000000000E+00  0.00000000000E+00  0.26110618084E+02  0.93459502510E+02  0.89738031139E+02 0.  0.
        -11    1    3    3    0    0 -0.21810888006E+01  0.18465482113E+02  0.55583754497E+02  0.58611303876E+02  0.00000000000E+00 0. -1.
         11    1    3    3    0    0  0.21810888006E+01 -0.18465482113E+02 -0.29473136413E+02  0.34848198634E+02  0.00000000000E+00 0.  1.
<mgrwt>
<rscale>  0 0.89738031E+02</rscale>
<asrwt>0</asrwt>
<pdfrwt beam="1">  1        1 0.91977016E-02 0.89738031E+02</pdfrwt>
<pdfrwt beam="2">  1       -1 0.51806834E-02 0.89738031E+02</pdfrwt>
<totfact> 0.10065553E+05</totfact>
</mgrwt>
</event>
<event>
 5    1  0.5681061E+000  0.9081186E+02  0.7546771E-02  0.1300897E+00
          2   -1    0    0  501    0  0.00000000000E+00  0.00000000000E+00  0.26108524486E+03  0.26108524486E+03  0.00000000000E+00 0. -1.
         -2   -1    0    0    0  501 -0.00000000000E+00 -0.00000000000E+00 -0.78966495622E+01  0.78966495622E+01  0.00000000000E+00 0.  1.
         23    2    1    2    0    0  0.00000000000E+00  0.00000000000E+00  0.25318859530E+03  0.26898189443E+03  0.90811864523E+02 0.  0.
        -11    1    3    3    0    0 -0.19333730329E+02  0.32087000327E+02  0.50596279444E+02  0.62955160328E+02  0.00000000000E+00 0.  1.
         11    1    3    3    0    0  0.19333730329E+02 -0.32087000327E+02  0.20259231586E+03  0.20602673410E+03  0.00000000000E+00 0. -1.
<mgrwt>
<rscale>  0 0.90811865E+02</rscale>
<asrwt>0</asrwt>
<pdfrwt beam="1">  1        2 0.40166954E-01 0.90811865E+02</pdfrwt>
<pdfrwt beam="2">  1       -2 0.12148694E-02 0.90811865E+02</pdfrwt>
<totfact> 0.17242644E+05</totfact>
</mgrwt>
</event>
<event>
 5    1  0.5681061E+000  0.9028413E+02  0.7546771E-02  0.1302165E+00
         -2   -1    0    0    0  501 -0.00000000000E+00  0.00000000000E+00  0.11551924084E+02  0.11551924084E+02  0.00000000000E+00 0.  1.
          2   -1    0    0  501    0  0.00000000000E+00 -0.00000000000E+00 -0.17640405220E+03  0.17640405220E+03  0.00000000000E+00 0. -1.
         23    2    1    2    0    0  0.00000000000E+00  0.00000000000E+00 -0.16485212811E+03  0.18795597628E+03  0.90284134136E+02 0.  0.
        -11    1    3    3    0    0 -0.23500709339E+02 -0.25554855656E+02 -0.14249218413E+03  0.14666068500E+03  0.00000000000E+00 0. -1.
         11    1    3    3    0    0  0.23500709339E+02  0.25554855656E+02 -0.22359943983E+02  0.41295291280E+02  0.00000000000E+00 0.  1.
<mgrwt>
<rscale>  0 0.90284134E+02</rscale>
<asrwt>0</asrwt>
<pdfrwt beam="2">  1        2 0.27139087E-01 0.90284134E+02</pdfrwt>
<pdfrwt beam="1">  1       -2 0.17772189E-02 0.90284134E+02</pdfrwt>
<totfact> 0.15186392E+05</totfact>
</mgrwt>
</event>
<event>
 5    1  0.5681061E+000  0.9271604E+02  0.7546771E-02  0.1296405E+00
          1   -1    0    0  501    0  0.00000000000E+00  0.00000000000E+00  0.76605479401E+02  0.76605479401E+02  0.00000000000E+00 0. -1.
         -1   -1    0    0    0  501 -0.00000000000E+00 -0.00000000000E+00 -0.28053682537E+02  0.28053682537E+02  0.00000000000E+00 0.  1.
         23    2    1    2    0    0  0.00000000000E+00  0.00000000000E+00  0.48551796864E+02  0.10465916194E+03  0.92716035284E+02 0.  0.
        -11    1    3    3    0    0 -0.25046279107E+02 -0.34554403942E+02  0.38402215400E+01  0.42849390082E+02  0.00000000000E+00 0.  1.
         11    1    3    3    0    0  0.25046279107E+02  0.34554403942E+02  0.44711575324E+02  0.61809771856E+02  0.00000000000E+00 0. -1.
<mgrwt>
<rscale>  0 0.92716035E+02</rscale>
<asrwt>0</asrwt>
<pdfrwt beam="1">  1        1 0.11785458E-01 0.92716035E+02</pdfrwt>
<pdfrwt beam="2">  1       -1 0.43159512E-02 0.92716035E+02</pdfrwt>
<totfact> 0.95550231E+04</totfact>
</mgrwt>
</event>
<event>
 5    1  0.5681061E+000  0.9132456E+02  0.7546771E-02  0.1299675E+00
         -3   -1    0    0    0  501 -0.00000000000E+00  0.00000000000E+00  0.60438292401E+02  0.60438292401E+02  0.00000000000E+00 0.  1.
          3   -1    0    0  501    0  0.00000000000E+00 -0.00000000000E+00 -0.34498717744E+02  0.34498717744E+02  0.00000000000E+00 0. -1.
         23    2    1    2    0    0  0.00000000000E+00  0.00000000000E+00  0.25939574657E+02  0.94937010144E+02  0.91324555086E+02 0.  0.
        -11    1    3    3    0    0  0.21230971709E+02 -0.48606975454E+01  0.54690366919E+02  0.58867790634E+02  0.00000000000E+00 0.  1.
         11    1    3    3    0    0 -0.21230971709E+02  0.48606975454E+01 -0.28750792262E+02  0.36069219510E+02  0.00000000000E+00 0. -1.
<mgrwt>
<rscale>  0 0.91324555E+02</rscale>
<asrwt>0</asrwt>
<pdfrwt beam="2">  1        3 0.53074951E-02 0.91324555E+02</pdfrwt>
<pdfrwt beam="1">  1       -3 0.92981988E-02 0.91324555E+02</pdfrwt>
<totfact> 0.34897665E+04</totfact>
</mgrwt>
</event>
<event>
 5    1  0.5681061E+000  0.9001497E+02  0.7546771E-02  0.1302815E+00
          2   -1    0    0  501    0  0.00000000000E+00  0.00000000000E+00  0.32387735020E+02  0.32387735020E+02  0.00000000000E+00 0. -1.
         -2   -1    0    0    0  501 -0.00000000000E+00 -0.00000000000E+00 -0.62544466292E+02  0.62544466292E+02  0.00000000000E+00 0.  1.
         23    2    1    2    0    0  0.00000000000E+00  0.00000000000E+00 -0.30156731272E+02  0.94932201312E+02  0.90014967671E+02 0.  0.
        -11    1    3    3    0    0  0.16658856094E+01 -0.37205674628E+02 -0.41730106894E+02  0.55932452304E+02  0.00000000000E+00 0.  1.
         11    1    3    3    0    0 -0.16658856094E+01  0.37205674628E+02  0.11573375622E+02  0.38999749007E+02  0.00000000000E+00 0. -1.
<mgrwt>
<rscale>  0 0.90014968E+02</rscale>
<asrwt>0</asrwt>
<pdfrwt beam="1">  1        2 0.49827285E-02 0.90014968E+02</pdfrwt>
<pdfrwt beam="2">  1       -2 0.96222255E-02 0.90014968E+02</pdfrwt>
<totfact> 0.93751631E+04</totfact>
</mgrwt>
</event>
<event>
 5    1  0.5681061E+000  0.9100113E+02  0.7546771E-02  0.1300445E+00
          1   -1    0    0  501    0  0.00000000000E+00  0.00000000000E+00  0.32265897058E+02  0.32265897058E+02  0.00000000000E+00 0. -1.
         -1   -1    0    0    0  501 -0.00000000000E+00 -0.00000000000E+00 -0.64163765999E+02  0.64163765999E+02  0.00000000000E+00 0.  1.
         23    2    1    2    0    0  0.00000000000E+00  0.00000000000E+00 -0.31897868942E+02  0.96429663057E+02  0.91001131170E+02 0.  0.
        -11    1    3    3    0    0  0.37910423938E+02 -0.23043652411E+02 -0.52421701112E+01  0.44673151972E+02  0.00000000000E+00 0. -1.
         11    1    3    3    0    0 -0.37910423938E+02  0.23043652411E+02 -0.26655698830E+02  0.51756511085E+02  0.00000000000E+00 0.  1.
<mgrwt>
<rscale>  0 0.91001131E+02</rscale>
<asrwt>0</asrwt>
<pdfrwt beam="1">  1        1 0.49639842E-02 0.91001131E+02</pdfrwt>
<pdfrwt beam="2">  1       -1 0.98713486E-02 0.91001131E+02</pdfrwt>
<totfact> 0.88183629E+04</totfact>
</mgrwt>
</event>
<event>
 5    1  0.5681061E+000  0.9123355E+02  0.7546771E-02  0.1299892E+00
         -1   -1    0    0    0  501 -0.00000000000E+00  0.00000000000E+00  0.20907498563E+02  0.20907498563E+02  0.00000000000E+00 0.  1.
          1   -1    0    0  501    0  0.00000000000E+00 -0.00000000000E+00 -0.99528416489E+02  0.99528416489E+02  0.00000000000E+00 0. -1.
         23    2    1    2    0    0  0.00000000000E+00  0.00000000000E+00 -0.78620917926E+02  0.12043591505E+03  0.91233551389E+02 0.  0.
        -11    1    3    3    0    0  0.11276943013E+02 -0.42685080478E+02 -0.54460089759E+02  0.70107680861E+02  0.00000000000E+00 0.  1.
         11    1    3    3    0    0 -0.11276943013E+02  0.42685080478E+02 -0.24160828167E+02  0.50328234192E+02  0.00000000000E+00 0. -1.
<mgrwt>
<rscale>  0 0.91233551E+02</rscale>
<asrwt>0</asrwt>
<pdfrwt beam="2">  1        1 0.15312064E-01 0.91233551E+02</pdfrwt>
<pdfrwt beam="1">  1       -1 0.32165383E-02 0.91233551E+02</pdfrwt>
<totfact> 0.10419275E+05</totfact>
</mgrwt>
</event>
<event>
 5    1  0.5681061E+000  0.9330376E+02  0.7546771E-02  0.1295043E+00
         -1   -1    0    0    0  501 -0.00000000000E+00  0.00000000000E+00  0.31993251532E+02  0.31993251532E+02  0.00000000000E+00 0.  1.
          1   -1    0    0  501    0  0.00000000000E+00 -0.00000000000E+00 -0.68026784554E+02  0.68026784554E+02  0.00000000000E+00 0. -1.
         23    2    1    2    0    0  0.00000000000E+00  0.00000000000E+00 -0.36033533022E+02  0.10002003609E+03  0.93303762607E+02 0.  0.
        -11    1    3    3    0    0  0.21143532197E+02  0.40579366179E+02 -0.82703186934E+01  0.46498732075E+02  0.00000000000E+00 0.  1.
         11    1    3    3    0    0 -0.21143532197E+02 -0.40579366179E+02 -0.27763214328E+02  0.53521304011E+02  0.00000000000E+00 0. -1.
<mgrwt>
<rscale>  0 0.93303763E+02</rscale>
<asrwt>0</asrwt>
<pdfrwt beam="2">  1        1 0.10465659E-01 0.93303763E+02</pdfrwt>
<pdfrwt beam="1">  1       -1 0.49220387E-02 0.93303763E+02</pdfrwt>
<totfact> 0.92159428E+04</totfact>
</mgrwt>
</event>
<event>
 5    1  0.5681061E+000  0.9057288E+02  0.7546771E-02  0.1301470E+00
          2   -1    0    0  501    0  0.00000000000E+00  0.00000000000E+00  0.37344690187E+02  0.37344690187E+02  0.00000000000E+00 0. -1.
         -2   -1    0    0    0  501 -0.00000000000E+00 -0.00000000000E+00 -0.54917087570E+02  0.54917087570E+02  0.00000000000E+00 0.  1.
         23    2    1    2    0    0  0.00000000000E+00  0.00000000000E+00 -0.17572397383E+02  0.92261777757E+02  0.90572879412E+02 0.  0.
        -11    1    3    3    0    0  0.34831185245E+02  0.85613503412E+01  0.19376272148E+02  0.40766997775E+02  0.00000000000E+00 0. -1.
         11    1    3    3    0    0 -0.34831185245E+02 -0.85613503412E+01 -0.36948669531E+02  0.51494779982E+02  0.00000000000E+00 0.  1.
<mgrwt>
<rscale>  0 0.90572879E+02</rscale>
<asrwt>0</asrwt>
<pdfrwt beam="1">  1        2 0.57453370E-02 0.90572879E+02</pdfrwt>
<pdfrwt beam="2">  1       -2 0.84487827E-02 0.90572879E+02</pdfrwt>
<totfact> 0.95534602E+04</totfact>
</mgrwt>
</event>
<event>
 5    1  0.5681061E+000  0.9137417E+02  0.7546771E-02  0.1299558E+00
         -2   -1    0    0    0  501 -0.00000000000E+00  0.00000000000E+00  0.11927399263E+02  0.11927399263E+02  0.00000000000E+00 0.  1.
          2   -1    0    0  501    0  0.00000000000E+00 -0.00000000000E+00 -0.17500122727E+03  0.17500122727E+03  0.00000000000E+00 0. -1.
         23    2    1    2    0    0  0.00000000000E+00  0.00000000000E+00 -0.16307382801E+03  0.18692862654E+03  0.91374165041E+02 0.  0.
        -11    1    3    3    0    0 -0.37409837570E+02  0.11766881870E+01 -0.13513511274E+03  0.14022260601E+03  0.00000000000E+00 0. -1.
         11    1    3    3    0    0  0.37409837570E+02 -0.11766881870E+01 -0.27938715269E+02  0.46706020521E+02  0.00000000000E+00 0.  1.
<mgrwt>
<rscale>  0 0.91374165E+02</rscale>
<asrwt>0</asrwt>
<pdfrwt beam="2">  1        2 0.26923265E-01 0.91374165E+02</pdfrwt>
<pdfrwt beam="1">  1       -2 0.18349845E-02 0.91374165E+02</pdfrwt>
<totfact> 0.14661075E+05</totfact>
</mgrwt>
</event>
<event>
 5    1  0.5681061E+000  0.8928402E+02  0.7546771E-02  0.1304595E+00
         -4   -1    0    0    0  501 -0.00000000000E+00  0.00000000000E+00  0.21897781466E+03  0.21897781466E+03  0.00000000000E+00 0.  1.
          4   -1    0    0  501    0  0.00000000000E+00 -0.00000000000E+00 -0.91009634162E+01  0.91009634162E+01  0.00000000000E+00 0. -1.
         23    2    1    2    0    0  0.00000000000E+00  0.00000000000E+00  0.20987685124E+03  0.22807877807E+03  0.89284020522E+02 0.  0.
        -11    1    3    3    0    0  0.38459973835E+02 -0.46919889842E+01  0.16158480611E+03  0.16616508031E+03  0.00000000000E+00 0.  1.
         11    1    3    3    0    0 -0.38459973835E+02  0.46919889842E+01  0.48292045127E+02  0.61913697762E+02  0.00000000000E+00 0. -1.
<mgrwt>
<rscale>  0 0.89284021E+02</rscale>
<asrwt>0</asrwt>
<pdfrwt beam="2">  1        4 0.14001484E-02 0.89284021E+02</pdfrwt>
<pdfrwt beam="1">  1       -4 0.33688891E-01 0.89284021E+02</pdfrwt>
<totfact> 0.21432214E+04</totfact>
</mgrwt>
</event>
<event>
 5    1  0.5681061E+000  0.9084226E+02  0.7546771E-02  0.1300825E+00
         -2   -1    0    0    0  501 -0.00000000000E+00  0.00000000000E+00  0.43186246737E+02  0.43186246737E+02  0.00000000000E+00 0.  1.
          2   -1    0    0  501    0  0.00000000000E+00 -0.00000000000E+00 -0.47771670496E+02  0.47771670496E+02  0.00000000000E+00 0. -1.
         23    2    1    2    0    0  0.00000000000E+00  0.00000000000E+00 -0.45854237592E+01  0.90957917233E+02  0.90842262171E+02 0.  0.
        -11    1    3    3    0    0 -0.21359496547E+02  0.24112341243E+02  0.29770644063E+02  0.43862561951E+02  0.00000000000E+00 0.  1.
         11    1    3    3    0    0  0.21359496547E+02 -0.24112341243E+02 -0.34356067822E+02  0.47095355282E+02  0.00000000000E+00 0. -1.
<mgrwt>
<rscale>  0 0.90842262E+02</rscale>
<asrwt>0</asrwt>
<pdfrwt beam="2">  1        2 0.73494878E-02 0.90842262E+02</pdfrwt>
<pdfrwt beam="1">  1       -2 0.66440380E-02 0.90842262E+02</pdfrwt>
<totfact> 0.10093736E+05</totfact>
</mgrwt>
</event>
<event>
 5    1  0.5681061E+000  0.9117305E+02  0.7546771E-02  0.1300036E+00
          1   -1    0    0  501    0  0.00000000000E+00  0.00000000000E+00  0.29380092698E+02  0.29380092698E+02  0.00000000000E+00 0. -1.
         -1   -1    0    0    0  501 -0.00000000000E+00 -0.00000000000E+00 -0.70732624144E+02  0.70732624144E+02  0.00000000000E+00 0.  1.
         23    2    1    2    0    0  0.00000000000E+00  0.00000000000E+00 -0.41352531445E+02  0.10011271684E+03  0.91173045450E+02 0.  0.
        -11    1    3    3    0    0  0.45180448192E+02 -0.30852637086E+01 -0.14934882898E+02  0.47684824401E+02  0.00000000000E+00 0. -1.
         11    1    3    3    0    0 -0.45180448192E+02  0.30852637086E+01 -0.26417648548E+02  0.52427892441E+02  0.00000000000E+00 0.  1.
<mgrwt>
<rscale>  0 0.91173045E+02</rscale>
<asrwt>0</asrwt>
<pdfrwt beam="1">  1        1 0.45200143E-02 0.91173045E+02</pdfrwt>
<pdfrwt beam="2">  1       -1 0.10881942E-01 0.91173045E+02</pdfrwt>
<totfact> 0.86402624E+04</totfact>
</mgrwt>
</event>
<event>
 5    1  0.5681061E+000  0.8985433E+02  0.7546771E-02  0.1303205E+00
          2   -1    0    0  501    0  0.00000000000E+00  0.00000000000E+00  0.24685944968E+03  0.24685944968E+03  0.00000000000E+00 0. -1.
         -2   -1    0    0    0  501 -0.00000000000E+00 -0.00000000000E+00 -0.81765159638E+01  0.81765159638E+01  0.00000000000E+00 0.  1.
         23    2    1    2    0    0  0.00000000000E+00  0.00000000000E+00  0.23868293372E+03  0.25503596565E+03  0.89854331696E+02 0.  0.
        -11    1    3    3    0    0  0.43520901184E+02  0.90081607655E+01  0.10067864612E+03  0.11005183136E+03  0.00000000000E+00 0. -1.
         11    1    3    3    0    0 -0.43520901184E+02 -0.90081607655E+01  0.13800428760E+03  0.14498413429E+03  0.00000000000E+00 0.  1.
<mgrwt>
<rscale>  0 0.89854332E+02</rscale>
<asrwt>0</asrwt>
<pdfrwt beam="1">  1        2 0.37978371E-01 0.89854332E+02</pdfrwt>
<pdfrwt beam="2">  1       -2 0.12579257E-02 0.89854332E+02</pdfrwt>
<totfact> 0.17373676E+05</totfact>
</mgrwt>
</event>
<event>
 5    1  0.5681061E+000  0.9111152E+02  0.7546771E-02  0.1300182E+00
         -3   -1    0    0    0  501 -0.00000000000E+00  0.00000000000E+00  0.25639765110E+02  0.25639765110E+02  0.00000000000E+00 0.  1.
          3   -1    0    0  501    0  0.00000000000E+00 -0.00000000000E+00 -0.80941733869E+02  0.80941733869E+02  0.00000000000E+00 0. -1.
         23    2    1    2    0    0  0.00000000000E+00  0.00000000000E+00 -0.55301968759E+02  0.10658149898E+03  0.91111515057E+02 0.  0.
        -11    1    3    3    0    0  0.27213598124E+02 -0.36187809484E+02 -0.21779892237E+02  0.50244414456E+02  0.00000000000E+00 0.  1.
         11    1    3    3    0    0 -0.27213598124E+02  0.36187809484E+02 -0.33522076523E+02  0.56337084523E+02  0.00000000000E+00 0. -1.
<mgrwt>
<rscale>  0 0.91111515E+02</rscale>
<asrwt>0</asrwt>
<pdfrwt beam="2">  1        3 0.12452574E-01 0.91111515E+02</pdfrwt>
<pdfrwt beam="1">  1       -3 0.39445792E-02 0.91111515E+02</pdfrwt>
<totfact> 0.34256658E+04</totfact>
</mgrwt>
</event>
<event>
 5    1  0.5681061E+000  0.9141845E+02  0.7546771E-02  0.1299453E+00
          3   -1    0    0  501    0  0.00000000000E+00  0.00000000000E+00  0.52205772838E+02  0.52205772838E+02  0.00000000000E+00 0. -1.
         -3   -1    0    0    0  501 -0.00000000000E+00 -0.00000000000E+00 -0.40021115113E+02  0.40021115113E+02  0.00000000000E+00 0.  1.
         23    2    1    2    0    0  0.00000000000E+00  0.00000000000E+00  0.12184657725E+02  0.92226887952E+02  0.91418449874E+02 0.  0.
        -11    1    3    3    0    0  0.21729097898E+02 -0.28978520218E+02  0.34221240496E+02  0.49829726375E+02  0.00000000000E+00 0.  1.
         11    1    3    3    0    0 -0.21729097898E+02  0.28978520218E+02 -0.22036582771E+02  0.42397161577E+02  0.00000000000E+00 0. -1.
<mgrwt>
<rscale>  0 0.91418450E+02</rscale>
<asrwt>0</asrwt>
<pdfrwt beam="1">  1        3 0.80316574E-02 0.91418450E+02</pdfrwt>
<pdfrwt beam="2">  1       -3 0.61570946E-02 0.91418450E+02</pdfrwt>
<totfact> 0.35004611E+04</totfact>
</mgrwt>
</event>
<event>
 5    1  0.5681061E+000  0.8947339E+02  0.7546771E-02  0.1304132E+00
         -3   -1    0    0    0  501 -0.00000000000E+00  0.00000000000E+00  0.59507342892E+02  0.59507342892E+02  0.00000000000E+00 0.  1.
          3   -1    0    0  501    0  0.00000000000E+00 -0.00000000000E+00 -0.33632352219E+02  0.33632352219E+02  0.00000000000E+00 0. -1.
         23    2    1    2    0    0  0.00000000000E+00  0.00000000000E+00  0.25874990673E+02  0.93139695112E+02  0.89473390811E+02 0.  0.
        -11    1    3    3    0    0 -0.80176021536E+00 -0.31586511708E+02  0.45905754054E+02  0.55728707114E+02  0.00000000000E+00 0.  1.
         11    1    3    3    0    0  0.80176021536E+00  0.31586511708E+02 -0.20030763381E+02  0.37410987998E+02  0.00000000000E+00 0. -1.
<mgrwt>
<rscale>  0 0.89473391E+02</rscale>
<asrwt>0</asrwt>
<pdfrwt beam="2">  1        3 0.51742080E-02 0.89473391E+02</pdfrwt>
<pdfrwt beam="1">  1       -3 0.91549759E-02 0.89473391E+02</pdfrwt>
<totfact> 0.37039048E+04</totfact>
</mgrwt>
</event>
<event>
 5    1  0.5681061E+000  0.1011521E+03  0.7546771E-02  0.1277892E+00
          1   -1    0    0  501    0  0.00000000000E+00  0.00000000000E+00  0.16627678863E+03  0.16627678863E+03  0.00000000000E+00 0. -1.
         -1   -1    0    0    0  501 -0.00000000000E+00 -0.00000000000E+00 -0.15383609569E+02  0.15383609569E+02  0.00000000000E+00 0.  1.
         23    2    1    2    0    0  0.00000000000E+00  0.00000000000E+00  0.15089317906E+03  0.18166039820E+03  0.10115210718E+03 0.  0.
        -11    1    3    3    0    0 -0.63492840435E+01  0.42807305015E+02  0.12245556965E+03  0.12987742417E+03  0.00000000000E+00 0. -1.
         11    1    3    3    0    0  0.63492840435E+01 -0.42807305015E+02  0.28437609416E+02  0.51782974034E+02  0.00000000000E+00 0.  1.
<mgrwt>
<rscale>  0 0.10115211E+03</rscale>
<asrwt>0</asrwt>
<pdfrwt beam="1">  1        1 0.25581043E-01 0.10115211E+03</pdfrwt>
<pdfrwt beam="2">  1       -1 0.23667093E-02 0.10115211E+03</pdfrwt>
<totfact> 0.86272618E+04</totfact>
</mgrwt>
</event>
<event>
 5    1  0.5681061E+000  0.9073622E+02  0.7546771E-02  0.1301079E+00
         -1   -1    0    0    0  501 -0.00000000000E+00  0.00000000000E+00  0.20913660191E+02  0.20913660191E+02  0.00000000000E+00 0.  1.
          1   -1    0    0  501    0  0.00000000000E+00 -0.00000000000E+00 -0.98417277221E+02  0.98417277221E+02  0.00000000000E+00 0. -1.
         23    2    1    2    0    0  0.00000000000E+00  0.00000000000E+00 -0.77503617029E+02  0.11933093741E+03  0.90736221935E+02 0.  0.
        -11    1    3    3    0    0 -0.25042445012E+02 -0.37299127630E+02 -0.30442809869E+02  0.54268901287E+02  0.00000000000E+00 0.  1.
         11    1    3    3    0    0  0.25042445012E+02  0.37299127630E+02 -0.47060807160E+02  0.65062036125E+02  0.00000000000E+00 0. -1.
<mgrwt>
<rscale>  0 0.90736222E+02</rscale>
<asrwt>0</asrwt>
<pdfrwt beam="2">  1        1 0.15141120E-01 0.90736222E+02</pdfrwt>
<pdfrwt beam="1">  1       -1 0.32174862E-02 0.90736222E+02</pdfrwt>
<totfact> 0.10556015E+05</totfact>
</mgrwt>
</event>
<event>
 5    1  0.5681061E+000  0.1027744E+03  0.7546771E-02  0.1274568E+00
          1   -1    0    0  501    0  0.00000000000E+00  0.00000000000E+00  0.32832815702E+02  0.32832815702E+02  0.00000000000E+00 0. -1.
         -1   -1    0    0    0  501 -0.00000000000E+00 -0.00000000000E+00 -0.80426972840E+02  0.80426972840E+02  0.00000000000E+00 0.  1.
         23    2    1    2    0    0  0.00000000000E+00  0.00000000000E+00 -0.47594157138E+02  0.11325978854E+03  0.10277439325E+03 0.  0.
        -11    1    3    3    0    0  0.24340419411E+02 -0.44214173783E+02 -0.34441438106E+02  0.61102879140E+02  0.00000000000E+00 0.  1.
         11    1    3    3    0    0 -0.24340419411E+02  0.44214173783E+02 -0.13152719032E+02  0.52156909402E+02  0.00000000000E+00 0. -1.
<mgrwt>
<rscale>  0 0.10277439E+03</rscale>
<asrwt>0</asrwt>
<pdfrwt beam="1">  1        1 0.50512025E-02 0.10277439E+03</pdfrwt>
<pdfrwt beam="2">  1       -1 0.12373380E-01 0.10277439E+03</pdfrwt>
<totfact> 0.62214536E+04</totfact>
</mgrwt>
</event>
<event>
 5    1  0.5681061E+000  0.9109627E+02  0.7546771E-02  0.1300218E+00
         -2   -1    0    0    0  501 -0.00000000000E+00  0.00000000000E+00  0.10149083480E+02  0.10149083480E+02  0.00000000000E+00 0.  1.
          2   -1    0    0  501    0  0.00000000000E+00 -0.00000000000E+00 -0.20441577722E+03  0.20441577722E+03  0.00000000000E+00 0. -1.
         23    2    1    2    0    0  0.00000000000E+00  0.00000000000E+00 -0.19426669374E+03  0.21456486070E+03  0.91096274075E+02 0.  0.
        -11    1    3    3    0    0  0.31368443590E+02 -0.28780442368E+02 -0.13528294522E+03  0.14182301782E+03  0.00000000000E+00 0. -1.
         11    1    3    3    0    0 -0.31368443590E+02  0.28780442368E+02 -0.58983748525E+02  0.72741842884E+02  0.00000000000E+00 0.  1.
<mgrwt>
<rscale>  0 0.91096274E+02</rscale>
<asrwt>0</asrwt>
<pdfrwt beam="2">  1        2 0.31448580E-01 0.91096274E+02</pdfrwt>
<pdfrwt beam="1">  1       -2 0.15613975E-02 0.91096274E+02</pdfrwt>
<totfact> 0.15627959E+05</totfact>
</mgrwt>
</event>
<event>
 5    1  0.5681061E+000  0.9165949E+02  0.7546771E-02  0.1298882E+00
         -1   -1    0    0    0  501 -0.00000000000E+00  0.00000000000E+00  0.70081545717E+01  0.70081545717E+01  0.00000000000E+00 0.  1.
          1   -1    0    0  501    0  0.00000000000E+00 -0.00000000000E+00 -0.29970309794E+03  0.29970309794E+03  0.00000000000E+00 0. -1.
         23    2    1    2    0    0  0.00000000000E+00  0.00000000000E+00 -0.29269494337E+03  0.30671125251E+03  0.91659492383E+02 0.  0.
        -11    1    3    3    0    0  0.42861254918E+02 -0.13793608068E+02 -0.11775459649E+03  0.12606940862E+03  0.00000000000E+00 0.  1.
         11    1    3    3    0    0 -0.42861254918E+02  0.13793608068E+02 -0.17494034688E+03  0.18064184389E+03  0.00000000000E+00 0. -1.
<mgrwt>
<rscale>  0 0.91659492E+02</rscale>
<asrwt>0</asrwt>
<pdfrwt beam="2">  1        1 0.46108167E-01 0.91659492E+02</pdfrwt>
<pdfrwt beam="1">  1       -1 0.10781777E-02 0.91659492E+02</pdfrwt>
<totfact> 0.12630664E+05</totfact>
</mgrwt>
</event>
<event>
 5    1  0.5681061E+000  0.8699328E+02  0.7546771E-02  0.1310301E+00
          4   -1    0    0  501    0  0.00000000000E+00  0.00000000000E+00  0.21210305146E+02  0.21210305146E+02  0.00000000000E+00 0. -1.
         -4   -1    0    0    0  501 -0.00000000000E+00 -0.00000000000E+00 -0.89199926946E+02  0.89199926946E+02  0.00000000000E+00 0.  1.
         23    2    1    2    0    0  0.00000000000E+00  0.00000000000E+00 -0.67989621799E+02  0.11041023209E+03  0.86993279501E+02 0.  0.
        -11    1    3    3    0    0  0.22078537556E+02 -0.37197681383E+02 -0.28202511000E+02  0.51638270183E+02  0.00000000000E+00 0. -1.
         11    1    3    3    0    0 -0.22078537556E+02  0.37197681383E+02 -0.39787110800E+02  0.58771961909E+02  0.00000000000E+00 0.  1.
<mgrwt>
<rscale>  0 0.86993280E+02</rscale>
<asrwt>0</asrwt>
<pdfrwt beam="1">  1        4 0.32631238E-02 0.86993280E+02</pdfrwt>
<pdfrwt beam="2">  1       -4 0.13723066E-01 0.86993280E+02</pdfrwt>
<totfact> 0.29309503E+04</totfact>
</mgrwt>
</event>
<event>
 5    1  0.5681061E+000  0.9376782E+02  0.7546771E-02  0.1293976E+00
         -1   -1    0    0    0  501 -0.00000000000E+00  0.00000000000E+00  0.10141049558E+02  0.10141049558E+02  0.00000000000E+00 0.  1.
          1   -1    0    0  501    0  0.00000000000E+00 -0.00000000000E+00 -0.21675282173E+03  0.21675282173E+03  0.00000000000E+00 0. -1.
         23    2    1    2    0    0  0.00000000000E+00  0.00000000000E+00 -0.20661177217E+03  0.22689387129E+03  0.93767821922E+02 0.  0.
        -11    1    3    3    0    0  0.11916935044E+02 -0.44780041902E+02 -0.86053348932E+02  0.97736607041E+02  0.00000000000E+00 0.  1.
         11    1    3    3    0    0 -0.11916935044E+02  0.44780041902E+02 -0.12055842324E+03  0.12915726425E+03  0.00000000000E+00 0. -1.
<mgrwt>
<rscale>  0 0.93767822E+02</rscale>
<asrwt>0</asrwt>
<pdfrwt beam="2">  1        1 0.33346587E-01 0.93767822E+02</pdfrwt>
<pdfrwt beam="1">  1       -1 0.15601615E-02 0.93767822E+02</pdfrwt>
<totfact> 0.11156002E+05</totfact>
</mgrwt>
</event>
<event>
 5    1  0.5681061E+000  0.8884213E+02  0.7546771E-02  0.1305680E+00
          1   -1    0    0  501    0  0.00000000000E+00  0.00000000000E+00  0.11308605785E+02  0.11308605785E+02  0.00000000000E+00 0. -1.
         -1   -1    0    0    0  501 -0.00000000000E+00 -0.00000000000E+00 -0.17448932652E+03  0.17448932652E+03  0.00000000000E+00 0.  1.
         23    2    1    2    0    0  0.00000000000E+00  0.00000000000E+00 -0.16318072073E+03  0.18579793230E+03  0.88842129811E+02 0.  0.
        -11    1    3    3    0    0 -0.10734593315E+02 -0.29527575005E+02 -0.14726341262E+03  0.15057762741E+03  0.00000000000E+00 0.  1.
         11    1    3    3    0    0  0.10734593315E+02  0.29527575005E+02 -0.15917308111E+02  0.35220304894E+02  0.00000000000E+00 0. -1.
<mgrwt>
<rscale>  0 0.88842130E+02</rscale>
<asrwt>0</asrwt>
<pdfrwt beam="1">  1        1 0.17397855E-02 0.88842130E+02</pdfrwt>
<pdfrwt beam="2">  1       -1 0.26844512E-01 0.88842130E+02</pdfrwt>
<totfact> 0.77076052E+04</totfact>
</mgrwt>
</event>
<event>
 5    1  0.5681061E+000  0.9837463E+02  0.7546771E-02  0.1283751E+00
         -4   -1    0    0    0  501 -0.00000000000E+00  0.00000000000E+00  0.16188506490E+03  0.16188506490E+03  0.00000000000E+00 0.  1.
          4   -1    0    0  501    0  0.00000000000E+00 -0.00000000000E+00 -0.14945121650E+02  0.14945121650E+02  0.00000000000E+00 0. -1.
         23    2    1    2    0    0  0.00000000000E+00  0.00000000000E+00  0.14693994325E+03  0.17683018655E+03  0.98374630637E+02 0.  0.
        -11    1    3    3    0    0  0.44638657706E+02  0.20632492250E+02  0.75340159489E+02  0.89969156549E+02  0.00000000000E+00 0. -1.
         11    1    3    3    0    0 -0.44638657706E+02 -0.20632492250E+02  0.71599783760E+02  0.86861030000E+02  0.00000000000E+00 0.  1.
<mgrwt>
<rscale>  0 0.98374631E+02</rscale>
<asrwt>0</asrwt>
<pdfrwt beam="2">  1        4 0.22992496E-02 0.98374631E+02</pdfrwt>
<pdfrwt beam="1">  1       -4 0.24905393E-01 0.98374631E+02</pdfrwt>
<totfact> 0.18239420E+04</totfact>
</mgrwt>
</event>
<event>
 5    1  0.5681061E+000  0.9207827E+02  0.7546771E-02  0.1297896E+00
          1   -1    0    0  501    0  0.00000000000E+00  0.00000000000E+00  0.46764750137E+02  0.46764750137E+02  0.00000000000E+00 0. -1.
         -1   -1    0    0    0  501 -0.00000000000E+00 -0.00000000000E+00 -0.45324773926E+02  0.45324773926E+02  0.00000000000E+00 0.  1.
         23    2    1    2    0    0  0.00000000000E+00  0.00000000000E+00  0.14399762110E+01  0.92089524063E+02  0.92078265138E+02 0.  0.
        -11    1    3    3    0    0  0.43191454438E+02 -0.53638526741E+01  0.15732788764E+02  0.46279512684E+02  0.00000000000E+00 0. -1.
         11    1    3    3    0    0 -0.43191454438E+02  0.53638526741E+01 -0.14292812553E+02  0.45810011380E+02  0.00000000000E+00 0.  1.
<mgrwt>
<rscale>  0 0.92078265E+02</rscale>
<asrwt>0</asrwt>
<pdfrwt beam="1">  1        1 0.71945770E-02 0.92078265E+02</pdfrwt>
<pdfrwt beam="2">  1       -1 0.69730421E-02 0.92078265E+02</pdfrwt>
<totfact> 0.90297180E+04</totfact>
</mgrwt>
</event>
<event>
 5    1  0.5681061E+000  0.9126450E+02  0.7546771E-02  0.1299818E+00
         -1   -1    0    0    0  501 -0.00000000000E+00  0.00000000000E+00  0.98083670408E+01  0.98083670408E+01  0.00000000000E+00 0.  1.
          1   -1    0    0  501    0  0.00000000000E+00 -0.00000000000E+00 -0.21229856774E+03  0.21229856774E+03  0.00000000000E+00 0. -1.
         23    2    1    2    0    0  0.00000000000E+00  0.00000000000E+00 -0.20249020070E+03  0.22210693478E+03  0.91264500757E+02 0.  0.
        -11    1    3    3    0    0  0.13489984177E+02  0.42641169533E+02 -0.12329000185E+03  0.13115133842E+03  0.00000000000E+00 0.  1.
         11    1    3    3    0    0 -0.13489984177E+02 -0.42641169533E+02 -0.79200198847E+02  0.90955596363E+02  0.00000000000E+00 0. -1.
<mgrwt>
<rscale>  0 0.91264501E+02</rscale>
<asrwt>0</asrwt>
<pdfrwt beam="2">  1        1 0.32661315E-01 0.91264501E+02</pdfrwt>
<pdfrwt beam="1">  1       -1 0.15089797E-02 0.91264501E+02</pdfrwt>
<totfact> 0.11947964E+05</totfact>
</mgrwt>
</event>
<event>
 5    1  0.5681061E+000  0.9147670E+02  0.7546771E-02  0.1299315E+00
          3   -1    0    0  501    0  0.00000000000E+00  0.00000000000E+00  0.78368229691E+02  0.78368229691E+02  0.00000000000E+00 0. -1.
         -3   -1    0    0    0  501 -0.00000000000E+00 -0.00000000000E+00 -0.26694448614E+02  0.26694448614E+02  0.00000000000E+00 0.  1.
         23    2    1    2    0    0  0.00000000000E+00  0.00000000000E+00  0.51673781077E+02  0.10506267830E+03  0.91476700431E+02 0.  0.
        -11    1    3    3    0    0 -0.11959928835E+02 -0.24117312741E+02 -0.16632085577E+02  0.31643497630E+02  0.00000000000E+00 0.  1.
         11    1    3    3    0    0  0.11959928835E+02  0.24117312741E+02  0.68305866654E+02  0.73419180675E+02  0.00000000000E+00 0. -1.
<mgrwt>
<rscale>  0 0.91476700E+02</rscale>
<asrwt>0</asrwt>
<pdfrwt beam="1">  1        3 0.12056651E-01 0.91476700E+02</pdfrwt>
<pdfrwt beam="2">  1       -3 0.41068383E-02 0.91476700E+02</pdfrwt>
<totfact> 0.33994262E+04</totfact>
</mgrwt>
</event>
<event>
 5    1  0.5681061E+000  0.8857006E+02  0.7546771E-02  0.1306352E+00
         -2   -1    0    0    0  501 -0.00000000000E+00  0.00000000000E+00  0.59394046945E+01  0.59394046945E+01  0.00000000000E+00 0.  1.
          2   -1    0    0  501    0  0.00000000000E+00 -0.00000000000E+00 -0.33019538139E+03  0.33019538139E+03  0.00000000000E+00 0. -1.
         23    2    1    2    0    0  0.00000000000E+00  0.00000000000E+00 -0.32425597670E+03  0.33613478609E+03  0.88570062625E+02 0.  0.
        -11    1    3    3    0    0 -0.33235052612E+02 -0.28619434834E+02 -0.13888047038E+03  0.14564142894E+03  0.00000000000E+00 0. -1.
         11    1    3    3    0    0  0.33235052612E+02  0.28619434834E+02 -0.18537550632E+03  0.19049335714E+03  0.00000000000E+00 0.  1.
<mgrwt>
<rscale>  0 0.88570063E+02</rscale>
<asrwt>0</asrwt>
<pdfrwt beam="2">  1        2 0.50799304E-01 0.88570063E+02</pdfrwt>
<pdfrwt beam="1">  1       -2 0.91375430E-03 0.88570063E+02</pdfrwt>
<totfact> 0.20108691E+05</totfact>
</mgrwt>
</event>
<event>
 5    1  0.5681061E+000  0.9032905E+02  0.7546771E-02  0.1302057E+00
          2   -1    0    0  501    0  0.00000000000E+00  0.00000000000E+00  0.10990761850E+03  0.10990761850E+03  0.00000000000E+00 0. -1.
         -2   -1    0    0    0  501 -0.00000000000E+00 -0.00000000000E+00 -0.18559534508E+02  0.18559534508E+02  0.00000000000E+00 0.  1.
         23    2    1    2    0    0  0.00000000000E+00  0.00000000000E+00  0.91348083994E+02  0.12846715301E+03  0.90329048225E+02 0.  0.
        -11    1    3    3    0    0  0.18781465319E+02  0.27926428973E+02  0.28371976624E+01  0.33773933222E+02  0.00000000000E+00 0.  1.
         11    1    3    3    0    0 -0.18781465319E+02 -0.27926428973E+02  0.88510886331E+02  0.94693219788E+02  0.00000000000E+00 0. -1.
<mgrwt>
<rscale>  0 0.90329048E+02</rscale>
<asrwt>0</asrwt>
<pdfrwt beam="1">  1        2 0.16908864E-01 0.90329048E+02</pdfrwt>
<pdfrwt beam="2">  1       -2 0.28553131E-02 0.90329048E+02</pdfrwt>
<totfact> 0.12957848E+05</totfact>
</mgrwt>
</event>
<event>
 5    1  0.5681061E+000  0.9075553E+02  0.7546771E-02  0.1301032E+00
          1   -1    0    0  501    0  0.00000000000E+00  0.00000000000E+00  0.37181043850E+02  0.37181043850E+02  0.00000000000E+00 0. -1.
         -1   -1    0    0    0  501 -0.00000000000E+00 -0.00000000000E+00 -0.55381489603E+02  0.55381489603E+02  0.00000000000E+00 0.  1.
         23    2    1    2    0    0  0.00000000000E+00  0.00000000000E+00 -0.18200445753E+02  0.92562533453E+02  0.90755530816E+02 0.  0.
        -11    1    3    3    0    0  0.44640071090E+02 -0.40668595969E+01 -0.18980141748E+01  0.44865106171E+02  0.00000000000E+00 0.  1.
         11    1    3    3    0    0 -0.44640071090E+02  0.40668595969E+01 -0.16302431578E+02  0.47697427282E+02  0.00000000000E+00 0. -1.
<mgrwt>
<rscale>  0 0.90755531E+02</rscale>
<asrwt>0</asrwt>
<pdfrwt beam="1">  1        1 0.57201606E-02 0.90755531E+02</pdfrwt>
<pdfrwt beam="2">  1       -1 0.85202291E-02 0.90755531E+02</pdfrwt>
<totfact> 0.90841554E+04</totfact>
</mgrwt>
</event>
<event>
 5    1  0.5681061E+000  0.9194460E+02  0.7546771E-02  0.1298210E+00
         -3   -1    0    0    0  501 -0.00000000000E+00  0.00000000000E+00  0.30749777751E+03  0.30749777751E+03  0.00000000000E+00 0.  1.
          3   -1    0    0  501    0  0.00000000000E+00 -0.00000000000E+00 -0.68730652608E+01  0.68730652608E+01  0.00000000000E+00 0. -1.
         23    2    1    2    0    0  0.00000000000E+00  0.00000000000E+00  0.30062471225E+03  0.31437084277E+03  0.91944598370E+02 0.  0.
        -11    1    3    3    0    0  0.13185201386E+02  0.43479802290E+02  0.17427302927E+03  0.18009839386E+03  0.00000000000E+00 0.  1.
         11    1    3    3    0    0 -0.13185201386E+02 -0.43479802290E+02  0.12635168298E+03  0.13427244891E+03  0.00000000000E+00 0. -1.
<mgrwt>
<rscale>  0 0.91944598E+02</rscale>
<asrwt>0</asrwt>
<pdfrwt beam="2">  1        3 0.10573949E-02 0.91944598E+02</pdfrwt>
<pdfrwt beam="1">  1       -3 0.47307340E-01 0.91944598E+02</pdfrwt>
<totfact> 0.22953847E+04</totfact>
</mgrwt>
</event>
<event>
 5    1  0.5681061E+000  0.9015312E+02  0.7546771E-02  0.1302481E+00
          1   -1    0    0  501    0  0.00000000000E+00  0.00000000000E+00  0.23749779711E+02  0.23749779711E+02  0.00000000000E+00 0. -1.
         -1   -1    0    0    0  501 -0.00000000000E+00 -0.00000000000E+00 -0.85554317849E+02  0.85554317849E+02  0.00000000000E+00 0.  1.
         23    2    1    2    0    0  0.00000000000E+00  0.00000000000E+00 -0.61804538138E+02  0.10930409756E+03  0.90153118687E+02 0.  0.
        -11    1    3    3    0    0  0.33967014128E+02 -0.85877145224E+01 -0.65288837173E+02  0.74095473201E+02  0.00000000000E+00 0.  1.
         11    1    3    3    0    0 -0.33967014128E+02  0.85877145224E+01  0.34842990351E+01  0.35208624359E+02  0.00000000000E+00 0. -1.
<mgrwt>
<rscale>  0 0.90153119E+02</rscale>
<asrwt>0</asrwt>
<pdfrwt beam="1">  1        1 0.36538122E-02 0.90153119E+02</pdfrwt>
<pdfrwt beam="2">  1       -1 0.13162203E-01 0.90153119E+02</pdfrwt>
<totfact> 0.86139422E+04</totfact>
</mgrwt>
</event>
<event>
 5    1  0.5681061E+000  0.9050409E+02  0.7546771E-02  0.1301636E+00
          1   -1    0    0  501    0  0.00000000000E+00  0.00000000000E+00  0.77364547941E+02  0.77364547941E+02  0.00000000000E+00 0.  1.
         -1   -1    0    0    0  501 -0.00000000000E+00 -0.00000000000E+00 -0.26468808543E+02  0.26468808543E+02  0.00000000000E+00 0. -1.
         23    2    1    2    0    0  0.00000000000E+00  0.00000000000E+00  0.50895739398E+02  0.10383335648E+03  0.90504086261E+02 0.  0.
        -11    1    3    3    0    0  0.65033030496E+00  0.22836656320E+02  0.70262432309E+02  0.73883321497E+02  0.00000000000E+00 0.  1.
         11    1    3    3    0    0 -0.65033030496E+00 -0.22836656320E+02 -0.19366692912E+02  0.29950034987E+02  0.00000000000E+00 0. -1.
<mgrwt>
<rscale>  0 0.90504086E+02</rscale>
<asrwt>0</asrwt>
<pdfrwt beam="1">  1        1 0.11902238E-01 0.90504086E+02</pdfrwt>
<pdfrwt beam="2">  1       -1 0.40721244E-02 0.90504086E+02</pdfrwt>
<totfact> 0.10227268E+05</totfact>
</mgrwt>
</event>
<event>
 5    1  0.5681061E+000  0.9097376E+02  0.7546771E-02  0.1300511E+00
         -2   -1    0    0    0  501 -0.00000000000E+00  0.00000000000E+00  0.47813664302E+02  0.47813664302E+02  0.00000000000E+00 0.  1.
          2   -1    0    0  501    0  0.00000000000E+00 -0.00000000000E+00 -0.43273324943E+02  0.43273324943E+02  0.00000000000E+00 0. -1.
         23    2    1    2    0    0  0.00000000000E+00  0.00000000000E+00  0.45403393585E+01  0.91086989245E+02  0.90973759559E+02 0.  0.
        -11    1    3    3    0    0 -0.21538645332E+02  0.19308543962E+02  0.37418322243E+02  0.47295496108E+02  0.00000000000E+00 0.  1.
         11    1    3    3    0    0  0.21538645332E+02 -0.19308543962E+02 -0.32877982884E+02  0.43791493137E+02  0.00000000000E+00 0. -1.
<mgrwt>
<rscale>  0 0.90973760E+02</rscale>
<asrwt>0</asrwt>
<pdfrwt beam="2">  1        2 0.66574346E-02 0.90973760E+02</pdfrwt>
<pdfrwt beam="1">  1       -2 0.73559483E-02 0.90973760E+02</pdfrwt>
<totfact> 0.97977711E+04</totfact>
</mgrwt>
</event>
<event>
 5    1  0.5681061E+000  0.9263060E+02  0.7546771E-02  0.1296604E+00
          2   -1    0    0  501    0  0.00000000000E+00  0.00000000000E+00  0.18204559691E+03  0.18204559691E+03  0.00000000000E+00 0. -1.
         -2   -1    0    0    0  501 -0.00000000000E+00 -0.00000000000E+00 -0.11783350171E+02  0.11783350171E+02  0.00000000000E+00 0.  1.
         23    2    1    2    0    0  0.00000000000E+00  0.00000000000E+00  0.17026224674E+03  0.19382894708E+03  0.92630600031E+02 0.  0.
        -11    1    3    3    0    0  0.43324823648E+02  0.12149279220E+02  0.62164950591E+02  0.76740643805E+02  0.00000000000E+00 0.  1.
         11    1    3    3    0    0 -0.43324823648E+02 -0.12149279220E+02  0.10809729615E+03  0.11708830327E+03  0.00000000000E+00 0. -1.
<mgrwt>
<rscale>  0 0.92630600E+02</rscale>
<asrwt>0</asrwt>
<pdfrwt beam="1">  1        2 0.28007013E-01 0.92630600E+02</pdfrwt>
<pdfrwt beam="2">  1       -2 0.18128232E-02 0.92630600E+02</pdfrwt>
<totfact> 0.14328508E+05</totfact>
</mgrwt>
</event>
<event>
 5    1  0.5681061E+000  0.9169184E+02  0.7546771E-02  0.1298806E+00
         -1   -1    0    0    0  501 -0.00000000000E+00  0.00000000000E+00  0.10658806444E+02  0.10658806444E+02  0.00000000000E+00 0.  1.
          1   -1    0    0  501    0  0.00000000000E+00 -0.00000000000E+00 -0.19719360363E+03  0.19719360363E+03  0.00000000000E+00 0. -1.
         23    2    1    2    0    0  0.00000000000E+00  0.00000000000E+00 -0.18653479718E+03  0.20785241007E+03  0.91691841579E+02 0.  0.
        -11    1    3    3    0    0 -0.13815390691E+02 -0.37693971844E+02 -0.43080778184E+02  0.58886789540E+02  0.00000000000E+00 0.  1.
         11    1    3    3    0    0  0.13815390691E+02  0.37693971844E+02 -0.14345401900E+03  0.14896562053E+03  0.00000000000E+00 0. -1.
<mgrwt>
<rscale>  0 0.91691842E+02</rscale>
<asrwt>0</asrwt>
<pdfrwt beam="2">  1        1 0.30337475E-01 0.91691842E+02</pdfrwt>
<pdfrwt beam="1">  1       -1 0.16398165E-02 0.91691842E+02</pdfrwt>
<totfact> 0.11630952E+05</totfact>
</mgrwt>
</event>
<event>
 5    1  0.5681061E+000  0.7327832E+02  0.7546771E-02  0.1349287E+00
         -1   -1    0    0    0  501 -0.00000000000E+00  0.00000000000E+00  0.57296717805E+02  0.57296717805E+02  0.00000000000E+00 0.  1.
          1   -1    0    0  501    0  0.00000000000E+00 -0.00000000000E+00 -0.23429406510E+02  0.23429406510E+02  0.00000000000E+00 0. -1.
         23    2    1    2    0    0  0.00000000000E+00  0.00000000000E+00  0.33867311295E+02  0.80726124316E+02  0.73278321301E+02 0.  0.
        -11    1    3    3    0    0 -0.10936007501E+02  0.13242415896E+02  0.52587752518E+02  0.55321149244E+02  0.00000000000E+00 0.  1.
         11    1    3    3    0    0  0.10936007501E+02 -0.13242415896E+02 -0.18720441223E+02  0.25404975072E+02  0.00000000000E+00 0. -1.
<mgrwt>
<rscale>  0 0.73278321E+02</rscale>
<asrwt>0</asrwt>
<pdfrwt beam="2">  1        1 0.36045241E-02 0.73278321E+02</pdfrwt>
<pdfrwt beam="1">  1       -1 0.88148796E-02 0.73278321E+02</pdfrwt>
<totfact> 0.15512272E+05</totfact>
</mgrwt>
</event>
<event>
 5    1  0.5681061E+000  0.9048758E+02  0.7546771E-02  0.1301675E+00
         -4   -1    0    0    0  501 -0.00000000000E+00  0.00000000000E+00  0.22170723797E+03  0.22170723797E+03  0.00000000000E+00 0. -1.
          4   -1    0    0  501    0  0.00000000000E+00 -0.00000000000E+00 -0.92328996679E+01  0.92328996679E+01  0.00000000000E+00 0.  1.
         23    2    1    2    0    0  0.00000000000E+00  0.00000000000E+00  0.21247433830E+03  0.23094013763E+03  0.90487583321E+02 0.  0.
        -11    1    3    3    0    0 -0.44421466332E+02 -0.80649592392E+01  0.98713469632E+02  0.10854795864E+03  0.00000000000E+00 0. -1.
         11    1    3    3    0    0  0.44421466332E+02  0.80649592392E+01  0.11376086867E+03  0.12239217899E+03  0.00000000000E+00 0.  1.
<mgrwt>
<rscale>  0 0.90487583E+02</rscale>
<asrwt>0</asrwt>
<pdfrwt beam="2">  1        4 0.14204463E-02 0.90487583E+02</pdfrwt>
<pdfrwt beam="1">  1       -4 0.34108802E-01 0.90487583E+02</pdfrwt>
<totfact> 0.20571589E+04</totfact>
</mgrwt>
</event>
<event>
 5    1  0.5681061E+000  0.9058552E+02  0.7546771E-02  0.1301440E+00
         -3   -1    0    0    0  501 -0.00000000000E+00  0.00000000000E+00  0.30323040772E+03  0.30323040772E+03  0.00000000000E+00 0.  1.
          3   -1    0    0  501    0  0.00000000000E+00 -0.00000000000E+00 -0.67652648429E+01  0.67652648429E+01  0.00000000000E+00 0. -1.
         23    2    1    2    0    0  0.00000000000E+00  0.00000000000E+00  0.29646514288E+03  0.30999567256E+03  0.90585517974E+02 0.  0.
        -11    1    3    3    0    0 -0.44972697564E+02 -0.13967371172E+01  0.13047054309E+03  0.13801107570E+03  0.00000000000E+00 0. -1.
         11    1    3    3    0    0  0.44972697564E+02  0.13967371172E+01  0.16599459979E+03  0.17198459687E+03  0.00000000000E+00 0.  1.
<mgrwt>
<rscale>  0 0.90585518E+02</rscale>
<asrwt>0</asrwt>
<pdfrwt beam="2">  1        3 0.10408102E-02 0.90585518E+02</pdfrwt>
<pdfrwt beam="1">  1       -3 0.46650821E-01 0.90585518E+02</pdfrwt>
<totfact> 0.24057029E+04</totfact>
</mgrwt>
</event>
<event>
 5    1  0.5681061E+000  0.9173819E+02  0.7546771E-02  0.1298696E+00
          2   -1    0    0  501    0  0.00000000000E+00  0.00000000000E+00  0.12654816993E+03  0.12654816993E+03  0.00000000000E+00 0. -1.
         -2   -1    0    0    0  501 -0.00000000000E+00 -0.00000000000E+00 -0.16625875123E+02  0.16625875123E+02  0.00000000000E+00 0.  1.
         23    2    1    2    0    0  0.00000000000E+00  0.00000000000E+00  0.10992229480E+03  0.14317404505E+03  0.91738194233E+02 0.  0.
        -11    1    3    3    0    0  0.17709293163E+02  0.39224610750E+02  0.30196681641E+02  0.52574030994E+02  0.00000000000E+00 0.  1.
         11    1    3    3    0    0 -0.17709293163E+02 -0.39224610750E+02  0.79725613164E+02  0.90600014057E+02  0.00000000000E+00 0. -1.
<mgrwt>
<rscale>  0 0.91738194E+02</rscale>
<asrwt>0</asrwt>
<pdfrwt beam="1">  1        2 0.19468949E-01 0.91738194E+02</pdfrwt>
<pdfrwt beam="2">  1       -2 0.25578270E-02 0.91738194E+02</pdfrwt>
<totfact> 0.12991582E+05</totfact>
</mgrwt>
</event>
<event>
 5    1  0.5681061E+000  0.9119898E+02  0.7546771E-02  0.1299974E+00
          3   -1    0    0  501    0  0.00000000000E+00  0.00000000000E+00  0.94689698856E+01  0.94689698856E+01  0.00000000000E+00 0. -1.
         -3   -1    0    0    0  501 -0.00000000000E+00 -0.00000000000E+00 -0.21959234446E+03  0.21959234446E+03  0.00000000000E+00 0.  1.
         23    2    1    2    0    0  0.00000000000E+00  0.00000000000E+00 -0.21012337458E+03  0.22906131435E+03  0.91198975801E+02 0.  0.
        -11    1    3    3    0    0  0.31517960168E+02 -0.30378129841E+02 -0.72984984920E+02  0.85105937570E+02  0.00000000000E+00 0. -1.
         11    1    3    3    0    0 -0.31517960168E+02  0.30378129841E+02 -0.13713838965E+03  0.14395537678E+03  0.00000000000E+00 0.  1.
<mgrwt>
<rscale>  0 0.91198976E+02</rscale>
<asrwt>0</asrwt>
<pdfrwt beam="1">  1        3 0.14567647E-02 0.91198976E+02</pdfrwt>
<pdfrwt beam="2">  1       -3 0.33783435E-01 0.91198976E+02</pdfrwt>
<totfact> 0.27042029E+04</totfact>
</mgrwt>
</event>
<event>
 5    1  0.5681061E+000  0.8694384E+02  0.7546771E-02  0.1310426E+00
          3   -1    0    0  501    0  0.00000000000E+00  0.00000000000E+00  0.32646981779E+02  0.32646981779E+02  0.00000000000E+00 0. -1.
         -3   -1    0    0    0  501 -0.00000000000E+00 -0.00000000000E+00 -0.57886144974E+02  0.57886144974E+02  0.00000000000E+00 0.  1.
         23    2    1    2    0    0  0.00000000000E+00  0.00000000000E+00 -0.25239163194E+02  0.90533126753E+02  0.86943842110E+02 0.  0.
        -11    1    3    3    0    0  0.16993117346E+02  0.37922733671E+02  0.67088117066E+00  0.41561398530E+02  0.00000000000E+00 0.  1.
         11    1    3    3    0    0 -0.16993117346E+02 -0.37922733671E+02 -0.25910044365E+02  0.48971728223E+02  0.00000000000E+00 0. -1.
<mgrwt>
<rscale>  0 0.86943842E+02</rscale>
<asrwt>0</asrwt>
<pdfrwt beam="1">  1        3 0.50226126E-02 0.86943842E+02</pdfrwt>
<pdfrwt beam="2">  1       -3 0.89055607E-02 0.86943842E+02</pdfrwt>
<totfact> 0.40261148E+04</totfact>
</mgrwt>
</event>
<event>
 5    1  0.5681061E+000  0.8246047E+02  0.7546771E-02  0.1322211E+00
         -2   -1    0    0    0  501 -0.00000000000E+00  0.00000000000E+00  0.14337615574E+02  0.14337615574E+02  0.00000000000E+00 0.  1.
          2   -1    0    0  501    0  0.00000000000E+00 -0.00000000000E+00 -0.11856449162E+03  0.11856449162E+03  0.00000000000E+00 0. -1.
         23    2    1    2    0    0  0.00000000000E+00  0.00000000000E+00 -0.10422687605E+03  0.13290210720E+03  0.82460465720E+02 0.  0.
        -11    1    3    3    0    0 -0.11378284081E+01  0.40159575620E+02 -0.67046399651E+02  0.78162048807E+02  0.00000000000E+00 0.  1.
         11    1    3    3    0    0  0.11378284081E+01 -0.40159575620E+02 -0.37180476398E+02  0.54740058391E+02  0.00000000000E+00 0. -1.
<mgrwt>
<rscale>  0 0.82460466E+02</rscale>
<asrwt>0</asrwt>
<pdfrwt beam="2">  1        2 0.18240691E-01 0.82460466E+02</pdfrwt>
<pdfrwt beam="1">  1       -2 0.22057870E-02 0.82460466E+02</pdfrwt>
<totfact> 0.16993577E+05</totfact>
</mgrwt>
</event>
<event>
 5    1  0.5681061E+000  0.9740633E+02  0.7546771E-02  0.1285847E+00
          3   -1    0    0  501    0  0.00000000000E+00  0.00000000000E+00  0.36007734903E+02  0.36007734903E+02  0.00000000000E+00 0. -1.
         -3   -1    0    0    0  501 -0.00000000000E+00 -0.00000000000E+00 -0.65874686743E+02  0.65874686743E+02  0.00000000000E+00 0.  1.
         23    2    1    2    0    0  0.00000000000E+00  0.00000000000E+00 -0.29866951841E+02  0.10188242165E+03  0.97406329508E+02 0.  0.
        -11    1    3    3    0    0  0.23749686723E+02 -0.39960996589E+02  0.26236391432E+00  0.46486532487E+02  0.00000000000E+00 0. -1.
         11    1    3    3    0    0 -0.23749686723E+02  0.39960996589E+02 -0.30129315755E+02  0.55395889159E+02  0.00000000000E+00 0.  1.
<mgrwt>
<rscale>  0 0.97406330E+02</rscale>
<asrwt>0</asrwt>
<pdfrwt beam="1">  1        3 0.55396516E-02 0.97406330E+02</pdfrwt>
<pdfrwt beam="2">  1       -3 0.10134567E-01 0.97406330E+02</pdfrwt>
<totfact> 0.28821675E+04</totfact>
</mgrwt>
</event>
<event>
 5    1  0.5681061E+000  0.9229888E+02  0.7546771E-02  0.1297378E+00
         -2   -1    0    0    0  501 -0.00000000000E+00  0.00000000000E+00  0.63089310623E+02  0.63089310623E+02  0.00000000000E+00 0.  1.
          2   -1    0    0  501    0  0.00000000000E+00 -0.00000000000E+00 -0.33758028552E+02  0.33758028552E+02  0.00000000000E+00 0. -1.
         23    2    1    2    0    0  0.00000000000E+00  0.00000000000E+00  0.29331282071E+02  0.96847339175E+02  0.92298878635E+02 0.  0.
        -11    1    3    3    0    0 -0.36382956559E+02  0.28283718415E+02  0.17253449408E+02  0.49207415821E+02  0.00000000000E+00 0.  1.
         11    1    3    3    0    0  0.36382956559E+02 -0.28283718415E+02  0.12077832663E+02  0.47639923354E+02  0.00000000000E+00 0. -1.
<mgrwt>
<rscale>  0 0.92298879E+02</rscale>
<asrwt>0</asrwt>
<pdfrwt beam="2">  1        2 0.51935429E-02 0.92298879E+02</pdfrwt>
<pdfrwt beam="1">  1       -2 0.97060478E-02 0.92298879E+02</pdfrwt>
<totfact> 0.88042475E+04</totfact>
</mgrwt>
</event>
<event>
 5    1  0.5681061E+000  0.9370100E+02  0.7546771E-02  0.1294129E+00
         -3   -1    0    0    0  501 -0.00000000000E+00  0.00000000000E+00  0.24263429984E+03  0.24263429984E+03  0.00000000000E+00 0.  1.
          3   -1    0    0  501    0  0.00000000000E+00 -0.00000000000E+00 -0.90464090584E+01  0.90464090584E+01  0.00000000000E+00 0. -1.
         23    2    1    2    0    0  0.00000000000E+00  0.00000000000E+00  0.23358789078E+03  0.25168070890E+03  0.93700995255E+02 0.  0.
        -11    1    3    3    0    0  0.16817935062E+02  0.37901040851E+02  0.17537317732E+03  0.18020844364E+03  0.00000000000E+00 0.  1.
         11    1    3    3    0    0 -0.16817935062E+02 -0.37901040851E+02  0.58214713467E+02  0.71472265260E+02  0.00000000000E+00 0. -1.
<mgrwt>
<rscale>  0 0.93700995E+02</rscale>
<asrwt>0</asrwt>
<pdfrwt beam="2">  1        3 0.13917554E-02 0.93700995E+02</pdfrwt>
<pdfrwt beam="1">  1       -3 0.37328349E-01 0.93700995E+02</pdfrwt>
<totfact> 0.24176648E+04</totfact>
</mgrwt>
</event>
<event>
 5    1  0.5681061E+000  0.9265652E+02  0.7546771E-02  0.1296543E+00
         -2   -1    0    0    0  501 -0.00000000000E+00  0.00000000000E+00  0.51633062251E+01  0.51633062251E+01  0.00000000000E+00 0.  1.
          2   -1    0    0  501    0  0.00000000000E+00 -0.00000000000E+00 -0.41568478903E+03  0.41568478903E+03  0.00000000000E+00 0. -1.
         23    2    1    2    0    0  0.00000000000E+00  0.00000000000E+00 -0.41052148280E+03  0.42084809525E+03  0.92656523977E+02 0.  0.
        -11    1    3    3    0    0 -0.40217939524E+01 -0.45226280188E+02 -0.16345521912E+03  0.16964433355E+03  0.00000000000E+00 0.  1.
         11    1    3    3    0    0  0.40217939524E+01  0.45226280188E+02 -0.24706626368E+03  0.25120376170E+03  0.00000000000E+00 0. -1.
<mgrwt>
<rscale>  0 0.92656524E+02</rscale>
<asrwt>0</asrwt>
<pdfrwt beam="2">  1        2 0.63951530E-01 0.92656524E+02</pdfrwt>
<pdfrwt beam="1">  1       -2 0.79435451E-03 0.92656524E+02</pdfrwt>
<totfact> 0.19389918E+05</totfact>
</mgrwt>
</event>
<event>
 5    1  0.5681061E+000  0.8454519E+02  0.7546771E-02  0.1316626E+00
          1   -1    0    0  501    0  0.00000000000E+00  0.00000000000E+00  0.81125520824E+02  0.81125520824E+02  0.00000000000E+00 0. -1.
         -1   -1    0    0    0  501 -0.00000000000E+00 -0.00000000000E+00 -0.22027251137E+02  0.22027251137E+02  0.00000000000E+00 0.  1.
         23    2    1    2    0    0  0.00000000000E+00  0.00000000000E+00  0.59098269686E+02  0.10315277196E+03  0.84545188410E+02 0.  0.
        -11    1    3    3    0    0 -0.26792176880E+02  0.72502769023E+01  0.68450410909E+02  0.73863698870E+02  0.00000000000E+00 0. -1.
         11    1    3    3    0    0  0.26792176880E+02 -0.72502769023E+01 -0.93521412223E+01  0.29289073092E+02  0.00000000000E+00 0.  1.
<mgrwt>
<rscale>  0 0.84545188E+02</rscale>
<asrwt>0</asrwt>
<pdfrwt beam="1">  1        1 0.12480849E-01 0.84545188E+02</pdfrwt>
<pdfrwt beam="2">  1       -1 0.33888079E-02 0.84545188E+02</pdfrwt>
<totfact> 0.12405893E+05</totfact>
</mgrwt>
</event>
<event>
 5    1  0.5681061E+000  0.9162149E+02  0.7546771E-02  0.1298972E+00
          1   -1    0    0  501    0  0.00000000000E+00  0.00000000000E+00  0.14444980330E+03  0.14444980330E+03  0.00000000000E+00 0. -1.
         -1   -1    0    0    0  501 -0.00000000000E+00 -0.00000000000E+00 -0.14528397815E+02  0.14528397815E+02  0.00000000000E+00 0.  1.
         23    2    1    2    0    0  0.00000000000E+00  0.00000000000E+00  0.12992140549E+03  0.15897820112E+03  0.91621486709E+02 0.  0.
        -11    1    3    3    0    0  0.33453076946E+02 -0.25209669008E+02  0.32778766755E+02  0.53189127823E+02  0.00000000000E+00 0. -1.
         11    1    3    3    0    0 -0.33453076946E+02  0.25209669008E+02  0.97142638730E+02  0.10578907329E+03  0.00000000000E+00 0.  1.
<mgrwt>
<rscale>  0 0.91621487E+02</rscale>
<asrwt>0</asrwt>
<pdfrwt beam="1">  1        1 0.22223046E-01 0.91621487E+02</pdfrwt>
<pdfrwt beam="2">  1       -1 0.22351382E-02 0.91621487E+02</pdfrwt>
<totfact> 0.10990639E+05</totfact>
</mgrwt>
</event>
<event>
 5    1  0.5681061E+000  0.9167249E+02  0.7546771E-02  0.1298851E+00
         -3   -1    0    0    0  501 -0.00000000000E+00  0.00000000000E+00  0.10053416706E+02  0.10053416706E+02  0.00000000000E+00 0.  1.
          3   -1    0    0  501    0  0.00000000000E+00 -0.00000000000E+00 -0.20897981408E+03  0.20897981408E+03  0.00000000000E+00 0. -1.
         23    2    1    2    0    0  0.00000000000E+00  0.00000000000E+00 -0.19892639737E+03  0.21903323079E+03  0.91672485600E+02 0.  0.
        -11    1    3    3    0    0 -0.27382795846E+02 -0.12661652073E+02 -0.17012337699E+02  0.34634586406E+02  0.00000000000E+00 0.  1.
         11    1    3    3    0    0  0.27382795846E+02  0.12661652073E+02 -0.18191405968E+03  0.18439864438E+03  0.00000000000E+00 0. -1.
<mgrwt>
<rscale>  0 0.91672486E+02</rscale>
<asrwt>0</asrwt>
<pdfrwt beam="2">  1        3 0.32150740E-01 0.91672486E+02</pdfrwt>
<pdfrwt beam="1">  1       -3 0.15466795E-02 0.91672486E+02</pdfrwt>
<totfact> 0.27143420E+04</totfact>
</mgrwt>
</event>
<event>
 5    1  0.5681061E+000  0.8989025E+02  0.7546771E-02  0.1303118E+00
          1   -1    0    0  501    0  0.00000000000E+00  0.00000000000E+00  0.83146225732E+01  0.83146225732E+01  0.00000000000E+00 0. -1.
         -1   -1    0    0    0  501 -0.00000000000E+00 -0.00000000000E+00 -0.24295318953E+03  0.24295318953E+03  0.00000000000E+00 0.  1.
         23    2    1    2    0    0  0.00000000000E+00  0.00000000000E+00 -0.23463856696E+03  0.25126781211E+03  0.89890245832E+02 0.  0.
        -11    1    3    3    0    0  0.37544058981E+02 -0.12576321819E+02 -0.17677021032E+03  0.18115028979E+03  0.00000000000E+00 0.  1.
         11    1    3    3    0    0 -0.37544058981E+02  0.12576321819E+02 -0.57868356638E+02  0.70117522313E+02  0.00000000000E+00 0. -1.
<mgrwt>
<rscale>  0 0.89890246E+02</rscale>
<asrwt>0</asrwt>
<pdfrwt beam="1">  1        1 0.12791728E-02 0.89890246E+02</pdfrwt>
<pdfrwt beam="2">  1       -1 0.37377412E-01 0.89890246E+02</pdfrwt>
<totfact> 0.67857207E+04</totfact>
</mgrwt>
</event>
<event>
 5    1  0.5681061E+000  0.9017287E+02  0.7546771E-02  0.1302434E+00
          4   -1    0    0  501    0  0.00000000000E+00  0.00000000000E+00  0.15088401016E+03  0.15088401016E+03  0.00000000000E+00 0. -1.
         -4   -1    0    0    0  501 -0.00000000000E+00 -0.00000000000E+00 -0.13472513183E+02  0.13472513183E+02  0.00000000000E+00 0.  1.
         23    2    1    2    0    0  0.00000000000E+00  0.00000000000E+00  0.13741149698E+03  0.16435652335E+03  0.90172874326E+02 0.  0.
        -11    1    3    3    0    0 -0.16088399399E+02  0.35267566633E+02  0.26738548795E+02  0.47091271411E+02  0.00000000000E+00 0.  1.
         11    1    3    3    0    0  0.16088399399E+02 -0.35267566633E+02  0.11067294819E+03  0.11726525194E+03  0.00000000000E+00 0. -1.
<mgrwt>
<rscale>  0 0.90172874E+02</rscale>
<asrwt>0</asrwt>
<pdfrwt beam="1">  1        4 0.23212923E-01 0.90172874E+02</pdfrwt>
<pdfrwt beam="2">  1       -4 0.20726944E-02 0.90172874E+02</pdfrwt>
<totfact> 0.23664599E+04</totfact>
</mgrwt>
</event>
<event>
 5    1  0.5681061E+000  0.9258735E+02  0.7546771E-02  0.1296704E+00
          3   -1    0    0  501    0  0.00000000000E+00  0.00000000000E+00  0.40910980182E+03  0.40910980182E+03  0.00000000000E+00 0. -1.
         -3   -1    0    0    0  501 -0.00000000000E+00 -0.00000000000E+00 -0.52384575159E+01  0.52384575159E+01  0.00000000000E+00 0.  1.
         23    2    1    2    0    0  0.00000000000E+00  0.00000000000E+00  0.40387134430E+03  0.41434825934E+03  0.92587349377E+02 0.  0.
        -11    1    3    3    0    0 -0.45215912505E+02 -0.51674206601E+01  0.23988890543E+03  0.24416770451E+03  0.00000000000E+00 0. -1.
         11    1    3    3    0    0  0.45215912505E+02  0.51674206601E+01  0.16398243888E+03  0.17018055482E+03  0.00000000000E+00 0.  1.
<mgrwt>
<rscale>  0 0.92587349E+02</rscale>
<asrwt>0</asrwt>
<pdfrwt beam="1">  1        3 0.62939944E-01 0.92587349E+02</pdfrwt>
<pdfrwt beam="2">  1       -3 0.80591686E-03 0.92587349E+02</pdfrwt>
<totfact> 0.19375297E+04</totfact>
</mgrwt>
</event>
<event>
 5    1  0.5681061E+000  0.9168940E+02  0.7546771E-02  0.1298811E+00
         -1   -1    0    0    0  501 -0.00000000000E+00  0.00000000000E+00  0.10247611499E+02  0.10247611499E+02  0.00000000000E+00 0.  1.
          1   -1    0    0  501    0  0.00000000000E+00 -0.00000000000E+00 -0.20509525193E+03  0.20509525193E+03  0.00000000000E+00 0. -1.
         23    2    1    2    0    0  0.00000000000E+00  0.00000000000E+00 -0.19484764043E+03  0.21534286342E+03  0.91689398778E+02 0.  0.
        -11    1    3    3    0    0 -0.33145567603E+02 -0.30450252316E+02 -0.11788371874E+03  0.12618406263E+03  0.00000000000E+00 0. -1.
         11    1    3    3    0    0  0.33145567603E+02  0.30450252316E+02 -0.76963921688E+02  0.89158800797E+02  0.00000000000E+00 0.  1.
<mgrwt>
<rscale>  0 0.91689399E+02</rscale>
<asrwt>0</asrwt>
<pdfrwt beam="2">  1        1 0.31553112E-01 0.91689399E+02</pdfrwt>
<pdfrwt beam="1">  1       -1 0.15765558E-02 0.91689399E+02</pdfrwt>
<totfact> 0.11720922E+05</totfact>
</mgrwt>
</event>
<event>
 5    1  0.5681061E+000  0.9334786E+02  0.7546771E-02  0.1294941E+00
         -2   -1    0    0    0  501 -0.00000000000E+00  0.00000000000E+00  0.28848450835E+03  0.28848450835E+03  0.00000000000E+00 0.  1.
          2   -1    0    0  501    0  0.00000000000E+00 -0.00000000000E+00 -0.75513781074E+01  0.75513781074E+01  0.00000000000E+00 0. -1.
         23    2    1    2    0    0  0.00000000000E+00  0.00000000000E+00  0.28093313024E+03  0.29603588646E+03  0.93347856980E+02 0.  0.
        -11    1    3    3    0    0  0.15478687039E+02 -0.44027407047E+02  0.13833144752E+03  0.14599175215E+03  0.00000000000E+00 0.  1.
         11    1    3    3    0    0 -0.15478687039E+02  0.44027407047E+02  0.14260168273E+03  0.15004413431E+03  0.00000000000E+00 0. -1.
<mgrwt>
<rscale>  0 0.93347857E+02</rscale>
<asrwt>0</asrwt>
<pdfrwt beam="2">  1        2 0.11617507E-02 0.93347857E+02</pdfrwt>
<pdfrwt beam="1">  1       -2 0.44382224E-01 0.93347857E+02</pdfrwt>
<totfact> 0.49055321E+04</totfact>
</mgrwt>
</event>
<event>
 5    1  0.5681061E+000  0.8967531E+02  0.7546771E-02  0.1303640E+00
          2   -1    0    0  501    0  0.00000000000E+00  0.00000000000E+00  0.49444523053E+01  0.49444523053E+01  0.00000000000E+00 0. -1.
         -2   -1    0    0    0  501 -0.00000000000E+00 -0.00000000000E+00 -0.40660019182E+03  0.40660019182E+03  0.00000000000E+00 0.  1.
         23    2    1    2    0    0  0.00000000000E+00  0.00000000000E+00 -0.40165573952E+03  0.41154464413E+03  0.89675308882E+02 0.  0.
        -11    1    3    3    0    0 -0.26604367950E+02  0.34202798815E+02 -0.25371245129E+03  0.25738615305E+03  0.00000000000E+00 0.  1.
         11    1    3    3    0    0  0.26604367950E+02 -0.34202798815E+02 -0.14794328823E+03  0.15415849108E+03  0.00000000000E+00 0. -1.
<mgrwt>
<rscale>  0 0.89675309E+02</rscale>
<asrwt>0</asrwt>
<pdfrwt beam="1">  1        2 0.76068469E-03 0.89675309E+02</pdfrwt>
<pdfrwt beam="2">  1       -2 0.62553899E-01 0.89675309E+02</pdfrwt>
<totfact> 0.44070115E+04</totfact>
</mgrwt>
</event>
<event>
 5    1  0.5681061E+000  0.9111940E+02  0.7546771E-02  0.1300163E+00
          3   -1    0    0  501    0  0.00000000000E+00  0.00000000000E+00  0.13674425342E+02  0.13674425342E+02  0.00000000000E+00 0. -1.
         -3   -1    0    0    0  501 -0.00000000000E+00 -0.00000000000E+00 -0.15179332485E+03  0.15179332485E+03  0.00000000000E+00 0.  1.
         23    2    1    2    0    0  0.00000000000E+00  0.00000000000E+00 -0.13811889951E+03  0.16546775019E+03  0.91119404915E+02 0.  0.
        -11    1    3    3    0    0  0.29529016935E+02 -0.34379469317E+02 -0.60585440928E+02  0.75660467909E+02  0.00000000000E+00 0.  1.
         11    1    3    3    0    0 -0.29529016935E+02  0.34379469317E+02 -0.77533458578E+02  0.89807282281E+02  0.00000000000E+00 0. -1.
<mgrwt>
<rscale>  0 0.91119405E+02</rscale>
<asrwt>0</asrwt>
<pdfrwt beam="1">  1        3 0.21037578E-02 0.91119405E+02</pdfrwt>
<pdfrwt beam="2">  1       -3 0.23352819E-01 0.91119405E+02</pdfrwt>
<totfact> 0.30439178E+04</totfact>
</mgrwt>
</event>
<event>
 5    1  0.5681061E+000  0.8712556E+02  0.7546771E-02  0.1309966E+00
          3   -1    0    0  501    0  0.00000000000E+00  0.00000000000E+00  0.14917350435E+03  0.14917350435E+03  0.00000000000E+00 0. -1.
         -3   -1    0    0    0  501 -0.00000000000E+00 -0.00000000000E+00 -0.12721534844E+02  0.12721534844E+02  0.00000000000E+00 0.  1.
         23    2    1    2    0    0  0.00000000000E+00  0.00000000000E+00  0.13645196951E+03  0.16189503920E+03  0.87125563032E+02 0.  0.
        -11    1    3    3    0    0 -0.26644093986E+02  0.94463004164E+01  0.66370180956E+01  0.29037740013E+02  0.00000000000E+00 0.  1.
         11    1    3    3    0    0  0.26644093986E+02 -0.94463004164E+01  0.12981495141E+03  0.13285729918E+03  0.00000000000E+00 0. -1.
<mgrwt>
<rscale>  0 0.87125563E+02</rscale>
<asrwt>0</asrwt>
<pdfrwt beam="1">  1        3 0.22949769E-01 0.87125563E+02</pdfrwt>
<pdfrwt beam="2">  1       -3 0.19571593E-02 0.87125563E+02</pdfrwt>
<totfact> 0.34580642E+04</totfact>
</mgrwt>
</event>
<event>
 5    1  0.5681061E+000  0.9203942E+02  0.7546771E-02  0.1297987E+00
          2   -1    0    0  501    0  0.00000000000E+00  0.00000000000E+00  0.24416687102E+02  0.24416687102E+02  0.00000000000E+00 0. -1.
         -2   -1    0    0    0  501 -0.00000000000E+00 -0.00000000000E+00 -0.86736334200E+02  0.86736334200E+02  0.00000000000E+00 0.  1.
         23    2    1    2    0    0  0.00000000000E+00  0.00000000000E+00 -0.62319647098E+02  0.11115302130E+03  0.92039424869E+02 0.  0.
        -11    1    3    3    0    0 -0.28477110561E+02 -0.11636399916E+02  0.10174566635E+02  0.32401750495E+02  0.00000000000E+00 0. -1.
         11    1    3    3    0    0  0.28477110561E+02  0.11636399916E+02 -0.72494213733E+02  0.78751270807E+02  0.00000000000E+00 0.  1.
<mgrwt>
<rscale>  0 0.92039425E+02</rscale>
<asrwt>0</asrwt>
<pdfrwt beam="1">  1        2 0.37564135E-02 0.92039425E+02</pdfrwt>
<pdfrwt beam="2">  1       -2 0.13344051E-01 0.92039425E+02</pdfrwt>
<totfact> 0.81263266E+04</totfact>
</mgrwt>
</event>
<event>
 5    1  0.5681061E+000  0.9868920E+02  0.7546771E-02  0.1283077E+00
          2   -1    0    0  501    0  0.00000000000E+00  0.00000000000E+00  0.14031421586E+03  0.14031421586E+03  0.00000000000E+00 0. -1.
         -2   -1    0    0    0  501 -0.00000000000E+00 -0.00000000000E+00 -0.17353122003E+02  0.17353122003E+02  0.00000000000E+00 0.  1.
         23    2    1    2    0    0  0.00000000000E+00  0.00000000000E+00  0.12296109386E+03  0.15766733786E+03  0.98689203191E+02 0.  0.
        -11    1    3    3    0    0 -0.43978683623E+02  0.21554818369E+02  0.51874257541E+02  0.71341947012E+02  0.00000000000E+00 0. -1.
         11    1    3    3    0    0  0.43978683623E+02 -0.21554818369E+02  0.71086836318E+02  0.86325390853E+02  0.00000000000E+00 0.  1.
<mgrwt>
<rscale>  0 0.98689203E+02</rscale>
<asrwt>0</asrwt>
<pdfrwt beam="1">  1        2 0.21586802E-01 0.98689203E+02</pdfrwt>
<pdfrwt beam="2">  1       -2 0.26697112E-02 0.98689203E+02</pdfrwt>
<totfact> 0.11007259E+05</totfact>
</mgrwt>
</event>
<event>
 5    1  0.5681061E+000  0.8688062E+02  0.7546771E-02  0.1310587E+00
         -1   -1    0    0    0  501 -0.00000000000E+00  0.00000000000E+00  0.80068791860E+01  0.80068791860E+01  0.00000000000E+00 0. -1.
          1   -1    0    0  501    0  0.00000000000E+00 -0.00000000000E+00 -0.23567991014E+03  0.23567991014E+03  0.00000000000E+00 0.  1.
         23    2    1    2    0    0  0.00000000000E+00  0.00000000000E+00 -0.22767303096E+03  0.24368678933E+03  0.86880620787E+02 0.  0.
        -11    1    3    3    0    0  0.41561800891E+02  0.12413867566E+02 -0.10721495954E+03  0.11565697105E+03  0.00000000000E+00 0.  1.
         11    1    3    3    0    0 -0.41561800891E+02 -0.12413867566E+02 -0.12045807141E+03  0.12802981828E+03  0.00000000000E+00 0. -1.
<mgrwt>
<rscale>  0 0.86880621E+02</rscale>
<asrwt>0</asrwt>
<pdfrwt beam="2">  1        1 0.36258452E-01 0.86880621E+02</pdfrwt>
<pdfrwt beam="1">  1       -1 0.12318274E-02 0.86880621E+02</pdfrwt>
<totfact> 0.13904107E+05</totfact>
</mgrwt>
</event>
<event>
 5    1  0.5681061E+000  0.8096680E+02  0.7546771E-02  0.1326330E+00
         -1   -1    0    0    0  501 -0.00000000000E+00  0.00000000000E+00  0.61192546233E+01  0.61192546233E+01  0.00000000000E+00 0.  1.
          1   -1    0    0  501    0  0.00000000000E+00 -0.00000000000E+00 -0.26782767515E+03  0.26782767515E+03  0.00000000000E+00 0. -1.
         23    2    1    2    0    0  0.00000000000E+00  0.00000000000E+00 -0.26170842052E+03  0.27394692977E+03  0.80966801577E+02 0.  0.
        -11    1    3    3    0    0  0.35224238814E+02 -0.18095231114E+02 -0.15930764672E+03  0.16415575132E+03  0.00000000000E+00 0. -1.
         11    1    3    3    0    0 -0.35224238814E+02  0.18095231114E+02 -0.10240077380E+03  0.10979117845E+03  0.00000000000E+00 0.  1.
<mgrwt>
<rscale>  0 0.80966802E+02</rscale>
<asrwt>0</asrwt>
<pdfrwt beam="2">  1        1 0.41204253E-01 0.80966802E+02</pdfrwt>
<pdfrwt beam="1">  1       -1 0.94142389E-03 0.80966802E+02</pdfrwt>
<totfact> 0.17172988E+05</totfact>
</mgrwt>
</event>
<event>
 5    1  0.5681061E+000  0.9968776E+02  0.7546771E-02  0.1280954E+00
          1   -1    0    0  501    0  0.00000000000E+00  0.00000000000E+00  0.12889667583E+03  0.12889667583E+03  0.00000000000E+00 0. -1.
         -1   -1    0    0    0  501 -0.00000000000E+00 -0.00000000000E+00 -0.19274447484E+02  0.19274447484E+02  0.00000000000E+00 0.  1.
         23    2    1    2    0    0  0.00000000000E+00  0.00000000000E+00  0.10962222835E+03  0.14817112332E+03  0.99687756705E+02 0.  0.
        -11    1    3    3    0    0 -0.39894207363E+02  0.17809379496E+02  0.90473981289E+02  0.10047020986E+03  0.00000000000E+00 0. -1.
         11    1    3    3    0    0  0.39894207363E+02 -0.17809379496E+02  0.19148247062E+02  0.47700913458E+02  0.00000000000E+00 0.  1.
<mgrwt>
<rscale>  0 0.99687757E+02</rscale>
<asrwt>0</asrwt>
<pdfrwt beam="1">  1        1 0.19830257E-01 0.99687757E+02</pdfrwt>
<pdfrwt beam="2">  1       -1 0.29652997E-02 0.99687757E+02</pdfrwt>
<totfact> 0.85558096E+04</totfact>
</mgrwt>
</event>
<event>
 5    1  0.5681061E+000  0.9107795E+02  0.7546771E-02  0.1300262E+00
          1   -1    0    0  501    0  0.00000000000E+00  0.00000000000E+00  0.11045561836E+02  0.11045561836E+02  0.00000000000E+00 0. -1.
         -1   -1    0    0    0  501 -0.00000000000E+00 -0.00000000000E+00 -0.18774945458E+03  0.18774945458E+03  0.00000000000E+00 0.  1.
         23    2    1    2    0    0  0.00000000000E+00  0.00000000000E+00 -0.17670389275E+03  0.19879501642E+03  0.91077949256E+02 0.  0.
        -11    1    3    3    0    0 -0.25702850742E+02 -0.23375075169E+02 -0.15261236755E+03  0.15651698120E+03  0.00000000000E+00 0.  1.
         11    1    3    3    0    0  0.25702850742E+02  0.23375075169E+02 -0.24091525197E+02  0.42278035216E+02  0.00000000000E+00 0. -1.
<mgrwt>
<rscale>  0 0.91077949E+02</rscale>
<asrwt>0</asrwt>
<pdfrwt beam="1">  1        1 0.16993174E-02 0.91077949E+02</pdfrwt>
<pdfrwt beam="2">  1       -1 0.28884528E-01 0.91077949E+02</pdfrwt>
<totfact> 0.70862706E+04</totfact>
</mgrwt>
</event>
<event>
 5    1  0.5681061E+000  0.9134705E+02  0.7546771E-02  0.1299622E+00
          1   -1    0    0  501    0  0.00000000000E+00  0.00000000000E+00  0.71766702769E+01  0.71766702769E+01  0.00000000000E+00 0. -1.
         -1   -1    0    0    0  501 -0.00000000000E+00 -0.00000000000E+00 -0.29067393534E+03  0.29067393534E+03  0.00000000000E+00 0.  1.
         23    2    1    2    0    0  0.00000000000E+00  0.00000000000E+00 -0.28349726506E+03  0.29785060561E+03  0.91347052323E+02 0.  0.
        -11    1    3    3    0    0 -0.24675959684E+02 -0.38358361716E+02 -0.14960408306E+03  0.15640220129E+03  0.00000000000E+00 0.  1.
         11    1    3    3    0    0  0.24675959684E+02  0.38358361716E+02 -0.13389318200E+03  0.14144840433E+03  0.00000000000E+00 0. -1.
<mgrwt>
<rscale>  0 0.91347052E+02</rscale>
<asrwt>0</asrwt>
<pdfrwt beam="1">  1        1 0.11041030E-02 0.91347052E+02</pdfrwt>
<pdfrwt beam="2">  1       -1 0.44719072E-01 0.91347052E+02</pdfrwt>
<totfact> 0.61035950E+04</totfact>
</mgrwt>
</event>
<event>
 5    1  0.5681061E+000  0.9096592E+02  0.7546771E-02  0.1300529E+00
          1   -1    0    0  501    0  0.00000000000E+00  0.00000000000E+00  0.80369965890E+01  0.80369965890E+01  0.00000000000E+00 0. -1.
         -1   -1    0    0    0  501 -0.00000000000E+00 -0.00000000000E+00 -0.25739712070E+03  0.25739712070E+03  0.00000000000E+00 0.  1.
         23    2    1    2    0    0  0.00000000000E+00  0.00000000000E+00 -0.24936012411E+03  0.26543411729E+03  0.90965922875E+02 0.  0.
        -11    1    3    3    0    0 -0.41124322719E+01  0.45289550254E+02 -0.12702228761E+03  0.13491744517E+03  0.00000000000E+00 0. -1.
         11    1    3    3    0    0  0.41124322719E+01 -0.45289550254E+02 -0.12233783650E+03  0.13051667212E+03  0.00000000000E+00 0.  1.
<mgrwt>
<rscale>  0 0.90965923E+02</rscale>
<asrwt>0</asrwt>
<pdfrwt beam="1">  1        1 0.12364608E-02 0.90965923E+02</pdfrwt>
<pdfrwt beam="2">  1       -1 0.39599563E-01 0.90965923E+02</pdfrwt>
<totfact> 0.64509739E+04</totfact>
</mgrwt>
</event>
<event>
 5    1  0.5681061E+000  0.9097314E+02  0.7546771E-02  0.1300512E+00
          1   -1    0    0  501    0  0.00000000000E+00  0.00000000000E+00  0.19463477064E+02  0.19463477064E+02  0.00000000000E+00 0. -1.
         -1   -1    0    0    0  501 -0.00000000000E+00 -0.00000000000E+00 -0.10630310860E+03  0.10630310860E+03  0.00000000000E+00 0.  1.
         23    2    1    2    0    0  0.00000000000E+00  0.00000000000E+00 -0.86839631535E+02  0.12576658566E+03  0.90973141444E+02 0.  0.
        -11    1    3    3    0    0 -0.52561715593E+01 -0.33116256493E+02 -0.92828949221E+00  0.33543635834E+02  0.00000000000E+00 0. -1.
         11    1    3    3    0    0  0.52561715593E+01  0.33116256493E+02 -0.85911342042E+02  0.92222949829E+02  0.00000000000E+00 0.  1.
<mgrwt>
<rscale>  0 0.90973141E+02</rscale>
<asrwt>0</asrwt>
<pdfrwt beam="1">  1        1 0.29943811E-02 0.90973141E+02</pdfrwt>
<pdfrwt beam="2">  1       -1 0.16354324E-01 0.90973141E+02</pdfrwt>
<totfact> 0.80902662E+04</totfact>
</mgrwt>
</event>
<event>
 5    1  0.5681061E+000  0.1016836E+03  0.7546771E-02  0.1276795E+00
         -2   -1    0    0    0  501 -0.00000000000E+00  0.00000000000E+00  0.14715924509E+03  0.14715924509E+03  0.00000000000E+00 0.  1.
          2   -1    0    0  501    0  0.00000000000E+00 -0.00000000000E+00 -0.17565240633E+02  0.17565240633E+02  0.00000000000E+00 0. -1.
         23    2    1    2    0    0  0.00000000000E+00  0.00000000000E+00  0.12959400445E+03  0.16472448572E+03  0.10168357884E+03 0.  0.
        -11    1    3    3    0    0  0.16120028975E+02 -0.19801125386E+02  0.13601953001E+03  0.13839527609E+03  0.00000000000E+00 0.  1.
         11    1    3    3    0    0 -0.16120028975E+02  0.19801125386E+02 -0.64255255586E+01  0.26329209624E+02  0.00000000000E+00 0. -1.
<mgrwt>
<rscale>  0 0.10168358E+03</rscale>
<asrwt>0</asrwt>
<pdfrwt beam="2">  1        2 0.27023448E-02 0.10168358E+03</pdfrwt>
<pdfrwt beam="1">  1       -2 0.22639883E-01 0.10168358E+03</pdfrwt>
<totfact> 0.53369349E+04</totfact>
</mgrwt>
</event>
<event>
 5    1  0.5681061E+000  0.9600202E+02  0.7546771E-02  0.1288935E+00
          1   -1    0    0  501    0  0.00000000000E+00  0.00000000000E+00  0.95844894769E+02  0.95844894769E+02  0.00000000000E+00 0. -1.
         -1   -1    0    0    0  501 -0.00000000000E+00 -0.00000000000E+00 -0.24039851683E+02  0.24039851683E+02  0.00000000000E+00 0.  1.
         23    2    1    2    0    0  0.00000000000E+00  0.00000000000E+00  0.71805043087E+02  0.11988474645E+03  0.96002021954E+02 0.  0.
        -11    1    3    3    0    0  0.15414158318E+02  0.32505968242E+02 -0.37814142023E+01  0.36173655350E+02  0.00000000000E+00 0.  1.
         11    1    3    3    0    0 -0.15414158318E+02 -0.32505968242E+02  0.75586457289E+02  0.83711091102E+02  0.00000000000E+00 0. -1.
<mgrwt>
<rscale>  0 0.96002022E+02</rscale>
<asrwt>0</asrwt>
<pdfrwt beam="1">  1        1 0.14745368E-01 0.96002022E+02</pdfrwt>
<pdfrwt beam="2">  1       -1 0.36984388E-02 0.96002022E+02</pdfrwt>
<totfact> 0.90049697E+04</totfact>
</mgrwt>
</event>
<event>
 5    1  0.5681061E+000  0.9994009E+02  0.7546771E-02  0.1280422E+00
         -3   -1    0    0    0  501 -0.00000000000E+00  0.00000000000E+00  0.49236025800E+02  0.49236025800E+02  0.00000000000E+00 0.  1.
          3   -1    0    0  501    0  0.00000000000E+00 -0.00000000000E+00 -0.50715007274E+02  0.50715007274E+02  0.00000000000E+00 0. -1.
         23    2    1    2    0    0  0.00000000000E+00  0.00000000000E+00 -0.14789814742E+01  0.99951033074E+02  0.99940090186E+02 0.  0.
        -11    1    3    3    0    0 -0.41496408644E+02 -0.15213030149E+02  0.22578661904E+02  0.49630476424E+02  0.00000000000E+00 0.  1.
         11    1    3    3    0    0  0.41496408644E+02  0.15213030149E+02 -0.24057643378E+02  0.50320556650E+02  0.00000000000E+00 0. -1.
<mgrwt>
<rscale>  0 0.99940090E+02</rscale>
<asrwt>0</asrwt>
<pdfrwt beam="2">  1        3 0.78023088E-02 0.99940090E+02</pdfrwt>
<pdfrwt beam="1">  1       -3 0.75747732E-02 0.99940090E+02</pdfrwt>
<totfact> 0.26966175E+04</totfact>
</mgrwt>
</event>
<event>
 5    1  0.5681061E+000  0.8908875E+02  0.7546771E-02  0.1305074E+00
         -1   -1    0    0    0  501 -0.00000000000E+00  0.00000000000E+00  0.10783541774E+02  0.10783541774E+02  0.00000000000E+00 0.  1.
          1   -1    0    0  501    0  0.00000000000E+00 -0.00000000000E+00 -0.18400273068E+03  0.18400273068E+03  0.00000000000E+00 0. -1.
         23    2    1    2    0    0  0.00000000000E+00  0.00000000000E+00 -0.17321918891E+03  0.19478627246E+03  0.89088745257E+02 0.  0.
        -11    1    3    3    0    0  0.21887856520E+02  0.20893735635E+02 -0.15137263797E+02  0.33834349515E+02  0.00000000000E+00 0.  1.
         11    1    3    3    0    0 -0.21887856520E+02 -0.20893735635E+02 -0.15808192511E+03  0.16095192294E+03  0.00000000000E+00 0. -1.
<mgrwt>
<rscale>  0 0.89088745E+02</rscale>
<asrwt>0</asrwt>
<pdfrwt beam="2">  1        1 0.28308112E-01 0.89088745E+02</pdfrwt>
<pdfrwt beam="1">  1       -1 0.16590064E-02 0.89088745E+02</pdfrwt>
<totfact> 0.12398206E+05</totfact>
</mgrwt>
</event>
<event>
 5    1  0.5681061E+000  0.9352181E+02  0.7546771E-02  0.1294540E+00
         -2   -1    0    0    0  501 -0.00000000000E+00  0.00000000000E+00  0.65567098101E+02  0.65567098101E+02  0.00000000000E+00 0.  1.
          2   -1    0    0  501    0  0.00000000000E+00 -0.00000000000E+00 -0.33348774423E+02  0.33348774423E+02  0.00000000000E+00 0. -1.
         23    2    1    2    0    0  0.00000000000E+00  0.00000000000E+00  0.32218323678E+02  0.98915872524E+02  0.93521812731E+02 0.  0.
        -11    1    3    3    0    0  0.23730716420E+02  0.73936397046E+01  0.58001311477E+02  0.63102812480E+02  0.00000000000E+00 0.  1.
         11    1    3    3    0    0 -0.23730716420E+02 -0.73936397046E+01 -0.25782987799E+02  0.35813060044E+02  0.00000000000E+00 0. -1.
<mgrwt>
<rscale>  0 0.93521813E+02</rscale>
<asrwt>0</asrwt>
<pdfrwt beam="2">  1        2 0.51305807E-02 0.93521813E+02</pdfrwt>
<pdfrwt beam="1">  1       -2 0.10087246E-01 0.93521813E+02</pdfrwt>
<totfact> 0.84408969E+04</totfact>
</mgrwt>
</event>
<event>
 5    1  0.5681061E+000  0.8949677E+02  0.7546771E-02  0.1304075E+00
         -1   -1    0    0    0  501 -0.00000000000E+00  0.00000000000E+00  0.30645539768E+02  0.30645539768E+02  0.00000000000E+00 0.  1.
          1   -1    0    0  501    0  0.00000000000E+00 -0.00000000000E+00 -0.65341251293E+02  0.65341251293E+02  0.00000000000E+00 0. -1.
         23    2    1    2    0    0  0.00000000000E+00  0.00000000000E+00 -0.34695711525E+02  0.95986791061E+02  0.89496768992E+02 0.  0.
        -11    1    3    3    0    0 -0.18432966864E+02 -0.19671524100E+02  0.20958787946E+02  0.34146945984E+02  0.00000000000E+00 0.  1.
         11    1    3    3    0    0  0.18432966864E+02  0.19671524100E+02 -0.55654499471E+02  0.61839845078E+02  0.00000000000E+00 0. -1.
<mgrwt>
<rscale>  0 0.89496769E+02</rscale>
<asrwt>0</asrwt>
<pdfrwt beam="2">  1        1 0.10052500E-01 0.89496769E+02</pdfrwt>
<pdfrwt beam="1">  1       -1 0.47146985E-02 0.89496769E+02</pdfrwt>
<totfact> 0.10276898E+05</totfact>
</mgrwt>
</event>
<event>
 5    1  0.5681061E+000  0.9184554E+02  0.7546771E-02  0.1298443E+00
         -1   -1    0    0    0  501 -0.00000000000E+00  0.00000000000E+00  0.16324607596E+02  0.16324607596E+02  0.00000000000E+00 0.  1.
          1   -1    0    0  501    0  0.00000000000E+00 -0.00000000000E+00 -0.12918538812E+03  0.12918538812E+03  0.00000000000E+00 0. -1.
         23    2    1    2    0    0  0.00000000000E+00  0.00000000000E+00 -0.11286078053E+03  0.14550999572E+03  0.91845539211E+02 0.  0.
        -11    1    3    3    0    0 -0.43132757268E+02 -0.15340228378E+02 -0.62174051551E+02  0.77209908966E+02  0.00000000000E+00 0.  1.
         11    1    3    3    0    0  0.43132757268E+02  0.15340228378E+02 -0.50686728975E+02  0.68300086752E+02  0.00000000000E+00 0. -1.
<mgrwt>
<rscale>  0 0.91845539E+02</rscale>
<asrwt>0</asrwt>
<pdfrwt beam="2">  1        1 0.19874675E-01 0.91845539E+02</pdfrwt>
<pdfrwt beam="1">  1       -1 0.25114781E-02 0.91845539E+02</pdfrwt>
<totfact> 0.10700442E+05</totfact>
</mgrwt>
</event>
<event>
 5    1  0.5681061E+000  0.8631942E+02  0.7546771E-02  0.1312018E+00
         -4   -1    0    0    0  501 -0.00000000000E+00  0.00000000000E+00  0.13572354034E+03  0.13572354034E+03  0.00000000000E+00 0.  1.
          4   -1    0    0  501    0  0.00000000000E+00 -0.00000000000E+00 -0.13724667258E+02  0.13724667258E+02  0.00000000000E+00 0. -1.
         23    2    1    2    0    0  0.00000000000E+00  0.00000000000E+00  0.12199887308E+03  0.14944820760E+03  0.86319416826E+02 0.  0.
        -11    1    3    3    0    0 -0.41541998663E+02 -0.26949490360E+01  0.80721514760E+02  0.90823803864E+02  0.00000000000E+00 0.  1.
         11    1    3    3    0    0  0.41541998663E+02  0.26949490360E+01  0.41277358323E+02  0.58624403736E+02  0.00000000000E+00 0. -1.
<mgrwt>
<rscale>  0 0.86319417E+02</rscale>
<asrwt>0</asrwt>
<pdfrwt beam="2">  1        4 0.21114874E-02 0.86319417E+02</pdfrwt>
<pdfrwt beam="1">  1       -4 0.20880544E-01 0.86319417E+02</pdfrwt>
<totfact> 0.27441004E+04</totfact>
</mgrwt>
</event>
<event>
 5    1  0.5681061E+000  0.8591179E+02  0.7546771E-02  0.1313065E+00
          4   -1    0    0  501    0  0.00000000000E+00  0.00000000000E+00  0.51589904445E+02  0.51589904445E+02  0.00000000000E+00 0. -1.
         -4   -1    0    0    0  501 -0.00000000000E+00 -0.00000000000E+00 -0.35766858562E+02  0.35766858562E+02  0.00000000000E+00 0.  1.
         23    2    1    2    0    0  0.00000000000E+00  0.00000000000E+00  0.15823045883E+02  0.87356763007E+02  0.85911787678E+02 0.  0.
        -11    1    3    3    0    0 -0.18367042340E+02 -0.35875564127E+02 -0.71978940528E+01  0.40941592843E+02  0.00000000000E+00 0.  1.
         11    1    3    3    0    0  0.18367042340E+02  0.35875564127E+02  0.23020939936E+02  0.46415170164E+02  0.00000000000E+00 0. -1.
<mgrwt>
<rscale>  0 0.85911788E+02</rscale>
<asrwt>0</asrwt>
<pdfrwt beam="1">  1        4 0.79369084E-02 0.85911788E+02</pdfrwt>
<pdfrwt beam="2">  1       -4 0.55025936E-02 0.85911788E+02</pdfrwt>
<totfact> 0.32015878E+04</totfact>
</mgrwt>
</event>
<event>
 5    1  0.5681061E+000  0.9289748E+02  0.7546771E-02  0.1295983E+00
         -3   -1    0    0    0  501 -0.00000000000E+00  0.00000000000E+00  0.23122897728E+02  0.23122897728E+02  0.00000000000E+00 0.  1.
          3   -1    0    0  501    0  0.00000000000E+00 -0.00000000000E+00 -0.93305154005E+02  0.93305154005E+02  0.00000000000E+00 0. -1.
         23    2    1    2    0    0  0.00000000000E+00  0.00000000000E+00 -0.70182256277E+02  0.11642805173E+03  0.92897481851E+02 0.  0.
        -11    1    3    3    0    0  0.33182636945E+02  0.20396130110E+02 -0.33751581016E+01  0.39095795302E+02  0.00000000000E+00 0.  1.
         11    1    3    3    0    0 -0.33182636945E+02 -0.20396130110E+02 -0.66807098176E+02  0.77332256431E+02  0.00000000000E+00 0. -1.
<mgrwt>
<rscale>  0 0.92897482E+02</rscale>
<asrwt>0</asrwt>
<pdfrwt beam="2">  1        3 0.14354639E-01 0.92897482E+02</pdfrwt>
<pdfrwt beam="1">  1       -3 0.35573689E-02 0.92897482E+02</pdfrwt>
<totfact> 0.31829449E+04</totfact>
</mgrwt>
</event>
<event>
 5    1  0.5681061E+000  0.9351504E+02  0.7546771E-02  0.1294556E+00
          2   -1    0    0  501    0  0.00000000000E+00  0.00000000000E+00  0.43839785325E+03  0.43839785325E+03  0.00000000000E+00 0. -1.
         -2   -1    0    0    0  501 -0.00000000000E+00 -0.00000000000E+00 -0.49869439311E+01  0.49869439311E+01  0.00000000000E+00 0.  1.
         23    2    1    2    0    0  0.00000000000E+00  0.00000000000E+00  0.43341090932E+03  0.44338479718E+03  0.93515036517E+02 0.  0.
        -11    1    3    3    0    0 -0.45136869540E+02 -0.56091642193E+01  0.16531824123E+03  0.17146113437E+03  0.00000000000E+00 0.  1.
         11    1    3    3    0    0  0.45136869540E+02  0.56091642193E+01  0.26809266808E+03  0.27192366281E+03  0.00000000000E+00 0. -1.
<mgrwt>
<rscale>  0 0.93515037E+02</rscale>
<asrwt>0</asrwt>
<pdfrwt beam="1">  1        2 0.67445793E-01 0.93515037E+02</pdfrwt>
<pdfrwt beam="2">  1       -2 0.76722249E-03 0.93515037E+02</pdfrwt>
<totfact> 0.19276517E+05</totfact>
</mgrwt>
</event>
<event>
 5    1  0.5681061E+000  0.9077502E+02  0.7546771E-02  0.1300986E+00
         -1   -1    0    0    0  501 -0.00000000000E+00  0.00000000000E+00  0.30734855795E+02  0.30734855795E+02  0.00000000000E+00 0.  1.
          1   -1    0    0  501    0  0.00000000000E+00 -0.00000000000E+00 -0.67025725392E+02  0.67025725392E+02  0.00000000000E+00 0. -1.
         23    2    1    2    0    0  0.00000000000E+00  0.00000000000E+00 -0.36290869598E+02  0.97760581187E+02  0.90775018688E+02 0.  0.
        -11    1    3    3    0    0  0.14916891503E+01 -0.14333049086E+02  0.28205730904E+02  0.31673722365E+02  0.00000000000E+00 0.  1.
         11    1    3    3    0    0 -0.14916891503E+01  0.14333049086E+02 -0.64496600502E+02  0.66086858822E+02  0.00000000000E+00 0. -1.
<mgrwt>
<rscale>  0 0.90775019E+02</rscale>
<asrwt>0</asrwt>
<pdfrwt beam="2">  1        1 0.10311650E-01 0.90775019E+02</pdfrwt>
<pdfrwt beam="1">  1       -1 0.47284394E-02 0.90775019E+02</pdfrwt>
<totfact> 0.99212438E+04</totfact>
</mgrwt>
</event>
<event>
 5    1  0.5681061E+000  0.9078348E+02  0.7546771E-02  0.1300965E+00
          1   -1    0    0  501    0  0.00000000000E+00  0.00000000000E+00  0.54085612863E+02  0.54085612863E+02  0.00000000000E+00 0. -1.
         -1   -1    0    0    0  501 -0.00000000000E+00 -0.00000000000E+00 -0.38095347768E+02  0.38095347768E+02  0.00000000000E+00 0.  1.
         23    2    1    2    0    0  0.00000000000E+00  0.00000000000E+00  0.15990265095E+02  0.92180960631E+02  0.90783483768E+02 0.  0.
        -11    1    3    3    0    0  0.28962265383E+02  0.12752663871E+02 -0.25047572537E+02  0.40358693511E+02  0.00000000000E+00 0.  1.
         11    1    3    3    0    0 -0.28962265383E+02 -0.12752663871E+02  0.41037837632E+02  0.51822267120E+02  0.00000000000E+00 0. -1.
<mgrwt>
<rscale>  0 0.90783484E+02</rscale>
<asrwt>0</asrwt>
<pdfrwt beam="1">  1        1 0.83208635E-02 0.90783484E+02</pdfrwt>
<pdfrwt beam="2">  1       -1 0.58608227E-02 0.90783484E+02</pdfrwt>
<totfact> 0.96024680E+04</totfact>
</mgrwt>
</event>
<event>
 5    1  0.5681061E+000  0.9010062E+02  0.7546771E-02  0.1302608E+00
         -1   -1    0    0    0  501 -0.00000000000E+00  0.00000000000E+00  0.60261625127E+02  0.60261625127E+02  0.00000000000E+00 0.  1.
          1   -1    0    0  501    0  0.00000000000E+00 -0.00000000000E+00 -0.33678654796E+02  0.33678654796E+02  0.00000000000E+00 0. -1.
         23    2    1    2    0    0  0.00000000000E+00  0.00000000000E+00  0.26582970330E+02  0.93940279923E+02  0.90100620866E+02 0.  0.
        -11    1    3    3    0    0  0.19200938589E+02 -0.40722348010E+02  0.14954709737E+02  0.47440794823E+02  0.00000000000E+00 0.  1.
         11    1    3    3    0    0 -0.19200938589E+02  0.40722348010E+02  0.11628260593E+02  0.46499485100E+02  0.00000000000E+00 0. -1.
<mgrwt>
<rscale>  0 0.90100621E+02</rscale>
<asrwt>0</asrwt>
<pdfrwt beam="2">  1        1 0.51813315E-02 0.90100621E+02</pdfrwt>
<pdfrwt beam="1">  1       -1 0.92710192E-02 0.90100621E+02</pdfrwt>
<totfact> 0.91327009E+04</totfact>
</mgrwt>
</event>
<event>
 5    1  0.5681061E+000  0.1063536E+03  0.7546771E-02  0.1267475E+00
         -1   -1    0    0    0  501 -0.00000000000E+00  0.00000000000E+00  0.36656090272E+02  0.36656090272E+02  0.00000000000E+00 0.  1.
          1   -1    0    0  501    0  0.00000000000E+00 -0.00000000000E+00 -0.77143314171E+02  0.77143314171E+02  0.00000000000E+00 0. -1.
         23    2    1    2    0    0  0.00000000000E+00  0.00000000000E+00 -0.40487223900E+02  0.11379940444E+03  0.10635360432E+03 0.  0.
        -11    1    3    3    0    0 -0.42682541936E+02  0.12540408142E+02  0.10928606340E+02  0.45809340303E+02  0.00000000000E+00 0.  1.
         11    1    3    3    0    0  0.42682541936E+02 -0.12540408142E+02 -0.51415830240E+02  0.67990064140E+02  0.00000000000E+00 0. -1.
<mgrwt>
<rscale>  0 0.10635360E+03</rscale>
<asrwt>0</asrwt>
<pdfrwt beam="2">  1        1 0.11868202E-01 0.10635360E+03</pdfrwt>
<pdfrwt beam="1">  1       -1 0.56393986E-02 0.10635360E+03</pdfrwt>
<totfact> 0.65288346E+04</totfact>
</mgrwt>
</event>
<event>
 5    1  0.5681061E+000  0.8680888E+02  0.7546771E-02  0.1310769E+00
          1   -1    0    0  501    0  0.00000000000E+00  0.00000000000E+00  0.23088878258E+02  0.23088878258E+02  0.00000000000E+00 0. -1.
         -1   -1    0    0    0  501 -0.00000000000E+00 -0.00000000000E+00 -0.81595372223E+02  0.81595372223E+02  0.00000000000E+00 0.  1.
         23    2    1    2    0    0  0.00000000000E+00  0.00000000000E+00 -0.58506493965E+02  0.10468425048E+03  0.86808884700E+02 0.  0.
        -11    1    3    3    0    0 -0.16441850248E+02 -0.30619849721E+02  0.21014116195E+01  0.34818465895E+02  0.00000000000E+00 0. -1.
         11    1    3    3    0    0  0.16441850248E+02  0.30619849721E+02 -0.60607905584E+02  0.69865784586E+02  0.00000000000E+00 0.  1.
<mgrwt>
<rscale>  0 0.86808885E+02</rscale>
<asrwt>0</asrwt>
<pdfrwt beam="1">  1        1 0.35521351E-02 0.86808885E+02</pdfrwt>
<pdfrwt beam="2">  1       -1 0.12553134E-01 0.86808885E+02</pdfrwt>
<totfact> 0.95653989E+04</totfact>
</mgrwt>
</event>
<event>
 5    1  0.5681061E+000  0.9037639E+02  0.7546771E-02  0.1301943E+00
          2   -1    0    0  501    0  0.00000000000E+00  0.00000000000E+00  0.26113957681E+02  0.26113957681E+02  0.00000000000E+00 0. -1.
         -2   -1    0    0    0  501 -0.00000000000E+00 -0.00000000000E+00 -0.78194694057E+02  0.78194694057E+02  0.00000000000E+00 0.  1.
         23    2    1    2    0    0  0.00000000000E+00  0.00000000000E+00 -0.52080736375E+02  0.10430865174E+03  0.90376389207E+02 0.  0.
        -11    1    3    3    0    0 -0.10110163786E+02 -0.24728008954E+02 -0.68104377820E+02  0.73156654631E+02  0.00000000000E+00 0.  1.
         11    1    3    3    0    0  0.10110163786E+02  0.24728008954E+02  0.16023641445E+02  0.31151997107E+02  0.00000000000E+00 0. -1.
<mgrwt>
<rscale>  0 0.90376389E+02</rscale>
<asrwt>0</asrwt>
<pdfrwt beam="1">  1        2 0.40175320E-02 0.90376389E+02</pdfrwt>
<pdfrwt beam="2">  1       -2 0.12029953E-01 0.90376389E+02</pdfrwt>
<totfact> 0.87486354E+04</totfact>
</mgrwt>
</event>
<event>
 5    1  0.5681061E+000  0.9351725E+02  0.7546771E-02  0.1294551E+00
          2   -1    0    0  501    0  0.00000000000E+00  0.00000000000E+00  0.25728424092E+02  0.25728424092E+02  0.00000000000E+00 0. -1.
         -2   -1    0    0    0  501 -0.00000000000E+00 -0.00000000000E+00 -0.84978731985E+02  0.84978731985E+02  0.00000000000E+00 0.  1.
         23    2    1    2    0    0  0.00000000000E+00  0.00000000000E+00 -0.59250307892E+02  0.11070715608E+03  0.93517246652E+02 0.  0.
        -11    1    3    3    0    0  0.33395122927E+02  0.70883211363E+00 -0.68360204623E+02  0.76084520465E+02  0.00000000000E+00 0.  1.
         11    1    3    3    0    0 -0.33395122927E+02 -0.70883211363E+00  0.91098967306E+01  0.34622635612E+02  0.00000000000E+00 0. -1.
<mgrwt>
<rscale>  0 0.93517247E+02</rscale>
<asrwt>0</asrwt>
<pdfrwt beam="1">  1        2 0.39582191E-02 0.93517247E+02</pdfrwt>
<pdfrwt beam="2">  1       -2 0.13073651E-01 0.93517247E+02</pdfrwt>
<totfact> 0.78587902E+04</totfact>
</mgrwt>
</event>
<event>
 5    1  0.5681061E+000  0.9230804E+02  0.7546771E-02  0.1297357E+00
          2   -1    0    0  501    0  0.00000000000E+00  0.00000000000E+00  0.53829476020E+02  0.53829476020E+02  0.00000000000E+00 0. -1.
         -2   -1    0    0    0  501 -0.00000000000E+00 -0.00000000000E+00 -0.39572991355E+02  0.39572991355E+02  0.00000000000E+00 0.  1.
         23    2    1    2    0    0  0.00000000000E+00  0.00000000000E+00  0.14256484666E+02  0.93402467375E+02  0.92308036252E+02 0.  0.
        -11    1    3    3    0    0 -0.33684096016E+02  0.30934771262E+02  0.13416014693E+02  0.47660967758E+02  0.00000000000E+00 0.  1.
         11    1    3    3    0    0  0.33684096016E+02 -0.30934771262E+02  0.84046997294E+00  0.45741499617E+02  0.00000000000E+00 0. -1.
<mgrwt>
<rscale>  0 0.92308036E+02</rscale>
<asrwt>0</asrwt>
<pdfrwt beam="1">  1        2 0.82814578E-02 0.92308036E+02</pdfrwt>
<pdfrwt beam="2">  1       -2 0.60881525E-02 0.92308036E+02</pdfrwt>
<totfact> 0.99501991E+04</totfact>
</mgrwt>
</event>
<event>
 5    1  0.5681061E+000  0.9022540E+02  0.7546771E-02  0.1302307E+00
          2   -1    0    0  501    0  0.00000000000E+00  0.00000000000E+00  0.18540334956E+02  0.18540334956E+02  0.00000000000E+00 0. -1.
         -2   -1    0    0    0  501 -0.00000000000E+00 -0.00000000000E+00 -0.10976908705E+03  0.10976908705E+03  0.00000000000E+00 0.  1.
         23    2    1    2    0    0  0.00000000000E+00  0.00000000000E+00 -0.91228752094E+02  0.12830942201E+03  0.90225398679E+02 0.  0.
        -11    1    3    3    0    0  0.40800859731E+02 -0.48671068663E+01 -0.19132898959E+02  0.45326225373E+02  0.00000000000E+00 0. -1.
         11    1    3    3    0    0 -0.40800859731E+02  0.48671068663E+01 -0.72095853135E+02  0.82983196632E+02  0.00000000000E+00 0.  1.
<mgrwt>
<rscale>  0 0.90225399E+02</rscale>
<asrwt>0</asrwt>
<pdfrwt beam="1">  1        2 0.28523592E-02 0.90225399E+02</pdfrwt>
<pdfrwt beam="2">  1       -2 0.16887552E-01 0.90225399E+02</pdfrwt>
<totfact> 0.79635014E+04</totfact>
</mgrwt>
</event>
<event>
 5    1  0.5681061E+000  0.9069376E+02  0.7546771E-02  0.1301180E+00
         -2   -1    0    0    0  501 -0.00000000000E+00  0.00000000000E+00  0.25834753266E+03  0.25834753266E+03  0.00000000000E+00 0.  1.
          2   -1    0    0  501    0  0.00000000000E+00 -0.00000000000E+00 -0.79595869007E+01  0.79595869007E+01  0.00000000000E+00 0. -1.
         23    2    1    2    0    0  0.00000000000E+00  0.00000000000E+00  0.25038794576E+03  0.26630711956E+03  0.90693762449E+02 0.  0.
        -11    1    3    3    0    0  0.19730009448E+02  0.40577293206E+02  0.13850487432E+03  0.14566876881E+03  0.00000000000E+00 0.  1.
         11    1    3    3    0    0 -0.19730009448E+02 -0.40577293206E+02  0.11188307144E+03  0.12063835075E+03  0.00000000000E+00 0. -1.
<mgrwt>
<rscale>  0 0.90693762E+02</rscale>
<asrwt>0</asrwt>
<pdfrwt beam="2">  1        2 0.12245520E-02 0.90693762E+02</pdfrwt>
<pdfrwt beam="1">  1       -2 0.39745768E-01 0.90693762E+02</pdfrwt>
<totfact> 0.56012549E+04</totfact>
</mgrwt>
</event>
<event>
 5    1  0.5681061E+000  0.9238059E+02  0.7546771E-02  0.1297187E+00
         -1   -1    0    0    0  501 -0.00000000000E+00  0.00000000000E+00  0.29066330407E+02  0.29066330407E+02  0.00000000000E+00 0.  1.
          1   -1    0    0  501    0  0.00000000000E+00 -0.00000000000E+00 -0.73402576894E+02  0.73402576894E+02  0.00000000000E+00 0. -1.
         23    2    1    2    0    0  0.00000000000E+00  0.00000000000E+00 -0.44336246487E+02  0.10246890730E+03  0.92380594342E+02 0.  0.
        -11    1    3    3    0    0  0.73439144709E+01  0.38752111462E+02  0.44962765458E+01  0.39697301234E+02  0.00000000000E+00 0.  1.
         11    1    3    3    0    0 -0.73439144709E+01 -0.38752111462E+02 -0.48832523033E+02  0.62771606067E+02  0.00000000000E+00 0. -1.
<mgrwt>
<rscale>  0 0.92380594E+02</rscale>
<asrwt>0</asrwt>
<pdfrwt beam="2">  1        1 0.11292704E-01 0.92380594E+02</pdfrwt>
<pdfrwt beam="1">  1       -1 0.44717432E-02 0.92380594E+02</pdfrwt>
<totfact> 0.95863379E+04</totfact>
</mgrwt>
</event>
<event>
 5    1  0.5681061E+000  0.9223745E+02  0.7546771E-02  0.1297522E+00
         -2   -1    0    0    0  501 -0.00000000000E+00  0.00000000000E+00  0.93907081285E+01  0.93907081285E+01  0.00000000000E+00 0. -1.
          2   -1    0    0  501    0  0.00000000000E+00 -0.00000000000E+00 -0.22649375473E+03  0.22649375473E+03  0.00000000000E+00 0.  1.
         23    2    1    2    0    0  0.00000000000E+00  0.00000000000E+00 -0.21710304660E+03  0.23588446285E+03  0.92237448871E+02 0.  0.
        -11    1    3    3    0    0  0.37585500953E+02 -0.99984665341E+01 -0.17193578519E+03  0.17627975903E+03  0.00000000000E+00 0.  1.
         11    1    3    3    0    0 -0.37585500953E+02  0.99984665341E+01 -0.45167261408E+02  0.59604703825E+02  0.00000000000E+00 0. -1.
<mgrwt>
<rscale>  0 0.92237449E+02</rscale>
<asrwt>0</asrwt>
<pdfrwt beam="2">  1        2 0.34845194E-01 0.92237449E+02</pdfrwt>
<pdfrwt beam="1">  1       -2 0.14447243E-02 0.92237449E+02</pdfrwt>
<totfact> 0.15690345E+05</totfact>
</mgrwt>
</event>
<event>
 5    1  0.5681061E+000  0.9115917E+02  0.7546771E-02  0.1300069E+00
         -4   -1    0    0    0  501 -0.00000000000E+00  0.00000000000E+00  0.58819425057E+02  0.58819425057E+02  0.00000000000E+00 0.  1.
          4   -1    0    0  501    0  0.00000000000E+00 -0.00000000000E+00 -0.35319942859E+02  0.35319942859E+02  0.00000000000E+00 0. -1.
         23    2    1    2    0    0  0.00000000000E+00  0.00000000000E+00  0.23499482199E+02  0.94139367916E+02  0.91159173581E+02 0.  0.
        -11    1    3    3    0    0  0.98211917391E+01  0.17907903364E+02  0.53829254750E+02  0.57573756843E+02  0.00000000000E+00 0.  1.
         11    1    3    3    0    0 -0.98211917391E+01 -0.17907903364E+02 -0.30329772551E+02  0.36565611073E+02  0.00000000000E+00 0. -1.
<mgrwt>
<rscale>  0 0.91159174E+02</rscale>
<asrwt>0</asrwt>
<pdfrwt beam="2">  1        4 0.54338374E-02 0.91159174E+02</pdfrwt>
<pdfrwt beam="1">  1       -4 0.90491423E-02 0.91159174E+02</pdfrwt>
<totfact> 0.26840825E+04</totfact>
</mgrwt>
</event>
<event>
 5    1  0.5681061E+000  0.8144494E+02  0.7546771E-02  0.1325000E+00
         -2   -1    0    0    0  501 -0.00000000000E+00  0.00000000000E+00  0.83349596532E+02  0.83349596532E+02  0.00000000000E+00 0.  1.
          2   -1    0    0  501    0  0.00000000000E+00 -0.00000000000E+00 -0.19895950912E+02  0.19895950912E+02  0.00000000000E+00 0. -1.
         23    2    1    2    0    0  0.00000000000E+00  0.00000000000E+00  0.63453645620E+02  0.10324554744E+03  0.81444937992E+02 0.  0.
        -11    1    3    3    0    0  0.71670798498E+01  0.38513346723E+02  0.17629149508E+02  0.42958489519E+02  0.00000000000E+00 0. -1.
         11    1    3    3    0    0 -0.71670798498E+01 -0.38513346723E+02  0.45824496112E+02  0.60287057925E+02  0.00000000000E+00 0.  1.
<mgrwt>
<rscale>  0 0.81444938E+02</rscale>
<asrwt>0</asrwt>
<pdfrwt beam="2">  1        2 0.30609156E-02 0.81444938E+02</pdfrwt>
<pdfrwt beam="1">  1       -2 0.12823015E-01 0.81444938E+02</pdfrwt>
<totfact> 0.11110748E+05</totfact>
</mgrwt>
</event>
<event>
 5    1  0.5681061E+000  0.9086417E+02  0.7546771E-02  0.1300772E+00
          1   -1    0    0  501    0  0.00000000000E+00  0.00000000000E+00  0.12382630619E+02  0.12382630619E+02  0.00000000000E+00 0. -1.
         -1   -1    0    0    0  501 -0.00000000000E+00 -0.00000000000E+00 -0.16669108795E+03  0.16669108795E+03  0.00000000000E+00 0.  1.
         23    2    1    2    0    0  0.00000000000E+00  0.00000000000E+00 -0.15430845733E+03  0.17907371857E+03  0.90864166086E+02 0.  0.
        -11    1    3    3    0    0 -0.36628855785E+02 -0.25992743739E+02 -0.63675102678E+02  0.77921848697E+02  0.00000000000E+00 0.  1.
         11    1    3    3    0    0  0.36628855785E+02  0.25992743739E+02 -0.90633354656E+02  0.10115186988E+03  0.00000000000E+00 0. -1.
<mgrwt>
<rscale>  0 0.90864166E+02</rscale>
<asrwt>0</asrwt>
<pdfrwt beam="1">  1        1 0.19050201E-02 0.90864166E+02</pdfrwt>
<pdfrwt beam="2">  1       -1 0.25644782E-01 0.90864166E+02</pdfrwt>
<totfact> 0.73553438E+04</totfact>
</mgrwt>
</event>
<event>
 5    1  0.5681061E+000  0.9206458E+02  0.7546771E-02  0.1297928E+00
         -2   -1    0    0    0  501 -0.00000000000E+00  0.00000000000E+00  0.17236752921E+02  0.17236752921E+02  0.00000000000E+00 0.  1.
          2   -1    0    0  501    0  0.00000000000E+00 -0.00000000000E+00 -0.12293333967E+03  0.12293333967E+03  0.00000000000E+00 0. -1.
         23    2    1    2    0    0  0.00000000000E+00  0.00000000000E+00 -0.10569658675E+03  0.14017009259E+03  0.92064577372E+02 0.  0.
        -11    1    3    3    0    0  0.24412531429E+02  0.36503804174E+02 -0.31835751791E+02  0.54240340173E+02  0.00000000000E+00 0.  1.
         11    1    3    3    0    0 -0.24412531429E+02 -0.36503804174E+02 -0.73860834959E+02  0.85929752419E+02  0.00000000000E+00 0. -1.
<mgrwt>
<rscale>  0 0.92064577E+02</rscale>
<asrwt>0</asrwt>
<pdfrwt beam="2">  1        2 0.18912822E-01 0.92064577E+02</pdfrwt>
<pdfrwt beam="1">  1       -2 0.26518081E-02 0.92064577E+02</pdfrwt>
<totfact> 0.12745286E+05</totfact>
</mgrwt>
</event>
<event>
 5    1  0.5681061E+000  0.9144828E+02  0.7546771E-02  0.1299382E+00
          1   -1    0    0  501    0  0.00000000000E+00  0.00000000000E+00  0.39188282944E+02  0.39188282944E+02  0.00000000000E+00 0. -1.
         -1   -1    0    0    0  501 -0.00000000000E+00 -0.00000000000E+00 -0.53350056158E+02  0.53350056158E+02  0.00000000000E+00 0.  1.
         23    2    1    2    0    0  0.00000000000E+00  0.00000000000E+00 -0.14161773215E+02  0.92538339102E+02  0.91448282560E+02 0.  0.
        -11    1    3    3    0    0 -0.30854540626E+01 -0.19109298580E+02  0.34837666018E+02  0.39854087526E+02  0.00000000000E+00 0. -1.
         11    1    3    3    0    0  0.30854540626E+01  0.19109298580E+02 -0.48999439232E+02  0.52684251576E+02  0.00000000000E+00 0.  1.
<mgrwt>
<rscale>  0 0.91448283E+02</rscale>
<asrwt>0</asrwt>
<pdfrwt beam="1">  1        1 0.60289666E-02 0.91448283E+02</pdfrwt>
<pdfrwt beam="2">  1       -1 0.82077009E-02 0.91448283E+02</pdfrwt>
<totfact> 0.89623761E+04</totfact>
</mgrwt>
</event>
<event>
 5    1  0.5681061E+000  0.9042316E+02  0.7546771E-02  0.1301830E+00
          1   -1    0    0  501    0  0.00000000000E+00  0.00000000000E+00  0.24214471829E+02  0.24214471829E+02  0.00000000000E+00 0. -1.
         -1   -1    0    0    0  501 -0.00000000000E+00 -0.00000000000E+00 -0.84415930979E+02  0.84415930979E+02  0.00000000000E+00 0.  1.
         23    2    1    2    0    0  0.00000000000E+00  0.00000000000E+00 -0.60201459150E+02  0.10863040281E+03  0.90423164788E+02 0.  0.
        -11    1    3    3    0    0 -0.57014030015E+01  0.38652381961E+02 -0.57431894668E+02  0.69461753164E+02  0.00000000000E+00 0.  1.
         11    1    3    3    0    0  0.57014030015E+01 -0.38652381961E+02 -0.27695644824E+01  0.39168649644E+02  0.00000000000E+00 0. -1.
<mgrwt>
<rscale>  0 0.90423165E+02</rscale>
<asrwt>0</asrwt>
<pdfrwt beam="1">  1        1 0.37253034E-02 0.90423165E+02</pdfrwt>
<pdfrwt beam="2">  1       -1 0.12987066E-01 0.90423165E+02</pdfrwt>
<totfact> 0.85679951E+04</totfact>
</mgrwt>
</event>
<event>
 5    1  0.5681061E+000  0.9087927E+02  0.7546771E-02  0.1300736E+00
          1   -1    0    0  501    0  0.00000000000E+00  0.00000000000E+00  0.15002594201E+03  0.15002594201E+03  0.00000000000E+00 0. -1.
         -1   -1    0    0    0  501 -0.00000000000E+00 -0.00000000000E+00 -0.13762688243E+02  0.13762688243E+02  0.00000000000E+00 0.  1.
         23    2    1    2    0    0  0.00000000000E+00  0.00000000000E+00  0.13626325377E+03  0.16378863026E+03  0.90879266465E+02 0.  0.
        -11    1    3    3    0    0  0.27786850908E+02 -0.30500642864E+02  0.33824034307E+02  0.53352259514E+02  0.00000000000E+00 0. -1.
         11    1    3    3    0    0 -0.27786850908E+02  0.30500642864E+02  0.10243921946E+03  0.11043637074E+03  0.00000000000E+00 0.  1.
<mgrwt>
<rscale>  0 0.90879266E+02</rscale>
<asrwt>0</asrwt>
<pdfrwt beam="1">  1        1 0.23080913E-01 0.90879266E+02</pdfrwt>
<pdfrwt beam="2">  1       -1 0.21173368E-02 0.90879266E+02</pdfrwt>
<totfact> 0.11312937E+05</totfact>
</mgrwt>
</event>
<event>
 5    1  0.5681061E+000  0.9150782E+02  0.7546771E-02  0.1299241E+00
         -1   -1    0    0    0  501 -0.00000000000E+00  0.00000000000E+00  0.50163500966E+02  0.50163500966E+02  0.00000000000E+00 0.  1.
          1   -1    0    0  501    0  0.00000000000E+00 -0.00000000000E+00 -0.41731942935E+02  0.41731942935E+02  0.00000000000E+00 0. -1.
         23    2    1    2    0    0  0.00000000000E+00  0.00000000000E+00  0.84315580314E+01  0.91895443901E+02  0.91507821736E+02 0.  0.
        -11    1    3    3    0    0  0.52833585346E+01 -0.44779962353E+02  0.12011487053E+02  0.46662990977E+02  0.00000000000E+00 0. -1.
         11    1    3    3    0    0 -0.52833585346E+01  0.44779962353E+02 -0.35799290214E+01  0.45232452924E+02  0.00000000000E+00 0.  1.
<mgrwt>
<rscale>  0 0.91507822E+02</rscale>
<asrwt>0</asrwt>
<pdfrwt beam="2">  1        1 0.64202989E-02 0.91507822E+02</pdfrwt>
<pdfrwt beam="1">  1       -1 0.77174617E-02 0.91507822E+02</pdfrwt>
<totfact> 0.90319744E+04</totfact>
</mgrwt>
</event>
<event>
 5    1  0.5681061E+000  0.8744584E+02  0.7546771E-02  0.1309158E+00
          1   -1    0    0  501    0  0.00000000000E+00  0.00000000000E+00  0.24025520762E+02  0.24025520762E+02  0.00000000000E+00 0. -1.
         -1   -1    0    0    0  501 -0.00000000000E+00 -0.00000000000E+00 -0.79569301325E+02  0.79569301325E+02  0.00000000000E+00 0.  1.
         23    2    1    2    0    0  0.00000000000E+00  0.00000000000E+00 -0.55543780563E+02  0.10359482209E+03  0.87445843835E+02 0.  0.
        -11    1    3    3    0    0  0.22865761051E+02  0.27498930809E+02  0.20258927480E+01  0.35820922176E+02  0.00000000000E+00 0. -1.
         11    1    3    3    0    0 -0.22865761051E+02 -0.27498930809E+02 -0.57569673311E+02  0.67773899911E+02  0.00000000000E+00 0.  1.
<mgrwt>
<rscale>  0 0.87445844E+02</rscale>
<asrwt>0</asrwt>
<pdfrwt beam="1">  1        1 0.36962340E-02 0.87445844E+02</pdfrwt>
<pdfrwt beam="2">  1       -1 0.12241431E-01 0.87445844E+02</pdfrwt>
<totfact> 0.94276716E+04</totfact>
</mgrwt>
</event>
<event>
 5    1  0.5681061E+000  0.9100163E+02  0.7546771E-02  0.1300444E+00
          3   -1    0    0  501    0  0.00000000000E+00  0.00000000000E+00  0.10925013310E+03  0.10925013310E+03  0.00000000000E+00 0. -1.
         -3   -1    0    0    0  501 -0.00000000000E+00 -0.00000000000E+00 -0.18950312179E+02  0.18950312179E+02  0.00000000000E+00 0.  1.
         23    2    1    2    0    0  0.00000000000E+00  0.00000000000E+00  0.90299820923E+02  0.12820044528E+03  0.91001629170E+02 0.  0.
        -11    1    3    3    0    0 -0.35981717352E+02  0.24816146960E+02  0.62958412368E+02  0.76643896179E+02  0.00000000000E+00 0. -1.
         11    1    3    3    0    0  0.35981717352E+02 -0.24816146960E+02  0.27341408555E+02  0.51556549102E+02  0.00000000000E+00 0.  1.
<mgrwt>
<rscale>  0 0.91001629E+02</rscale>
<asrwt>0</asrwt>
<pdfrwt beam="1">  1        3 0.16807712E-01 0.91001629E+02</pdfrwt>
<pdfrwt beam="2">  1       -3 0.29154327E-02 0.91001629E+02</pdfrwt>
<totfact> 0.32865928E+04</totfact>
</mgrwt>
</event>
<event>
 5    1  0.5681061E+000  0.8913937E+02  0.7546771E-02  0.1304949E+00
         -2   -1    0    0    0  501 -0.00000000000E+00  0.00000000000E+00  0.70829415306E+02  0.70829415306E+02  0.00000000000E+00 0. -1.
          2   -1    0    0  501    0  0.00000000000E+00 -0.00000000000E+00 -0.28045649363E+02  0.28045649363E+02  0.00000000000E+00 0.  1.
         23    2    1    2    0    0  0.00000000000E+00  0.00000000000E+00  0.42783765943E+02  0.98875064669E+02  0.89139372811E+02 0.  0.
        -11    1    3    3    0    0  0.31496941759E+02 -0.31425468797E+02  0.18491001904E+02  0.48182305680E+02  0.00000000000E+00 0.  1.
         11    1    3    3    0    0 -0.31496941759E+02  0.31425468797E+02  0.24292764039E+02  0.50692758989E+02  0.00000000000E+00 0. -1.
<mgrwt>
<rscale>  0 0.89139373E+02</rscale>
<asrwt>0</asrwt>
<pdfrwt beam="2">  1        2 0.43147153E-02 0.89139373E+02</pdfrwt>
<pdfrwt beam="1">  1       -2 0.10896833E-01 0.89139373E+02</pdfrwt>
<totfact> 0.92921642E+04</totfact>
</mgrwt>
</event>
<event>
 5    1  0.5681061E+000  0.7921837E+02  0.7546771E-02  0.1331284E+00
         -4   -1    0    0    0  501 -0.00000000000E+00  0.00000000000E+00  0.11546138789E+03  0.11546138789E+03  0.00000000000E+00 0. -1.
          4   -1    0    0  501    0  0.00000000000E+00 -0.00000000000E+00 -0.13587982960E+02  0.13587982960E+02  0.00000000000E+00 0.  1.
         23    2    1    2    0    0  0.00000000000E+00  0.00000000000E+00  0.10187340493E+03  0.12904937085E+03  0.79218365829E+02 0.  0.
        -11    1    3    3    0    0  0.28625920348E+02 -0.25658735956E+02  0.35390453890E+02  0.52252256154E+02  0.00000000000E+00 0.  1.
         11    1    3    3    0    0 -0.28625920348E+02  0.25658735956E+02  0.66482951040E+02  0.76797114696E+02  0.00000000000E+00 0. -1.
<mgrwt>
<rscale>  0 0.79218366E+02</rscale>
<asrwt>0</asrwt>
<pdfrwt beam="2">  1        4 0.20904590E-02 0.79218366E+02</pdfrwt>
<pdfrwt beam="1">  1       -4 0.17763290E-01 0.79218366E+02</pdfrwt>
<totfact> 0.36046557E+04</totfact>
</mgrwt>
</event>
<event>
 5    1  0.5681061E+000  0.9265362E+02  0.7546771E-02  0.1296550E+00
         -2   -1    0    0    0  501 -0.00000000000E+00  0.00000000000E+00  0.91112712487E+01  0.91112712487E+01  0.00000000000E+00 0.  1.
          2   -1    0    0  501    0  0.00000000000E+00 -0.00000000000E+00 -0.23555147714E+03  0.23555147714E+03  0.00000000000E+00 0. -1.
         23    2    1    2    0    0  0.00000000000E+00  0.00000000000E+00 -0.22644020589E+03  0.24466274838E+03  0.92653621650E+02 0.  0.
        -11    1    3    3    0    0  0.41085289752E+02 -0.88663853063E+01 -0.61774835617E+02  0.74717763202E+02  0.00000000000E+00 0.  1.
         11    1    3    3    0    0 -0.41085289752E+02  0.88663853063E+01 -0.16466537027E+03  0.16994498518E+03  0.00000000000E+00 0. -1.
<mgrwt>
<rscale>  0 0.92653622E+02</rscale>
<asrwt>0</asrwt>
<pdfrwt beam="2">  1        2 0.36238684E-01 0.92653622E+02</pdfrwt>
<pdfrwt beam="1">  1       -2 0.14017342E-02 0.92653622E+02</pdfrwt>
<totfact> 0.15727380E+05</totfact>
</mgrwt>
</event>
<event>
 5    1  0.5681061E+000  0.8787014E+02  0.7546771E-02  0.1308093E+00
         -3   -1    0    0    0  501 -0.00000000000E+00  0.00000000000E+00  0.31016411116E+03  0.31016411116E+03  0.00000000000E+00 0.  1.
          3   -1    0    0  501    0  0.00000000000E+00 -0.00000000000E+00 -0.62234489626E+01  0.62234489626E+01  0.00000000000E+00 0. -1.
         23    2    1    2    0    0  0.00000000000E+00  0.00000000000E+00  0.30394066220E+03  0.31638756012E+03  0.87870143185E+02 0.  0.
        -11    1    3    3    0    0 -0.19686801761E+02 -0.34196364366E+02  0.22154064106E+03  0.22502714756E+03  0.00000000000E+00 0.  1.
         11    1    3    3    0    0  0.19686801761E+02  0.34196364366E+02  0.82400021138E+02  0.91360412559E+02  0.00000000000E+00 0. -1.
<mgrwt>
<rscale>  0 0.87870143E+02</rscale>
<asrwt>0</asrwt>
<pdfrwt beam="2">  1        3 0.95745393E-03 0.87870143E+02</pdfrwt>
<pdfrwt beam="1">  1       -3 0.47717544E-01 0.87870143E+02</pdfrwt>
<totfact> 0.25830967E+04</totfact>
</mgrwt>
</event>
<event>
 5    1  0.5681061E+000  0.9035067E+02  0.7546771E-02  0.1302005E+00
          3   -1    0    0  501    0  0.00000000000E+00  0.00000000000E+00  0.76452319510E+02  0.76452319510E+02  0.00000000000E+00 0. -1.
         -3   -1    0    0    0  501 -0.00000000000E+00 -0.00000000000E+00 -0.26693902203E+02  0.26693902203E+02  0.00000000000E+00 0.  1.
         23    2    1    2    0    0  0.00000000000E+00  0.00000000000E+00  0.49758417307E+02  0.10314622171E+03  0.90350666632E+02 0.  0.
        -11    1    3    3    0    0 -0.26151507251E+01  0.45018784540E+02  0.27959632539E+02  0.53059127645E+02  0.00000000000E+00 0. -1.
         11    1    3    3    0    0  0.26151507251E+01 -0.45018784540E+02  0.21798784769E+02  0.50087094068E+02  0.00000000000E+00 0.  1.
<mgrwt>
<rscale>  0 0.90350667E+02</rscale>
<asrwt>0</asrwt>
<pdfrwt beam="1">  1        3 0.11761895E-01 0.90350667E+02</pdfrwt>
<pdfrwt beam="2">  1       -3 0.41067542E-02 0.90350667E+02</pdfrwt>
<totfact> 0.35301475E+04</totfact>
</mgrwt>
</event>
<event>
 5    1  0.5681061E+000  0.9116070E+02  0.7546771E-02  0.1300065E+00
         -1   -1    0    0    0  501 -0.00000000000E+00  0.00000000000E+00  0.73667999682E+02  0.73667999682E+02  0.00000000000E+00 0.  1.
          1   -1    0    0  501    0  0.00000000000E+00 -0.00000000000E+00 -0.28201772905E+02  0.28201772905E+02  0.00000000000E+00 0. -1.
         23    2    1    2    0    0  0.00000000000E+00  0.00000000000E+00  0.45466226777E+02  0.10186977259E+03  0.91160697615E+02 0.  0.
        -11    1    3    3    0    0 -0.31017508490E+02  0.14445303303E+02  0.56384052013E+02  0.65953877383E+02  0.00000000000E+00 0.  1.
         11    1    3    3    0    0  0.31017508490E+02 -0.14445303303E+02 -0.10917825236E+02  0.35915895204E+02  0.00000000000E+00 0. -1.
<mgrwt>
<rscale>  0 0.91160698E+02</rscale>
<asrwt>0</asrwt>
<pdfrwt beam="2">  1        1 0.43387343E-02 0.91160698E+02</pdfrwt>
<pdfrwt beam="1">  1       -1 0.11333538E-01 0.91160698E+02</pdfrwt>
<totfact> 0.85860707E+04</totfact>
</mgrwt>
</event>
<event>
 4    1  0.5681061E+000  0.3736806E+02  0.7546771E-02  0.1528524E+00
         -2   -1    0    0    0  501 -0.00000000000E+00  0.00000000000E+00  0.23904479858E+02  0.23904479858E+02  0.00000000000E+00 0.  1.
          2   -1    0    0  501    0  0.00000000000E+00 -0.00000000000E+00 -0.14603663028E+02  0.14603663028E+02  0.00000000000E+00 0. -1.
        -11    1    1    2    0    0 -0.17567287525E+02 -0.80204471891E+00 -0.18540665882E+01  0.17683054873E+02  0.00000000000E+00 0. -1.
         11    1    1    2    0    0  0.17567287525E+02  0.80204471891E+00  0.11154883418E+02  0.20825088014E+02  0.00000000000E+00 0.  1.
<mgrwt>
<rscale>  0 0.37368060E+02</rscale>
<asrwt>0</asrwt>
<pdfrwt beam="2">  1        2 0.22467174E-02 0.37368060E+02</pdfrwt>
<pdfrwt beam="1">  1       -2 0.36776123E-02 0.37368060E+02</pdfrwt>
<totfact> 0.90146196E+05</totfact>
</mgrwt>
</event>
<event>
 5    1  0.5681061E+000  0.9122367E+02  0.7546771E-02  0.1299915E+00
          2   -1    0    0  501    0  0.00000000000E+00  0.00000000000E+00  0.80964759602E+01  0.80964759602E+01  0.00000000000E+00 0. -1.
         -2   -1    0    0    0  501 -0.00000000000E+00 -0.00000000000E+00 -0.25695614722E+03  0.25695614722E+03  0.00000000000E+00 0.  1.
         23    2    1    2    0    0  0.00000000000E+00  0.00000000000E+00 -0.24885967126E+03  0.26505262318E+03  0.91223665104E+02 0.  0.
        -11    1    3    3    0    0  0.19142799613E+02 -0.40011950429E+02 -0.93538720605E+02  0.10352243818E+03  0.00000000000E+00 0. -1.
         11    1    3    3    0    0 -0.19142799613E+02  0.40011950429E+02 -0.15532095065E+03  0.16153018500E+03  0.00000000000E+00 0.  1.
<mgrwt>
<rscale>  0 0.91223665E+02</rscale>
<asrwt>0</asrwt>
<pdfrwt beam="1">  1        2 0.12456115E-02 0.91223665E+02</pdfrwt>
<pdfrwt beam="2">  1       -2 0.39531720E-01 0.91223665E+02</pdfrwt>
<totfact> 0.55332969E+04</totfact>
</mgrwt>
</event>
<event>
 5    1  0.5681061E+000  0.9006612E+02  0.7546771E-02  0.1302692E+00
         -4   -1    0    0    0  501 -0.00000000000E+00  0.00000000000E+00  0.96128995806E+01  0.96128995806E+01  0.00000000000E+00 0.  1.
          4   -1    0    0  501    0  0.00000000000E+00 -0.00000000000E+00 -0.21096406286E+03  0.21096406286E+03  0.00000000000E+00 0. -1.
         23    2    1    2    0    0  0.00000000000E+00  0.00000000000E+00 -0.20135116328E+03  0.22057696244E+03  0.90066116856E+02 0.  0.
        -11    1    3    3    0    0 -0.12463257889E+02 -0.39476477344E+02 -0.57260837291E+02  0.70657827223E+02  0.00000000000E+00 0.  1.
         11    1    3    3    0    0  0.12463257889E+02  0.39476477344E+02 -0.14409032599E+03  0.14991913521E+03  0.00000000000E+00 0. -1.
<mgrwt>
<rscale>  0 0.90066117E+02</rscale>
<asrwt>0</asrwt>
<pdfrwt beam="2">  1        4 0.32456010E-01 0.90066117E+02</pdfrwt>
<pdfrwt beam="1">  1       -4 0.14789076E-02 0.90066117E+02</pdfrwt>
<totfact> 0.21239234E+04</totfact>
</mgrwt>
</event>
<event>
 5    1  0.5681061E+000  0.9183487E+02  0.7546771E-02  0.1298468E+00
         -1   -1    0    0    0  501 -0.00000000000E+00  0.00000000000E+00  0.84074766207E+01  0.84074766207E+01  0.00000000000E+00 0.  1.
          1   -1    0    0  501    0  0.00000000000E+00 -0.00000000000E+00 -0.25077808773E+03  0.25077808773E+03  0.00000000000E+00 0. -1.
         23    2    1    2    0    0  0.00000000000E+00  0.00000000000E+00 -0.24237061111E+03  0.25918556435E+03  0.91834871581E+02 0.  0.
        -11    1    3    3    0    0 -0.37934708127E+02  0.21314495860E+02 -0.16257422733E+03  0.16829655138E+03  0.00000000000E+00 0. -1.
         11    1    3    3    0    0  0.37934708127E+02 -0.21314495860E+02 -0.79796383777E+02  0.90889012969E+02  0.00000000000E+00 0.  1.
<mgrwt>
<rscale>  0 0.91834872E+02</rscale>
<asrwt>0</asrwt>
<pdfrwt beam="2">  1        1 0.38581249E-01 0.91834872E+02</pdfrwt>
<pdfrwt beam="1">  1       -1 0.12934578E-02 0.91834872E+02</pdfrwt>
<totfact> 0.12138783E+05</totfact>
</mgrwt>
</event>
<event>
 5    1  0.5681061E+000  0.8168838E+02  0.7546771E-02  0.1324327E+00
          2   -1    0    0  501    0  0.00000000000E+00  0.00000000000E+00  0.16430046908E+02  0.16430046908E+02  0.00000000000E+00 0. -1.
         -2   -1    0    0    0  501 -0.00000000000E+00 -0.00000000000E+00 -0.10153641302E+03  0.10153641302E+03  0.00000000000E+00 0.  1.
         23    2    1    2    0    0  0.00000000000E+00  0.00000000000E+00 -0.85106366111E+02  0.11796645993E+03  0.81688384213E+02 0.  0.
        -11    1    3    3    0    0 -0.20928415057E+02 -0.11796443193E+02  0.51480060477E+01  0.24569423987E+02  0.00000000000E+00 0. -1.
         11    1    3    3    0    0  0.20928415057E+02  0.11796443193E+02 -0.90254372159E+02  0.93397035941E+02  0.00000000000E+00 0.  1.
<mgrwt>
<rscale>  0 0.81688384E+02</rscale>
<asrwt>0</asrwt>
<pdfrwt beam="1">  1        2 0.25276994E-02 0.81688384E+02</pdfrwt>
<pdfrwt beam="2">  1       -2 0.15620987E-01 0.81688384E+02</pdfrwt>
<totfact> 0.10444682E+05</totfact>
</mgrwt>
</event>
<event>
 5    1  0.5681061E+000  0.8942739E+02  0.7546771E-02  0.1304244E+00
          2   -1    0    0  501    0  0.00000000000E+00  0.00000000000E+00  0.28872469406E+03  0.28872469406E+03  0.00000000000E+00 0. -1.
         -2   -1    0    0    0  501 -0.00000000000E+00 -0.00000000000E+00 -0.69246405559E+01  0.69246405559E+01  0.00000000000E+00 0.  1.
         23    2    1    2    0    0  0.00000000000E+00  0.00000000000E+00  0.28180005350E+03  0.29564933461E+03  0.89427394593E+02 0.  0.
        -11    1    3    3    0    0  0.33267299136E+02  0.19532386513E+02  0.66159884554E+02  0.76585622925E+02  0.00000000000E+00 0.  1.
         11    1    3    3    0    0 -0.33267299136E+02 -0.19532386513E+02  0.21564016895E+03  0.21906371169E+03  0.00000000000E+00 0. -1.
<mgrwt>
<rscale>  0 0.89427395E+02</rscale>
<asrwt>0</asrwt>
<pdfrwt beam="1">  1        2 0.44419174E-01 0.89427395E+02</pdfrwt>
<pdfrwt beam="2">  1       -2 0.10653295E-02 0.89427395E+02</pdfrwt>
<totfact> 0.18650087E+05</totfact>
</mgrwt>
</event>
<event>
 5    1  0.5681061E+000  0.9061580E+02  0.7546771E-02  0.1301367E+00
          1   -1    0    0  501    0  0.00000000000E+00  0.00000000000E+00  0.20140651700E+02  0.20140651700E+02  0.00000000000E+00 0. -1.
         -1   -1    0    0    0  501 -0.00000000000E+00 -0.00000000000E+00 -0.10192351480E+03  0.10192351480E+03  0.00000000000E+00 0.  1.
         23    2    1    2    0    0  0.00000000000E+00  0.00000000000E+00 -0.81782863105E+02  0.12206416650E+03  0.90615804619E+02 0.  0.
        -11    1    3    3    0    0  0.13233089573E+02  0.16370051019E+02  0.13153931069E+02  0.24821747170E+02  0.00000000000E+00 0. -1.
         11    1    3    3    0    0 -0.13233089573E+02 -0.16370051019E+02 -0.94936794174E+02  0.97242419335E+02  0.00000000000E+00 0.  1.
<mgrwt>
<rscale>  0 0.90615805E+02</rscale>
<asrwt>0</asrwt>
<pdfrwt beam="1">  1        1 0.30985618E-02 0.90615805E+02</pdfrwt>
<pdfrwt beam="2">  1       -1 0.15680541E-01 0.90615805E+02</pdfrwt>
<totfact> 0.82380308E+04</totfact>
</mgrwt>
</event>
<event>
 5    1  0.5681061E+000  0.9198624E+02  0.7546771E-02  0.1298112E+00
         -1   -1    0    0    0  501 -0.00000000000E+00  0.00000000000E+00  0.70985396169E+02  0.70985396169E+02  0.00000000000E+00 0. -1.
          1   -1    0    0  501    0  0.00000000000E+00 -0.00000000000E+00 -0.29800031837E+02  0.29800031837E+02  0.00000000000E+00 0.  1.
         23    2    1    2    0    0  0.00000000000E+00  0.00000000000E+00  0.41185364333E+02  0.10078542801E+03  0.91986239531E+02 0.  0.
        -11    1    3    3    0    0 -0.21141038662E+02 -0.13938594438E+01 -0.24134859039E+02  0.32115070928E+02  0.00000000000E+00 0.  1.
         11    1    3    3    0    0  0.21141038662E+02  0.13938594438E+01  0.65320223372E+02  0.68670357078E+02  0.00000000000E+00 0. -1.
<mgrwt>
<rscale>  0 0.91986240E+02</rscale>
<asrwt>0</asrwt>
<pdfrwt beam="2">  1        1 0.45846203E-02 0.91986240E+02</pdfrwt>
<pdfrwt beam="1">  1       -1 0.10920830E-01 0.91986240E+02</pdfrwt>
<totfact> 0.84416715E+04</totfact>
</mgrwt>
</event>
<event>
 5    1  0.5681061E+000  0.6478990E+02  0.7546771E-02  0.1378764E+00
         -1   -1    0    0    0  501 -0.00000000000E+00  0.00000000000E+00  0.16307391351E+02  0.16307391351E+02  0.00000000000E+00 0.  1.
          1   -1    0    0  501    0  0.00000000000E+00 -0.00000000000E+00 -0.64353201993E+02  0.64353201993E+02  0.00000000000E+00 0. -1.
         23    2    1    2    0    0  0.00000000000E+00  0.00000000000E+00 -0.48045810642E+02  0.80660593345E+02  0.64789901979E+02 0.  0.
        -11    1    3    3    0    0  0.78867204399E+01 -0.31279982087E+02 -0.20330773312E+02  0.38131063218E+02  0.00000000000E+00 0. -1.
         11    1    3    3    0    0 -0.78867204399E+01  0.31279982087E+02 -0.27715037330E+02  0.42529530127E+02  0.00000000000E+00 0.  1.
<mgrwt>
<rscale>  0 0.64789902E+02</rscale>
<asrwt>0</asrwt>
<pdfrwt beam="2">  1        1 0.99004925E-02 0.64789902E+02</pdfrwt>
<pdfrwt beam="1">  1       -1 0.25088295E-02 0.64789902E+02</pdfrwt>
<totfact> 0.24484296E+05</totfact>
</mgrwt>
</event>
<event>
 5    1  0.5681061E+000  0.9211603E+02  0.7546771E-02  0.1297807E+00
         -1   -1    0    0    0  501 -0.00000000000E+00  0.00000000000E+00  0.98348223515E+02  0.98348223515E+02  0.00000000000E+00 0.  1.
          1   -1    0    0  501    0  0.00000000000E+00 -0.00000000000E+00 -0.21569689649E+02  0.21569689649E+02  0.00000000000E+00 0. -1.
         23    2    1    2    0    0  0.00000000000E+00  0.00000000000E+00  0.76778533866E+02  0.11991791316E+03  0.92116028111E+02 0.  0.
        -11    1    3    3    0    0 -0.26499098030E+02  0.15489490150E+02 -0.63146112350E+01  0.31336892261E+02  0.00000000000E+00 0. -1.
         11    1    3    3    0    0  0.26499098030E+02 -0.15489490150E+02  0.83093145101E+02  0.88581020904E+02  0.00000000000E+00 0.  1.
<mgrwt>
<rscale>  0 0.92116028E+02</rscale>
<asrwt>0</asrwt>
<pdfrwt beam="2">  1        1 0.33184139E-02 0.92116028E+02</pdfrwt>
<pdfrwt beam="1">  1       -1 0.15130496E-01 0.92116028E+02</pdfrwt>
<totfact> 0.79494540E+04</totfact>
</mgrwt>
</event>
<event>
 5    1  0.5681061E+000  0.9246217E+02  0.7546771E-02  0.1296996E+00
         -2   -1    0    0    0  501 -0.00000000000E+00  0.00000000000E+00  0.13537361528E+02  0.13537361528E+02  0.00000000000E+00 0.  1.
          2   -1    0    0  501    0  0.00000000000E+00 -0.00000000000E+00 -0.15788255546E+03  0.15788255546E+03  0.00000000000E+00 0. -1.
         23    2    1    2    0    0  0.00000000000E+00  0.00000000000E+00 -0.14434519394E+03  0.17141991699E+03  0.92462170259E+02 0.  0.
        -11    1    3    3    0    0 -0.12668274686E+02 -0.43224369349E+02 -0.52862879234E+02  0.69450092080E+02  0.00000000000E+00 0.  1.
         11    1    3    3    0    0  0.12668274686E+02  0.43224369349E+02 -0.91482314703E+02  0.10196982491E+03  0.00000000000E+00 0. -1.
<mgrwt>
<rscale>  0 0.92462170E+02</rscale>
<asrwt>0</asrwt>
<pdfrwt beam="2">  1        2 0.24289623E-01 0.92462170E+02</pdfrwt>
<pdfrwt beam="1">  1       -2 0.20826710E-02 0.92462170E+02</pdfrwt>
<totfact> 0.13697602E+05</totfact>
</mgrwt>
</event>
<event>
 5    1  0.5681061E+000  0.9016681E+02  0.7546771E-02  0.1302448E+00
         -4   -1    0    0    0  501 -0.00000000000E+00  0.00000000000E+00  0.17334710434E+03  0.17334710434E+03  0.00000000000E+00 0.  1.
          4   -1    0    0  501    0  0.00000000000E+00 -0.00000000000E+00 -0.11725108274E+02  0.11725108274E+02  0.00000000000E+00 0. -1.
         23    2    1    2    0    0  0.00000000000E+00  0.00000000000E+00  0.16162199607E+03  0.18507221261E+03  0.90166813572E+02 0.  0.
        -11    1    3    3    0    0 -0.16428427493E+02 -0.26938044885E+02  0.14714883300E+02  0.34814929020E+02  0.00000000000E+00 0. -1.
         11    1    3    3    0    0  0.16428427493E+02  0.26938044885E+02  0.14690711276E+03  0.15025728359E+03  0.00000000000E+00 0.  1.
<mgrwt>
<rscale>  0 0.90166814E+02</rscale>
<asrwt>0</asrwt>
<pdfrwt beam="2">  1        4 0.18038629E-02 0.90166814E+02</pdfrwt>
<pdfrwt beam="1">  1       -4 0.26668783E-01 0.90166814E+02</pdfrwt>
<totfact> 0.22692330E+04</totfact>
</mgrwt>
</event>
<event>
 5    1  0.5681061E+000  0.9775636E+02  0.7546771E-02  0.1285086E+00
          1   -1    0    0  501    0  0.00000000000E+00  0.00000000000E+00  0.49037458612E+02  0.49037458612E+02  0.00000000000E+00 0. -1.
         -1   -1    0    0    0  501 -0.00000000000E+00 -0.00000000000E+00 -0.48719417382E+02  0.48719417382E+02  0.00000000000E+00 0.  1.
         23    2    1    2    0    0  0.00000000000E+00  0.00000000000E+00  0.31804122999E+00  0.97756875995E+02  0.97756358637E+02 0.  0.
        -11    1    3    3    0    0  0.34330550590E+02 -0.19612998057E+02  0.28896257050E+02  0.48971931431E+02  0.00000000000E+00 0. -1.
         11    1    3    3    0    0 -0.34330550590E+02  0.19612998057E+02 -0.28578215820E+02  0.48784944563E+02  0.00000000000E+00 0.  1.
<mgrwt>
<rscale>  0 0.97756359E+02</rscale>
<asrwt>0</asrwt>
<pdfrwt beam="1">  1        1 0.75442245E-02 0.97756359E+02</pdfrwt>
<pdfrwt beam="2">  1       -1 0.74952949E-02 0.97756359E+02</pdfrwt>
<totfact> 0.76836176E+04</totfact>
</mgrwt>
</event>
<event>
 5    1  0.5681061E+000  0.9013679E+02  0.7546771E-02  0.1302521E+00
         -1   -1    0    0    0  501 -0.00000000000E+00  0.00000000000E+00  0.16808361128E+03  0.16808361128E+03  0.00000000000E+00 0.  1.
          1   -1    0    0  501    0  0.00000000000E+00 -0.00000000000E+00 -0.12084225697E+02  0.12084225697E+02  0.00000000000E+00 0. -1.
         23    2    1    2    0    0  0.00000000000E+00  0.00000000000E+00  0.15599938558E+03  0.18016783698E+03  0.90136791484E+02 0.  0.
        -11    1    3    3    0    0 -0.16702995771E+02  0.21292009251E+02  0.59636663696E+01  0.27711099621E+02  0.00000000000E+00 0. -1.
         11    1    3    3    0    0  0.16702995771E+02 -0.21292009251E+02  0.15003571921E+03  0.15245673736E+03  0.00000000000E+00 0.  1.
<mgrwt>
<rscale>  0 0.90136791E+02</rscale>
<asrwt>0</asrwt>
<pdfrwt beam="2">  1        1 0.18591118E-02 0.90136791E+02</pdfrwt>
<pdfrwt beam="1">  1       -1 0.25859015E-01 0.90136791E+02</pdfrwt>
<totfact> 0.74947253E+04</totfact>
</mgrwt>
</event>
<event>
 5    1  0.5681061E+000  0.8759865E+02  0.7546771E-02  0.1308773E+00
          2   -1    0    0  501    0  0.00000000000E+00  0.00000000000E+00  0.27871355906E+02  0.27871355906E+02  0.00000000000E+00 0. -1.
         -2   -1    0    0    0  501 -0.00000000000E+00 -0.00000000000E+00 -0.68829842005E+02  0.68829842005E+02  0.00000000000E+00 0.  1.
         23    2    1    2    0    0  0.00000000000E+00  0.00000000000E+00 -0.40958486099E+02  0.96701197911E+02  0.87598653493E+02 0.  0.
        -11    1    3    3    0    0  0.14428096291E+02  0.10730782837E+01  0.25157329805E+02  0.29020901131E+02  0.00000000000E+00 0. -1.
         11    1    3    3    0    0 -0.14428096291E+02 -0.10730782837E+01 -0.66115815903E+02  0.67680296779E+02  0.00000000000E+00 0.  1.
<mgrwt>
<rscale>  0 0.87598653E+02</rscale>
<asrwt>0</asrwt>
<pdfrwt beam="1">  1        2 0.42879010E-02 0.87598653E+02</pdfrwt>
<pdfrwt beam="2">  1       -2 0.10589206E-01 0.87598653E+02</pdfrwt>
<totfact> 0.97685528E+04</totfact>
</mgrwt>
</event>
<event>
 5    1  0.5681061E+000  0.9113166E+02  0.7546771E-02  0.1300134E+00
         -2   -1    0    0    0  501 -0.00000000000E+00  0.00000000000E+00  0.33145047103E+03  0.33145047103E+03  0.00000000000E+00 0. -1.
          2   -1    0    0  501    0  0.00000000000E+00 -0.00000000000E+00 -0.62641181731E+01  0.62641181731E+01  0.00000000000E+00 0.  1.
         23    2    1    2    0    0  0.00000000000E+00  0.00000000000E+00  0.32518635286E+03  0.33771458921E+03  0.91131661218E+02 0.  0.
        -11    1    3    3    0    0 -0.34827062575E+01 -0.44671633824E+02  0.19327763738E+03  0.19840345063E+03  0.00000000000E+00 0. -1.
         11    1    3    3    0    0  0.34827062575E+01  0.44671633824E+02  0.13190871548E+03  0.13931113858E+03  0.00000000000E+00 0.  1.
<mgrwt>
<rscale>  0 0.91131661E+02</rscale>
<asrwt>0</asrwt>
<pdfrwt beam="2">  1        2 0.96371074E-03 0.91131661E+02</pdfrwt>
<pdfrwt beam="1">  1       -2 0.50992367E-01 0.91131661E+02</pdfrwt>
<totfact> 0.48192598E+04</totfact>
</mgrwt>
</event>
<event>
 5    1  0.5681061E+000  0.8023681E+02  0.7546771E-02  0.1328381E+00
          4   -1    0    0  501    0  0.00000000000E+00  0.00000000000E+00  0.10491836648E+02  0.10491836648E+02  0.00000000000E+00 0. -1.
         -4   -1    0    0    0  501 -0.00000000000E+00 -0.00000000000E+00 -0.15340370215E+03  0.15340370215E+03  0.00000000000E+00 0.  1.
         23    2    1    2    0    0  0.00000000000E+00  0.00000000000E+00 -0.14291186550E+03  0.16389553880E+03  0.80236814099E+02 0.  0.
        -11    1    3    3    0    0  0.26747527554E+02 -0.27311582987E+01 -0.10634504224E+02  0.28913355668E+02  0.00000000000E+00 0. -1.
         11    1    3    3    0    0 -0.26747527554E+02  0.27311582987E+01 -0.13227736128E+03  0.13498218313E+03  0.00000000000E+00 0.  1.
<mgrwt>
<rscale>  0 0.80236814E+02</rscale>
<asrwt>0</asrwt>
<pdfrwt beam="1">  1        4 0.16141287E-02 0.80236814E+02</pdfrwt>
<pdfrwt beam="2">  1       -4 0.23600570E-01 0.80236814E+02</pdfrwt>
<totfact> 0.32304422E+04</totfact>
</mgrwt>
</event>
<event>
 5    1  0.5681061E+000  0.8948762E+02  0.7546771E-02  0.1304097E+00
         -1   -1    0    0    0  501 -0.00000000000E+00  0.00000000000E+00  0.61337411839E+02  0.61337411839E+02  0.00000000000E+00 0.  1.
          1   -1    0    0  501    0  0.00000000000E+00 -0.00000000000E+00 -0.32639271071E+02  0.32639271071E+02  0.00000000000E+00 0. -1.
         23    2    1    2    0    0  0.00000000000E+00  0.00000000000E+00  0.28698140768E+02  0.93976682910E+02  0.89487617284E+02 0.  0.
        -11    1    3    3    0    0 -0.31036065325E+02  0.29568098743E+02  0.27818160761E+02  0.51101466537E+02  0.00000000000E+00 0.  1.
         11    1    3    3    0    0  0.31036065325E+02 -0.29568098743E+02  0.87998000749E+00  0.42875216373E+02  0.00000000000E+00 0. -1.
<mgrwt>
<rscale>  0 0.89487617E+02</rscale>
<asrwt>0</asrwt>
<pdfrwt beam="2">  1        1 0.50214264E-02 0.89487617E+02</pdfrwt>
<pdfrwt beam="1">  1       -1 0.94365248E-02 0.89487617E+02</pdfrwt>
<totfact> 0.92666377E+04</totfact>
</mgrwt>
</event>
<event>
 5    1  0.5681061E+000  0.9077141E+02  0.7546771E-02  0.1300994E+00
         -2   -1    0    0    0  501 -0.00000000000E+00  0.00000000000E+00  0.64447442439E+02  0.64447442439E+02  0.00000000000E+00 0.  1.
          2   -1    0    0  501    0  0.00000000000E+00 -0.00000000000E+00 -0.31961892828E+02  0.31961892828E+02  0.00000000000E+00 0. -1.
         23    2    1    2    0    0  0.00000000000E+00  0.00000000000E+00  0.32485549611E+02  0.96409335268E+02  0.90771410660E+02 0.  0.
        -11    1    3    3    0    0  0.10813695444E+02  0.12040880281E+02  0.61278588781E+02  0.63379683260E+02  0.00000000000E+00 0.  1.
         11    1    3    3    0    0 -0.10813695444E+02 -0.12040880281E+02 -0.28793039170E+02  0.33029652008E+02  0.00000000000E+00 0. -1.
<mgrwt>
<rscale>  0 0.90771411E+02</rscale>
<asrwt>0</asrwt>
<pdfrwt beam="2">  1        2 0.49172143E-02 0.90771411E+02</pdfrwt>
<pdfrwt beam="1">  1       -2 0.99149911E-02 0.90771411E+02</pdfrwt>
<totfact> 0.91156679E+04</totfact>
</mgrwt>
</event>
<event>
 5    1  0.5681061E+000  0.9108274E+02  0.7546771E-02  0.1300251E+00
          1   -1    0    0  501    0  0.00000000000E+00  0.00000000000E+00  0.64851159915E+02  0.64851159915E+02  0.00000000000E+00 0. -1.
         -1   -1    0    0    0  501 -0.00000000000E+00 -0.00000000000E+00 -0.31981175776E+02  0.31981175776E+02  0.00000000000E+00 0.  1.
         23    2    1    2    0    0  0.00000000000E+00  0.00000000000E+00  0.32869984140E+02  0.96832335691E+02  0.91082739189E+02 0.  0.
        -11    1    3    3    0    0 -0.38590220242E+02  0.13031219178E+02 -0.52224731826E+01  0.41064485845E+02  0.00000000000E+00 0.  1.
         11    1    3    3    0    0  0.38590220242E+02 -0.13031219178E+02  0.38092457322E+02  0.55767849846E+02  0.00000000000E+00 0. -1.
<mgrwt>
<rscale>  0 0.91082739E+02</rscale>
<asrwt>0</asrwt>
<pdfrwt beam="1">  1        1 0.99771015E-02 0.91082739E+02</pdfrwt>
<pdfrwt beam="2">  1       -1 0.49201809E-02 0.91082739E+02</pdfrwt>
<totfact> 0.97795901E+04</totfact>
</mgrwt>
</event>
<event>
 5    1  0.5681061E+000  0.1094115E+03  0.7546771E-02  0.1261664E+00
         -2   -1    0    0    0  501 -0.00000000000E+00  0.00000000000E+00  0.81775598874E+01  0.81775598874E+01  0.00000000000E+00 0.  1.
          2   -1    0    0  501    0  0.00000000000E+00 -0.00000000000E+00 -0.36596746479E+03  0.36596746479E+03  0.00000000000E+00 0. -1.
         23    2    1    2    0    0  0.00000000000E+00  0.00000000000E+00 -0.35778990490E+03  0.37414502467E+03  0.10941153248E+03 0.  0.
        -11    1    3    3    0    0  0.28574132994E+02 -0.45214733396E+02 -0.13962629660E+03  0.14952041966E+03  0.00000000000E+00 0.  1.
         11    1    3    3    0    0 -0.28574132994E+02  0.45214733396E+02 -0.21816360830E+03  0.22462460502E+03  0.00000000000E+00 0. -1.
<mgrwt>
<rscale>  0 0.10941153E+03</rscale>
<asrwt>0</asrwt>
<pdfrwt beam="2">  1        2 0.56302677E-01 0.10941153E+03</pdfrwt>
<pdfrwt beam="1">  1       -2 0.12580863E-02 0.10941153E+03</pdfrwt>
<totfact> 0.11847683E+05</totfact>
</mgrwt>
</event>
<event>
 5    1  0.5681061E+000  0.9162996E+02  0.7546771E-02  0.1298952E+00
         -1   -1    0    0    0  501 -0.00000000000E+00  0.00000000000E+00  0.43154199006E+02  0.43154199006E+02  0.00000000000E+00 0.  1.
          1   -1    0    0  501    0  0.00000000000E+00 -0.00000000000E+00 -0.48639816184E+02  0.48639816184E+02  0.00000000000E+00 0. -1.
         23    2    1    2    0    0  0.00000000000E+00  0.00000000000E+00 -0.54856171781E+01  0.91794015189E+02  0.91629958140E+02 0.  0.
        -11    1    3    3    0    0  0.40155492737E+02 -0.73422570871E+01  0.18094431664E+02  0.44651772567E+02  0.00000000000E+00 0.  1.
         11    1    3    3    0    0 -0.40155492737E+02  0.73422570871E+01 -0.23580048842E+02  0.47142242623E+02  0.00000000000E+00 0. -1.
<mgrwt>
<rscale>  0 0.91629958E+02</rscale>
<asrwt>0</asrwt>
<pdfrwt beam="2">  1        1 0.74830486E-02 0.91629958E+02</pdfrwt>
<pdfrwt beam="1">  1       -1 0.66391076E-02 0.91629958E+02</pdfrwt>
<totfact> 0.92088220E+04</totfact>
</mgrwt>
</event>
<event>
 5    1  0.5681061E+000  0.9276302E+02  0.7546771E-02  0.1296295E+00
          2   -1    0    0  501    0  0.00000000000E+00  0.00000000000E+00  0.16793802123E+02  0.16793802123E+02  0.00000000000E+00 0. -1.
         -2   -1    0    0    0  501 -0.00000000000E+00 -0.00000000000E+00 -0.12809751800E+03  0.12809751800E+03  0.00000000000E+00 0.  1.
         23    2    1    2    0    0  0.00000000000E+00  0.00000000000E+00 -0.11130371588E+03  0.14489132012E+03  0.92763017839E+02 0.  0.
        -11    1    3    3    0    0  0.32022905155E+02  0.30906842500E+02 -0.35253885610E+02  0.56776190595E+02  0.00000000000E+00 0.  1.
         11    1    3    3    0    0 -0.32022905155E+02 -0.30906842500E+02 -0.76049830267E+02  0.88115129526E+02  0.00000000000E+00 0. -1.
<mgrwt>
<rscale>  0 0.92763018E+02</rscale>
<asrwt>0</asrwt>
<pdfrwt beam="1">  1        2 0.25836617E-02 0.92763018E+02</pdfrwt>
<pdfrwt beam="2">  1       -2 0.19707311E-01 0.92763018E+02</pdfrwt>
<totfact> 0.70674651E+04</totfact>
</mgrwt>
</event>
<event>
 5    1  0.5681061E+000  0.5846049E+02  0.7546771E-02  0.1404408E+00
         -4   -1    0    0    0  501 -0.00000000000E+00  0.00000000000E+00  0.10449888462E+02  0.10449888462E+02  0.00000000000E+00 0.  1.
          4   -1    0    0  501    0  0.00000000000E+00 -0.00000000000E+00 -0.81762338706E+02  0.81762338706E+02  0.00000000000E+00 0. -1.
         23    2    1    2    0    0  0.00000000000E+00  0.00000000000E+00 -0.71312450244E+02  0.92212227168E+02  0.58460493322E+02 0.  0.
        -11    1    3    3    0    0  0.16486335647E+02  0.24131218978E+02 -0.36509051872E+02  0.46765648301E+02  0.00000000000E+00 0. -1.
         11    1    3    3    0    0 -0.16486335647E+02 -0.24131218978E+02 -0.34803398373E+02  0.45446578867E+02  0.00000000000E+00 0.  1.
<mgrwt>
<rscale>  0 0.58460493E+02</rscale>
<asrwt>0</asrwt>
<pdfrwt beam="2">  1        4 0.12578821E-01 0.58460493E+02</pdfrwt>
<pdfrwt beam="1">  1       -4 0.16076752E-02 0.58460493E+02</pdfrwt>
<totfact> 0.86467750E+04</totfact>
</mgrwt>
</event>
<event>
 5    1  0.5681061E+000  0.8912181E+02  0.7546771E-02  0.1304992E+00
         -3   -1    0    0    0  501 -0.00000000000E+00  0.00000000000E+00  0.21791516079E+02  0.21791516079E+02  0.00000000000E+00 0.  1.
          3   -1    0    0  501    0  0.00000000000E+00 -0.00000000000E+00 -0.91121446211E+02  0.91121446211E+02  0.00000000000E+00 0. -1.
         23    2    1    2    0    0  0.00000000000E+00  0.00000000000E+00 -0.69329930132E+02  0.11291296229E+03  0.89121814619E+02 0.  0.
        -11    1    3    3    0    0 -0.40934234047E+02  0.79260874374E+01 -0.14743594252E+02  0.44224517527E+02  0.00000000000E+00 0.  1.
         11    1    3    3    0    0  0.40934234047E+02 -0.79260874374E+01 -0.54586335880E+02  0.68688444763E+02  0.00000000000E+00 0. -1.
<mgrwt>
<rscale>  0 0.89121815E+02</rscale>
<asrwt>0</asrwt>
<pdfrwt beam="2">  1        3 0.14018684E-01 0.89121815E+02</pdfrwt>
<pdfrwt beam="1">  1       -3 0.33525409E-02 0.89121815E+02</pdfrwt>
<totfact> 0.35888230E+04</totfact>
</mgrwt>
</event>
<event>
 5    1  0.5681061E+000  0.9066496E+02  0.7546771E-02  0.1301249E+00
         -3   -1    0    0    0  501 -0.00000000000E+00  0.00000000000E+00  0.11485692564E+02  0.11485692564E+02  0.00000000000E+00 0.  1.
          3   -1    0    0  501    0  0.00000000000E+00 -0.00000000000E+00 -0.17892118476E+03  0.17892118476E+03  0.00000000000E+00 0. -1.
         23    2    1    2    0    0  0.00000000000E+00  0.00000000000E+00 -0.16743549220E+03  0.19040687733E+03  0.90664959525E+02 0.  0.
        -11    1    3    3    0    0  0.12525069211E+02 -0.24213686976E+02 -0.15978292047E+03  0.16209183098E+03  0.00000000000E+00 0. -1.
         11    1    3    3    0    0 -0.12525069211E+02  0.24213686976E+02 -0.76525717286E+01  0.28315046350E+02  0.00000000000E+00 0.  1.
<mgrwt>
<rscale>  0 0.90664960E+02</rscale>
<asrwt>0</asrwt>
<pdfrwt beam="2">  1        3 0.27526336E-01 0.90664960E+02</pdfrwt>
<pdfrwt beam="1">  1       -3 0.17670296E-02 0.90664960E+02</pdfrwt>
<totfact> 0.29445930E+04</totfact>
</mgrwt>
</event>
<event>
 4    1  0.5681061E+000  0.3907401E+03  0.7546771E-02  0.1047034E+00
         -2   -1    0    0    0  501 -0.00000000000E+00  0.00000000000E+00  0.63482888327E+02  0.63482888327E+02  0.00000000000E+00 0.  1.
          2   -1    0    0  501    0  0.00000000000E+00 -0.00000000000E+00 -0.60125589429E+03  0.60125589429E+03  0.00000000000E+00 0. -1.
        -11    1    1    2    0    0  0.87070469442E+02  0.15157864605E+03 -0.12045862248E+03  0.21229138540E+03  0.00000000000E+00 0.  1.
         11    1    1    2    0    0 -0.87070469442E+02 -0.15157864605E+03 -0.41731438348E+03  0.45244739721E+03  0.00000000000E+00 0. -1.
<mgrwt>
<rscale>  0 0.39074012E+03</rscale>
<asrwt>0</asrwt>
<pdfrwt beam="2">  1        2 0.92500903E-01 0.39074012E+03</pdfrwt>
<pdfrwt beam="1">  1       -2 0.97665987E-02 0.39074012E+03</pdfrwt>
<totfact> 0.34879571E+03</totfact>
</mgrwt>
</event>
<event>
 5    1  0.5681061E+000  0.9195776E+02  0.7546771E-02  0.1298179E+00
          1   -1    0    0  501    0  0.00000000000E+00  0.00000000000E+00  0.64587192944E+02  0.64587192944E+02  0.00000000000E+00 0. -1.
         -1   -1    0    0    0  501 -0.00000000000E+00 -0.00000000000E+00 -0.32731836517E+02  0.32731836517E+02  0.00000000000E+00 0.  1.
         23    2    1    2    0    0  0.00000000000E+00  0.00000000000E+00  0.31855356427E+02  0.97319029460E+02  0.91957760749E+02 0.  0.
        -11    1    3    3    0    0 -0.41572725779E+02 -0.17240799803E+02  0.25884755657E+02  0.51918756552E+02  0.00000000000E+00 0. -1.
         11    1    3    3    0    0  0.41572725779E+02  0.17240799803E+02  0.59706007704E+01  0.45400272908E+02  0.00000000000E+00 0.  1.
<mgrwt>
<rscale>  0 0.91957761E+02</rscale>
<asrwt>0</asrwt>
<pdfrwt beam="1">  1        1 0.99364913E-02 0.91957761E+02</pdfrwt>
<pdfrwt beam="2">  1       -1 0.50356671E-02 0.91957761E+02</pdfrwt>
<totfact> 0.95180400E+04</totfact>
</mgrwt>
</event>
<event>
 5    1  0.5681061E+000  0.9316125E+02  0.7546771E-02  0.1295372E+00
         -2   -1    0    0    0  501 -0.00000000000E+00  0.00000000000E+00  0.49439279094E+02  0.49439279094E+02  0.00000000000E+00 0.  1.
          2   -1    0    0  501    0  0.00000000000E+00 -0.00000000000E+00 -0.43887263409E+02  0.43887263409E+02  0.00000000000E+00 0. -1.
         23    2    1    2    0    0  0.00000000000E+00  0.00000000000E+00  0.55520156845E+01  0.93326542503E+02  0.93161250837E+02 0.  0.
        -11    1    3    3    0    0  0.34561949216E+02 -0.14712482623E+02  0.30370646308E+02  0.48304882110E+02  0.00000000000E+00 0.  1.
         11    1    3    3    0    0 -0.34561949216E+02  0.14712482623E+02 -0.24818630624E+02  0.45021660393E+02  0.00000000000E+00 0. -1.
<mgrwt>
<rscale>  0 0.93161251E+02</rscale>
<asrwt>0</asrwt>
<pdfrwt beam="2">  1        2 0.67518867E-02 0.93161251E+02</pdfrwt>
<pdfrwt beam="1">  1       -2 0.76060429E-02 0.93161251E+02</pdfrwt>
<totfact> 0.91818928E+04</totfact>
</mgrwt>
</event>
<event>
 5    1  0.5681061E+000  0.8770696E+02  0.7546771E-02  0.1308502E+00
          3   -1    0    0  501    0  0.00000000000E+00  0.00000000000E+00  0.50286335570E+02  0.50286335570E+02  0.00000000000E+00 0. -1.
         -3   -1    0    0    0  501 -0.00000000000E+00 -0.00000000000E+00 -0.38243544003E+02  0.38243544003E+02  0.00000000000E+00 0.  1.
         23    2    1    2    0    0  0.00000000000E+00  0.00000000000E+00  0.12042791567E+02  0.88529879573E+02  0.87706959521E+02 0.  0.
        -11    1    3    3    0    0 -0.24604944848E+02  0.36265915795E+02  0.44229570147E+01  0.44047502860E+02  0.00000000000E+00 0.  1.
         11    1    3    3    0    0  0.24604944848E+02 -0.36265915795E+02  0.76198345524E+01  0.44482376713E+02  0.00000000000E+00 0. -1.
<mgrwt>
<rscale>  0 0.87706960E+02</rscale>
<asrwt>0</asrwt>
<pdfrwt beam="1">  1        3 0.77363593E-02 0.87706960E+02</pdfrwt>
<pdfrwt beam="2">  1       -3 0.58836222E-02 0.87706960E+02</pdfrwt>
<totfact> 0.39492395E+04</totfact>
</mgrwt>
</event>
<event>
 5    1  0.5681061E+000  0.9426801E+02  0.7546771E-02  0.1292833E+00
         -1   -1    0    0    0  501 -0.00000000000E+00  0.00000000000E+00  0.12260654288E+03  0.12260654288E+03  0.00000000000E+00 0.  1.
          1   -1    0    0  501    0  0.00000000000E+00 -0.00000000000E+00 -0.18119866562E+02  0.18119866562E+02  0.00000000000E+00 0. -1.
         23    2    1    2    0    0  0.00000000000E+00  0.00000000000E+00  0.10448667632E+03  0.14072640944E+03  0.94268005103E+02 0.  0.
        -11    1    3    3    0    0 -0.45714984778E+02 -0.15783544773E+01  0.69215949853E+02  0.82965045352E+02  0.00000000000E+00 0.  1.
         11    1    3    3    0    0  0.45714984778E+02  0.15783544773E+01  0.35270726463E+02  0.57761364088E+02  0.00000000000E+00 0. -1.
<mgrwt>
<rscale>  0 0.94268005E+02</rscale>
<asrwt>0</asrwt>
<pdfrwt beam="2">  1        1 0.27876718E-02 0.94268005E+02</pdfrwt>
<pdfrwt beam="1">  1       -1 0.18862545E-01 0.94268005E+02</pdfrwt>
<totfact> 0.71715309E+04</totfact>
</mgrwt>
</event>
<event>
 5    1  0.5681061E+000  0.9427969E+02  0.7546771E-02  0.1292807E+00
         -2   -1    0    0    0  501 -0.00000000000E+00  0.00000000000E+00  0.11937247542E+02  0.11937247542E+02  0.00000000000E+00 0.  1.
          2   -1    0    0  501    0  0.00000000000E+00 -0.00000000000E+00 -0.18615389663E+03  0.18615389663E+03  0.00000000000E+00 0. -1.
         23    2    1    2    0    0  0.00000000000E+00  0.00000000000E+00 -0.17421664909E+03  0.19809114417E+03  0.94279693357E+02 0.  0.
        -11    1    3    3    0    0  0.42889691727E+02 -0.13895998101E+02 -0.11603497636E+03  0.12448590346E+03  0.00000000000E+00 0.  1.
         11    1    3    3    0    0 -0.42889691727E+02  0.13895998101E+02 -0.58181672723E+02  0.73605240714E+02  0.00000000000E+00 0. -1.
<mgrwt>
<rscale>  0 0.94279693E+02</rscale>
<asrwt>0</asrwt>
<pdfrwt beam="2">  1        2 0.28639062E-01 0.94279693E+02</pdfrwt>
<pdfrwt beam="1">  1       -2 0.18364996E-02 0.94279693E+02</pdfrwt>
<totfact> 0.13769566E+05</totfact>
</mgrwt>
</event>
<event>
 5    1  0.5681061E+000  0.9510335E+02  0.7546771E-02  0.1290943E+00
          2   -1    0    0  501    0  0.00000000000E+00  0.00000000000E+00  0.44130244357E+02  0.44130244357E+02  0.00000000000E+00 0.  1.
         -2   -1    0    0    0  501 -0.00000000000E+00 -0.00000000000E+00 -0.51238368357E+02  0.51238368357E+02  0.00000000000E+00 0. -1.
         23    2    1    2    0    0  0.00000000000E+00  0.00000000000E+00 -0.71081240006E+01  0.95368612714E+02  0.95103348333E+02 0.  0.
        -11    1    3    3    0    0 -0.36650042970E+02  0.28458740180E+02  0.68689744113E+01  0.46907444524E+02  0.00000000000E+00 0.  1.
         11    1    3    3    0    0  0.36650042970E+02 -0.28458740180E+02 -0.13977098412E+02  0.48461168190E+02  0.00000000000E+00 0. -1.
<mgrwt>
<rscale>  0 0.95103348E+02</rscale>
<asrwt>0</asrwt>
<pdfrwt beam="1">  1        2 0.67892684E-02 0.95103348E+02</pdfrwt>
<pdfrwt beam="2">  1       -2 0.78828259E-02 0.95103348E+02</pdfrwt>
<totfact> 0.86616224E+04</totfact>
</mgrwt>
</event>
<event>
 5    1  0.5681061E+000  0.9142169E+02  0.7546771E-02  0.1299445E+00
         -2   -1    0    0    0  501 -0.00000000000E+00  0.00000000000E+00  0.42656685903E+03  0.42656685903E+03  0.00000000000E+00 0.  1.
          2   -1    0    0  501    0  0.00000000000E+00 -0.00000000000E+00 -0.48983673324E+01  0.48983673324E+01  0.00000000000E+00 0. -1.
         23    2    1    2    0    0  0.00000000000E+00  0.00000000000E+00  0.42166849170E+03  0.43146522636E+03  0.91421685991E+02 0.  0.
        -11    1    3    3    0    0  0.15775802004E+02  0.42871217773E+02  0.21853720486E+03  0.22326067085E+03  0.00000000000E+00 0.  1.
         11    1    3    3    0    0 -0.15775802004E+02 -0.42871217773E+02  0.20313128684E+03  0.20820455551E+03  0.00000000000E+00 0. -1.
<mgrwt>
<rscale>  0 0.91421686E+02</rscale>
<asrwt>0</asrwt>
<pdfrwt beam="2">  1        2 0.75359531E-03 0.91421686E+02</pdfrwt>
<pdfrwt beam="1">  1       -2 0.65625641E-01 0.91421686E+02</pdfrwt>
<totfact> 0.40555860E+04</totfact>
</mgrwt>
</event>
<event>
 5    1  0.5681061E+000  0.9310756E+02  0.7546771E-02  0.1295496E+00
         -1   -1    0    0    0  501 -0.00000000000E+00  0.00000000000E+00  0.43608001944E+01  0.43608001944E+01  0.00000000000E+00 0.  1.
          1   -1    0    0  501    0  0.00000000000E+00 -0.00000000000E+00 -0.49698551187E+03  0.49698551187E+03  0.00000000000E+00 0. -1.
         23    2    1    2    0    0  0.00000000000E+00  0.00000000000E+00 -0.49262471168E+03  0.50134631207E+03  0.93107561815E+02 0.  0.
        -11    1    3    3    0    0 -0.41056738160E+02  0.21563828675E+02 -0.22437381611E+03  0.22911626702E+03  0.00000000000E+00 0. -1.
         11    1    3    3    0    0  0.41056738160E+02 -0.21563828675E+02 -0.26825089557E+03  0.27223004505E+03  0.00000000000E+00 0.  1.
<mgrwt>
<rscale>  0 0.93107562E+02</rscale>
<asrwt>0</asrwt>
<pdfrwt beam="2">  1        1 0.76459301E-01 0.93107562E+02</pdfrwt>
<pdfrwt beam="1">  1       -1 0.67089241E-03 0.93107562E+02</pdfrwt>
<totfact> 0.13163749E+05</totfact>
</mgrwt>
</event>
<event>
 5    1  0.5681061E+000  0.9192456E+02  0.7546771E-02  0.1298257E+00
         -1   -1    0    0    0  501 -0.00000000000E+00  0.00000000000E+00  0.13277134005E+02  0.13277134005E+02  0.00000000000E+00 0.  1.
          1   -1    0    0  501    0  0.00000000000E+00 -0.00000000000E+00 -0.15911047201E+03  0.15911047201E+03  0.00000000000E+00 0. -1.
         23    2    1    2    0    0  0.00000000000E+00  0.00000000000E+00 -0.14583333801E+03  0.17238760602E+03  0.91924557295E+02 0.  0.
        -11    1    3    3    0    0 -0.19848506232E+02  0.13999362076E+02  0.25877525301E+00  0.24290168851E+02  0.00000000000E+00 0.  1.
         11    1    3    3    0    0  0.19848506232E+02 -0.13999362076E+02 -0.14609211326E+03  0.14809743717E+03  0.00000000000E+00 0. -1.
<mgrwt>
<rscale>  0 0.91924557E+02</rscale>
<asrwt>0</asrwt>
<pdfrwt beam="2">  1        1 0.24478533E-01 0.91924557E+02</pdfrwt>
<pdfrwt beam="1">  1       -1 0.20426361E-02 0.91924557E+02</pdfrwt>
<totfact> 0.11089195E+05</totfact>
</mgrwt>
</event>
<event>
 5    1  0.5681061E+000  0.9167749E+02  0.7546771E-02  0.1298840E+00
         -2   -1    0    0    0  501 -0.00000000000E+00  0.00000000000E+00  0.23192282231E+02  0.23192282231E+02  0.00000000000E+00 0.  1.
          2   -1    0    0  501    0  0.00000000000E+00 -0.00000000000E+00 -0.90598699601E+02  0.90598699601E+02  0.00000000000E+00 0. -1.
         23    2    1    2    0    0  0.00000000000E+00  0.00000000000E+00 -0.67406417369E+02  0.11379098183E+03  0.91677491478E+02 0.  0.
        -11    1    3    3    0    0 -0.29978391151E+02 -0.33169621642E+02 -0.46254954119E+02  0.64330774256E+02  0.00000000000E+00 0. -1.
         11    1    3    3    0    0  0.29978391151E+02  0.33169621642E+02 -0.21151463251E+02  0.49460207576E+02  0.00000000000E+00 0.  1.
<mgrwt>
<rscale>  0 0.91677491E+02</rscale>
<asrwt>0</asrwt>
<pdfrwt beam="2">  1        2 0.13938261E-01 0.91677491E+02</pdfrwt>
<pdfrwt beam="1">  1       -2 0.35680434E-02 0.91677491E+02</pdfrwt>
<totfact> 0.11730040E+05</totfact>
</mgrwt>
</event>
<event>
 5    1  0.5681061E+000  0.9225245E+02  0.7546771E-02  0.1297487E+00
          1   -1    0    0  501    0  0.00000000000E+00  0.00000000000E+00  0.29227763267E+02  0.29227763267E+02  0.00000000000E+00 0. -1.
         -1   -1    0    0    0  501 -0.00000000000E+00 -0.00000000000E+00 -0.72794777436E+02  0.72794777436E+02  0.00000000000E+00 0.  1.
         23    2    1    2    0    0  0.00000000000E+00  0.00000000000E+00 -0.43567014169E+02  0.10202254070E+03  0.92252447597E+02 0.  0.
        -11    1    3    3    0    0 -0.26407710696E+02  0.11117378930E+02 -0.61759605310E+02  0.68082392339E+02  0.00000000000E+00 0.  1.
         11    1    3    3    0    0  0.26407710696E+02 -0.11117378930E+02  0.18192591141E+02  0.33940148363E+02  0.00000000000E+00 0. -1.
<mgrwt>
<rscale>  0 0.92252448E+02</rscale>
<asrwt>0</asrwt>
<pdfrwt beam="1">  1        1 0.44965790E-02 0.92252448E+02</pdfrwt>
<pdfrwt beam="2">  1       -1 0.11199196E-01 0.92252448E+02</pdfrwt>
<totfact> 0.83450855E+04</totfact>
</mgrwt>
</event>
<event>
 5    1  0.5681061E+000  0.9233078E+02  0.7546771E-02  0.1297304E+00
          4   -1    0    0  501    0  0.00000000000E+00  0.00000000000E+00  0.54382294139E+02  0.54382294139E+02  0.00000000000E+00 0. -1.
         -4   -1    0    0    0  501 -0.00000000000E+00 -0.00000000000E+00 -0.39190023425E+02  0.39190023425E+02  0.00000000000E+00 0.  1.
         23    2    1    2    0    0  0.00000000000E+00  0.00000000000E+00  0.15192270714E+02  0.93572317564E+02  0.92330783192E+02 0.  0.
        -11    1    3    3    0    0  0.43261129746E+02 -0.93768831816E+01  0.20879327536E+02  0.48942799301E+02  0.00000000000E+00 0. -1.
         11    1    3    3    0    0 -0.43261129746E+02  0.93768831816E+01 -0.56870568220E+01  0.44629518263E+02  0.00000000000E+00 0.  1.
<mgrwt>
<rscale>  0 0.92330783E+02</rscale>
<asrwt>0</asrwt>
<pdfrwt beam="1">  1        4 0.83665068E-02 0.92330783E+02</pdfrwt>
<pdfrwt beam="2">  1       -4 0.60292344E-02 0.92330783E+02</pdfrwt>
<totfact> 0.25959273E+04</totfact>
</mgrwt>
</event>
<event>
 5    1  0.5681061E+000  0.9291751E+02  0.7546771E-02  0.1295936E+00
          1   -1    0    0  501    0  0.00000000000E+00  0.00000000000E+00  0.13406868721E+03  0.13406868721E+03  0.00000000000E+00 0. -1.
         -1   -1    0    0    0  501 -0.00000000000E+00 -0.00000000000E+00 -0.16099329943E+02  0.16099329943E+02  0.00000000000E+00 0.  1.
         23    2    1    2    0    0  0.00000000000E+00  0.00000000000E+00  0.11796935727E+03  0.15016801715E+03  0.92917512460E+02 0.  0.
        -11    1    3    3    0    0  0.37567282804E+02 -0.22757554743E+02  0.83452522498E+02  0.94305517052E+02  0.00000000000E+00 0.  1.
         11    1    3    3    0    0 -0.37567282804E+02  0.22757554743E+02  0.34516834770E+02  0.55862500102E+02  0.00000000000E+00 0. -1.
<mgrwt>
<rscale>  0 0.92917512E+02</rscale>
<asrwt>0</asrwt>
<pdfrwt beam="1">  1        1 0.20625951E-01 0.92917512E+02</pdfrwt>
<pdfrwt beam="2">  1       -1 0.24768201E-02 0.92917512E+02</pdfrwt>
<totfact> 0.10438081E+05</totfact>
</mgrwt>
</event>
<event>
 5    1  0.5681061E+000  0.8996169E+02  0.7546771E-02  0.1302944E+00
         -2   -1    0    0    0  501 -0.00000000000E+00  0.00000000000E+00  0.77243282833E+02  0.77243282833E+02  0.00000000000E+00 0.  1.
          2   -1    0    0  501    0  0.00000000000E+00 -0.00000000000E+00 -0.26193559550E+02  0.26193559550E+02  0.00000000000E+00 0. -1.
         23    2    1    2    0    0  0.00000000000E+00  0.00000000000E+00  0.51049723283E+02  0.10343684238E+03  0.89961692486E+02 0.  0.
        -11    1    3    3    0    0 -0.15546366810E+02 -0.41918356331E+02  0.19840861074E+02  0.48913166802E+02  0.00000000000E+00 0. -1.
         11    1    3    3    0    0  0.15546366810E+02  0.41918356331E+02  0.31208862209E+02  0.54523675581E+02  0.00000000000E+00 0.  1.
<mgrwt>
<rscale>  0 0.89961692E+02</rscale>
<asrwt>0</asrwt>
<pdfrwt beam="2">  1        2 0.40297784E-02 0.89961692E+02</pdfrwt>
<pdfrwt beam="1">  1       -2 0.11883582E-01 0.89961692E+02</pdfrwt>
<totfact> 0.88773536E+04</totfact>
</mgrwt>
</event>
<event>
 5    1  0.5681061E+000  0.8988261E+02  0.7546771E-02  0.1303136E+00
          3   -1    0    0  501    0  0.00000000000E+00  0.00000000000E+00  0.10145871437E+03  0.10145871437E+03  0.00000000000E+00 0. -1.
         -3   -1    0    0    0  501 -0.00000000000E+00 -0.00000000000E+00 -0.19906825892E+02  0.19906825892E+02  0.00000000000E+00 0.  1.
         23    2    1    2    0    0  0.00000000000E+00  0.00000000000E+00  0.81551888481E+02  0.12136554026E+03  0.89882611493E+02 0.  0.
        -11    1    3    3    0    0 -0.31787797134E+02  0.29698002750E+02  0.25542108795E+02  0.50446355029E+02  0.00000000000E+00 0.  1.
         11    1    3    3    0    0  0.31787797134E+02 -0.29698002750E+02  0.56009779686E+02  0.70919185236E+02  0.00000000000E+00 0. -1.
<mgrwt>
<rscale>  0 0.89882611E+02</rscale>
<asrwt>0</asrwt>
<pdfrwt beam="1">  1        3 0.15609033E-01 0.89882611E+02</pdfrwt>
<pdfrwt beam="2">  1       -3 0.30625887E-02 0.89882611E+02</pdfrwt>
<totfact> 0.34462597E+04</totfact>
</mgrwt>
</event>
<event>
 5    1  0.5681061E+000  0.8961612E+02  0.7546771E-02  0.1303784E+00
         -1   -1    0    0    0  501 -0.00000000000E+00  0.00000000000E+00  0.43166660747E+02  0.43166660747E+02  0.00000000000E+00 0.  1.
          1   -1    0    0  501    0  0.00000000000E+00 -0.00000000000E+00 -0.46511874658E+02  0.46511874658E+02  0.00000000000E+00 0. -1.
         23    2    1    2    0    0  0.00000000000E+00  0.00000000000E+00 -0.33452139116E+01  0.89678535405E+02  0.89616121631E+02 0.  0.
        -11    1    3    3    0    0  0.65580087643E+01 -0.34924889054E+02  0.25641218328E+02  0.43820399721E+02  0.00000000000E+00 0.  1.
         11    1    3    3    0    0 -0.65580087643E+01  0.34924889054E+02 -0.28986432239E+02  0.45858135684E+02  0.00000000000E+00 0. -1.
<mgrwt>
<rscale>  0 0.89616122E+02</rscale>
<asrwt>0</asrwt>
<pdfrwt beam="2">  1        1 0.71556730E-02 0.89616122E+02</pdfrwt>
<pdfrwt beam="1">  1       -1 0.66410247E-02 0.89616122E+02</pdfrwt>
<totfact> 0.97342357E+04</totfact>
</mgrwt>
</event>
<event>
 5    1  0.5681061E+000  0.9080466E+02  0.7546771E-02  0.1300915E+00
         -3   -1    0    0    0  501 -0.00000000000E+00  0.00000000000E+00  0.50667650266E+02  0.50667650266E+02  0.00000000000E+00 0.  1.
          3   -1    0    0  501    0  0.00000000000E+00 -0.00000000000E+00 -0.40684179827E+02  0.40684179827E+02  0.00000000000E+00 0. -1.
         23    2    1    2    0    0  0.00000000000E+00  0.00000000000E+00  0.99834704398E+01  0.91351830093E+02  0.90804664964E+02 0.  0.
        -11    1    3    3    0    0 -0.23776813001E+02  0.37017265700E+02 -0.62899810541E+01  0.44442982101E+02  0.00000000000E+00 0. -1.
         11    1    3    3    0    0  0.23776813001E+02 -0.37017265700E+02  0.16273451494E+02  0.46908847992E+02  0.00000000000E+00 0.  1.
<mgrwt>
<rscale>  0 0.90804665E+02</rscale>
<asrwt>0</asrwt>
<pdfrwt beam="2">  1        3 0.62591046E-02 0.90804665E+02</pdfrwt>
<pdfrwt beam="1">  1       -3 0.77950231E-02 0.90804665E+02</pdfrwt>
<totfact> 0.35721401E+04</totfact>
</mgrwt>
</event>
<event>
 5    1  0.5681061E+000  0.9269561E+02  0.7546771E-02  0.1296452E+00
          4   -1    0    0  501    0  0.00000000000E+00  0.00000000000E+00  0.82910376677E+02  0.82910376677E+02  0.00000000000E+00 0.  1.
         -4   -1    0    0    0  501 -0.00000000000E+00 -0.00000000000E+00 -0.25908926466E+02  0.25908926466E+02  0.00000000000E+00 0. -1.
         23    2    1    2    0    0  0.00000000000E+00  0.00000000000E+00  0.57001450211E+02  0.10881930314E+03  0.92695606209E+02 0.  0.
        -11    1    3    3    0    0 -0.45365902069E+02 -0.78676792914E+01  0.22271812288E+02  0.51146838325E+02  0.00000000000E+00 0.  1.
         11    1    3    3    0    0  0.45365902069E+02  0.78676792914E+01  0.34729637923E+02  0.57672464819E+02  0.00000000000E+00 0. -1.
<mgrwt>
<rscale>  0 0.92695606E+02</rscale>
<asrwt>0</asrwt>
<pdfrwt beam="1">  1        4 0.12755442E-01 0.92695606E+02</pdfrwt>
<pdfrwt beam="2">  1       -4 0.39859887E-02 0.92695606E+02</pdfrwt>
<totfact> 0.24786283E+04</totfact>
</mgrwt>
</event>
<event>
 5    1  0.5681061E+000  0.9116832E+02  0.7546771E-02  0.1300047E+00
         -1   -1    0    0    0  501 -0.00000000000E+00  0.00000000000E+00  0.59363767809E+01  0.59363767809E+01  0.00000000000E+00 0.  1.
          1   -1    0    0  501    0  0.00000000000E+00 -0.00000000000E+00 -0.35003094160E+03  0.35003094160E+03  0.00000000000E+00 0. -1.
         23    2    1    2    0    0  0.00000000000E+00  0.00000000000E+00 -0.34409456482E+03  0.35596731838E+03  0.91168318057E+02 0.  0.
        -11    1    3    3    0    0 -0.42678862461E+02  0.15941185924E+02 -0.16611443003E+03  0.17224868817E+03  0.00000000000E+00 0.  1.
         11    1    3    3    0    0  0.42678862461E+02 -0.15941185924E+02 -0.17798013479E+03  0.18371863022E+03  0.00000000000E+00 0. -1.
<mgrwt>
<rscale>  0 0.91168318E+02</rscale>
<asrwt>0</asrwt>
<pdfrwt beam="2">  1        1 0.53850921E-01 0.91168318E+02</pdfrwt>
<pdfrwt beam="1">  1       -1 0.91328862E-03 0.91168318E+02</pdfrwt>
<totfact> 0.13186737E+05</totfact>
</mgrwt>
</event>
<event>
 5    1  0.5681061E+000  0.1163767E+03  0.7546771E-02  0.1249197E+00
         -2   -1    0    0    0  501 -0.00000000000E+00  0.00000000000E+00  0.26693225767E+03  0.26693225767E+03  0.00000000000E+00 0.  1.
          2   -1    0    0  501    0  0.00000000000E+00 -0.00000000000E+00 -0.12684423981E+02  0.12684423981E+02  0.00000000000E+00 0. -1.
         23    2    1    2    0    0  0.00000000000E+00  0.00000000000E+00  0.25424783369E+03  0.27961668165E+03  0.11637666313E+03 0.  0.
        -11    1    3    3    0    0  0.34158258187E+02  0.23110373396E+02  0.28496445458E+02  0.50129067063E+02  0.00000000000E+00 0. -1.
         11    1    3    3    0    0 -0.34158258187E+02 -0.23110373396E+02  0.22575138823E+03  0.22948761459E+03  0.00000000000E+00 0.  1.
<mgrwt>
<rscale>  0 0.11637666E+03</rscale>
<asrwt>0</asrwt>
<pdfrwt beam="2">  1        2 0.19514500E-02 0.11637666E+03</pdfrwt>
<pdfrwt beam="1">  1       -2 0.41066497E-01 0.11637666E+03</pdfrwt>
<totfact> 0.28938677E+04</totfact>
</mgrwt>
</event>
<event>
 5    1  0.5681061E+000  0.9998208E+02  0.7546771E-02  0.1280334E+00
         -1   -1    0    0    0  501 -0.00000000000E+00  0.00000000000E+00  0.37272090278E+03  0.37272090278E+03  0.00000000000E+00 0.  1.
          1   -1    0    0  501    0  0.00000000000E+00 -0.00000000000E+00 -0.67050283427E+01  0.67050283427E+01  0.00000000000E+00 0. -1.
         23    2    1    2    0    0  0.00000000000E+00  0.00000000000E+00  0.36601587444E+03  0.37942593112E+03  0.99982082736E+02 0.  0.
        -11    1    3    3    0    0 -0.40678118259E+02  0.27224841033E+02  0.22156028843E+03  0.22690276041E+03  0.00000000000E+00 0.  1.
         11    1    3    3    0    0  0.40678118259E+02 -0.27224841033E+02  0.14445558601E+03  0.15252317071E+03  0.00000000000E+00 0. -1.
<mgrwt>
<rscale>  0 0.99982083E+02</rscale>
<asrwt>0</asrwt>
<pdfrwt beam="2">  1        1 0.10315431E-02 0.99982083E+02</pdfrwt>
<pdfrwt beam="1">  1       -1 0.57341661E-01 0.99982083E+02</pdfrwt>
<totfact> 0.43294410E+04</totfact>
</mgrwt>
</event>
<event>
 5    1  0.5681061E+000  0.8782097E+02  0.7546771E-02  0.1308216E+00
         -1   -1    0    0    0  501 -0.00000000000E+00  0.00000000000E+00  0.69005956198E+01  0.69005956198E+01  0.00000000000E+00 0.  1.
          1   -1    0    0  501    0  0.00000000000E+00 -0.00000000000E+00 -0.27941510461E+03  0.27941510461E+03  0.00000000000E+00 0. -1.
         23    2    1    2    0    0  0.00000000000E+00  0.00000000000E+00 -0.27251450899E+03  0.28631570023E+03  0.87820968953E+02 0.  0.
        -11    1    3    3    0    0  0.30975521502E+02  0.24980641067E+02 -0.75735123957E+02  0.85553049982E+02  0.00000000000E+00 0.  1.
         11    1    3    3    0    0 -0.30975521502E+02 -0.24980641067E+02 -0.19677938503E+03  0.20076265025E+03  0.00000000000E+00 0. -1.
<mgrwt>
<rscale>  0 0.87820969E+02</rscale>
<asrwt>0</asrwt>
<pdfrwt beam="2">  1        1 0.42986927E-01 0.87820969E+02</pdfrwt>
<pdfrwt beam="1">  1       -1 0.10616304E-02 0.87820969E+02</pdfrwt>
<totfact> 0.13964128E+05</totfact>
</mgrwt>
</event>
<event>
 5    1  0.5681061E+000  0.8140715E+02  0.7546771E-02  0.1325105E+00
         -2   -1    0    0    0  501 -0.00000000000E+00  0.00000000000E+00  0.27697867248E+02  0.27697867248E+02  0.00000000000E+00 0.  1.
          2   -1    0    0  501    0  0.00000000000E+00 -0.00000000000E+00 -0.59816193062E+02  0.59816193062E+02  0.00000000000E+00 0. -1.
         23    2    1    2    0    0  0.00000000000E+00  0.00000000000E+00 -0.32118325814E+02  0.87514060310E+02  0.81407148942E+02 0.  0.
        -11    1    3    3    0    0 -0.39734041547E+01 -0.23450864107E+02 -0.51568095457E+02  0.56789078502E+02  0.00000000000E+00 0. -1.
         11    1    3    3    0    0  0.39734041547E+01  0.23450864107E+02  0.19449769643E+02  0.30724981808E+02  0.00000000000E+00 0.  1.
<mgrwt>
<rscale>  0 0.81407149E+02</rscale>
<asrwt>0</asrwt>
<pdfrwt beam="2">  1        2 0.92024911E-02 0.81407149E+02</pdfrwt>
<pdfrwt beam="1">  1       -2 0.42612104E-02 0.81407149E+02</pdfrwt>
<totfact> 0.14542242E+05</totfact>
</mgrwt>
</event>
<event>
 5    1  0.5681061E+000  0.9215285E+02  0.7546771E-02  0.1297720E+00
         -2   -1    0    0    0  501 -0.00000000000E+00  0.00000000000E+00  0.32029925875E+02  0.32029925875E+02  0.00000000000E+00 0.  1.
          2   -1    0    0  501    0  0.00000000000E+00 -0.00000000000E+00 -0.66282924087E+02  0.66282924087E+02  0.00000000000E+00 0. -1.
         23    2    1    2    0    0  0.00000000000E+00  0.00000000000E+00 -0.34252998212E+02  0.98312849962E+02  0.92152854438E+02 0.  0.
        -11    1    3    3    0    0  0.14605720401E+02 -0.39892348983E+02 -0.36160365814E+02  0.55787979275E+02  0.00000000000E+00 0. -1.
         11    1    3    3    0    0 -0.14605720401E+02  0.39892348983E+02  0.19073676014E+01  0.42524870687E+02  0.00000000000E+00 0.  1.
<mgrwt>
<rscale>  0 0.92152854E+02</rscale>
<asrwt>0</asrwt>
<pdfrwt beam="2">  1        2 0.10197373E-01 0.92152854E+02</pdfrwt>
<pdfrwt beam="1">  1       -2 0.49276809E-02 0.92152854E+02</pdfrwt>
<totfact> 0.10575706E+05</totfact>
</mgrwt>
</event>
<event>
 5    1  0.5681061E+000  0.9060257E+02  0.7546771E-02  0.1301399E+00
          1   -1    0    0  501    0  0.00000000000E+00  0.00000000000E+00  0.21746570565E+02  0.21746570565E+02  0.00000000000E+00 0. -1.
         -1   -1    0    0    0  501 -0.00000000000E+00 -0.00000000000E+00 -0.94369202650E+02  0.94369202650E+02  0.00000000000E+00 0.  1.
         23    2    1    2    0    0  0.00000000000E+00  0.00000000000E+00 -0.72622632085E+02  0.11611577321E+03  0.90602572250E+02 0.  0.
        -11    1    3    3    0    0 -0.17589752161E+02  0.42175659436E+01 -0.89540237647E+02  0.91349008761E+02  0.00000000000E+00 0.  1.
         11    1    3    3    0    0  0.17589752161E+02 -0.42175659436E+01  0.16917605562E+02  0.24766764454E+02  0.00000000000E+00 0. -1.
<mgrwt>
<rscale>  0 0.90602572E+02</rscale>
<asrwt>0</asrwt>
<pdfrwt beam="1">  1        1 0.33456262E-02 0.90602572E+02</pdfrwt>
<pdfrwt beam="2">  1       -1 0.14518339E-01 0.90602572E+02</pdfrwt>
<totfact> 0.83586750E+04</totfact>
</mgrwt>
</event>
<event>
 5    1  0.5681061E+000  0.9143594E+02  0.7546771E-02  0.1299411E+00
         -3   -1    0    0    0  501 -0.00000000000E+00  0.00000000000E+00  0.12627002092E+03  0.12627002092E+03  0.00000000000E+00 0.  1.
          3   -1    0    0  501    0  0.00000000000E+00 -0.00000000000E+00 -0.16552883249E+02  0.16552883249E+02  0.00000000000E+00 0. -1.
         23    2    1    2    0    0  0.00000000000E+00  0.00000000000E+00  0.10971713767E+03  0.14282290417E+03  0.91435942914E+02 0.  0.
        -11    1    3    3    0    0 -0.27341627789E+02  0.14605763209E+02  0.23688754611E+01  0.31088655487E+02  0.00000000000E+00 0. -1.
         11    1    3    3    0    0  0.27341627789E+02 -0.14605763209E+02  0.10734826221E+03  0.11173424868E+03  0.00000000000E+00 0.  1.
<mgrwt>
<rscale>  0 0.91435943E+02</rscale>
<asrwt>0</asrwt>
<pdfrwt beam="2">  1        3 0.25465975E-02 0.91435943E+02</pdfrwt>
<pdfrwt beam="1">  1       -3 0.19426157E-01 0.91435943E+02</pdfrwt>
<totfact> 0.31509582E+04</totfact>
</mgrwt>
</event>
<event>
 5    1  0.5681061E+000  0.8554885E+02  0.7546771E-02  0.1314003E+00
          3   -1    0    0  501    0  0.00000000000E+00  0.00000000000E+00  0.91351466428E+02  0.91351466428E+02  0.00000000000E+00 0. -1.
         -3   -1    0    0    0  501 -0.00000000000E+00 -0.00000000000E+00 -0.20028701202E+02  0.20028701202E+02  0.00000000000E+00 0.  1.
         23    2    1    2    0    0  0.00000000000E+00  0.00000000000E+00  0.71322765226E+02  0.11138016763E+03  0.85548845122E+02 0.  0.
        -11    1    3    3    0    0  0.41626589572E+02  0.16332199277E+01  0.23024376449E+02  0.47597923038E+02  0.00000000000E+00 0.  1.
         11    1    3    3    0    0 -0.41626589572E+02 -0.16332199277E+01  0.48298388776E+02  0.63782244591E+02  0.00000000000E+00 0. -1.
<mgrwt>
<rscale>  0 0.85548845E+02</rscale>
<asrwt>0</asrwt>
<pdfrwt beam="1">  1        3 0.14054072E-01 0.85548845E+02</pdfrwt>
<pdfrwt beam="2">  1       -3 0.30813387E-02 0.85548845E+02</pdfrwt>
<totfact> 0.40210203E+04</totfact>
</mgrwt>
</event>
<event>
 5    1  0.5681061E+000  0.9375455E+02  0.7546771E-02  0.1294006E+00
          1   -1    0    0  501    0  0.00000000000E+00  0.00000000000E+00  0.20632992672E+02  0.20632992672E+02  0.00000000000E+00 0. -1.
         -1   -1    0    0    0  501 -0.00000000000E+00 -0.00000000000E+00 -0.10650316874E+03  0.10650316874E+03  0.00000000000E+00 0.  1.
         23    2    1    2    0    0  0.00000000000E+00  0.00000000000E+00 -0.85870176072E+02  0.12713616142E+03  0.93754554027E+02 0.  0.
        -11    1    3    3    0    0 -0.30863280074E+02 -0.34336822368E+02 -0.53945010094E+02  0.71004391000E+02  0.00000000000E+00 0.  1.
         11    1    3    3    0    0  0.30863280074E+02  0.34336822368E+02 -0.31925165978E+02  0.56131770416E+02  0.00000000000E+00 0. -1.
<mgrwt>
<rscale>  0 0.93754554E+02</rscale>
<asrwt>0</asrwt>
<pdfrwt beam="1">  1        1 0.31743065E-02 0.93754554E+02</pdfrwt>
<pdfrwt beam="2">  1       -1 0.16385103E-01 0.93754554E+02</pdfrwt>
<totfact> 0.74822285E+04</totfact>
</mgrwt>
</event>
<event>
 5    1  0.5681061E+000  0.9321300E+02  0.7546771E-02  0.1295252E+00
          1   -1    0    0  501    0  0.00000000000E+00  0.00000000000E+00  0.12148205826E+02  0.12148205826E+02  0.00000000000E+00 0. -1.
         -1   -1    0    0    0  501 -0.00000000000E+00 -0.00000000000E+00 -0.17880550383E+03  0.17880550383E+03  0.00000000000E+00 0.  1.
         23    2    1    2    0    0  0.00000000000E+00  0.00000000000E+00 -0.16665729800E+03  0.19095370966E+03  0.93213004746E+02 0.  0.
        -11    1    3    3    0    0 -0.36185247578E+02 -0.16030087386E+02 -0.13375146059E+03  0.13948401003E+03  0.00000000000E+00 0.  1.
         11    1    3    3    0    0  0.36185247578E+02  0.16030087386E+02 -0.32905837415E+02  0.51469699628E+02  0.00000000000E+00 0. -1.
<mgrwt>
<rscale>  0 0.93213005E+02</rscale>
<asrwt>0</asrwt>
<pdfrwt beam="1">  1        1 0.18689547E-02 0.93213005E+02</pdfrwt>
<pdfrwt beam="2">  1       -1 0.27508540E-01 0.93213005E+02</pdfrwt>
<totfact> 0.67591662E+04</totfact>
</mgrwt>
</event>
<event>
 5    1  0.5681061E+000  0.9001062E+02  0.7546771E-02  0.1302826E+00
          2   -1    0    0  501    0  0.00000000000E+00  0.00000000000E+00  0.62126075824E+02  0.62126075824E+02  0.00000000000E+00 0. -1.
         -2   -1    0    0    0  501 -0.00000000000E+00 -0.00000000000E+00 -0.32602705449E+02  0.32602705449E+02  0.00000000000E+00 0.  1.
         23    2    1    2    0    0  0.00000000000E+00  0.00000000000E+00  0.29523370375E+02  0.94728781274E+02  0.90010624946E+02 0.  0.
        -11    1    3    3    0    0  0.30723336155E+02  0.32226627801E+02  0.21662787984E+02  0.49515202788E+02  0.00000000000E+00 0. -1.
         11    1    3    3    0    0 -0.30723336155E+02 -0.32226627801E+02  0.78605823915E+01  0.45213578485E+02  0.00000000000E+00 0.  1.
<mgrwt>
<rscale>  0 0.90010625E+02</rscale>
<asrwt>0</asrwt>
<pdfrwt beam="1">  1        2 0.95578578E-02 0.90010625E+02</pdfrwt>
<pdfrwt beam="2">  1       -2 0.50158009E-02 0.90010625E+02</pdfrwt>
<totfact> 0.11101210E+05</totfact>
</mgrwt>
</event>
<event>
 5    1  0.5681061E+000  0.9354986E+02  0.7546771E-02  0.1294476E+00
          2   -1    0    0  501    0  0.00000000000E+00  0.00000000000E+00  0.39414159807E+03  0.39414159807E+03  0.00000000000E+00 0. -1.
         -2   -1    0    0    0  501 -0.00000000000E+00 -0.00000000000E+00 -0.55510358970E+01  0.55510358970E+01  0.00000000000E+00 0.  1.
         23    2    1    2    0    0  0.00000000000E+00  0.00000000000E+00  0.38859056217E+03  0.39969263396E+03  0.93549861772E+02 0.  0.
        -11    1    3    3    0    0 -0.23866205271E+02  0.40210353037E+02  0.18919340792E+03  0.19488615611E+03  0.00000000000E+00 0. -1.
         11    1    3    3    0    0  0.23866205271E+02 -0.40210353037E+02  0.19939715425E+03  0.20480647785E+03  0.00000000000E+00 0.  1.
<mgrwt>
<rscale>  0 0.93549862E+02</rscale>
<asrwt>0</asrwt>
<pdfrwt beam="1">  1        2 0.60637147E-01 0.93549862E+02</pdfrwt>
<pdfrwt beam="2">  1       -2 0.85400583E-03 0.93549862E+02</pdfrwt>
<totfact> 0.18545242E+05</totfact>
</mgrwt>
</event>
<event>
 5    1  0.5681061E+000  0.9043032E+02  0.7546771E-02  0.1301813E+00
         -1   -1    0    0    0  501 -0.00000000000E+00  0.00000000000E+00  0.26420388873E+02  0.26420388873E+02  0.00000000000E+00 0.  1.
          1   -1    0    0  501    0  0.00000000000E+00 -0.00000000000E+00 -0.77380036601E+02  0.77380036601E+02  0.00000000000E+00 0. -1.
         23    2    1    2    0    0  0.00000000000E+00  0.00000000000E+00 -0.50959647728E+02  0.10380042547E+03  0.90430319209E+02 0.  0.
        -11    1    3    3    0    0  0.62200801378E+01 -0.44608478359E+02 -0.30043146929E+02  0.54140524709E+02  0.00000000000E+00 0.  1.
         11    1    3    3    0    0 -0.62200801378E+01  0.44608478359E+02 -0.20916500799E+02  0.49659900766E+02  0.00000000000E+00 0. -1.
<mgrwt>
<rscale>  0 0.90430319E+02</rscale>
<asrwt>0</asrwt>
<pdfrwt beam="2">  1        1 0.11904621E-01 0.90430319E+02</pdfrwt>
<pdfrwt beam="1">  1       -1 0.40646752E-02 0.90430319E+02</pdfrwt>
<totfact> 0.10250481E+05</totfact>
</mgrwt>
</event>
<event>
 5    1  0.5681061E+000  0.9359075E+02  0.7546771E-02  0.1294382E+00
          3   -1    0    0  501    0  0.00000000000E+00  0.00000000000E+00  0.11332237827E+03  0.11332237827E+03  0.00000000000E+00 0. -1.
         -3   -1    0    0    0  501 -0.00000000000E+00 -0.00000000000E+00 -0.19323693674E+02  0.19323693674E+02  0.00000000000E+00 0.  1.
         23    2    1    2    0    0  0.00000000000E+00  0.00000000000E+00  0.93998684597E+02  0.13264607194E+03  0.93590745784E+02 0.  0.
        -11    1    3    3    0    0 -0.26432327267E+02 -0.17272875916E+02 -0.19495524554E+01  0.31635753855E+02  0.00000000000E+00 0.  1.
         11    1    3    3    0    0  0.26432327267E+02  0.17272875916E+02  0.95948237052E+02  0.10101031809E+03  0.00000000000E+00 0. -1.
<mgrwt>
<rscale>  0 0.93590746E+02</rscale>
<asrwt>0</asrwt>
<pdfrwt beam="1">  1        3 0.17434212E-01 0.93590746E+02</pdfrwt>
<pdfrwt beam="2">  1       -3 0.29728760E-02 0.93590746E+02</pdfrwt>
<totfact> 0.30179101E+04</totfact>
</mgrwt>
</event>
<event>
 5    1  0.5681061E+000  0.9166581E+02  0.7546771E-02  0.1298867E+00
          1   -1    0    0  501    0  0.00000000000E+00  0.00000000000E+00  0.42104969242E+02  0.42104969242E+02  0.00000000000E+00 0. -1.
         -1   -1    0    0    0  501 -0.00000000000E+00 -0.00000000000E+00 -0.49890913823E+02  0.49890913823E+02  0.00000000000E+00 0.  1.
         23    2    1    2    0    0  0.00000000000E+00  0.00000000000E+00 -0.77859445805E+01  0.91995883065E+02  0.91665814609E+02 0.  0.
        -11    1    3    3    0    0  0.42021091587E+01 -0.38389565939E+02 -0.28664614698E+02  0.48094455295E+02  0.00000000000E+00 0.  1.
         11    1    3    3    0    0 -0.42021091587E+01  0.38389565939E+02  0.20878670117E+02  0.43901427770E+02  0.00000000000E+00 0. -1.
<mgrwt>
<rscale>  0 0.91665815E+02</rscale>
<asrwt>0</asrwt>
<pdfrwt beam="1">  1        1 0.64776876E-02 0.91665815E+02</pdfrwt>
<pdfrwt beam="2">  1       -1 0.76755252E-02 0.91665815E+02</pdfrwt>
<totfact> 0.90002480E+04</totfact>
</mgrwt>
</event>
<event>
 5    1  0.5681061E+000  0.9209033E+02  0.7546771E-02  0.1297867E+00
          4   -1    0    0  501    0  0.00000000000E+00  0.00000000000E+00  0.42450570938E+02  0.42450570938E+02  0.00000000000E+00 0.  1.
         -4   -1    0    0    0  501 -0.00000000000E+00 -0.00000000000E+00 -0.49944134432E+02  0.49944134432E+02  0.00000000000E+00 0. -1.
         23    2    1    2    0    0  0.00000000000E+00  0.00000000000E+00 -0.74935634945E+01  0.92394705370E+02  0.92090325695E+02 0.  0.
        -11    1    3    3    0    0  0.13485183299E+02  0.26373769368E+02 -0.39115691007E+02  0.49065906313E+02  0.00000000000E+00 0. -1.
         11    1    3    3    0    0 -0.13485183299E+02 -0.26373769368E+02  0.31622127513E+02  0.43328799057E+02  0.00000000000E+00 0.  1.
<mgrwt>
<rscale>  0 0.92090326E+02</rscale>
<asrwt>0</asrwt>
<pdfrwt beam="1">  1        4 0.65308570E-02 0.92090326E+02</pdfrwt>
<pdfrwt beam="2">  1       -4 0.76837130E-02 0.92090326E+02</pdfrwt>
<totfact> 0.26217051E+04</totfact>
</mgrwt>
</event>
<event>
 5    1  0.5681061E+000  0.9011909E+02  0.7546771E-02  0.1302564E+00
          4   -1    0    0  501    0  0.00000000000E+00  0.00000000000E+00  0.21914416577E+03  0.21914416577E+03  0.00000000000E+00 0.  1.
         -4   -1    0    0    0  501 -0.00000000000E+00 -0.00000000000E+00 -0.92649639730E+01  0.92649639730E+01  0.00000000000E+00 0. -1.
         23    2    1    2    0    0  0.00000000000E+00  0.00000000000E+00  0.20987920179E+03  0.22840912974E+03  0.90119094552E+02 0.  0.
        -11    1    3    3    0    0 -0.43350103709E+02 -0.12057620555E+02  0.11101458677E+03  0.11978671120E+03  0.00000000000E+00 0.  1.
         11    1    3    3    0    0  0.43350103709E+02  0.12057620555E+02  0.98864615022E+02  0.10862241854E+03  0.00000000000E+00 0. -1.
<mgrwt>
<rscale>  0 0.90119095E+02</rscale>
<asrwt>0</asrwt>
<pdfrwt beam="1">  1        4 0.33714483E-01 0.90119095E+02</pdfrwt>
<pdfrwt beam="2">  1       -4 0.14253792E-02 0.90119095E+02</pdfrwt>
<totfact> 0.20895028E+04</totfact>
</mgrwt>
</event>
<event>
 5    1  0.5681061E+000  0.9297333E+02  0.7546771E-02  0.1295807E+00
         -2   -1    0    0    0  501 -0.00000000000E+00  0.00000000000E+00  0.45558152777E+01  0.45558152777E+01  0.00000000000E+00 0.  1.
          2   -1    0    0  501    0  0.00000000000E+00 -0.00000000000E+00 -0.47434097463E+03  0.47434097463E+03  0.00000000000E+00 0. -1.
         23    2    1    2    0    0  0.00000000000E+00  0.00000000000E+00 -0.46978515935E+03  0.47889678991E+03  0.92973326478E+02 0.  0.
        -11    1    3    3    0    0  0.46270400117E+02 -0.18779608997E+01 -0.21394846777E+03  0.21890277186E+03  0.00000000000E+00 0. -1.
         11    1    3    3    0    0 -0.46270400117E+02  0.18779608997E+01 -0.25583669158E+03  0.25999401805E+03  0.00000000000E+00 0.  1.
<mgrwt>
<rscale>  0 0.92973326E+02</rscale>
<asrwt>0</asrwt>
<pdfrwt beam="2">  1        2 0.72975562E-01 0.92973326E+02</pdfrwt>
<pdfrwt beam="1">  1       -2 0.70089440E-03 0.92973326E+02</pdfrwt>
<totfact> 0.20110365E+05</totfact>
</mgrwt>
</event>
<event>
 5    1  0.5681061E+000  0.9223662E+02  0.7546771E-02  0.1297524E+00
         -2   -1    0    0    0  501 -0.00000000000E+00  0.00000000000E+00  0.53403410336E+01  0.53403410336E+01  0.00000000000E+00 0. -1.
          2   -1    0    0  501    0  0.00000000000E+00 -0.00000000000E+00 -0.39827017173E+03  0.39827017173E+03  0.00000000000E+00 0.  1.
         23    2    1    2    0    0  0.00000000000E+00  0.00000000000E+00 -0.39292983069E+03  0.40361051276E+03  0.92236620505E+02 0.  0.
        -11    1    3    3    0    0 -0.45211802058E+02  0.79063764990E+01 -0.17675881816E+03  0.18262063857E+03  0.00000000000E+00 0. -1.
         11    1    3    3    0    0  0.45211802058E+02 -0.79063764990E+01 -0.21617101253E+03  0.22098987419E+03  0.00000000000E+00 0.  1.
<mgrwt>
<rscale>  0 0.92236621E+02</rscale>
<asrwt>0</asrwt>
<pdfrwt beam="2">  1        2 0.61272357E-01 0.92236621E+02</pdfrwt>
<pdfrwt beam="1">  1       -2 0.82159063E-03 0.92236621E+02</pdfrwt>
<totfact> 0.19328629E+05</totfact>
</mgrwt>
</event>
<event>
 5    1  0.5681061E+000  0.9230757E+02  0.7546771E-02  0.1297358E+00
          3   -1    0    0  501    0  0.00000000000E+00  0.00000000000E+00  0.19492309565E+02  0.19492309565E+02  0.00000000000E+00 0. -1.
         -3   -1    0    0    0  501 -0.00000000000E+00 -0.00000000000E+00 -0.10928267454E+03  0.10928267454E+03  0.00000000000E+00 0.  1.
         23    2    1    2    0    0  0.00000000000E+00  0.00000000000E+00 -0.89790364970E+02  0.12877498410E+03  0.92307566800E+02 0.  0.
        -11    1    3    3    0    0  0.20988965076E+02 -0.81156166700E+01 -0.10111076348E+03  0.10358468217E+03  0.00000000000E+00 0.  1.
         11    1    3    3    0    0 -0.20988965076E+02  0.81156166700E+01  0.11320398510E+02  0.25190301930E+02  0.00000000000E+00 0. -1.
<mgrwt>
<rscale>  0 0.92307567E+02</rscale>
<asrwt>0</asrwt>
<pdfrwt beam="1">  1        3 0.29988168E-02 0.92307567E+02</pdfrwt>
<pdfrwt beam="2">  1       -3 0.16812720E-01 0.92307567E+02</pdfrwt>
<totfact> 0.31581580E+04</totfact>
</mgrwt>
</event>
<event>
 5    1  0.5681061E+000  0.1166098E+03  0.7546771E-02  0.1248797E+00
         -2   -1    0    0    0  501 -0.00000000000E+00  0.00000000000E+00  0.72192497838E+02  0.72192497838E+02  0.00000000000E+00 0.  1.
          2   -1    0    0  501    0  0.00000000000E+00 -0.00000000000E+00 -0.47088837825E+02  0.47088837825E+02  0.00000000000E+00 0. -1.
         23    2    1    2    0    0  0.00000000000E+00  0.00000000000E+00  0.25103660013E+02  0.11928133566E+03  0.11660979072E+03 0.  0.
        -11    1    3    3    0    0 -0.48271388151E+02  0.91862415532E+01  0.44654701543E+02  0.66396960155E+02  0.00000000000E+00 0.  1.
         11    1    3    3    0    0  0.48271388151E+02 -0.91862415532E+01 -0.19551041531E+02  0.52884375508E+02  0.00000000000E+00 0. -1.
<mgrwt>
<rscale>  0 0.11660979E+03</rscale>
<asrwt>0</asrwt>
<pdfrwt beam="2">  1        2 0.72444366E-02 0.11660979E+03</pdfrwt>
<pdfrwt beam="1">  1       -2 0.11106538E-01 0.11660979E+03</pdfrwt>
<totfact> 0.48239871E+04</totfact>
</mgrwt>
</event>
<event>
 5    1  0.5681061E+000  0.9034539E+02  0.7546771E-02  0.1302017E+00
          2   -1    0    0  501    0  0.00000000000E+00  0.00000000000E+00  0.34571026934E+02  0.34571026934E+02  0.00000000000E+00 0. -1.
         -2   -1    0    0    0  501 -0.00000000000E+00 -0.00000000000E+00 -0.59025508148E+02  0.59025508148E+02  0.00000000000E+00 0.  1.
         23    2    1    2    0    0  0.00000000000E+00  0.00000000000E+00 -0.24454481214E+02  0.93596535082E+02  0.90345391293E+02 0.  0.
        -11    1    3    3    0    0  0.35157363262E+02  0.22585968589E+02 -0.30002964301E+02  0.51442628582E+02  0.00000000000E+00 0.  1.
         11    1    3    3    0    0 -0.35157363262E+02 -0.22585968589E+02  0.55484830866E+01  0.42153906500E+02  0.00000000000E+00 0. -1.
<mgrwt>
<rscale>  0 0.90345391E+02</rscale>
<asrwt>0</asrwt>
<pdfrwt beam="1">  1        2 0.53186196E-02 0.90345391E+02</pdfrwt>
<pdfrwt beam="2">  1       -2 0.90808473E-02 0.90345391E+02</pdfrwt>
<totfact> 0.94336390E+04</totfact>
</mgrwt>
</event>
<event>
 5    1  0.5681061E+000  0.9135169E+02  0.7546771E-02  0.1299611E+00
          1   -1    0    0  501    0  0.00000000000E+00  0.00000000000E+00  0.95152093490E+02  0.95152093490E+02  0.00000000000E+00 0. -1.
         -1   -1    0    0    0  501 -0.00000000000E+00 -0.00000000000E+00 -0.21925769248E+02  0.21925769248E+02  0.00000000000E+00 0.  1.
         23    2    1    2    0    0  0.00000000000E+00  0.00000000000E+00  0.73226324241E+02  0.11707786274E+03  0.91351690633E+02 0.  0.
        -11    1    3    3    0    0  0.19075686339E+02 -0.26366822028E+02  0.77688765730E+02  0.84229658873E+02  0.00000000000E+00 0. -1.
         11    1    3    3    0    0 -0.19075686339E+02  0.26366822028E+02 -0.44624414892E+01  0.32848203865E+02  0.00000000000E+00 0.  1.
<mgrwt>
<rscale>  0 0.91351691E+02</rscale>
<asrwt>0</asrwt>
<pdfrwt beam="1">  1        1 0.14638783E-01 0.91351691E+02</pdfrwt>
<pdfrwt beam="2">  1       -1 0.33731953E-02 0.91351691E+02</pdfrwt>
<totfact> 0.10305637E+05</totfact>
</mgrwt>
</event>
<event>
 5    1  0.5681061E+000  0.9208378E+02  0.7546771E-02  0.1297883E+00
          2   -1    0    0  501    0  0.00000000000E+00  0.00000000000E+00  0.43058269503E+03  0.43058269503E+03  0.00000000000E+00 0.  1.
         -2   -1    0    0    0  501 -0.00000000000E+00 -0.00000000000E+00 -0.49232248256E+01  0.49232248256E+01  0.00000000000E+00 0. -1.
         23    2    1    2    0    0  0.00000000000E+00  0.00000000000E+00  0.42565947020E+03  0.43550591986E+03  0.92083775198E+02 0.  0.
        -11    1    3    3    0    0 -0.45530975104E+02 -0.44165514808E+01  0.18812777136E+03  0.19360948835E+03  0.00000000000E+00 0.  1.
         11    1    3    3    0    0  0.45530975104E+02  0.44165514808E+01  0.23753169884E+03  0.24189643151E+03  0.00000000000E+00 0. -1.
<mgrwt>
<rscale>  0 0.92083775E+02</rscale>
<asrwt>0</asrwt>
<pdfrwt beam="1">  1        2 0.66243462E-01 0.92083775E+02</pdfrwt>
<pdfrwt beam="2">  1       -2 0.75741954E-03 0.92083775E+02</pdfrwt>
<totfact> 0.19957662E+05</totfact>
</mgrwt>
</event>
<event>
 5    1  0.5681061E+000  0.1205791E+03  0.7546771E-02  0.1242145E+00
         -2   -1    0    0    0  501 -0.00000000000E+00  0.00000000000E+00  0.11085246038E+02  0.11085246038E+02  0.00000000000E+00 0.  1.
          2   -1    0    0  501    0  0.00000000000E+00 -0.00000000000E+00 -0.32789778631E+03  0.32789778631E+03  0.00000000000E+00 0. -1.
         23    2    1    2    0    0  0.00000000000E+00  0.00000000000E+00 -0.31681254028E+03  0.33898303235E+03  0.12057906347E+03 0.  0.
        -11    1    3    3    0    0  0.58996190453E+02  0.99229829554E+01 -0.13740390878E+03  0.14986277132E+03  0.00000000000E+00 0.  1.
         11    1    3    3    0    0 -0.58996190453E+02 -0.99229829554E+01 -0.17940863150E+03  0.18912026103E+03  0.00000000000E+00 0. -1.
<mgrwt>
<rscale>  0 0.12057906E+03</rscale>
<asrwt>0</asrwt>
<pdfrwt beam="2">  1        2 0.50445809E-01 0.12057906E+03</pdfrwt>
<pdfrwt beam="1">  1       -2 0.17054226E-02 0.12057906E+03</pdfrwt>
<totfact> 0.87146318E+04</totfact>
</mgrwt>
</event>
<event>
 5    1  0.5681061E+000  0.9173381E+02  0.7546771E-02  0.1298707E+00
         -1   -1    0    0    0  501 -0.00000000000E+00  0.00000000000E+00  0.15343498177E+02  0.15343498177E+02  0.00000000000E+00 0.  1.
          1   -1    0    0  501    0  0.00000000000E+00 -0.00000000000E+00 -0.13711170300E+03  0.13711170300E+03  0.00000000000E+00 0. -1.
         23    2    1    2    0    0  0.00000000000E+00  0.00000000000E+00 -0.12176820482E+03  0.15245520117E+03  0.91733814156E+02 0.  0.
        -11    1    3    3    0    0  0.25920136288E+02  0.37558573313E+02 -0.53218788853E+02  0.70105202242E+02  0.00000000000E+00 0.  1.
         11    1    3    3    0    0 -0.25920136288E+02 -0.37558573313E+02 -0.68549415966E+02  0.82349998930E+02  0.00000000000E+00 0. -1.
<mgrwt>
<rscale>  0 0.91733814E+02</rscale>
<asrwt>0</asrwt>
<pdfrwt beam="2">  1        1 0.21094109E-01 0.91733814E+02</pdfrwt>
<pdfrwt beam="1">  1       -1 0.23605381E-02 0.91733814E+02</pdfrwt>
<totfact> 0.10851041E+05</totfact>
</mgrwt>
</event>
<event>
 5    1  0.5681061E+000  0.9063217E+02  0.7546771E-02  0.1301328E+00
         -1   -1    0    0    0  501 -0.00000000000E+00  0.00000000000E+00  0.70571590051E+02  0.70571590051E+02  0.00000000000E+00 0.  1.
          1   -1    0    0  501    0  0.00000000000E+00 -0.00000000000E+00 -0.29098785234E+02  0.29098785234E+02  0.00000000000E+00 0. -1.
         23    2    1    2    0    0  0.00000000000E+00  0.00000000000E+00  0.41472804817E+02  0.99670375285E+02  0.90632169620E+02 0.  0.
        -11    1    3    3    0    0 -0.31700560486E+02  0.24553877978E+02 -0.24812980116E+01  0.40174311428E+02  0.00000000000E+00 0. -1.
         11    1    3    3    0    0  0.31700560486E+02 -0.24553877978E+02  0.43954102829E+02  0.59496063856E+02  0.00000000000E+00 0.  1.
<mgrwt>
<rscale>  0 0.90632170E+02</rscale>
<asrwt>0</asrwt>
<pdfrwt beam="2">  1        1 0.44767362E-02 0.90632170E+02</pdfrwt>
<pdfrwt beam="1">  1       -1 0.10857168E-01 0.90632170E+02</pdfrwt>
<totfact> 0.87755256E+04</totfact>
</mgrwt>
</event>
<event>
 5    1  0.5681061E+000  0.9416328E+02  0.7546771E-02  0.1293072E+00
         -1   -1    0    0    0  501 -0.00000000000E+00  0.00000000000E+00  0.17106947649E+03  0.17106947649E+03  0.00000000000E+00 0.  1.
          1   -1    0    0  501    0  0.00000000000E+00 -0.00000000000E+00 -0.12957779947E+02  0.12957779947E+02  0.00000000000E+00 0. -1.
         23    2    1    2    0    0  0.00000000000E+00  0.00000000000E+00  0.15811169654E+03  0.18402725644E+03  0.94163275899E+02 0.  0.
        -11    1    3    3    0    0 -0.15553514804E+02  0.23121465222E+02  0.15322220883E+03  0.15573554269E+03  0.00000000000E+00 0.  1.
         11    1    3    3    0    0  0.15553514804E+02 -0.23121465222E+02  0.48894877092E+01  0.28291713748E+02  0.00000000000E+00 0. -1.
<mgrwt>
<rscale>  0 0.94163276E+02</rscale>
<asrwt>0</asrwt>
<pdfrwt beam="2">  1        1 0.19935047E-02 0.94163276E+02</pdfrwt>
<pdfrwt beam="1">  1       -1 0.26318379E-01 0.94163276E+02</pdfrwt>
<totfact> 0.66591241E+04</totfact>
</mgrwt>
</event>
<event>
 5    1  0.5681061E+000  0.8723257E+02  0.7546771E-02  0.1309695E+00
          1   -1    0    0  501    0  0.00000000000E+00  0.00000000000E+00  0.73126848985E+01  0.73126848985E+01  0.00000000000E+00 0. -1.
         -1   -1    0    0    0  501 -0.00000000000E+00 -0.00000000000E+00 -0.26014802111E+03  0.26014802111E+03  0.00000000000E+00 0.  1.
         23    2    1    2    0    0  0.00000000000E+00  0.00000000000E+00 -0.25283533621E+03  0.26746070601E+03  0.87232574313E+02 0.  0.
        -11    1    3    3    0    0 -0.34507853941E+02  0.81152598844E+01 -0.48505167689E+02  0.60078288251E+02  0.00000000000E+00 0. -1.
         11    1    3    3    0    0  0.34507853941E+02 -0.81152598844E+01 -0.20433016852E+03  0.20738241775E+03  0.00000000000E+00 0.  1.
<mgrwt>
<rscale>  0 0.87232574E+02</rscale>
<asrwt>0</asrwt>
<pdfrwt beam="1">  1        1 0.11250283E-02 0.87232574E+02</pdfrwt>
<pdfrwt beam="2">  1       -1 0.40022777E-01 0.87232574E+02</pdfrwt>
<totfact> 0.71688577E+04</totfact>
</mgrwt>
</event>
<event>
 5    1  0.5681061E+000  0.9391284E+02  0.7546771E-02  0.1293644E+00
         -2   -1    0    0    0  501 -0.00000000000E+00  0.00000000000E+00  0.24436372816E+02  0.24436372816E+02  0.00000000000E+00 0.  1.
          2   -1    0    0  501    0  0.00000000000E+00 -0.00000000000E+00 -0.90230476447E+02  0.90230476447E+02  0.00000000000E+00 0. -1.
         23    2    1    2    0    0  0.00000000000E+00  0.00000000000E+00 -0.65794103631E+02  0.11466684926E+03  0.93912843889E+02 0.  0.
        -11    1    3    3    0    0  0.81143758358E+01 -0.16847406685E+02  0.19693951578E+02  0.27157502388E+02  0.00000000000E+00 0.  1.
         11    1    3    3    0    0 -0.81143758358E+01  0.16847406685E+02 -0.85488055209E+02  0.87509346875E+02  0.00000000000E+00 0. -1.
<mgrwt>
<rscale>  0 0.93912844E+02</rscale>
<asrwt>0</asrwt>
<pdfrwt beam="2">  1        2 0.13881612E-01 0.93912844E+02</pdfrwt>
<pdfrwt beam="1">  1       -2 0.37594420E-02 0.93912844E+02</pdfrwt>
<totfact> 0.10958436E+05</totfact>
</mgrwt>
</event>
<event>
 5    1  0.5681061E+000  0.9107711E+02  0.7546771E-02  0.1300264E+00
         -2   -1    0    0    0  501 -0.00000000000E+00  0.00000000000E+00  0.25228338693E+02  0.25228338693E+02  0.00000000000E+00 0. -1.
          2   -1    0    0  501    0  0.00000000000E+00 -0.00000000000E+00 -0.82199620067E+02  0.82199620067E+02  0.00000000000E+00 0.  1.
         23    2    1    2    0    0  0.00000000000E+00  0.00000000000E+00 -0.56971281374E+02  0.10742795876E+03  0.91077107013E+02 0.  0.
        -11    1    3    3    0    0  0.31451186134E+02 -0.15448863638E+02 -0.62791756679E+02  0.71907226367E+02  0.00000000000E+00 0.  1.
         11    1    3    3    0    0 -0.31451186134E+02  0.15448863638E+02  0.58204753053E+01  0.35520732393E+02  0.00000000000E+00 0. -1.
<mgrwt>
<rscale>  0 0.91077107E+02</rscale>
<asrwt>0</asrwt>
<pdfrwt beam="2">  1        2 0.12646096E-01 0.91077107E+02</pdfrwt>
<pdfrwt beam="1">  1       -2 0.38812828E-02 0.91077107E+02</pdfrwt>
<totfact> 0.11610599E+05</totfact>
</mgrwt>
</event>
<event>
 5    1  0.5681061E+000  0.9123364E+02  0.7546771E-02  0.1299891E+00
         -2   -1    0    0    0  501 -0.00000000000E+00  0.00000000000E+00  0.81746801220E+02  0.81746801220E+02  0.00000000000E+00 0. -1.
          2   -1    0    0  501    0  0.00000000000E+00 -0.00000000000E+00 -0.25455358913E+02  0.25455358913E+02  0.00000000000E+00 0.  1.
         23    2    1    2    0    0  0.00000000000E+00  0.00000000000E+00  0.56291442306E+02  0.10720216013E+03  0.91233637767E+02 0.  0.
        -11    1    3    3    0    0 -0.34553754007E+02 -0.17768031701E+02  0.62056280068E-01  0.38854455568E+02  0.00000000000E+00 0.  1.
         11    1    3    3    0    0  0.34553754007E+02  0.17768031701E+02  0.56229386026E+02  0.68347704566E+02  0.00000000000E+00 0. -1.
<mgrwt>
<rscale>  0 0.91233638E+02</rscale>
<asrwt>0</asrwt>
<pdfrwt beam="2">  1        2 0.39162091E-02 0.91233638E+02</pdfrwt>
<pdfrwt beam="1">  1       -2 0.12576431E-01 0.91233638E+02</pdfrwt>
<totfact> 0.84441520E+04</totfact>
</mgrwt>
</event>
<event>
 5    1  0.5681061E+000  0.9071690E+02  0.7546771E-02  0.1301125E+00
          3   -1    0    0  501    0  0.00000000000E+00  0.00000000000E+00  0.30442905038E+02  0.30442905038E+02  0.00000000000E+00 0. -1.
         -3   -1    0    0    0  501 -0.00000000000E+00 -0.00000000000E+00 -0.67581883768E+02  0.67581883768E+02  0.00000000000E+00 0.  1.
         23    2    1    2    0    0  0.00000000000E+00  0.00000000000E+00 -0.37138978730E+02  0.98024788806E+02  0.90716897430E+02 0.  0.
        -11    1    3    3    0    0  0.32972119783E+02  0.12707421898E+01  0.15060208325E+02  0.36270998656E+02  0.00000000000E+00 0. -1.
         11    1    3    3    0    0 -0.32972119783E+02 -0.12707421898E+01 -0.52199187054E+02  0.61753790150E+02  0.00000000000E+00 0.  1.
<mgrwt>
<rscale>  0 0.90716897E+02</rscale>
<asrwt>0</asrwt>
<pdfrwt beam="1">  1        3 0.46835239E-02 0.90716897E+02</pdfrwt>
<pdfrwt beam="2">  1       -3 0.10397213E-01 0.90716897E+02</pdfrwt>
<totfact> 0.35301589E+04</totfact>
</mgrwt>
</event>
<event>
 5    1  0.5681061E+000  0.9168115E+02  0.7546771E-02  0.1298831E+00
         -2   -1    0    0    0  501 -0.00000000000E+00  0.00000000000E+00  0.18446116020E+02  0.18446116020E+02  0.00000000000E+00 0.  1.
          2   -1    0    0  501    0  0.00000000000E+00 -0.00000000000E+00 -0.11391873089E+03  0.11391873089E+03  0.00000000000E+00 0. -1.
         23    2    1    2    0    0  0.00000000000E+00  0.00000000000E+00 -0.95472614871E+02  0.13236484691E+03  0.91681145867E+02 0.  0.
        -11    1    3    3    0    0 -0.11851192269E+02 -0.40528267723E+02 -0.21975671945E+02  0.47601695351E+02  0.00000000000E+00 0.  1.
         11    1    3    3    0    0  0.11851192269E+02  0.40528267723E+02 -0.73496942927E+02  0.84763151560E+02  0.00000000000E+00 0. -1.
<mgrwt>
<rscale>  0 0.91681146E+02</rscale>
<asrwt>0</asrwt>
<pdfrwt beam="2">  1        2 0.17525959E-01 0.91681146E+02</pdfrwt>
<pdfrwt beam="1">  1       -2 0.28378639E-02 0.91681146E+02</pdfrwt>
<totfact> 0.12581688E+05</totfact>
</mgrwt>
</event>
<event>
 5    1  0.5681061E+000  0.9201734E+02  0.7546771E-02  0.1298039E+00
          1   -1    0    0  501    0  0.00000000000E+00  0.00000000000E+00  0.20871644624E+03  0.20871644624E+03  0.00000000000E+00 0. -1.
         -1   -1    0    0    0  501 -0.00000000000E+00 -0.00000000000E+00 -0.10141978774E+02  0.10141978774E+02  0.00000000000E+00 0.  1.
         23    2    1    2    0    0  0.00000000000E+00  0.00000000000E+00  0.19857446746E+03  0.21885842501E+03  0.92017341137E+02 0.  0.
        -11    1    3    3    0    0 -0.35610968278E+02 -0.10306632178E+02  0.34480317413E+02  0.50628648189E+02  0.00000000000E+00 0.  1.
         11    1    3    3    0    0  0.35610968278E+02  0.10306632178E+02  0.16409415005E+03  0.16822977682E+03  0.00000000000E+00 0. -1.
<mgrwt>
<rscale>  0 0.92017341E+02</rscale>
<asrwt>0</asrwt>
<pdfrwt beam="1">  1        1 0.32110219E-01 0.92017341E+02</pdfrwt>
<pdfrwt beam="2">  1       -1 0.15603046E-02 0.92017341E+02</pdfrwt>
<totfact> 0.11648787E+05</totfact>
</mgrwt>
</event>
<event>
 5    1  0.5681061E+000  0.9193729E+02  0.7546771E-02  0.1298227E+00
         -3   -1    0    0    0  501 -0.00000000000E+00  0.00000000000E+00  0.13101566682E+02  0.13101566682E+02  0.00000000000E+00 0.  1.
          3   -1    0    0  501    0  0.00000000000E+00 -0.00000000000E+00 -0.16128729462E+03  0.16128729462E+03  0.00000000000E+00 0. -1.
         23    2    1    2    0    0  0.00000000000E+00  0.00000000000E+00 -0.14818572793E+03  0.17438886130E+03  0.91937288308E+02 0.  0.
        -11    1    3    3    0    0  0.72280019322E+00 -0.27254814562E+02 -0.38906674516E+01  0.27540600033E+02  0.00000000000E+00 0.  1.
         11    1    3    3    0    0 -0.72280019322E+00  0.27254814562E+02 -0.14429506048E+03  0.14684826126E+03  0.00000000000E+00 0. -1.
<mgrwt>
<rscale>  0 0.91937288E+02</rscale>
<asrwt>0</asrwt>
<pdfrwt beam="2">  1        3 0.24813430E-01 0.91937288E+02</pdfrwt>
<pdfrwt beam="1">  1       -3 0.20156256E-02 0.91937288E+02</pdfrwt>
<totfact> 0.29213734E+04</totfact>
</mgrwt>
</event>
<event>
 5    1  0.5681061E+000  0.6928219E+02  0.7546771E-02  0.1362551E+00
          2   -1    0    0  501    0  0.00000000000E+00  0.00000000000E+00  0.82852302582E+02  0.82852302582E+02  0.00000000000E+00 0. -1.
         -2   -1    0    0    0  501 -0.00000000000E+00 -0.00000000000E+00 -0.14483669128E+02  0.14483669128E+02  0.00000000000E+00 0.  1.
         23    2    1    2    0    0  0.00000000000E+00  0.00000000000E+00  0.68368633454E+02  0.97335971710E+02  0.69282186371E+02 0.  0.
        -11    1    3    3    0    0  0.31894077870E+01 -0.32399070989E+02  0.50815468465E+02  0.60349680681E+02  0.00000000000E+00 0.  1.
         11    1    3    3    0    0 -0.31894077870E+01  0.32399070989E+02  0.17553164989E+02  0.36986291029E+02  0.00000000000E+00 0. -1.
<mgrwt>
<rscale>  0 0.69282186E+02</rscale>
<asrwt>0</asrwt>
<pdfrwt beam="1">  1        2 0.12746508E-01 0.69282186E+02</pdfrwt>
<pdfrwt beam="2">  1       -2 0.22282568E-02 0.69282186E+02</pdfrwt>
<totfact> 0.24459222E+05</totfact>
</mgrwt>
</event>
<event>
 5    1  0.5681061E+000  0.9010792E+02  0.7546771E-02  0.1302591E+00
          1   -1    0    0  501    0  0.00000000000E+00  0.00000000000E+00  0.68757113164E+02  0.68757113164E+02  0.00000000000E+00 0. -1.
         -1   -1    0    0    0  501 -0.00000000000E+00 -0.00000000000E+00 -0.29522174676E+02  0.29522174676E+02  0.00000000000E+00 0.  1.
         23    2    1    2    0    0  0.00000000000E+00  0.00000000000E+00  0.39234938488E+02  0.98279287841E+02  0.90107924292E+02 0.  0.
        -11    1    3    3    0    0  0.18490161049E+02  0.18132584229E+02 -0.20592890310E+02  0.33086912787E+02  0.00000000000E+00 0.  1.
         11    1    3    3    0    0 -0.18490161049E+02 -0.18132584229E+02  0.59827828798E+02  0.65192375054E+02  0.00000000000E+00 0. -1.
<mgrwt>
<rscale>  0 0.90107924E+02</rscale>
<asrwt>0</asrwt>
<pdfrwt beam="1">  1        1 0.10578017E-01 0.90107924E+02</pdfrwt>
<pdfrwt beam="2">  1       -1 0.45418730E-02 0.90107924E+02</pdfrwt>
<totfact> 0.10164451E+05</totfact>
</mgrwt>
</event>
<event>
 5    1  0.5681061E+000  0.9073261E+02  0.7546771E-02  0.1301087E+00
          2   -1    0    0  501    0  0.00000000000E+00  0.00000000000E+00  0.12532974824E+03  0.12532974824E+03  0.00000000000E+00 0. -1.
         -2   -1    0    0    0  501 -0.00000000000E+00 -0.00000000000E+00 -0.16421492330E+02  0.16421492330E+02  0.00000000000E+00 0.  1.
         23    2    1    2    0    0  0.00000000000E+00  0.00000000000E+00  0.10890825591E+03  0.14175124057E+03  0.90732607135E+02 0.  0.
        -11    1    3    3    0    0  0.37874974355E+02 -0.24970302084E+02  0.54872843364E+02  0.71197321631E+02  0.00000000000E+00 0.  1.
         11    1    3    3    0    0 -0.37874974355E+02  0.24970302084E+02  0.54035412547E+02  0.70553918939E+02  0.00000000000E+00 0. -1.
<mgrwt>
<rscale>  0 0.90732607E+02</rscale>
<asrwt>0</asrwt>
<pdfrwt beam="1">  1        2 0.19281499E-01 0.90732607E+02</pdfrwt>
<pdfrwt beam="2">  1       -2 0.25263835E-02 0.90732607E+02</pdfrwt>
<totfact> 0.13346452E+05</totfact>
</mgrwt>
</event>
<event>
 5    1  0.5681061E+000  0.8845720E+02  0.7546771E-02  0.1306631E+00
         -1   -1    0    0    0  501 -0.00000000000E+00  0.00000000000E+00  0.57707121906E+02  0.57707121906E+02  0.00000000000E+00 0.  1.
          1   -1    0    0  501    0  0.00000000000E+00 -0.00000000000E+00 -0.33898225113E+02  0.33898225113E+02  0.00000000000E+00 0. -1.
         23    2    1    2    0    0  0.00000000000E+00  0.00000000000E+00  0.23808896794E+02  0.91605347019E+02  0.88457198893E+02 0.  0.
        -11    1    3    3    0    0 -0.14702729049E+02  0.12334229701E+01  0.55083407674E+02  0.57025199470E+02  0.00000000000E+00 0.  1.
         11    1    3    3    0    0  0.14702729049E+02 -0.12334229701E+01 -0.31274510880E+02  0.34580147549E+02  0.00000000000E+00 0. -1.
<mgrwt>
<rscale>  0 0.88457199E+02</rscale>
<asrwt>0</asrwt>
<pdfrwt beam="2">  1        1 0.52151116E-02 0.88457199E+02</pdfrwt>
<pdfrwt beam="1">  1       -1 0.88780188E-02 0.88457199E+02</pdfrwt>
<totfact> 0.96319502E+04</totfact>
</mgrwt>
</event>
<event>
 5    1  0.5681061E+000  0.9152769E+02  0.7546771E-02  0.1299194E+00
         -3   -1    0    0    0  501 -0.00000000000E+00  0.00000000000E+00  0.11670318170E+03  0.11670318170E+03  0.00000000000E+00 0.  1.
          3   -1    0    0  501    0  0.00000000000E+00 -0.00000000000E+00 -0.17945779466E+02  0.17945779466E+02  0.00000000000E+00 0. -1.
         23    2    1    2    0    0  0.00000000000E+00  0.00000000000E+00  0.98757402231E+02  0.13464896116E+03  0.91527691147E+02 0.  0.
        -11    1    3    3    0    0 -0.16894193068E+02 -0.19843214987E+02 -0.59631490896E+01  0.26734361550E+02  0.00000000000E+00 0. -1.
         11    1    3    3    0    0  0.16894193068E+02  0.19843214987E+02  0.10472055132E+03  0.10791459961E+03  0.00000000000E+00 0.  1.
<mgrwt>
<rscale>  0 0.91527691E+02</rscale>
<asrwt>0</asrwt>
<pdfrwt beam="2">  1        3 0.27608892E-02 0.91527691E+02</pdfrwt>
<pdfrwt beam="1">  1       -3 0.17954335E-01 0.91527691E+02</pdfrwt>
<totfact> 0.31939219E+04</totfact>
</mgrwt>
</event>
<event>
 5    1  0.5681061E+000  0.8980280E+02  0.7546771E-02  0.1303330E+00
          2   -1    0    0  501    0  0.00000000000E+00  0.00000000000E+00  0.19453035924E+03  0.19453035924E+03  0.00000000000E+00 0. -1.
         -2   -1    0    0    0  501 -0.00000000000E+00 -0.00000000000E+00 -0.10364117933E+02  0.10364117933E+02  0.00000000000E+00 0.  1.
         23    2    1    2    0    0  0.00000000000E+00  0.00000000000E+00  0.18416624131E+03  0.20489447717E+03  0.89802796942E+02 0.  0.
        -11    1    3    3    0    0  0.22124092555E+02 -0.19789397040E+02  0.16895118576E+03  0.17153891359E+03  0.00000000000E+00 0. -1.
         11    1    3    3    0    0 -0.22124092555E+02  0.19789397040E+02  0.15215055550E+02  0.33355563583E+02  0.00000000000E+00 0.  1.
<mgrwt>
<rscale>  0 0.89802797E+02</rscale>
<asrwt>0</asrwt>
<pdfrwt beam="1">  1        2 0.29927745E-01 0.89802797E+02</pdfrwt>
<pdfrwt beam="2">  1       -2 0.15944798E-02 0.89802797E+02</pdfrwt>
<totfact> 0.15952475E+05</totfact>
</mgrwt>
</event>
<event>
 5    1  0.5681061E+000  0.9007833E+02  0.7546771E-02  0.1302662E+00
          1   -1    0    0  501    0  0.00000000000E+00  0.00000000000E+00  0.99148396141E+01  0.99148396141E+01  0.00000000000E+00 0. -1.
         -1   -1    0    0    0  501 -0.00000000000E+00 -0.00000000000E+00 -0.20459496885E+03  0.20459496885E+03  0.00000000000E+00 0.  1.
         23    2    1    2    0    0  0.00000000000E+00  0.00000000000E+00 -0.19468012924E+03  0.21450980847E+03  0.90078328183E+02 0.  0.
        -11    1    3    3    0    0  0.43377012211E+02  0.58016829198E+00 -0.12617574063E+03  0.13342495759E+03  0.00000000000E+00 0.  1.
         11    1    3    3    0    0 -0.43377012211E+02 -0.58016829198E+00 -0.68504388608E+02  0.81084850879E+02  0.00000000000E+00 0. -1.
<mgrwt>
<rscale>  0 0.90078328E+02</rscale>
<asrwt>0</asrwt>
<pdfrwt beam="1">  1        1 0.15253599E-02 0.90078328E+02</pdfrwt>
<pdfrwt beam="2">  1       -1 0.31476149E-01 0.90078328E+02</pdfrwt>
<totfact> 0.71182547E+04</totfact>
</mgrwt>
</event>
<event>
 5    1  0.5681061E+000  0.9197794E+02  0.7546771E-02  0.1298131E+00
         -3   -1    0    0    0  501 -0.00000000000E+00  0.00000000000E+00  0.18572777640E+02  0.18572777640E+02  0.00000000000E+00 0.  1.
          3   -1    0    0  501    0  0.00000000000E+00 -0.00000000000E+00 -0.11387556386E+03  0.11387556386E+03  0.00000000000E+00 0. -1.
         23    2    1    2    0    0  0.00000000000E+00  0.00000000000E+00 -0.95302786222E+02  0.13244834150E+03  0.91977943579E+02 0.  0.
        -11    1    3    3    0    0  0.38668030964E+02 -0.23105026608E+02 -0.34303067964E+02  0.56619425509E+02  0.00000000000E+00 0.  1.
         11    1    3    3    0    0 -0.38668030964E+02  0.23105026608E+02 -0.60999718258E+02  0.75828915994E+02  0.00000000000E+00 0. -1.
<mgrwt>
<rscale>  0 0.91977944E+02</rscale>
<asrwt>0</asrwt>
<pdfrwt beam="2">  1        3 0.17519318E-01 0.91977944E+02</pdfrwt>
<pdfrwt beam="1">  1       -3 0.28573504E-02 0.91977944E+02</pdfrwt>
<totfact> 0.31653893E+04</totfact>
</mgrwt>
</event>
<event>
 5    1  0.5681061E+000  0.9035741E+02  0.7546771E-02  0.1301988E+00
         -2   -1    0    0    0  501 -0.00000000000E+00  0.00000000000E+00  0.25900082421E+02  0.25900082421E+02  0.00000000000E+00 0.  1.
          2   -1    0    0  501    0  0.00000000000E+00 -0.00000000000E+00 -0.78807298038E+02  0.78807298038E+02  0.00000000000E+00 0. -1.
         23    2    1    2    0    0  0.00000000000E+00  0.00000000000E+00 -0.52907215617E+02  0.10470738046E+03  0.90357412857E+02 0.  0.
        -11    1    3    3    0    0 -0.24263269193E+02  0.22907088343E+02  0.88412418818E+01  0.34519682593E+02  0.00000000000E+00 0.  1.
         11    1    3    3    0    0  0.24263269193E+02 -0.22907088343E+02 -0.61748457499E+02  0.70187697866E+02  0.00000000000E+00 0. -1.
<mgrwt>
<rscale>  0 0.90357413E+02</rscale>
<asrwt>0</asrwt>
<pdfrwt beam="2">  1        2 0.12124199E-01 0.90357413E+02</pdfrwt>
<pdfrwt beam="1">  1       -2 0.39846282E-02 0.90357413E+02</pdfrwt>
<totfact> 0.11726804E+05</totfact>
</mgrwt>
</event>
<event>
 5    1  0.5681061E+000  0.9036910E+02  0.7546771E-02  0.1301960E+00
          1   -1    0    0  501    0  0.00000000000E+00  0.00000000000E+00  0.96701490412E+02  0.96701490412E+02  0.00000000000E+00 0. -1.
         -1   -1    0    0    0  501 -0.00000000000E+00 -0.00000000000E+00 -0.21112845346E+02  0.21112845346E+02  0.00000000000E+00 0.  1.
         23    2    1    2    0    0  0.00000000000E+00  0.00000000000E+00  0.75588645066E+02  0.11781433576E+03  0.90369101175E+02 0.  0.
        -11    1    3    3    0    0 -0.35396085787E+02 -0.63477521651E+01  0.21274987019E+01  0.36023646363E+02  0.00000000000E+00 0.  1.
         11    1    3    3    0    0  0.35396085787E+02  0.63477521651E+01  0.73461146364E+02  0.81790689395E+02  0.00000000000E+00 0. -1.
<mgrwt>
<rscale>  0 0.90369101E+02</rscale>
<asrwt>0</asrwt>
<pdfrwt beam="1">  1        1 0.14877152E-01 0.90369101E+02</pdfrwt>
<pdfrwt beam="2">  1       -1 0.32481301E-02 0.90369101E+02</pdfrwt>
<totfact> 0.10642315E+05</totfact>
</mgrwt>
</event>
<event>
 5    1  0.5681061E+000  0.8951561E+02  0.7546771E-02  0.1304029E+00
         -3   -1    0    0    0  501 -0.00000000000E+00  0.00000000000E+00  0.10482675501E+03  0.10482675501E+03  0.00000000000E+00 0.  1.
          3   -1    0    0  501    0  0.00000000000E+00 -0.00000000000E+00 -0.19110209650E+02  0.19110209650E+02  0.00000000000E+00 0. -1.
         23    2    1    2    0    0  0.00000000000E+00  0.00000000000E+00  0.85716545363E+02  0.12393696466E+03  0.89515613504E+02 0.  0.
        -11    1    3    3    0    0 -0.12762394259E+01 -0.43506690110E+02  0.57299938692E+02  0.71956541367E+02  0.00000000000E+00 0.  1.
         11    1    3    3    0    0  0.12762394259E+01  0.43506690110E+02  0.28416606671E+02  0.51980423296E+02  0.00000000000E+00 0. -1.
<mgrwt>
<rscale>  0 0.89515614E+02</rscale>
<asrwt>0</asrwt>
<pdfrwt beam="2">  1        3 0.29400323E-02 0.89515614E+02</pdfrwt>
<pdfrwt beam="1">  1       -3 0.16127193E-01 0.89515614E+02</pdfrwt>
<totfact> 0.34664851E+04</totfact>
</mgrwt>
</event>
<event>
 5    1  0.5681061E+000  0.8791203E+02  0.7546771E-02  0.1307988E+00
          3   -1    0    0  501    0  0.00000000000E+00  0.00000000000E+00  0.36307911460E+02  0.36307911460E+02  0.00000000000E+00 0. -1.
         -3   -1    0    0    0  501 -0.00000000000E+00 -0.00000000000E+00 -0.53215152659E+02  0.53215152659E+02  0.00000000000E+00 0.  1.
         23    2    1    2    0    0  0.00000000000E+00  0.00000000000E+00 -0.16907241199E+02  0.89523064118E+02  0.87912025367E+02 0.  0.
        -11    1    3    3    0    0  0.31535989475E+02 -0.19966802396E+02  0.15186873422E+02  0.40296810723E+02  0.00000000000E+00 0. -1.
         11    1    3    3    0    0 -0.31535989475E+02  0.19966802396E+02 -0.32094114621E+02  0.49226253396E+02  0.00000000000E+00 0.  1.
<mgrwt>
<rscale>  0 0.87912025E+02</rscale>
<asrwt>0</asrwt>
<pdfrwt beam="1">  1        3 0.55858326E-02 0.87912025E+02</pdfrwt>
<pdfrwt beam="2">  1       -3 0.81869465E-02 0.87912025E+02</pdfrwt>
<totfact> 0.39158148E+04</totfact>
</mgrwt>
</event>
<event>
 5    1  0.5681061E+000  0.9693237E+02  0.7546771E-02  0.1286882E+00
          2   -1    0    0  501    0  0.00000000000E+00  0.00000000000E+00  0.14512289011E+03  0.14512289011E+03  0.00000000000E+00 0. -1.
         -2   -1    0    0    0  501 -0.00000000000E+00 -0.00000000000E+00 -0.16186081460E+02  0.16186081460E+02  0.00000000000E+00 0.  1.
         23    2    1    2    0    0  0.00000000000E+00  0.00000000000E+00  0.12893680865E+03  0.16130897157E+03  0.96932366547E+02 0.  0.
        -11    1    3    3    0    0  0.29278382078E+02  0.13291894365E+00  0.19448850586E+00  0.29279329745E+02  0.00000000000E+00 0.  1.
         11    1    3    3    0    0 -0.29278382078E+02 -0.13291894365E+00  0.12874232015E+03  0.13202964183E+03  0.00000000000E+00 0. -1.
<mgrwt>
<rscale>  0 0.96932367E+02</rscale>
<asrwt>0</asrwt>
<pdfrwt beam="1">  1        2 0.22326598E-01 0.96932367E+02</pdfrwt>
<pdfrwt beam="2">  1       -2 0.24901665E-02 0.96932367E+02</pdfrwt>
<totfact> 0.11697780E+05</totfact>
</mgrwt>
</event>
<event>
 5    1  0.5681061E+000  0.8983617E+02  0.7546771E-02  0.1303249E+00
         -3   -1    0    0    0  501 -0.00000000000E+00  0.00000000000E+00  0.32699141794E+02  0.32699141794E+02  0.00000000000E+00 0.  1.
          3   -1    0    0  501    0  0.00000000000E+00 -0.00000000000E+00 -0.61702970158E+02  0.61702970158E+02  0.00000000000E+00 0. -1.
         23    2    1    2    0    0  0.00000000000E+00  0.00000000000E+00 -0.29003828364E+02  0.94402111952E+02  0.89836165775E+02 0.  0.
        -11    1    3    3    0    0  0.36832483512E+02  0.50837355077E+01 -0.40985170006E+02  0.55337693923E+02  0.00000000000E+00 0. -1.
         11    1    3    3    0    0 -0.36832483512E+02 -0.50837355077E+01  0.11981341642E+02  0.39064418029E+02  0.00000000000E+00 0.  1.
<mgrwt>
<rscale>  0 0.89836166E+02</rscale>
<asrwt>0</asrwt>
<pdfrwt beam="2">  1        3 0.94927645E-02 0.89836166E+02</pdfrwt>
<pdfrwt beam="1">  1       -3 0.50306373E-02 0.89836166E+02</pdfrwt>
<totfact> 0.36532895E+04</totfact>
</mgrwt>
</event>
<event>
 5    1  0.5681061E+000  0.9247273E+02  0.7546771E-02  0.1296972E+00
          2   -1    0    0  501    0  0.00000000000E+00  0.00000000000E+00  0.23681405947E+02  0.23681405947E+02  0.00000000000E+00 0. -1.
         -2   -1    0    0    0  501 -0.00000000000E+00 -0.00000000000E+00 -0.90273414655E+02  0.90273414655E+02  0.00000000000E+00 0.  1.
         23    2    1    2    0    0  0.00000000000E+00  0.00000000000E+00 -0.66592008708E+02  0.11395482060E+03  0.92472728492E+02 0.  0.
        -11    1    3    3    0    0  0.89298973689E+01 -0.17948402924E+02 -0.84639215302E+02  0.86980946198E+02  0.00000000000E+00 0.  1.
         11    1    3    3    0    0 -0.89298973689E+01  0.17948402924E+02  0.18047206594E+02  0.26973874404E+02  0.00000000000E+00 0. -1.
<mgrwt>
<rscale>  0 0.92472728E+02</rscale>
<asrwt>0</asrwt>
<pdfrwt beam="1">  1        2 0.36432932E-02 0.92472728E+02</pdfrwt>
<pdfrwt beam="2">  1       -2 0.13888218E-01 0.92472728E+02</pdfrwt>
<totfact> 0.79408165E+04</totfact>
</mgrwt>
</event>
<event>
 5    1  0.5681061E+000  0.8350477E+02  0.7546771E-02  0.1319390E+00
         -2   -1    0    0    0  501 -0.00000000000E+00  0.00000000000E+00  0.14343024447E+03  0.14343024447E+03  0.00000000000E+00 0.  1.
          2   -1    0    0  501    0  0.00000000000E+00 -0.00000000000E+00 -0.12154072439E+02  0.12154072439E+02  0.00000000000E+00 0. -1.
         23    2    1    2    0    0  0.00000000000E+00  0.00000000000E+00  0.13127617203E+03  0.15558431691E+03  0.83504768277E+02 0.  0.
        -11    1    3    3    0    0 -0.31287597954E+02 -0.25097044414E+02  0.87245029417E+02  0.96023281459E+02  0.00000000000E+00 0.  1.
         11    1    3    3    0    0  0.31287597954E+02  0.25097044414E+02  0.44031142614E+02  0.59561035451E+02  0.00000000000E+00 0. -1.
<mgrwt>
<rscale>  0 0.83504768E+02</rscale>
<asrwt>0</asrwt>
<pdfrwt beam="2">  1        2 0.18698574E-02 0.83504768E+02</pdfrwt>
<pdfrwt beam="1">  1       -2 0.22066190E-01 0.83504768E+02</pdfrwt>
<totfact> 0.88626935E+04</totfact>
</mgrwt>
</event>
<event>
 5    1  0.5681061E+000  0.9152550E+02  0.7546771E-02  0.1299199E+00
         -2   -1    0    0    0  501 -0.00000000000E+00  0.00000000000E+00  0.42126334020E+02  0.42126334020E+02  0.00000000000E+00 0.  1.
          2   -1    0    0  501    0  0.00000000000E+00 -0.00000000000E+00 -0.49713065412E+02  0.49713065412E+02  0.00000000000E+00 0. -1.
         23    2    1    2    0    0  0.00000000000E+00  0.00000000000E+00 -0.75867313926E+01  0.91839399432E+02  0.91525498058E+02 0.  0.
        -11    1    3    3    0    0  0.84669583018E+01  0.38479282592E+02  0.19564886838E+02  0.43990105349E+02  0.00000000000E+00 0.  1.
         11    1    3    3    0    0 -0.84669583018E+01 -0.38479282592E+02 -0.27151618231E+02  0.47849294083E+02  0.00000000000E+00 0. -1.
<mgrwt>
<rscale>  0 0.91525498E+02</rscale>
<asrwt>0</asrwt>
<pdfrwt beam="2">  1        2 0.76481639E-02 0.91525498E+02</pdfrwt>
<pdfrwt beam="1">  1       -2 0.64809745E-02 0.91525498E+02</pdfrwt>
<totfact> 0.99830559E+04</totfact>
</mgrwt>
</event>
<event>
 5    1  0.5681061E+000  0.9305247E+02  0.7546771E-02  0.1295624E+00
          3   -1    0    0  501    0  0.00000000000E+00  0.00000000000E+00  0.13616821985E+02  0.13616821985E+02  0.00000000000E+00 0. -1.
         -3   -1    0    0    0  501 -0.00000000000E+00 -0.00000000000E+00 -0.15897180448E+03  0.15897180448E+03  0.00000000000E+00 0.  1.
         23    2    1    2    0    0  0.00000000000E+00  0.00000000000E+00 -0.14535498249E+03  0.17258862646E+03  0.93052474707E+02 0.  0.
        -11    1    3    3    0    0 -0.77914067590E+01 -0.45404142346E+02 -0.60593346063E+02  0.76116987254E+02  0.00000000000E+00 0.  1.
         11    1    3    3    0    0  0.77914067590E+01  0.45404142346E+02 -0.84761636431E+02  0.96471639210E+02  0.00000000000E+00 0. -1.
<mgrwt>
<rscale>  0 0.93052475E+02</rscale>
<asrwt>0</asrwt>
<pdfrwt beam="1">  1        3 0.20948957E-02 0.93052475E+02</pdfrwt>
<pdfrwt beam="2">  1       -3 0.24457200E-01 0.93052475E+02</pdfrwt>
<totfact> 0.28369934E+04</totfact>
</mgrwt>
</event>
<event>
 5    1  0.5681061E+000  0.8844650E+02  0.7546771E-02  0.1306658E+00
         -1   -1    0    0    0  501 -0.00000000000E+00  0.00000000000E+00  0.15266889196E+02  0.15266889196E+02  0.00000000000E+00 0.  1.
          1   -1    0    0  501    0  0.00000000000E+00 -0.00000000000E+00 -0.12810046920E+03  0.12810046920E+03  0.00000000000E+00 0. -1.
         23    2    1    2    0    0  0.00000000000E+00  0.00000000000E+00 -0.11283358000E+03  0.14336735839E+03  0.88446496126E+02 0.  0.
        -11    1    3    3    0    0 -0.36578361940E+02  0.23764593784E+02 -0.68213386241E+02  0.80967885871E+02  0.00000000000E+00 0. -1.
         11    1    3    3    0    0  0.36578361940E+02 -0.23764593784E+02 -0.44620193760E+02  0.62399472523E+02  0.00000000000E+00 0.  1.
<mgrwt>
<rscale>  0 0.88446496E+02</rscale>
<asrwt>0</asrwt>
<pdfrwt beam="2">  1        1 0.19707765E-01 0.88446496E+02</pdfrwt>
<pdfrwt beam="1">  1       -1 0.23487522E-02 0.88446496E+02</pdfrwt>
<totfact> 0.11830797E+05</totfact>
</mgrwt>
</event>
<event>
 5    1  0.5681061E+000  0.9582318E+02  0.7546771E-02  0.1289333E+00
         -2   -1    0    0    0  501 -0.00000000000E+00  0.00000000000E+00  0.72460081459E+02  0.72460081459E+02  0.00000000000E+00 0.  1.
          2   -1    0    0  501    0  0.00000000000E+00 -0.00000000000E+00 -0.31679790916E+02  0.31679790916E+02  0.00000000000E+00 0. -1.
         23    2    1    2    0    0  0.00000000000E+00  0.00000000000E+00  0.40780290543E+02  0.10413987238E+03  0.95823175284E+02 0.  0.
        -11    1    3    3    0    0  0.30731526994E+02  0.56152042368E+01 -0.19088436388E+02  0.36610458530E+02  0.00000000000E+00 0.  1.
         11    1    3    3    0    0 -0.30731526994E+02 -0.56152042368E+01  0.59868726931E+02  0.67529413845E+02  0.00000000000E+00 0. -1.
<mgrwt>
<rscale>  0 0.95823175E+02</rscale>
<asrwt>0</asrwt>
<pdfrwt beam="2">  1        2 0.48738140E-02 0.95823175E+02</pdfrwt>
<pdfrwt beam="1">  1       -2 0.11147705E-01 0.95823175E+02</pdfrwt>
<totfact> 0.77423349E+04</totfact>
</mgrwt>
</event>
<event>
 5    1  0.5681061E+000  0.9053138E+02  0.7546771E-02  0.1301570E+00
          3   -1    0    0  501    0  0.00000000000E+00  0.00000000000E+00  0.13526663472E+02  0.13526663472E+02  0.00000000000E+00 0. -1.
         -3   -1    0    0    0  501 -0.00000000000E+00 -0.00000000000E+00 -0.15147730795E+03  0.15147730795E+03  0.00000000000E+00 0.  1.
         23    2    1    2    0    0  0.00000000000E+00  0.00000000000E+00 -0.13795064448E+03  0.16500397142E+03  0.90531377286E+02 0.  0.
        -11    1    3    3    0    0 -0.25424501902E+02  0.36573013114E+02 -0.83668819084E+02  0.94786401304E+02  0.00000000000E+00 0.  1.
         11    1    3    3    0    0  0.25424501902E+02 -0.36573013114E+02 -0.54281825396E+02  0.70217570120E+02  0.00000000000E+00 0. -1.
<mgrwt>
<rscale>  0 0.90531377E+02</rscale>
<asrwt>0</asrwt>
<pdfrwt beam="1">  1        3 0.20810250E-02 0.90531377E+02</pdfrwt>
<pdfrwt beam="2">  1       -3 0.23304202E-01 0.90531377E+02</pdfrwt>
<totfact> 0.31003459E+04</totfact>
</mgrwt>
</event>
<event>
 5    1  0.5681061E+000  0.9137794E+02  0.7546771E-02  0.1299549E+00
         -3   -1    0    0    0  501 -0.00000000000E+00  0.00000000000E+00  0.30529665686E+02  0.30529665686E+02  0.00000000000E+00 0.  1.
          3   -1    0    0  501    0  0.00000000000E+00 -0.00000000000E+00 -0.68375533154E+02  0.68375533154E+02  0.00000000000E+00 0. -1.
         23    2    1    2    0    0  0.00000000000E+00  0.00000000000E+00 -0.37845867468E+02  0.98905198840E+02  0.91377944128E+02 0.  0.
        -11    1    3    3    0    0  0.15167043076E+02 -0.39705627945E+02 -0.78205547653E+00  0.42511030298E+02  0.00000000000E+00 0.  1.
         11    1    3    3    0    0 -0.15167043076E+02  0.39705627945E+02 -0.37063811992E+02  0.56394168542E+02  0.00000000000E+00 0. -1.
<mgrwt>
<rscale>  0 0.91377944E+02</rscale>
<asrwt>0</asrwt>
<pdfrwt beam="2">  1        3 0.10519313E-01 0.91377944E+02</pdfrwt>
<pdfrwt beam="1">  1       -3 0.46968716E-02 0.91377944E+02</pdfrwt>
<totfact> 0.34544180E+04</totfact>
</mgrwt>
</event>
<event>
 5    1  0.5681061E+000  0.9122541E+02  0.7546771E-02  0.1299911E+00
          2   -1    0    0  501    0  0.00000000000E+00  0.00000000000E+00  0.22165840233E+03  0.22165840233E+03  0.00000000000E+00 0. -1.
         -2   -1    0    0    0  501 -0.00000000000E+00 -0.00000000000E+00 -0.93861492655E+01  0.93861492655E+01  0.00000000000E+00 0.  1.
         23    2    1    2    0    0  0.00000000000E+00  0.00000000000E+00  0.21227225307E+03  0.23104455160E+03  0.91225409843E+02 0.  0.
        -11    1    3    3    0    0  0.12276051110E+02  0.43384730884E+02  0.88665690497E+02  0.99471307300E+02  0.00000000000E+00 0. -1.
         11    1    3    3    0    0 -0.12276051110E+02 -0.43384730884E+02  0.12360656257E+03  0.13157324430E+03  0.00000000000E+00 0.  1.
<mgrwt>
<rscale>  0 0.91225410E+02</rscale>
<asrwt>0</asrwt>
<pdfrwt beam="1">  1        2 0.34101289E-01 0.91225410E+02</pdfrwt>
<pdfrwt beam="2">  1       -2 0.14440231E-02 0.91225410E+02</pdfrwt>
<totfact> 0.16035172E+05</totfact>
</mgrwt>
</event>
<event>
 5    1  0.5681061E+000  0.9013048E+02  0.7546771E-02  0.1302536E+00
         -4   -1    0    0    0  501 -0.00000000000E+00  0.00000000000E+00  0.33328358770E+03  0.33328358770E+03  0.00000000000E+00 0.  1.
          4   -1    0    0  501    0  0.00000000000E+00 -0.00000000000E+00 -0.60935373352E+01  0.60935373352E+01  0.00000000000E+00 0. -1.
         23    2    1    2    0    0  0.00000000000E+00  0.00000000000E+00  0.32719005037E+03  0.33937712504E+03  0.90130482854E+02 0.  0.
        -11    1    3    3    0    0  0.41301967460E+02  0.16396214935E+02  0.13537020865E+03  0.14247730265E+03  0.00000000000E+00 0. -1.
         11    1    3    3    0    0 -0.41301967460E+02 -0.16396214935E+02  0.19181984172E+03  0.19689982239E+03  0.00000000000E+00 0.  1.
<mgrwt>
<rscale>  0 0.90130483E+02</rscale>
<asrwt>0</asrwt>
<pdfrwt beam="2">  1        4 0.93746754E-03 0.90130483E+02</pdfrwt>
<pdfrwt beam="1">  1       -4 0.51274384E-01 0.90130483E+02</pdfrwt>
<totfact> 0.17200519E+04</totfact>
</mgrwt>
</event>
<event>
 5    1  0.5681061E+000  0.9519330E+02  0.7546771E-02  0.1290741E+00
         -1   -1    0    0    0  501 -0.00000000000E+00  0.00000000000E+00  0.66564040864E+02  0.66564040864E+02  0.00000000000E+00 0.  1.
          1   -1    0    0  501    0  0.00000000000E+00 -0.00000000000E+00 -0.34034009748E+02  0.34034009748E+02  0.00000000000E+00 0. -1.
         23    2    1    2    0    0  0.00000000000E+00  0.00000000000E+00  0.32530031116E+02  0.10059805061E+03  0.95193302614E+02 0.  0.
        -11    1    3    3    0    0  0.19382403409E+02  0.10502152407E+02  0.60843809704E+02  0.64714310213E+02  0.00000000000E+00 0. -1.
         11    1    3    3    0    0 -0.19382403409E+02 -0.10502152407E+02 -0.28313778588E+02  0.35883740399E+02  0.00000000000E+00 0.  1.
<mgrwt>
<rscale>  0 0.95193303E+02</rscale>
<asrwt>0</asrwt>
<pdfrwt beam="2">  1        1 0.52360015E-02 0.95193303E+02</pdfrwt>
<pdfrwt beam="1">  1       -1 0.10240622E-01 0.95193303E+02</pdfrwt>
<totfact> 0.78167239E+04</totfact>
</mgrwt>
</event>
<event>
 5    1  0.5681061E+000  0.8337551E+02  0.7546771E-02  0.1319736E+00
          1   -1    0    0  501    0  0.00000000000E+00  0.00000000000E+00  0.64096504562E+02  0.64096504562E+02  0.00000000000E+00 0. -1.
         -1   -1    0    0    0  501 -0.00000000000E+00 -0.00000000000E+00 -0.27113317874E+02  0.27113317874E+02  0.00000000000E+00 0.  1.
         23    2    1    2    0    0  0.00000000000E+00  0.00000000000E+00  0.36983186688E+02  0.91209822436E+02  0.83375509661E+02 0.  0.
        -11    1    3    3    0    0  0.30547311355E+02  0.14972040856E+02  0.44850652474E+02  0.56292817177E+02  0.00000000000E+00 0.  1.
         11    1    3    3    0    0 -0.30547311355E+02 -0.14972040856E+02 -0.78674657857E+01  0.34917005259E+02  0.00000000000E+00 0. -1.
<mgrwt>
<rscale>  0 0.83375510E+02</rscale>
<asrwt>0</asrwt>
<pdfrwt beam="1">  1        1 0.98610007E-02 0.83375510E+02</pdfrwt>
<pdfrwt beam="2">  1       -1 0.41712797E-02 0.83375510E+02</pdfrwt>
<totfact> 0.12445390E+05</totfact>
</mgrwt>
</event>
<event>
 5    1  0.5681061E+000  0.7985197E+02  0.7546771E-02  0.1329472E+00
         -2   -1    0    0    0  501 -0.00000000000E+00  0.00000000000E+00  0.95418206665E+01  0.95418206665E+01  0.00000000000E+00 0.  1.
          2   -1    0    0  501    0  0.00000000000E+00 -0.00000000000E+00 -0.16706289179E+03  0.16706289179E+03  0.00000000000E+00 0. -1.
         23    2    1    2    0    0  0.00000000000E+00  0.00000000000E+00 -0.15752107112E+03  0.17660471245E+03  0.79851966875E+02 0.  0.
        -11    1    3    3    0    0  0.35876597384E+02 -0.16855800483E+02 -0.89329337801E+02  0.97729109490E+02  0.00000000000E+00 0.  1.
         11    1    3    3    0    0 -0.35876597384E+02  0.16855800483E+02 -0.68191733320E+02  0.78875602964E+02  0.00000000000E+00 0. -1.
<mgrwt>
<rscale>  0 0.79851967E+02</rscale>
<asrwt>0</asrwt>
<pdfrwt beam="2">  1        2 0.25701982E-01 0.79851967E+02</pdfrwt>
<pdfrwt beam="1">  1       -2 0.14679725E-02 0.79851967E+02</pdfrwt>
<totfact> 0.20707251E+05</totfact>
</mgrwt>
</event>
<event>
 5    1  0.5681061E+000  0.9129562E+02  0.7546771E-02  0.1299744E+00
         -2   -1    0    0    0  501 -0.00000000000E+00  0.00000000000E+00  0.33017357602E+02  0.33017357602E+02  0.00000000000E+00 0.  1.
          2   -1    0    0  501    0  0.00000000000E+00 -0.00000000000E+00 -0.63109913432E+02  0.63109913432E+02  0.00000000000E+00 0. -1.
         23    2    1    2    0    0  0.00000000000E+00  0.00000000000E+00 -0.30092555830E+02  0.96127271035E+02  0.91295620487E+02 0.  0.
        -11    1    3    3    0    0 -0.94143494266E+01 -0.36446155746E+02  0.12142194274E+02  0.39552308726E+02  0.00000000000E+00 0.  1.
         11    1    3    3    0    0  0.94143494266E+01  0.36446155746E+02 -0.42234750105E+02  0.56574962308E+02  0.00000000000E+00 0. -1.
<mgrwt>
<rscale>  0 0.91295620E+02</rscale>
<asrwt>0</asrwt>
<pdfrwt beam="2">  1        2 0.97092175E-02 0.91295620E+02</pdfrwt>
<pdfrwt beam="1">  1       -2 0.50795935E-02 0.91295620E+02</pdfrwt>
<totfact> 0.10713075E+05</totfact>
</mgrwt>
</event>
<event>
 5    1  0.5681061E+000  0.9116618E+02  0.7546771E-02  0.1300052E+00
          2   -1    0    0  501    0  0.00000000000E+00  0.00000000000E+00  0.11576923473E+02  0.11576923473E+02  0.00000000000E+00 0. -1.
         -2   -1    0    0    0  501 -0.00000000000E+00 -0.00000000000E+00 -0.17947930198E+03  0.17947930198E+03  0.00000000000E+00 0.  1.
         23    2    1    2    0    0  0.00000000000E+00  0.00000000000E+00 -0.16790237850E+03  0.19105622545E+03  0.91166181098E+02 0.  0.
        -11    1    3    3    0    0  0.11891013239E+01 -0.27578768847E+02 -0.15997068091E+03  0.16233490445E+03  0.00000000000E+00 0.  1.
         11    1    3    3    0    0 -0.11891013239E+01  0.27578768847E+02 -0.79316975937E+01  0.28721320997E+02  0.00000000000E+00 0. -1.
<mgrwt>
<rscale>  0 0.91166181E+02</rscale>
<asrwt>0</asrwt>
<pdfrwt beam="1">  1        2 0.17810651E-02 0.91166181E+02</pdfrwt>
<pdfrwt beam="2">  1       -2 0.27612201E-01 0.91166181E+02</pdfrwt>
<totfact> 0.65229569E+04</totfact>
</mgrwt>
</event>
<event>
 5    1  0.5681061E+000  0.9371200E+02  0.7546771E-02  0.1294104E+00
         -2   -1    0    0    0  501 -0.00000000000E+00  0.00000000000E+00  0.29506163363E+02  0.29506163363E+02  0.00000000000E+00 0. -1.
          2   -1    0    0  501    0  0.00000000000E+00 -0.00000000000E+00 -0.74407671286E+02  0.74407671286E+02  0.00000000000E+00 0.  1.
         23    2    1    2    0    0  0.00000000000E+00  0.00000000000E+00 -0.44901507922E+02  0.10391383465E+03  0.93712003595E+02 0.  0.
        -11    1    3    3    0    0 -0.14521607459E+02  0.28985122732E+01  0.26843273668E+02  0.30656806713E+02  0.00000000000E+00 0. -1.
         11    1    3    3    0    0  0.14521607459E+02 -0.28985122732E+01 -0.71744781591E+02  0.73257027936E+02  0.00000000000E+00 0.  1.
<mgrwt>
<rscale>  0 0.93712004E+02</rscale>
<asrwt>0</asrwt>
<pdfrwt beam="2">  1        2 0.11447334E-01 0.93712004E+02</pdfrwt>
<pdfrwt beam="1">  1       -2 0.45394098E-02 0.93712004E+02</pdfrwt>
<totfact> 0.10420884E+05</totfact>
</mgrwt>
</event>
<event>
 5    1  0.5681061E+000  0.8988896E+02  0.7546771E-02  0.1303121E+00
          1   -1    0    0  501    0  0.00000000000E+00  0.00000000000E+00  0.10150167997E+03  0.10150167997E+03  0.00000000000E+00 0. -1.
         -1   -1    0    0    0  501 -0.00000000000E+00 -0.00000000000E+00 -0.19901208587E+02  0.19901208587E+02  0.00000000000E+00 0.  1.
         23    2    1    2    0    0  0.00000000000E+00  0.00000000000E+00  0.81600471387E+02  0.12140288856E+03  0.89888956053E+02 0.  0.
        -11    1    3    3    0    0 -0.12940867806E+02 -0.35962121167E+02  0.88604610009E+01  0.39233251045E+02  0.00000000000E+00 0.  1.
         11    1    3    3    0    0  0.12940867806E+02  0.35962121167E+02  0.72740010386E+02  0.82169637516E+02  0.00000000000E+00 0. -1.
<mgrwt>
<rscale>  0 0.89888956E+02</rscale>
<asrwt>0</asrwt>
<pdfrwt beam="1">  1        1 0.15615643E-01 0.89888956E+02</pdfrwt>
<pdfrwt beam="2">  1       -1 0.30617245E-02 0.89888956E+02</pdfrwt>
<totfact> 0.10884311E+05</totfact>
</mgrwt>
</event>
<event>
 5    1  0.5681061E+000  0.9198815E+02  0.7546771E-02  0.1298107E+00
         -4   -1    0    0    0  501 -0.00000000000E+00  0.00000000000E+00  0.52704252000E+02  0.52704252000E+02  0.00000000000E+00 0.  1.
          4   -1    0    0  501    0  0.00000000000E+00 -0.00000000000E+00 -0.40138225698E+02  0.40138225698E+02  0.00000000000E+00 0. -1.
         23    2    1    2    0    0  0.00000000000E+00  0.00000000000E+00  0.12566026302E+02  0.92842477697E+02  0.91988154933E+02 0.  0.
        -11    1    3    3    0    0  0.63004297623E+01  0.22196350856E+02  0.46440496310E+02  0.51856466366E+02  0.00000000000E+00 0.  1.
         11    1    3    3    0    0 -0.63004297623E+01 -0.22196350856E+02 -0.33874470008E+02  0.40986011331E+02  0.00000000000E+00 0. -1.
<mgrwt>
<rscale>  0 0.91988155E+02</rscale>
<asrwt>0</asrwt>
<pdfrwt beam="2">  1        4 0.61751116E-02 0.91988155E+02</pdfrwt>
<pdfrwt beam="1">  1       -4 0.81083465E-02 0.91988155E+02</pdfrwt>
<totfact> 0.26268773E+04</totfact>
</mgrwt>
</event>
<event>
 5    1  0.5681061E+000  0.9309981E+02  0.7546771E-02  0.1295514E+00
         -1   -1    0    0    0  501 -0.00000000000E+00  0.00000000000E+00  0.61690972248E+02  0.61690972248E+02  0.00000000000E+00 0.  1.
          1   -1    0    0  501    0  0.00000000000E+00 -0.00000000000E+00 -0.35124972646E+02  0.35124972646E+02  0.00000000000E+00 0. -1.
         23    2    1    2    0    0  0.00000000000E+00  0.00000000000E+00  0.26565999602E+02  0.96815944894E+02  0.93099811229E+02 0.  0.
        -11    1    3    3    0    0 -0.35689011137E+02  0.84431919019E+01  0.43096142931E+02  0.56588607872E+02  0.00000000000E+00 0.  1.
         11    1    3    3    0    0  0.35689011137E+02 -0.84431919019E+01 -0.16530143328E+02  0.40227337022E+02  0.00000000000E+00 0. -1.
<mgrwt>
<rscale>  0 0.93099811E+02</rscale>
<asrwt>0</asrwt>
<pdfrwt beam="2">  1        1 0.54038419E-02 0.93099811E+02</pdfrwt>
<pdfrwt beam="1">  1       -1 0.94909188E-02 0.93099811E+02</pdfrwt>
<totfact> 0.83736115E+04</totfact>
</mgrwt>
</event>
<event>
 5    1  0.5681061E+000  0.9346665E+02  0.7546771E-02  0.1294667E+00
         -2   -1    0    0    0  501 -0.00000000000E+00  0.00000000000E+00  0.36874551326E+02  0.36874551326E+02  0.00000000000E+00 0. -1.
          2   -1    0    0  501    0  0.00000000000E+00 -0.00000000000E+00 -0.59227942823E+02  0.59227942823E+02  0.00000000000E+00 0.  1.
         23    2    1    2    0    0  0.00000000000E+00  0.00000000000E+00 -0.22353391497E+02  0.96102494150E+02  0.93466653253E+02 0.  0.
        -11    1    3    3    0    0 -0.11253133056E+02 -0.35098856969E+02 -0.40717410510E+02  0.54922402376E+02  0.00000000000E+00 0.  1.
         11    1    3    3    0    0  0.11253133056E+02  0.35098856969E+02  0.18364019013E+02  0.41180091773E+02  0.00000000000E+00 0. -1.
<mgrwt>
<rscale>  0 0.93466653E+02</rscale>
<asrwt>0</asrwt>
<pdfrwt beam="2">  1        2 0.91119912E-02 0.93466653E+02</pdfrwt>
<pdfrwt beam="1">  1       -2 0.56730079E-02 0.93466653E+02</pdfrwt>
<totfact> 0.98532436E+04</totfact>
</mgrwt>
</event>
<event>
 5    1  0.5681061E+000  0.9008420E+02  0.7546771E-02  0.1302648E+00
          2   -1    0    0  501    0  0.00000000000E+00  0.00000000000E+00  0.12528907052E+03  0.12528907052E+03  0.00000000000E+00 0.  1.
         -2   -1    0    0    0  501 -0.00000000000E+00 -0.00000000000E+00 -0.16192878103E+02  0.16192878103E+02  0.00000000000E+00 0. -1.
         23    2    1    2    0    0  0.00000000000E+00  0.00000000000E+00  0.10909619242E+03  0.14148194863E+03  0.90084197207E+02 0.  0.
        -11    1    3    3    0    0  0.44209809755E+02  0.33762448400E+01  0.42093671554E+02  0.61137414835E+02  0.00000000000E+00 0. -1.
         11    1    3    3    0    0 -0.44209809755E+02 -0.33762448400E+01  0.67002520865E+02  0.80344533791E+02  0.00000000000E+00 0.  1.
<mgrwt>
<rscale>  0 0.90084197E+02</rscale>
<asrwt>0</asrwt>
<pdfrwt beam="1">  1        2 0.19275241E-01 0.90084197E+02</pdfrwt>
<pdfrwt beam="2">  1       -2 0.24912121E-02 0.90084197E+02</pdfrwt>
<totfact> 0.13608357E+05</totfact>
</mgrwt>
</event>
<event>
 5    1  0.5681061E+000  0.9254292E+02  0.7546771E-02  0.1296808E+00
         -2   -1    0    0    0  501 -0.00000000000E+00  0.00000000000E+00  0.11522430070E+02  0.11522430070E+02  0.00000000000E+00 0.  1.
          2   -1    0    0  501    0  0.00000000000E+00 -0.00000000000E+00 -0.18581565153E+03  0.18581565153E+03  0.00000000000E+00 0. -1.
         23    2    1    2    0    0  0.00000000000E+00  0.00000000000E+00 -0.17429322146E+03  0.19733808160E+03  0.92542916544E+02 0.  0.
        -11    1    3    3    0    0 -0.36762994443E+02 -0.27692978294E+02 -0.77002807477E+02  0.89709816445E+02  0.00000000000E+00 0.  1.
         11    1    3    3    0    0  0.36762994443E+02  0.27692978294E+02 -0.97290413983E+02  0.10762826515E+03  0.00000000000E+00 0. -1.
<mgrwt>
<rscale>  0 0.92542917E+02</rscale>
<asrwt>0</asrwt>
<pdfrwt beam="2">  1        2 0.28587024E-01 0.92542917E+02</pdfrwt>
<pdfrwt beam="1">  1       -2 0.17726815E-02 0.92542917E+02</pdfrwt>
<totfact> 0.14470966E+05</totfact>
</mgrwt>
</event>
<event>
 5    1  0.5681061E+000  0.8735058E+02  0.7546771E-02  0.1309397E+00
         -2   -1    0    0    0  501 -0.00000000000E+00  0.00000000000E+00  0.46487107686E+02  0.46487107686E+02  0.00000000000E+00 0.  1.
          2   -1    0    0  501    0  0.00000000000E+00 -0.00000000000E+00 -0.41033551165E+02  0.41033551165E+02  0.00000000000E+00 0. -1.
         23    2    1    2    0    0  0.00000000000E+00  0.00000000000E+00  0.54535565202E+01  0.87520658851E+02  0.87350583553E+02 0.  0.
        -11    1    3    3    0    0  0.31018688384E+02  0.43266092672E+01  0.33227016154E+02  0.45660849525E+02  0.00000000000E+00 0.  1.
         11    1    3    3    0    0 -0.31018688384E+02 -0.43266092672E+01 -0.27773459634E+02  0.41859809326E+02  0.00000000000E+00 0. -1.
<mgrwt>
<rscale>  0 0.87350584E+02</rscale>
<asrwt>0</asrwt>
<pdfrwt beam="2">  1        2 0.63128540E-02 0.87350584E+02</pdfrwt>
<pdfrwt beam="1">  1       -2 0.71518628E-02 0.87350584E+02</pdfrwt>
<totfact> 0.10861896E+05</totfact>
</mgrwt>
</event>
<event>
 5    1  0.5681061E+000  0.8845278E+02  0.7546771E-02  0.1306642E+00
         -1   -1    0    0    0  501 -0.00000000000E+00  0.00000000000E+00  0.18733614411E+02  0.18733614411E+02  0.00000000000E+00 0.  1.
          1   -1    0    0  501    0  0.00000000000E+00 -0.00000000000E+00 -0.10440984229E+03  0.10440984229E+03  0.00000000000E+00 0. -1.
         23    2    1    2    0    0  0.00000000000E+00  0.00000000000E+00 -0.85676227884E+02  0.12314345671E+03  0.88452783479E+02 0.  0.
        -11    1    3    3    0    0 -0.23835617273E+02  0.36637217512E+02 -0.52234277131E+02  0.68109045399E+02  0.00000000000E+00 0. -1.
         11    1    3    3    0    0  0.23835617273E+02 -0.36637217512E+02 -0.33441950753E+02  0.55034411307E+02  0.00000000000E+00 0.  1.
<mgrwt>
<rscale>  0 0.88452783E+02</rscale>
<asrwt>0</asrwt>
<pdfrwt beam="2">  1        1 0.16063053E-01 0.88452783E+02</pdfrwt>
<pdfrwt beam="1">  1       -1 0.28820945E-02 0.88452783E+02</pdfrwt>
<totfact> 0.11423922E+05</totfact>
</mgrwt>
</event>
<event>
 5    1  0.5681061E+000  0.9663143E+02  0.7546771E-02  0.1287543E+00
         -1   -1    0    0    0  501 -0.00000000000E+00  0.00000000000E+00  0.13796182047E+03  0.13796182047E+03  0.00000000000E+00 0.  1.
          1   -1    0    0  501    0  0.00000000000E+00 -0.00000000000E+00 -0.16920684340E+02  0.16920684340E+02  0.00000000000E+00 0. -1.
         23    2    1    2    0    0  0.00000000000E+00  0.00000000000E+00  0.12104113613E+03  0.15488250481E+03  0.96631432053E+02 0.  0.
        -11    1    3    3    0    0  0.22029813339E+02  0.42871540193E+02  0.55174078590E+02  0.73262955049E+02  0.00000000000E+00 0. -1.
         11    1    3    3    0    0 -0.22029813339E+02 -0.42871540193E+02  0.65867057538E+02  0.81619549760E+02  0.00000000000E+00 0.  1.
<mgrwt>
<rscale>  0 0.96631432E+02</rscale>
<asrwt>0</asrwt>
<pdfrwt beam="2">  1        1 0.26031823E-02 0.96631432E+02</pdfrwt>
<pdfrwt beam="1">  1       -1 0.21224895E-01 0.96631432E+02</pdfrwt>
<totfact> 0.65551663E+04</totfact>
</mgrwt>
</event>
<event>
 5    1  0.5681061E+000  0.9011187E+02  0.7546771E-02  0.1302581E+00
          3   -1    0    0  501    0  0.00000000000E+00  0.00000000000E+00  0.19973978244E+02  0.19973978244E+02  0.00000000000E+00 0. -1.
         -3   -1    0    0    0  501 -0.00000000000E+00 -0.00000000000E+00 -0.10163409299E+03  0.10163409299E+03  0.00000000000E+00 0.  1.
         23    2    1    2    0    0  0.00000000000E+00  0.00000000000E+00 -0.81660114743E+02  0.12160807123E+03  0.90111867413E+02 0.  0.
        -11    1    3    3    0    0 -0.16408324642E+02  0.31744882461E+02 -0.37963603068E+01  0.35935818226E+02  0.00000000000E+00 0. -1.
         11    1    3    3    0    0  0.16408324642E+02 -0.31744882461E+02 -0.77863754436E+02  0.85672253005E+02  0.00000000000E+00 0.  1.
<mgrwt>
<rscale>  0 0.90111867E+02</rscale>
<asrwt>0</asrwt>
<pdfrwt beam="1">  1        3 0.30729198E-02 0.90111867E+02</pdfrwt>
<pdfrwt beam="2">  1       -3 0.15636014E-01 0.90111867E+02</pdfrwt>
<totfact> 0.34210570E+04</totfact>
</mgrwt>
</event>
<event>
 5    1  0.5681061E+000  0.9139929E+02  0.7546771E-02  0.1299498E+00
          1   -1    0    0  501    0  0.00000000000E+00  0.00000000000E+00  0.68414419606E+02  0.68414419606E+02  0.00000000000E+00 0.  1.
         -1   -1    0    0    0  501 -0.00000000000E+00 -0.00000000000E+00 -0.30526570683E+02  0.30526570683E+02  0.00000000000E+00 0. -1.
         23    2    1    2    0    0  0.00000000000E+00  0.00000000000E+00  0.37887848923E+02  0.98940990288E+02  0.91399291372E+02 0.  0.
        -11    1    3    3    0    0  0.87369325509E+01  0.17082773431E+02  0.63842837949E+02  0.66663806492E+02  0.00000000000E+00 0.  1.
         11    1    3    3    0    0 -0.87369325509E+01 -0.17082773431E+02 -0.25954989027E+02  0.32277183797E+02  0.00000000000E+00 0. -1.
<mgrwt>
<rscale>  0 0.91399291E+02</rscale>
<asrwt>0</asrwt>
<pdfrwt beam="1">  1        1 0.10525295E-01 0.91399291E+02</pdfrwt>
<pdfrwt beam="2">  1       -1 0.46963955E-02 0.91399291E+02</pdfrwt>
<totfact> 0.97659428E+04</totfact>
</mgrwt>
</event>
<event>
 5    1  0.5681061E+000  0.8701204E+02  0.7546771E-02  0.1310253E+00
         -4   -1    0    0    0  501 -0.00000000000E+00  0.00000000000E+00  0.31143061932E+03  0.31143061932E+03  0.00000000000E+00 0.  1.
          4   -1    0    0  501    0  0.00000000000E+00 -0.00000000000E+00 -0.60776735374E+01  0.60776735374E+01  0.00000000000E+00 0. -1.
         23    2    1    2    0    0  0.00000000000E+00  0.00000000000E+00  0.30535294578E+03  0.31750829286E+03  0.87012036725E+02 0.  0.
        -11    1    3    3    0    0  0.31564609863E+02  0.21794566401E+02  0.22758765700E+03  0.23079746389E+03  0.00000000000E+00 0.  1.
         11    1    3    3    0    0 -0.31564609863E+02 -0.21794566401E+02  0.77765288784E+02  0.86710828966E+02  0.00000000000E+00 0. -1.
<mgrwt>
<rscale>  0 0.87012037E+02</rscale>
<asrwt>0</asrwt>
<pdfrwt beam="2">  1        4 0.93502694E-03 0.87012037E+02</pdfrwt>
<pdfrwt beam="1">  1       -4 0.47912390E-01 0.87012037E+02</pdfrwt>
<totfact> 0.19574655E+04</totfact>
</mgrwt>
</event>
<event>
 5    1  0.5681061E+000  0.9254174E+02  0.7546771E-02  0.1296811E+00
         -3   -1    0    0    0  501 -0.00000000000E+00  0.00000000000E+00  0.17955033480E+02  0.17955033480E+02  0.00000000000E+00 0.  1.
          3   -1    0    0  501    0  0.00000000000E+00 -0.00000000000E+00 -0.11924197030E+03  0.11924197030E+03  0.00000000000E+00 0. -1.
         23    2    1    2    0    0  0.00000000000E+00  0.00000000000E+00 -0.10128693682E+03  0.13719700378E+03  0.92541743422E+02 0.  0.
        -11    1    3    3    0    0  0.29402005076E+02  0.12132096883E+02 -0.10046498885E+03  0.10537969283E+03  0.00000000000E+00 0. -1.
         11    1    3    3    0    0 -0.29402005076E+02 -0.12132096883E+02 -0.82194796906E+00  0.31817310944E+02  0.00000000000E+00 0.  1.
<mgrwt>
<rscale>  0 0.92541743E+02</rscale>
<asrwt>0</asrwt>
<pdfrwt beam="2">  1        3 0.18344918E-01 0.92541743E+02</pdfrwt>
<pdfrwt beam="1">  1       -3 0.27623129E-02 0.92541743E+02</pdfrwt>
<totfact> 0.30838062E+04</totfact>
</mgrwt>
</event>
<event>
 5    1  0.5681061E+000  0.9164661E+02  0.7546771E-02  0.1298912E+00
         -1   -1    0    0    0  501 -0.00000000000E+00  0.00000000000E+00  0.50988609548E+02  0.50988609548E+02  0.00000000000E+00 0.  1.
          1   -1    0    0  501    0  0.00000000000E+00 -0.00000000000E+00 -0.41181259949E+02  0.41181259949E+02  0.00000000000E+00 0. -1.
         23    2    1    2    0    0  0.00000000000E+00  0.00000000000E+00  0.98073495989E+01  0.92169869497E+02  0.91646607886E+02 0.  0.
        -11    1    3    3    0    0  0.32334839312E+02  0.20146921076E+02  0.30511475734E+02  0.48809736873E+02  0.00000000000E+00 0.  1.
         11    1    3    3    0    0 -0.32334839312E+02 -0.20146921076E+02 -0.20704126135E+02  0.43360132624E+02  0.00000000000E+00 0. -1.
<mgrwt>
<rscale>  0 0.91646608E+02</rscale>
<asrwt>0</asrwt>
<pdfrwt beam="2">  1        1 0.63355785E-02 0.91646608E+02</pdfrwt>
<pdfrwt beam="1">  1       -1 0.78444015E-02 0.91646608E+02</pdfrwt>
<totfact> 0.89752551E+04</totfact>
</mgrwt>
</event>
<event>
 5    1  0.5681061E+000  0.9335613E+02  0.7546771E-02  0.1294922E+00
          1   -1    0    0  501    0  0.00000000000E+00  0.00000000000E+00  0.25141569841E+02  0.25141569841E+02  0.00000000000E+00 0. -1.
         -1   -1    0    0    0  501 -0.00000000000E+00 -0.00000000000E+00 -0.86662912187E+02  0.86662912187E+02  0.00000000000E+00 0.  1.
         23    2    1    2    0    0  0.00000000000E+00  0.00000000000E+00 -0.61521342346E+02  0.11180448203E+03  0.93356128013E+02 0.  0.
        -11    1    3    3    0    0  0.10002897711E+02  0.25292781154E+02 -0.76192024163E+02  0.80901219318E+02  0.00000000000E+00 0.  1.
         11    1    3    3    0    0 -0.10002897711E+02 -0.25292781154E+02  0.14670681817E+02  0.30903262710E+02  0.00000000000E+00 0. -1.
<mgrwt>
<rscale>  0 0.93356128E+02</rscale>
<asrwt>0</asrwt>
<pdfrwt beam="1">  1        1 0.38679338E-02 0.93356128E+02</pdfrwt>
<pdfrwt beam="2">  1       -1 0.13332756E-01 0.93356128E+02</pdfrwt>
<totfact> 0.78579593E+04</totfact>
</mgrwt>
</event>
<event>
 5    1  0.5681061E+000  0.9081144E+02  0.7546771E-02  0.1300898E+00
         -2   -1    0    0    0  501 -0.00000000000E+00  0.00000000000E+00  0.19565508677E+02  0.19565508677E+02  0.00000000000E+00 0.  1.
          2   -1    0    0  501    0  0.00000000000E+00 -0.00000000000E+00 -0.10537315870E+03  0.10537315870E+03  0.00000000000E+00 0. -1.
         23    2    1    2    0    0  0.00000000000E+00  0.00000000000E+00 -0.85807650019E+02  0.12493866737E+03  0.90811440926E+02 0.  0.
        -11    1    3    3    0    0  0.22898052681E+02 -0.31931632429E+02 -0.11599254346E+02  0.40969411365E+02  0.00000000000E+00 0.  1.
         11    1    3    3    0    0 -0.22898052681E+02  0.31931632429E+02 -0.74208395672E+02  0.83969256007E+02  0.00000000000E+00 0. -1.
<mgrwt>
<rscale>  0 0.90811441E+02</rscale>
<asrwt>0</asrwt>
<pdfrwt beam="2">  1        2 0.16211256E-01 0.90811441E+02</pdfrwt>
<pdfrwt beam="1">  1       -2 0.30100782E-02 0.90811441E+02</pdfrwt>
<totfact> 0.12604386E+05</totfact>
</mgrwt>
</event>
<event>
 5    1  0.5681061E+000  0.9157117E+02  0.7546771E-02  0.1299091E+00
          1   -1    0    0  501    0  0.00000000000E+00  0.00000000000E+00  0.88123186998E+02  0.88123186998E+02  0.00000000000E+00 0. -1.
         -1   -1    0    0    0  501 -0.00000000000E+00 -0.00000000000E+00 -0.23788514454E+02  0.23788514454E+02  0.00000000000E+00 0.  1.
         23    2    1    2    0    0  0.00000000000E+00  0.00000000000E+00  0.64334672544E+02  0.11191170145E+03  0.91571168118E+02 0.  0.
        -11    1    3    3    0    0 -0.18950879956E+02  0.33858330824E+02  0.24618961245E+01  0.38879086278E+02  0.00000000000E+00 0.  1.
         11    1    3    3    0    0  0.18950879956E+02 -0.33858330824E+02  0.61872776420E+02  0.73032615174E+02  0.00000000000E+00 0. -1.
<mgrwt>
<rscale>  0 0.91571168E+02</rscale>
<asrwt>0</asrwt>
<pdfrwt beam="1">  1        1 0.13557413E-01 0.91571168E+02</pdfrwt>
<pdfrwt beam="2">  1       -1 0.36597715E-02 0.91571168E+02</pdfrwt>
<totfact> 0.10110841E+05</totfact>
</mgrwt>
</event>
<event>
 5    1  0.5681061E+000  0.9432564E+02  0.7546771E-02  0.1292702E+00
         -4   -1    0    0    0  501 -0.00000000000E+00  0.00000000000E+00  0.53599168983E+02  0.53599168983E+02  0.00000000000E+00 0.  1.
          4   -1    0    0  501    0  0.00000000000E+00 -0.00000000000E+00 -0.41499364062E+02  0.41499364062E+02  0.00000000000E+00 0. -1.
         23    2    1    2    0    0  0.00000000000E+00  0.00000000000E+00  0.12099804922E+02  0.95098533045E+02  0.94325636537E+02 0.  0.
        -11    1    3    3    0    0 -0.15128973608E+02 -0.43880090117E+02  0.14484050257E+02  0.48622380268E+02  0.00000000000E+00 0. -1.
         11    1    3    3    0    0  0.15128973608E+02  0.43880090117E+02 -0.23842453357E+01  0.46476152777E+02  0.00000000000E+00 0.  1.
<mgrwt>
<rscale>  0 0.94325637E+02</rscale>
<asrwt>0</asrwt>
<pdfrwt beam="2">  1        4 0.63845175E-02 0.94325637E+02</pdfrwt>
<pdfrwt beam="1">  1       -4 0.82460260E-02 0.94325637E+02</pdfrwt>
<totfact> 0.24401494E+04</totfact>
</mgrwt>
</event>
<event>
 5    1  0.5681061E+000  0.9121266E+02  0.7546771E-02  0.1299941E+00
         -1   -1    0    0    0  501 -0.00000000000E+00  0.00000000000E+00  0.36385020034E+03  0.36385020034E+03  0.00000000000E+00 0. -1.
          1   -1    0    0  501    0  0.00000000000E+00 -0.00000000000E+00 -0.57164666249E+01  0.57164666249E+01  0.00000000000E+00 0.  1.
         23    2    1    2    0    0  0.00000000000E+00  0.00000000000E+00  0.35813373371E+03  0.36956666696E+03  0.91212664180E+02 0.  0.
        -11    1    3    3    0    0  0.23394196516E+02  0.38255049931E+02  0.14536208764E+03  0.15212124704E+03  0.00000000000E+00 0.  1.
         11    1    3    3    0    0 -0.23394196516E+02 -0.38255049931E+02  0.21277164607E+03  0.21744541993E+03  0.00000000000E+00 0. -1.
<mgrwt>
<rscale>  0 0.91212664E+02</rscale>
<asrwt>0</asrwt>
<pdfrwt beam="2">  1        1 0.87945669E-03 0.91212664E+02</pdfrwt>
<pdfrwt beam="1">  1       -1 0.55976936E-01 0.91212664E+02</pdfrwt>
<totfact> 0.55734325E+04</totfact>
</mgrwt>
</event>
<event>
 5    1  0.5681061E+000  0.8863500E+02  0.7546771E-02  0.1306191E+00
         -2   -1    0    0    0  501 -0.00000000000E+00  0.00000000000E+00  0.26369309206E+02  0.26369309206E+02  0.00000000000E+00 0.  1.
          2   -1    0    0  501    0  0.00000000000E+00 -0.00000000000E+00 -0.74482069775E+02  0.74482069775E+02  0.00000000000E+00 0. -1.
         23    2    1    2    0    0  0.00000000000E+00  0.00000000000E+00 -0.48112760569E+02  0.10085137898E+03  0.88634998238E+02 0.  0.
        -11    1    3    3    0    0 -0.22808797320E+02  0.57343633908E+01  0.18682906183E+02  0.30036230492E+02  0.00000000000E+00 0.  1.
         11    1    3    3    0    0  0.22808797320E+02 -0.57343633908E+01 -0.66795666752E+02  0.70815148489E+02  0.00000000000E+00 0. -1.
<mgrwt>
<rscale>  0 0.88634998E+02</rscale>
<asrwt>0</asrwt>
<pdfrwt beam="2">  1        2 0.11458780E-01 0.88634998E+02</pdfrwt>
<pdfrwt beam="1">  1       -2 0.40568169E-02 0.88634998E+02</pdfrwt>
<totfact> 0.12175594E+05</totfact>
</mgrwt>
</event>
<event>
 5    1  0.5681061E+000  0.1021975E+03  0.7546771E-02  0.1275742E+00
         -1   -1    0    0    0  501 -0.00000000000E+00  0.00000000000E+00  0.22912496978E+02  0.22912496978E+02  0.00000000000E+00 0.  1.
          1   -1    0    0  501    0  0.00000000000E+00 -0.00000000000E+00 -0.11395897149E+03  0.11395897149E+03  0.00000000000E+00 0. -1.
         23    2    1    2    0    0  0.00000000000E+00  0.00000000000E+00 -0.91046474509E+02  0.13687146847E+03  0.10219754576E+03 0.  0.
        -11    1    3    3    0    0 -0.66580944906E+01 -0.23326654859E+02 -0.10575558262E+03  0.10850210276E+03  0.00000000000E+00 0. -1.
         11    1    3    3    0    0  0.66580944906E+01  0.23326654859E+02  0.14709108106E+02  0.28369365704E+02  0.00000000000E+00 0.  1.
<mgrwt>
<rscale>  0 0.10219755E+03</rscale>
<asrwt>0</asrwt>
<pdfrwt beam="2">  1        1 0.17532149E-01 0.10219755E+03</pdfrwt>
<pdfrwt beam="1">  1       -1 0.35249995E-02 0.10219755E+03</pdfrwt>
<totfact> 0.78134367E+04</totfact>
</mgrwt>
</event>
<event>
 5    1  0.5681061E+000  0.9089200E+02  0.7546771E-02  0.1300706E+00
          1   -1    0    0  501    0  0.00000000000E+00  0.00000000000E+00  0.31801718481E+03  0.31801718481E+03  0.00000000000E+00 0. -1.
         -1   -1    0    0    0  501 -0.00000000000E+00 -0.00000000000E+00 -0.64944249745E+01  0.64944249745E+01  0.00000000000E+00 0.  1.
         23    2    1    2    0    0  0.00000000000E+00  0.00000000000E+00  0.31152275984E+03  0.32451160979E+03  0.90891996289E+02 0.  0.
        -11    1    3    3    0    0  0.44953273354E+02 -0.59781378315E+01  0.16635490320E+03  0.17242531350E+03  0.00000000000E+00 0.  1.
         11    1    3    3    0    0 -0.44953273354E+02  0.59781378315E+01  0.14516785664E+03  0.15208629629E+03  0.00000000000E+00 0. -1.
<mgrwt>
<rscale>  0 0.90891996E+02</rscale>
<asrwt>0</asrwt>
<pdfrwt beam="1">  1        1 0.48925709E-01 0.90891996E+02</pdfrwt>
<pdfrwt beam="2">  1       -1 0.99914255E-03 0.90891996E+02</pdfrwt>
<totfact> 0.13062449E+05</totfact>
</mgrwt>
</event>
<event>
 5    1  0.5681061E+000  0.8976003E+02  0.7546771E-02  0.1303434E+00
         -1   -1    0    0    0  501 -0.00000000000E+00  0.00000000000E+00  0.45494305725E+02  0.45494305725E+02  0.00000000000E+00 0.  1.
          1   -1    0    0  501    0  0.00000000000E+00 -0.00000000000E+00 -0.44274014044E+02  0.44274014044E+02  0.00000000000E+00 0. -1.
         23    2    1    2    0    0  0.00000000000E+00  0.00000000000E+00  0.12202916806E+01  0.89768319769E+02  0.89760025191E+02 0.  0.
        -11    1    3    3    0    0  0.17169512798E+02  0.10745811735E+02  0.40663202424E+02  0.45428632721E+02  0.00000000000E+00 0.  1.
         11    1    3    3    0    0 -0.17169512798E+02 -0.10745811735E+02 -0.39442910743E+02  0.44339687048E+02  0.00000000000E+00 0. -1.
<mgrwt>
<rscale>  0 0.89760025E+02</rscale>
<asrwt>0</asrwt>
<pdfrwt beam="2">  1        1 0.68113868E-02 0.89760025E+02</pdfrwt>
<pdfrwt beam="1">  1       -1 0.69991239E-02 0.89760025E+02</pdfrwt>
<totfact> 0.96200522E+04</totfact>
</mgrwt>
</event>
<event>
 5    1  0.5681061E+000  0.9043239E+02  0.7546771E-02  0.1301808E+00
          2   -1    0    0  501    0  0.00000000000E+00  0.00000000000E+00  0.29240484290E+03  0.29240484290E+03  0.00000000000E+00 0.  1.
         -2   -1    0    0    0  501 -0.00000000000E+00 -0.00000000000E+00 -0.69920334539E+01  0.69920334539E+01  0.00000000000E+00 0. -1.
         23    2    1    2    0    0  0.00000000000E+00  0.00000000000E+00  0.28541280945E+03  0.29939687636E+03  0.90432393392E+02 0.  0.
        -11    1    3    3    0    0  0.20901301139E+02  0.39456467553E+02  0.16630963423E+03  0.17219922084E+03  0.00000000000E+00 0.  1.
         11    1    3    3    0    0 -0.20901301139E+02 -0.39456467553E+02  0.11910317522E+03  0.12719765551E+03  0.00000000000E+00 0. -1.
<mgrwt>
<rscale>  0 0.90432393E+02</rscale>
<asrwt>0</asrwt>
<pdfrwt beam="1">  1        2 0.44985351E-01 0.90432393E+02</pdfrwt>
<pdfrwt beam="2">  1       -2 0.10756977E-02 0.90432393E+02</pdfrwt>
<totfact> 0.18188570E+05</totfact>
</mgrwt>
</event>
<event>
 5    1  0.5681061E+000  0.8781085E+02  0.7546771E-02  0.1308241E+00
         -2   -1    0    0    0  501 -0.00000000000E+00  0.00000000000E+00  0.44933335472E+02  0.44933335472E+02  0.00000000000E+00 0.  1.
          2   -1    0    0  501    0  0.00000000000E+00 -0.00000000000E+00 -0.42901027298E+02  0.42901027298E+02  0.00000000000E+00 0. -1.
         23    2    1    2    0    0  0.00000000000E+00  0.00000000000E+00  0.20323081742E+01  0.87834362770E+02  0.87810847887E+02 0.  0.
        -11    1    3    3    0    0 -0.20698589817E+02 -0.64141389969E+01 -0.37179323311E+02  0.43033415869E+02  0.00000000000E+00 0. -1.
         11    1    3    3    0    0  0.20698589817E+02  0.64141389969E+01  0.39211631485E+02  0.44800946901E+02  0.00000000000E+00 0.  1.
<mgrwt>
<rscale>  0 0.87810848E+02</rscale>
<asrwt>0</asrwt>
<pdfrwt beam="2">  1        2 0.66001581E-02 0.87810848E+02</pdfrwt>
<pdfrwt beam="1">  1       -2 0.69128208E-02 0.87810848E+02</pdfrwt>
<totfact> 0.10819907E+05</totfact>
</mgrwt>
</event>
<event>
 5    1  0.5681061E+000  0.8443488E+02  0.7546771E-02  0.1316917E+00
         -4   -1    0    0    0  501 -0.00000000000E+00  0.00000000000E+00  0.22676934859E+02  0.22676934859E+02  0.00000000000E+00 0. -1.
          4   -1    0    0  501    0  0.00000000000E+00 -0.00000000000E+00 -0.78595824871E+02  0.78595824871E+02  0.00000000000E+00 0.  1.
         23    2    1    2    0    0  0.00000000000E+00  0.00000000000E+00 -0.55918890012E+02  0.10127275973E+03  0.84434883804E+02 0.  0.
        -11    1    3    3    0    0 -0.31553497238E+02  0.27320453280E+02 -0.35571930741E+02  0.54839699234E+02  0.00000000000E+00 0.  1.
         11    1    3    3    0    0  0.31553497238E+02 -0.27320453280E+02 -0.20346959271E+02  0.46433060496E+02  0.00000000000E+00 0. -1.
<mgrwt>
<rscale>  0 0.84434884E+02</rscale>
<asrwt>0</asrwt>
<pdfrwt beam="2">  1        4 0.12091666E-01 0.84434884E+02</pdfrwt>
<pdfrwt beam="1">  1       -4 0.34887592E-02 0.84434884E+02</pdfrwt>
<totfact> 0.32436828E+04</totfact>
</mgrwt>
</event>
<event>
 5    1  0.5681061E+000  0.9098106E+02  0.7546771E-02  0.1300493E+00
          2   -1    0    0  501    0  0.00000000000E+00  0.00000000000E+00  0.17711847869E+02  0.17711847869E+02  0.00000000000E+00 0. -1.
         -2   -1    0    0    0  501 -0.00000000000E+00 -0.00000000000E+00 -0.11683638494E+03  0.11683638494E+03  0.00000000000E+00 0.  1.
         23    2    1    2    0    0  0.00000000000E+00  0.00000000000E+00 -0.99124537072E+02  0.13454823281E+03  0.90981059031E+02 0.  0.
        -11    1    3    3    0    0  0.23593288177E+02  0.25184192609E+02 -0.57295651315E+01  0.34981634052E+02  0.00000000000E+00 0. -1.
         11    1    3    3    0    0 -0.23593288177E+02 -0.25184192609E+02 -0.93394971940E+02  0.99566598757E+02  0.00000000000E+00 0.  1.
<mgrwt>
<rscale>  0 0.90981059E+02</rscale>
<asrwt>0</asrwt>
<pdfrwt beam="1">  1        2 0.27248997E-02 0.90981059E+02</pdfrwt>
<pdfrwt beam="2">  1       -2 0.17974828E-01 0.90981059E+02</pdfrwt>
<totfact> 0.76478093E+04</totfact>
</mgrwt>
</event>
<event>
 5    1  0.5681061E+000  0.9127607E+02  0.7546771E-02  0.1299791E+00
         -1   -1    0    0    0  501 -0.00000000000E+00  0.00000000000E+00  0.34180297848E+03  0.34180297848E+03  0.00000000000E+00 0.  1.
          1   -1    0    0  501    0  0.00000000000E+00 -0.00000000000E+00 -0.60936570754E+01  0.60936570754E+01  0.00000000000E+00 0. -1.
         23    2    1    2    0    0  0.00000000000E+00  0.00000000000E+00  0.33570932141E+03  0.34789663556E+03  0.91276067799E+02 0.  0.
        -11    1    3    3    0    0  0.38059318923E+02  0.21087399428E+02  0.22034244520E+03  0.22459738050E+03  0.00000000000E+00 0.  1.
         11    1    3    3    0    0 -0.38059318923E+02 -0.21087399428E+02  0.11536687620E+03  0.12329925505E+03  0.00000000000E+00 0. -1.
<mgrwt>
<rscale>  0 0.91276068E+02</rscale>
<asrwt>0</asrwt>
<pdfrwt beam="2">  1        1 0.93748597E-03 0.91276068E+02</pdfrwt>
<pdfrwt beam="1">  1       -1 0.52585059E-01 0.91276068E+02</pdfrwt>
<totfact> 0.57223941E+04</totfact>
</mgrwt>
</event>
<event>
 5    1  0.5681061E+000  0.1060088E+03  0.7546771E-02  0.1268145E+00
          1   -1    0    0  501    0  0.00000000000E+00  0.00000000000E+00  0.93252356057E+01  0.93252356057E+01  0.00000000000E+00 0. -1.
         -1   -1    0    0    0  501 -0.00000000000E+00 -0.00000000000E+00 -0.30127581914E+03  0.30127581914E+03  0.00000000000E+00 0.  1.
         23    2    1    2    0    0  0.00000000000E+00  0.00000000000E+00 -0.29195058354E+03  0.31060105475E+03  0.10600882974E+03 0.  0.
        -11    1    3    3    0    0 -0.16342891653E+02 -0.47686135155E+02 -0.97973156398E+02  0.11018074681E+03  0.00000000000E+00 0. -1.
         11    1    3    3    0    0  0.16342891653E+02  0.47686135155E+02 -0.19397742714E+03  0.20042030793E+03  0.00000000000E+00 0.  1.
<mgrwt>
<rscale>  0 0.10600883E+03</rscale>
<asrwt>0</asrwt>
<pdfrwt beam="1">  1        1 0.14346515E-02 0.10600883E+03</pdfrwt>
<pdfrwt beam="2">  1       -1 0.46350129E-01 0.10600883E+03</pdfrwt>
<totfact> 0.40697535E+04</totfact>
</mgrwt>
</event>
<event>
 5    1  0.5681061E+000  0.9189905E+02  0.7546771E-02  0.1298317E+00
         -1   -1    0    0    0  501 -0.00000000000E+00  0.00000000000E+00  0.31964065061E+02  0.31964065061E+02  0.00000000000E+00 0.  1.
          1   -1    0    0  501    0  0.00000000000E+00 -0.00000000000E+00 -0.66054140753E+02  0.66054140753E+02  0.00000000000E+00 0. -1.
         23    2    1    2    0    0  0.00000000000E+00  0.00000000000E+00 -0.34090075692E+02  0.98018205814E+02  0.91899050105E+02 0.  0.
        -11    1    3    3    0    0 -0.22554451680E+02  0.20039357218E+02  0.19919190466E+02  0.36153191797E+02  0.00000000000E+00 0.  1.
         11    1    3    3    0    0  0.22554451680E+02 -0.20039357218E+02 -0.54009266158E+02  0.61865014016E+02  0.00000000000E+00 0. -1.
<mgrwt>
<rscale>  0 0.91899050E+02</rscale>
<asrwt>0</asrwt>
<pdfrwt beam="2">  1        1 0.10162175E-01 0.91899050E+02</pdfrwt>
<pdfrwt beam="1">  1       -1 0.49175486E-02 0.91899050E+02</pdfrwt>
<totfact> 0.95678607E+04</totfact>
</mgrwt>
</event>
<event>
 5    1  0.5681061E+000  0.8957946E+02  0.7546771E-02  0.1303873E+00
          1   -1    0    0  501    0  0.00000000000E+00  0.00000000000E+00  0.10930041828E+02  0.10930041828E+02  0.00000000000E+00 0. -1.
         -1   -1    0    0    0  501 -0.00000000000E+00 -0.00000000000E+00 -0.18354182430E+03  0.18354182430E+03  0.00000000000E+00 0.  1.
         23    2    1    2    0    0  0.00000000000E+00  0.00000000000E+00 -0.17261178247E+03  0.19447186613E+03  0.89579457840E+02 0.  0.
        -11    1    3    3    0    0  0.93058012116E+01  0.42932851735E+02 -0.10526806843E+03  0.11406662056E+03  0.00000000000E+00 0.  1.
         11    1    3    3    0    0 -0.93058012116E+01 -0.42932851735E+02 -0.67343714038E+02  0.80405245567E+02  0.00000000000E+00 0. -1.
<mgrwt>
<rscale>  0 0.89579458E+02</rscale>
<asrwt>0</asrwt>
<pdfrwt beam="1">  1        1 0.16815451E-02 0.89579458E+02</pdfrwt>
<pdfrwt beam="2">  1       -1 0.28237200E-01 0.89579458E+02</pdfrwt>
<totfact> 0.74441204E+04</totfact>
</mgrwt>
</event>
<event>
 5    1  0.5681061E+000  0.9161997E+02  0.7546771E-02  0.1298975E+00
         -3   -1    0    0    0  501 -0.00000000000E+00  0.00000000000E+00  0.14090289056E+03  0.14090289056E+03  0.00000000000E+00 0.  1.
          3   -1    0    0  501    0  0.00000000000E+00 -0.00000000000E+00 -0.14893624024E+02  0.14893624024E+02  0.00000000000E+00 0. -1.
         23    2    1    2    0    0  0.00000000000E+00  0.00000000000E+00  0.12600926654E+03  0.15579651458E+03  0.91619968913E+02 0.  0.
        -11    1    3    3    0    0 -0.24000460811E+02 -0.37141158718E+02  0.42665279065E+02  0.61447651117E+02  0.00000000000E+00 0. -1.
         11    1    3    3    0    0  0.24000460811E+02  0.37141158718E+02  0.83343987471E+02  0.94348863468E+02  0.00000000000E+00 0.  1.
<mgrwt>
<rscale>  0 0.91619969E+02</rscale>
<asrwt>0</asrwt>
<pdfrwt beam="2">  1        3 0.22913269E-02 0.91619969E+02</pdfrwt>
<pdfrwt beam="1">  1       -3 0.21677367E-01 0.91619969E+02</pdfrwt>
<totfact> 0.30552657E+04</totfact>
</mgrwt>
</event>
<event>
 5    1  0.5681061E+000  0.9230437E+02  0.7546771E-02  0.1297365E+00
         -1   -1    0    0    0  501 -0.00000000000E+00  0.00000000000E+00  0.14409608397E+03  0.14409608397E+03  0.00000000000E+00 0.  1.
          1   -1    0    0  501    0  0.00000000000E+00 -0.00000000000E+00 -0.14781970954E+02  0.14781970954E+02  0.00000000000E+00 0. -1.
         23    2    1    2    0    0  0.00000000000E+00  0.00000000000E+00  0.12931411301E+03  0.15887805492E+03  0.92304368861E+02 0.  0.
        -11    1    3    3    0    0 -0.42680337377E+02  0.30141920575E+01  0.94436393268E+02  0.10367704146E+03  0.00000000000E+00 0.  1.
         11    1    3    3    0    0  0.42680337377E+02 -0.30141920575E+01  0.34877719744E+02  0.55201013460E+02  0.00000000000E+00 0. -1.
<mgrwt>
<rscale>  0 0.92304369E+02</rscale>
<asrwt>0</asrwt>
<pdfrwt beam="2">  1        1 0.22741495E-02 0.92304369E+02</pdfrwt>
<pdfrwt beam="1">  1       -1 0.22168627E-01 0.92304369E+02</pdfrwt>
<totfact> 0.73114643E+04</totfact>
</mgrwt>
</event>
<event>
 5    1  0.5681061E+000  0.9089772E+02  0.7546771E-02  0.1300692E+00
          1   -1    0    0  501    0  0.00000000000E+00  0.00000000000E+00  0.10002082819E+02  0.10002082819E+02  0.00000000000E+00 0. -1.
         -1   -1    0    0    0  501 -0.00000000000E+00 -0.00000000000E+00 -0.20651688440E+03  0.20651688440E+03  0.00000000000E+00 0.  1.
         23    2    1    2    0    0  0.00000000000E+00  0.00000000000E+00 -0.19651480158E+03  0.21651896721E+03  0.90897722329E+02 0.  0.
        -11    1    3    3    0    0  0.41020223164E+02  0.78644123459E+01 -0.55574177430E+02  0.69519758968E+02  0.00000000000E+00 0.  1.
         11    1    3    3    0    0 -0.41020223164E+02 -0.78644123459E+01 -0.14094062415E+03  0.14699920825E+03  0.00000000000E+00 0. -1.
<mgrwt>
<rscale>  0 0.90897722E+02</rscale>
<asrwt>0</asrwt>
<pdfrwt beam="1">  1        1 0.15387819E-02 0.90897722E+02</pdfrwt>
<pdfrwt beam="2">  1       -1 0.31771829E-01 0.90897722E+02</pdfrwt>
<totfact> 0.69335076E+04</totfact>
</mgrwt>
</event>
<event>
 5    1  0.5681061E+000  0.9393366E+02  0.7546771E-02  0.1293596E+00
          4   -1    0    0  501    0  0.00000000000E+00  0.00000000000E+00  0.10098792929E+03  0.10098792929E+03  0.00000000000E+00 0. -1.
         -4   -1    0    0    0  501 -0.00000000000E+00 -0.00000000000E+00 -0.21843038418E+02  0.21843038418E+02  0.00000000000E+00 0.  1.
         23    2    1    2    0    0  0.00000000000E+00  0.00000000000E+00  0.79144890870E+02  0.12283096771E+03  0.93933662108E+02 0.  0.
        -11    1    3    3    0    0 -0.16481997240E+02  0.28803603328E+02 -0.38870913706E+01  0.33412771167E+02  0.00000000000E+00 0. -1.
         11    1    3    3    0    0  0.16481997240E+02 -0.28803603328E+02  0.83031982241E+02  0.89418196541E+02  0.00000000000E+00 0.  1.
<mgrwt>
<rscale>  0 0.93933662E+02</rscale>
<asrwt>0</asrwt>
<pdfrwt beam="1">  1        4 0.15536604E-01 0.93933662E+02</pdfrwt>
<pdfrwt beam="2">  1       -4 0.33604675E-02 0.93933662E+02</pdfrwt>
<totfact> 0.23164859E+04</totfact>
</mgrwt>
</event>
<event>
 5    1  0.5681061E+000  0.9144535E+02  0.7546771E-02  0.1299389E+00
          1   -1    0    0  501    0  0.00000000000E+00  0.00000000000E+00  0.69989164391E+02  0.69989164391E+02  0.00000000000E+00 0. -1.
         -1   -1    0    0    0  501 -0.00000000000E+00 -0.00000000000E+00 -0.29869808768E+02  0.29869808768E+02  0.00000000000E+00 0.  1.
         23    2    1    2    0    0  0.00000000000E+00  0.00000000000E+00  0.40119355623E+02  0.99858973159E+02  0.91445348842E+02 0.  0.
        -11    1    3    3    0    0 -0.42339265300E+02 -0.13003539328E+02  0.32455644045E+02  0.54909691782E+02  0.00000000000E+00 0. -1.
         11    1    3    3    0    0  0.42339265300E+02  0.13003539328E+02  0.76637115778E+01  0.44949281377E+02  0.00000000000E+00 0.  1.
<mgrwt>
<rscale>  0 0.91445349E+02</rscale>
<asrwt>0</asrwt>
<pdfrwt beam="1">  1        1 0.10767564E-01 0.91445349E+02</pdfrwt>
<pdfrwt beam="2">  1       -1 0.45953552E-02 0.91445349E+02</pdfrwt>
<totfact> 0.97866726E+04</totfact>
</mgrwt>
</event>
<event>
 5    1  0.5681061E+000  0.9163473E+02  0.7546771E-02  0.1298941E+00
          4   -1    0    0  501    0  0.00000000000E+00  0.00000000000E+00  0.84233333778E+01  0.84233333778E+01  0.00000000000E+00 0. -1.
         -4   -1    0    0    0  501 -0.00000000000E+00 -0.00000000000E+00 -0.24921614952E+03  0.24921614952E+03  0.00000000000E+00 0.  1.
         23    2    1    2    0    0  0.00000000000E+00  0.00000000000E+00 -0.24079281614E+03  0.25763948290E+03  0.91634725089E+02 0.  0.
        -11    1    3    3    0    0  0.32897692189E+02 -0.15833029539E+02 -0.19822663105E+03  0.20156076065E+03  0.00000000000E+00 0.  1.
         11    1    3    3    0    0 -0.32897692189E+02  0.15833029539E+02 -0.42566185089E+02  0.56078722246E+02  0.00000000000E+00 0. -1.
<mgrwt>
<rscale>  0 0.91634725E+02</rscale>
<asrwt>0</asrwt>
<pdfrwt beam="1">  1        4 0.12958973E-02 0.91634725E+02</pdfrwt>
<pdfrwt beam="2">  1       -4 0.38340950E-01 0.91634725E+02</pdfrwt>
<totfact> 0.18941164E+04</totfact>
</mgrwt>
</event>
<event>
 5    1  0.5681061E+000  0.8681695E+02  0.7546771E-02  0.1310748E+00
         -2   -1    0    0    0  501 -0.00000000000E+00  0.00000000000E+00  0.39107444339E+02  0.39107444339E+02  0.00000000000E+00 0.  1.
          2   -1    0    0  501    0  0.00000000000E+00 -0.00000000000E+00 -0.48182537480E+02  0.48182537480E+02  0.00000000000E+00 0. -1.
         23    2    1    2    0    0  0.00000000000E+00  0.00000000000E+00 -0.90750931416E+01  0.87289981819E+02  0.86816954625E+02 0.  0.
        -11    1    3    3    0    0  0.32003426346E+02 -0.13147754552E+01  0.24919659149E+02  0.40582475830E+02  0.00000000000E+00 0.  1.
         11    1    3    3    0    0 -0.32003426346E+02  0.13147754552E+01 -0.33994752290E+02  0.46707505989E+02  0.00000000000E+00 0. -1.
<mgrwt>
<rscale>  0 0.86816955E+02</rscale>
<asrwt>0</asrwt>
<pdfrwt beam="2">  1        2 0.74126981E-02 0.86816955E+02</pdfrwt>
<pdfrwt beam="1">  1       -2 0.60165299E-02 0.86816955E+02</pdfrwt>
<totfact> 0.11506773E+05</totfact>
</mgrwt>
</event>
<event>
 5    1  0.5681061E+000  0.9400509E+02  0.7546771E-02  0.1293433E+00
         -2   -1    0    0    0  501 -0.00000000000E+00  0.00000000000E+00  0.82520685102E+02  0.82520685102E+02  0.00000000000E+00 0.  1.
          2   -1    0    0  501    0  0.00000000000E+00 -0.00000000000E+00 -0.26771947392E+02  0.26771947392E+02  0.00000000000E+00 0. -1.
         23    2    1    2    0    0  0.00000000000E+00  0.00000000000E+00  0.55748737710E+02  0.10929263249E+03  0.94005094337E+02 0.  0.
        -11    1    3    3    0    0 -0.28119125492E+02 -0.16190953081E+02  0.67410566762E+02  0.74813212010E+02  0.00000000000E+00 0.  1.
         11    1    3    3    0    0  0.28119125492E+02  0.16190953081E+02 -0.11661829052E+02  0.34479420484E+02  0.00000000000E+00 0. -1.
<mgrwt>
<rscale>  0 0.94005094E+02</rscale>
<asrwt>0</asrwt>
<pdfrwt beam="2">  1        2 0.41187612E-02 0.94005094E+02</pdfrwt>
<pdfrwt beam="1">  1       -2 0.12695490E-01 0.94005094E+02</pdfrwt>
<totfact> 0.78237483E+04</totfact>
</mgrwt>
</event>
<event>
 5    1  0.5681061E+000  0.8925488E+02  0.7546771E-02  0.1304666E+00
          1   -1    0    0  501    0  0.00000000000E+00  0.00000000000E+00  0.62960515211E+02  0.62960515211E+02  0.00000000000E+00 0. -1.
         -1   -1    0    0    0  501 -0.00000000000E+00 -0.00000000000E+00 -0.31632660183E+02  0.31632660183E+02  0.00000000000E+00 0.  1.
         23    2    1    2    0    0  0.00000000000E+00  0.00000000000E+00  0.31327855028E+02  0.94593175393E+02  0.89254884070E+02 0.  0.
        -11    1    3    3    0    0  0.26765224996E+02  0.11801643257E+02 -0.20055780968E+02  0.35466750668E+02  0.00000000000E+00 0.  1.
         11    1    3    3    0    0 -0.26765224996E+02 -0.11801643257E+02  0.51383635996E+02  0.59126424726E+02  0.00000000000E+00 0. -1.
<mgrwt>
<rscale>  0 0.89254884E+02</rscale>
<asrwt>0</asrwt>
<pdfrwt beam="1">  1        1 0.96862331E-02 0.89254884E+02</pdfrwt>
<pdfrwt beam="2">  1       -1 0.48665631E-02 0.89254884E+02</pdfrwt>
<totfact> 0.10296195E+05</totfact>
</mgrwt>
</event>
<event>
 5    1  0.5681061E+000  0.8826342E+02  0.7546771E-02  0.1307112E+00
          2   -1    0    0  501    0  0.00000000000E+00  0.00000000000E+00  0.20013178749E+02  0.20013178749E+02  0.00000000000E+00 0.  1.
         -2   -1    0    0    0  501 -0.00000000000E+00 -0.00000000000E+00 -0.97316268619E+02  0.97316268619E+02  0.00000000000E+00 0. -1.
         23    2    1    2    0    0  0.00000000000E+00  0.00000000000E+00 -0.77303089870E+02  0.11732944737E+03  0.88263421167E+02 0.  0.
        -11    1    3    3    0    0 -0.31683927384E+02 -0.23235272770E+02 -0.11937416946E+02  0.41063987611E+02  0.00000000000E+00 0. -1.
         11    1    3    3    0    0  0.31683927384E+02  0.23235272770E+02 -0.65365672924E+02  0.76265459757E+02  0.00000000000E+00 0.  1.
<mgrwt>
<rscale>  0 0.88263421E+02</rscale>
<asrwt>0</asrwt>
<pdfrwt beam="1">  1        2 0.30789505E-02 0.88263421E+02</pdfrwt>
<pdfrwt beam="2">  1       -2 0.14971734E-01 0.88263421E+02</pdfrwt>
<totfact> 0.87210571E+04</totfact>
</mgrwt>
</event>
<event>
 5    1  0.5681061E+000  0.9337808E+02  0.7546771E-02  0.1294871E+00
         -1   -1    0    0    0  501 -0.00000000000E+00  0.00000000000E+00  0.15446166417E+02  0.15446166417E+02  0.00000000000E+00 0.  1.
          1   -1    0    0  501    0  0.00000000000E+00 -0.00000000000E+00 -0.14112668752E+03  0.14112668752E+03  0.00000000000E+00 0. -1.
         23    2    1    2    0    0  0.00000000000E+00  0.00000000000E+00 -0.12568052110E+03  0.15657285394E+03  0.93378076686E+02 0.  0.
        -11    1    3    3    0    0  0.40066250560E+02 -0.16347217701E+02 -0.33445206567E+02  0.54691112649E+02  0.00000000000E+00 0.  1.
         11    1    3    3    0    0 -0.40066250560E+02  0.16347217701E+02 -0.92235314537E+02  0.10188174129E+03  0.00000000000E+00 0. -1.
<mgrwt>
<rscale>  0 0.93378077E+02</rscale>
<asrwt>0</asrwt>
<pdfrwt beam="2">  1        1 0.21711799E-01 0.93378077E+02</pdfrwt>
<pdfrwt beam="1">  1       -1 0.23763332E-02 0.93378077E+02</pdfrwt>
<totfact> 0.10395483E+05</totfact>
</mgrwt>
</event>
<event>
 5    1  0.5681061E+000  0.9063075E+02  0.7546771E-02  0.1301331E+00
         -4   -1    0    0    0  501 -0.00000000000E+00  0.00000000000E+00  0.69354732000E+02  0.69354732000E+02  0.00000000000E+00 0.  1.
          4   -1    0    0  501    0  0.00000000000E+00 -0.00000000000E+00 -0.29608409294E+02  0.29608409294E+02  0.00000000000E+00 0. -1.
         23    2    1    2    0    0  0.00000000000E+00  0.00000000000E+00  0.39746322706E+02  0.98963141293E+02  0.90630751768E+02 0.  0.
        -11    1    3    3    0    0 -0.25171462730E+02 -0.31832166171E+02  0.41891185678E+02  0.58324615529E+02  0.00000000000E+00 0.  1.
         11    1    3    3    0    0  0.25171462730E+02  0.31832166171E+02 -0.21448629721E+01  0.40638525764E+02  0.00000000000E+00 0. -1.
<mgrwt>
<rscale>  0 0.90630752E+02</rscale>
<asrwt>0</asrwt>
<pdfrwt beam="2">  1        4 0.45551399E-02 0.90630752E+02</pdfrwt>
<pdfrwt beam="1">  1       -4 0.10669959E-01 0.90630752E+02</pdfrwt>
<totfact> 0.26957386E+04</totfact>
</mgrwt>
</event>
<event>
 5    1  0.5681061E+000  0.9199402E+02  0.7546771E-02  0.1298093E+00
         -4   -1    0    0    0  501 -0.00000000000E+00  0.00000000000E+00  0.68701330928E+02  0.68701330928E+02  0.00000000000E+00 0. -1.
          4   -1    0    0  501    0  0.00000000000E+00 -0.00000000000E+00 -0.30795981830E+02  0.30795981830E+02  0.00000000000E+00 0.  1.
         23    2    1    2    0    0  0.00000000000E+00  0.00000000000E+00  0.37905349097E+02  0.99497312758E+02  0.91994020218E+02 0.  0.
        -11    1    3    3    0    0  0.44924377182E+01 -0.31489383222E+02 -0.16983244291E+02  0.36058200718E+02  0.00000000000E+00 0.  1.
         11    1    3    3    0    0 -0.44924377182E+01  0.31489383222E+02  0.54888593388E+02  0.63439112040E+02  0.00000000000E+00 0. -1.
<mgrwt>
<rscale>  0 0.91994020E+02</rscale>
<asrwt>0</asrwt>
<pdfrwt beam="2">  1        4 0.47378434E-02 0.91994020E+02</pdfrwt>
<pdfrwt beam="1">  1       -4 0.10569436E-01 0.91994020E+02</pdfrwt>
<totfact> 0.25854741E+04</totfact>
</mgrwt>
</event>
<event>
 5    1  0.5681061E+000  0.8740393E+02  0.7546771E-02  0.1309263E+00
          2   -1    0    0  501    0  0.00000000000E+00  0.00000000000E+00  0.11305107241E+03  0.11305107241E+03  0.00000000000E+00 0. -1.
         -2   -1    0    0    0  501 -0.00000000000E+00 -0.00000000000E+00 -0.16893796232E+02  0.16893796232E+02  0.00000000000E+00 0.  1.
         23    2    1    2    0    0  0.00000000000E+00  0.00000000000E+00  0.96157276178E+02  0.12994486864E+03  0.87403930829E+02 0.  0.
        -11    1    3    3    0    0  0.27617583467E+02 -0.32846340722E+02  0.60360821279E+02  0.74061067780E+02  0.00000000000E+00 0.  1.
         11    1    3    3    0    0 -0.27617583467E+02  0.32846340722E+02  0.35796454899E+02  0.55883800861E+02  0.00000000000E+00 0. -1.
<mgrwt>
<rscale>  0 0.87403931E+02</rscale>
<asrwt>0</asrwt>
<pdfrwt beam="1">  1        2 0.17392472E-01 0.87403931E+02</pdfrwt>
<pdfrwt beam="2">  1       -2 0.25990457E-02 0.87403931E+02</pdfrwt>
<totfact> 0.14300773E+05</totfact>
</mgrwt>
</event>
<event>
 5    1  0.5681061E+000  0.9114946E+02  0.7546771E-02  0.1300092E+00
         -1   -1    0    0    0  501 -0.00000000000E+00  0.00000000000E+00  0.79047005882E+01  0.79047005882E+01  0.00000000000E+00 0.  1.
          1   -1    0    0  501    0  0.00000000000E+00 -0.00000000000E+00 -0.26276215058E+03  0.26276215058E+03  0.00000000000E+00 0. -1.
         23    2    1    2    0    0  0.00000000000E+00  0.00000000000E+00 -0.25485744999E+03  0.27066685116E+03  0.91149462450E+02 0.  0.
        -11    1    3    3    0    0 -0.14624889215E+02  0.36446338573E+02 -0.19610237270E+03  0.19999590885E+03  0.00000000000E+00 0. -1.
         11    1    3    3    0    0  0.14624889215E+02 -0.36446338573E+02 -0.58755077291E+02  0.70670942313E+02  0.00000000000E+00 0.  1.
<mgrwt>
<rscale>  0 0.91149462E+02</rscale>
<asrwt>0</asrwt>
<pdfrwt beam="2">  1        1 0.40424953E-01 0.91149462E+02</pdfrwt>
<pdfrwt beam="1">  1       -1 0.12161076E-02 0.91149462E+02</pdfrwt>
<totfact> 0.12497801E+05</totfact>
</mgrwt>
</event>
<event>
 5    1  0.5681061E+000  0.9596903E+02  0.7546771E-02  0.1289008E+00
          1   -1    0    0  501    0  0.00000000000E+00  0.00000000000E+00  0.12397726860E+03  0.12397726860E+03  0.00000000000E+00 0. -1.
         -1   -1    0    0    0  501 -0.00000000000E+00 -0.00000000000E+00 -0.18572063545E+02  0.18572063545E+02  0.00000000000E+00 0.  1.
         23    2    1    2    0    0  0.00000000000E+00  0.00000000000E+00  0.10540520505E+03  0.14254933215E+03  0.95969030643E+02 0.  0.
        -11    1    3    3    0    0 -0.35854855967E+02  0.14166415071E+02  0.10265356565E+02  0.39895307465E+02  0.00000000000E+00 0.  1.
         11    1    3    3    0    0  0.35854855967E+02 -0.14166415071E+02  0.95139848490E+02  0.10265402468E+03  0.00000000000E+00 0. -1.
<mgrwt>
<rscale>  0 0.95969031E+02</rscale>
<asrwt>0</asrwt>
<pdfrwt beam="1">  1        1 0.19073425E-01 0.95969031E+02</pdfrwt>
<pdfrwt beam="2">  1       -1 0.28572406E-02 0.95969031E+02</pdfrwt>
<totfact> 0.94259402E+04</totfact>
</mgrwt>
</event>
<event>
 5    1  0.5681061E+000  0.9796554E+02  0.7546771E-02  0.1284633E+00
          1   -1    0    0  501    0  0.00000000000E+00  0.00000000000E+00  0.14597499614E+03  0.14597499614E+03  0.00000000000E+00 0. -1.
         -1   -1    0    0    0  501 -0.00000000000E+00 -0.00000000000E+00 -0.16436457149E+02  0.16436457149E+02  0.00000000000E+00 0.  1.
         23    2    1    2    0    0  0.00000000000E+00  0.00000000000E+00  0.12953853899E+03  0.16241145329E+03  0.97965540246E+02 0.  0.
        -11    1    3    3    0    0 -0.40359428003E+02  0.16160825947E+02  0.10218131132E+03  0.11104537859E+03  0.00000000000E+00 0. -1.
         11    1    3    3    0    0  0.40359428003E+02 -0.16160825947E+02  0.27357227677E+02  0.51366074701E+02  0.00000000000E+00 0.  1.
<mgrwt>
<rscale>  0 0.97965540E+02</rscale>
<asrwt>0</asrwt>
<pdfrwt beam="1">  1        1 0.22457691E-01 0.97965540E+02</pdfrwt>
<pdfrwt beam="2">  1       -1 0.25286858E-02 0.97965540E+02</pdfrwt>
<totfact> 0.91824657E+04</totfact>
</mgrwt>
</event>
<event>
 5    1  0.5681061E+000  0.9207550E+02  0.7546771E-02  0.1297902E+00
         -2   -1    0    0    0  501 -0.00000000000E+00  0.00000000000E+00  0.41047477285E+02  0.41047477285E+02  0.00000000000E+00 0.  1.
          2   -1    0    0  501    0  0.00000000000E+00 -0.00000000000E+00 -0.51634704557E+02  0.51634704557E+02  0.00000000000E+00 0. -1.
         23    2    1    2    0    0  0.00000000000E+00  0.00000000000E+00 -0.10587227272E+02  0.92682181843E+02  0.92075498640E+02 0.  0.
        -11    1    3    3    0    0  0.74598665195E+01 -0.16238811934E+02  0.37413831399E+02  0.41462554208E+02  0.00000000000E+00 0.  1.
         11    1    3    3    0    0 -0.74598665195E+01  0.16238811934E+02 -0.48001058671E+02  0.51219627635E+02  0.00000000000E+00 0. -1.
<mgrwt>
<rscale>  0 0.92075499E+02</rscale>
<asrwt>0</asrwt>
<pdfrwt beam="2">  1        2 0.79438007E-02 0.92075499E+02</pdfrwt>
<pdfrwt beam="1">  1       -2 0.63149965E-02 0.92075499E+02</pdfrwt>
<totfact> 0.99120792E+04</totfact>
</mgrwt>
</event>
<event>
 5    1  0.5681061E+000  0.6627472E+02  0.7546771E-02  0.1373240E+00
          1   -1    0    0  501    0  0.00000000000E+00  0.00000000000E+00  0.83514012649E+02  0.83514012649E+02  0.00000000000E+00 0. -1.
         -1   -1    0    0    0  501 -0.00000000000E+00 -0.00000000000E+00 -0.13148506249E+02  0.13148506249E+02  0.00000000000E+00 0.  1.
         23    2    1    2    0    0  0.00000000000E+00  0.00000000000E+00  0.70365506400E+02  0.96662518898E+02  0.66274716663E+02 0.  0.
        -11    1    3    3    0    0 -0.51006965353E+00 -0.17053757562E+02  0.76615650195E+02  0.78492347862E+02  0.00000000000E+00 0. -1.
         11    1    3    3    0    0  0.51006965353E+00  0.17053757562E+02 -0.62501437950E+01  0.18170171036E+02  0.00000000000E+00 0.  1.
<mgrwt>
<rscale>  0 0.66274717E+02</rscale>
<asrwt>0</asrwt>
<pdfrwt beam="1">  1        1 0.12848309E-01 0.66274717E+02</pdfrwt>
<pdfrwt beam="2">  1       -1 0.20228472E-02 0.66274717E+02</pdfrwt>
<totfact> 0.23861294E+05</totfact>
</mgrwt>
</event>
<event>
 5    1  0.5681061E+000  0.9089666E+02  0.7546771E-02  0.1300695E+00
          2   -1    0    0  501    0  0.00000000000E+00  0.00000000000E+00  0.14938211593E+02  0.14938211593E+02  0.00000000000E+00 0.  1.
         -2   -1    0    0    0  501 -0.00000000000E+00 -0.00000000000E+00 -0.13827296530E+03  0.13827296530E+03  0.00000000000E+00 0. -1.
         23    2    1    2    0    0  0.00000000000E+00  0.00000000000E+00 -0.12333475370E+03  0.15321117689E+03  0.90896662496E+02 0.  0.
        -11    1    3    3    0    0 -0.35381438258E+02 -0.27154697515E+02 -0.76393272879E+02  0.88459911325E+02  0.00000000000E+00 0.  1.
         11    1    3    3    0    0  0.35381438258E+02  0.27154697515E+02 -0.46941480823E+02  0.64751265565E+02  0.00000000000E+00 0. -1.
<mgrwt>
<rscale>  0 0.90896662E+02</rscale>
<asrwt>0</asrwt>
<pdfrwt beam="1">  1        2 0.22981864E-02 0.90896662E+02</pdfrwt>
<pdfrwt beam="2">  1       -2 0.21272764E-01 0.90896662E+02</pdfrwt>
<totfact> 0.72471866E+04</totfact>
</mgrwt>
</event>
<event>
 5    1  0.5681061E+000  0.9702660E+02  0.7546771E-02  0.1286676E+00
          2   -1    0    0  501    0  0.00000000000E+00  0.00000000000E+00  0.35139995028E+02  0.35139995028E+02  0.00000000000E+00 0. -1.
         -2   -1    0    0    0  501 -0.00000000000E+00 -0.00000000000E+00 -0.66976109145E+02  0.66976109145E+02  0.00000000000E+00 0.  1.
         23    2    1    2    0    0  0.00000000000E+00  0.00000000000E+00 -0.31836114117E+02  0.10211610417E+03  0.97026597228E+02 0.  0.
        -11    1    3    3    0    0 -0.75807441490E+01  0.44897632795E+02 -0.33537640666E+02  0.56551202055E+02  0.00000000000E+00 0.  1.
         11    1    3    3    0    0  0.75807441490E+01 -0.44897632795E+02  0.17015265489E+01  0.45564902118E+02  0.00000000000E+00 0. -1.
<mgrwt>
<rscale>  0 0.97026597E+02</rscale>
<asrwt>0</asrwt>
<pdfrwt beam="1">  1        2 0.54061532E-02 0.97026597E+02</pdfrwt>
<pdfrwt beam="2">  1       -2 0.10304017E-01 0.97026597E+02</pdfrwt>
<totfact> 0.76770407E+04</totfact>
</mgrwt>
</event>
<event>
 5    1  0.5681061E+000  0.9887268E+02  0.7546771E-02  0.1282685E+00
          1   -1    0    0  501    0  0.00000000000E+00  0.00000000000E+00  0.53710243142E+03  0.53710243142E+03  0.00000000000E+00 0. -1.
         -1   -1    0    0    0  501 -0.00000000000E+00 -0.00000000000E+00 -0.45502521285E+01  0.45502521285E+01  0.00000000000E+00 0.  1.
         23    2    1    2    0    0  0.00000000000E+00  0.00000000000E+00  0.53255217930E+03  0.54165268355E+03  0.98872675331E+02 0.  0.
        -11    1    3    3    0    0  0.48921793341E+02 -0.67069479449E+01  0.27927067770E+03  0.28360260302E+03  0.00000000000E+00 0.  1.
         11    1    3    3    0    0 -0.48921793341E+02  0.67069479449E+01  0.25328150159E+03  0.25805008053E+03  0.00000000000E+00 0. -1.
<mgrwt>
<rscale>  0 0.98872675E+02</rscale>
<asrwt>0</asrwt>
<pdfrwt beam="1">  1        1 0.82631093E-01 0.98872675E+02</pdfrwt>
<pdfrwt beam="2">  1       -1 0.70003921E-03 0.98872675E+02</pdfrwt>
<totfact> 0.11313674E+05</totfact>
</mgrwt>
</event>
<event>
 5    1  0.5681061E+000  0.9129673E+02  0.7546771E-02  0.1299742E+00
         -1   -1    0    0    0  501 -0.00000000000E+00  0.00000000000E+00  0.75083022557E+01  0.75083022557E+01  0.00000000000E+00 0.  1.
          1   -1    0    0  501    0  0.00000000000E+00 -0.00000000000E+00 -0.27752921124E+03  0.27752921124E+03  0.00000000000E+00 0. -1.
         23    2    1    2    0    0  0.00000000000E+00  0.00000000000E+00 -0.27002090898E+03  0.28503751349E+03  0.91296729465E+02 0.  0.
        -11    1    3    3    0    0  0.41801019520E+02  0.16759100932E+02 -0.15828643839E+03  0.16456849417E+03  0.00000000000E+00 0.  1.
         11    1    3    3    0    0 -0.41801019520E+02 -0.16759100932E+02 -0.11173447060E+03  0.12046901932E+03  0.00000000000E+00 0. -1.
<mgrwt>
<rscale>  0 0.91296729E+02</rscale>
<asrwt>0</asrwt>
<pdfrwt beam="2">  1        1 0.42696798E-01 0.91296729E+02</pdfrwt>
<pdfrwt beam="1">  1       -1 0.11551235E-02 0.91296729E+02</pdfrwt>
<totfact> 0.12577398E+05</totfact>
</mgrwt>
</event>
<event>
 5    1  0.5681061E+000  0.9404310E+02  0.7546771E-02  0.1293346E+00
          2   -1    0    0  501    0  0.00000000000E+00  0.00000000000E+00  0.94569536651E+02  0.94569536651E+02  0.00000000000E+00 0. -1.
         -2   -1    0    0    0  501 -0.00000000000E+00 -0.00000000000E+00 -0.23379897316E+02  0.23379897316E+02  0.00000000000E+00 0.  1.
         23    2    1    2    0    0  0.00000000000E+00  0.00000000000E+00  0.71189639335E+02  0.11794943397E+03  0.94043097697E+02 0.  0.
        -11    1    3    3    0    0 -0.44705034275E+02  0.13824019763E+02  0.29795225438E+02  0.55474310008E+02  0.00000000000E+00 0.  1.
         11    1    3    3    0    0  0.44705034275E+02 -0.13824019763E+02  0.41394413897E+02  0.62475123960E+02  0.00000000000E+00 0. -1.
<mgrwt>
<rscale>  0 0.94043098E+02</rscale>
<asrwt>0</asrwt>
<pdfrwt beam="1">  1        2 0.14549159E-01 0.94043098E+02</pdfrwt>
<pdfrwt beam="2">  1       -2 0.35969073E-02 0.94043098E+02</pdfrwt>
<totfact> 0.11071978E+05</totfact>
</mgrwt>
</event>
<event>
 5    1  0.5681061E+000  0.9035194E+02  0.7546771E-02  0.1302002E+00
          2   -1    0    0  501    0  0.00000000000E+00  0.00000000000E+00  0.19194586734E+03  0.19194586734E+03  0.00000000000E+00 0. -1.
         -2   -1    0    0    0  501 -0.00000000000E+00 -0.00000000000E+00 -0.10632519525E+02  0.10632519525E+02  0.00000000000E+00 0.  1.
         23    2    1    2    0    0  0.00000000000E+00  0.00000000000E+00  0.18131334782E+03  0.20257838687E+03  0.90351938157E+02 0.  0.
        -11    1    3    3    0    0  0.54750223256E+01  0.39581894656E+02  0.43403796899E+02  0.58996540909E+02  0.00000000000E+00 0.  1.
         11    1    3    3    0    0 -0.54750223256E+01 -0.39581894656E+02  0.13790955092E+03  0.14358184596E+03  0.00000000000E+00 0. -1.
<mgrwt>
<rscale>  0 0.90351938E+02</rscale>
<asrwt>0</asrwt>
<pdfrwt beam="1">  1        2 0.29530131E-01 0.90351938E+02</pdfrwt>
<pdfrwt beam="2">  1       -2 0.16357724E-02 0.90351938E+02</pdfrwt>
<totfact> 0.15617994E+05</totfact>
</mgrwt>
</event>
<event>
 5    1  0.5681061E+000  0.9313865E+02  0.7546771E-02  0.1295424E+00
          2   -1    0    0  501    0  0.00000000000E+00  0.00000000000E+00  0.12241351746E+02  0.12241351746E+02  0.00000000000E+00 0. -1.
         -2   -1    0    0    0  501 -0.00000000000E+00 -0.00000000000E+00 -0.17716198743E+03  0.17716198743E+03  0.00000000000E+00 0.  1.
         23    2    1    2    0    0  0.00000000000E+00  0.00000000000E+00 -0.16492063568E+03  0.18940333917E+03  0.93138653719E+02 0.  0.
        -11    1    3    3    0    0 -0.41767685198E+02 -0.71871123814E+00 -0.40604166003E+02  0.58255938491E+02  0.00000000000E+00 0. -1.
         11    1    3    3    0    0  0.41767685198E+02  0.71871123814E+00 -0.12431646968E+03  0.13114740068E+03  0.00000000000E+00 0.  1.
<mgrwt>
<rscale>  0 0.93138654E+02</rscale>
<asrwt>0</asrwt>
<pdfrwt beam="1">  1        2 0.18832848E-02 0.93138654E+02</pdfrwt>
<pdfrwt beam="2">  1       -2 0.27255691E-01 0.93138654E+02</pdfrwt>
<totfact> 0.62092343E+04</totfact>
</mgrwt>
</event>
<event>
 5    1  0.5681061E+000  0.9665951E+02  0.7546771E-02  0.1287482E+00
         -2   -1    0    0    0  501 -0.00000000000E+00  0.00000000000E+00  0.35904395693E+02  0.35904395693E+02  0.00000000000E+00 0.  1.
          2   -1    0    0  501    0  0.00000000000E+00 -0.00000000000E+00 -0.65055131453E+02  0.65055131453E+02  0.00000000000E+00 0. -1.
         23    2    1    2    0    0  0.00000000000E+00  0.00000000000E+00 -0.29150735760E+02  0.10095952715E+03  0.96659509238E+02 0.  0.
        -11    1    3    3    0    0 -0.26200017418E+02  0.20265625708E+02  0.22184444704E+02  0.39865851112E+02  0.00000000000E+00 0.  1.
         11    1    3    3    0    0  0.26200017418E+02 -0.20265625708E+02 -0.51335180464E+02  0.61093676034E+02  0.00000000000E+00 0. -1.
<mgrwt>
<rscale>  0 0.96659509E+02</rscale>
<asrwt>0</asrwt>
<pdfrwt beam="2">  1        2 0.10008482E-01 0.96659509E+02</pdfrwt>
<pdfrwt beam="1">  1       -2 0.55237532E-02 0.96659509E+02</pdfrwt>
<totfact> 0.91927798E+04</totfact>
</mgrwt>
</event>
<event>
 5    1  0.5681061E+000  0.9363314E+02  0.7546771E-02  0.1294285E+00
          3   -1    0    0  501    0  0.00000000000E+00  0.00000000000E+00  0.12578398895E+03  0.12578398895E+03  0.00000000000E+00 0. -1.
         -3   -1    0    0    0  501 -0.00000000000E+00 -0.00000000000E+00 -0.17425040019E+02  0.17425040019E+02  0.00000000000E+00 0.  1.
         23    2    1    2    0    0  0.00000000000E+00  0.00000000000E+00  0.10835894893E+03  0.14320902897E+03  0.93633136042E+02 0.  0.
        -11    1    3    3    0    0 -0.26855677724E+01  0.36288318746E+02  0.91253233964E+01  0.37514342308E+02  0.00000000000E+00 0.  1.
         11    1    3    3    0    0  0.26855677724E+01 -0.36288318746E+02  0.99233625537E+02  0.10569468666E+03  0.00000000000E+00 0. -1.
<mgrwt>
<rscale>  0 0.93633136E+02</rscale>
<asrwt>0</asrwt>
<pdfrwt beam="1">  1        3 0.19351382E-01 0.93633136E+02</pdfrwt>
<pdfrwt beam="2">  1       -3 0.26807755E-02 0.93633136E+02</pdfrwt>
<totfact> 0.29516284E+04</totfact>
</mgrwt>
</event>
<event>
 5    1  0.5681061E+000  0.9165139E+02  0.7546771E-02  0.1298901E+00
         -1   -1    0    0    0  501 -0.00000000000E+00  0.00000000000E+00  0.17124296658E+02  0.17124296658E+02  0.00000000000E+00 0.  1.
          1   -1    0    0  501    0  0.00000000000E+00 -0.00000000000E+00 -0.12263244749E+03  0.12263244749E+03  0.00000000000E+00 0. -1.
         23    2    1    2    0    0  0.00000000000E+00  0.00000000000E+00 -0.10550815084E+03  0.13975674415E+03  0.91651391933E+02 0.  0.
        -11    1    3    3    0    0  0.32464607674E+02 -0.13652527552E+02 -0.80450620013E+01  0.36125687296E+02  0.00000000000E+00 0.  1.
         11    1    3    3    0    0 -0.32464607674E+02  0.13652527552E+02 -0.97463088834E+02  0.10363105686E+03  0.00000000000E+00 0. -1.
<mgrwt>
<rscale>  0 0.91651392E+02</rscale>
<asrwt>0</asrwt>
<pdfrwt beam="2">  1        1 0.18866531E-01 0.91651392E+02</pdfrwt>
<pdfrwt beam="1">  1       -1 0.26345071E-02 0.91651392E+02</pdfrwt>
<totfact> 0.10663429E+05</totfact>
</mgrwt>
</event>
<event>
 5    1  0.5681061E+000  0.1094165E+03  0.7546771E-02  0.1261654E+00
          2   -1    0    0  501    0  0.00000000000E+00  0.00000000000E+00  0.37670719057E+03  0.37670719057E+03  0.00000000000E+00 0. -1.
         -2   -1    0    0    0  501 -0.00000000000E+00 -0.00000000000E+00 -0.79451396848E+01  0.79451396848E+01  0.00000000000E+00 0.  1.
         23    2    1    2    0    0  0.00000000000E+00  0.00000000000E+00  0.36876205088E+03  0.38465233025E+03  0.10941647498E+03 0.  0.
        -11    1    3    3    0    0  0.19252367955E+02  0.46206704541E+02  0.10677881979E+03  0.11792976542E+03  0.00000000000E+00 0. -1.
         11    1    3    3    0    0 -0.19252367955E+02 -0.46206704541E+02  0.26198323109E+03  0.26672256483E+03  0.00000000000E+00 0.  1.
<mgrwt>
<rscale>  0 0.10941647E+03</rscale>
<asrwt>0</asrwt>
<pdfrwt beam="1">  1        2 0.57954939E-01 0.10941647E+03</pdfrwt>
<pdfrwt beam="2">  1       -2 0.12223295E-02 0.10941647E+03</pdfrwt>
<totfact> 0.11974311E+05</totfact>
</mgrwt>
</event>
<event>
 5    1  0.5681061E+000  0.8688365E+02  0.7546771E-02  0.1310579E+00
          2   -1    0    0  501    0  0.00000000000E+00  0.00000000000E+00  0.39786104292E+02  0.39786104292E+02  0.00000000000E+00 0.  1.
         -2   -1    0    0    0  501 -0.00000000000E+00 -0.00000000000E+00 -0.47433445246E+02  0.47433445246E+02  0.00000000000E+00 0. -1.
         23    2    1    2    0    0  0.00000000000E+00  0.00000000000E+00 -0.76473409541E+01  0.87219549537E+02  0.86883646320E+02 0.  0.
        -11    1    3    3    0    0 -0.21584033709E+02  0.34506016702E+02 -0.19069759826E+02  0.44946539795E+02  0.00000000000E+00 0. -1.
         11    1    3    3    0    0  0.21584033709E+02 -0.34506016702E+02  0.11422418872E+02  0.42273009742E+02  0.00000000000E+00 0.  1.
<mgrwt>
<rscale>  0 0.86883646E+02</rscale>
<asrwt>0</asrwt>
<pdfrwt beam="1">  1        2 0.61209391E-02 0.86883646E+02</pdfrwt>
<pdfrwt beam="2">  1       -2 0.72974531E-02 0.86883646E+02</pdfrwt>
<totfact> 0.10945360E+05</totfact>
</mgrwt>
</event>
<event>
 4    1  0.5681061E+000  0.2840581E+02  0.7546771E-02  0.1616410E+00
         -2   -1    0    0    0  501 -0.00000000000E+00  0.00000000000E+00  0.41008454525E+02  0.41008454525E+02  0.00000000000E+00 0.  1.
          2   -1    0    0  501    0  0.00000000000E+00 -0.00000000000E+00 -0.49190485873E+01  0.49190485873E+01  0.00000000000E+00 0. -1.
        -11    1    1    2    0    0 -0.79433094922E+01 -0.10604759988E+02  0.97742377983E+01  0.16464896739E+02  0.00000000000E+00 0. -1.
         11    1    1    2    0    0  0.79433094922E+01  0.10604759988E+02  0.26315168139E+02  0.29462606373E+02  0.00000000000E+00 0.  1.
<mgrwt>
<rscale>  0 0.28405815E+02</rscale>
<asrwt>0</asrwt>
<pdfrwt beam="2">  1        2 0.75677673E-03 0.28405815E+02</pdfrwt>
<pdfrwt beam="1">  1       -2 0.63089928E-02 0.28405815E+02</pdfrwt>
<totfact> 0.15866940E+06</totfact>
</mgrwt>
</event>
<event>
 5    1  0.5681061E+000  0.9095239E+02  0.7546771E-02  0.1300562E+00
         -2   -1    0    0    0  501 -0.00000000000E+00  0.00000000000E+00  0.49163137865E+02  0.49163137865E+02  0.00000000000E+00 0. -1.
          2   -1    0    0  501    0  0.00000000000E+00 -0.00000000000E+00 -0.42065751889E+02  0.42065751889E+02  0.00000000000E+00 0.  1.
         23    2    1    2    0    0  0.00000000000E+00  0.00000000000E+00  0.70973859762E+01  0.91228889754E+02  0.90952391052E+02 0.  0.
        -11    1    3    3    0    0 -0.66618036226E+01 -0.16328584614E+02 -0.38496300611E+02  0.42343446526E+02  0.00000000000E+00 0.  1.
         11    1    3    3    0    0  0.66618036226E+01  0.16328584614E+02  0.45593686587E+02  0.48885443228E+02  0.00000000000E+00 0. -1.
<mgrwt>
<rscale>  0 0.90952391E+02</rscale>
<asrwt>0</asrwt>
<pdfrwt beam="2">  1        2 0.64716542E-02 0.90952391E+02</pdfrwt>
<pdfrwt beam="1">  1       -2 0.75635596E-02 0.90952391E+02</pdfrwt>
<totfact> 0.97329536E+04</totfact>
</mgrwt>
</event>
<event>
 5    1  0.5681061E+000  0.9067012E+02  0.7546771E-02  0.1301237E+00
          1   -1    0    0  501    0  0.00000000000E+00  0.00000000000E+00  0.16010900456E+02  0.16010900456E+02  0.00000000000E+00 0. -1.
         -1   -1    0    0    0  501 -0.00000000000E+00 -0.00000000000E+00 -0.12836676686E+03  0.12836676686E+03  0.00000000000E+00 0.  1.
         23    2    1    2    0    0  0.00000000000E+00  0.00000000000E+00 -0.11235586641E+03  0.14437766732E+03  0.90670116933E+02 0.  0.
        -11    1    3    3    0    0  0.89244337549E+01  0.19519682845E+02 -0.11976404483E+03  0.12167205912E+03  0.00000000000E+00 0.  1.
         11    1    3    3    0    0 -0.89244337549E+01 -0.19519682845E+02  0.74081784230E+01  0.22705608201E+02  0.00000000000E+00 0. -1.
<mgrwt>
<rscale>  0 0.90670117E+02</rscale>
<asrwt>0</asrwt>
<pdfrwt beam="1">  1        1 0.24632154E-02 0.90670117E+02</pdfrwt>
<pdfrwt beam="2">  1       -1 0.19748734E-01 0.90670117E+02</pdfrwt>
<totfact> 0.78558226E+04</totfact>
</mgrwt>
</event>
<event>
 5    1  0.5681061E+000  0.9285780E+02  0.7546771E-02  0.1296075E+00
         -2   -1    0    0    0  501 -0.00000000000E+00  0.00000000000E+00  0.18317559754E+03  0.18317559754E+03  0.00000000000E+00 0.  1.
          2   -1    0    0  501    0  0.00000000000E+00 -0.00000000000E+00 -0.11768176272E+02  0.11768176272E+02  0.00000000000E+00 0. -1.
         23    2    1    2    0    0  0.00000000000E+00  0.00000000000E+00  0.17140742127E+03  0.19494377381E+03  0.92857799255E+02 0.  0.
        -11    1    3    3    0    0 -0.25228844812E+02  0.36734235849E+02  0.11305565677E+03  0.12152152164E+03  0.00000000000E+00 0.  1.
         11    1    3    3    0    0  0.25228844812E+02 -0.36734235849E+02  0.58351764497E+02  0.73422252171E+02  0.00000000000E+00 0. -1.
<mgrwt>
<rscale>  0 0.92857799E+02</rscale>
<asrwt>0</asrwt>
<pdfrwt beam="2">  1        2 0.18104888E-02 0.92857799E+02</pdfrwt>
<pdfrwt beam="1">  1       -2 0.28180859E-01 0.92857799E+02</pdfrwt>
<totfact> 0.61726683E+04</totfact>
</mgrwt>
</event>
<event>
 5    1  0.5681061E+000  0.9233240E+02  0.7546771E-02  0.1297300E+00
          3   -1    0    0  501    0  0.00000000000E+00  0.00000000000E+00  0.19642922393E+02  0.19642922393E+02  0.00000000000E+00 0. -1.
         -3   -1    0    0    0  501 -0.00000000000E+00 -0.00000000000E+00 -0.10850310330E+03  0.10850310330E+03  0.00000000000E+00 0.  1.
         23    2    1    2    0    0  0.00000000000E+00  0.00000000000E+00 -0.88860180905E+02  0.12814602569E+03  0.92332400325E+02 0.  0.
        -11    1    3    3    0    0 -0.14653338244E+02  0.43690794591E+02 -0.48284338849E+02  0.66745660771E+02  0.00000000000E+00 0.  1.
         11    1    3    3    0    0  0.14653338244E+02 -0.43690794591E+02 -0.40575842056E+02  0.61400364919E+02  0.00000000000E+00 0. -1.
<mgrwt>
<rscale>  0 0.92332400E+02</rscale>
<asrwt>0</asrwt>
<pdfrwt beam="1">  1        3 0.30219882E-02 0.92332400E+02</pdfrwt>
<pdfrwt beam="2">  1       -3 0.16692784E-01 0.92332400E+02</pdfrwt>
<totfact> 0.31598588E+04</totfact>
</mgrwt>
</event>
<event>
 5    1  0.5681061E+000  0.9165133E+02  0.7546771E-02  0.1298901E+00
          1   -1    0    0  501    0  0.00000000000E+00  0.00000000000E+00  0.52535842968E+02  0.52535842968E+02  0.00000000000E+00 0. -1.
         -1   -1    0    0    0  501 -0.00000000000E+00 -0.00000000000E+00 -0.39972547559E+02  0.39972547559E+02  0.00000000000E+00 0.  1.
         23    2    1    2    0    0  0.00000000000E+00  0.00000000000E+00  0.12563295409E+02  0.92508390527E+02  0.91651328012E+02 0.  0.
        -11    1    3    3    0    0 -0.31831668268E+01  0.34181925145E+02  0.36920988023E+02  0.50415234942E+02  0.00000000000E+00 0. -1.
         11    1    3    3    0    0  0.31831668268E+01 -0.34181925145E+02 -0.24357692614E+02  0.42093155585E+02  0.00000000000E+00 0.  1.
<mgrwt>
<rscale>  0 0.91651328E+02</rscale>
<asrwt>0</asrwt>
<pdfrwt beam="1">  1        1 0.80824374E-02 0.91651328E+02</pdfrwt>
<pdfrwt beam="2">  1       -1 0.61496227E-02 0.91651328E+02</pdfrwt>
<totfact> 0.93103269E+04</totfact>
</mgrwt>
</event>
<event>
 5    1  0.5681061E+000  0.9152482E+02  0.7546771E-02  0.1299201E+00
         -3   -1    0    0    0  501 -0.00000000000E+00  0.00000000000E+00  0.47701324835E+02  0.47701324835E+02  0.00000000000E+00 0.  1.
          3   -1    0    0  501    0  0.00000000000E+00 -0.00000000000E+00 -0.43902308047E+02  0.43902308047E+02  0.00000000000E+00 0. -1.
         23    2    1    2    0    0  0.00000000000E+00  0.00000000000E+00  0.37990167887E+01  0.91603632882E+02  0.91524821926E+02 0.  0.
        -11    1    3    3    0    0 -0.84982211679E+01 -0.14772450696E+02  0.44406695006E+02  0.47564688835E+02  0.00000000000E+00 0.  1.
         11    1    3    3    0    0  0.84982211679E+01  0.14772450696E+02 -0.40607678217E+02  0.44038944047E+02  0.00000000000E+00 0. -1.
<mgrwt>
<rscale>  0 0.91524822E+02</rscale>
<asrwt>0</asrwt>
<pdfrwt beam="2">  1        3 0.67542012E-02 0.91524822E+02</pdfrwt>
<pdfrwt beam="1">  1       -3 0.73386653E-02 0.91524822E+02</pdfrwt>
<totfact> 0.34940617E+04</totfact>
</mgrwt>
</event>
<event>
 5    1  0.5681061E+000  0.9073465E+02  0.7546771E-02  0.1301082E+00
          1   -1    0    0  501    0  0.00000000000E+00  0.00000000000E+00  0.27365209484E+02  0.27365209484E+02  0.00000000000E+00 0. -1.
         -1   -1    0    0    0  501 -0.00000000000E+00 -0.00000000000E+00 -0.75212078116E+02  0.75212078116E+02  0.00000000000E+00 0.  1.
         23    2    1    2    0    0  0.00000000000E+00  0.00000000000E+00 -0.47846868632E+02  0.10257728760E+03  0.90734652109E+02 0.  0.
        -11    1    3    3    0    0  0.28582283375E+01 -0.16308750752E+02 -0.71674325020E+02  0.73561903778E+02  0.00000000000E+00 0.  1.
         11    1    3    3    0    0 -0.28582283375E+01  0.16308750752E+02  0.23827456389E+02  0.29015383821E+02  0.00000000000E+00 0. -1.
<mgrwt>
<rscale>  0 0.90734652E+02</rscale>
<asrwt>0</asrwt>
<pdfrwt beam="1">  1        1 0.42100322E-02 0.90734652E+02</pdfrwt>
<pdfrwt beam="2">  1       -1 0.11571089E-01 0.90734652E+02</pdfrwt>
<totfact> 0.86597513E+04</totfact>
</mgrwt>
</event>
<event>
 5    1  0.5681061E+000  0.9149045E+02  0.7546771E-02  0.1299282E+00
          2   -1    0    0  501    0  0.00000000000E+00  0.00000000000E+00  0.30065332441E+03  0.30065332441E+03  0.00000000000E+00 0. -1.
         -2   -1    0    0    0  501 -0.00000000000E+00 -0.00000000000E+00 -0.69602611313E+01  0.69602611313E+01  0.00000000000E+00 0.  1.
         23    2    1    2    0    0  0.00000000000E+00  0.00000000000E+00  0.29369306328E+03  0.30761358554E+03  0.91490450821E+02 0.  0.
        -11    1    3    3    0    0 -0.39220787222E+02 -0.11017770814E+02  0.21680749002E+03  0.22060178864E+03  0.00000000000E+00 0. -1.
         11    1    3    3    0    0  0.39220787222E+02  0.11017770814E+02  0.76885573260E+02  0.87011796898E+02  0.00000000000E+00 0.  1.
<mgrwt>
<rscale>  0 0.91490451E+02</rscale>
<asrwt>0</asrwt>
<pdfrwt beam="1">  1        2 0.46254347E-01 0.91490451E+02</pdfrwt>
<pdfrwt beam="2">  1       -2 0.10708096E-02 0.91490451E+02</pdfrwt>
<totfact> 0.17816461E+05</totfact>
</mgrwt>
</event>
<event>
 5    1  0.5681061E+000  0.9892639E+02  0.7546771E-02  0.1282570E+00
          1   -1    0    0  501    0  0.00000000000E+00  0.00000000000E+00  0.75182708815E+01  0.75182708815E+01  0.00000000000E+00 0. -1.
         -1   -1    0    0    0  501 -0.00000000000E+00 -0.00000000000E+00 -0.32542156071E+03  0.32542156071E+03  0.00000000000E+00 0.  1.
         23    2    1    2    0    0  0.00000000000E+00  0.00000000000E+00 -0.31790328983E+03  0.33293983159E+03  0.98926385643E+02 0.  0.
        -11    1    3    3    0    0  0.27283004057E+02  0.32906029488E+02 -0.75188560570E+02  0.86489818636E+02  0.00000000000E+00 0. -1.
         11    1    3    3    0    0 -0.27283004057E+02 -0.32906029488E+02 -0.24271472926E+03  0.24645001296E+03  0.00000000000E+00 0.  1.
<mgrwt>
<rscale>  0 0.98926386E+02</rscale>
<asrwt>0</asrwt>
<pdfrwt beam="1">  1        1 0.11566568E-02 0.98926386E+02</pdfrwt>
<pdfrwt beam="2">  1       -1 0.50064867E-01 0.98926386E+02</pdfrwt>
<totfact> 0.47313173E+04</totfact>
</mgrwt>
</event>
<event>
 5    1  0.5681061E+000  0.9164246E+02  0.7546771E-02  0.1298922E+00
          2   -1    0    0  501    0  0.00000000000E+00  0.00000000000E+00  0.23957986030E+03  0.23957986030E+03  0.00000000000E+00 0. -1.
         -2   -1    0    0    0  501 -0.00000000000E+00 -0.00000000000E+00 -0.87636124059E+01  0.87636124059E+01  0.00000000000E+00 0.  1.
         23    2    1    2    0    0  0.00000000000E+00  0.00000000000E+00  0.23081624790E+03  0.24834347271E+03  0.91642458194E+02 0.  0.
        -11    1    3    3    0    0  0.36376075351E+02  0.23346140415E+02  0.15662416538E+03  0.16247889189E+03  0.00000000000E+00 0. -1.
         11    1    3    3    0    0 -0.36376075351E+02 -0.23346140415E+02  0.74192082517E+02  0.85864580815E+02  0.00000000000E+00 0.  1.
<mgrwt>
<rscale>  0 0.91642458E+02</rscale>
<asrwt>0</asrwt>
<pdfrwt beam="1">  1        2 0.36858435E-01 0.91642458E+02</pdfrwt>
<pdfrwt beam="2">  1       -2 0.13482482E-02 0.91642458E+02</pdfrwt>
<totfact> 0.16299686E+05</totfact>
</mgrwt>
</event>
<event>
 5    1  0.5681061E+000  0.9254318E+02  0.7546771E-02  0.1296807E+00
          3   -1    0    0  501    0  0.00000000000E+00  0.00000000000E+00  0.10539647321E+02  0.10539647321E+02  0.00000000000E+00 0. -1.
         -3   -1    0    0    0  501 -0.00000000000E+00 -0.00000000000E+00 -0.20314341049E+03  0.20314341049E+03  0.00000000000E+00 0.  1.
         23    2    1    2    0    0  0.00000000000E+00  0.00000000000E+00 -0.19260376317E+03  0.21368305781E+03  0.92543176994E+02 0.  0.
        -11    1    3    3    0    0  0.42116841101E+02  0.16733219460E+02 -0.11786745556E+03  0.12627971341E+03  0.00000000000E+00 0.  1.
         11    1    3    3    0    0 -0.42116841101E+02 -0.16733219460E+02 -0.74736307603E+02  0.87403344398E+02  0.00000000000E+00 0. -1.
<mgrwt>
<rscale>  0 0.92543177E+02</rscale>
<asrwt>0</asrwt>
<pdfrwt beam="1">  1        3 0.16214842E-02 0.92543177E+02</pdfrwt>
<pdfrwt beam="2">  1       -3 0.31252832E-01 0.92543177E+02</pdfrwt>
<totfact> 0.26708965E+04</totfact>
</mgrwt>
</event>
<event>
 5    1  0.5681061E+000  0.9129797E+02  0.7546771E-02  0.1299739E+00
          1   -1    0    0  501    0  0.00000000000E+00  0.00000000000E+00  0.14363703527E+03  0.14363703527E+03  0.00000000000E+00 0. -1.
         -1   -1    0    0    0  501 -0.00000000000E+00 -0.00000000000E+00 -0.14507609158E+02  0.14507609158E+02  0.00000000000E+00 0.  1.
         23    2    1    2    0    0  0.00000000000E+00  0.00000000000E+00  0.12912942611E+03  0.15814464443E+03  0.91297972999E+02 0.  0.
        -11    1    3    3    0    0  0.22614473497E+02 -0.72037779031E+01  0.13210914990E+03  0.13422420168E+03  0.00000000000E+00 0. -1.
         11    1    3    3    0    0 -0.22614473497E+02  0.72037779031E+01 -0.29797237905E+01  0.23920442753E+02  0.00000000000E+00 0.  1.
<mgrwt>
<rscale>  0 0.91297973E+02</rscale>
<asrwt>0</asrwt>
<pdfrwt beam="1">  1        1 0.22098004E-01 0.91297973E+02</pdfrwt>
<pdfrwt beam="2">  1       -1 0.22319400E-02 0.91297973E+02</pdfrwt>
<totfact> 0.11084834E+05</totfact>
</mgrwt>
</event>
<event>
 5    1  0.5681061E+000  0.9086928E+02  0.7546771E-02  0.1300760E+00
          1   -1    0    0  501    0  0.00000000000E+00  0.00000000000E+00  0.90063369551E+02  0.90063369551E+02  0.00000000000E+00 0. -1.
         -1   -1    0    0    0  501 -0.00000000000E+00 -0.00000000000E+00 -0.22920602069E+02  0.22920602069E+02  0.00000000000E+00 0.  1.
         23    2    1    2    0    0  0.00000000000E+00  0.00000000000E+00  0.67142767482E+02  0.11298397162E+03  0.90869283136E+02 0.  0.
        -11    1    3    3    0    0  0.23342403985E+02  0.38882688924E+02  0.36993545934E+02  0.58525667553E+02  0.00000000000E+00 0.  1.
         11    1    3    3    0    0 -0.23342403985E+02 -0.38882688924E+02  0.30149221548E+02  0.54458304066E+02  0.00000000000E+00 0. -1.
<mgrwt>
<rscale>  0 0.90869283E+02</rscale>
<asrwt>0</asrwt>
<pdfrwt beam="1">  1        1 0.13855903E-01 0.90869283E+02</pdfrwt>
<pdfrwt beam="2">  1       -1 0.35262465E-02 0.90869283E+02</pdfrwt>
<totfact> 0.10362488E+05</totfact>
</mgrwt>
</event>
<event>
 5    1  0.5681061E+000  0.8942727E+02  0.7546771E-02  0.1304245E+00
         -1   -1    0    0    0  501 -0.00000000000E+00  0.00000000000E+00  0.90856098278E+02  0.90856098278E+02  0.00000000000E+00 0.  1.
          1   -1    0    0  501    0  0.00000000000E+00 -0.00000000000E+00 -0.22005227886E+02  0.22005227886E+02  0.00000000000E+00 0. -1.
         23    2    1    2    0    0  0.00000000000E+00  0.00000000000E+00  0.68850870392E+02  0.11286132616E+03  0.89427269833E+02 0.  0.
        -11    1    3    3    0    0  0.63409554297E+01 -0.24866740389E+02  0.80636772622E+02  0.84621815108E+02  0.00000000000E+00 0.  1.
         11    1    3    3    0    0 -0.63409554297E+01  0.24866740389E+02 -0.11785902230E+02  0.28239511056E+02  0.00000000000E+00 0. -1.
<mgrwt>
<rscale>  0 0.89427270E+02</rscale>
<asrwt>0</asrwt>
<pdfrwt beam="2">  1        1 0.33854197E-02 0.89427270E+02</pdfrwt>
<pdfrwt beam="1">  1       -1 0.13977861E-01 0.89427270E+02</pdfrwt>
<totfact> 0.87023444E+04</totfact>
</mgrwt>
</event>
<event>
 5    1  0.5681061E+000  0.9116855E+02  0.7546771E-02  0.1300046E+00
          1   -1    0    0  501    0  0.00000000000E+00  0.00000000000E+00  0.18324611677E+03  0.18324611677E+03  0.00000000000E+00 0. -1.
         -1   -1    0    0    0  501 -0.00000000000E+00 -0.00000000000E+00 -0.11339537903E+02  0.11339537903E+02  0.00000000000E+00 0.  1.
         23    2    1    2    0    0  0.00000000000E+00  0.00000000000E+00  0.17190657887E+03  0.19458565467E+03  0.91168553497E+02 0.  0.
        -11    1    3    3    0    0 -0.33972313554E+02  0.27174198066E+02  0.56893876451E+02  0.71620306523E+02  0.00000000000E+00 0. -1.
         11    1    3    3    0    0  0.33972313554E+02 -0.27174198066E+02  0.11501270241E+03  0.12296534815E+03  0.00000000000E+00 0.  1.
<mgrwt>
<rscale>  0 0.91168553E+02</rscale>
<asrwt>0</asrwt>
<pdfrwt beam="1">  1        1 0.28191708E-01 0.91168553E+02</pdfrwt>
<pdfrwt beam="2">  1       -1 0.17445444E-02 0.91168553E+02</pdfrwt>
<totfact> 0.11645250E+05</totfact>
</mgrwt>
</event>
<event>
 5    1  0.5681061E+000  0.9005745E+02  0.7546771E-02  0.1302713E+00
         -1   -1    0    0    0  501 -0.00000000000E+00  0.00000000000E+00  0.76484731223E+02  0.76484731223E+02  0.00000000000E+00 0.  1.
          1   -1    0    0  501    0  0.00000000000E+00 -0.00000000000E+00 -0.26509681574E+02  0.26509681574E+02  0.00000000000E+00 0. -1.
         23    2    1    2    0    0  0.00000000000E+00  0.00000000000E+00  0.49975049648E+02  0.10299441280E+03  0.90057445445E+02 0.  0.
        -11    1    3    3    0    0 -0.19172959387E+02  0.85356034682E+00 -0.21597957999E+02  0.28892952889E+02  0.00000000000E+00 0. -1.
         11    1    3    3    0    0  0.19172959387E+02 -0.85356034682E+00  0.71573007647E+02  0.74101459908E+02  0.00000000000E+00 0.  1.
<mgrwt>
<rscale>  0 0.90057445E+02</rscale>
<asrwt>0</asrwt>
<pdfrwt beam="2">  1        1 0.40784126E-02 0.90057445E+02</pdfrwt>
<pdfrwt beam="1">  1       -1 0.11766882E-01 0.90057445E+02</pdfrwt>
<totfact> 0.88024904E+04</totfact>
</mgrwt>
</event>
<event>
 5    1  0.5681061E+000  0.9103543E+02  0.7546771E-02  0.1300363E+00
         -1   -1    0    0    0  501 -0.00000000000E+00  0.00000000000E+00  0.39064181924E+03  0.39064181924E+03  0.00000000000E+00 0.  1.
          1   -1    0    0  501    0  0.00000000000E+00 -0.00000000000E+00 -0.53037392959E+01  0.53037392959E+01  0.00000000000E+00 0. -1.
         23    2    1    2    0    0  0.00000000000E+00  0.00000000000E+00  0.38533807994E+03  0.39594555853E+03  0.91035429747E+02 0.  0.
        -11    1    3    3    0    0  0.25389095487E+02  0.37317698517E+02  0.16706851235E+03  0.17305809606E+03  0.00000000000E+00 0.  1.
         11    1    3    3    0    0 -0.25389095487E+02 -0.37317698517E+02  0.21826956759E+03  0.22288746248E+03  0.00000000000E+00 0. -1.
<mgrwt>
<rscale>  0 0.91035430E+02</rscale>
<asrwt>0</asrwt>
<pdfrwt beam="2">  1        1 0.81596020E-03 0.91035430E+02</pdfrwt>
<pdfrwt beam="1">  1       -1 0.60098719E-01 0.91035430E+02</pdfrwt>
<totfact> 0.54144108E+04</totfact>
</mgrwt>
</event>
<event>
 5    1  0.5681061E+000  0.9184524E+02  0.7546771E-02  0.1298444E+00
          1   -1    0    0  501    0  0.00000000000E+00  0.00000000000E+00  0.51747871821E+02  0.51747871821E+02  0.00000000000E+00 0. -1.
         -1   -1    0    0    0  501 -0.00000000000E+00 -0.00000000000E+00 -0.40753117075E+02  0.40753117075E+02  0.00000000000E+00 0.  1.
         23    2    1    2    0    0  0.00000000000E+00  0.00000000000E+00  0.10994754747E+02  0.92500988896E+02  0.91845241111E+02 0.  0.
        -11    1    3    3    0    0 -0.36034165669E+02  0.28110859255E+02  0.97022276708E+00  0.45712392583E+02  0.00000000000E+00 0. -1.
         11    1    3    3    0    0  0.36034165669E+02 -0.28110859255E+02  0.10024531980E+02  0.46788596312E+02  0.00000000000E+00 0.  1.
<mgrwt>
<rscale>  0 0.91845241E+02</rscale>
<asrwt>0</asrwt>
<pdfrwt beam="1">  1        1 0.79612110E-02 0.91845241E+02</pdfrwt>
<pdfrwt beam="2">  1       -1 0.62697103E-02 0.91845241E+02</pdfrwt>
<totfact> 0.92343907E+04</totfact>
</mgrwt>
</event>
<event>
 5    1  0.5681061E+000  0.9172199E+02  0.7546771E-02  0.1298734E+00
         -2   -1    0    0    0  501 -0.00000000000E+00  0.00000000000E+00  0.63131724394E+02  0.63131724394E+02  0.00000000000E+00 0. -1.
          2   -1    0    0  501    0  0.00000000000E+00 -0.00000000000E+00 -0.33314959611E+02  0.33314959611E+02  0.00000000000E+00 0.  1.
         23    2    1    2    0    0  0.00000000000E+00  0.00000000000E+00  0.29816764783E+02  0.96446684006E+02  0.91721989695E+02 0.  0.
        -11    1    3    3    0    0 -0.30225221239E+02 -0.31377193300E+02 -0.15205262150E+00  0.43567365979E+02  0.00000000000E+00 0.  1.
         11    1    3    3    0    0  0.30225221239E+02  0.31377193300E+02  0.29968817404E+02  0.52879318027E+02  0.00000000000E+00 0. -1.
<mgrwt>
<rscale>  0 0.91721990E+02</rscale>
<asrwt>0</asrwt>
<pdfrwt beam="2">  1        2 0.51253784E-02 0.91721990E+02</pdfrwt>
<pdfrwt beam="1">  1       -2 0.97125730E-02 0.91721990E+02</pdfrwt>
<totfact> 0.89371643E+04</totfact>
</mgrwt>
</event>
<event>
 5    1  0.5681061E+000  0.9009983E+02  0.7546771E-02  0.1302610E+00
         -3   -1    0    0    0  501 -0.00000000000E+00  0.00000000000E+00  0.53603474686E+02  0.53603474686E+02  0.00000000000E+00 0.  1.
          3   -1    0    0  501    0  0.00000000000E+00 -0.00000000000E+00 -0.37861258281E+02  0.37861258281E+02  0.00000000000E+00 0. -1.
         23    2    1    2    0    0  0.00000000000E+00  0.00000000000E+00  0.15742216405E+02  0.91464732966E+02  0.90099833514E+02 0.  0.
        -11    1    3    3    0    0 -0.11723163024E+02  0.38659190319E+02  0.28111286669E+02  0.49215952551E+02  0.00000000000E+00 0.  1.
         11    1    3    3    0    0  0.11723163024E+02 -0.38659190319E+02 -0.12369070264E+02  0.42248780415E+02  0.00000000000E+00 0. -1.
<mgrwt>
<rscale>  0 0.90099834E+02</rscale>
<asrwt>0</asrwt>
<pdfrwt beam="2">  1        3 0.58248089E-02 0.90099834E+02</pdfrwt>
<pdfrwt beam="1">  1       -3 0.82466884E-02 0.90099834E+02</pdfrwt>
<totfact> 0.36476910E+04</totfact>
</mgrwt>
</event>
<event>
 5    1  0.5681061E+000  0.8039297E+02  0.7546771E-02  0.1327940E+00
          1   -1    0    0  501    0  0.00000000000E+00  0.00000000000E+00  0.10617874806E+02  0.10617874806E+02  0.00000000000E+00 0. -1.
         -1   -1    0    0    0  501 -0.00000000000E+00 -0.00000000000E+00 -0.15217333740E+03  0.15217333740E+03  0.00000000000E+00 0.  1.
         23    2    1    2    0    0  0.00000000000E+00  0.00000000000E+00 -0.14155546259E+03  0.16279121220E+03  0.80392970970E+02 0.  0.
        -11    1    3    3    0    0  0.31326096676E+02 -0.21969621025E+02 -0.95723921009E+02  0.10308762115E+03  0.00000000000E+00 0.  1.
         11    1    3    3    0    0 -0.31326096676E+02  0.21969621025E+02 -0.45831541580E+02  0.59703591052E+02  0.00000000000E+00 0. -1.
<mgrwt>
<rscale>  0 0.80392971E+02</rscale>
<asrwt>0</asrwt>
<pdfrwt beam="1">  1        1 0.16335191E-02 0.80392971E+02</pdfrwt>
<pdfrwt beam="2">  1       -1 0.23411284E-01 0.80392971E+02</pdfrwt>
<totfact> 0.10321012E+05</totfact>
</mgrwt>
</event>
<event>
 5    1  0.5681061E+000  0.9029823E+02  0.7546771E-02  0.1302131E+00
         -1   -1    0    0    0  501 -0.00000000000E+00  0.00000000000E+00  0.20512001870E+03  0.20512001870E+03  0.00000000000E+00 0.  1.
          1   -1    0    0  501    0  0.00000000000E+00 -0.00000000000E+00 -0.99378033416E+01  0.99378033416E+01  0.00000000000E+00 0. -1.
         23    2    1    2    0    0  0.00000000000E+00  0.00000000000E+00  0.19518221536E+03  0.21505782204E+03  0.90298226058E+02 0.  0.
        -11    1    3    3    0    0 -0.39180840458E+02  0.67165318737E+01  0.14857112054E+03  0.15379735992E+03  0.00000000000E+00 0.  1.
         11    1    3    3    0    0  0.39180840458E+02 -0.67165318737E+01  0.46611094818E+02  0.61260462123E+02  0.00000000000E+00 0. -1.
<mgrwt>
<rscale>  0 0.90298226E+02</rscale>
<asrwt>0</asrwt>
<pdfrwt beam="2">  1        1 0.15288930E-02 0.90298226E+02</pdfrwt>
<pdfrwt beam="1">  1       -1 0.31556923E-01 0.90298226E+02</pdfrwt>
<totfact> 0.70679625E+04</totfact>
</mgrwt>
</event>
<event>
 5    1  0.5681061E+000  0.9208193E+02  0.7546771E-02  0.1297887E+00
          2   -1    0    0  501    0  0.00000000000E+00  0.00000000000E+00  0.19009317998E+02  0.19009317998E+02  0.00000000000E+00 0. -1.
         -2   -1    0    0    0  501 -0.00000000000E+00 -0.00000000000E+00 -0.11151217792E+03  0.11151217792E+03  0.00000000000E+00 0.  1.
         23    2    1    2    0    0  0.00000000000E+00  0.00000000000E+00 -0.92502859918E+02  0.13052149591E+03  0.92081929837E+02 0.  0.
        -11    1    3    3    0    0  0.42414386396E+01  0.45738165433E+02 -0.41813913450E+02  0.62115802635E+02  0.00000000000E+00 0.  1.
         11    1    3    3    0    0 -0.42414386396E+01 -0.45738165433E+02 -0.50688946468E+02  0.68405693279E+02  0.00000000000E+00 0. -1.
<mgrwt>
<rscale>  0 0.92081930E+02</rscale>
<asrwt>0</asrwt>
<pdfrwt beam="1">  1        2 0.29245104E-02 0.92081930E+02</pdfrwt>
<pdfrwt beam="2">  1       -2 0.17155720E-01 0.92081930E+02</pdfrwt>
<totfact> 0.75310137E+04</totfact>
</mgrwt>
</event>
<event>
 5    1  0.5681061E+000  0.9013832E+02  0.7546771E-02  0.1302517E+00
          4   -1    0    0  501    0  0.00000000000E+00  0.00000000000E+00  0.66687587049E+02  0.66687587049E+02  0.00000000000E+00 0. -1.
         -4   -1    0    0    0  501 -0.00000000000E+00 -0.00000000000E+00 -0.30458881974E+02  0.30458881974E+02  0.00000000000E+00 0.  1.
         23    2    1    2    0    0  0.00000000000E+00  0.00000000000E+00  0.36228705075E+02  0.97146469022E+02  0.90138323548E+02 0.  0.
        -11    1    3    3    0    0 -0.29706559963E+02 -0.28845624262E+02 -0.10647193360E+01  0.41420808432E+02  0.00000000000E+00 0.  1.
         11    1    3    3    0    0  0.29706559963E+02  0.28845624262E+02  0.37293424411E+02  0.55725660590E+02  0.00000000000E+00 0. -1.
<mgrwt>
<rscale>  0 0.90138324E+02</rscale>
<asrwt>0</asrwt>
<pdfrwt beam="1">  1        4 0.10259629E-01 0.90138324E+02</pdfrwt>
<pdfrwt beam="2">  1       -4 0.46859819E-02 0.90138324E+02</pdfrwt>
<totfact> 0.27474494E+04</totfact>
</mgrwt>
</event>
<event>
 5    1  0.5681061E+000  0.9169717E+02  0.7546771E-02  0.1298793E+00
         -3   -1    0    0    0  501 -0.00000000000E+00  0.00000000000E+00  0.25140601497E+02  0.25140601497E+02  0.00000000000E+00 0.  1.
          3   -1    0    0  501    0  0.00000000000E+00 -0.00000000000E+00 -0.83613471251E+02  0.83613471251E+02  0.00000000000E+00 0. -1.
         23    2    1    2    0    0  0.00000000000E+00  0.00000000000E+00 -0.58472869753E+02  0.10875407275E+03  0.91697174668E+02 0.  0.
        -11    1    3    3    0    0 -0.70627481368E+01  0.42162124863E+02 -0.48888707345E+02  0.64943305198E+02  0.00000000000E+00 0. -1.
         11    1    3    3    0    0  0.70627481368E+01 -0.42162124863E+02 -0.95841624081E+01  0.43810767549E+02  0.00000000000E+00 0.  1.
<mgrwt>
<rscale>  0 0.91697175E+02</rscale>
<asrwt>0</asrwt>
<pdfrwt beam="2">  1        3 0.12863611E-01 0.91697175E+02</pdfrwt>
<pdfrwt beam="1">  1       -3 0.38677849E-02 0.91697175E+02</pdfrwt>
<totfact> 0.33510318E+04</totfact>
</mgrwt>
</event>
<event>
 5    1  0.5681061E+000  0.6595706E+02  0.7546771E-02  0.1374407E+00
          1   -1    0    0  501    0  0.00000000000E+00  0.00000000000E+00  0.12955944098E+02  0.12955944098E+02  0.00000000000E+00 0. -1.
         -1   -1    0    0    0  501 -0.00000000000E+00 -0.00000000000E+00 -0.83944741801E+02  0.83944741801E+02  0.00000000000E+00 0.  1.
         23    2    1    2    0    0  0.00000000000E+00  0.00000000000E+00 -0.70988797703E+02  0.96900685900E+02  0.65957058216E+02 0.  0.
        -11    1    3    3    0    0 -0.53367721343E+01 -0.25665225655E+02 -0.64891991037E+02  0.69986823370E+02  0.00000000000E+00 0.  1.
         11    1    3    3    0    0  0.53367721343E+01  0.25665225655E+02 -0.60968066664E+01  0.26913862529E+02  0.00000000000E+00 0. -1.
<mgrwt>
<rscale>  0 0.65957058E+02</rscale>
<asrwt>0</asrwt>
<pdfrwt beam="1">  1        1 0.19932221E-02 0.65957058E+02</pdfrwt>
<pdfrwt beam="2">  1       -1 0.12914576E-01 0.65957058E+02</pdfrwt>
<totfact> 0.19147689E+05</totfact>
</mgrwt>
</event>
<event>
 5    1  0.5681061E+000  0.9192686E+02  0.7546771E-02  0.1298251E+00
         -3   -1    0    0    0  501 -0.00000000000E+00  0.00000000000E+00  0.24842512376E+02  0.24842512376E+02  0.00000000000E+00 0.  1.
          3   -1    0    0  501    0  0.00000000000E+00 -0.00000000000E+00 -0.85041189028E+02  0.85041189028E+02  0.00000000000E+00 0. -1.
         23    2    1    2    0    0  0.00000000000E+00  0.00000000000E+00 -0.60198676652E+02  0.10988370140E+03  0.91926857683E+02 0.  0.
        -11    1    3    3    0    0  0.10984092818E+02 -0.29984256186E+02  0.94179570262E+01  0.33292699329E+02  0.00000000000E+00 0.  1.
         11    1    3    3    0    0 -0.10984092818E+02  0.29984256186E+02 -0.69616633678E+02  0.76591002074E+02  0.00000000000E+00 0. -1.
<mgrwt>
<rscale>  0 0.91926858E+02</rscale>
<asrwt>0</asrwt>
<pdfrwt beam="2">  1        3 0.13083260E-01 0.91926858E+02</pdfrwt>
<pdfrwt beam="1">  1       -3 0.38219250E-02 0.91926858E+02</pdfrwt>
<totfact> 0.33203735E+04</totfact>
</mgrwt>
</event>
<event>
 5    1  0.5681061E+000  0.8882274E+02  0.7546771E-02  0.1305728E+00
          3   -1    0    0  501    0  0.00000000000E+00  0.00000000000E+00  0.75474706382E+01  0.75474706382E+01  0.00000000000E+00 0. -1.
         -3   -1    0    0    0  501 -0.00000000000E+00 -0.00000000000E+00 -0.26132857139E+03  0.26132857139E+03  0.00000000000E+00 0.  1.
         23    2    1    2    0    0  0.00000000000E+00  0.00000000000E+00 -0.25378110075E+03  0.26887604203E+03  0.88822738519E+02 0.  0.
        -11    1    3    3    0    0 -0.30013643058E+02  0.31819821117E+02 -0.15015204713E+03  0.15639359655E+03  0.00000000000E+00 0. -1.
         11    1    3    3    0    0  0.30013643058E+02 -0.31819821117E+02 -0.10362905362E+03  0.11248244548E+03  0.00000000000E+00 0.  1.
<mgrwt>
<rscale>  0 0.88822739E+02</rscale>
<asrwt>0</asrwt>
<pdfrwt beam="1">  1        3 0.11611494E-02 0.88822739E+02</pdfrwt>
<pdfrwt beam="2">  1       -3 0.40204391E-01 0.88822739E+02</pdfrwt>
<totfact> 0.27118035E+04</totfact>
</mgrwt>
</event>
<event>
 5    1  0.5681061E+000  0.9008027E+02  0.7546771E-02  0.1302657E+00
          2   -1    0    0  501    0  0.00000000000E+00  0.00000000000E+00  0.91006221094E+02  0.91006221094E+02  0.00000000000E+00 0. -1.
         -2   -1    0    0    0  501 -0.00000000000E+00 -0.00000000000E+00 -0.22290936175E+02  0.22290936175E+02  0.00000000000E+00 0.  1.
         23    2    1    2    0    0  0.00000000000E+00  0.00000000000E+00  0.68715284919E+02  0.11329715727E+03  0.90080272334E+02 0.  0.
        -11    1    3    3    0    0  0.85285424084E+01 -0.16058176592E+02  0.86185087751E+02  0.88082179933E+02  0.00000000000E+00 0. -1.
         11    1    3    3    0    0 -0.85285424084E+01  0.16058176592E+02 -0.17469802832E+02  0.25214977336E+02  0.00000000000E+00 0.  1.
<mgrwt>
<rscale>  0 0.90080272E+02</rscale>
<asrwt>0</asrwt>
<pdfrwt beam="1">  1        2 0.14000957E-01 0.90080272E+02</pdfrwt>
<pdfrwt beam="2">  1       -2 0.34293748E-02 0.90080272E+02</pdfrwt>
<totfact> 0.12329866E+05</totfact>
</mgrwt>
</event>
<event>
 5    1  0.5681061E+000  0.9451883E+02  0.7546771E-02  0.1292263E+00
          1   -1    0    0  501    0  0.00000000000E+00  0.00000000000E+00  0.27767844522E+02  0.27767844522E+02  0.00000000000E+00 0. -1.
         -1   -1    0    0    0  501 -0.00000000000E+00 -0.00000000000E+00 -0.80433042653E+02  0.80433042653E+02  0.00000000000E+00 0.  1.
         23    2    1    2    0    0  0.00000000000E+00  0.00000000000E+00 -0.52665198130E+02  0.10820088718E+03  0.94518828238E+02 0.  0.
        -11    1    3    3    0    0  0.55753411500E+01  0.13653010762E+02 -0.77731493903E+02  0.79118103341E+02  0.00000000000E+00 0.  1.
         11    1    3    3    0    0 -0.55753411500E+01 -0.13653010762E+02  0.25066295773E+02  0.29082783835E+02  0.00000000000E+00 0. -1.
<mgrwt>
<rscale>  0 0.94518828E+02</rscale>
<asrwt>0</asrwt>
<pdfrwt beam="1">  1        1 0.42719762E-02 0.94518828E+02</pdfrwt>
<pdfrwt beam="2">  1       -1 0.12374314E-01 0.94518828E+02</pdfrwt>
<totfact> 0.77117863E+04</totfact>
</mgrwt>
</event>
<event>
 5    1  0.5681061E+000  0.9027949E+02  0.7546771E-02  0.1302176E+00
         -2   -1    0    0    0  501 -0.00000000000E+00  0.00000000000E+00  0.13666614819E+02  0.13666614819E+02  0.00000000000E+00 0. -1.
          2   -1    0    0  501    0  0.00000000000E+00 -0.00000000000E+00 -0.14909299085E+03  0.14909299085E+03  0.00000000000E+00 0.  1.
         23    2    1    2    0    0  0.00000000000E+00  0.00000000000E+00 -0.13542637603E+03  0.16275960567E+03  0.90279487773E+02 0.  0.
        -11    1    3    3    0    0 -0.10281550376E+02 -0.42418138729E+02 -0.88472319142E+02  0.98652724371E+02  0.00000000000E+00 0.  1.
         11    1    3    3    0    0  0.10281550376E+02  0.42418138729E+02 -0.46954056888E+02  0.64106881297E+02  0.00000000000E+00 0. -1.
<mgrwt>
<rscale>  0 0.90279488E+02</rscale>
<asrwt>0</asrwt>
<pdfrwt beam="2">  1        2 0.22937384E-01 0.90279488E+02</pdfrwt>
<pdfrwt beam="1">  1       -2 0.21025561E-02 0.90279488E+02</pdfrwt>
<totfact> 0.14331389E+05</totfact>
</mgrwt>
</event>
<event>
 5    1  0.5681061E+000  0.9165114E+02  0.7546771E-02  0.1298902E+00
         -2   -1    0    0    0  501 -0.00000000000E+00  0.00000000000E+00  0.51505049675E+01  0.51505049675E+01  0.00000000000E+00 0.  1.
          2   -1    0    0  501    0  0.00000000000E+00 -0.00000000000E+00 -0.40772370575E+03  0.40772370575E+03  0.00000000000E+00 0. -1.
         23    2    1    2    0    0  0.00000000000E+00  0.00000000000E+00 -0.40257320078E+03  0.41287421072E+03  0.91651142313E+02 0.  0.
        -11    1    3    3    0    0 -0.39015493993E+02  0.20873966337E+02 -0.25497780370E+03  0.25878873937E+03  0.00000000000E+00 0.  1.
         11    1    3    3    0    0  0.39015493993E+02 -0.20873966337E+02 -0.14759539708E+03  0.15408547135E+03  0.00000000000E+00 0. -1.
<mgrwt>
<rscale>  0 0.91651142E+02</rscale>
<asrwt>0</asrwt>
<pdfrwt beam="2">  1        2 0.62726737E-01 0.91651142E+02</pdfrwt>
<pdfrwt beam="1">  1       -2 0.79238522E-03 0.91651142E+02</pdfrwt>
<totfact> 0.19823957E+05</totfact>
</mgrwt>
</event>
<event>
 5    1  0.5681061E+000  0.8620347E+02  0.7546771E-02  0.1312315E+00
          1   -1    0    0  501    0  0.00000000000E+00  0.00000000000E+00  0.57730835227E+01  0.57730835227E+01  0.00000000000E+00 0. -1.
         -1   -1    0    0    0  501 -0.00000000000E+00 -0.00000000000E+00 -0.32179678528E+03  0.32179678528E+03  0.00000000000E+00 0.  1.
         23    2    1    2    0    0  0.00000000000E+00  0.00000000000E+00 -0.31602370176E+03  0.32756986880E+03  0.86203473683E+02 0.  0.
        -11    1    3    3    0    0 -0.31971286658E+02 -0.22858864514E+02 -0.22524742489E+03  0.22865059212E+03  0.00000000000E+00 0.  1.
         11    1    3    3    0    0  0.31971286658E+02  0.22858864514E+02 -0.90776276862E+02  0.98919276677E+02  0.00000000000E+00 0. -1.
<mgrwt>
<rscale>  0 0.86203474E+02</rscale>
<asrwt>0</asrwt>
<pdfrwt beam="1">  1        1 0.88816650E-03 0.86203474E+02</pdfrwt>
<pdfrwt beam="2">  1       -1 0.49507209E-01 0.86203474E+02</pdfrwt>
<totfact> 0.68171864E+04</totfact>
</mgrwt>
</event>
<event>
 5    1  0.5681061E+000  0.9165457E+02  0.7546771E-02  0.1298894E+00
          1   -1    0    0  501    0  0.00000000000E+00  0.00000000000E+00  0.13834053421E+03  0.13834053421E+03  0.00000000000E+00 0.  1.
         -1   -1    0    0    0  501 -0.00000000000E+00 -0.00000000000E+00 -0.15180946533E+02  0.15180946533E+02  0.00000000000E+00 0. -1.
         23    2    1    2    0    0  0.00000000000E+00  0.00000000000E+00  0.12315958768E+03  0.15352148074E+03  0.91654574424E+02 0.  0.
        -11    1    3    3    0    0  0.25259420258E+02 -0.51273545845E+00  0.12562177875E+03  0.12813716286E+03  0.00000000000E+00 0.  1.
         11    1    3    3    0    0 -0.25259420258E+02  0.51273545845E+00 -0.24621910753E+01  0.25384317881E+02  0.00000000000E+00 0. -1.
<mgrwt>
<rscale>  0 0.91654574E+02</rscale>
<asrwt>0</asrwt>
<pdfrwt beam="1">  1        1 0.21283158E-01 0.91654574E+02</pdfrwt>
<pdfrwt beam="2">  1       -1 0.23355303E-02 0.91654574E+02</pdfrwt>
<totfact> 0.10894007E+05</totfact>
</mgrwt>
</event>
<event>
 5    1  0.5681061E+000  0.9036977E+02  0.7546771E-02  0.1301959E+00
          1   -1    0    0  501    0  0.00000000000E+00  0.00000000000E+00  0.27447588379E+03  0.27447588379E+03  0.00000000000E+00 0. -1.
         -1   -1    0    0    0  501 -0.00000000000E+00 -0.00000000000E+00 -0.74384445473E+01  0.74384445473E+01  0.00000000000E+00 0.  1.
         23    2    1    2    0    0  0.00000000000E+00  0.00000000000E+00  0.26703743924E+03  0.28191432833E+03  0.90369765765E+02 0.  0.
        -11    1    3    3    0    0 -0.15751906355E+02  0.38851692231E+02  0.80937895131E+02  0.91151080143E+02  0.00000000000E+00 0. -1.
         11    1    3    3    0    0  0.15751906355E+02 -0.38851692231E+02  0.18609954411E+03  0.19076324819E+03  0.00000000000E+00 0.  1.
<mgrwt>
<rscale>  0 0.90369766E+02</rscale>
<asrwt>0</asrwt>
<pdfrwt beam="1">  1        1 0.42227051E-01 0.90369766E+02</pdfrwt>
<pdfrwt beam="2">  1       -1 0.11443763E-02 0.90369766E+02</pdfrwt>
<totfact> 0.12896525E+05</totfact>
</mgrwt>
</event>
<event>
 5    1  0.5681061E+000  0.7895874E+02  0.7546771E-02  0.1332033E+00
         -3   -1    0    0    0  501 -0.00000000000E+00  0.00000000000E+00  0.92013772219E+02  0.92013772219E+02  0.00000000000E+00 0.  1.
          3   -1    0    0  501    0  0.00000000000E+00 -0.00000000000E+00 -0.16938994914E+02  0.16938994914E+02  0.00000000000E+00 0. -1.
         23    2    1    2    0    0  0.00000000000E+00  0.00000000000E+00  0.75074777304E+02  0.10895276713E+03  0.78958744156E+02 0.  0.
        -11    1    3    3    0    0  0.31183085300E+02 -0.12249845098E+02  0.87190085409E+01  0.34618847810E+02  0.00000000000E+00 0. -1.
         11    1    3    3    0    0 -0.31183085300E+02  0.12249845098E+02  0.66355768763E+02  0.74333919323E+02  0.00000000000E+00 0.  1.
<mgrwt>
<rscale>  0 0.78958744E+02</rscale>
<asrwt>0</asrwt>
<pdfrwt beam="2">  1        3 0.26059993E-02 0.78958744E+02</pdfrwt>
<pdfrwt beam="1">  1       -3 0.14155965E-01 0.78958744E+02</pdfrwt>
<totfact> 0.50120044E+04</totfact>
</mgrwt>
</event>
<event>
 5    1  0.5681061E+000  0.9154206E+02  0.7546771E-02  0.1299160E+00
         -2   -1    0    0    0  501 -0.00000000000E+00  0.00000000000E+00  0.98143713561E+01  0.98143713561E+01  0.00000000000E+00 0. -1.
          2   -1    0    0  501    0  0.00000000000E+00 -0.00000000000E+00 -0.21346116810E+03  0.21346116810E+03  0.00000000000E+00 0.  1.
         23    2    1    2    0    0  0.00000000000E+00  0.00000000000E+00 -0.20364679674E+03  0.22327553945E+03  0.91542059706E+02 0.  0.
        -11    1    3    3    0    0 -0.35464052226E+02 -0.21247865578E+01 -0.17220901251E+03  0.17583559852E+03  0.00000000000E+00 0.  1.
         11    1    3    3    0    0  0.35464052226E+02  0.21247865578E+01 -0.31437784234E+02  0.47439940933E+02  0.00000000000E+00 0. -1.
<mgrwt>
<rscale>  0 0.91542060E+02</rscale>
<asrwt>0</asrwt>
<pdfrwt beam="2">  1        2 0.32840180E-01 0.91542060E+02</pdfrwt>
<pdfrwt beam="1">  1       -2 0.15099033E-02 0.91542060E+02</pdfrwt>
<totfact> 0.15668913E+05</totfact>
</mgrwt>
</event>
<event>
 5    1  0.5681061E+000  0.8660826E+02  0.7546771E-02  0.1311280E+00
         -4   -1    0    0    0  501 -0.00000000000E+00  0.00000000000E+00  0.12778851659E+02  0.12778851659E+02  0.00000000000E+00 0.  1.
          4   -1    0    0  501    0  0.00000000000E+00 -0.00000000000E+00 -0.14674616830E+03  0.14674616830E+03  0.00000000000E+00 0. -1.
         23    2    1    2    0    0  0.00000000000E+00  0.00000000000E+00 -0.13396731664E+03  0.15952501996E+03  0.86608256333E+02 0.  0.
        -11    1    3    3    0    0  0.20696115134E+02  0.38017018263E+02 -0.69331400248E+02  0.81734117232E+02  0.00000000000E+00 0. -1.
         11    1    3    3    0    0 -0.20696115134E+02 -0.38017018263E+02 -0.64635916395E+02  0.77790902730E+02  0.00000000000E+00 0.  1.
<mgrwt>
<rscale>  0 0.86608256E+02</rscale>
<asrwt>0</asrwt>
<pdfrwt beam="2">  1        4 0.22576334E-01 0.86608256E+02</pdfrwt>
<pdfrwt beam="1">  1       -4 0.19659771E-02 0.86608256E+02</pdfrwt>
<totfact> 0.26623152E+04</totfact>
</mgrwt>
</event>
<event>
 5    1  0.5681061E+000  0.8985185E+02  0.7546771E-02  0.1303211E+00
         -1   -1    0    0    0  501 -0.00000000000E+00  0.00000000000E+00  0.56582809771E+01  0.56582809771E+01  0.00000000000E+00 0.  1.
          1   -1    0    0  501    0  0.00000000000E+00 -0.00000000000E+00 -0.35670527094E+03  0.35670527094E+03  0.00000000000E+00 0. -1.
         23    2    1    2    0    0  0.00000000000E+00  0.00000000000E+00 -0.35104698996E+03  0.36236355192E+03  0.89851848038E+02 0.  0.
        -11    1    3    3    0    0  0.36762533850E+02  0.24319812348E+02 -0.21054279273E+03  0.21510742604E+03  0.00000000000E+00 0. -1.
         11    1    3    3    0    0 -0.36762533850E+02 -0.24319812348E+02 -0.14050419723E+03  0.14725612587E+03  0.00000000000E+00 0.  1.
<mgrwt>
<rscale>  0 0.89851848E+02</rscale>
<asrwt>0</asrwt>
<pdfrwt beam="2">  1        1 0.54877729E-01 0.89851848E+02</pdfrwt>
<pdfrwt beam="1">  1       -1 0.87050484E-03 0.89851848E+02</pdfrwt>
<totfact> 0.13752073E+05</totfact>
</mgrwt>
</event>
<event>
 5    1  0.5681061E+000  0.9220783E+02  0.7546771E-02  0.1297591E+00
         -1   -1    0    0    0  501 -0.00000000000E+00  0.00000000000E+00  0.10983530781E+02  0.10983530781E+02  0.00000000000E+00 0.  1.
          1   -1    0    0  501    0  0.00000000000E+00 -0.00000000000E+00 -0.19352348836E+03  0.19352348836E+03  0.00000000000E+00 0. -1.
         23    2    1    2    0    0  0.00000000000E+00  0.00000000000E+00 -0.18253995758E+03  0.20450701914E+03  0.92207834618E+02 0.  0.
        -11    1    3    3    0    0  0.11188362684E+02 -0.31704834830E+02 -0.21302773486E+02  0.39801811132E+02  0.00000000000E+00 0.  1.
         11    1    3    3    0    0 -0.11188362684E+02  0.31704834830E+02 -0.16123718409E+03  0.16470520801E+03  0.00000000000E+00 0. -1.
<mgrwt>
<rscale>  0 0.92207835E+02</rscale>
<asrwt>0</asrwt>
<pdfrwt beam="2">  1        1 0.29772843E-01 0.92207835E+02</pdfrwt>
<pdfrwt beam="1">  1       -1 0.16897740E-02 0.92207835E+02</pdfrwt>
<totfact> 0.11415198E+05</totfact>
</mgrwt>
</event>
<event>
 5    1  0.5681061E+000  0.9242871E+02  0.7546771E-02  0.1297075E+00
         -1   -1    0    0    0  501 -0.00000000000E+00  0.00000000000E+00  0.12140559731E+03  0.12140559731E+03  0.00000000000E+00 0.  1.
          1   -1    0    0  501    0  0.00000000000E+00 -0.00000000000E+00 -0.17591996415E+02  0.17591996415E+02  0.00000000000E+00 0. -1.
         23    2    1    2    0    0  0.00000000000E+00  0.00000000000E+00  0.10381360089E+03  0.13899759372E+03  0.92428714858E+02 0.  0.
        -11    1    3    3    0    0  0.92442908730E+01  0.45034193995E+02  0.58997395770E+02  0.74794573668E+02  0.00000000000E+00 0.  1.
         11    1    3    3    0    0 -0.92442908730E+01 -0.45034193995E+02  0.44816205123E+02  0.64203020054E+02  0.00000000000E+00 0. -1.
<mgrwt>
<rscale>  0 0.92428715E+02</rscale>
<asrwt>0</asrwt>
<pdfrwt beam="2">  1        1 0.27064611E-02 0.92428715E+02</pdfrwt>
<pdfrwt beam="1">  1       -1 0.18677784E-01 0.92428715E+02</pdfrwt>
<totfact> 0.75625638E+04</totfact>
</mgrwt>
</event>
<event>
 5    1  0.5681061E+000  0.9223386E+02  0.7546771E-02  0.1297530E+00
          2   -1    0    0  501    0  0.00000000000E+00  0.00000000000E+00  0.10043844781E+03  0.10043844781E+03  0.00000000000E+00 0. -1.
         -2   -1    0    0    0  501 -0.00000000000E+00 -0.00000000000E+00 -0.21174873197E+02  0.21174873197E+02  0.00000000000E+00 0.  1.
         23    2    1    2    0    0  0.00000000000E+00  0.00000000000E+00  0.79263574612E+02  0.12161332101E+03  0.92233863552E+02 0.  0.
        -11    1    3    3    0    0  0.21020737370E+02 -0.40950193236E+02  0.35906689719E+02  0.58378764052E+02  0.00000000000E+00 0. -1.
         11    1    3    3    0    0 -0.21020737370E+02  0.40950193236E+02  0.43356884893E+02  0.63234556954E+02  0.00000000000E+00 0.  1.
<mgrwt>
<rscale>  0 0.92233864E+02</rscale>
<asrwt>0</asrwt>
<pdfrwt beam="1">  1        2 0.15452069E-01 0.92233864E+02</pdfrwt>
<pdfrwt beam="2">  1       -2 0.32576729E-02 0.92233864E+02</pdfrwt>
<totfact> 0.11899704E+05</totfact>
</mgrwt>
</event>
<event>
 5    1  0.5681061E+000  0.9020419E+02  0.7546771E-02  0.1302358E+00
         -1   -1    0    0    0  501 -0.00000000000E+00  0.00000000000E+00  0.35333128949E+02  0.35333128949E+02  0.00000000000E+00 0.  1.
          1   -1    0    0  501    0  0.00000000000E+00 -0.00000000000E+00 -0.57572005987E+02  0.57572005987E+02  0.00000000000E+00 0. -1.
         23    2    1    2    0    0  0.00000000000E+00  0.00000000000E+00 -0.22238877038E+02  0.92905134936E+02  0.90204193059E+02 0.  0.
        -11    1    3    3    0    0  0.16997513375E+02 -0.41771716879E+02 -0.11776764099E+02  0.46609912729E+02  0.00000000000E+00 0.  1.
         11    1    3    3    0    0 -0.16997513375E+02  0.41771716879E+02 -0.10462112939E+02  0.46295222206E+02  0.00000000000E+00 0. -1.
<mgrwt>
<rscale>  0 0.90204193E+02</rscale>
<asrwt>0</asrwt>
<pdfrwt beam="2">  1        1 0.88572315E-02 0.90204193E+02</pdfrwt>
<pdfrwt beam="1">  1       -1 0.54358661E-02 0.90204193E+02</pdfrwt>
<totfact> 0.98663994E+04</totfact>
</mgrwt>
</event>
<event>
 5    1  0.5681061E+000  0.8604129E+02  0.7546771E-02  0.1312732E+00
          1   -1    0    0  501    0  0.00000000000E+00  0.00000000000E+00  0.16137882644E+03  0.16137882644E+03  0.00000000000E+00 0. -1.
         -1   -1    0    0    0  501 -0.00000000000E+00 -0.00000000000E+00 -0.11468517548E+02  0.11468517548E+02  0.00000000000E+00 0.  1.
         23    2    1    2    0    0  0.00000000000E+00  0.00000000000E+00  0.14991030889E+03  0.17284734399E+03  0.86041290156E+02 0.  0.
        -11    1    3    3    0    0  0.22525970251E+01  0.39063759689E+02  0.39034546420E+02  0.55269768668E+02  0.00000000000E+00 0.  1.
         11    1    3    3    0    0 -0.22525970251E+01 -0.39063759689E+02  0.11087576247E+03  0.11757757532E+03  0.00000000000E+00 0. -1.
<mgrwt>
<rscale>  0 0.86041290E+02</rscale>
<asrwt>0</asrwt>
<pdfrwt beam="1">  1        1 0.24827510E-01 0.86041290E+02</pdfrwt>
<pdfrwt beam="2">  1       -1 0.17643874E-02 0.86041290E+02</pdfrwt>
<totfact> 0.13278529E+05</totfact>
</mgrwt>
</event>
<event>
 5    1  0.5681061E+000  0.9108872E+02  0.7546771E-02  0.1300236E+00
          3   -1    0    0  501    0  0.00000000000E+00  0.00000000000E+00  0.41810219850E+03  0.41810219850E+03  0.00000000000E+00 0. -1.
         -3   -1    0    0    0  501 -0.00000000000E+00 -0.00000000000E+00 -0.49611998684E+01  0.49611998684E+01  0.00000000000E+00 0.  1.
         23    2    1    2    0    0  0.00000000000E+00  0.00000000000E+00  0.41314099864E+03  0.42306339837E+03  0.91088716583E+02 0.  0.
        -11    1    3    3    0    0  0.29450198002E+02 -0.34061138011E+02  0.17479258133E+03  0.18049909078E+03  0.00000000000E+00 0.  1.
         11    1    3    3    0    0 -0.29450198002E+02  0.34061138011E+02  0.23834841731E+03  0.24256430760E+03  0.00000000000E+00 0. -1.
<mgrwt>
<rscale>  0 0.91088717E+02</rscale>
<asrwt>0</asrwt>
<pdfrwt beam="1">  1        3 0.64323387E-01 0.91088717E+02</pdfrwt>
<pdfrwt beam="2">  1       -3 0.76326185E-03 0.91088717E+02</pdfrwt>
<totfact> 0.19988512E+04</totfact>
</mgrwt>
</event>
<event>
 5    1  0.5681061E+000  0.9294546E+02  0.7546771E-02  0.1295872E+00
          1   -1    0    0  501    0  0.00000000000E+00  0.00000000000E+00  0.14700324641E+03  0.14700324641E+03  0.00000000000E+00 0. -1.
         -1   -1    0    0    0  501 -0.00000000000E+00 -0.00000000000E+00 -0.14691613375E+02  0.14691613375E+02  0.00000000000E+00 0.  1.
         23    2    1    2    0    0  0.00000000000E+00  0.00000000000E+00  0.13231163304E+03  0.16169485979E+03  0.92945464894E+02 0.  0.
        -11    1    3    3    0    0 -0.13379864301E+02  0.43559414073E+02  0.50280722605E+02  0.67857161662E+02  0.00000000000E+00 0.  1.
         11    1    3    3    0    0  0.13379864301E+02 -0.43559414073E+02  0.82030910432E+02  0.93837698125E+02  0.00000000000E+00 0. -1.
<mgrwt>
<rscale>  0 0.92945465E+02</rscale>
<asrwt>0</asrwt>
<pdfrwt beam="1">  1        1 0.22615883E-01 0.92945465E+02</pdfrwt>
<pdfrwt beam="2">  1       -1 0.22602483E-02 0.92945465E+02</pdfrwt>
<totfact> 0.10606222E+05</totfact>
</mgrwt>
</event>
<event>
 5    1  0.5681061E+000  0.9052639E+02  0.7546771E-02  0.1301582E+00
         -1   -1    0    0    0  501 -0.00000000000E+00  0.00000000000E+00  0.50622189143E+02  0.50622189143E+02  0.00000000000E+00 0.  1.
          1   -1    0    0  501    0  0.00000000000E+00 -0.00000000000E+00 -0.40471513835E+02  0.40471513835E+02  0.00000000000E+00 0. -1.
         23    2    1    2    0    0  0.00000000000E+00  0.00000000000E+00  0.10150675308E+02  0.91093702978E+02  0.90526385728E+02 0.  0.
        -11    1    3    3    0    0 -0.21007582180E+02 -0.24585629116E+02  0.36943746891E+02  0.49097984709E+02  0.00000000000E+00 0.  1.
         11    1    3    3    0    0  0.21007582180E+02  0.24585629116E+02 -0.26793071583E+02  0.41995718269E+02  0.00000000000E+00 0. -1.
<mgrwt>
<rscale>  0 0.90526386E+02</rscale>
<asrwt>0</asrwt>
<pdfrwt beam="2">  1        1 0.62263868E-02 0.90526386E+02</pdfrwt>
<pdfrwt beam="1">  1       -1 0.77880290E-02 0.90526386E+02</pdfrwt>
<totfact> 0.92677453E+04</totfact>
</mgrwt>
</event>
<event>
 5    1  0.5681061E+000  0.9095829E+02  0.7546771E-02  0.1300548E+00
         -2   -1    0    0    0  501 -0.00000000000E+00  0.00000000000E+00  0.85434235735E+02  0.85434235735E+02  0.00000000000E+00 0.  1.
          2   -1    0    0  501    0  0.00000000000E+00 -0.00000000000E+00 -0.24209879303E+02  0.24209879303E+02  0.00000000000E+00 0. -1.
         23    2    1    2    0    0  0.00000000000E+00  0.00000000000E+00  0.61224356432E+02  0.10964411504E+03  0.90958287924E+02 0.  0.
        -11    1    3    3    0    0 -0.17625056196E+01  0.33660108067E+02 -0.61928936044E+01  0.34270413367E+02  0.00000000000E+00 0. -1.
         11    1    3    3    0    0  0.17625056196E+01 -0.33660108067E+02  0.67417250037E+02  0.75373701672E+02  0.00000000000E+00 0.  1.
<mgrwt>
<rscale>  0 0.90958288E+02</rscale>
<asrwt>0</asrwt>
<pdfrwt beam="2">  1        2 0.37245969E-02 0.90958288E+02</pdfrwt>
<pdfrwt beam="1">  1       -2 0.13143728E-01 0.90958288E+02</pdfrwt>
<totfact> 0.84029183E+04</totfact>
</mgrwt>
</event>
<event>
 5    1  0.5681061E+000  0.9085521E+02  0.7546771E-02  0.1300794E+00
         -1   -1    0    0    0  501 -0.00000000000E+00  0.00000000000E+00  0.11059574067E+02  0.11059574067E+02  0.00000000000E+00 0.  1.
          1   -1    0    0  501    0  0.00000000000E+00 -0.00000000000E+00 -0.18659556116E+03  0.18659556116E+03  0.00000000000E+00 0. -1.
         23    2    1    2    0    0  0.00000000000E+00  0.00000000000E+00 -0.17553598710E+03  0.19765513523E+03  0.90855212932E+02 0.  0.
        -11    1    3    3    0    0  0.38915164570E+02  0.22509508731E+02 -0.73568918456E+02  0.86217479548E+02  0.00000000000E+00 0. -1.
         11    1    3    3    0    0 -0.38915164570E+02 -0.22509508731E+02 -0.10196706864E+03  0.11143765568E+03  0.00000000000E+00 0.  1.
<mgrwt>
<rscale>  0 0.90855213E+02</rscale>
<asrwt>0</asrwt>
<pdfrwt beam="2">  1        1 0.28707009E-01 0.90855213E+02</pdfrwt>
<pdfrwt beam="1">  1       -1 0.17014730E-02 0.90855213E+02</pdfrwt>
<totfact> 0.11794339E+05</totfact>
</mgrwt>
</event>
<event>
 5    1  0.5681061E+000  0.8764774E+02  0.7546771E-02  0.1308650E+00
          2   -1    0    0  501    0  0.00000000000E+00  0.00000000000E+00  0.14985695880E+02  0.14985695880E+02  0.00000000000E+00 0. -1.
         -2   -1    0    0    0  501 -0.00000000000E+00 -0.00000000000E+00 -0.12815766465E+03  0.12815766465E+03  0.00000000000E+00 0.  1.
         23    2    1    2    0    0  0.00000000000E+00  0.00000000000E+00 -0.11317196877E+03  0.14314336053E+03  0.87647744684E+02 0.  0.
        -11    1    3    3    0    0  0.25796982739E+02 -0.13536375657E+02 -0.11005352113E+03  0.11384417112E+03  0.00000000000E+00 0.  1.
         11    1    3    3    0    0 -0.25796982739E+02  0.13536375657E+02 -0.31184476377E+01  0.29299189410E+02  0.00000000000E+00 0. -1.
<mgrwt>
<rscale>  0 0.87647745E+02</rscale>
<asrwt>0</asrwt>
<pdfrwt beam="1">  1        2 0.23054916E-02 0.87647745E+02</pdfrwt>
<pdfrwt beam="2">  1       -2 0.19716564E-01 0.87647745E+02</pdfrwt>
<totfact> 0.81501971E+04</totfact>
</mgrwt>
</event>
<event>
 5    1  0.5681061E+000  0.1062404E+03  0.7546771E-02  0.1267695E+00
          2   -1    0    0  501    0  0.00000000000E+00  0.00000000000E+00  0.69860822954E+02  0.69860822954E+02  0.00000000000E+00 0. -1.
         -2   -1    0    0    0  501 -0.00000000000E+00 -0.00000000000E+00 -0.40391121937E+02  0.40391121937E+02  0.00000000000E+00 0.  1.
         23    2    1    2    0    0  0.00000000000E+00  0.00000000000E+00  0.29469701017E+02  0.11025194489E+03  0.10624042580E+03 0.  0.
        -11    1    3    3    0    0  0.42349055815E+02  0.23386105301E+02  0.37504249145E+02  0.61212099732E+02  0.00000000000E+00 0. -1.
         11    1    3    3    0    0 -0.42349055815E+02 -0.23386105301E+02 -0.80345481281E+01  0.49039845159E+02  0.00000000000E+00 0.  1.
<mgrwt>
<rscale>  0 0.10624043E+03</rscale>
<asrwt>0</asrwt>
<pdfrwt beam="1">  1        2 0.10747819E-01 0.10624043E+03</pdfrwt>
<pdfrwt beam="2">  1       -2 0.62140188E-02 0.10624043E+03</pdfrwt>
<totfact> 0.71646526E+04</totfact>
</mgrwt>
</event>
<event>
 5    1  0.5681061E+000  0.9066873E+02  0.7546771E-02  0.1301240E+00
          2   -1    0    0  501    0  0.00000000000E+00  0.00000000000E+00  0.52203706444E+02  0.52203706444E+02  0.00000000000E+00 0. -1.
         -2   -1    0    0    0  501 -0.00000000000E+00 -0.00000000000E+00 -0.39368941369E+02  0.39368941369E+02  0.00000000000E+00 0.  1.
         23    2    1    2    0    0  0.00000000000E+00  0.00000000000E+00  0.12834765076E+02  0.91572647813E+02  0.90668730183E+02 0.  0.
        -11    1    3    3    0    0  0.27088665380E+02 -0.16808071055E+01  0.43091704955E+02  0.50926574012E+02  0.00000000000E+00 0. -1.
         11    1    3    3    0    0 -0.27088665380E+02  0.16808071055E+01 -0.30256939880E+02  0.40646073802E+02  0.00000000000E+00 0.  1.
<mgrwt>
<rscale>  0 0.90668730E+02</rscale>
<asrwt>0</asrwt>
<pdfrwt beam="1">  1        2 0.80313395E-02 0.90668730E+02</pdfrwt>
<pdfrwt beam="2">  1       -2 0.60567602E-02 0.90668730E+02</pdfrwt>
<totfact> 0.10386223E+05</totfact>
</mgrwt>
</event>
<event>
 5    1  0.5681061E+000  0.8986211E+02  0.7546771E-02  0.1303186E+00
         -4   -1    0    0    0  501 -0.00000000000E+00  0.00000000000E+00  0.99271775946E+01  0.99271775946E+01  0.00000000000E+00 0.  1.
          4   -1    0    0  501    0  0.00000000000E+00 -0.00000000000E+00 -0.20336087074E+03  0.20336087074E+03  0.00000000000E+00 0. -1.
         23    2    1    2    0    0  0.00000000000E+00  0.00000000000E+00 -0.19343369314E+03  0.21328804833E+03  0.89862105019E+02 0.  0.
        -11    1    3    3    0    0 -0.26574300527E+02  0.31422053350E+02 -0.13952294622E+03  0.14546543028E+03  0.00000000000E+00 0.  1.
         11    1    3    3    0    0  0.26574300527E+02 -0.31422053350E+02 -0.53910746919E+02  0.67822618047E+02  0.00000000000E+00 0. -1.
<mgrwt>
<rscale>  0 0.89862105E+02</rscale>
<asrwt>0</asrwt>
<pdfrwt beam="2">  1        4 0.31286285E-01 0.89862105E+02</pdfrwt>
<pdfrwt beam="1">  1       -4 0.15272583E-02 0.89862105E+02</pdfrwt>
<totfact> 0.21667019E+04</totfact>
</mgrwt>
</event>
<event>
 5    1  0.5681061E+000  0.9061731E+02  0.7546771E-02  0.1301364E+00
         -1   -1    0    0    0  501 -0.00000000000E+00  0.00000000000E+00  0.85941982550E+02  0.85941982550E+02  0.00000000000E+00 0.  1.
          1   -1    0    0  501    0  0.00000000000E+00 -0.00000000000E+00 -0.23886744140E+02  0.23886744140E+02  0.00000000000E+00 0. -1.
         23    2    1    2    0    0  0.00000000000E+00  0.00000000000E+00  0.62055238411E+02  0.10982872669E+03  0.90617308458E+02 0.  0.
        -11    1    3    3    0    0  0.43973311752E+01  0.14082513168E+02  0.82949319982E+02  0.84251073489E+02  0.00000000000E+00 0.  1.
         11    1    3    3    0    0 -0.43973311752E+01 -0.14082513168E+02 -0.20894081571E+02  0.25577653201E+02  0.00000000000E+00 0. -1.
<mgrwt>
<rscale>  0 0.90617308E+02</rscale>
<asrwt>0</asrwt>
<pdfrwt beam="2">  1        1 0.36748838E-02 0.90617308E+02</pdfrwt>
<pdfrwt beam="1">  1       -1 0.13221843E-01 0.90617308E+02</pdfrwt>
<totfact> 0.84947056E+04</totfact>
</mgrwt>
</event>
<event>
 5    1  0.5681061E+000  0.9102733E+02  0.7546771E-02  0.1300383E+00
          3   -1    0    0  501    0  0.00000000000E+00  0.00000000000E+00  0.19027859355E+02  0.19027859355E+02  0.00000000000E+00 0. -1.
         -3   -1    0    0    0  501 -0.00000000000E+00 -0.00000000000E+00 -0.10886634903E+03  0.10886634903E+03  0.00000000000E+00 0.  1.
         23    2    1    2    0    0  0.00000000000E+00  0.00000000000E+00 -0.89838489672E+02  0.12789420838E+03  0.91027327276E+02 0.  0.
        -11    1    3    3    0    0 -0.42170868275E+02  0.70641916346E+01 -0.66830567252E+02  0.79338576076E+02  0.00000000000E+00 0.  1.
         11    1    3    3    0    0  0.42170868275E+02 -0.70641916346E+01 -0.23007922421E+02  0.48555632306E+02  0.00000000000E+00 0. -1.
<mgrwt>
<rscale>  0 0.91027327E+02</rscale>
<asrwt>0</asrwt>
<pdfrwt beam="1">  1        3 0.29273631E-02 0.91027327E+02</pdfrwt>
<pdfrwt beam="2">  1       -3 0.16748669E-01 0.91027327E+02</pdfrwt>
<totfact> 0.32862850E+04</totfact>
</mgrwt>
</event>
<event>
 5    1  0.5681061E+000  0.9116078E+02  0.7546771E-02  0.1300065E+00
          1   -1    0    0  501    0  0.00000000000E+00  0.00000000000E+00  0.10828157474E+02  0.10828157474E+02  0.00000000000E+00 0. -1.
         -1   -1    0    0    0  501 -0.00000000000E+00 -0.00000000000E+00 -0.19186752991E+03  0.19186752991E+03  0.00000000000E+00 0.  1.
         23    2    1    2    0    0  0.00000000000E+00  0.00000000000E+00 -0.18103937243E+03  0.20269568738E+03  0.91160777268E+02 0.  0.
        -11    1    3    3    0    0  0.34090207524E+02  0.26186592206E+02 -0.12421809492E+03  0.13144586325E+03  0.00000000000E+00 0.  1.
         11    1    3    3    0    0 -0.34090207524E+02 -0.26186592206E+02 -0.56821277514E+02  0.71249824131E+02  0.00000000000E+00 0. -1.
<mgrwt>
<rscale>  0 0.91160777E+02</rscale>
<asrwt>0</asrwt>
<pdfrwt beam="1">  1        1 0.16658705E-02 0.91160777E+02</pdfrwt>
<pdfrwt beam="2">  1       -1 0.29518079E-01 0.91160777E+02</pdfrwt>
<totfact> 0.70273787E+04</totfact>
</mgrwt>
</event>
<event>
 5    1  0.5681061E+000  0.9139457E+02  0.7546771E-02  0.1299509E+00
          2   -1    0    0  501    0  0.00000000000E+00  0.00000000000E+00  0.65562810393E+02  0.65562810393E+02  0.00000000000E+00 0.  1.
         -2   -1    0    0    0  501 -0.00000000000E+00 -0.00000000000E+00 -0.31851012679E+02  0.31851012679E+02  0.00000000000E+00 0. -1.
         23    2    1    2    0    0  0.00000000000E+00  0.00000000000E+00  0.33711797715E+02  0.97413823072E+02  0.91394571066E+02 0.  0.
        -11    1    3    3    0    0 -0.32464833778E+02  0.78496223830E+01  0.50097405146E+02  0.60210729992E+02  0.00000000000E+00 0.  1.
         11    1    3    3    0    0  0.32464833778E+02 -0.78496223830E+01 -0.16385607432E+02  0.37203093080E+02  0.00000000000E+00 0. -1.
<mgrwt>
<rscale>  0 0.91394571E+02</rscale>
<asrwt>0</asrwt>
<pdfrwt beam="1">  1        2 0.10086586E-01 0.91394571E+02</pdfrwt>
<pdfrwt beam="2">  1       -2 0.49001558E-02 0.91394571E+02</pdfrwt>
<totfact> 0.10791925E+05</totfact>
</mgrwt>
</event>
<event>
 5    1  0.5681061E+000  0.9062350E+02  0.7546771E-02  0.1301349E+00
         -2   -1    0    0    0  501 -0.00000000000E+00  0.00000000000E+00  0.34255688101E+03  0.34255688101E+03  0.00000000000E+00 0.  1.
          2   -1    0    0  501    0  0.00000000000E+00 -0.00000000000E+00 -0.59936163257E+01  0.59936163257E+01  0.00000000000E+00 0. -1.
         23    2    1    2    0    0  0.00000000000E+00  0.00000000000E+00  0.33656326468E+03  0.34855049733E+03  0.90623496169E+02 0.  0.
        -11    1    3    3    0    0  0.41288065752E+02  0.94394907283E+01  0.10634254507E+03  0.11446634986E+03  0.00000000000E+00 0. -1.
         11    1    3    3    0    0 -0.41288065752E+02 -0.94394907283E+01  0.23022071961E+03  0.23408414747E+03  0.00000000000E+00 0.  1.
<mgrwt>
<rscale>  0 0.90623496E+02</rscale>
<asrwt>0</asrwt>
<pdfrwt beam="2">  1        2 0.92209508E-03 0.90623496E+02</pdfrwt>
<pdfrwt beam="1">  1       -2 0.52701043E-01 0.90623496E+02</pdfrwt>
<totfact> 0.47924555E+04</totfact>
</mgrwt>
</event>
<event>
 5    1  0.5681061E+000  0.9064773E+02  0.7546771E-02  0.1301291E+00
          2   -1    0    0  501    0  0.00000000000E+00  0.00000000000E+00  0.56166951716E+02  0.56166951716E+02  0.00000000000E+00 0. -1.
         -2   -1    0    0    0  501 -0.00000000000E+00 -0.00000000000E+00 -0.36574046695E+02  0.36574046695E+02  0.00000000000E+00 0.  1.
         23    2    1    2    0    0  0.00000000000E+00  0.00000000000E+00  0.19592905020E+02  0.92740998411E+02  0.90647729476E+02 0.  0.
        -11    1    3    3    0    0  0.38812035040E+02 -0.20101159331E+02  0.22065972299E+02  0.48962616392E+02  0.00000000000E+00 0. -1.
         11    1    3    3    0    0 -0.38812035040E+02  0.20101159331E+02 -0.24730672787E+01  0.43778382019E+02  0.00000000000E+00 0.  1.
<mgrwt>
<rscale>  0 0.90647729E+02</rscale>
<asrwt>0</asrwt>
<pdfrwt beam="1">  1        2 0.86410695E-02 0.90647729E+02</pdfrwt>
<pdfrwt beam="2">  1       -2 0.56267764E-02 0.90647729E+02</pdfrwt>
<totfact> 0.10594807E+05</totfact>
</mgrwt>
</event>
<event>
 5    1  0.5681061E+000  0.9352471E+02  0.7546771E-02  0.1294534E+00
         -2   -1    0    0    0  501 -0.00000000000E+00  0.00000000000E+00  0.24682999493E+02  0.24682999493E+02  0.00000000000E+00 0.  1.
          2   -1    0    0  501    0  0.00000000000E+00 -0.00000000000E+00 -0.88592063779E+02  0.88592063779E+02  0.00000000000E+00 0. -1.
         23    2    1    2    0    0  0.00000000000E+00  0.00000000000E+00 -0.63909064286E+02  0.11327506327E+03  0.93524710431E+02 0.  0.
        -11    1    3    3    0    0 -0.26764307953E+02  0.14592806154E+01  0.14455241723E+02  0.30453434837E+02  0.00000000000E+00 0.  1.
         11    1    3    3    0    0  0.26764307953E+02 -0.14592806154E+01 -0.78364306010E+02  0.82821628434E+02  0.00000000000E+00 0. -1.
<mgrwt>
<rscale>  0 0.93524710E+02</rscale>
<asrwt>0</asrwt>
<pdfrwt beam="2">  1        2 0.13629548E-01 0.93524710E+02</pdfrwt>
<pdfrwt beam="1">  1       -2 0.37973845E-02 0.93524710E+02</pdfrwt>
<totfact> 0.11024848E+05</totfact>
</mgrwt>
</event>
<event>
 5    1  0.5681061E+000  0.9112860E+02  0.7546771E-02  0.1300141E+00
          1   -1    0    0  501    0  0.00000000000E+00  0.00000000000E+00  0.92537751515E+02  0.92537751515E+02  0.00000000000E+00 0. -1.
         -1   -1    0    0    0  501 -0.00000000000E+00 -0.00000000000E+00 -0.22435227294E+02  0.22435227294E+02  0.00000000000E+00 0.  1.
         23    2    1    2    0    0  0.00000000000E+00  0.00000000000E+00  0.70102524221E+02  0.11497297881E+03  0.91128601187E+02 0.  0.
        -11    1    3    3    0    0  0.73649832518E+01 -0.30432568316E+02 -0.67116842927E+01  0.32022349987E+02  0.00000000000E+00 0.  1.
         11    1    3    3    0    0 -0.73649832518E+01  0.30432568316E+02  0.76814208514E+02  0.82950628823E+02  0.00000000000E+00 0. -1.
<mgrwt>
<rscale>  0 0.91128601E+02</rscale>
<asrwt>0</asrwt>
<pdfrwt beam="1">  1        1 0.14236577E-01 0.91128601E+02</pdfrwt>
<pdfrwt beam="2">  1       -1 0.34515735E-02 0.91128601E+02</pdfrwt>
<totfact> 0.10327522E+05</totfact>
</mgrwt>
</event>
<event>
 5    1  0.5681061E+000  0.9164045E+02  0.7546771E-02  0.1298927E+00
         -4   -1    0    0    0  501 -0.00000000000E+00  0.00000000000E+00  0.66912420437E+01  0.66912420437E+01  0.00000000000E+00 0.  1.
          4   -1    0    0  501    0  0.00000000000E+00 -0.00000000000E+00 -0.31376733129E+03  0.31376733129E+03  0.00000000000E+00 0. -1.
         23    2    1    2    0    0  0.00000000000E+00  0.00000000000E+00 -0.30707608925E+03  0.32045857333E+03  0.91640453056E+02 0.  0.
        -11    1    3    3    0    0 -0.66874570111E+00 -0.43854572817E+02 -0.10716968349E+03  0.11579728770E+03  0.00000000000E+00 0.  1.
         11    1    3    3    0    0  0.66874570111E+00  0.43854572817E+02 -0.19990640575E+03  0.20466128564E+03  0.00000000000E+00 0. -1.
<mgrwt>
<rscale>  0 0.91640453E+02</rscale>
<asrwt>0</asrwt>
<pdfrwt beam="2">  1        4 0.48271890E-01 0.91640453E+02</pdfrwt>
<pdfrwt beam="1">  1       -4 0.10294220E-02 0.91640453E+02</pdfrwt>
<totfact> 0.16983071E+04</totfact>
</mgrwt>
</event>
<event>
 5    1  0.5681061E+000  0.9027832E+02  0.7546771E-02  0.1302179E+00
          2   -1    0    0  501    0  0.00000000000E+00  0.00000000000E+00  0.82588979350E+02  0.82588979350E+02  0.00000000000E+00 0. -1.
         -2   -1    0    0    0  501 -0.00000000000E+00 -0.00000000000E+00 -0.24670890355E+02  0.24670890355E+02  0.00000000000E+00 0.  1.
         23    2    1    2    0    0  0.00000000000E+00  0.00000000000E+00  0.57918088994E+02  0.10725986971E+03  0.90278317532E+02 0.  0.
        -11    1    3    3    0    0  0.27743079185E+02 -0.13811781728E+02 -0.10033520114E+02  0.32574764513E+02  0.00000000000E+00 0.  1.
         11    1    3    3    0    0 -0.27743079185E+02  0.13811781728E+02  0.67951609108E+02  0.74685105192E+02  0.00000000000E+00 0. -1.
<mgrwt>
<rscale>  0 0.90278318E+02</rscale>
<asrwt>0</asrwt>
<pdfrwt beam="1">  1        2 0.12705997E-01 0.90278318E+02</pdfrwt>
<pdfrwt beam="2">  1       -2 0.37955216E-02 0.90278318E+02</pdfrwt>
<totfact> 0.11913655E+05</totfact>
</mgrwt>
</event>
<event>
 5    1  0.5681061E+000  0.8997421E+02  0.7546771E-02  0.1302914E+00
          3   -1    0    0  501    0  0.00000000000E+00  0.00000000000E+00  0.10452707359E+03  0.10452707359E+03  0.00000000000E+00 0. -1.
         -3   -1    0    0    0  501 -0.00000000000E+00 -0.00000000000E+00 -0.19361870058E+02  0.19361870058E+02  0.00000000000E+00 0.  1.
         23    2    1    2    0    0  0.00000000000E+00  0.00000000000E+00  0.85165203533E+02  0.12388894365E+03  0.89974210002E+02 0.  0.
        -11    1    3    3    0    0 -0.30153158743E+02 -0.23544952659E+02  0.75174528008E+02  0.84349199399E+02  0.00000000000E+00 0. -1.
         11    1    3    3    0    0  0.30153158743E+02  0.23544952659E+02  0.99906755245E+01  0.39539744250E+02  0.00000000000E+00 0.  1.
<mgrwt>
<rscale>  0 0.89974210E+02</rscale>
<asrwt>0</asrwt>
<pdfrwt beam="1">  1        3 0.16081088E-01 0.89974210E+02</pdfrwt>
<pdfrwt beam="2">  1       -3 0.29787493E-02 0.89974210E+02</pdfrwt>
<totfact> 0.34190444E+04</totfact>
</mgrwt>
</event>
<event>
 5    1  0.5681061E+000  0.9097296E+02  0.7546771E-02  0.1300512E+00
          3   -1    0    0  501    0  0.00000000000E+00  0.00000000000E+00  0.16166481143E+02  0.16166481143E+02  0.00000000000E+00 0. -1.
         -3   -1    0    0    0  501 -0.00000000000E+00 -0.00000000000E+00 -0.12798208117E+03  0.12798208117E+03  0.00000000000E+00 0.  1.
         23    2    1    2    0    0  0.00000000000E+00  0.00000000000E+00 -0.11181560003E+03  0.14414856232E+03  0.90972960861E+02 0.  0.
        -11    1    3    3    0    0  0.82451702505E+01 -0.22568430424E+02 -0.11710607344E+03  0.11954559516E+03  0.00000000000E+00 0.  1.
         11    1    3    3    0    0 -0.82451702505E+01  0.22568430424E+02  0.52904734099E+01  0.24602967162E+02  0.00000000000E+00 0. -1.
<mgrwt>
<rscale>  0 0.90972961E+02</rscale>
<asrwt>0</asrwt>
<pdfrwt beam="1">  1        3 0.24871509E-02 0.90972961E+02</pdfrwt>
<pdfrwt beam="2">  1       -3 0.19689551E-01 0.90972961E+02</pdfrwt>
<totfact> 0.31862903E+04</totfact>
</mgrwt>
</event>
<event>
 5    1  0.5681061E+000  0.9000675E+02  0.7546771E-02  0.1302835E+00
          2   -1    0    0  501    0  0.00000000000E+00  0.00000000000E+00  0.15451706190E+02  0.15451706190E+02  0.00000000000E+00 0. -1.
         -2   -1    0    0    0  501 -0.00000000000E+00 -0.00000000000E+00 -0.13107315912E+03  0.13107315912E+03  0.00000000000E+00 0.  1.
         23    2    1    2    0    0  0.00000000000E+00  0.00000000000E+00 -0.11562145293E+03  0.14652486531E+03  0.90006754063E+02 0.  0.
        -11    1    3    3    0    0  0.43205664247E+02  0.93565542646E+01 -0.44090687488E+02  0.62436073338E+02  0.00000000000E+00 0.  1.
         11    1    3    3    0    0 -0.43205664247E+02 -0.93565542646E+01 -0.71530765446E+02  0.84088791976E+02  0.00000000000E+00 0. -1.
<mgrwt>
<rscale>  0 0.90006754E+02</rscale>
<asrwt>0</asrwt>
<pdfrwt beam="1">  1        2 0.23771856E-02 0.90006754E+02</pdfrwt>
<pdfrwt beam="2">  1       -2 0.20165101E-01 0.90006754E+02</pdfrwt>
<totfact> 0.75664236E+04</totfact>
</mgrwt>
</event>
<event>
 5    1  0.5681061E+000  0.9102325E+02  0.7546771E-02  0.1300392E+00
         -4   -1    0    0    0  501 -0.00000000000E+00  0.00000000000E+00  0.71138855932E+02  0.71138855932E+02  0.00000000000E+00 0.  1.
          4   -1    0    0  501    0  0.00000000000E+00 -0.00000000000E+00 -0.29116410570E+02  0.29116410570E+02  0.00000000000E+00 0. -1.
         23    2    1    2    0    0  0.00000000000E+00  0.00000000000E+00  0.42022445362E+02  0.10025526650E+03  0.91023252783E+02 0.  0.
        -11    1    3    3    0    0 -0.35057813275E+02  0.44528108681E+01  0.52597933640E+02  0.63367345056E+02  0.00000000000E+00 0.  1.
         11    1    3    3    0    0  0.35057813275E+02 -0.44528108681E+01 -0.10575488278E+02  0.36887921446E+02  0.00000000000E+00 0. -1.
<mgrwt>
<rscale>  0 0.91023253E+02</rscale>
<asrwt>0</asrwt>
<pdfrwt beam="2">  1        4 0.44794478E-02 0.91023253E+02</pdfrwt>
<pdfrwt beam="1">  1       -4 0.10944439E-01 0.91023253E+02</pdfrwt>
<totfact> 0.26563752E+04</totfact>
</mgrwt>
</event>
<event>
 5    1  0.5681061E+000  0.9688804E+02  0.7546771E-02  0.1286979E+00
          1   -1    0    0  501    0  0.00000000000E+00  0.00000000000E+00  0.15876351896E+03  0.15876351896E+03  0.00000000000E+00 0. -1.
         -1   -1    0    0    0  501 -0.00000000000E+00 -0.00000000000E+00 -0.14781879466E+02  0.14781879466E+02  0.00000000000E+00 0.  1.
         23    2    1    2    0    0  0.00000000000E+00  0.00000000000E+00  0.14398163949E+03  0.17354539842E+03  0.96888042621E+02 0.  0.
        -11    1    3    3    0    0 -0.21957239843E+02  0.42308726209E+02  0.87469327857E+02  0.99614416681E+02  0.00000000000E+00 0.  1.
         11    1    3    3    0    0  0.21957239843E+02 -0.42308726209E+02  0.56512311633E+02  0.73930981740E+02  0.00000000000E+00 0. -1.
<mgrwt>
<rscale>  0 0.96888043E+02</rscale>
<asrwt>0</asrwt>
<pdfrwt beam="1">  1        1 0.24425156E-01 0.96888043E+02</pdfrwt>
<pdfrwt beam="2">  1       -1 0.22741354E-02 0.96888043E+02</pdfrwt>
<totfact> 0.96138542E+04</totfact>
</mgrwt>
</event>
<event>
 5    1  0.5681061E+000  0.8768717E+02  0.7546771E-02  0.1308551E+00
         -1   -1    0    0    0  501 -0.00000000000E+00  0.00000000000E+00  0.11553689922E+03  0.11553689922E+03  0.00000000000E+00 0.  1.
          1   -1    0    0  501    0  0.00000000000E+00 -0.00000000000E+00 -0.16637629325E+02  0.16637629325E+02  0.00000000000E+00 0. -1.
         23    2    1    2    0    0  0.00000000000E+00  0.00000000000E+00  0.98899269893E+02  0.13217452854E+03  0.87687173579E+02 0.  0.
        -11    1    3    3    0    0  0.13319719052E+02  0.23091604851E+02  0.10191774826E+03  0.10534640260E+03  0.00000000000E+00 0.  1.
         11    1    3    3    0    0 -0.13319719052E+02 -0.23091604851E+02 -0.30184783632E+01  0.26828125947E+02  0.00000000000E+00 0. -1.
<mgrwt>
<rscale>  0 0.87687174E+02</rscale>
<asrwt>0</asrwt>
<pdfrwt beam="2">  1        1 0.25596353E-02 0.87687174E+02</pdfrwt>
<pdfrwt beam="1">  1       -1 0.17774907E-01 0.87687174E+02</pdfrwt>
<totfact> 0.87514569E+04</totfact>
</mgrwt>
</event>
<event>
 5    1  0.5681061E+000  0.9083434E+02  0.7546771E-02  0.1300844E+00
         -2   -1    0    0    0  501 -0.00000000000E+00  0.00000000000E+00  0.11138151374E+03  0.11138151374E+03  0.00000000000E+00 0.  1.
          2   -1    0    0  501    0  0.00000000000E+00 -0.00000000000E+00 -0.18519404896E+02  0.18519404896E+02  0.00000000000E+00 0. -1.
         23    2    1    2    0    0  0.00000000000E+00  0.00000000000E+00  0.92862108848E+02  0.12990091864E+03  0.90834340442E+02 0.  0.
        -11    1    3    3    0    0 -0.28878068987E+02 -0.22451361318E+02  0.79324365386E+01  0.37429000026E+02  0.00000000000E+00 0. -1.
         11    1    3    3    0    0  0.28878068987E+02  0.22451361318E+02  0.84929672309E+02  0.92471918614E+02  0.00000000000E+00 0.  1.
<mgrwt>
<rscale>  0 0.90834340E+02</rscale>
<asrwt>0</asrwt>
<pdfrwt beam="2">  1        2 0.28491393E-02 0.90834340E+02</pdfrwt>
<pdfrwt beam="1">  1       -2 0.17135617E-01 0.90834340E+02</pdfrwt>
<totfact> 0.77954404E+04</totfact>
</mgrwt>
</event>
<event>
 5    1  0.5681061E+000  0.8835729E+02  0.7546771E-02  0.1306879E+00
         -1   -1    0    0    0  501 -0.00000000000E+00  0.00000000000E+00  0.68954621700E+02  0.68954621700E+02  0.00000000000E+00 0.  1.
          1   -1    0    0  501    0  0.00000000000E+00 -0.00000000000E+00 -0.28304887070E+02  0.28304887070E+02  0.00000000000E+00 0. -1.
         23    2    1    2    0    0  0.00000000000E+00  0.00000000000E+00  0.40649734630E+02  0.97259508770E+02  0.88357292403E+02 0.  0.
        -11    1    3    3    0    0  0.75119931732E+01 -0.27656833121E+02 -0.16684361442E+02  0.33161700446E+02  0.00000000000E+00 0.  1.
         11    1    3    3    0    0 -0.75119931732E+01  0.27656833121E+02  0.57334096071E+02  0.64097808325E+02  0.00000000000E+00 0. -1.
<mgrwt>
<rscale>  0 0.88357292E+02</rscale>
<asrwt>0</asrwt>
<pdfrwt beam="2">  1        1 0.43545980E-02 0.88357292E+02</pdfrwt>
<pdfrwt beam="1">  1       -1 0.10608403E-01 0.88357292E+02</pdfrwt>
<totfact> 0.93970003E+04</totfact>
</mgrwt>
</event>
<event>
 5    1  0.5681061E+000  0.9300066E+02  0.7546771E-02  0.1295744E+00
         -1   -1    0    0    0  501 -0.00000000000E+00  0.00000000000E+00  0.31995992965E+02  0.31995992965E+02  0.00000000000E+00 0.  1.
          1   -1    0    0  501    0  0.00000000000E+00 -0.00000000000E+00 -0.67579737443E+02  0.67579737443E+02  0.00000000000E+00 0. -1.
         23    2    1    2    0    0  0.00000000000E+00  0.00000000000E+00 -0.35583744478E+02  0.99575730408E+02  0.93000662444E+02 0.  0.
        -11    1    3    3    0    0 -0.12729423928E+02 -0.44163335845E+02 -0.10232831981E+02  0.47086615050E+02  0.00000000000E+00 0. -1.
         11    1    3    3    0    0  0.12729423928E+02  0.44163335845E+02 -0.25350912498E+02  0.52489115357E+02  0.00000000000E+00 0.  1.
<mgrwt>
<rscale>  0 0.93000662E+02</rscale>
<asrwt>0</asrwt>
<pdfrwt beam="2">  1        1 0.10396883E-01 0.93000662E+02</pdfrwt>
<pdfrwt beam="1">  1       -1 0.49224605E-02 0.93000662E+02</pdfrwt>
<totfact> 0.92898963E+04</totfact>
</mgrwt>
</event>
<event>
 5    1  0.5681061E+000  0.9359443E+02  0.7546771E-02  0.1294374E+00
         -1   -1    0    0    0  501 -0.00000000000E+00  0.00000000000E+00  0.31885682311E+02  0.31885682311E+02  0.00000000000E+00 0.  1.
          1   -1    0    0  501    0  0.00000000000E+00 -0.00000000000E+00 -0.68682211425E+02  0.68682211425E+02  0.00000000000E+00 0. -1.
         23    2    1    2    0    0  0.00000000000E+00  0.00000000000E+00 -0.36796529113E+02  0.10056789374E+03  0.93594426628E+02 0.  0.
        -11    1    3    3    0    0  0.21734916765E+02 -0.10456811043E+02 -0.61488923105E+02  0.66050277581E+02  0.00000000000E+00 0. -1.
         11    1    3    3    0    0 -0.21734916765E+02  0.10456811043E+02  0.24692393992E+02  0.34517616155E+02  0.00000000000E+00 0.  1.
<mgrwt>
<rscale>  0 0.93594427E+02</rscale>
<asrwt>0</asrwt>
<pdfrwt beam="2">  1        1 0.10566494E-01 0.93594427E+02</pdfrwt>
<pdfrwt beam="1">  1       -1 0.49054896E-02 0.93594427E+02</pdfrwt>
<totfact> 0.91505154E+04</totfact>
</mgrwt>
</event>
<event>
 5    1  0.5681061E+000  0.9154403E+02  0.7546771E-02  0.1299155E+00
          1   -1    0    0  501    0  0.00000000000E+00  0.00000000000E+00  0.16458883559E+03  0.16458883559E+03  0.00000000000E+00 0. -1.
         -1   -1    0    0    0  501 -0.00000000000E+00 -0.00000000000E+00 -0.12729157179E+02  0.12729157179E+02  0.00000000000E+00 0.  1.
         23    2    1    2    0    0  0.00000000000E+00  0.00000000000E+00  0.15185967841E+03  0.17731799277E+03  0.91544025652E+02 0.  0.
        -11    1    3    3    0    0 -0.11681817361E+02 -0.44142792640E+02  0.69796597246E+02  0.83406330612E+02  0.00000000000E+00 0. -1.
         11    1    3    3    0    0  0.11681817361E+02  0.44142792640E+02  0.82063081161E+02  0.93911662155E+02  0.00000000000E+00 0.  1.
<mgrwt>
<rscale>  0 0.91544026E+02</rscale>
<asrwt>0</asrwt>
<pdfrwt beam="1">  1        1 0.25321358E-01 0.91544026E+02</pdfrwt>
<pdfrwt beam="2">  1       -1 0.19583320E-02 0.91544026E+02</pdfrwt>
<totfact> 0.11285167E+05</totfact>
</mgrwt>
</event>
<event>
 5    1  0.5681061E+000  0.8984083E+02  0.7546771E-02  0.1303238E+00
         -3   -1    0    0    0  501 -0.00000000000E+00  0.00000000000E+00  0.14626796745E+03  0.14626796745E+03  0.00000000000E+00 0.  1.
          3   -1    0    0  501    0  0.00000000000E+00 -0.00000000000E+00 -0.13795526548E+02  0.13795526548E+02  0.00000000000E+00 0. -1.
         23    2    1    2    0    0  0.00000000000E+00  0.00000000000E+00  0.13247244091E+03  0.16006349400E+03  0.89840828759E+02 0.  0.
        -11    1    3    3    0    0  0.23022420001E+02 -0.52943126021E+01  0.13430728684E+03  0.13636901725E+03  0.00000000000E+00 0.  1.
         11    1    3    3    0    0 -0.23022420001E+02  0.52943126021E+01 -0.18348459351E+01  0.23694476745E+02  0.00000000000E+00 0. -1.
<mgrwt>
<rscale>  0 0.89840829E+02</rscale>
<asrwt>0</asrwt>
<pdfrwt beam="2">  1        3 0.21223888E-02 0.89840829E+02</pdfrwt>
<pdfrwt beam="1">  1       -3 0.22502763E-01 0.89840829E+02</pdfrwt>
<totfact> 0.31951706E+04</totfact>
</mgrwt>
</event>
<event>
 5    1  0.5681061E+000  0.9349325E+02  0.7546771E-02  0.1294606E+00
          1   -1    0    0  501    0  0.00000000000E+00  0.00000000000E+00  0.17155070138E+03  0.17155070138E+03  0.00000000000E+00 0. -1.
         -1   -1    0    0    0  501 -0.00000000000E+00 -0.00000000000E+00 -0.12738198698E+02  0.12738198698E+02  0.00000000000E+00 0.  1.
         23    2    1    2    0    0  0.00000000000E+00  0.00000000000E+00  0.15881250268E+03  0.18428890008E+03  0.93493249405E+02 0.  0.
        -11    1    3    3    0    0 -0.44021603043E+02  0.76320894805E+01  0.52300541805E+02  0.68785877893E+02  0.00000000000E+00 0.  1.
         11    1    3    3    0    0  0.44021603043E+02 -0.76320894805E+01  0.10651196088E+03  0.11550302219E+03  0.00000000000E+00 0. -1.
<mgrwt>
<rscale>  0 0.93493249E+02</rscale>
<asrwt>0</asrwt>
<pdfrwt beam="1">  1        1 0.26392414E-01 0.93493249E+02</pdfrwt>
<pdfrwt beam="2">  1       -1 0.19597230E-02 0.93493249E+02</pdfrwt>
<totfact> 0.10745366E+05</totfact>
</mgrwt>
</event>
<event>
 5    1  0.5681061E+000  0.9068407E+02  0.7546771E-02  0.1301204E+00
          2   -1    0    0  501    0  0.00000000000E+00  0.00000000000E+00  0.13470877195E+03  0.13470877195E+03  0.00000000000E+00 0. -1.
         -2   -1    0    0    0  501 -0.00000000000E+00 -0.00000000000E+00 -0.15261814059E+02  0.15261814059E+02  0.00000000000E+00 0.  1.
         23    2    1    2    0    0  0.00000000000E+00  0.00000000000E+00  0.11944695789E+03  0.14997058601E+03  0.90684072020E+02 0.  0.
        -11    1    3    3    0    0 -0.14224237195E+02  0.17072056424E+02  0.12508644369E+03  0.12704488352E+03  0.00000000000E+00 0. -1.
         11    1    3    3    0    0  0.14224237195E+02 -0.17072056424E+02 -0.56394858001E+01  0.22925702485E+02  0.00000000000E+00 0.  1.
<mgrwt>
<rscale>  0 0.90684072E+02</rscale>
<asrwt>0</asrwt>
<pdfrwt beam="1">  1        2 0.20724426E-01 0.90684072E+02</pdfrwt>
<pdfrwt beam="2">  1       -2 0.23479715E-02 0.90684072E+02</pdfrwt>
<totfact> 0.13685656E+05</totfact>
</mgrwt>
</event>
<event>
 5    1  0.5681061E+000  0.8731710E+02  0.7546771E-02  0.1309482E+00
         -2   -1    0    0    0  501 -0.00000000000E+00  0.00000000000E+00  0.55876653165E+02  0.55876653165E+02  0.00000000000E+00 0.  1.
          2   -1    0    0  501    0  0.00000000000E+00 -0.00000000000E+00 -0.34112085653E+02  0.34112085653E+02  0.00000000000E+00 0. -1.
         23    2    1    2    0    0  0.00000000000E+00  0.00000000000E+00  0.21764567512E+02  0.89988738818E+02  0.87317104367E+02 0.  0.
        -11    1    3    3    0    0 -0.14637376593E+02 -0.26031615714E+02 -0.21938164858E+02  0.37056455410E+02  0.00000000000E+00 0. -1.
         11    1    3    3    0    0  0.14637376593E+02  0.26031615714E+02  0.43702732370E+02  0.52932283408E+02  0.00000000000E+00 0.  1.
<mgrwt>
<rscale>  0 0.87317104E+02</rscale>
<asrwt>0</asrwt>
<pdfrwt beam="2">  1        2 0.52480132E-02 0.87317104E+02</pdfrwt>
<pdfrwt beam="1">  1       -2 0.85964082E-02 0.87317104E+02</pdfrwt>
<totfact> 0.10382810E+05</totfact>
</mgrwt>
</event>
<event>
 5    1  0.5681061E+000  0.9047356E+02  0.7546771E-02  0.1301709E+00
          2   -1    0    0  501    0  0.00000000000E+00  0.00000000000E+00  0.48019502328E+02  0.48019502328E+02  0.00000000000E+00 0. -1.
         -2   -1    0    0    0  501 -0.00000000000E+00 -0.00000000000E+00 -0.42615320402E+02  0.42615320402E+02  0.00000000000E+00 0.  1.
         23    2    1    2    0    0  0.00000000000E+00  0.00000000000E+00  0.54041819253E+01  0.90634822730E+02  0.90473564697E+02 0.  0.
        -11    1    3    3    0    0 -0.61978729539E+01  0.27199138812E+02  0.38376793526E+02  0.47444547238E+02  0.00000000000E+00 0. -1.
         11    1    3    3    0    0  0.61978729539E+01 -0.27199138812E+02 -0.32972611601E+02  0.43190275492E+02  0.00000000000E+00 0.  1.
<mgrwt>
<rscale>  0 0.90473565E+02</rscale>
<asrwt>0</asrwt>
<pdfrwt beam="1">  1        2 0.73876158E-02 0.90473565E+02</pdfrwt>
<pdfrwt beam="2">  1       -2 0.65562031E-02 0.90473565E+02</pdfrwt>
<totfact> 0.10225298E+05</totfact>
</mgrwt>
</event>
<event>
 5    1  0.5681061E+000  0.8993056E+02  0.7546771E-02  0.1303020E+00
          3   -1    0    0  501    0  0.00000000000E+00  0.00000000000E+00  0.73623905137E+02  0.73623905137E+02  0.00000000000E+00 0. -1.
         -3   -1    0    0    0  501 -0.00000000000E+00 -0.00000000000E+00 -0.27462224408E+02  0.27462224408E+02  0.00000000000E+00 0.  1.
         23    2    1    2    0    0  0.00000000000E+00  0.00000000000E+00  0.46161680729E+02  0.10108612954E+03  0.89930555534E+02 0.  0.
        -11    1    3    3    0    0 -0.25496428856E+02 -0.35445156881E+02  0.11003266368E+02  0.45027757011E+02  0.00000000000E+00 0. -1.
         11    1    3    3    0    0  0.25496428856E+02  0.35445156881E+02  0.35158414361E+02  0.56058372533E+02  0.00000000000E+00 0.  1.
<mgrwt>
<rscale>  0 0.89930556E+02</rscale>
<asrwt>0</asrwt>
<pdfrwt beam="1">  1        3 0.11326755E-01 0.89930556E+02</pdfrwt>
<pdfrwt beam="2">  1       -3 0.42249576E-02 0.89930556E+02</pdfrwt>
<totfact> 0.35908156E+04</totfact>
</mgrwt>
</event>
<event>
 5    1  0.5681061E+000  0.9224340E+02  0.7546771E-02  0.1297508E+00
          2   -1    0    0  501    0  0.00000000000E+00  0.00000000000E+00  0.14726736667E+02  0.14726736667E+02  0.00000000000E+00 0. -1.
         -2   -1    0    0    0  501 -0.00000000000E+00 -0.00000000000E+00 -0.14444551716E+03  0.14444551716E+03  0.00000000000E+00 0.  1.
         23    2    1    2    0    0  0.00000000000E+00  0.00000000000E+00 -0.12971878049E+03  0.15917225383E+03  0.92243397465E+02 0.  0.
        -11    1    3    3    0    0  0.33170792969E+02 -0.29127153546E+02 -0.41803934732E+02  0.60796887576E+02  0.00000000000E+00 0.  1.
         11    1    3    3    0    0 -0.33170792969E+02  0.29127153546E+02 -0.87914845762E+02  0.98375366252E+02  0.00000000000E+00 0. -1.
<mgrwt>
<rscale>  0 0.92243397E+02</rscale>
<asrwt>0</asrwt>
<pdfrwt beam="1">  1        2 0.22656519E-02 0.92243397E+02</pdfrwt>
<pdfrwt beam="2">  1       -2 0.22222386E-01 0.92243397E+02</pdfrwt>
<totfact> 0.68758921E+04</totfact>
</mgrwt>
</event>
<event>
 5    1  0.5681061E+000  0.8949136E+02  0.7546771E-02  0.1304088E+00
          3   -1    0    0  501    0  0.00000000000E+00  0.00000000000E+00  0.15057711091E+02  0.15057711091E+02  0.00000000000E+00 0. -1.
         -3   -1    0    0    0  501 -0.00000000000E+00 -0.00000000000E+00 -0.13296681346E+03  0.13296681346E+03  0.00000000000E+00 0.  1.
         23    2    1    2    0    0  0.00000000000E+00  0.00000000000E+00 -0.11790910237E+03  0.14802452455E+03  0.89491359623E+02 0.  0.
        -11    1    3    3    0    0  0.40657389740E-01  0.35769329493E+02 -0.14487288878E+02  0.38591814216E+02  0.00000000000E+00 0. -1.
         11    1    3    3    0    0 -0.40657389740E-01 -0.35769329493E+02 -0.10342181350E+03  0.10943271034E+03  0.00000000000E+00 0.  1.
<mgrwt>
<rscale>  0 0.89491360E+02</rscale>
<asrwt>0</asrwt>
<pdfrwt beam="1">  1        3 0.23165710E-02 0.89491360E+02</pdfrwt>
<pdfrwt beam="2">  1       -3 0.20456432E-01 0.89491360E+02</pdfrwt>
<totfact> 0.33054532E+04</totfact>
</mgrwt>
</event>
<event>
 5    1  0.5681061E+000  0.9151727E+02  0.7546771E-02  0.1299218E+00
         -2   -1    0    0    0  501 -0.00000000000E+00  0.00000000000E+00  0.56840062119E+02  0.56840062119E+02  0.00000000000E+00 0.  1.
          2   -1    0    0  501    0  0.00000000000E+00 -0.00000000000E+00 -0.36837621984E+02  0.36837621984E+02  0.00000000000E+00 0. -1.
         23    2    1    2    0    0  0.00000000000E+00  0.00000000000E+00  0.20002440135E+02  0.93677684104E+02  0.91517270980E+02 0.  0.
        -11    1    3    3    0    0  0.35342962956E+02  0.10257843110E+02  0.37837003558E+02  0.52782451762E+02  0.00000000000E+00 0.  1.
         11    1    3    3    0    0 -0.35342962956E+02 -0.10257843110E+02 -0.17834563423E+02  0.40895232341E+02  0.00000000000E+00 0. -1.
<mgrwt>
<rscale>  0 0.91517271E+02</rscale>
<asrwt>0</asrwt>
<pdfrwt beam="2">  1        2 0.56673265E-02 0.91517271E+02</pdfrwt>
<pdfrwt beam="1">  1       -2 0.87446249E-02 0.91517271E+02</pdfrwt>
<totfact> 0.92363465E+04</totfact>
</mgrwt>
</event>
<event>
 5    1  0.5681061E+000  0.8819502E+02  0.7546771E-02  0.1307283E+00
          1   -1    0    0  501    0  0.00000000000E+00  0.00000000000E+00  0.18551124020E+02  0.18551124020E+02  0.00000000000E+00 0. -1.
         -1   -1    0    0    0  501 -0.00000000000E+00 -0.00000000000E+00 -0.10482331962E+03  0.10482331962E+03  0.00000000000E+00 0.  1.
         23    2    1    2    0    0  0.00000000000E+00  0.00000000000E+00 -0.86272195600E+02  0.12337444364E+03  0.88195020324E+02 0.  0.
        -11    1    3    3    0    0  0.39701640390E+02 -0.34838474368E+01 -0.16733406848E+02  0.43224580361E+02  0.00000000000E+00 0. -1.
         11    1    3    3    0    0 -0.39701640390E+02  0.34838474368E+01 -0.69538788752E+02  0.80149863279E+02  0.00000000000E+00 0.  1.
<mgrwt>
<rscale>  0 0.88195020E+02</rscale>
<asrwt>0</asrwt>
<pdfrwt beam="1">  1        1 0.28540191E-02 0.88195020E+02</pdfrwt>
<pdfrwt beam="2">  1       -1 0.16126665E-01 0.88195020E+02</pdfrwt>
<totfact> 0.87859992E+04</totfact>
</mgrwt>
</event>
<event>
 5    1  0.5681061E+000  0.9150240E+02  0.7546771E-02  0.1299254E+00
         -1   -1    0    0    0  501 -0.00000000000E+00  0.00000000000E+00  0.11971454031E+02  0.11971454031E+02  0.00000000000E+00 0.  1.
          1   -1    0    0  501    0  0.00000000000E+00 -0.00000000000E+00 -0.17484693815E+03  0.17484693815E+03  0.00000000000E+00 0. -1.
         23    2    1    2    0    0  0.00000000000E+00  0.00000000000E+00 -0.16287548412E+03  0.18681839218E+03  0.91502395216E+02 0.  0.
        -11    1    3    3    0    0 -0.40337823639E+02  0.20937135883E+02 -0.70698361058E+02  0.84046189273E+02  0.00000000000E+00 0.  1.
         11    1    3    3    0    0  0.40337823639E+02 -0.20937135883E+02 -0.92177123063E+02  0.10277220291E+03  0.00000000000E+00 0. -1.
<mgrwt>
<rscale>  0 0.91502395E+02</rscale>
<asrwt>0</asrwt>
<pdfrwt beam="2">  1        1 0.26899529E-01 0.91502395E+02</pdfrwt>
<pdfrwt beam="1">  1       -1 0.18417622E-02 0.91502395E+02</pdfrwt>
<totfact> 0.11428461E+05</totfact>
</mgrwt>
</event>
<event>
 5    1  0.5681061E+000  0.8742481E+02  0.7546771E-02  0.1309210E+00
          1   -1    0    0  501    0  0.00000000000E+00  0.00000000000E+00  0.19886243637E+03  0.19886243637E+03  0.00000000000E+00 0. -1.
         -1   -1    0    0    0  501 -0.00000000000E+00 -0.00000000000E+00 -0.96085240527E+01  0.96085240527E+01  0.00000000000E+00 0.  1.
         23    2    1    2    0    0  0.00000000000E+00  0.00000000000E+00  0.18925391231E+03  0.20847096042E+03  0.87424813480E+02 0.  0.
        -11    1    3    3    0    0  0.41481609481E+02  0.61176482612E+01  0.65167574226E+02  0.77491691657E+02  0.00000000000E+00 0.  1.
         11    1    3    3    0    0 -0.41481609481E+02 -0.61176482612E+01  0.12408633809E+03  0.13097926876E+03  0.00000000000E+00 0. -1.
<mgrwt>
<rscale>  0 0.87424813E+02</rscale>
<asrwt>0</asrwt>
<pdfrwt beam="1">  1        1 0.30594218E-01 0.87424813E+02</pdfrwt>
<pdfrwt beam="2">  1       -1 0.14782346E-02 0.87424813E+02</pdfrwt>
<totfact> 0.13234182E+05</totfact>
</mgrwt>
</event>
<event>
 5    1  0.5681061E+000  0.8862654E+02  0.7546771E-02  0.1306212E+00
         -2   -1    0    0    0  501 -0.00000000000E+00  0.00000000000E+00  0.32656169099E+02  0.32656169099E+02  0.00000000000E+00 0.  1.
          2   -1    0    0  501    0  0.00000000000E+00 -0.00000000000E+00 -0.60131543408E+02  0.60131543408E+02  0.00000000000E+00 0. -1.
         23    2    1    2    0    0  0.00000000000E+00  0.00000000000E+00 -0.27475374309E+02  0.92787712507E+02  0.88626538908E+02 0.  0.
        -11    1    3    3    0    0  0.12380704918E+02 -0.30628888862E+02 -0.44658325639E+02  0.55549768101E+02  0.00000000000E+00 0. -1.
         11    1    3    3    0    0 -0.12380704918E+02  0.30628888862E+02  0.17182951329E+02  0.37237944406E+02  0.00000000000E+00 0.  1.
<mgrwt>
<rscale>  0 0.88626539E+02</rscale>
<asrwt>0</asrwt>
<pdfrwt beam="2">  1        2 0.92510066E-02 0.88626539E+02</pdfrwt>
<pdfrwt beam="1">  1       -2 0.50240261E-02 0.88626539E+02</pdfrwt>
<totfact> 0.11494145E+05</totfact>
</mgrwt>
</event>
<event>
 5    1  0.5681061E+000  0.9196296E+02  0.7546771E-02  0.1298167E+00
         -1   -1    0    0    0  501 -0.00000000000E+00  0.00000000000E+00  0.41923979053E+02  0.41923979053E+02  0.00000000000E+00 0.  1.
          1   -1    0    0  501    0  0.00000000000E+00 -0.00000000000E+00 -0.50431678168E+02  0.50431678168E+02  0.00000000000E+00 0. -1.
         23    2    1    2    0    0  0.00000000000E+00  0.00000000000E+00 -0.85076991155E+01  0.92355657221E+02  0.91962962525E+02 0.  0.
        -11    1    3    3    0    0 -0.24993074463E+02  0.27071087049E+02 -0.31881302738E+02  0.48722838478E+02  0.00000000000E+00 0. -1.
         11    1    3    3    0    0  0.24993074463E+02 -0.27071087049E+02  0.23373603622E+02  0.43632818742E+02  0.00000000000E+00 0.  1.
<mgrwt>
<rscale>  0 0.91962963E+02</rscale>
<asrwt>0</asrwt>
<pdfrwt beam="2">  1        1 0.77587197E-02 0.91962963E+02</pdfrwt>
<pdfrwt beam="1">  1       -1 0.64498430E-02 0.91962963E+02</pdfrwt>
<totfact> 0.91655961E+04</totfact>
</mgrwt>
</event>
<event>
 5    1  0.5681061E+000  0.9338028E+02  0.7546771E-02  0.1294866E+00
          1   -1    0    0  501    0  0.00000000000E+00  0.00000000000E+00  0.15938642907E+03  0.15938642907E+03  0.00000000000E+00 0. -1.
         -1   -1    0    0    0  501 -0.00000000000E+00 -0.00000000000E+00 -0.13677256612E+02  0.13677256612E+02  0.00000000000E+00 0.  1.
         23    2    1    2    0    0  0.00000000000E+00  0.00000000000E+00  0.14570917245E+03  0.17306368568E+03  0.93380278234E+02 0.  0.
        -11    1    3    3    0    0  0.41155856203E+02  0.16058280051E+02  0.10085730232E+03  0.11010843878E+03  0.00000000000E+00 0. -1.
         11    1    3    3    0    0 -0.41155856203E+02 -0.16058280051E+02  0.44851870130E+02  0.62955246899E+02  0.00000000000E+00 0.  1.
<mgrwt>
<rscale>  0 0.93380278E+02</rscale>
<asrwt>0</asrwt>
<pdfrwt beam="1">  1        1 0.24520988E-01 0.93380278E+02</pdfrwt>
<pdfrwt beam="2">  1       -1 0.21041934E-02 0.93380278E+02</pdfrwt>
<totfact> 0.10631823E+05</totfact>
</mgrwt>
</event>
<event>
 4    1  0.5681061E+000  0.1294685E+03  0.7546771E-02  0.1228247E+00
         -1   -1    0    0    0  501 -0.00000000000E+00  0.00000000000E+00  0.32375578324E+02  0.32375578324E+02  0.00000000000E+00 0.  1.
          1   -1    0    0  501    0  0.00000000000E+00 -0.00000000000E+00 -0.12943460614E+03  0.12943460614E+03  0.00000000000E+00 0. -1.
        -11    1    1    2    0    0  0.24872652505E+02 -0.80264415729E+01  0.25488509550E+02  0.36506666871E+02  0.00000000000E+00 0.  1.
         11    1    1    2    0    0 -0.24872652505E+02  0.80264415729E+01 -0.12254753736E+03  0.12530351759E+03  0.00000000000E+00 0. -1.
<mgrwt>
<rscale>  0 0.12946846E+03</rscale>
<asrwt>0</asrwt>
<pdfrwt beam="2">  1        1 0.19913017E-01 0.12946846E+03</pdfrwt>
<pdfrwt beam="1">  1       -1 0.49808581E-02 0.12946846E+03</pdfrwt>
<totfact> 0.41338625E+04</totfact>
</mgrwt>
</event>
<event>
 5    1  0.5681061E+000  0.8927617E+02  0.7546771E-02  0.1304614E+00
          3   -1    0    0  501    0  0.00000000000E+00  0.00000000000E+00  0.40982371003E+02  0.40982371003E+02  0.00000000000E+00 0. -1.
         -3   -1    0    0    0  501 -0.00000000000E+00 -0.00000000000E+00 -0.48619898989E+02  0.48619898989E+02  0.00000000000E+00 0.  1.
         23    2    1    2    0    0  0.00000000000E+00  0.00000000000E+00 -0.76375279862E+01  0.89602269991E+02  0.89276172375E+02 0.  0.
        -11    1    3    3    0    0 -0.16722365778E+02 -0.37285519291E+02 -0.21848547756E+02  0.46337959655E+02  0.00000000000E+00 0. -1.
         11    1    3    3    0    0  0.16722365778E+02  0.37285519291E+02  0.14211019770E+02  0.43264310336E+02  0.00000000000E+00 0.  1.
<mgrwt>
<rscale>  0 0.89276172E+02</rscale>
<asrwt>0</asrwt>
<pdfrwt beam="1">  1        3 0.63049802E-02 0.89276172E+02</pdfrwt>
<pdfrwt beam="2">  1       -3 0.74799845E-02 0.89276172E+02</pdfrwt>
<totfact> 0.37550241E+04</totfact>
</mgrwt>
</event>
<event>
 5    1  0.5681061E+000  0.9043143E+02  0.7546771E-02  0.1301810E+00
         -2   -1    0    0    0  501 -0.00000000000E+00  0.00000000000E+00  0.61551553473E+01  0.61551553473E+01  0.00000000000E+00 0.  1.
          2   -1    0    0  501    0  0.00000000000E+00 -0.00000000000E+00 -0.33215422057E+03  0.33215422057E+03  0.00000000000E+00 0. -1.
         23    2    1    2    0    0  0.00000000000E+00  0.00000000000E+00 -0.32599906523E+03  0.33830937592E+03  0.90431428760E+02 0.  0.
        -11    1    3    3    0    0 -0.28709234217E+02 -0.34745880750E+02 -0.14952939603E+03  0.15617469909E+03  0.00000000000E+00 0.  1.
         11    1    3    3    0    0  0.28709234217E+02  0.34745880750E+02 -0.17646966920E+03  0.18213467683E+03  0.00000000000E+00 0. -1.
<mgrwt>
<rscale>  0 0.90431429E+02</rscale>
<asrwt>0</asrwt>
<pdfrwt beam="2">  1        2 0.51100656E-01 0.90431429E+02</pdfrwt>
<pdfrwt beam="1">  1       -2 0.94694685E-03 0.90431429E+02</pdfrwt>
<totfact> 0.19069421E+05</totfact>
</mgrwt>
</event>
<event>
 5    1  0.5681061E+000  0.9154403E+02  0.7546771E-02  0.1299155E+00
          1   -1    0    0  501    0  0.00000000000E+00  0.00000000000E+00  0.62407760327E+02  0.62407760327E+02  0.00000000000E+00 0. -1.
         -1   -1    0    0    0  501 -0.00000000000E+00 -0.00000000000E+00 -0.33570781478E+02  0.33570781478E+02  0.00000000000E+00 0.  1.
         23    2    1    2    0    0  0.00000000000E+00  0.00000000000E+00  0.28836978850E+02  0.95978541805E+02  0.91544028412E+02 0.  0.
        -11    1    3    3    0    0 -0.31104542900E+02 -0.46589497022E+01 -0.20447172150E+02  0.37513800797E+02  0.00000000000E+00 0.  1.
         11    1    3    3    0    0  0.31104542900E+02  0.46589497022E+01  0.49284151000E+02  0.58464741008E+02  0.00000000000E+00 0. -1.
<mgrwt>
<rscale>  0 0.91544028E+02</rscale>
<asrwt>0</asrwt>
<pdfrwt beam="1">  1        1 0.96011939E-02 0.91544028E+02</pdfrwt>
<pdfrwt beam="2">  1       -1 0.51647356E-02 0.91544028E+02</pdfrwt>
<totfact> 0.95873427E+04</totfact>
</mgrwt>
</event>
<event>
 5    1  0.5681061E+000  0.9217583E+02  0.7546771E-02  0.1297667E+00
          2   -1    0    0  501    0  0.00000000000E+00  0.00000000000E+00  0.41158933462E+02  0.41158933462E+02  0.00000000000E+00 0. -1.
         -2   -1    0    0    0  501 -0.00000000000E+00 -0.00000000000E+00 -0.51607162854E+02  0.51607162854E+02  0.00000000000E+00 0.  1.
         23    2    1    2    0    0  0.00000000000E+00  0.00000000000E+00 -0.10448229392E+02  0.92766096316E+02  0.92175827245E+02 0.  0.
        -11    1    3    3    0    0  0.38077656991E+02 -0.10203180483E+02 -0.29253422214E+02  0.49089464910E+02  0.00000000000E+00 0.  1.
         11    1    3    3    0    0 -0.38077656991E+02  0.10203180483E+02  0.18805192823E+02  0.43676631406E+02  0.00000000000E+00 0. -1.
<mgrwt>
<rscale>  0 0.92175827E+02</rscale>
<asrwt>0</asrwt>
<pdfrwt beam="1">  1        2 0.63321436E-02 0.92175827E+02</pdfrwt>
<pdfrwt beam="2">  1       -2 0.79395635E-02 0.92175827E+02</pdfrwt>
<totfact> 0.93110214E+04</totfact>
</mgrwt>
</event>
<event>
 5    1  0.5681061E+000  0.9295666E+02  0.7546771E-02  0.1295846E+00
          2   -1    0    0  501    0  0.00000000000E+00  0.00000000000E+00  0.29842700308E+02  0.29842700308E+02  0.00000000000E+00 0.  1.
         -2   -1    0    0    0  501 -0.00000000000E+00 -0.00000000000E+00 -0.72387386790E+02  0.72387386790E+02  0.00000000000E+00 0. -1.
         23    2    1    2    0    0  0.00000000000E+00  0.00000000000E+00 -0.42544686483E+02  0.10223008710E+03  0.92956658503E+02 0.  0.
        -11    1    3    3    0    0  0.11662673166E+02  0.44971955803E+02 -0.22723167355E+02  0.51718827218E+02  0.00000000000E+00 0. -1.
         11    1    3    3    0    0 -0.11662673166E+02 -0.44971955803E+02 -0.19821519127E+02  0.50511259880E+02  0.00000000000E+00 0.  1.
<mgrwt>
<rscale>  0 0.92956659E+02</rscale>
<asrwt>0</asrwt>
<pdfrwt beam="1">  1        2 0.45911847E-02 0.92956659E+02</pdfrwt>
<pdfrwt beam="2">  1       -2 0.11136521E-01 0.92956659E+02</pdfrwt>
<totfact> 0.83397772E+04</totfact>
</mgrwt>
</event>
<event>
 5    1  0.5681061E+000  0.9066170E+02  0.7546771E-02  0.1301257E+00
          2   -1    0    0  501    0  0.00000000000E+00  0.00000000000E+00  0.13868773590E+03  0.13868773590E+03  0.00000000000E+00 0. -1.
         -2   -1    0    0    0  501 -0.00000000000E+00 -0.00000000000E+00 -0.14816637492E+02  0.14816637492E+02  0.00000000000E+00 0.  1.
         23    2    1    2    0    0  0.00000000000E+00  0.00000000000E+00  0.12387109841E+03  0.15350437339E+03  0.90661698804E+02 0.  0.
        -11    1    3    3    0    0 -0.16821145490E+02  0.30564064332E+02  0.12928329368E+02  0.37205573028E+02  0.00000000000E+00 0.  1.
         11    1    3    3    0    0  0.16821145490E+02 -0.30564064332E+02  0.11094276904E+03  0.11629880037E+03  0.00000000000E+00 0. -1.
<mgrwt>
<rscale>  0 0.90661699E+02</rscale>
<asrwt>0</asrwt>
<pdfrwt beam="1">  1        2 0.21336574E-01 0.90661699E+02</pdfrwt>
<pdfrwt beam="2">  1       -2 0.22794828E-02 0.90661699E+02</pdfrwt>
<totfact> 0.13827808E+05</totfact>
</mgrwt>
</event>
<event>
 5    1  0.5681061E+000  0.9362386E+02  0.7546771E-02  0.1294306E+00
          1   -1    0    0  501    0  0.00000000000E+00  0.00000000000E+00  0.28997306198E+02  0.28997306198E+02  0.00000000000E+00 0. -1.
         -1   -1    0    0    0  501 -0.00000000000E+00 -0.00000000000E+00 -0.75571054085E+02  0.75571054085E+02  0.00000000000E+00 0.  1.
         23    2    1    2    0    0  0.00000000000E+00  0.00000000000E+00 -0.46573747887E+02  0.10456836028E+03  0.93623864372E+02 0.  0.
        -11    1    3    3    0    0  0.84887457791E+01  0.14906639631E+02 -0.71934061239E+02  0.73951172245E+02  0.00000000000E+00 0.  1.
         11    1    3    3    0    0 -0.84887457791E+01 -0.14906639631E+02  0.25360313352E+02  0.30617188037E+02  0.00000000000E+00 0. -1.
<mgrwt>
<rscale>  0 0.93623864E+02</rscale>
<asrwt>0</asrwt>
<pdfrwt beam="1">  1        1 0.44611241E-02 0.93623864E+02</pdfrwt>
<pdfrwt beam="2">  1       -1 0.11626316E-01 0.93623864E+02</pdfrwt>
<totfact> 0.79861986E+04</totfact>
</mgrwt>
</event>
<event>
 5    1  0.5681061E+000  0.9171561E+02  0.7546771E-02  0.1298749E+00
         -3   -1    0    0    0  501 -0.00000000000E+00  0.00000000000E+00  0.18324233670E+02  0.18324233670E+02  0.00000000000E+00 0.  1.
          3   -1    0    0  501    0  0.00000000000E+00 -0.00000000000E+00 -0.11476267961E+03  0.11476267961E+03  0.00000000000E+00 0. -1.
         23    2    1    2    0    0  0.00000000000E+00  0.00000000000E+00 -0.96438445942E+02  0.13308691328E+03  0.91715607347E+02 0.  0.
        -11    1    3    3    0    0 -0.28845593517E+02  0.86941802749E+01 -0.98387263232E+02  0.10289660151E+03  0.00000000000E+00 0. -1.
         11    1    3    3    0    0  0.28845593517E+02 -0.86941802749E+01  0.19488172900E+01  0.30190311771E+02  0.00000000000E+00 0.  1.
<mgrwt>
<rscale>  0 0.91715607E+02</rscale>
<asrwt>0</asrwt>
<pdfrwt beam="2">  1        3 0.17655797E-01 0.91715607E+02</pdfrwt>
<pdfrwt beam="1">  1       -3 0.28191129E-02 0.91715607E+02</pdfrwt>
<totfact> 0.31859772E+04</totfact>
</mgrwt>
</event>
<event>
 5    1  0.5681061E+000  0.8605121E+02  0.7546771E-02  0.1312706E+00
          2   -1    0    0  501    0  0.00000000000E+00  0.00000000000E+00  0.23534431146E+03  0.23534431146E+03  0.00000000000E+00 0. -1.
         -2   -1    0    0    0  501 -0.00000000000E+00 -0.00000000000E+00 -0.78659328311E+01  0.78659328311E+01  0.00000000000E+00 0.  1.
         23    2    1    2    0    0  0.00000000000E+00  0.00000000000E+00  0.22747837863E+03  0.24321024430E+03  0.86051206759E+02 0.  0.
        -11    1    3    3    0    0  0.41254827582E+02  0.68696684030E+01  0.85187610143E+02  0.94900379687E+02  0.00000000000E+00 0.  1.
         11    1    3    3    0    0 -0.41254827582E+02 -0.68696684030E+01  0.14229076849E+03  0.14830986461E+03  0.00000000000E+00 0. -1.
<mgrwt>
<rscale>  0 0.86051207E+02</rscale>
<asrwt>0</asrwt>
<pdfrwt beam="1">  1        2 0.36206812E-01 0.86051207E+02</pdfrwt>
<pdfrwt beam="2">  1       -2 0.12101437E-02 0.86051207E+02</pdfrwt>
<totfact> 0.19159235E+05</totfact>
</mgrwt>
</event>
<event>
 5    1  0.5681061E+000  0.9131603E+02  0.7546771E-02  0.1299696E+00
          1   -1    0    0  501    0  0.00000000000E+00  0.00000000000E+00  0.17563513942E+02  0.17563513942E+02  0.00000000000E+00 0. -1.
         -1   -1    0    0    0  501 -0.00000000000E+00 -0.00000000000E+00 -0.11869233037E+03  0.11869233037E+03  0.00000000000E+00 0.  1.
         23    2    1    2    0    0  0.00000000000E+00  0.00000000000E+00 -0.10112881642E+03  0.13625584431E+03  0.91316031434E+02 0.  0.
        -11    1    3    3    0    0 -0.21121098121E+02 -0.40394758030E+02 -0.46668496334E+02  0.65236384113E+02  0.00000000000E+00 0.  1.
         11    1    3    3    0    0  0.21121098121E+02  0.40394758030E+02 -0.54460320090E+02  0.71019460195E+02  0.00000000000E+00 0. -1.
<mgrwt>
<rscale>  0 0.91316031E+02</rscale>
<asrwt>0</asrwt>
<pdfrwt beam="1">  1        1 0.27020790E-02 0.91316031E+02</pdfrwt>
<pdfrwt beam="2">  1       -1 0.18260359E-01 0.91316031E+02</pdfrwt>
<totfact> 0.78396295E+04</totfact>
</mgrwt>
</event>
<event>
 5    1  0.5681061E+000  0.8896868E+02  0.7546771E-02  0.1305369E+00
          2   -1    0    0  501    0  0.00000000000E+00  0.00000000000E+00  0.44444706767E+03  0.44444706767E+03  0.00000000000E+00 0. -1.
         -2   -1    0    0    0  501 -0.00000000000E+00 -0.00000000000E+00 -0.44524010240E+01  0.44524010240E+01  0.00000000000E+00 0.  1.
         23    2    1    2    0    0  0.00000000000E+00  0.00000000000E+00  0.43999466665E+03  0.44889946870E+03  0.88968681663E+02 0.  0.
        -11    1    3    3    0    0  0.43747098515E+02  0.71289365933E+01  0.20096655278E+03  0.20579646669E+03  0.00000000000E+00 0.  1.
         11    1    3    3    0    0 -0.43747098515E+02 -0.71289365933E+01  0.23902811387E+03  0.24310300200E+03  0.00000000000E+00 0. -1.
<mgrwt>
<rscale>  0 0.88968682E+02</rscale>
<asrwt>0</asrwt>
<pdfrwt beam="1">  1        2 0.68376437E-01 0.88968682E+02</pdfrwt>
<pdfrwt beam="2">  1       -2 0.68498513E-03 0.88968682E+02</pdfrwt>
<totfact> 0.22103961E+05</totfact>
</mgrwt>
</event>
<event>
 5    1  0.5681061E+000  0.8949048E+02  0.7546771E-02  0.1304090E+00
          1   -1    0    0  501    0  0.00000000000E+00  0.00000000000E+00  0.48534045204E+01  0.48534045204E+01  0.00000000000E+00 0. -1.
         -1   -1    0    0    0  501 -0.00000000000E+00 -0.00000000000E+00 -0.41252211219E+03  0.41252211219E+03  0.00000000000E+00 0.  1.
         23    2    1    2    0    0  0.00000000000E+00  0.00000000000E+00 -0.40766870767E+03  0.41737551671E+03  0.89490484054E+02 0.  0.
        -11    1    3    3    0    0 -0.39664987770E+02 -0.17610553415E+02 -0.25464610920E+03  0.25831779609E+03  0.00000000000E+00 0.  1.
         11    1    3    3    0    0  0.39664987770E+02  0.17610553415E+02 -0.15302259848E+03  0.15905772063E+03  0.00000000000E+00 0. -1.
<mgrwt>
<rscale>  0 0.89490484E+02</rscale>
<asrwt>0</asrwt>
<pdfrwt beam="1">  1        1 0.74667756E-03 0.89490484E+02</pdfrwt>
<pdfrwt beam="2">  1       -1 0.63464945E-01 0.89490484E+02</pdfrwt>
<totfact> 0.55082158E+04</totfact>
</mgrwt>
</event>
<event>
 5    1  0.5681061E+000  0.9004021E+02  0.7546771E-02  0.1302754E+00
          1   -1    0    0  501    0  0.00000000000E+00  0.00000000000E+00  0.23051288688E+03  0.23051288688E+03  0.00000000000E+00 0. -1.
         -1   -1    0    0    0  501 -0.00000000000E+00 -0.00000000000E+00 -0.87926090534E+01  0.87926090534E+01  0.00000000000E+00 0.  1.
         23    2    1    2    0    0  0.00000000000E+00  0.00000000000E+00  0.22172027783E+03  0.23930549593E+03  0.90040206488E+02 0.  0.
        -11    1    3    3    0    0  0.17259981411E+01 -0.38567379673E+02  0.49306227222E+02  0.62622087855E+02  0.00000000000E+00 0.  1.
         11    1    3    3    0    0 -0.17259981411E+01  0.38567379673E+02  0.17241405061E+03  0.17668340808E+03  0.00000000000E+00 0. -1.
<mgrwt>
<rscale>  0 0.90040206E+02</rscale>
<asrwt>0</asrwt>
<pdfrwt beam="1">  1        1 0.35463516E-01 0.90040206E+02</pdfrwt>
<pdfrwt beam="2">  1       -1 0.13527093E-02 0.90040206E+02</pdfrwt>
<totfact> 0.12587679E+05</totfact>
</mgrwt>
</event>
<event>
 5    1  0.5681061E+000  0.9766886E+02  0.7546771E-02  0.1285276E+00
         -2   -1    0    0    0  501 -0.00000000000E+00  0.00000000000E+00  0.37431646292E+02  0.37431646292E+02  0.00000000000E+00 0.  1.
          2   -1    0    0  501    0  0.00000000000E+00 -0.00000000000E+00 -0.63710835993E+02  0.63710835993E+02  0.00000000000E+00 0. -1.
         23    2    1    2    0    0  0.00000000000E+00  0.00000000000E+00 -0.26279189701E+02  0.10114248228E+03  0.97668858452E+02 0.  0.
        -11    1    3    3    0    0 -0.19573509261E+02  0.34632082230E+02  0.16192655053E+02  0.42950034483E+02  0.00000000000E+00 0.  1.
         11    1    3    3    0    0  0.19573509261E+02 -0.34632082230E+02 -0.42471844754E+02  0.58192447802E+02  0.00000000000E+00 0. -1.
<mgrwt>
<rscale>  0 0.97668858E+02</rscale>
<asrwt>0</asrwt>
<pdfrwt beam="2">  1        2 0.98016669E-02 0.97668858E+02</pdfrwt>
<pdfrwt beam="1">  1       -2 0.57587149E-02 0.97668858E+02</pdfrwt>
<totfact> 0.88727975E+04</totfact>
</mgrwt>
</event>
<event>
 5    1  0.5681061E+000  0.8924080E+02  0.7546771E-02  0.1304701E+00
          1   -1    0    0  501    0  0.00000000000E+00  0.00000000000E+00  0.23070056639E+02  0.23070056639E+02  0.00000000000E+00 0. -1.
         -1   -1    0    0    0  501 -0.00000000000E+00 -0.00000000000E+00 -0.86301476673E+02  0.86301476673E+02  0.00000000000E+00 0.  1.
         23    2    1    2    0    0  0.00000000000E+00  0.00000000000E+00 -0.63231420034E+02  0.10937153331E+03  0.89240796833E+02 0.  0.
        -11    1    3    3    0    0  0.37460872705E+02 -0.15614178775E+02 -0.88892424054E+01  0.41546819291E+02  0.00000000000E+00 0. -1.
         11    1    3    3    0    0 -0.37460872705E+02  0.15614178775E+02 -0.54342177628E+02  0.67824714021E+02  0.00000000000E+00 0.  1.
<mgrwt>
<rscale>  0 0.89240797E+02</rscale>
<asrwt>0</asrwt>
<pdfrwt beam="1">  1        1 0.35492395E-02 0.89240797E+02</pdfrwt>
<pdfrwt beam="2">  1       -1 0.13277150E-01 0.89240797E+02</pdfrwt>
<totfact> 0.88280301E+04</totfact>
</mgrwt>
</event>
<event>
 5    1  0.5681061E+000  0.9086384E+02  0.7546771E-02  0.1300773E+00
          4   -1    0    0  501    0  0.00000000000E+00  0.00000000000E+00  0.94791958921E+02  0.94791958921E+02  0.00000000000E+00 0. -1.
         -4   -1    0    0    0  501 -0.00000000000E+00 -0.00000000000E+00 -0.21774627167E+02  0.21774627167E+02  0.00000000000E+00 0.  1.
         23    2    1    2    0    0  0.00000000000E+00  0.00000000000E+00  0.73017331753E+02  0.11656658609E+03  0.90863844602E+02 0.  0.
        -11    1    3    3    0    0  0.42142385405E+02  0.10455723303E+02  0.19356687759E+02  0.47539290680E+02  0.00000000000E+00 0.  1.
         11    1    3    3    0    0 -0.42142385405E+02 -0.10455723303E+02  0.53660643995E+02  0.69027295408E+02  0.00000000000E+00 0. -1.
<mgrwt>
<rscale>  0 0.90863845E+02</rscale>
<asrwt>0</asrwt>
<pdfrwt beam="1">  1        4 0.14583378E-01 0.90863845E+02</pdfrwt>
<pdfrwt beam="2">  1       -4 0.33499427E-02 0.90863845E+02</pdfrwt>
<totfact> 0.25706610E+04</totfact>
</mgrwt>
</event>
<event>
 5    1  0.5681061E+000  0.9062281E+02  0.7546771E-02  0.1301350E+00
          3   -1    0    0  501    0  0.00000000000E+00  0.00000000000E+00  0.23415516462E+02  0.23415516462E+02  0.00000000000E+00 0. -1.
         -3   -1    0    0    0  501 -0.00000000000E+00 -0.00000000000E+00 -0.87682180942E+02  0.87682180942E+02  0.00000000000E+00 0.  1.
         23    2    1    2    0    0  0.00000000000E+00  0.00000000000E+00 -0.64266664480E+02  0.11109769740E+03  0.90622812829E+02 0.  0.
        -11    1    3    3    0    0  0.24735358014E+02  0.28283002317E+02 -0.10864801118E+01  0.37589181891E+02  0.00000000000E+00 0. -1.
         11    1    3    3    0    0 -0.24735358014E+02 -0.28283002317E+02 -0.63180184369E+02  0.73508515514E+02  0.00000000000E+00 0.  1.
<mgrwt>
<rscale>  0 0.90622813E+02</rscale>
<asrwt>0</asrwt>
<pdfrwt beam="1">  1        3 0.36023872E-02 0.90622813E+02</pdfrwt>
<pdfrwt beam="2">  1       -3 0.13489566E-01 0.90622813E+02</pdfrwt>
<totfact> 0.34433353E+04</totfact>
</mgrwt>
</event>
<event>
 5    1  0.5681061E+000  0.9255340E+02  0.7546771E-02  0.1296783E+00
         -3   -1    0    0    0  501 -0.00000000000E+00  0.00000000000E+00  0.33974428824E+02  0.33974428824E+02  0.00000000000E+00 0.  1.
          3   -1    0    0  501    0  0.00000000000E+00 -0.00000000000E+00 -0.63033672239E+02  0.63033672239E+02  0.00000000000E+00 0. -1.
         23    2    1    2    0    0  0.00000000000E+00  0.00000000000E+00 -0.29059243415E+02  0.97008101062E+02  0.92553401039E+02 0.  0.
        -11    1    3    3    0    0  0.21619076736E+01 -0.44149240418E+02 -0.16969972916E+00  0.44202466812E+02  0.00000000000E+00 0.  1.
         11    1    3    3    0    0 -0.21619076736E+01  0.44149240418E+02 -0.28889543686E+02  0.52805634251E+02  0.00000000000E+00 0. -1.
<mgrwt>
<rscale>  0 0.92553401E+02</rscale>
<asrwt>0</asrwt>
<pdfrwt beam="2">  1        3 0.96974880E-02 0.92553401E+02</pdfrwt>
<pdfrwt beam="1">  1       -3 0.52268352E-02 0.92553401E+02</pdfrwt>
<totfact> 0.33496156E+04</totfact>
</mgrwt>
</event>
<event>
 5    1  0.5681061E+000  0.9193765E+02  0.7546771E-02  0.1298226E+00
         -1   -1    0    0    0  501 -0.00000000000E+00  0.00000000000E+00  0.19085601759E+02  0.19085601759E+02  0.00000000000E+00 0.  1.
          1   -1    0    0  501    0  0.00000000000E+00 -0.00000000000E+00 -0.11071870179E+03  0.11071870179E+03  0.00000000000E+00 0. -1.
         23    2    1    2    0    0  0.00000000000E+00  0.00000000000E+00 -0.91633100031E+02  0.12980430355E+03  0.91937653866E+02 0.  0.
        -11    1    3    3    0    0 -0.23435835215E+01 -0.28668895949E+02  0.48091940899E+01  0.29163784502E+02  0.00000000000E+00 0.  1.
         11    1    3    3    0    0  0.23435835215E+01  0.28668895949E+02 -0.96442294121E+02  0.10064051905E+03  0.00000000000E+00 0. -1.
<mgrwt>
<rscale>  0 0.91937654E+02</rscale>
<asrwt>0</asrwt>
<pdfrwt beam="2">  1        1 0.17033646E-01 0.91937654E+02</pdfrwt>
<pdfrwt beam="1">  1       -1 0.29362464E-02 0.91937654E+02</pdfrwt>
<totfact> 0.10388096E+05</totfact>
</mgrwt>
</event>
<event>
 5    1  0.5681061E+000  0.9121314E+02  0.7546771E-02  0.1299940E+00
          3   -1    0    0  501    0  0.00000000000E+00  0.00000000000E+00  0.93568981440E+01  0.93568981440E+01  0.00000000000E+00 0. -1.
         -3   -1    0    0    0  501 -0.00000000000E+00 -0.00000000000E+00 -0.22229154691E+03  0.22229154691E+03  0.00000000000E+00 0.  1.
         23    2    1    2    0    0  0.00000000000E+00  0.00000000000E+00 -0.21293464877E+03  0.23164844506E+03  0.91213142972E+02 0.  0.
        -11    1    3    3    0    0 -0.15267261276E+02 -0.34009585810E+02 -0.17318872621E+03  0.17715551383E+03  0.00000000000E+00 0.  1.
         11    1    3    3    0    0  0.15267261276E+02  0.34009585810E+02 -0.39745922562E+02  0.54492931231E+02  0.00000000000E+00 0. -1.
<mgrwt>
<rscale>  0 0.91213143E+02</rscale>
<asrwt>0</asrwt>
<pdfrwt beam="1">  1        3 0.14395229E-02 0.91213143E+02</pdfrwt>
<pdfrwt beam="2">  1       -3 0.34198697E-01 0.91213143E+02</pdfrwt>
<totfact> 0.26908968E+04</totfact>
</mgrwt>
</event>
<event>
 5    1  0.5681061E+000  0.9357015E+02  0.7546771E-02  0.1294429E+00
          1   -1    0    0  501    0  0.00000000000E+00  0.00000000000E+00  0.18053018389E+02  0.18053018389E+02  0.00000000000E+00 0. -1.
         -1   -1    0    0    0  501 -0.00000000000E+00 -0.00000000000E+00 -0.12124528010E+03  0.12124528010E+03  0.00000000000E+00 0.  1.
         23    2    1    2    0    0  0.00000000000E+00  0.00000000000E+00 -0.10319226171E+03  0.13929829849E+03  0.93570150610E+02 0.  0.
        -11    1    3    3    0    0 -0.29490196803E+02  0.25287698772E+02 -0.90408338798E+02  0.98401255789E+02  0.00000000000E+00 0.  1.
         11    1    3    3    0    0  0.29490196803E+02 -0.25287698772E+02 -0.12783922913E+02  0.40897042701E+02  0.00000000000E+00 0. -1.
<mgrwt>
<rscale>  0 0.93570151E+02</rscale>
<asrwt>0</asrwt>
<pdfrwt beam="1">  1        1 0.27773875E-02 0.93570151E+02</pdfrwt>
<pdfrwt beam="2">  1       -1 0.18653119E-01 0.93570151E+02</pdfrwt>
<totfact> 0.73279418E+04</totfact>
</mgrwt>
</event>
<event>
 5    1  0.5681061E+000  0.9213922E+02  0.7546771E-02  0.1297752E+00
          1   -1    0    0  501    0  0.00000000000E+00  0.00000000000E+00  0.20151659646E+03  0.20151659646E+03  0.00000000000E+00 0. -1.
         -1   -1    0    0    0  501 -0.00000000000E+00 -0.00000000000E+00 -0.10532179916E+02  0.10532179916E+02  0.00000000000E+00 0.  1.
         23    2    1    2    0    0  0.00000000000E+00  0.00000000000E+00  0.19098441654E+03  0.21204877638E+03  0.92139221834E+02 0.  0.
        -11    1    3    3    0    0  0.30681766816E+02 -0.27853859351E+02  0.14181837365E+03  0.14774863587E+03  0.00000000000E+00 0. -1.
         11    1    3    3    0    0 -0.30681766816E+02  0.27853859351E+02  0.49166042892E+02  0.64300140508E+02  0.00000000000E+00 0.  1.
<mgrwt>
<rscale>  0 0.92139222E+02</rscale>
<asrwt>0</asrwt>
<pdfrwt beam="1">  1        1 0.31002551E-01 0.92139222E+02</pdfrwt>
<pdfrwt beam="2">  1       -1 0.16203355E-02 0.92139222E+02</pdfrwt>
<totfact> 0.11528324E+05</totfact>
</mgrwt>
</event>
<event>
 5    1  0.5681061E+000  0.1011207E+03  0.7546771E-02  0.1277957E+00
          1   -1    0    0  501    0  0.00000000000E+00  0.00000000000E+00  0.33061863743E+03  0.33061863743E+03  0.00000000000E+00 0. -1.
         -1   -1    0    0    0  501 -0.00000000000E+00 -0.00000000000E+00 -0.77320162805E+01  0.77320162805E+01  0.00000000000E+00 0.  1.
         23    2    1    2    0    0  0.00000000000E+00  0.00000000000E+00  0.32288662115E+03  0.33835065371E+03  0.10112069397E+03 0.  0.
        -11    1    3    3    0    0 -0.48428112751E+02 -0.12933212597E+02  0.18358736120E+03  0.19030730224E+03  0.00000000000E+00 0.  1.
         11    1    3    3    0    0  0.48428112751E+02  0.12933212597E+02  0.13929925994E+03  0.14804335147E+03  0.00000000000E+00 0. -1.
<mgrwt>
<rscale>  0 0.10112069E+03</rscale>
<asrwt>0</asrwt>
<pdfrwt beam="1">  1        1 0.50864395E-01 0.10112069E+03</pdfrwt>
<pdfrwt beam="2">  1       -1 0.11895412E-02 0.10112069E+03</pdfrwt>
<totfact> 0.98905812E+04</totfact>
</mgrwt>
</event>
<event>
 5    1  0.5681061E+000  0.9022020E+02  0.7546771E-02  0.1302319E+00
          1   -1    0    0  501    0  0.00000000000E+00  0.00000000000E+00  0.29977133321E+02  0.29977133321E+02  0.00000000000E+00 0. -1.
         -1   -1    0    0    0  501 -0.00000000000E+00 -0.00000000000E+00 -0.67882442210E+02  0.67882442210E+02  0.00000000000E+00 0.  1.
         23    2    1    2    0    0  0.00000000000E+00  0.00000000000E+00 -0.37905308889E+02  0.97859575532E+02  0.90220197746E+02 0.  0.
        -11    1    3    3    0    0 -0.44735264492E+02 -0.14187158332E+00 -0.12659950820E+02  0.46492347451E+02  0.00000000000E+00 0. -1.
         11    1    3    3    0    0  0.44735264492E+02  0.14187158332E+00 -0.25245358069E+02  0.51367228081E+02  0.00000000000E+00 0.  1.
<mgrwt>
<rscale>  0 0.90220198E+02</rscale>
<asrwt>0</asrwt>
<pdfrwt beam="1">  1        1 0.46118667E-02 0.90220198E+02</pdfrwt>
<pdfrwt beam="2">  1       -1 0.10443452E-01 0.90220198E+02</pdfrwt>
<totfact> 0.89334231E+04</totfact>
</mgrwt>
</event>
<event>
 5    1  0.5681061E+000  0.9286969E+02  0.7546771E-02  0.1296047E+00
          1   -1    0    0  501    0  0.00000000000E+00  0.00000000000E+00  0.44296957074E+03  0.44296957074E+03  0.00000000000E+00 0. -1.
         -1   -1    0    0    0  501 -0.00000000000E+00 -0.00000000000E+00 -0.48675912402E+01  0.48675912402E+01  0.00000000000E+00 0.  1.
         23    2    1    2    0    0  0.00000000000E+00  0.00000000000E+00  0.43810197950E+03  0.44783716198E+03  0.92869689397E+02 0.  0.
        -11    1    3    3    0    0 -0.13803166939E+02 -0.43663818884E+02  0.18196750207E+03  0.18764122230E+03  0.00000000000E+00 0.  1.
         11    1    3    3    0    0  0.13803166939E+02  0.43663818884E+02  0.25613447742E+03  0.26019593967E+03  0.00000000000E+00 0. -1.
<mgrwt>
<rscale>  0 0.92869689E+02</rscale>
<asrwt>0</asrwt>
<pdfrwt beam="1">  1        1 0.68149133E-01 0.92869689E+02</pdfrwt>
<pdfrwt beam="2">  1       -1 0.74886054E-03 0.92869689E+02</pdfrwt>
<totfact> 0.13050956E+05</totfact>
</mgrwt>
</event>
<event>
 5    1  0.5681061E+000  0.9126105E+02  0.7546771E-02  0.1299826E+00
          4   -1    0    0  501    0  0.00000000000E+00  0.00000000000E+00  0.26571797961E+02  0.26571797961E+02  0.00000000000E+00 0. -1.
         -4   -1    0    0    0  501 -0.00000000000E+00 -0.00000000000E+00 -0.78359190775E+02  0.78359190775E+02  0.00000000000E+00 0.  1.
         23    2    1    2    0    0  0.00000000000E+00  0.00000000000E+00 -0.51787392814E+02  0.10493098874E+03  0.91261045044E+02 0.  0.
        -11    1    3    3    0    0 -0.26851779405E+01  0.15518850196E+02 -0.75135028902E+02  0.76767945525E+02  0.00000000000E+00 0.  1.
         11    1    3    3    0    0  0.26851779405E+01 -0.15518850196E+02  0.23347636088E+02  0.28163043211E+02  0.00000000000E+00 0. -1.
<mgrwt>
<rscale>  0 0.91261045E+02</rscale>
<asrwt>0</asrwt>
<pdfrwt beam="1">  1        4 0.40879690E-02 0.91261045E+02</pdfrwt>
<pdfrwt beam="2">  1       -4 0.12055260E-01 0.91261045E+02</pdfrwt>
<totfact> 0.26090990E+04</totfact>
</mgrwt>
</event>
<event>
 5    1  0.5681061E+000  0.9260431E+02  0.7546771E-02  0.1296665E+00
          1   -1    0    0  501    0  0.00000000000E+00  0.00000000000E+00  0.40252110797E+02  0.40252110797E+02  0.00000000000E+00 0. -1.
         -1   -1    0    0    0  501 -0.00000000000E+00 -0.00000000000E+00 -0.53261546159E+02  0.53261546159E+02  0.00000000000E+00 0.  1.
         23    2    1    2    0    0  0.00000000000E+00  0.00000000000E+00 -0.13009435362E+02  0.93513656957E+02  0.92604312151E+02 0.  0.
        -11    1    3    3    0    0  0.28273481898E+02 -0.34236582131E+02  0.67526542470E+01  0.44912489065E+02  0.00000000000E+00 0. -1.
         11    1    3    3    0    0 -0.28273481898E+02  0.34236582131E+02 -0.19762089609E+02  0.48601167891E+02  0.00000000000E+00 0.  1.
<mgrwt>
<rscale>  0 0.92604312E+02</rscale>
<asrwt>0</asrwt>
<pdfrwt beam="1">  1        1 0.61926324E-02 0.92604312E+02</pdfrwt>
<pdfrwt beam="2">  1       -1 0.81940840E-02 0.92604312E+02</pdfrwt>
<totfact> 0.86846547E+04</totfact>
</mgrwt>
</event>
<event>
 5    1  0.5681061E+000  0.8503352E+02  0.7546771E-02  0.1315345E+00
          2   -1    0    0  501    0  0.00000000000E+00  0.00000000000E+00  0.26223626389E+02  0.26223626389E+02  0.00000000000E+00 0. -1.
         -2   -1    0    0    0  501 -0.00000000000E+00 -0.00000000000E+00 -0.68933062811E+02  0.68933062811E+02  0.00000000000E+00 0.  1.
         23    2    1    2    0    0  0.00000000000E+00  0.00000000000E+00 -0.42709436422E+02  0.95156689200E+02  0.85033520097E+02 0.  0.
        -11    1    3    3    0    0 -0.14792372850E+02  0.36462720711E+02 -0.39375600025E+02  0.55666706149E+02  0.00000000000E+00 0.  1.
         11    1    3    3    0    0  0.14792372850E+02 -0.36462720711E+02 -0.33338363971E+01  0.39489983051E+02  0.00000000000E+00 0. -1.
<mgrwt>
<rscale>  0 0.85033520E+02</rscale>
<asrwt>0</asrwt>
<pdfrwt beam="1">  1        2 0.40344041E-02 0.85033520E+02</pdfrwt>
<pdfrwt beam="2">  1       -2 0.10605087E-01 0.85033520E+02</pdfrwt>
<totfact> 0.10498493E+05</totfact>
</mgrwt>
</event>
<event>
 5    1  0.5681061E+000  0.9252931E+02  0.7546771E-02  0.1296840E+00
          1   -1    0    0  501    0  0.00000000000E+00  0.00000000000E+00  0.28185447528E+02  0.28185447528E+02  0.00000000000E+00 0. -1.
         -1   -1    0    0    0  501 -0.00000000000E+00 -0.00000000000E+00 -0.75940553981E+02  0.75940553981E+02  0.00000000000E+00 0.  1.
         23    2    1    2    0    0  0.00000000000E+00  0.00000000000E+00 -0.47755106454E+02  0.10412600151E+03  0.92529314262E+02 0.  0.
        -11    1    3    3    0    0 -0.39460843069E+02  0.23229065576E+02 -0.31314176831E+02  0.55473645038E+02  0.00000000000E+00 0. -1.
         11    1    3    3    0    0  0.39460843069E+02 -0.23229065576E+02 -0.16440929623E+02  0.48652356470E+02  0.00000000000E+00 0.  1.
<mgrwt>
<rscale>  0 0.92529314E+02</rscale>
<asrwt>0</asrwt>
<pdfrwt beam="1">  1        1 0.43362227E-02 0.92529314E+02</pdfrwt>
<pdfrwt beam="2">  1       -1 0.11683162E-01 0.92529314E+02</pdfrwt>
<totfact> 0.82234703E+04</totfact>
</mgrwt>
</event>
<event>
 5    1  0.5681061E+000  0.9079682E+02  0.7546771E-02  0.1300933E+00
         -1   -1    0    0    0  501 -0.00000000000E+00  0.00000000000E+00  0.14462867223E+02  0.14462867223E+02  0.00000000000E+00 0.  1.
          1   -1    0    0  501    0  0.00000000000E+00 -0.00000000000E+00 -0.14250394412E+03  0.14250394412E+03  0.00000000000E+00 0. -1.
         23    2    1    2    0    0  0.00000000000E+00  0.00000000000E+00 -0.12804107690E+03  0.15696681135E+03  0.90796819827E+02 0.  0.
        -11    1    3    3    0    0  0.20927131587E+02  0.35226766904E+02 -0.30225598778E+02  0.50916173898E+02  0.00000000000E+00 0.  1.
         11    1    3    3    0    0 -0.20927131587E+02 -0.35226766904E+02 -0.97815478124E+02  0.10605063745E+03  0.00000000000E+00 0. -1.
<mgrwt>
<rscale>  0 0.90796820E+02</rscale>
<asrwt>0</asrwt>
<pdfrwt beam="2">  1        1 0.21923685E-01 0.90796820E+02</pdfrwt>
<pdfrwt beam="1">  1       -1 0.22250564E-02 0.90796820E+02</pdfrwt>
<totfact> 0.11234633E+05</totfact>
</mgrwt>
</event>
<event>
 5    1  0.5681061E+000  0.9121157E+02  0.7546771E-02  0.1299944E+00
          1   -1    0    0  501    0  0.00000000000E+00  0.00000000000E+00  0.28172350450E+02  0.28172350450E+02  0.00000000000E+00 0. -1.
         -1   -1    0    0    0  501 -0.00000000000E+00 -0.00000000000E+00 -0.73827272450E+02  0.73827272450E+02  0.00000000000E+00 0.  1.
         23    2    1    2    0    0  0.00000000000E+00  0.00000000000E+00 -0.45654922000E+02  0.10199962290E+03  0.91211573658E+02 0.  0.
        -11    1    3    3    0    0  0.78262198714E+01  0.22353429330E+02 -0.66410961747E+02  0.70507739720E+02  0.00000000000E+00 0.  1.
         11    1    3    3    0    0 -0.78262198714E+01 -0.22353429330E+02  0.20756039747E+02  0.31491883181E+02  0.00000000000E+00 0. -1.
<mgrwt>
<rscale>  0 0.91211574E+02</rscale>
<asrwt>0</asrwt>
<pdfrwt beam="1">  1        1 0.43342078E-02 0.91211574E+02</pdfrwt>
<pdfrwt beam="2">  1       -1 0.11358042E-01 0.91211574E+02</pdfrwt>
<totfact> 0.85707899E+04</totfact>
</mgrwt>
</event>
<event>
 5    1  0.5681061E+000  0.8956094E+02  0.7546771E-02  0.1303918E+00
          2   -1    0    0  501    0  0.00000000000E+00  0.00000000000E+00  0.45252908987E+02  0.45252908987E+02  0.00000000000E+00 0. -1.
         -2   -1    0    0    0  501 -0.00000000000E+00 -0.00000000000E+00 -0.44312962016E+02  0.44312962016E+02  0.00000000000E+00 0.  1.
         23    2    1    2    0    0  0.00000000000E+00  0.00000000000E+00  0.93994697107E+00  0.89565871003E+02  0.89560938741E+02 0.  0.
        -11    1    3    3    0    0  0.36445387627E+02  0.63994019424E+01 -0.24751879607E+02  0.44518245345E+02  0.00000000000E+00 0.  1.
         11    1    3    3    0    0 -0.36445387627E+02 -0.63994019424E+01  0.25691826578E+02  0.45047625658E+02  0.00000000000E+00 0. -1.
<mgrwt>
<rscale>  0 0.89560939E+02</rscale>
<asrwt>0</asrwt>
<pdfrwt beam="1">  1        2 0.69619860E-02 0.89560939E+02</pdfrwt>
<pdfrwt beam="2">  1       -2 0.68173787E-02 0.89560939E+02</pdfrwt>
<totfact> 0.10366021E+05</totfact>
</mgrwt>
</event>
<event>
 5    1  0.5681061E+000  0.9127123E+02  0.7546771E-02  0.1299802E+00
         -4   -1    0    0    0  501 -0.00000000000E+00  0.00000000000E+00  0.83052258802E+02  0.83052258802E+02  0.00000000000E+00 0. -1.
          4   -1    0    0  501    0  0.00000000000E+00 -0.00000000000E+00 -0.25075887884E+02  0.25075887884E+02  0.00000000000E+00 0.  1.
         23    2    1    2    0    0  0.00000000000E+00  0.00000000000E+00  0.57976370918E+02  0.10812814669E+03  0.91271225043E+02 0.  0.
        -11    1    3    3    0    0  0.38801964830E+02  0.12303214292E+02  0.45465669838E+01  0.40958916342E+02  0.00000000000E+00 0.  1.
         11    1    3    3    0    0 -0.38801964830E+02 -0.12303214292E+02  0.53429803934E+02  0.67169230344E+02  0.00000000000E+00 0. -1.
<mgrwt>
<rscale>  0 0.91271225E+02</rscale>
<asrwt>0</asrwt>
<pdfrwt beam="2">  1        4 0.38578289E-02 0.91271225E+02</pdfrwt>
<pdfrwt beam="1">  1       -4 0.12777270E-01 0.91271225E+02</pdfrwt>
<totfact> 0.25891449E+04</totfact>
</mgrwt>
</event>
<event>
 5    1  0.5681061E+000  0.9162131E+02  0.7546771E-02  0.1298972E+00
          2   -1    0    0  501    0  0.00000000000E+00  0.00000000000E+00  0.76112236351E+02  0.76112236351E+02  0.00000000000E+00 0. -1.
         -2   -1    0    0    0  501 -0.00000000000E+00 -0.00000000000E+00 -0.27572651392E+02  0.27572651392E+02  0.00000000000E+00 0.  1.
         23    2    1    2    0    0  0.00000000000E+00  0.00000000000E+00  0.48539584959E+02  0.10368488774E+03  0.91621311049E+02 0.  0.
        -11    1    3    3    0    0  0.24050560729E+02 -0.37888422018E+02  0.13857577522E+02  0.46968015172E+02  0.00000000000E+00 0.  1.
         11    1    3    3    0    0 -0.24050560729E+02  0.37888422018E+02  0.34682007436E+02  0.56716872571E+02  0.00000000000E+00 0. -1.
<mgrwt>
<rscale>  0 0.91621311E+02</rscale>
<asrwt>0</asrwt>
<pdfrwt beam="1">  1        2 0.11709575E-01 0.91621311E+02</pdfrwt>
<pdfrwt beam="2">  1       -2 0.42419464E-02 0.91621311E+02</pdfrwt>
<totfact> 0.11171508E+05</totfact>
</mgrwt>
</event>
<event>
 5    1  0.5681061E+000  0.9237997E+02  0.7546771E-02  0.1297188E+00
          2   -1    0    0  501    0  0.00000000000E+00  0.00000000000E+00  0.12165647502E+03  0.12165647502E+03  0.00000000000E+00 0. -1.
         -2   -1    0    0    0  501 -0.00000000000E+00 -0.00000000000E+00 -0.17537208037E+02  0.17537208037E+02  0.00000000000E+00 0.  1.
         23    2    1    2    0    0  0.00000000000E+00  0.00000000000E+00  0.10411926699E+03  0.13919368306E+03  0.92379974270E+02 0.  0.
        -11    1    3    3    0    0 -0.38643071742E+02  0.24935619818E+02  0.58530387760E+02  0.74437076923E+02  0.00000000000E+00 0.  1.
         11    1    3    3    0    0  0.38643071742E+02 -0.24935619818E+02  0.45588879225E+02  0.64756606137E+02  0.00000000000E+00 0. -1.
<mgrwt>
<rscale>  0 0.92379974E+02</rscale>
<asrwt>0</asrwt>
<pdfrwt beam="1">  1        2 0.18716380E-01 0.92379974E+02</pdfrwt>
<pdfrwt beam="2">  1       -2 0.26980321E-02 0.92379974E+02</pdfrwt>
<totfact> 0.12583861E+05</totfact>
</mgrwt>
</event>
<event>
 5    1  0.5681061E+000  0.9052070E+02  0.7546771E-02  0.1301596E+00
         -4   -1    0    0    0  501 -0.00000000000E+00  0.00000000000E+00  0.14131602712E+03  0.14131602712E+03  0.00000000000E+00 0.  1.
          4   -1    0    0  501    0  0.00000000000E+00 -0.00000000000E+00 -0.14495872410E+02  0.14495872410E+02  0.00000000000E+00 0. -1.
         23    2    1    2    0    0  0.00000000000E+00  0.00000000000E+00  0.12682015471E+03  0.15581189953E+03  0.90520695946E+02 0.  0.
        -11    1    3    3    0    0 -0.66263667293E+00 -0.43771095556E+02  0.83197457703E+02  0.94011514517E+02  0.00000000000E+00 0.  1.
         11    1    3    3    0    0  0.66263667293E+00  0.43771095556E+02  0.43622697004E+02  0.61800385011E+02  0.00000000000E+00 0. -1.
<mgrwt>
<rscale>  0 0.90520696E+02</rscale>
<asrwt>0</asrwt>
<pdfrwt beam="2">  1        4 0.22301343E-02 0.90520696E+02</pdfrwt>
<pdfrwt beam="1">  1       -4 0.21740926E-01 0.90520696E+02</pdfrwt>
<totfact> 0.23842595E+04</totfact>
</mgrwt>
</event>
<event>
 5    1  0.5681061E+000  0.8786596E+02  0.7546771E-02  0.1308103E+00
         -1   -1    0    0    0  501 -0.00000000000E+00  0.00000000000E+00  0.74582748182E+02  0.74582748182E+02  0.00000000000E+00 0.  1.
          1   -1    0    0  501    0  0.00000000000E+00 -0.00000000000E+00 -0.25878728240E+02  0.25878728240E+02  0.00000000000E+00 0. -1.
         23    2    1    2    0    0  0.00000000000E+00  0.00000000000E+00  0.48704019942E+02  0.10046147642E+03  0.87865958633E+02 0.  0.
        -11    1    3    3    0    0 -0.31402708461E+01  0.32605336357E+02 -0.91217216997E+01  0.34002574413E+02  0.00000000000E+00 0. -1.
         11    1    3    3    0    0  0.31402708461E+01 -0.32605336357E+02  0.57825741641E+02  0.66458902010E+02  0.00000000000E+00 0.  1.
<mgrwt>
<rscale>  0 0.87865959E+02</rscale>
<asrwt>0</asrwt>
<pdfrwt beam="2">  1        1 0.39813428E-02 0.87865959E+02</pdfrwt>
<pdfrwt beam="1">  1       -1 0.11474269E-01 0.87865959E+02</pdfrwt>
<totfact> 0.94123376E+04</totfact>
</mgrwt>
</event>
<event>
 5    1  0.5681061E+000  0.9042083E+02  0.7546771E-02  0.1301836E+00
         -2   -1    0    0    0  501 -0.00000000000E+00  0.00000000000E+00  0.18536067104E+02  0.18536067104E+02  0.00000000000E+00 0.  1.
          2   -1    0    0  501    0  0.00000000000E+00 -0.00000000000E+00 -0.11027050763E+03  0.11027050763E+03  0.00000000000E+00 0. -1.
         23    2    1    2    0    0  0.00000000000E+00  0.00000000000E+00 -0.91734440528E+02  0.12880657474E+03  0.90420827888E+02 0.  0.
        -11    1    3    3    0    0  0.21659736354E+02  0.15709348653E+02 -0.97780369188E+02  0.10137518637E+03  0.00000000000E+00 0. -1.
         11    1    3    3    0    0 -0.21659736354E+02 -0.15709348653E+02  0.60459286599E+01  0.27431388360E+02  0.00000000000E+00 0.  1.
<mgrwt>
<rscale>  0 0.90420828E+02</rscale>
<asrwt>0</asrwt>
<pdfrwt beam="2">  1        2 0.16964694E-01 0.90420828E+02</pdfrwt>
<pdfrwt beam="1">  1       -2 0.28517026E-02 0.90420828E+02</pdfrwt>
<totfact> 0.12935172E+05</totfact>
</mgrwt>
</event>
<event>
 5    1  0.5681061E+000  0.9310453E+02  0.7546771E-02  0.1295503E+00
         -1   -1    0    0    0  501 -0.00000000000E+00  0.00000000000E+00  0.16028661502E+02  0.16028661502E+02  0.00000000000E+00 0.  1.
          1   -1    0    0  501    0  0.00000000000E+00 -0.00000000000E+00 -0.13520238896E+03  0.13520238896E+03  0.00000000000E+00 0. -1.
         23    2    1    2    0    0  0.00000000000E+00  0.00000000000E+00 -0.11917372746E+03  0.15123105046E+03  0.93104528933E+02 0.  0.
        -11    1    3    3    0    0 -0.43335388846E+02  0.16956041308E+02 -0.57500353503E+02  0.73971304681E+02  0.00000000000E+00 0.  1.
         11    1    3    3    0    0  0.43335388846E+02 -0.16956041308E+02 -0.61673373955E+02  0.77259745782E+02  0.00000000000E+00 0. -1.
<mgrwt>
<rscale>  0 0.93104529E+02</rscale>
<asrwt>0</asrwt>
<pdfrwt beam="2">  1        1 0.20800367E-01 0.93104529E+02</pdfrwt>
<pdfrwt beam="1">  1       -1 0.24659480E-02 0.93104529E+02</pdfrwt>
<totfact> 0.10397101E+05</totfact>
</mgrwt>
</event>
<event>
 5    1  0.5681061E+000  0.8474233E+02  0.7546771E-02  0.1316108E+00
          2   -1    0    0  501    0  0.00000000000E+00  0.00000000000E+00  0.51941905446E+01  0.51941905446E+01  0.00000000000E+00 0.  1.
         -2   -1    0    0    0  501 -0.00000000000E+00 -0.00000000000E+00 -0.34563912519E+03  0.34563912519E+03  0.00000000000E+00 0. -1.
         23    2    1    2    0    0  0.00000000000E+00  0.00000000000E+00 -0.34044493465E+03  0.35083331574E+03  0.84742326518E+02 0.  0.
        -11    1    3    3    0    0 -0.72271482506E+01  0.38915744123E+02 -0.23282397296E+03  0.23616449605E+03  0.00000000000E+00 0.  1.
         11    1    3    3    0    0  0.72271482506E+01 -0.38915744123E+02 -0.10762096169E+03  0.11466881969E+03  0.00000000000E+00 0. -1.
<mgrwt>
<rscale>  0 0.84742327E+02</rscale>
<asrwt>0</asrwt>
<pdfrwt beam="1">  1        2 0.79910638E-03 0.84742327E+02</pdfrwt>
<pdfrwt beam="2">  1       -2 0.53175240E-01 0.84742327E+02</pdfrwt>
<totfact> 0.56644433E+04</totfact>
</mgrwt>
</event>
<event>
 5    1  0.5681061E+000  0.9156442E+02  0.7546771E-02  0.1299107E+00
          1   -1    0    0  501    0  0.00000000000E+00  0.00000000000E+00  0.70740130070E+02  0.70740130070E+02  0.00000000000E+00 0. -1.
         -1   -1    0    0    0  501 -0.00000000000E+00 -0.00000000000E+00 -0.29629729572E+02  0.29629729572E+02  0.00000000000E+00 0.  1.
         23    2    1    2    0    0  0.00000000000E+00  0.00000000000E+00  0.41110400499E+02  0.10036985964E+03  0.91564423743E+02 0.  0.
        -11    1    3    3    0    0  0.29691838344E+02  0.27748124922E+02  0.43664492704E+02  0.59650244124E+02  0.00000000000E+00 0.  1.
         11    1    3    3    0    0 -0.29691838344E+02 -0.27748124922E+02 -0.25540922050E+01  0.40719615518E+02  0.00000000000E+00 0. -1.
<mgrwt>
<rscale>  0 0.91564424E+02</rscale>
<asrwt>0</asrwt>
<pdfrwt beam="1">  1        1 0.10883097E-01 0.91564424E+02</pdfrwt>
<pdfrwt beam="2">  1       -1 0.45584200E-02 0.91564424E+02</pdfrwt>
<totfact> 0.97676937E+04</totfact>
</mgrwt>
</event>
<event>
 5    1  0.5681061E+000  0.9149474E+02  0.7546771E-02  0.1299272E+00
          1   -1    0    0  501    0  0.00000000000E+00  0.00000000000E+00  0.46340125286E+02  0.46340125286E+02  0.00000000000E+00 0. -1.
         -1   -1    0    0    0  501 -0.00000000000E+00 -0.00000000000E+00 -0.45162201179E+02  0.45162201179E+02  0.00000000000E+00 0.  1.
         23    2    1    2    0    0  0.00000000000E+00  0.00000000000E+00  0.11779241075E+01  0.91502326465E+02  0.91494744348E+02 0.  0.
        -11    1    3    3    0    0  0.24055349220E+02 -0.38303846979E+02  0.74435464805E+01  0.45839403396E+02  0.00000000000E+00 0.  1.
         11    1    3    3    0    0 -0.24055349220E+02  0.38303846979E+02 -0.62656223729E+01  0.45662923069E+02  0.00000000000E+00 0. -1.
<mgrwt>
<rscale>  0 0.91494744E+02</rscale>
<asrwt>0</asrwt>
<pdfrwt beam="1">  1        1 0.71292500E-02 0.91494744E+02</pdfrwt>
<pdfrwt beam="2">  1       -1 0.69480310E-02 0.91494744E+02</pdfrwt>
<totfact> 0.91798154E+04</totfact>
</mgrwt>
</event>
<event>
 5    1  0.5681061E+000  0.9201441E+02  0.7546771E-02  0.1298046E+00
         -2   -1    0    0    0  501 -0.00000000000E+00  0.00000000000E+00  0.61534391943E+02  0.61534391943E+02  0.00000000000E+00 0. -1.
          2   -1    0    0  501    0  0.00000000000E+00 -0.00000000000E+00 -0.34398045091E+02  0.34398045091E+02  0.00000000000E+00 0.  1.
         23    2    1    2    0    0  0.00000000000E+00  0.00000000000E+00  0.27136346852E+02  0.95932437033E+02  0.92014407321E+02 0.  0.
        -11    1    3    3    0    0  0.44033747912E+01 -0.33435246948E+02  0.46195405766E+02  0.57195462774E+02  0.00000000000E+00 0. -1.
         11    1    3    3    0    0 -0.44033747912E+01  0.33435246948E+02 -0.19059058914E+02  0.38736974259E+02  0.00000000000E+00 0.  1.
<mgrwt>
<rscale>  0 0.92014407E+02</rscale>
<asrwt>0</asrwt>
<pdfrwt beam="2">  1        2 0.52920069E-02 0.92014407E+02</pdfrwt>
<pdfrwt beam="1">  1       -2 0.94668295E-02 0.92014407E+02</pdfrwt>
<totfact> 0.89289109E+04</totfact>
</mgrwt>
</event>
<event>
 5    1  0.5681061E+000  0.8838046E+02  0.7546771E-02  0.1306822E+00
          2   -1    0    0  501    0  0.00000000000E+00  0.00000000000E+00  0.94125955194E+02  0.94125955194E+02  0.00000000000E+00 0. -1.
         -2   -1    0    0    0  501 -0.00000000000E+00 -0.00000000000E+00 -0.20746416213E+02  0.20746416213E+02  0.00000000000E+00 0.  1.
         23    2    1    2    0    0  0.00000000000E+00  0.00000000000E+00  0.73379538981E+02  0.11487237141E+03  0.88380455823E+02 0.  0.
        -11    1    3    3    0    0  0.17730959212E+02  0.92000045933E-02  0.89299720041E+02  0.91042995330E+02  0.00000000000E+00 0. -1.
         11    1    3    3    0    0 -0.17730959212E+02 -0.92000045933E-02 -0.15920181060E+02  0.23829376077E+02  0.00000000000E+00 0.  1.
<mgrwt>
<rscale>  0 0.88380456E+02</rscale>
<asrwt>0</asrwt>
<pdfrwt beam="1">  1        2 0.14480916E-01 0.88380456E+02</pdfrwt>
<pdfrwt beam="2">  1       -2 0.31917564E-02 0.88380456E+02</pdfrwt>
<totfact> 0.13123194E+05</totfact>
</mgrwt>
</event>
<event>
 5    1  0.5681061E+000  0.1155614E+03  0.7546771E-02  0.1250604E+00
         -1   -1    0    0    0  501 -0.00000000000E+00  0.00000000000E+00  0.26706451904E+02  0.26706451904E+02  0.00000000000E+00 0.  1.
          1   -1    0    0  501    0  0.00000000000E+00 -0.00000000000E+00 -0.12501128966E+03  0.12501128966E+03  0.00000000000E+00 0. -1.
         23    2    1    2    0    0  0.00000000000E+00  0.00000000000E+00 -0.98304837759E+02  0.15171774157E+03  0.11556137754E+03 0.  0.
        -11    1    3    3    0    0  0.18797285911E+02 -0.48275192556E+02 -0.15557780086E+02  0.54091373574E+02  0.00000000000E+00 0.  1.
         11    1    3    3    0    0 -0.18797285911E+02  0.48275192556E+02 -0.82747057673E+02  0.97626367993E+02  0.00000000000E+00 0. -1.
<mgrwt>
<rscale>  0 0.11556138E+03</rscale>
<asrwt>0</asrwt>
<pdfrwt beam="2">  1        1 0.19232506E-01 0.11556138E+03</pdfrwt>
<pdfrwt beam="1">  1       -1 0.41086849E-02 0.11556138E+03</pdfrwt>
<totfact> 0.56525017E+04</totfact>
</mgrwt>
</event>
<event>
 5    1  0.5681061E+000  0.8716326E+02  0.7546771E-02  0.1309870E+00
         -2   -1    0    0    0  501 -0.00000000000E+00  0.00000000000E+00  0.58799556523E+02  0.58799556523E+02  0.00000000000E+00 0.  1.
          2   -1    0    0  501    0  0.00000000000E+00 -0.00000000000E+00 -0.32302259249E+02  0.32302259249E+02  0.00000000000E+00 0. -1.
         23    2    1    2    0    0  0.00000000000E+00  0.00000000000E+00  0.26497297275E+02  0.91101815772E+02  0.87163261034E+02 0.  0.
        -11    1    3    3    0    0  0.11799812918E+02  0.35777086409E+02 -0.96531624720E+01  0.38889832122E+02  0.00000000000E+00 0. -1.
         11    1    3    3    0    0 -0.11799812918E+02 -0.35777086409E+02  0.36150459747E+02  0.52211983650E+02  0.00000000000E+00 0.  1.
<mgrwt>
<rscale>  0 0.87163261E+02</rscale>
<asrwt>0</asrwt>
<pdfrwt beam="2">  1        2 0.49695784E-02 0.87163261E+02</pdfrwt>
<pdfrwt beam="1">  1       -2 0.90460856E-02 0.87163261E+02</pdfrwt>
<totfact> 0.10293950E+05</totfact>
</mgrwt>
</event>
<event>
 5    1  0.5681061E+000  0.9010578E+02  0.7546771E-02  0.1302596E+00
          2   -1    0    0  501    0  0.00000000000E+00  0.00000000000E+00  0.10503837272E+02  0.10503837272E+02  0.00000000000E+00 0. -1.
         -2   -1    0    0    0  501 -0.00000000000E+00 -0.00000000000E+00 -0.19324012978E+03  0.19324012978E+03  0.00000000000E+00 0.  1.
         23    2    1    2    0    0  0.00000000000E+00  0.00000000000E+00 -0.18273629251E+03  0.20374396705E+03  0.90105779562E+02 0.  0.
        -11    1    3    3    0    0 -0.20024996284E+02 -0.24633097431E+02 -0.19082544287E+02  0.37039620161E+02  0.00000000000E+00 0. -1.
         11    1    3    3    0    0  0.20024996284E+02  0.24633097431E+02 -0.16365374822E+03  0.16670434689E+03  0.00000000000E+00 0.  1.
<mgrwt>
<rscale>  0 0.90105780E+02</rscale>
<asrwt>0</asrwt>
<pdfrwt beam="1">  1        2 0.16159751E-02 0.90105780E+02</pdfrwt>
<pdfrwt beam="2">  1       -2 0.29729248E-01 0.90105780E+02</pdfrwt>
<totfact> 0.65178041E+04</totfact>
</mgrwt>
</event>
<event>
 5    1  0.5681061E+000  0.9162834E+02  0.7546771E-02  0.1298956E+00
         -3   -1    0    0    0  501 -0.00000000000E+00  0.00000000000E+00  0.87878951959E+02  0.87878951959E+02  0.00000000000E+00 0.  1.
          3   -1    0    0  501    0  0.00000000000E+00 -0.00000000000E+00 -0.23884424196E+02  0.23884424196E+02  0.00000000000E+00 0. -1.
         23    2    1    2    0    0  0.00000000000E+00  0.00000000000E+00  0.63994527764E+02  0.11176337616E+03  0.91628339862E+02 0.  0.
        -11    1    3    3    0    0  0.36293138868E+02  0.23794672999E+02  0.14088997131E+02  0.45627603840E+02  0.00000000000E+00 0. -1.
         11    1    3    3    0    0 -0.36293138868E+02 -0.23794672999E+02  0.49905530632E+02  0.66135772315E+02  0.00000000000E+00 0.  1.
<mgrwt>
<rscale>  0 0.91628340E+02</rscale>
<asrwt>0</asrwt>
<pdfrwt beam="2">  1        3 0.36745268E-02 0.91628340E+02</pdfrwt>
<pdfrwt beam="1">  1       -3 0.13519839E-01 0.91628340E+02</pdfrwt>
<totfact> 0.33369186E+04</totfact>
</mgrwt>
</event>
<event>
 5    1  0.5681061E+000  0.9182112E+02  0.7546771E-02  0.1298501E+00
         -2   -1    0    0    0  501 -0.00000000000E+00  0.00000000000E+00  0.34957565374E+02  0.34957565374E+02  0.00000000000E+00 0.  1.
          2   -1    0    0  501    0  0.00000000000E+00 -0.00000000000E+00 -0.60295375433E+02  0.60295375433E+02  0.00000000000E+00 0. -1.
         23    2    1    2    0    0  0.00000000000E+00  0.00000000000E+00 -0.25337810059E+02  0.95252940807E+02  0.91821120194E+02 0.  0.
        -11    1    3    3    0    0  0.13498233453E+02  0.15027840981E+02  0.30099909146E+02  0.36249728847E+02  0.00000000000E+00 0.  1.
         11    1    3    3    0    0 -0.13498233453E+02 -0.15027840981E+02 -0.55437719205E+02  0.59003211959E+02  0.00000000000E+00 0. -1.
<mgrwt>
<rscale>  0 0.91821120E+02</rscale>
<asrwt>0</asrwt>
<pdfrwt beam="2">  1        2 0.92762115E-02 0.91821120E+02</pdfrwt>
<pdfrwt beam="1">  1       -2 0.53780870E-02 0.91821120E+02</pdfrwt>
<totfact> 0.10411782E+05</totfact>
</mgrwt>
</event>
<event>
 5    1  0.5681061E+000  0.9132368E+02  0.7546771E-02  0.1299678E+00
          2   -1    0    0  501    0  0.00000000000E+00  0.00000000000E+00  0.11831726264E+02  0.11831726264E+02  0.00000000000E+00 0. -1.
         -2   -1    0    0    0  501 -0.00000000000E+00 -0.00000000000E+00 -0.17622143574E+03  0.17622143574E+03  0.00000000000E+00 0.  1.
         23    2    1    2    0    0  0.00000000000E+00  0.00000000000E+00 -0.16438970948E+03  0.18805316200E+03  0.91323683444E+02 0.  0.
        -11    1    3    3    0    0  0.40867109528E+02  0.20352222451E+02 -0.80509093524E+02  0.92552945604E+02  0.00000000000E+00 0.  1.
         11    1    3    3    0    0 -0.40867109528E+02 -0.20352222451E+02 -0.83880615952E+02  0.95500216399E+02  0.00000000000E+00 0. -1.
<mgrwt>
<rscale>  0 0.91323683E+02</rscale>
<asrwt>0</asrwt>
<pdfrwt beam="1">  1        2 0.18202656E-02 0.91323683E+02</pdfrwt>
<pdfrwt beam="2">  1       -2 0.27110989E-01 0.91323683E+02</pdfrwt>
<totfact> 0.65424366E+04</totfact>
</mgrwt>
</event>
<event>
 5    1  0.5681061E+000  0.9000992E+02  0.7546771E-02  0.1302828E+00
         -1   -1    0    0    0  501 -0.00000000000E+00  0.00000000000E+00  0.14868542479E+03  0.14868542479E+03  0.00000000000E+00 0.  1.
          1   -1    0    0  501    0  0.00000000000E+00 -0.00000000000E+00 -0.13622361538E+02  0.13622361538E+02  0.00000000000E+00 0. -1.
         23    2    1    2    0    0  0.00000000000E+00  0.00000000000E+00  0.13506306325E+03  0.16230778632E+03  0.90009924162E+02 0.  0.
        -11    1    3    3    0    0  0.10986331931E+02 -0.34682744000E+02  0.11530342667E+03  0.12090687500E+03  0.00000000000E+00 0.  1.
         11    1    3    3    0    0 -0.10986331931E+02  0.34682744000E+02  0.19759636577E+02  0.41400911323E+02  0.00000000000E+00 0. -1.
<mgrwt>
<rscale>  0 0.90009924E+02</rscale>
<asrwt>0</asrwt>
<pdfrwt beam="2">  1        1 0.20957480E-02 0.90009924E+02</pdfrwt>
<pdfrwt beam="1">  1       -1 0.22874680E-01 0.90009924E+02</pdfrwt>
<totfact> 0.77487224E+04</totfact>
</mgrwt>
</event>
<event>
 5    1  0.5681061E+000  0.9203916E+02  0.7546771E-02  0.1297987E+00
          2   -1    0    0  501    0  0.00000000000E+00  0.00000000000E+00  0.17338246129E+03  0.17338246129E+03  0.00000000000E+00 0. -1.
         -2   -1    0    0    0  501 -0.00000000000E+00 -0.00000000000E+00 -0.12214625817E+02  0.12214625817E+02  0.00000000000E+00 0.  1.
         23    2    1    2    0    0  0.00000000000E+00  0.00000000000E+00  0.16116783547E+03  0.18559708711E+03  0.92039163140E+02 0.  0.
        -11    1    3    3    0    0  0.13956594551E+02  0.43151743689E+02  0.64841980550E+02  0.79128641822E+02  0.00000000000E+00 0. -1.
         11    1    3    3    0    0 -0.13956594551E+02 -0.43151743689E+02  0.96325854924E+02  0.10646844529E+03  0.00000000000E+00 0.  1.
<mgrwt>
<rscale>  0 0.92039163E+02</rscale>
<asrwt>0</asrwt>
<pdfrwt beam="1">  1        2 0.26674223E-01 0.92039163E+02</pdfrwt>
<pdfrwt beam="2">  1       -2 0.18791733E-02 0.92039163E+02</pdfrwt>
<totfact> 0.14329239E+05</totfact>
</mgrwt>
</event>
<event>
 5    1  0.5681061E+000  0.9588977E+02  0.7546771E-02  0.1289185E+00
         -1   -1    0    0    0  501 -0.00000000000E+00  0.00000000000E+00  0.90186363057E+01  0.90186363057E+01  0.00000000000E+00 0.  1.
          1   -1    0    0  501    0  0.00000000000E+00 -0.00000000000E+00 -0.25488465085E+03  0.25488465085E+03  0.00000000000E+00 0. -1.
         23    2    1    2    0    0  0.00000000000E+00  0.00000000000E+00 -0.24586601454E+03  0.26390328715E+03  0.95889769337E+02 0.  0.
        -11    1    3    3    0    0 -0.23988832424E+02  0.26218235125E+02 -0.34355921648E+02  0.49428628207E+02  0.00000000000E+00 0.  1.
         11    1    3    3    0    0  0.23988832424E+02 -0.26218235125E+02 -0.21151009289E+03  0.21447465895E+03  0.00000000000E+00 0. -1.
<mgrwt>
<rscale>  0 0.95889769E+02</rscale>
<asrwt>0</asrwt>
<pdfrwt beam="2">  1        1 0.39213025E-01 0.95889769E+02</pdfrwt>
<pdfrwt beam="1">  1       -1 0.13874824E-02 0.95889769E+02</pdfrwt>
<totfact> 0.10845594E+05</totfact>
</mgrwt>
</event>
<event>
 5    1  0.5681061E+000  0.9060068E+02  0.7546771E-02  0.1301404E+00
          2   -1    0    0  501    0  0.00000000000E+00  0.00000000000E+00  0.14816092012E+03  0.14816092012E+03  0.00000000000E+00 0. -1.
         -2   -1    0    0    0  501 -0.00000000000E+00 -0.00000000000E+00 -0.13850622060E+02  0.13850622060E+02  0.00000000000E+00 0.  1.
         23    2    1    2    0    0  0.00000000000E+00  0.00000000000E+00  0.13431029806E+03  0.16201154218E+03  0.90600682307E+02 0.  0.
        -11    1    3    3    0    0 -0.48260778823E+01 -0.44886917166E+02  0.60465644851E+02  0.75460059420E+02  0.00000000000E+00 0.  1.
         11    1    3    3    0    0  0.48260778823E+01  0.44886917166E+02  0.73844653205E+02  0.86551482757E+02  0.00000000000E+00 0. -1.
<mgrwt>
<rscale>  0 0.90600682E+02</rscale>
<asrwt>0</asrwt>
<pdfrwt beam="1">  1        2 0.22793987E-01 0.90600682E+02</pdfrwt>
<pdfrwt beam="2">  1       -2 0.21308650E-02 0.90600682E+02</pdfrwt>
<totfact> 0.14164010E+05</totfact>
</mgrwt>
</event>
<event>
 5    1  0.5681061E+000  0.9036966E+02  0.7546771E-02  0.1301959E+00
         -3   -1    0    0    0  501 -0.00000000000E+00  0.00000000000E+00  0.32650253877E+02  0.32650253877E+02  0.00000000000E+00 0.  1.
          3   -1    0    0  501    0  0.00000000000E+00 -0.00000000000E+00 -0.62531482243E+02  0.62531482243E+02  0.00000000000E+00 0. -1.
         23    2    1    2    0    0  0.00000000000E+00  0.00000000000E+00 -0.29881228366E+02  0.95181736119E+02  0.90369657972E+02 0.  0.
        -11    1    3    3    0    0 -0.25302995335E+02  0.18126715666E+01  0.24442180776E+02  0.35227085492E+02  0.00000000000E+00 0.  1.
         11    1    3    3    0    0  0.25302995335E+02 -0.18126715666E+01 -0.54323409141E+02  0.59954650628E+02  0.00000000000E+00 0. -1.
<mgrwt>
<rscale>  0 0.90369658E+02</rscale>
<asrwt>0</asrwt>
<pdfrwt beam="2">  1        3 0.96202279E-02 0.90369658E+02</pdfrwt>
<pdfrwt beam="1">  1       -3 0.50231160E-02 0.90369658E+02</pdfrwt>
<totfact> 0.35889582E+04</totfact>
</mgrwt>
</event>
<event>
 5    1  0.5681061E+000  0.9268421E+02  0.7546771E-02  0.1296479E+00
         -2   -1    0    0    0  501 -0.00000000000E+00  0.00000000000E+00  0.10992479169E+02  0.10992479169E+02  0.00000000000E+00 0.  1.
          2   -1    0    0  501    0  0.00000000000E+00 -0.00000000000E+00 -0.19536911128E+03  0.19536911128E+03  0.00000000000E+00 0. -1.
         23    2    1    2    0    0  0.00000000000E+00  0.00000000000E+00 -0.18437663211E+03  0.20636159045E+03  0.92684214103E+02 0.  0.
        -11    1    3    3    0    0 -0.37877798496E+02  0.16198983182E+02 -0.13944349198E+03  0.14540158916E+03  0.00000000000E+00 0. -1.
         11    1    3    3    0    0  0.37877798496E+02 -0.16198983182E+02 -0.44933140136E+02  0.60960001292E+02  0.00000000000E+00 0.  1.
<mgrwt>
<rscale>  0 0.92684214E+02</rscale>
<asrwt>0</asrwt>
<pdfrwt beam="2">  1        2 0.30056786E-01 0.92684214E+02</pdfrwt>
<pdfrwt beam="1">  1       -2 0.16911507E-02 0.92684214E+02</pdfrwt>
<totfact> 0.14673805E+05</totfact>
</mgrwt>
</event>
<event>
 5    1  0.5681061E+000  0.9123094E+02  0.7546771E-02  0.1299898E+00
          3   -1    0    0  501    0  0.00000000000E+00  0.00000000000E+00  0.33834089031E+02  0.33834089031E+02  0.00000000000E+00 0. -1.
         -3   -1    0    0    0  501 -0.00000000000E+00 -0.00000000000E+00 -0.61499254172E+02  0.61499254172E+02  0.00000000000E+00 0.  1.
         23    2    1    2    0    0  0.00000000000E+00  0.00000000000E+00 -0.27665165141E+02  0.95333343203E+02  0.91230943018E+02 0.  0.
        -11    1    3    3    0    0  0.23961446450E+02 -0.32773772971E+02  0.78992214883E+01  0.41360232239E+02  0.00000000000E+00 0. -1.
         11    1    3    3    0    0 -0.23961446450E+02  0.32773772971E+02 -0.35564386629E+02  0.53973110963E+02  0.00000000000E+00 0.  1.
<mgrwt>
<rscale>  0 0.91230943E+02</rscale>
<asrwt>0</asrwt>
<pdfrwt beam="1">  1        3 0.52052445E-02 0.91230943E+02</pdfrwt>
<pdfrwt beam="2">  1       -3 0.94614236E-02 0.91230943E+02</pdfrwt>
<totfact> 0.34965375E+04</totfact>
</mgrwt>
</event>
<event>
 5    1  0.5681061E+000  0.8977797E+02  0.7546771E-02  0.1303390E+00
         -2   -1    0    0    0  501 -0.00000000000E+00  0.00000000000E+00  0.39360820509E+03  0.39360820509E+03  0.00000000000E+00 0.  1.
          2   -1    0    0  501    0  0.00000000000E+00 -0.00000000000E+00 -0.51193575768E+01  0.51193575768E+01  0.00000000000E+00 0. -1.
         23    2    1    2    0    0  0.00000000000E+00  0.00000000000E+00  0.38848884751E+03  0.39872756266E+03  0.89777973846E+02 0.  0.
        -11    1    3    3    0    0 -0.42678853986E+02 -0.98641748357E+01  0.15067597114E+03  0.15691410007E+03  0.00000000000E+00 0. -1.
         11    1    3    3    0    0  0.42678853986E+02  0.98641748357E+01  0.23781287637E+03  0.24181346259E+03  0.00000000000E+00 0.  1.
<mgrwt>
<rscale>  0 0.89777974E+02</rscale>
<asrwt>0</asrwt>
<pdfrwt beam="2">  1        2 0.78759378E-03 0.89777974E+02</pdfrwt>
<pdfrwt beam="1">  1       -2 0.60555085E-01 0.89777974E+02</pdfrwt>
<totfact> 0.44915519E+04</totfact>
</mgrwt>
</event>
<event>
 5    1  0.5681061E+000  0.9213407E+02  0.7546771E-02  0.1297765E+00
          1   -1    0    0  501    0  0.00000000000E+00  0.00000000000E+00  0.92130049820E+02  0.92130049820E+02  0.00000000000E+00 0. -1.
         -1   -1    0    0    0  501 -0.00000000000E+00 -0.00000000000E+00 -0.23034520099E+02  0.23034520099E+02  0.00000000000E+00 0.  1.
         23    2    1    2    0    0  0.00000000000E+00  0.00000000000E+00  0.69095529721E+02  0.11516456992E+03  0.92134065020E+02 0.  0.
        -11    1    3    3    0    0 -0.40255674034E+02 -0.22362627477E+02  0.32984013943E+02  0.56644078026E+02  0.00000000000E+00 0. -1.
         11    1    3    3    0    0  0.40255674034E+02  0.22362627477E+02  0.36111515778E+02  0.58520491892E+02  0.00000000000E+00 0.  1.
<mgrwt>
<rscale>  0 0.92134065E+02</rscale>
<asrwt>0</asrwt>
<pdfrwt beam="1">  1        1 0.14173854E-01 0.92134065E+02</pdfrwt>
<pdfrwt beam="2">  1       -1 0.35437724E-02 0.92134065E+02</pdfrwt>
<totfact> 0.10014749E+05</totfact>
</mgrwt>
</event>
<event>
 5    1  0.5681061E+000  0.1019770E+03  0.7546771E-02  0.1276193E+00
          2   -1    0    0  501    0  0.00000000000E+00  0.00000000000E+00  0.83123636453E+02  0.83123636453E+02  0.00000000000E+00 0.  1.
         -2   -1    0    0    0  501 -0.00000000000E+00 -0.00000000000E+00 -0.31276602512E+02  0.31276602512E+02  0.00000000000E+00 0. -1.
         23    2    1    2    0    0  0.00000000000E+00  0.00000000000E+00  0.51847033941E+02  0.11440023896E+03  0.10197695694E+03 0.  0.
        -11    1    3    3    0    0  0.11497474781E+02  0.10625263901E+02 -0.28513719115E+02  0.32528761690E+02  0.00000000000E+00 0. -1.
         11    1    3    3    0    0 -0.11497474781E+02 -0.10625263901E+02  0.80360753056E+02  0.81871477274E+02  0.00000000000E+00 0.  1.
<mgrwt>
<rscale>  0 0.10197696E+03</rscale>
<asrwt>0</asrwt>
<pdfrwt beam="1">  1        2 0.12788252E-01 0.10197696E+03</pdfrwt>
<pdfrwt beam="2">  1       -2 0.48117850E-02 0.10197696E+03</pdfrwt>
<totfact> 0.84864772E+04</totfact>
</mgrwt>
</event>
<event>
 5    1  0.5681061E+000  0.9352529E+02  0.7546771E-02  0.1294532E+00
         -2   -1    0    0    0  501 -0.00000000000E+00  0.00000000000E+00  0.20834099561E+02  0.20834099561E+02  0.00000000000E+00 0.  1.
          2   -1    0    0  501    0  0.00000000000E+00 -0.00000000000E+00 -0.10495990735E+03  0.10495990735E+03  0.00000000000E+00 0. -1.
         23    2    1    2    0    0  0.00000000000E+00  0.00000000000E+00 -0.84125807787E+02  0.12579400691E+03  0.93525294110E+02 0.  0.
        -11    1    3    3    0    0  0.18637704226E+02 -0.17732979253E+02  0.10460730179E+02  0.27771378213E+02  0.00000000000E+00 0.  1.
         11    1    3    3    0    0 -0.18637704226E+02  0.17732979253E+02 -0.94586537966E+02  0.98022628696E+02  0.00000000000E+00 0. -1.
<mgrwt>
<rscale>  0 0.93525294E+02</rscale>
<asrwt>0</asrwt>
<pdfrwt beam="2">  1        2 0.16147678E-01 0.93525294E+02</pdfrwt>
<pdfrwt beam="1">  1       -2 0.32052461E-02 0.93525294E+02</pdfrwt>
<totfact> 0.11608469E+05</totfact>
</mgrwt>
</event>
<event>
 5    1  0.5681061E+000  0.9051993E+02  0.7546771E-02  0.1301597E+00
         -1   -1    0    0    0  501 -0.00000000000E+00  0.00000000000E+00  0.20971221627E+03  0.20971221627E+03  0.00000000000E+00 0.  1.
          1   -1    0    0  501    0  0.00000000000E+00 -0.00000000000E+00 -0.97679795342E+01  0.97679795342E+01  0.00000000000E+00 0. -1.
         23    2    1    2    0    0  0.00000000000E+00  0.00000000000E+00  0.19994423674E+03  0.21948019581E+03  0.90519934525E+02 0.  0.
        -11    1    3    3    0    0  0.17070125684E+02  0.34527224899E+02  0.42341318334E+02  0.57239022427E+02  0.00000000000E+00 0. -1.
         11    1    3    3    0    0 -0.17070125684E+02 -0.34527224899E+02  0.15760291840E+03  0.16224117338E+03  0.00000000000E+00 0.  1.
<mgrwt>
<rscale>  0 0.90519935E+02</rscale>
<asrwt>0</asrwt>
<pdfrwt beam="2">  1        1 0.15027662E-02 0.90519935E+02</pdfrwt>
<pdfrwt beam="1">  1       -1 0.32263415E-01 0.90519935E+02</pdfrwt>
<totfact> 0.69774932E+04</totfact>
</mgrwt>
</event>
<event>
 5    1  0.5681061E+000  0.9155005E+02  0.7546771E-02  0.1299141E+00
         -4   -1    0    0    0  501 -0.00000000000E+00  0.00000000000E+00  0.21757127266E+02  0.21757127266E+02  0.00000000000E+00 0.  1.
          4   -1    0    0  501    0  0.00000000000E+00 -0.00000000000E+00 -0.96306500970E+02  0.96306500970E+02  0.00000000000E+00 0. -1.
         23    2    1    2    0    0  0.00000000000E+00  0.00000000000E+00 -0.74549373703E+02  0.11806362824E+03  0.91550047475E+02 0.  0.
        -11    1    3    3    0    0  0.28365014093E+02 -0.34099538179E+02 -0.51864945602E+02  0.68244597667E+02  0.00000000000E+00 0. -1.
         11    1    3    3    0    0 -0.28365014093E+02  0.34099538179E+02 -0.22684428102E+02  0.49819030569E+02  0.00000000000E+00 0.  1.
<mgrwt>
<rscale>  0 0.91550047E+02</rscale>
<asrwt>0</asrwt>
<pdfrwt beam="2">  1        4 0.14816385E-01 0.91550047E+02</pdfrwt>
<pdfrwt beam="1">  1       -4 0.33472503E-02 0.91550047E+02</pdfrwt>
<totfact> 0.25103684E+04</totfact>
</mgrwt>
</event>
<event>
 5    1  0.5681061E+000  0.9076798E+02  0.7546771E-02  0.1301003E+00
          2   -1    0    0  501    0  0.00000000000E+00  0.00000000000E+00  0.34029784369E+03  0.34029784369E+03  0.00000000000E+00 0. -1.
         -2   -1    0    0    0  501 -0.00000000000E+00 -0.00000000000E+00 -0.60526580562E+01  0.60526580562E+01  0.00000000000E+00 0.  1.
         23    2    1    2    0    0  0.00000000000E+00  0.00000000000E+00  0.33424518564E+03  0.34635050175E+03  0.90767978608E+02 0.  0.
        -11    1    3    3    0    0  0.19718646407E+01  0.44958700563E+02  0.14469909692E+03  0.15153547985E+03  0.00000000000E+00 0.  1.
         11    1    3    3    0    0 -0.19718646407E+01 -0.44958700563E+02  0.18954608872E+03  0.19481502190E+03  0.00000000000E+00 0. -1.
<mgrwt>
<rscale>  0 0.90767979E+02</rscale>
<asrwt>0</asrwt>
<pdfrwt beam="1">  1        2 0.52353500E-01 0.90767979E+02</pdfrwt>
<pdfrwt beam="2">  1       -2 0.93117843E-03 0.90767979E+02</pdfrwt>
<totfact> 0.19051021E+05</totfact>
</mgrwt>
</event>
<event>
 5    1  0.5681061E+000  0.9141704E+02  0.7546771E-02  0.1299456E+00
          4   -1    0    0  501    0  0.00000000000E+00  0.00000000000E+00  0.11814095884E+03  0.11814095884E+03  0.00000000000E+00 0. -1.
         -4   -1    0    0    0  501 -0.00000000000E+00 -0.00000000000E+00 -0.17684544047E+02  0.17684544047E+02  0.00000000000E+00 0.  1.
         23    2    1    2    0    0  0.00000000000E+00  0.00000000000E+00  0.10045641479E+03  0.13582550289E+03  0.91417044151E+02 0.  0.
        -11    1    3    3    0    0  0.33307744841E+02  0.20154865736E+02  0.14642502902E+02  0.41593597710E+02  0.00000000000E+00 0.  1.
         11    1    3    3    0    0 -0.33307744841E+02 -0.20154865736E+02  0.85813911889E+02  0.94231905175E+02  0.00000000000E+00 0. -1.
<mgrwt>
<rscale>  0 0.91417044E+02</rscale>
<asrwt>0</asrwt>
<pdfrwt beam="1">  1        4 0.18175532E-01 0.91417044E+02</pdfrwt>
<pdfrwt beam="2">  1       -4 0.27206992E-02 0.91417044E+02</pdfrwt>
<totfact> 0.24232141E+04</totfact>
</mgrwt>
</event>
<event>
 5    1  0.5681061E+000  0.9126387E+02  0.7546771E-02  0.1299820E+00
         -2   -1    0    0    0  501 -0.00000000000E+00  0.00000000000E+00  0.41474171464E+02  0.41474171464E+02  0.00000000000E+00 0.  1.
          2   -1    0    0  501    0  0.00000000000E+00 -0.00000000000E+00 -0.50206507852E+02  0.50206507852E+02  0.00000000000E+00 0. -1.
         23    2    1    2    0    0  0.00000000000E+00  0.00000000000E+00 -0.87323363876E+01  0.91680679316E+02  0.91263866130E+02 0.  0.
        -11    1    3    3    0    0  0.90592635224E+01  0.30106946147E+02  0.28857144010E+02  0.42675909156E+02  0.00000000000E+00 0.  1.
         11    1    3    3    0    0 -0.90592635224E+01 -0.30106946147E+02 -0.37589480397E+02  0.49004770160E+02  0.00000000000E+00 0. -1.
<mgrwt>
<rscale>  0 0.91263866E+02</rscale>
<asrwt>0</asrwt>
<pdfrwt beam="2">  1        2 0.77240781E-02 0.91263866E+02</pdfrwt>
<pdfrwt beam="1">  1       -2 0.63806418E-02 0.91263866E+02</pdfrwt>
<totfact> 0.10091096E+05</totfact>
</mgrwt>
</event>
<event>
 5    1  0.5681061E+000  0.9157259E+02  0.7546771E-02  0.1299088E+00
         -1   -1    0    0    0  501 -0.00000000000E+00  0.00000000000E+00  0.51348852233E+02  0.51348852233E+02  0.00000000000E+00 0.  1.
          1   -1    0    0  501    0  0.00000000000E+00 -0.00000000000E+00 -0.40826324782E+02  0.40826324782E+02  0.00000000000E+00 0. -1.
         23    2    1    2    0    0  0.00000000000E+00  0.00000000000E+00  0.10522527451E+02  0.92175177014E+02  0.91572592372E+02 0.  0.
        -11    1    3    3    0    0  0.64189580218E+01  0.42502811635E+02  0.21135036677E+02  0.47899705576E+02  0.00000000000E+00 0.  1.
         11    1    3    3    0    0 -0.64189580218E+01 -0.42502811635E+02 -0.10612509226E+02  0.44275471438E+02  0.00000000000E+00 0. -1.
<mgrwt>
<rscale>  0 0.91572592E+02</rscale>
<asrwt>0</asrwt>
<pdfrwt beam="2">  1        1 0.62809731E-02 0.91572592E+02</pdfrwt>
<pdfrwt beam="1">  1       -1 0.78998234E-02 0.91572592E+02</pdfrwt>
<totfact> 0.89839292E+04</totfact>
</mgrwt>
</event>
<event>
 5    1  0.5681061E+000  0.7846667E+02  0.7546771E-02  0.1333460E+00
         -1   -1    0    0    0  501 -0.00000000000E+00  0.00000000000E+00  0.42900141050E+02  0.42900141050E+02  0.00000000000E+00 0.  1.
          1   -1    0    0  501    0  0.00000000000E+00 -0.00000000000E+00 -0.35879944249E+02  0.35879944249E+02  0.00000000000E+00 0. -1.
         23    2    1    2    0    0  0.00000000000E+00  0.00000000000E+00  0.70201968012E+01  0.78780085298E+02  0.78466672393E+02 0.  0.
        -11    1    3    3    0    0 -0.33713486806E+02 -0.12220552244E+02  0.19489497619E+02  0.40813987887E+02  0.00000000000E+00 0.  1.
         11    1    3    3    0    0  0.33713486806E+02  0.12220552244E+02 -0.12469300817E+02  0.37966097412E+02  0.00000000000E+00 0. -1.
<mgrwt>
<rscale>  0 0.78466672E+02</rscale>
<asrwt>0</asrwt>
<pdfrwt beam="2">  1        1 0.55199914E-02 0.78466672E+02</pdfrwt>
<pdfrwt beam="1">  1       -1 0.66000217E-02 0.78466672E+02</pdfrwt>
<totfact> 0.13580847E+05</totfact>
</mgrwt>
</event>
<event>
 5    1  0.5681061E+000  0.9054904E+02  0.7546771E-02  0.1301528E+00
         -1   -1    0    0    0  501 -0.00000000000E+00  0.00000000000E+00  0.32061195397E+02  0.32061195397E+02  0.00000000000E+00 0.  1.
          1   -1    0    0  501    0  0.00000000000E+00 -0.00000000000E+00 -0.63933424318E+02  0.63933424318E+02  0.00000000000E+00 0. -1.
         23    2    1    2    0    0  0.00000000000E+00  0.00000000000E+00 -0.31872228921E+02  0.95994619716E+02  0.90549036649E+02 0.  0.
        -11    1    3    3    0    0 -0.86301677528E+01 -0.42012573465E+02 -0.56424066043E+00  0.42893525061E+02  0.00000000000E+00 0.  1.
         11    1    3    3    0    0  0.86301677528E+01  0.42012573465E+02 -0.31307988260E+02  0.53101094655E+02  0.00000000000E+00 0. -1.
<mgrwt>
<rscale>  0 0.90549037E+02</rscale>
<asrwt>0</asrwt>
<pdfrwt beam="2">  1        1 0.98359113E-02 0.90549037E+02</pdfrwt>
<pdfrwt beam="1">  1       -1 0.49324917E-02 0.90549037E+02</pdfrwt>
<totfact> 0.99181209E+04</totfact>
</mgrwt>
</event>
<event>
 5    1  0.5681061E+000  0.8981669E+02  0.7546771E-02  0.1303296E+00
         -2   -1    0    0    0  501 -0.00000000000E+00  0.00000000000E+00  0.93886015236E+02  0.93886015236E+02  0.00000000000E+00 0.  1.
          2   -1    0    0  501    0  0.00000000000E+00 -0.00000000000E+00 -0.21480937625E+02  0.21480937625E+02  0.00000000000E+00 0. -1.
         23    2    1    2    0    0  0.00000000000E+00  0.00000000000E+00  0.72405077611E+02  0.11536695286E+03  0.89816694152E+02 0.  0.
        -11    1    3    3    0    0 -0.36605342182E+01 -0.20985662014E+02  0.86983226921E+02  0.89553778739E+02  0.00000000000E+00 0.  1.
         11    1    3    3    0    0  0.36605342182E+01  0.20985662014E+02 -0.14578149310E+02  0.25813174121E+02  0.00000000000E+00 0. -1.
<mgrwt>
<rscale>  0 0.89816694E+02</rscale>
<asrwt>0</asrwt>
<pdfrwt beam="2">  1        2 0.33047597E-02 0.89816694E+02</pdfrwt>
<pdfrwt beam="1">  1       -2 0.14444002E-01 0.89816694E+02</pdfrwt>
<totfact> 0.84390170E+04</totfact>
</mgrwt>
</event>
<event>
 5    1  0.5681061E+000  0.8366536E+02  0.7546771E-02  0.1318960E+00
          1   -1    0    0  501    0  0.00000000000E+00  0.00000000000E+00  0.22576743602E+02  0.22576743602E+02  0.00000000000E+00 0. -1.
         -1   -1    0    0    0  501 -0.00000000000E+00 -0.00000000000E+00 -0.77512199973E+02  0.77512199973E+02  0.00000000000E+00 0.  1.
         23    2    1    2    0    0  0.00000000000E+00  0.00000000000E+00 -0.54935456371E+02  0.10008894357E+03  0.83665358777E+02 0.  0.
        -11    1    3    3    0    0  0.85071961185E+01  0.21014833379E+02  0.14589989599E+02  0.26960404378E+02  0.00000000000E+00 0. -1.
         11    1    3    3    0    0 -0.85071961185E+01 -0.21014833379E+02 -0.69525445970E+02  0.73128539197E+02  0.00000000000E+00 0.  1.
<mgrwt>
<rscale>  0 0.83665359E+02</rscale>
<asrwt>0</asrwt>
<pdfrwt beam="1">  1        1 0.34733451E-02 0.83665359E+02</pdfrwt>
<pdfrwt beam="2">  1       -1 0.11924954E-01 0.83665359E+02</pdfrwt>
<totfact> 0.10598902E+05</totfact>
</mgrwt>
</event>
<event>
 5    1  0.5681061E+000  0.9197174E+02  0.7546771E-02  0.1298146E+00
         -1   -1    0    0    0  501 -0.00000000000E+00  0.00000000000E+00  0.27741700539E+02  0.27741700539E+02  0.00000000000E+00 0.  1.
          1   -1    0    0  501    0  0.00000000000E+00 -0.00000000000E+00 -0.76228216625E+02  0.76228216625E+02  0.00000000000E+00 0. -1.
         23    2    1    2    0    0  0.00000000000E+00  0.00000000000E+00 -0.48486516086E+02  0.10396991716E+03  0.91971742578E+02 0.  0.
        -11    1    3    3    0    0 -0.11463765774E+02  0.35402765107E+02  0.62984199908E+01  0.37741804373E+02  0.00000000000E+00 0.  1.
         11    1    3    3    0    0  0.11463765774E+02 -0.35402765107E+02 -0.54784936077E+02  0.66228112791E+02  0.00000000000E+00 0. -1.
<mgrwt>
<rscale>  0 0.91971743E+02</rscale>
<asrwt>0</asrwt>
<pdfrwt beam="2">  1        1 0.11727418E-01 0.91971743E+02</pdfrwt>
<pdfrwt beam="1">  1       -1 0.42679540E-02 0.91971743E+02</pdfrwt>
<totfact> 0.97621051E+04</totfact>
</mgrwt>
</event>
<event>
 5    1  0.5681061E+000  0.9203346E+02  0.7546771E-02  0.1298001E+00
          1   -1    0    0  501    0  0.00000000000E+00  0.00000000000E+00  0.21999544392E+03  0.21999544392E+03  0.00000000000E+00 0. -1.
         -1   -1    0    0    0  501 -0.00000000000E+00 -0.00000000000E+00 -0.96253794904E+01  0.96253794904E+01  0.00000000000E+00 0.  1.
         23    2    1    2    0    0  0.00000000000E+00  0.00000000000E+00  0.21037006443E+03  0.22962082341E+03  0.92033464216E+02 0.  0.
        -11    1    3    3    0    0  0.36915128253E+02  0.26621901570E+02  0.12212279780E+03  0.13032816304E+03  0.00000000000E+00 0.  1.
         11    1    3    3    0    0 -0.36915128253E+02 -0.26621901570E+02  0.88247266625E+02  0.99292660373E+02  0.00000000000E+00 0. -1.
<mgrwt>
<rscale>  0 0.92033464E+02</rscale>
<asrwt>0</asrwt>
<pdfrwt beam="1">  1        1 0.33845449E-01 0.92033464E+02</pdfrwt>
<pdfrwt beam="2">  1       -1 0.14808278E-02 0.92033464E+02</pdfrwt>
<totfact> 0.11763658E+05</totfact>
</mgrwt>
</event>
<event>
 5    1  0.5681061E+000  0.9086609E+02  0.7546771E-02  0.1300768E+00
          2   -1    0    0  501    0  0.00000000000E+00  0.00000000000E+00  0.14331577853E+03  0.14331577853E+03  0.00000000000E+00 0. -1.
         -2   -1    0    0    0  501 -0.00000000000E+00 -0.00000000000E+00 -0.14402890712E+02  0.14402890712E+02  0.00000000000E+00 0.  1.
         23    2    1    2    0    0  0.00000000000E+00  0.00000000000E+00  0.12891288782E+03  0.15771866924E+03  0.90866088184E+02 0.  0.
        -11    1    3    3    0    0 -0.38639472449E+02 -0.22993138174E+02  0.75767769726E+02  0.88104756759E+02  0.00000000000E+00 0. -1.
         11    1    3    3    0    0  0.38639472449E+02  0.22993138174E+02  0.53145118094E+02  0.69613912485E+02  0.00000000000E+00 0.  1.
<mgrwt>
<rscale>  0 0.90866088E+02</rscale>
<asrwt>0</asrwt>
<pdfrwt beam="1">  1        2 0.22048580E-01 0.90866088E+02</pdfrwt>
<pdfrwt beam="2">  1       -2 0.22158294E-02 0.90866088E+02</pdfrwt>
<totfact> 0.13895325E+05</totfact>
</mgrwt>
</event>
<event>
 5    1  0.5681061E+000  0.9117467E+02  0.7546771E-02  0.1300032E+00
         -2   -1    0    0    0  501 -0.00000000000E+00  0.00000000000E+00  0.98964230664E+02  0.98964230664E+02  0.00000000000E+00 0.  1.
          2   -1    0    0  501    0  0.00000000000E+00 -0.00000000000E+00 -0.20999559591E+02  0.20999559591E+02  0.00000000000E+00 0. -1.
         23    2    1    2    0    0  0.00000000000E+00  0.00000000000E+00  0.77964671073E+02  0.11996379025E+03  0.91174673220E+02 0.  0.
        -11    1    3    3    0    0  0.41151134013E+02  0.18714217827E+02  0.31246453798E+02  0.54954332445E+02  0.00000000000E+00 0.  1.
         11    1    3    3    0    0 -0.41151134013E+02 -0.18714217827E+02  0.46718217274E+02  0.65009457810E+02  0.00000000000E+00 0. -1.
<mgrwt>
<rscale>  0 0.91174673E+02</rscale>
<asrwt>0</asrwt>
<pdfrwt beam="2">  1        2 0.32307015E-02 0.91174673E+02</pdfrwt>
<pdfrwt beam="1">  1       -2 0.15225266E-01 0.91174673E+02</pdfrwt>
<totfact> 0.80058807E+04</totfact>
</mgrwt>
</event>
<event>
 5    1  0.5681061E+000  0.8852112E+02  0.7546771E-02  0.1306473E+00
          2   -1    0    0  501    0  0.00000000000E+00  0.00000000000E+00  0.12551034785E+03  0.12551034785E+03  0.00000000000E+00 0.  1.
         -2   -1    0    0    0  501 -0.00000000000E+00 -0.00000000000E+00 -0.15608251985E+02  0.15608251985E+02  0.00000000000E+00 0. -1.
         23    2    1    2    0    0  0.00000000000E+00  0.00000000000E+00  0.10990209586E+03  0.14111859983E+03  0.88521119195E+02 0.  0.
        -11    1    3    3    0    0 -0.30456066567E+02  0.31583135355E+02  0.64237157691E+02  0.77791251807E+02  0.00000000000E+00 0.  1.
         11    1    3    3    0    0  0.30456066567E+02 -0.31583135355E+02  0.45664938172E+02  0.63327348025E+02  0.00000000000E+00 0. -1.
<mgrwt>
<rscale>  0 0.88521119E+02</rscale>
<asrwt>0</asrwt>
<pdfrwt beam="1">  1        2 0.19309284E-01 0.88521119E+02</pdfrwt>
<pdfrwt beam="2">  1       -2 0.24012696E-02 0.88521119E+02</pdfrwt>
<totfact> 0.14280027E+05</totfact>
</mgrwt>
</event>
<event>
 5    1  0.5681061E+000  0.9043706E+02  0.7546771E-02  0.1301797E+00
         -2   -1    0    0    0  501 -0.00000000000E+00  0.00000000000E+00  0.75914169448E+02  0.75914169448E+02  0.00000000000E+00 0.  1.
          2   -1    0    0  501    0  0.00000000000E+00 -0.00000000000E+00 -0.26934569445E+02  0.26934569445E+02  0.00000000000E+00 0. -1.
         23    2    1    2    0    0  0.00000000000E+00  0.00000000000E+00  0.48979600003E+02  0.10284873889E+03  0.90437060298E+02 0.  0.
        -11    1    3    3    0    0  0.25857239904E+02  0.11671688974E+02 -0.15554818755E+02  0.32353942039E+02  0.00000000000E+00 0. -1.
         11    1    3    3    0    0 -0.25857239904E+02 -0.11671688974E+02  0.64534418758E+02  0.70494796854E+02  0.00000000000E+00 0.  1.
<mgrwt>
<rscale>  0 0.90437060E+02</rscale>
<asrwt>0</asrwt>
<pdfrwt beam="2">  1        2 0.41437800E-02 0.90437060E+02</pdfrwt>
<pdfrwt beam="1">  1       -2 0.11679103E-01 0.90437060E+02</pdfrwt>
<totfact> 0.88049072E+04</totfact>
</mgrwt>
</event>
<event>
 5    1  0.5681061E+000  0.9125169E+02  0.7546771E-02  0.1299849E+00
         -2   -1    0    0    0  501 -0.00000000000E+00  0.00000000000E+00  0.17316672563E+02  0.17316672563E+02  0.00000000000E+00 0.  1.
          2   -1    0    0  501    0  0.00000000000E+00 -0.00000000000E+00 -0.12021465429E+03  0.12021465429E+03  0.00000000000E+00 0. -1.
         23    2    1    2    0    0  0.00000000000E+00  0.00000000000E+00 -0.10289798173E+03  0.13753132685E+03  0.91251691613E+02 0.  0.
        -11    1    3    3    0    0  0.44346485436E+02 -0.89797528495E+01 -0.42600114746E+02  0.62145124572E+02  0.00000000000E+00 0. -1.
         11    1    3    3    0    0 -0.44346485436E+02  0.89797528495E+01 -0.60297866980E+02  0.75386202280E+02  0.00000000000E+00 0.  1.
<mgrwt>
<rscale>  0 0.91251692E+02</rscale>
<asrwt>0</asrwt>
<pdfrwt beam="2">  1        2 0.18494563E-01 0.91251692E+02</pdfrwt>
<pdfrwt beam="1">  1       -2 0.26641033E-02 0.91251692E+02</pdfrwt>
<totfact> 0.12964704E+05</totfact>
</mgrwt>
</event>
<event>
 5    1  0.5681061E+000  0.8889093E+02  0.7546771E-02  0.1305560E+00
         -1   -1    0    0    0  501 -0.00000000000E+00  0.00000000000E+00  0.83273180503E+01  0.83273180503E+01  0.00000000000E+00 0.  1.
          1   -1    0    0  501    0  0.00000000000E+00 -0.00000000000E+00 -0.23721915069E+03  0.23721915069E+03  0.00000000000E+00 0. -1.
         23    2    1    2    0    0  0.00000000000E+00  0.00000000000E+00 -0.22889183264E+03  0.24554646874E+03  0.88890929018E+02 0.  0.
        -11    1    3    3    0    0 -0.36919892379E+02 -0.21907354186E+02 -0.82662417941E+02  0.93145509610E+02  0.00000000000E+00 0. -1.
         11    1    3    3    0    0  0.36919892379E+02  0.21907354186E+02 -0.14622941470E+03  0.15240095913E+03  0.00000000000E+00 0.  1.
<mgrwt>
<rscale>  0 0.88890929E+02</rscale>
<asrwt>0</asrwt>
<pdfrwt beam="2">  1        1 0.36495253E-01 0.88890929E+02</pdfrwt>
<pdfrwt beam="1">  1       -1 0.12811259E-02 0.88890929E+02</pdfrwt>
<totfact> 0.13099249E+05</totfact>
</mgrwt>
</event>
<event>
 5    1  0.5681061E+000  0.9184607E+02  0.7546771E-02  0.1298442E+00
          2   -1    0    0  501    0  0.00000000000E+00  0.00000000000E+00  0.23515433251E+02  0.23515433251E+02  0.00000000000E+00 0.  1.
         -2   -1    0    0    0  501 -0.00000000000E+00 -0.00000000000E+00 -0.89682596961E+02  0.89682596961E+02  0.00000000000E+00 0. -1.
         23    2    1    2    0    0  0.00000000000E+00  0.00000000000E+00 -0.66167163710E+02  0.11319803021E+03  0.91846069543E+02 0.  0.
        -11    1    3    3    0    0 -0.19043464096E+02 -0.86262900588E+01  0.17310331025E+02  0.27142475295E+02  0.00000000000E+00 0.  1.
         11    1    3    3    0    0  0.19043464096E+02  0.86262900588E+01 -0.83477494734E+02  0.86055554917E+02  0.00000000000E+00 0. -1.
<mgrwt>
<rscale>  0 0.91846070E+02</rscale>
<asrwt>0</asrwt>
<pdfrwt beam="1">  1        2 0.36177591E-02 0.91846070E+02</pdfrwt>
<pdfrwt beam="2">  1       -2 0.13797322E-01 0.91846070E+02</pdfrwt>
<totfact> 0.80909463E+04</totfact>
</mgrwt>
</event>
<event>
 5    1  0.5681061E+000  0.9291408E+02  0.7546771E-02  0.1295944E+00
          1   -1    0    0  501    0  0.00000000000E+00  0.00000000000E+00  0.10831368640E+02  0.10831368640E+02  0.00000000000E+00 0. -1.
         -1   -1    0    0    0  501 -0.00000000000E+00 -0.00000000000E+00 -0.19925981801E+03  0.19925981801E+03  0.00000000000E+00 0.  1.
         23    2    1    2    0    0  0.00000000000E+00  0.00000000000E+00 -0.18842844937E+03  0.21009118665E+03  0.92914079535E+02 0.  0.
        -11    1    3    3    0    0 -0.29280633338E+02 -0.36566540934E+01 -0.17534861425E+03  0.17781412522E+03  0.00000000000E+00 0.  1.
         11    1    3    3    0    0  0.29280633338E+02  0.36566540934E+01 -0.13079835119E+02  0.32277061430E+02  0.00000000000E+00 0. -1.
<mgrwt>
<rscale>  0 0.92914080E+02</rscale>
<asrwt>0</asrwt>
<pdfrwt beam="1">  1        1 0.16663645E-02 0.92914080E+02</pdfrwt>
<pdfrwt beam="2">  1       -1 0.30655355E-01 0.92914080E+02</pdfrwt>
<totfact> 0.66158934E+04</totfact>
</mgrwt>
</event>
<event>
 5    1  0.5681061E+000  0.9067256E+02  0.7546771E-02  0.1301231E+00
         -2   -1    0    0    0  501 -0.00000000000E+00  0.00000000000E+00  0.27948008633E+02  0.27948008633E+02  0.00000000000E+00 0.  1.
          2   -1    0    0  501    0  0.00000000000E+00 -0.00000000000E+00 -0.73542926864E+02  0.73542926864E+02  0.00000000000E+00 0. -1.
         23    2    1    2    0    0  0.00000000000E+00  0.00000000000E+00 -0.45594918231E+02  0.10149093550E+03  0.90672561559E+02 0.  0.
        -11    1    3    3    0    0  0.21818646637E+02 -0.53088495167E+01  0.21286138298E+02  0.30940861460E+02  0.00000000000E+00 0.  1.
         11    1    3    3    0    0 -0.21818646637E+02  0.53088495167E+01 -0.66881056528E+02  0.70550074037E+02  0.00000000000E+00 0. -1.
<mgrwt>
<rscale>  0 0.90672562E+02</rscale>
<asrwt>0</asrwt>
<pdfrwt beam="2">  1        2 0.11314296E-01 0.90672562E+02</pdfrwt>
<pdfrwt beam="1">  1       -2 0.42996937E-02 0.90672562E+02</pdfrwt>
<totfact> 0.11389975E+05</totfact>
</mgrwt>
</event>
<event>
 5    1  0.5681061E+000  0.9144926E+02  0.7546771E-02  0.1299380E+00
         -3   -1    0    0    0  501 -0.00000000000E+00  0.00000000000E+00  0.17315352270E+02  0.17315352270E+02  0.00000000000E+00 0.  1.
          3   -1    0    0  501    0  0.00000000000E+00 -0.00000000000E+00 -0.12074496403E+03  0.12074496403E+03  0.00000000000E+00 0. -1.
         23    2    1    2    0    0  0.00000000000E+00  0.00000000000E+00 -0.10342961176E+03  0.13806031630E+03  0.91449255589E+02 0.  0.
        -11    1    3    3    0    0  0.26888349622E+02  0.13002286795E+02 -0.10398374927E+03  0.10818809047E+03  0.00000000000E+00 0. -1.
         11    1    3    3    0    0 -0.26888349622E+02 -0.13002286795E+02  0.55413751673E+00  0.29872225824E+02  0.00000000000E+00 0.  1.
<mgrwt>
<rscale>  0 0.91449256E+02</rscale>
<asrwt>0</asrwt>
<pdfrwt beam="2">  1        3 0.18576149E-01 0.91449256E+02</pdfrwt>
<pdfrwt beam="1">  1       -3 0.26639003E-02 0.91449256E+02</pdfrwt>
<totfact> 0.31795010E+04</totfact>
</mgrwt>
</event>
<event>
 5    1  0.5681061E+000  0.8971230E+02  0.7546771E-02  0.1303550E+00
          1   -1    0    0  501    0  0.00000000000E+00  0.00000000000E+00  0.13226096198E+03  0.13226096198E+03  0.00000000000E+00 0. -1.
         -1   -1    0    0    0  501 -0.00000000000E+00 -0.00000000000E+00 -0.15212912071E+02  0.15212912071E+02  0.00000000000E+00 0.  1.
         23    2    1    2    0    0  0.00000000000E+00  0.00000000000E+00  0.11704804990E+03  0.14747387405E+03  0.89712304284E+02 0.  0.
        -11    1    3    3    0    0  0.29213041216E+02 -0.30441277467E+02  0.33485529732E+02  0.53864216808E+02  0.00000000000E+00 0.  1.
         11    1    3    3    0    0 -0.29213041216E+02  0.30441277467E+02  0.83562520172E+02  0.93609657238E+02  0.00000000000E+00 0. -1.
<mgrwt>
<rscale>  0 0.89712304E+02</rscale>
<asrwt>0</asrwt>
<pdfrwt beam="1">  1        1 0.20347840E-01 0.89712304E+02</pdfrwt>
<pdfrwt beam="2">  1       -1 0.23404481E-02 0.89712304E+02</pdfrwt>
<totfact> 0.11450369E+05</totfact>
</mgrwt>
</event>
<event>
 5    1  0.5681061E+000  0.9083200E+02  0.7546771E-02  0.1300849E+00
         -2   -1    0    0    0  501 -0.00000000000E+00  0.00000000000E+00  0.28068519657E+02  0.28068519657E+02  0.00000000000E+00 0. -1.
          2   -1    0    0  501    0  0.00000000000E+00 -0.00000000000E+00 -0.73484917726E+02  0.73484917726E+02  0.00000000000E+00 0.  1.
         23    2    1    2    0    0  0.00000000000E+00  0.00000000000E+00 -0.45416398069E+02  0.10155343738E+03  0.90831995633E+02 0.  0.
        -11    1    3    3    0    0 -0.26350406780E+02  0.70900272785E+00 -0.64056884881E+02  0.69268543532E+02  0.00000000000E+00 0.  1.
         11    1    3    3    0    0  0.26350406780E+02 -0.70900272785E+00  0.18640486813E+02  0.32284893851E+02  0.00000000000E+00 0. -1.
<mgrwt>
<rscale>  0 0.90831996E+02</rscale>
<asrwt>0</asrwt>
<pdfrwt beam="2">  1        2 0.11305372E-01 0.90831996E+02</pdfrwt>
<pdfrwt beam="1">  1       -2 0.43182338E-02 0.90831996E+02</pdfrwt>
<totfact> 0.11331864E+05</totfact>
</mgrwt>
</event>
<event>
 5    1  0.5681061E+000  0.9127337E+02  0.7546771E-02  0.1299797E+00
         -1   -1    0    0    0  501 -0.00000000000E+00  0.00000000000E+00  0.20114506526E+02  0.20114506526E+02  0.00000000000E+00 0.  1.
          1   -1    0    0  501    0  0.00000000000E+00 -0.00000000000E+00 -0.10354254642E+03  0.10354254642E+03  0.00000000000E+00 0. -1.
         23    2    1    2    0    0  0.00000000000E+00  0.00000000000E+00 -0.83428039890E+02  0.12365705294E+03  0.91273374553E+02 0.  0.
        -11    1    3    3    0    0 -0.33134299814E+02  0.24920802107E+02 -0.15873954396E+02  0.44394939238E+02  0.00000000000E+00 0.  1.
         11    1    3    3    0    0  0.33134299814E+02 -0.24920802107E+02 -0.67554085494E+02  0.79262113704E+02  0.00000000000E+00 0. -1.
<mgrwt>
<rscale>  0 0.91273375E+02</rscale>
<asrwt>0</asrwt>
<pdfrwt beam="2">  1        1 0.15929623E-01 0.91273375E+02</pdfrwt>
<pdfrwt beam="1">  1       -1 0.30945394E-02 0.91273375E+02</pdfrwt>
<totfact> 0.10475798E+05</totfact>
</mgrwt>
</event>
<event>
 5    1  0.5681061E+000  0.9288921E+02  0.7546771E-02  0.1296002E+00
         -1   -1    0    0    0  501 -0.00000000000E+00  0.00000000000E+00  0.19584184540E+03  0.19584184540E+03  0.00000000000E+00 0.  1.
          1   -1    0    0  501    0  0.00000000000E+00 -0.00000000000E+00 -0.11014507031E+02  0.11014507031E+02  0.00000000000E+00 0. -1.
         23    2    1    2    0    0  0.00000000000E+00  0.00000000000E+00  0.18482733837E+03  0.20685635244E+03  0.92889211068E+02 0.  0.
        -11    1    3    3    0    0 -0.35719644358E+02  0.21894136571E+02  0.13705512717E+03  0.14331557520E+03  0.00000000000E+00 0.  1.
         11    1    3    3    0    0  0.35719644358E+02 -0.21894136571E+02  0.47772211198E+02  0.63540777238E+02  0.00000000000E+00 0. -1.
<mgrwt>
<rscale>  0 0.92889211E+02</rscale>
<asrwt>0</asrwt>
<pdfrwt beam="2">  1        1 0.16945397E-02 0.92889211E+02</pdfrwt>
<pdfrwt beam="1">  1       -1 0.30129512E-01 0.92889211E+02</pdfrwt>
<totfact> 0.66531400E+04</totfact>
</mgrwt>
</event>
<event>
 5    1  0.5681061E+000  0.9155238E+02  0.7546771E-02  0.1299135E+00
          4   -1    0    0  501    0  0.00000000000E+00  0.00000000000E+00  0.26468271869E+02  0.26468271869E+02  0.00000000000E+00 0. -1.
         -4   -1    0    0    0  501 -0.00000000000E+00 -0.00000000000E+00 -0.79168737541E+02  0.79168737541E+02  0.00000000000E+00 0.  1.
         23    2    1    2    0    0  0.00000000000E+00  0.00000000000E+00 -0.52700465672E+02  0.10563700941E+03  0.91552382139E+02 0.  0.
        -11    1    3    3    0    0  0.30684325800E+02  0.91547682901E+01  0.11395086383E+02  0.33988021801E+02  0.00000000000E+00 0. -1.
         11    1    3    3    0    0 -0.30684325800E+02 -0.91547682901E+01 -0.64095552055E+02  0.71648987610E+02  0.00000000000E+00 0.  1.
<mgrwt>
<rscale>  0 0.91552382E+02</rscale>
<asrwt>0</asrwt>
<pdfrwt beam="1">  1        4 0.40720418E-02 0.91552382E+02</pdfrwt>
<pdfrwt beam="2">  1       -4 0.12179806E-01 0.91552382E+02</pdfrwt>
<totfact> 0.25824078E+04</totfact>
</mgrwt>
</event>
<event>
 5    1  0.5681061E+000  0.9398330E+02  0.7546771E-02  0.1293482E+00
         -3   -1    0    0    0  501 -0.00000000000E+00  0.00000000000E+00  0.56787890613E+02  0.56787890613E+02  0.00000000000E+00 0.  1.
          3   -1    0    0  501    0  0.00000000000E+00 -0.00000000000E+00 -0.38885321016E+02  0.38885321016E+02  0.00000000000E+00 0. -1.
         23    2    1    2    0    0  0.00000000000E+00  0.00000000000E+00  0.17902569598E+02  0.95673211629E+02  0.93983303971E+02 0.  0.
        -11    1    3    3    0    0 -0.19667505693E+02  0.19756953546E+02 -0.29558375089E+02  0.40630598463E+02  0.00000000000E+00 0. -1.
         11    1    3    3    0    0  0.19667505693E+02 -0.19756953546E+02  0.47460944686E+02  0.55042613166E+02  0.00000000000E+00 0.  1.
<mgrwt>
<rscale>  0 0.93983304E+02</rscale>
<asrwt>0</asrwt>
<pdfrwt beam="2">  1        3 0.59823571E-02 0.93983304E+02</pdfrwt>
<pdfrwt beam="1">  1       -3 0.87365986E-02 0.93983304E+02</pdfrwt>
<totfact> 0.32214910E+04</totfact>
</mgrwt>
</event>
<event>
 5    1  0.5681061E+000  0.9221894E+02  0.7546771E-02  0.1297565E+00
         -2   -1    0    0    0  501 -0.00000000000E+00  0.00000000000E+00  0.12435140747E+02  0.12435140747E+02  0.00000000000E+00 0.  1.
          2   -1    0    0  501    0  0.00000000000E+00 -0.00000000000E+00 -0.17097381310E+03  0.17097381310E+03  0.00000000000E+00 0. -1.
         23    2    1    2    0    0  0.00000000000E+00  0.00000000000E+00 -0.15853867235E+03  0.18340895384E+03  0.92218944471E+02 0.  0.
        -11    1    3    3    0    0  0.27151143417E+02  0.36165108597E+02 -0.61371548231E+02  0.76233631692E+02  0.00000000000E+00 0. -1.
         11    1    3    3    0    0 -0.27151143417E+02 -0.36165108597E+02 -0.97167124119E+02  0.10717532215E+03  0.00000000000E+00 0.  1.
<mgrwt>
<rscale>  0 0.92218944E+02</rscale>
<asrwt>0</asrwt>
<pdfrwt beam="2">  1        2 0.26303663E-01 0.92218944E+02</pdfrwt>
<pdfrwt beam="1">  1       -2 0.19130986E-02 0.92218944E+02</pdfrwt>
<totfact> 0.14183810E+05</totfact>
</mgrwt>
</event>
<event>
 5    1  0.5681061E+000  0.9279089E+02  0.7546771E-02  0.1296230E+00
         -4   -1    0    0    0  501 -0.00000000000E+00  0.00000000000E+00  0.99256486673E+01  0.99256486673E+01  0.00000000000E+00 0.  1.
          4   -1    0    0  501    0  0.00000000000E+00 -0.00000000000E+00 -0.21686617876E+03  0.21686617876E+03  0.00000000000E+00 0. -1.
         23    2    1    2    0    0  0.00000000000E+00  0.00000000000E+00 -0.20694053009E+03  0.22679182743E+03  0.92790893911E+02 0.  0.
        -11    1    3    3    0    0 -0.40818178587E+02  0.20402326269E+02 -0.12394241052E+03  0.13207611346E+03  0.00000000000E+00 0. -1.
         11    1    3    3    0    0  0.40818178587E+02 -0.20402326269E+02 -0.82998119570E+02  0.94715713968E+02  0.00000000000E+00 0.  1.
<mgrwt>
<rscale>  0 0.92790894E+02</rscale>
<asrwt>0</asrwt>
<pdfrwt beam="2">  1        4 0.33364026E-01 0.92790894E+02</pdfrwt>
<pdfrwt beam="1">  1       -4 0.15270229E-02 0.92790894E+02</pdfrwt>
<totfact> 0.19383809E+04</totfact>
</mgrwt>
</event>
<event>
 5    1  0.5681061E+000  0.9141211E+02  0.7546771E-02  0.1299468E+00
          2   -1    0    0  501    0  0.00000000000E+00  0.00000000000E+00  0.15570735404E+03  0.15570735404E+03  0.00000000000E+00 0. -1.
         -2   -1    0    0    0  501 -0.00000000000E+00 -0.00000000000E+00 -0.13416474133E+02  0.13416474133E+02  0.00000000000E+00 0.  1.
         23    2    1    2    0    0  0.00000000000E+00  0.00000000000E+00  0.14229087991E+03  0.16912382817E+03  0.91412114903E+02 0.  0.
        -11    1    3    3    0    0 -0.42651981526E+02 -0.91320049858E+01  0.45882010479E+02  0.63306744733E+02  0.00000000000E+00 0. -1.
         11    1    3    3    0    0  0.42651981526E+02  0.91320049858E+01  0.96408869431E+02  0.10581708344E+03  0.00000000000E+00 0.  1.
<mgrwt>
<rscale>  0 0.91412115E+02</rscale>
<asrwt>0</asrwt>
<pdfrwt beam="1">  1        2 0.23954976E-01 0.91412115E+02</pdfrwt>
<pdfrwt beam="2">  1       -2 0.20640730E-02 0.91412115E+02</pdfrwt>
<totfact> 0.14061786E+05</totfact>
</mgrwt>
</event>
<event>
 5    1  0.5681061E+000  0.9226111E+02  0.7546771E-02  0.1297467E+00
          1   -1    0    0  501    0  0.00000000000E+00  0.00000000000E+00  0.39392539531E+02  0.39392539531E+02  0.00000000000E+00 0. -1.
         -1   -1    0    0    0  501 -0.00000000000E+00 -0.00000000000E+00 -0.54021097875E+02  0.54021097875E+02  0.00000000000E+00 0.  1.
         23    2    1    2    0    0  0.00000000000E+00  0.00000000000E+00 -0.14628558344E+02  0.93413637405E+02  0.92261112795E+02 0.  0.
        -11    1    3    3    0    0  0.16746543808E+02 -0.79877990654E+00 -0.50827215829E+02  0.53520936537E+02  0.00000000000E+00 0.  1.
         11    1    3    3    0    0 -0.16746543808E+02  0.79877990654E+00  0.36198657485E+02  0.39892700869E+02  0.00000000000E+00 0. -1.
<mgrwt>
<rscale>  0 0.92261113E+02</rscale>
<asrwt>0</asrwt>
<pdfrwt beam="1">  1        1 0.60603908E-02 0.92261113E+02</pdfrwt>
<pdfrwt beam="2">  1       -1 0.83109381E-02 0.92261113E+02</pdfrwt>
<totfact> 0.87474066E+04</totfact>
</mgrwt>
</event>
<event>
 5    1  0.5681061E+000  0.9130529E+02  0.7546771E-02  0.1299721E+00
          4   -1    0    0  501    0  0.00000000000E+00  0.00000000000E+00  0.14075453323E+02  0.14075453323E+02  0.00000000000E+00 0. -1.
         -4   -1    0    0    0  501 -0.00000000000E+00 -0.00000000000E+00 -0.14807082258E+03  0.14807082258E+03  0.00000000000E+00 0.  1.
         23    2    1    2    0    0  0.00000000000E+00  0.00000000000E+00 -0.13399536926E+03  0.16214627590E+03  0.91305289040E+02 0.  0.
        -11    1    3    3    0    0 -0.20262589510E+01 -0.45573078933E+02 -0.63844477036E+02  0.78467372180E+02  0.00000000000E+00 0. -1.
         11    1    3    3    0    0  0.20262589510E+01  0.45573078933E+02 -0.70150892223E+02  0.83678903725E+02  0.00000000000E+00 0.  1.
<mgrwt>
<rscale>  0 0.91305289E+02</rscale>
<asrwt>0</asrwt>
<pdfrwt beam="1">  1        4 0.21654545E-02 0.91305289E+02</pdfrwt>
<pdfrwt beam="2">  1       -4 0.22780125E-01 0.91305289E+02</pdfrwt>
<totfact> 0.22990545E+04</totfact>
</mgrwt>
</event>
<event>
 5    1  0.5681061E+000  0.9094200E+02  0.7546771E-02  0.1300586E+00
          1   -1    0    0  501    0  0.00000000000E+00  0.00000000000E+00  0.25460676722E+02  0.25460676722E+02  0.00000000000E+00 0. -1.
         -1   -1    0    0    0  501 -0.00000000000E+00 -0.00000000000E+00 -0.81208049875E+02  0.81208049875E+02  0.00000000000E+00 0.  1.
         23    2    1    2    0    0  0.00000000000E+00  0.00000000000E+00 -0.55747373153E+02  0.10666872660E+03  0.90942001410E+02 0.  0.
        -11    1    3    3    0    0  0.21596154522E+02 -0.40006465880E+02 -0.26891849325E+02  0.52821234012E+02  0.00000000000E+00 0. -1.
         11    1    3    3    0    0 -0.21596154522E+02  0.40006465880E+02 -0.28855523827E+02  0.53847492586E+02  0.00000000000E+00 0.  1.
<mgrwt>
<rscale>  0 0.90942001E+02</rscale>
<asrwt>0</asrwt>
<pdfrwt beam="1">  1        1 0.39170271E-02 0.90942001E+02</pdfrwt>
<pdfrwt beam="2">  1       -1 0.12493546E-01 0.90942001E+02</pdfrwt>
<totfact> 0.84995423E+04</totfact>
</mgrwt>
</event>
<event>
 5    1  0.5681061E+000  0.9047725E+02  0.7546771E-02  0.1301700E+00
          1   -1    0    0  501    0  0.00000000000E+00  0.00000000000E+00  0.90010322456E+02  0.90010322456E+02  0.00000000000E+00 0. -1.
         -1   -1    0    0    0  501 -0.00000000000E+00 -0.00000000000E+00 -0.22736648523E+02  0.22736648523E+02  0.00000000000E+00 0.  1.
         23    2    1    2    0    0  0.00000000000E+00  0.00000000000E+00  0.67273673933E+02  0.11274697098E+03  0.90477247197E+02 0.  0.
        -11    1    3    3    0    0  0.14169007582E+02 -0.42962448511E+02  0.33658677428E+02  0.56386517219E+02  0.00000000000E+00 0. -1.
         11    1    3    3    0    0 -0.14169007582E+02  0.42962448511E+02  0.33614996505E+02  0.56360453759E+02  0.00000000000E+00 0.  1.
<mgrwt>
<rscale>  0 0.90477247E+02</rscale>
<asrwt>0</asrwt>
<pdfrwt beam="1">  1        1 0.13847742E-01 0.90477247E+02</pdfrwt>
<pdfrwt beam="2">  1       -1 0.34979460E-02 0.90477247E+02</pdfrwt>
<totfact> 0.10484519E+05</totfact>
</mgrwt>
</event>
<event>
 5    1  0.5681061E+000  0.8879080E+02  0.7546771E-02  0.1305807E+00
         -2   -1    0    0    0  501 -0.00000000000E+00  0.00000000000E+00  0.23669795686E+03  0.23669795686E+03  0.00000000000E+00 0.  1.
          2   -1    0    0  501    0  0.00000000000E+00 -0.00000000000E+00 -0.83268635037E+01  0.83268635037E+01  0.00000000000E+00 0. -1.
         23    2    1    2    0    0  0.00000000000E+00  0.00000000000E+00  0.22837109336E+03  0.24502482037E+03  0.88790800839E+02 0.  0.
        -11    1    3    3    0    0 -0.41775353534E+02 -0.31344687480E+01  0.73633272696E+02  0.84716373300E+02  0.00000000000E+00 0. -1.
         11    1    3    3    0    0  0.41775353534E+02  0.31344687480E+01  0.15473782067E+03  0.16030844707E+03  0.00000000000E+00 0.  1.
<mgrwt>
<rscale>  0 0.88790801E+02</rscale>
<asrwt>0</asrwt>
<pdfrwt beam="2">  1        2 0.12810561E-02 0.88790801E+02</pdfrwt>
<pdfrwt beam="1">  1       -2 0.36415065E-01 0.88790801E+02</pdfrwt>
<totfact> 0.61757631E+04</totfact>
</mgrwt>
</event>
<event>
 5    1  0.5681061E+000  0.9208797E+02  0.7546771E-02  0.1297873E+00
         -1   -1    0    0    0  501 -0.00000000000E+00  0.00000000000E+00  0.21666413113E+02  0.21666413113E+02  0.00000000000E+00 0.  1.
          1   -1    0    0  501    0  0.00000000000E+00 -0.00000000000E+00 -0.97849548148E+02  0.97849548148E+02  0.00000000000E+00 0. -1.
         23    2    1    2    0    0  0.00000000000E+00  0.00000000000E+00 -0.76183135035E+02  0.11951596126E+03  0.92087973875E+02 0.  0.
        -11    1    3    3    0    0  0.38407666239E+02 -0.18233475943E+02 -0.15150876902E+02  0.45134881652E+02  0.00000000000E+00 0.  1.
         11    1    3    3    0    0 -0.38407666239E+02  0.18233475943E+02 -0.61032258133E+02  0.74381079609E+02  0.00000000000E+00 0. -1.
<mgrwt>
<rscale>  0 0.92087974E+02</rscale>
<asrwt>0</asrwt>
<pdfrwt beam="2">  1        1 0.15053777E-01 0.92087974E+02</pdfrwt>
<pdfrwt beam="1">  1       -1 0.33332943E-02 0.92087974E+02</pdfrwt>
<totfact> 0.10128656E+05</totfact>
</mgrwt>
</event>
<event>
 5    1  0.5681061E+000  0.8962297E+02  0.7546771E-02  0.1303767E+00
          4   -1    0    0  501    0  0.00000000000E+00  0.00000000000E+00  0.10290322537E+02  0.10290322537E+02  0.00000000000E+00 0. -1.
         -4   -1    0    0    0  501 -0.00000000000E+00 -0.00000000000E+00 -0.19514151556E+03  0.19514151556E+03  0.00000000000E+00 0.  1.
         23    2    1    2    0    0  0.00000000000E+00  0.00000000000E+00 -0.18485119302E+03  0.20543183809E+03  0.89622968829E+02 0.  0.
        -11    1    3    3    0    0  0.41556768633E+02  0.95653714735E+01 -0.12398846807E+03  0.13111674784E+03  0.00000000000E+00 0.  1.
         11    1    3    3    0    0 -0.41556768633E+02 -0.95653714735E+01 -0.60862724954E+02  0.74315090254E+02  0.00000000000E+00 0. -1.
<mgrwt>
<rscale>  0 0.89622969E+02</rscale>
<asrwt>0</asrwt>
<pdfrwt beam="1">  1        4 0.15831265E-02 0.89622969E+02</pdfrwt>
<pdfrwt beam="2">  1       -4 0.30021772E-01 0.89622969E+02</pdfrwt>
<totfact> 0.22154624E+04</totfact>
</mgrwt>
</event>
<event>
 5    1  0.5681061E+000  0.8775837E+02  0.7546771E-02  0.1308373E+00
          1   -1    0    0  501    0  0.00000000000E+00  0.00000000000E+00  0.12076551622E+03  0.12076551622E+03  0.00000000000E+00 0. -1.
         -1   -1    0    0    0  501 -0.00000000000E+00 -0.00000000000E+00 -0.15943151159E+02  0.15943151159E+02  0.00000000000E+00 0.  1.
         23    2    1    2    0    0  0.00000000000E+00  0.00000000000E+00  0.10482236506E+03  0.13670866738E+03  0.87758370084E+02 0.  0.
        -11    1    3    3    0    0  0.19406728831E+02  0.17737845544E+02  0.10713647108E+03  0.11031534673E+03  0.00000000000E+00 0. -1.
         11    1    3    3    0    0 -0.19406728831E+02 -0.17737845544E+02 -0.23141060163E+01  0.26393320653E+02  0.00000000000E+00 0.  1.
<mgrwt>
<rscale>  0 0.87758370E+02</rscale>
<asrwt>0</asrwt>
<pdfrwt beam="1">  1        1 0.18579310E-01 0.87758370E+02</pdfrwt>
<pdfrwt beam="2">  1       -1 0.24527926E-02 0.87758370E+02</pdfrwt>
<totfact> 0.11959561E+05</totfact>
</mgrwt>
</event>
<event>
 5    1  0.5681061E+000  0.9211069E+02  0.7546771E-02  0.1297819E+00
          2   -1    0    0  501    0  0.00000000000E+00  0.00000000000E+00  0.14579802667E+03  0.14579802667E+03  0.00000000000E+00 0. -1.
         -2   -1    0    0    0  501 -0.00000000000E+00 -0.00000000000E+00 -0.14548172341E+02  0.14548172341E+02  0.00000000000E+00 0.  1.
         23    2    1    2    0    0  0.00000000000E+00  0.00000000000E+00  0.13124985433E+03  0.16034619901E+03  0.92110690346E+02 0.  0.
        -11    1    3    3    0    0 -0.34424705397E+02 -0.18427907340E+02  0.23110683695E+02  0.45373470349E+02  0.00000000000E+00 0.  1.
         11    1    3    3    0    0  0.34424705397E+02  0.18427907340E+02  0.10813917064E+03  0.11497272867E+03  0.00000000000E+00 0. -1.
<mgrwt>
<rscale>  0 0.92110690E+02</rscale>
<asrwt>0</asrwt>
<pdfrwt beam="1">  1        2 0.22430465E-01 0.92110690E+02</pdfrwt>
<pdfrwt beam="2">  1       -2 0.22381805E-02 0.92110690E+02</pdfrwt>
<totfact> 0.13468330E+05</totfact>
</mgrwt>
</event>
<event>
 5    1  0.5681061E+000  0.9932204E+02  0.7546771E-02  0.1281728E+00
         -3   -1    0    0    0  501 -0.00000000000E+00  0.00000000000E+00  0.27063263363E+02  0.27063263363E+02  0.00000000000E+00 0.  1.
          3   -1    0    0  501    0  0.00000000000E+00 -0.00000000000E+00 -0.91127842489E+02  0.91127842489E+02  0.00000000000E+00 0. -1.
         23    2    1    2    0    0  0.00000000000E+00  0.00000000000E+00 -0.64064579126E+02  0.11819110585E+03  0.99322037857E+02 0.  0.
        -11    1    3    3    0    0 -0.12141719923E+02  0.88079974762E+01  0.24303047582E+02  0.28559417081E+02  0.00000000000E+00 0.  1.
         11    1    3    3    0    0  0.12141719923E+02 -0.88079974762E+01 -0.88367626707E+02  0.89631688772E+02  0.00000000000E+00 0. -1.
<mgrwt>
<rscale>  0 0.99322038E+02</rscale>
<asrwt>0</asrwt>
<pdfrwt beam="2">  1        3 0.14019668E-01 0.99322038E+02</pdfrwt>
<pdfrwt beam="1">  1       -3 0.41635790E-02 0.99322038E+02</pdfrwt>
<totfact> 0.26411769E+04</totfact>
</mgrwt>
</event>
<event>
 5    1  0.5681061E+000  0.8923955E+02  0.7546771E-02  0.1304704E+00
          2   -1    0    0  501    0  0.00000000000E+00  0.00000000000E+00  0.22326672471E+03  0.22326672471E+03  0.00000000000E+00 0. -1.
         -2   -1    0    0    0  501 -0.00000000000E+00 -0.00000000000E+00 -0.89172452566E+01  0.89172452566E+01  0.00000000000E+00 0.  1.
         23    2    1    2    0    0  0.00000000000E+00  0.00000000000E+00  0.21434947945E+03  0.23218396997E+03  0.89239545985E+02 0.  0.
        -11    1    3    3    0    0 -0.23437912769E+02 -0.32503967119E+02  0.15823119375E+03  0.16322669607E+03  0.00000000000E+00 0. -1.
         11    1    3    3    0    0  0.23437912769E+02  0.32503967119E+02  0.56118285705E+02  0.68957273901E+02  0.00000000000E+00 0.  1.
<mgrwt>
<rscale>  0 0.89239546E+02</rscale>
<asrwt>0</asrwt>
<pdfrwt beam="1">  1        2 0.34348722E-01 0.89239546E+02</pdfrwt>
<pdfrwt beam="2">  1       -2 0.13718841E-02 0.89239546E+02</pdfrwt>
<totfact> 0.17054693E+05</totfact>
</mgrwt>
</event>
<event>
 5    1  0.5681061E+000  0.9108243E+02  0.7546771E-02  0.1300251E+00
         -4   -1    0    0    0  501 -0.00000000000E+00  0.00000000000E+00  0.11203936847E+03  0.11203936847E+03  0.00000000000E+00 0.  1.
          4   -1    0    0  501    0  0.00000000000E+00 -0.00000000000E+00 -0.18511371306E+02  0.18511371306E+02  0.00000000000E+00 0. -1.
         23    2    1    2    0    0  0.00000000000E+00  0.00000000000E+00  0.93527997167E+02  0.13055073978E+03  0.91082431910E+02 0.  0.
        -11    1    3    3    0    0  0.14223134584E+02  0.40183430194E+02  0.23786194669E+02  0.48813816450E+02  0.00000000000E+00 0. -1.
         11    1    3    3    0    0 -0.14223134584E+02 -0.40183430194E+02  0.69741802498E+02  0.81736923329E+02  0.00000000000E+00 0.  1.
<mgrwt>
<rscale>  0 0.91082432E+02</rscale>
<asrwt>0</asrwt>
<pdfrwt beam="2">  1        4 0.28479033E-02 0.91082432E+02</pdfrwt>
<pdfrwt beam="1">  1       -4 0.17236826E-01 0.91082432E+02</pdfrwt>
<totfact> 0.24757137E+04</totfact>
</mgrwt>
</event>
<event>
 5    1  0.5681061E+000  0.1107432E+03  0.7546771E-02  0.1259200E+00
          2   -1    0    0  501    0  0.00000000000E+00  0.00000000000E+00  0.28705648780E+02  0.28705648780E+02  0.00000000000E+00 0. -1.
         -2   -1    0    0    0  501 -0.00000000000E+00 -0.00000000000E+00 -0.10680874105E+03  0.10680874105E+03  0.00000000000E+00 0.  1.
         23    2    1    2    0    0  0.00000000000E+00  0.00000000000E+00 -0.78103092271E+02  0.13551438983E+03  0.11074320218E+03 0.  0.
        -11    1    3    3    0    0 -0.46663987301E+02 -0.48581887278E+01 -0.75038691115E+02  0.88498219602E+02  0.00000000000E+00 0. -1.
         11    1    3    3    0    0  0.46663987301E+02  0.48581887278E+01 -0.30644011558E+01  0.47016170229E+02  0.00000000000E+00 0.  1.
<mgrwt>
<rscale>  0 0.11074320E+03</rscale>
<asrwt>0</asrwt>
<pdfrwt beam="1">  1        2 0.44162537E-02 0.11074320E+03</pdfrwt>
<pdfrwt beam="2">  1       -2 0.16432114E-01 0.11074320E+03</pdfrwt>
<totfact> 0.48207737E+04</totfact>
</mgrwt>
</event>
<event>
 5    1  0.5681061E+000  0.9117454E+02  0.7546771E-02  0.1300032E+00
         -3   -1    0    0    0  501 -0.00000000000E+00  0.00000000000E+00  0.11299952434E+03  0.11299952434E+03  0.00000000000E+00 0.  1.
          3   -1    0    0  501    0  0.00000000000E+00 -0.00000000000E+00 -0.18391221785E+02  0.18391221785E+02  0.00000000000E+00 0. -1.
         23    2    1    2    0    0  0.00000000000E+00  0.00000000000E+00  0.94608302553E+02  0.13139074612E+03  0.91174542801E+02 0.  0.
        -11    1    3    3    0    0 -0.31745869002E+02 -0.15144515826E+02  0.55114712631E+01  0.35602427920E+02  0.00000000000E+00 0. -1.
         11    1    3    3    0    0  0.31745869002E+02  0.15144515826E+02  0.89096831290E+02  0.95788318203E+02  0.00000000000E+00 0.  1.
<mgrwt>
<rscale>  0 0.91174543E+02</rscale>
<asrwt>0</asrwt>
<pdfrwt beam="2">  1        3 0.28294188E-02 0.91174543E+02</pdfrwt>
<pdfrwt beam="1">  1       -3 0.17384542E-01 0.91174543E+02</pdfrwt>
<totfact> 0.32488402E+04</totfact>
</mgrwt>
</event>
<event>
 5    1  0.5681061E+000  0.9190521E+02  0.7546771E-02  0.1298302E+00
         -1   -1    0    0    0  501 -0.00000000000E+00  0.00000000000E+00  0.10791102644E+03  0.10791102644E+03  0.00000000000E+00 0.  1.
          1   -1    0    0  501    0  0.00000000000E+00 -0.00000000000E+00 -0.19568361865E+02  0.19568361865E+02  0.00000000000E+00 0. -1.
         23    2    1    2    0    0  0.00000000000E+00  0.00000000000E+00  0.88342664572E+02  0.12747938830E+03  0.91905212355E+02 0.  0.
        -11    1    3    3    0    0 -0.23948491051E+02  0.95339720151E+01 -0.85961509583E+01  0.27172056553E+02  0.00000000000E+00 0. -1.
         11    1    3    3    0    0  0.23948491051E+02 -0.95339720151E+01  0.96938815530E+02  0.10030733175E+03  0.00000000000E+00 0.  1.
<mgrwt>
<rscale>  0 0.91905212E+02</rscale>
<asrwt>0</asrwt>
<pdfrwt beam="2">  1        1 0.30105173E-02 0.91905212E+02</pdfrwt>
<pdfrwt beam="1">  1       -1 0.16601696E-01 0.91905212E+02</pdfrwt>
<totfact> 0.78573866E+04</totfact>
</mgrwt>
</event>
<event>
 5    1  0.5681061E+000  0.9334915E+02  0.7546771E-02  0.1294938E+00
         -2   -1    0    0    0  501 -0.00000000000E+00  0.00000000000E+00  0.13476903270E+03  0.13476903270E+03  0.00000000000E+00 0.  1.
          2   -1    0    0  501    0  0.00000000000E+00 -0.00000000000E+00 -0.16164811006E+02  0.16164811006E+02  0.00000000000E+00 0. -1.
         23    2    1    2    0    0  0.00000000000E+00  0.00000000000E+00  0.11860422169E+03  0.15093384371E+03  0.93349149822E+02 0.  0.
        -11    1    3    3    0    0  0.78675269999E+01  0.24470263595E+02  0.12229434271E+03  0.12496638764E+03  0.00000000000E+00 0.  1.
         11    1    3    3    0    0 -0.78675269999E+01 -0.24470263595E+02 -0.36901210130E+01  0.25967456067E+02  0.00000000000E+00 0. -1.
<mgrwt>
<rscale>  0 0.93349150E+02</rscale>
<asrwt>0</asrwt>
<pdfrwt beam="2">  1        2 0.24868941E-02 0.93349150E+02</pdfrwt>
<pdfrwt beam="1">  1       -2 0.20733697E-01 0.93349150E+02</pdfrwt>
<totfact> 0.68366297E+04</totfact>
</mgrwt>
</event>
<event>
 5    1  0.5681061E+000  0.9654448E+02  0.7546771E-02  0.1287735E+00
         -3   -1    0    0    0  501 -0.00000000000E+00  0.00000000000E+00  0.69468949632E+01  0.69468949632E+01  0.00000000000E+00 0.  1.
          3   -1    0    0  501    0  0.00000000000E+00 -0.00000000000E+00 -0.33543177986E+03  0.33543177986E+03  0.00000000000E+00 0. -1.
         23    2    1    2    0    0  0.00000000000E+00  0.00000000000E+00 -0.32848488490E+03  0.34237867482E+03  0.96544483882E+02 0.  0.
        -11    1    3    3    0    0  0.42673488219E+02  0.11554177532E+02 -0.23297942023E+03  0.23713695592E+03  0.00000000000E+00 0. -1.
         11    1    3    3    0    0 -0.42673488219E+02 -0.11554177532E+02 -0.95505464667E+02  0.10524171890E+03  0.00000000000E+00 0.  1.
<mgrwt>
<rscale>  0 0.96544484E+02</rscale>
<asrwt>0</asrwt>
<pdfrwt beam="2">  1        3 0.51604874E-01 0.96544484E+02</pdfrwt>
<pdfrwt beam="1">  1       -3 0.10687534E-02 0.96544484E+02</pdfrwt>
<totfact> 0.19271561E+04</totfact>
</mgrwt>
</event>
<event>
 5    1  0.5681061E+000  0.9215756E+02  0.7546771E-02  0.1297709E+00
          2   -1    0    0  501    0  0.00000000000E+00  0.00000000000E+00  0.12976628264E+03  0.12976628264E+03  0.00000000000E+00 0. -1.
         -2   -1    0    0    0  501 -0.00000000000E+00 -0.00000000000E+00 -0.16362138821E+02  0.16362138821E+02  0.00000000000E+00 0.  1.
         23    2    1    2    0    0  0.00000000000E+00  0.00000000000E+00  0.11340414382E+03  0.14612842146E+03  0.92157559231E+02 0.  0.
        -11    1    3    3    0    0 -0.39784809637E+02  0.16066087203E+02  0.30060367218E+02  0.52388700243E+02  0.00000000000E+00 0. -1.
         11    1    3    3    0    0  0.39784809637E+02 -0.16066087203E+02  0.83343776599E+02  0.93739721216E+02  0.00000000000E+00 0.  1.
<mgrwt>
<rscale>  0 0.92157559E+02</rscale>
<asrwt>0</asrwt>
<pdfrwt beam="1">  1        2 0.19964043E-01 0.92157559E+02</pdfrwt>
<pdfrwt beam="2">  1       -2 0.25172522E-02 0.92157559E+02</pdfrwt>
<totfact> 0.12936628E+05</totfact>
</mgrwt>
</event>
<event>
 5    1  0.5681061E+000  0.9151342E+02  0.7546771E-02  0.1299228E+00
          1   -1    0    0  501    0  0.00000000000E+00  0.00000000000E+00  0.10180537701E+03  0.10180537701E+03  0.00000000000E+00 0. -1.
         -1   -1    0    0    0  501 -0.00000000000E+00 -0.00000000000E+00 -0.20565480859E+02  0.20565480859E+02  0.00000000000E+00 0.  1.
         23    2    1    2    0    0  0.00000000000E+00  0.00000000000E+00  0.81239896152E+02  0.12237085787E+03  0.91513420485E+02 0.  0.
        -11    1    3    3    0    0 -0.36796868800E+02  0.20218907372E+02  0.64942949362E+02  0.77333048826E+02  0.00000000000E+00 0. -1.
         11    1    3    3    0    0  0.36796868800E+02 -0.20218907372E+02  0.16296946789E+02  0.45037809044E+02  0.00000000000E+00 0.  1.
<mgrwt>
<rscale>  0 0.91513420E+02</rscale>
<asrwt>0</asrwt>
<pdfrwt beam="1">  1        1 0.15662365E-01 0.91513420E+02</pdfrwt>
<pdfrwt beam="2">  1       -1 0.31639202E-02 0.91513420E+02</pdfrwt>
<totfact> 0.10371583E+05</totfact>
</mgrwt>
</event>
<event>
 5    1  0.5681061E+000  0.9191927E+02  0.7546771E-02  0.1298269E+00
          1   -1    0    0  501    0  0.00000000000E+00  0.00000000000E+00  0.22377928584E+03  0.22377928584E+03  0.00000000000E+00 0. -1.
         -1   -1    0    0    0  501 -0.00000000000E+00 -0.00000000000E+00 -0.94391586644E+01  0.94391586644E+01  0.00000000000E+00 0.  1.
         23    2    1    2    0    0  0.00000000000E+00  0.00000000000E+00  0.21434012718E+03  0.23321844451E+03  0.91919272949E+02 0.  0.
        -11    1    3    3    0    0 -0.13526426673E+02  0.34740076276E+02  0.38973807623E+02  0.53933243912E+02  0.00000000000E+00 0.  1.
         11    1    3    3    0    0  0.13526426673E+02 -0.34740076276E+02  0.17536631956E+03  0.17928520060E+03  0.00000000000E+00 0. -1.
<mgrwt>
<rscale>  0 0.91919273E+02</rscale>
<asrwt>0</asrwt>
<pdfrwt beam="1">  1        1 0.34427578E-01 0.91919273E+02</pdfrwt>
<pdfrwt beam="2">  1       -1 0.14521784E-02 0.91919273E+02</pdfrwt>
<totfact> 0.11842329E+05</totfact>
</mgrwt>
</event>
<event>
 5    1  0.5681061E+000  0.8099439E+02  0.7546771E-02  0.1326253E+00
          2   -1    0    0  501    0  0.00000000000E+00  0.00000000000E+00  0.73727377188E+02  0.73727377188E+02  0.00000000000E+00 0. -1.
         -2   -1    0    0    0  501 -0.00000000000E+00 -0.00000000000E+00 -0.22244418319E+02  0.22244418319E+02  0.00000000000E+00 0.  1.
         23    2    1    2    0    0  0.00000000000E+00  0.00000000000E+00  0.51482958869E+02  0.95971795507E+02  0.80994385478E+02 0.  0.
        -11    1    3    3    0    0  0.35103170617E+02 -0.14043141191E+02  0.42936293763E+02  0.57209856878E+02  0.00000000000E+00 0.  1.
         11    1    3    3    0    0 -0.35103170617E+02  0.14043141191E+02  0.85466651059E+01  0.38761938630E+02  0.00000000000E+00 0. -1.
<mgrwt>
<rscale>  0 0.80994385E+02</rscale>
<asrwt>0</asrwt>
<pdfrwt beam="1">  1        2 0.11342673E-01 0.80994385E+02</pdfrwt>
<pdfrwt beam="2">  1       -2 0.34222182E-02 0.80994385E+02</pdfrwt>
<totfact> 0.15565090E+05</totfact>
</mgrwt>
</event>
<event>
 5    1  0.5681061E+000  0.8627333E+02  0.7546771E-02  0.1312136E+00
         -2   -1    0    0    0  501 -0.00000000000E+00  0.00000000000E+00  0.13064629499E+03  0.13064629499E+03  0.00000000000E+00 0.  1.
          2   -1    0    0  501    0  0.00000000000E+00 -0.00000000000E+00 -0.14242823147E+02  0.14242823147E+02  0.00000000000E+00 0. -1.
         23    2    1    2    0    0  0.00000000000E+00  0.00000000000E+00  0.11640347185E+03  0.14488911814E+03  0.86273334802E+02 0.  0.
        -11    1    3    3    0    0  0.37637413512E+02  0.19086129487E+02  0.73215111001E+02  0.84506258428E+02  0.00000000000E+00 0. -1.
         11    1    3    3    0    0 -0.37637413512E+02 -0.19086129487E+02  0.43188360844E+02  0.60382859712E+02  0.00000000000E+00 0.  1.
<mgrwt>
<rscale>  0 0.86273335E+02</rscale>
<asrwt>0</asrwt>
<pdfrwt beam="2">  1        2 0.21912036E-02 0.86273335E+02</pdfrwt>
<pdfrwt beam="1">  1       -2 0.20099429E-01 0.86273335E+02</pdfrwt>
<totfact> 0.84267786E+04</totfact>
</mgrwt>
</event>
<event>
 5    1  0.5681061E+000  0.8906250E+02  0.7546771E-02  0.1305138E+00
          1   -1    0    0  501    0  0.00000000000E+00  0.00000000000E+00  0.24661177872E+02  0.24661177872E+02  0.00000000000E+00 0. -1.
         -1   -1    0    0    0  501 -0.00000000000E+00 -0.00000000000E+00 -0.80411082433E+02  0.80411082433E+02  0.00000000000E+00 0.  1.
         23    2    1    2    0    0  0.00000000000E+00  0.00000000000E+00 -0.55749904562E+02  0.10507226031E+03  0.89062495064E+02 0.  0.
        -11    1    3    3    0    0 -0.31679725556E+02  0.18469888368E+02 -0.57680857220E+02  0.68350735748E+02  0.00000000000E+00 0.  1.
         11    1    3    3    0    0  0.31679725556E+02 -0.18469888368E+02  0.19309526581E+01  0.36721524557E+02  0.00000000000E+00 0. -1.
<mgrwt>
<rscale>  0 0.89062495E+02</rscale>
<asrwt>0</asrwt>
<pdfrwt beam="1">  1        1 0.37940273E-02 0.89062495E+02</pdfrwt>
<pdfrwt beam="2">  1       -1 0.12370936E-01 0.89062495E+02</pdfrwt>
<totfact> 0.89807145E+04</totfact>
</mgrwt>
</event>
<event>
 5    1  0.5681061E+000  0.9121971E+02  0.7546771E-02  0.1299925E+00
          2   -1    0    0  501    0  0.00000000000E+00  0.00000000000E+00  0.35047198393E+03  0.35047198393E+03  0.00000000000E+00 0. -1.
         -2   -1    0    0    0  501 -0.00000000000E+00 -0.00000000000E+00 -0.59355924178E+01  0.59355924178E+01  0.00000000000E+00 0.  1.
         23    2    1    2    0    0  0.00000000000E+00  0.00000000000E+00  0.34453639151E+03  0.35640757635E+03  0.91219709503E+02 0.  0.
        -11    1    3    3    0    0 -0.39008052128E+02  0.13926055058E+02  0.97653637865E+02  0.10607448387E+03  0.00000000000E+00 0.  1.
         11    1    3    3    0    0  0.39008052128E+02 -0.13926055058E+02  0.24688275365E+03  0.25033309248E+03  0.00000000000E+00 0. -1.
<mgrwt>
<rscale>  0 0.91219710E+02</rscale>
<asrwt>0</asrwt>
<pdfrwt beam="1">  1        2 0.53918751E-01 0.91219710E+02</pdfrwt>
<pdfrwt beam="2">  1       -2 0.91316834E-03 0.91219710E+02</pdfrwt>
<totfact> 0.19005268E+05</totfact>
</mgrwt>
</event>
<event>
 5    1  0.5681061E+000  0.9067327E+02  0.7546771E-02  0.1301229E+00
          4   -1    0    0  501    0  0.00000000000E+00  0.00000000000E+00  0.93655749810E+02  0.93655749810E+02  0.00000000000E+00 0. -1.
         -4   -1    0    0    0  501 -0.00000000000E+00 -0.00000000000E+00 -0.21946443415E+02  0.21946443415E+02  0.00000000000E+00 0.  1.
         23    2    1    2    0    0  0.00000000000E+00  0.00000000000E+00  0.71709306394E+02  0.11560219322E+03  0.90673273101E+02 0.  0.
        -11    1    3    3    0    0 -0.22868537500E+02  0.30514636113E+02  0.45915911955E+01  0.38408276897E+02  0.00000000000E+00 0.  1.
         11    1    3    3    0    0  0.22868537500E+02 -0.30514636113E+02  0.67117715199E+02  0.77193916328E+02  0.00000000000E+00 0. -1.
<mgrwt>
<rscale>  0 0.90673273E+02</rscale>
<asrwt>0</asrwt>
<pdfrwt beam="1">  1        4 0.14408577E-01 0.90673273E+02</pdfrwt>
<pdfrwt beam="2">  1       -4 0.33763760E-02 0.90673273E+02</pdfrwt>
<totfact> 0.25909045E+04</totfact>
</mgrwt>
</event>
<event>
 5    1  0.5681061E+000  0.8729622E+02  0.7546771E-02  0.1309535E+00
         -2   -1    0    0    0  501 -0.00000000000E+00  0.00000000000E+00  0.34943572287E+02  0.34943572287E+02  0.00000000000E+00 0.  1.
          2   -1    0    0  501    0  0.00000000000E+00 -0.00000000000E+00 -0.54520968670E+02  0.54520968670E+02  0.00000000000E+00 0. -1.
         23    2    1    2    0    0  0.00000000000E+00  0.00000000000E+00 -0.19577396383E+02  0.89464540957E+02  0.87296217785E+02 0.  0.
        -11    1    3    3    0    0  0.20710150431E+02  0.14676209802E+01 -0.49136273637E+02  0.53342643627E+02  0.00000000000E+00 0. -1.
         11    1    3    3    0    0 -0.20710150431E+02 -0.14676209802E+01  0.29558877253E+02  0.36121897330E+02  0.00000000000E+00 0.  1.
<mgrwt>
<rscale>  0 0.87296218E+02</rscale>
<asrwt>0</asrwt>
<pdfrwt beam="2">  1        2 0.83878413E-02 0.87296218E+02</pdfrwt>
<pdfrwt beam="1">  1       -2 0.53759342E-02 0.87296218E+02</pdfrwt>
<totfact> 0.11690756E+05</totfact>
</mgrwt>
</event>
<event>
 5    1  0.5681061E+000  0.9064542E+02  0.7546771E-02  0.1301296E+00
          1   -1    0    0  501    0  0.00000000000E+00  0.00000000000E+00  0.88182071979E+02  0.88182071979E+02  0.00000000000E+00 0. -1.
         -1   -1    0    0    0  501 -0.00000000000E+00 -0.00000000000E+00 -0.23294396931E+02  0.23294396931E+02  0.00000000000E+00 0.  1.
         23    2    1    2    0    0  0.00000000000E+00  0.00000000000E+00  0.64887675048E+02  0.11147646891E+03  0.90645423202E+02 0.  0.
        -11    1    3    3    0    0 -0.14981803131E+02  0.39766429609E+02  0.51823553290E+02  0.67018684145E+02  0.00000000000E+00 0. -1.
         11    1    3    3    0    0  0.14981803131E+02 -0.39766429609E+02  0.13064121758E+02  0.44457784765E+02  0.00000000000E+00 0.  1.
<mgrwt>
<rscale>  0 0.90645423E+02</rscale>
<asrwt>0</asrwt>
<pdfrwt beam="1">  1        1 0.13566472E-01 0.90645423E+02</pdfrwt>
<pdfrwt beam="2">  1       -1 0.35837534E-02 0.90645423E+02</pdfrwt>
<totfact> 0.10397039E+05</totfact>
</mgrwt>
</event>
<event>
 5    1  0.5681061E+000  0.6088640E+02  0.7546771E-02  0.1394149E+00
         -3   -1    0    0    0  501 -0.00000000000E+00  0.00000000000E+00  0.77557216136E+01  0.77557216136E+01  0.00000000000E+00 0.  1.
          3   -1    0    0  501    0  0.00000000000E+00 -0.00000000000E+00 -0.11949736614E+03  0.11949736614E+03  0.00000000000E+00 0. -1.
         23    2    1    2    0    0  0.00000000000E+00  0.00000000000E+00 -0.11174164452E+03  0.12725308775E+03  0.60886396028E+02 0.  0.
        -11    1    3    3    0    0  0.11142816849E+02 -0.20999855780E+02 -0.95615729226E+02  0.98526767863E+02  0.00000000000E+00 0.  1.
         11    1    3    3    0    0 -0.11142816849E+02  0.20999855780E+02 -0.16125915296E+02  0.28726319887E+02  0.00000000000E+00 0. -1.
<mgrwt>
<rscale>  0 0.60886396E+02</rscale>
<asrwt>0</asrwt>
<pdfrwt beam="2">  1        3 0.18384209E-01 0.60886396E+02</pdfrwt>
<pdfrwt beam="1">  1       -3 0.11931880E-02 0.60886396E+02</pdfrwt>
<totfact> 0.95262805E+04</totfact>
</mgrwt>
</event>
<event>
 5    1  0.5681061E+000  0.8719246E+02  0.7546771E-02  0.1309797E+00
         -1   -1    0    0    0  501 -0.00000000000E+00  0.00000000000E+00  0.34264656491E+02  0.34264656491E+02  0.00000000000E+00 0.  1.
          1   -1    0    0  501    0  0.00000000000E+00 -0.00000000000E+00 -0.55469144458E+02  0.55469144458E+02  0.00000000000E+00 0. -1.
         23    2    1    2    0    0  0.00000000000E+00  0.00000000000E+00 -0.21204487967E+02  0.89733800949E+02  0.87192457947E+02 0.  0.
        -11    1    3    3    0    0 -0.30035123353E+02  0.10613220737E+02 -0.41233521121E+02  0.52105204666E+02  0.00000000000E+00 0. -1.
         11    1    3    3    0    0  0.30035123353E+02 -0.10613220737E+02  0.20029033154E+02  0.37628596284E+02  0.00000000000E+00 0.  1.
<mgrwt>
<rscale>  0 0.87192458E+02</rscale>
<asrwt>0</asrwt>
<pdfrwt beam="2">  1        1 0.85337145E-02 0.87192458E+02</pdfrwt>
<pdfrwt beam="1">  1       -1 0.52714857E-02 0.87192458E+02</pdfrwt>
<totfact> 0.10778840E+05</totfact>
</mgrwt>
</event>
<event>
 5    1  0.5681061E+000  0.9385496E+02  0.7546771E-02  0.1293776E+00
         -2   -1    0    0    0  501 -0.00000000000E+00  0.00000000000E+00  0.43602808978E+03  0.43602808978E+03  0.00000000000E+00 0.  1.
          2   -1    0    0  501    0  0.00000000000E+00 -0.00000000000E+00 -0.50505648817E+01  0.50505648817E+01  0.00000000000E+00 0. -1.
         23    2    1    2    0    0  0.00000000000E+00  0.00000000000E+00  0.43097752490E+03  0.44107865466E+03  0.93854955281E+02 0.  0.
        -11    1    3    3    0    0  0.67153960528E+00  0.46649305930E+02  0.19172011753E+03  0.19731500748E+03  0.00000000000E+00 0.  1.
         11    1    3    3    0    0 -0.67153960528E+00 -0.46649305930E+02  0.23925740737E+03  0.24376364719E+03  0.00000000000E+00 0. -1.
<mgrwt>
<rscale>  0 0.93854955E+02</rscale>
<asrwt>0</asrwt>
<pdfrwt beam="2">  1        2 0.77701033E-03 0.93854955E+02</pdfrwt>
<pdfrwt beam="1">  1       -2 0.67081215E-01 0.93854955E+02</pdfrwt>
<totfact> 0.37302136E+04</totfact>
</mgrwt>
</event>
<event>
 5    1  0.5681061E+000  0.9420858E+02  0.7546771E-02  0.1292969E+00
          1   -1    0    0  501    0  0.00000000000E+00  0.00000000000E+00  0.35061957656E+02  0.35061957656E+02  0.00000000000E+00 0. -1.
         -1   -1    0    0    0  501 -0.00000000000E+00 -0.00000000000E+00 -0.63282663326E+02  0.63282663326E+02  0.00000000000E+00 0.  1.
         23    2    1    2    0    0  0.00000000000E+00  0.00000000000E+00 -0.28220705671E+02  0.98344620982E+02  0.94208578418E+02 0.  0.
        -11    1    3    3    0    0 -0.88150159881E+01  0.16822613444E+02 -0.59108619080E+02  0.62084890912E+02  0.00000000000E+00 0.  1.
         11    1    3    3    0    0  0.88150159881E+01 -0.16822613444E+02  0.30887913410E+02  0.36259730070E+02  0.00000000000E+00 0. -1.
<mgrwt>
<rscale>  0 0.94208578E+02</rscale>
<asrwt>0</asrwt>
<pdfrwt beam="1">  1        1 0.53941475E-02 0.94208578E+02</pdfrwt>
<pdfrwt beam="2">  1       -1 0.97357941E-02 0.94208578E+02</pdfrwt>
<totfact> 0.80924020E+04</totfact>
</mgrwt>
</event>
<event>
 5    1  0.5681061E+000  0.9071516E+02  0.7546771E-02  0.1301129E+00
          1   -1    0    0  501    0  0.00000000000E+00  0.00000000000E+00  0.27836991328E+02  0.27836991328E+02  0.00000000000E+00 0. -1.
         -1   -1    0    0    0  501 -0.00000000000E+00 -0.00000000000E+00 -0.73905611811E+02  0.73905611811E+02  0.00000000000E+00 0.  1.
         23    2    1    2    0    0  0.00000000000E+00  0.00000000000E+00 -0.46068620482E+02  0.10174260314E+03  0.90715155847E+02 0.  0.
        -11    1    3    3    0    0 -0.60773120388E+01  0.27502259696E+02  0.16840336766E+02  0.32816230015E+02  0.00000000000E+00 0. -1.
         11    1    3    3    0    0  0.60773120388E+01 -0.27502259696E+02 -0.62908957249E+02  0.68926373124E+02  0.00000000000E+00 0.  1.
<mgrwt>
<rscale>  0 0.90715156E+02</rscale>
<asrwt>0</asrwt>
<pdfrwt beam="1">  1        1 0.42826141E-02 0.90715156E+02</pdfrwt>
<pdfrwt beam="2">  1       -1 0.11370094E-01 0.90715156E+02</pdfrwt>
<totfact> 0.86895208E+04</totfact>
</mgrwt>
</event>
<event>
 5    1  0.5681061E+000  0.9223873E+02  0.7546771E-02  0.1297519E+00
         -1   -1    0    0    0  501 -0.00000000000E+00  0.00000000000E+00  0.19066666506E+02  0.19066666506E+02  0.00000000000E+00 0.  1.
          1   -1    0    0  501    0  0.00000000000E+00 -0.00000000000E+00 -0.11155572072E+03  0.11155572072E+03  0.00000000000E+00 0. -1.
         23    2    1    2    0    0  0.00000000000E+00  0.00000000000E+00 -0.92489054210E+02  0.13062238722E+03  0.92238727738E+02 0.  0.
        -11    1    3    3    0    0  0.42461320580E+02 -0.10677777357E+02 -0.66767089674E+02  0.79842488302E+02  0.00000000000E+00 0. -1.
         11    1    3    3    0    0 -0.42461320580E+02  0.10677777357E+02 -0.25721964536E+02  0.50779898919E+02  0.00000000000E+00 0.  1.
<mgrwt>
<rscale>  0 0.92238728E+02</rscale>
<asrwt>0</asrwt>
<pdfrwt beam="2">  1        1 0.17162419E-01 0.92238728E+02</pdfrwt>
<pdfrwt beam="1">  1       -1 0.29333333E-02 0.92238728E+02</pdfrwt>
<totfact> 0.10309294E+05</totfact>
</mgrwt>
</event>
<event>
 5    1  0.5681061E+000  0.8910535E+02  0.7546771E-02  0.1305033E+00
          1   -1    0    0  501    0  0.00000000000E+00  0.00000000000E+00  0.13804597678E+02  0.13804597678E+02  0.00000000000E+00 0. -1.
         -1   -1    0    0    0  501 -0.00000000000E+00 -0.00000000000E+00 -0.14378838238E+03  0.14378838238E+03  0.00000000000E+00 0.  1.
         23    2    1    2    0    0  0.00000000000E+00  0.00000000000E+00 -0.12998378470E+03  0.15759298005E+03  0.89105348200E+02 0.  0.
        -11    1    3    3    0    0 -0.28865016142E+02 -0.31874840315E+02 -0.44385741021E+02  0.61800393267E+02  0.00000000000E+00 0. -1.
         11    1    3    3    0    0  0.28865016142E+02  0.31874840315E+02 -0.85598043678E+02  0.95792586788E+02  0.00000000000E+00 0.  1.
<mgrwt>
<rscale>  0 0.89105348E+02</rscale>
<asrwt>0</asrwt>
<pdfrwt beam="1">  1        1 0.21237843E-02 0.89105348E+02</pdfrwt>
<pdfrwt beam="2">  1       -1 0.22121290E-01 0.89105348E+02</pdfrwt>
<totfact> 0.80155036E+04</totfact>
</mgrwt>
</event>
<event>
 5    1  0.5681061E+000  0.9195086E+02  0.7546771E-02  0.1298195E+00
         -2   -1    0    0    0  501 -0.00000000000E+00  0.00000000000E+00  0.96923492374E+01  0.96923492374E+01  0.00000000000E+00 0.  1.
          2   -1    0    0  501    0  0.00000000000E+00 -0.00000000000E+00 -0.21808335664E+03  0.21808335664E+03  0.00000000000E+00 0. -1.
         23    2    1    2    0    0  0.00000000000E+00  0.00000000000E+00 -0.20839100740E+03  0.22777570588E+03  0.91950857645E+02 0.  0.
        -11    1    3    3    0    0  0.43665047757E+02  0.13789541514E+01 -0.13968032033E+03  0.14635275808E+03  0.00000000000E+00 0. -1.
         11    1    3    3    0    0 -0.43665047757E+02 -0.13789541514E+01 -0.68710687078E+02  0.81422947803E+02  0.00000000000E+00 0.  1.
<mgrwt>
<rscale>  0 0.91950858E+02</rscale>
<asrwt>0</asrwt>
<pdfrwt beam="2">  1        2 0.33551286E-01 0.91950858E+02</pdfrwt>
<pdfrwt beam="1">  1       -2 0.14911307E-02 0.91950858E+02</pdfrwt>
<totfact> 0.15603922E+05</totfact>
</mgrwt>
</event>
<event>
 5    1  0.5681061E+000  0.8918039E+02  0.7546771E-02  0.1304849E+00
          1   -1    0    0  501    0  0.00000000000E+00  0.00000000000E+00  0.80002335053E+01  0.80002335053E+01  0.00000000000E+00 0. -1.
         -1   -1    0    0    0  501 -0.00000000000E+00 -0.00000000000E+00 -0.24852841347E+03  0.24852841347E+03  0.00000000000E+00 0.  1.
         23    2    1    2    0    0  0.00000000000E+00  0.00000000000E+00 -0.24052817996E+03  0.25652864697E+03  0.89180386643E+02 0.  0.
        -11    1    3    3    0    0  0.28667864276E+02  0.19294502011E+02 -0.39201435284E+02  0.52257791556E+02  0.00000000000E+00 0. -1.
         11    1    3    3    0    0 -0.28667864276E+02 -0.19294502011E+02 -0.20132674468E+03  0.20427085542E+03  0.00000000000E+00 0.  1.
<mgrwt>
<rscale>  0 0.89180387E+02</rscale>
<asrwt>0</asrwt>
<pdfrwt beam="1">  1        1 0.12308051E-02 0.89180387E+02</pdfrwt>
<pdfrwt beam="2">  1       -1 0.38235142E-01 0.89180387E+02</pdfrwt>
<totfact> 0.68750999E+04</totfact>
</mgrwt>
</event>
<event>
 5    1  0.5681061E+000  0.9188996E+02  0.7546771E-02  0.1298338E+00
          2   -1    0    0  501    0  0.00000000000E+00  0.00000000000E+00  0.16522501510E+02  0.16522501510E+02  0.00000000000E+00 0. -1.
         -2   -1    0    0    0  501 -0.00000000000E+00 -0.00000000000E+00 -0.12776160911E+03  0.12776160911E+03  0.00000000000E+00 0.  1.
         23    2    1    2    0    0  0.00000000000E+00  0.00000000000E+00 -0.11123910760E+03  0.14428411062E+03  0.91889964185E+02 0.  0.
        -11    1    3    3    0    0  0.59432007608E+01  0.40934197277E+02 -0.87023666014E+02  0.96353767900E+02  0.00000000000E+00 0.  1.
         11    1    3    3    0    0 -0.59432007608E+01 -0.40934197277E+02 -0.24215441584E+02  0.47930342719E+02  0.00000000000E+00 0. -1.
<mgrwt>
<rscale>  0 0.91889964E+02</rscale>
<asrwt>0</asrwt>
<pdfrwt beam="1">  1        2 0.25419232E-02 0.91889964E+02</pdfrwt>
<pdfrwt beam="2">  1       -2 0.19655633E-01 0.91889964E+02</pdfrwt>
<totfact> 0.72441967E+04</totfact>
</mgrwt>
</event>
<event>
 5    1  0.5681061E+000  0.9438007E+02  0.7546771E-02  0.1292578E+00
          2   -1    0    0  501    0  0.00000000000E+00  0.00000000000E+00  0.48430620418E+02  0.48430620418E+02  0.00000000000E+00 0.  1.
         -2   -1    0    0    0  501 -0.00000000000E+00 -0.00000000000E+00 -0.45981228012E+02  0.45981228012E+02  0.00000000000E+00 0. -1.
         23    2    1    2    0    0  0.00000000000E+00  0.00000000000E+00  0.24493924060E+01  0.94411848430E+02  0.94380069934E+02 0.  0.
        -11    1    3    3    0    0 -0.13388206273E+02  0.44611050888E+02 -0.63613571789E+01  0.47009113943E+02  0.00000000000E+00 0. -1.
         11    1    3    3    0    0  0.13388206273E+02 -0.44611050888E+02  0.88107495848E+01  0.47402734487E+02  0.00000000000E+00 0.  1.
<mgrwt>
<rscale>  0 0.94380070E+02</rscale>
<asrwt>0</asrwt>
<pdfrwt beam="1">  1        2 0.74508647E-02 0.94380070E+02</pdfrwt>
<pdfrwt beam="2">  1       -2 0.70740351E-02 0.94380070E+02</pdfrwt>
<totfact> 0.90779969E+04</totfact>
</mgrwt>
</event>
<event>
 5    1  0.5681061E+000  0.9139993E+02  0.7546771E-02  0.1299497E+00
          1   -1    0    0  501    0  0.00000000000E+00  0.00000000000E+00  0.68395656732E+02  0.68395656732E+02  0.00000000000E+00 0. -1.
         -1   -1    0    0    0  501 -0.00000000000E+00 -0.00000000000E+00 -0.30535374109E+02  0.30535374109E+02  0.00000000000E+00 0.  1.
         23    2    1    2    0    0  0.00000000000E+00  0.00000000000E+00  0.37860282623E+02  0.98931030841E+02  0.91399933605E+02 0.  0.
        -11    1    3    3    0    0  0.25159382608E+02 -0.44848999214E+01 -0.22077974259E+02  0.33771967783E+02  0.00000000000E+00 0.  1.
         11    1    3    3    0    0 -0.25159382608E+02  0.44848999214E+01  0.59938256882E+02  0.65159063058E+02  0.00000000000E+00 0. -1.
<mgrwt>
<rscale>  0 0.91399934E+02</rscale>
<asrwt>0</asrwt>
<pdfrwt beam="1">  1        1 0.10522409E-01 0.91399934E+02</pdfrwt>
<pdfrwt beam="2">  1       -1 0.46977499E-02 0.91399934E+02</pdfrwt>
<totfact> 0.97653405E+04</totfact>
</mgrwt>
</event>
<event>
 5    1  0.5681061E+000  0.9039366E+02  0.7546771E-02  0.1301901E+00
         -1   -1    0    0    0  501 -0.00000000000E+00  0.00000000000E+00  0.23679934438E+02  0.23679934438E+02  0.00000000000E+00 0.  1.
          1   -1    0    0  501    0  0.00000000000E+00 -0.00000000000E+00 -0.86265163574E+02  0.86265163574E+02  0.00000000000E+00 0. -1.
         23    2    1    2    0    0  0.00000000000E+00  0.00000000000E+00 -0.62585229136E+02  0.10994509801E+03  0.90393659462E+02 0.  0.
        -11    1    3    3    0    0 -0.24841904254E+02 -0.37453081896E+02 -0.37113035371E+02  0.58285769661E+02  0.00000000000E+00 0.  1.
         11    1    3    3    0    0  0.24841904254E+02  0.37453081896E+02 -0.25472193765E+02  0.51659328351E+02  0.00000000000E+00 0. -1.
<mgrwt>
<rscale>  0 0.90393659E+02</rscale>
<asrwt>0</asrwt>
<pdfrwt beam="2">  1        1 0.13271564E-01 0.90393659E+02</pdfrwt>
<pdfrwt beam="1">  1       -1 0.36430668E-02 0.90393659E+02</pdfrwt>
<totfact> 0.10439470E+05</totfact>
</mgrwt>
</event>
<event>
 5    1  0.5681061E+000  0.9340214E+02  0.7546771E-02  0.1294816E+00
         -2   -1    0    0    0  501 -0.00000000000E+00  0.00000000000E+00  0.11003608946E+03  0.11003608946E+03  0.00000000000E+00 0.  1.
          2   -1    0    0  501    0  0.00000000000E+00 -0.00000000000E+00 -0.19820677416E+02  0.19820677416E+02  0.00000000000E+00 0. -1.
         23    2    1    2    0    0  0.00000000000E+00  0.00000000000E+00  0.90215412043E+02  0.12985676688E+03  0.93402137734E+02 0.  0.
        -11    1    3    3    0    0 -0.39030460721E+02  0.19402455283E+02  0.68419879117E+02  0.81124053113E+02  0.00000000000E+00 0.  1.
         11    1    3    3    0    0  0.39030460721E+02 -0.19402455283E+02  0.21795532926E+02  0.48732713762E+02  0.00000000000E+00 0. -1.
<mgrwt>
<rscale>  0 0.93402138E+02</rscale>
<asrwt>0</asrwt>
<pdfrwt beam="2">  1        2 0.30493351E-02 0.93402138E+02</pdfrwt>
<pdfrwt beam="1">  1       -2 0.16928629E-01 0.93402138E+02</pdfrwt>
<totfact> 0.72978583E+04</totfact>
</mgrwt>
</event>
<event>
 5    1  0.5681061E+000  0.1011990E+03  0.7546771E-02  0.1277795E+00
          1   -1    0    0  501    0  0.00000000000E+00  0.00000000000E+00  0.11604092679E+03  0.11604092679E+03  0.00000000000E+00 0. -1.
         -1   -1    0    0    0  501 -0.00000000000E+00 -0.00000000000E+00 -0.22063867464E+02  0.22063867464E+02  0.00000000000E+00 0.  1.
         23    2    1    2    0    0  0.00000000000E+00  0.00000000000E+00  0.93977059325E+02  0.13810479425E+03  0.10119904405E+03 0.  0.
        -11    1    3    3    0    0 -0.23138887689E+02 -0.28131946926E+02  0.94917864935E+02  0.10166718077E+03  0.00000000000E+00 0. -1.
         11    1    3    3    0    0  0.23138887689E+02  0.28131946926E+02 -0.94080560956E+00  0.36437613486E+02  0.00000000000E+00 0.  1.
<mgrwt>
<rscale>  0 0.10119904E+03</rscale>
<asrwt>0</asrwt>
<pdfrwt beam="1">  1        1 0.17852450E-01 0.10119904E+03</pdfrwt>
<pdfrwt beam="2">  1       -1 0.33944412E-02 0.10119904E+03</pdfrwt>
<totfact> 0.80538920E+04</totfact>
</mgrwt>
</event>
<event>
 5    1  0.5681061E+000  0.9063175E+02  0.7546771E-02  0.1301329E+00
         -3   -1    0    0    0  501 -0.00000000000E+00  0.00000000000E+00  0.27920437769E+03  0.27920437769E+03  0.00000000000E+00 0.  1.
          3   -1    0    0  501    0  0.00000000000E+00 -0.00000000000E+00 -0.73549292931E+01  0.73549292931E+01  0.00000000000E+00 0. -1.
         23    2    1    2    0    0  0.00000000000E+00  0.00000000000E+00  0.27184944840E+03  0.28655930699E+03  0.90631748438E+02 0.  0.
        -11    1    3    3    0    0 -0.41974181932E+02  0.14647065714E+02  0.16369819744E+03  0.16962743978E+03  0.00000000000E+00 0.  1.
         11    1    3    3    0    0  0.41974181932E+02 -0.14647065714E+02  0.10815125096E+03  0.11693186720E+03  0.00000000000E+00 0. -1.
<mgrwt>
<rscale>  0 0.90631748E+02</rscale>
<asrwt>0</asrwt>
<pdfrwt beam="2">  1        3 0.11315278E-02 0.90631748E+02</pdfrwt>
<pdfrwt beam="1">  1       -3 0.42954511E-01 0.90631748E+02</pdfrwt>
<totfact> 0.24952072E+04</totfact>
</mgrwt>
</event>
<event>
 5    1  0.5681061E+000  0.8652885E+02  0.7546771E-02  0.1311482E+00
          2   -1    0    0  501    0  0.00000000000E+00  0.00000000000E+00  0.15854609383E+02  0.15854609383E+02  0.00000000000E+00 0. -1.
         -2   -1    0    0    0  501 -0.00000000000E+00 -0.00000000000E+00 -0.11806095093E+03  0.11806095093E+03  0.00000000000E+00 0.  1.
         23    2    1    2    0    0  0.00000000000E+00  0.00000000000E+00 -0.10220634155E+03  0.13391556031E+03  0.86528845141E+02 0.  0.
        -11    1    3    3    0    0  0.17900874302E+02 -0.37174307876E+02 -0.71248661092E+02  0.82333117117E+02  0.00000000000E+00 0.  1.
         11    1    3    3    0    0 -0.17900874302E+02  0.37174307876E+02 -0.30957680454E+02  0.51582443195E+02  0.00000000000E+00 0. -1.
<mgrwt>
<rscale>  0 0.86528845E+02</rscale>
<asrwt>0</asrwt>
<pdfrwt beam="1">  1        2 0.24391707E-02 0.86528845E+02</pdfrwt>
<pdfrwt beam="2">  1       -2 0.18163223E-01 0.86528845E+02</pdfrwt>
<totfact> 0.86435145E+04</totfact>
</mgrwt>
</event>
<event>
 5    1  0.5681061E+000  0.9017400E+02  0.7546771E-02  0.1302431E+00
          1   -1    0    0  501    0  0.00000000000E+00  0.00000000000E+00  0.23909881892E+03  0.23909881892E+03  0.00000000000E+00 0. -1.
         -1   -1    0    0    0  501 -0.00000000000E+00 -0.00000000000E+00 -0.85020819661E+01  0.85020819661E+01  0.00000000000E+00 0.  1.
         23    2    1    2    0    0  0.00000000000E+00  0.00000000000E+00  0.23059673695E+03  0.24760090088E+03  0.90174004157E+02 0.  0.
        -11    1    3    3    0    0 -0.33679510131E+02  0.88872482120E+00  0.19756918284E+03  0.20042125946E+03  0.00000000000E+00 0. -1.
         11    1    3    3    0    0  0.33679510131E+02 -0.88872482120E+00  0.33027554110E+02  0.47179641425E+02  0.00000000000E+00 0.  1.
<mgrwt>
<rscale>  0 0.90174004E+02</rscale>
<asrwt>0</asrwt>
<pdfrwt beam="1">  1        1 0.36784429E-01 0.90174004E+02</pdfrwt>
<pdfrwt beam="2">  1       -1 0.13080128E-02 0.90174004E+02</pdfrwt>
<totfact> 0.12627467E+05</totfact>
</mgrwt>
</event>
<event>
 5    1  0.5681061E+000  0.9254484E+02  0.7546771E-02  0.1296803E+00
          2   -1    0    0  501    0  0.00000000000E+00  0.00000000000E+00  0.17235869785E+03  0.17235869785E+03  0.00000000000E+00 0.  1.
         -2   -1    0    0    0  501 -0.00000000000E+00 -0.00000000000E+00 -0.12422563646E+02  0.12422563646E+02  0.00000000000E+00 0. -1.
         23    2    1    2    0    0  0.00000000000E+00  0.00000000000E+00  0.15993613421E+03  0.18478126150E+03  0.92544840896E+02 0.  0.
        -11    1    3    3    0    0 -0.33919302009E+02  0.30525410010E+02  0.95280981237E+02  0.10564461695E+03  0.00000000000E+00 0.  1.
         11    1    3    3    0    0  0.33919302009E+02 -0.30525410010E+02  0.64655152969E+02  0.79136644549E+02  0.00000000000E+00 0. -1.
<mgrwt>
<rscale>  0 0.92544841E+02</rscale>
<asrwt>0</asrwt>
<pdfrwt beam="1">  1        2 0.26516721E-01 0.92544841E+02</pdfrwt>
<pdfrwt beam="2">  1       -2 0.19111638E-02 0.92544841E+02</pdfrwt>
<totfact> 0.14088749E+05</totfact>
</mgrwt>
</event>
<event>
 5    1  0.5681061E+000  0.9197745E+02  0.7546771E-02  0.1298132E+00
          2   -1    0    0  501    0  0.00000000000E+00  0.00000000000E+00  0.14269951945E+02  0.14269951945E+02  0.00000000000E+00 0. -1.
         -2   -1    0    0    0  501 -0.00000000000E+00 -0.00000000000E+00 -0.14821091525E+03  0.14821091525E+03  0.00000000000E+00 0.  1.
         23    2    1    2    0    0  0.00000000000E+00  0.00000000000E+00 -0.13394096331E+03  0.16248086720E+03  0.91977445896E+02 0.  0.
        -11    1    3    3    0    0  0.29554715011E+02 -0.33361463092E+01 -0.12893391870E+03  0.13231993970E+03  0.00000000000E+00 0.  1.
         11    1    3    3    0    0 -0.29554715011E+02  0.33361463092E+01 -0.50070446062E+01  0.30160927494E+02  0.00000000000E+00 0. -1.
<mgrwt>
<rscale>  0 0.91977446E+02</rscale>
<asrwt>0</asrwt>
<pdfrwt beam="1">  1        2 0.21953773E-02 0.91977446E+02</pdfrwt>
<pdfrwt beam="2">  1       -2 0.22801678E-01 0.91977446E+02</pdfrwt>
<totfact> 0.68624667E+04</totfact>
</mgrwt>
</event>
<event>
 5    1  0.5681061E+000  0.8865966E+02  0.7546771E-02  0.1306130E+00
          2   -1    0    0  501    0  0.00000000000E+00  0.00000000000E+00  0.10503188618E+03  0.10503188618E+03  0.00000000000E+00 0. -1.
         -2   -1    0    0    0  501 -0.00000000000E+00 -0.00000000000E+00 -0.18709876378E+02  0.18709876378E+02  0.00000000000E+00 0.  1.
         23    2    1    2    0    0  0.00000000000E+00  0.00000000000E+00  0.86322009805E+02  0.12374176256E+03  0.88659655000E+02 0.  0.
        -11    1    3    3    0    0  0.20000244483E+02 -0.18026929649E+02 -0.59895025336E+01  0.27583584114E+02  0.00000000000E+00 0.  1.
         11    1    3    3    0    0 -0.20000244483E+02  0.18026929649E+02  0.92311512338E+02  0.96158178447E+02  0.00000000000E+00 0. -1.
<mgrwt>
<rscale>  0 0.88659655E+02</rscale>
<asrwt>0</asrwt>
<pdfrwt beam="1">  1        2 0.16158751E-01 0.88659655E+02</pdfrwt>
<pdfrwt beam="2">  1       -2 0.28784426E-02 0.88659655E+02</pdfrwt>
<totfact> 0.13446560E+05</totfact>
</mgrwt>
</event>
<event>
 5    1  0.5681061E+000  0.9078473E+02  0.7546771E-02  0.1300962E+00
         -3   -1    0    0    0  501 -0.00000000000E+00  0.00000000000E+00  0.54819366605E+02  0.54819366605E+02  0.00000000000E+00 0.  1.
          3   -1    0    0  501    0  0.00000000000E+00 -0.00000000000E+00 -0.37586477139E+02  0.37586477139E+02  0.00000000000E+00 0. -1.
         23    2    1    2    0    0  0.00000000000E+00  0.00000000000E+00  0.17232889466E+02  0.92405843744E+02  0.90784731528E+02 0.  0.
        -11    1    3    3    0    0  0.27015374669E+02 -0.14074689265E+02  0.42870603530E+02  0.52591025788E+02  0.00000000000E+00 0.  1.
         11    1    3    3    0    0 -0.27015374669E+02  0.14074689265E+02 -0.25637714064E+02  0.39814817956E+02  0.00000000000E+00 0. -1.
<mgrwt>
<rscale>  0 0.90784732E+02</rscale>
<asrwt>0</asrwt>
<pdfrwt beam="2">  1        3 0.57825349E-02 0.90784732E+02</pdfrwt>
<pdfrwt beam="1">  1       -3 0.84337487E-02 0.90784732E+02</pdfrwt>
<totfact> 0.35661015E+04</totfact>
</mgrwt>
</event>
<event>
 5    1  0.5681061E+000  0.9335801E+02  0.7546771E-02  0.1294918E+00
         -1   -1    0    0    0  501 -0.00000000000E+00  0.00000000000E+00  0.11765895914E+03  0.11765895914E+03  0.00000000000E+00 0.  1.
          1   -1    0    0  501    0  0.00000000000E+00 -0.00000000000E+00 -0.18519029306E+02  0.18519029306E+02  0.00000000000E+00 0. -1.
         23    2    1    2    0    0  0.00000000000E+00  0.00000000000E+00  0.99139929832E+02  0.13617798844E+03  0.93358014382E+02 0.  0.
        -11    1    3    3    0    0 -0.41984449598E+02 -0.10089460604E+02  0.75435600754E+02  0.86919624277E+02  0.00000000000E+00 0.  1.
         11    1    3    3    0    0  0.41984449598E+02  0.10089460604E+02  0.23704329078E+02  0.49258364166E+02  0.00000000000E+00 0. -1.
<mgrwt>
<rscale>  0 0.93358014E+02</rscale>
<asrwt>0</asrwt>
<pdfrwt beam="2">  1        1 0.28490815E-02 0.93358014E+02</pdfrwt>
<pdfrwt beam="1">  1       -1 0.18101378E-01 0.93358014E+02</pdfrwt>
<totfact> 0.74167107E+04</totfact>
</mgrwt>
</event>
<event>
 5    1  0.5681061E+000  0.9076726E+02  0.7546771E-02  0.1301004E+00
         -1   -1    0    0    0  501 -0.00000000000E+00  0.00000000000E+00  0.19373695592E+02  0.19373695592E+02  0.00000000000E+00 0.  1.
          1   -1    0    0  501    0  0.00000000000E+00 -0.00000000000E+00 -0.10631290536E+03  0.10631290536E+03  0.00000000000E+00 0. -1.
         23    2    1    2    0    0  0.00000000000E+00  0.00000000000E+00 -0.86939209770E+02  0.12568660095E+03  0.90767259867E+02 0.  0.
        -11    1    3    3    0    0  0.14658577058E+02  0.40333465349E+02 -0.63915188658E+02  0.76985801611E+02  0.00000000000E+00 0. -1.
         11    1    3    3    0    0 -0.14658577058E+02 -0.40333465349E+02 -0.23024021112E+02  0.48700799342E+02  0.00000000000E+00 0.  1.
<mgrwt>
<rscale>  0 0.90767260E+02</rscale>
<asrwt>0</asrwt>
<pdfrwt beam="2">  1        1 0.16355832E-01 0.90767260E+02</pdfrwt>
<pdfrwt beam="1">  1       -1 0.29805685E-02 0.90767260E+02</pdfrwt>
<totfact> 0.10682848E+05</totfact>
</mgrwt>
</event>
<event>
 5    1  0.5681061E+000  0.9061631E+02  0.7546771E-02  0.1301366E+00
          3   -1    0    0  501    0  0.00000000000E+00  0.00000000000E+00  0.18924831143E+02  0.18924831143E+02  0.00000000000E+00 0. -1.
         -3   -1    0    0    0  501 -0.00000000000E+00 -0.00000000000E+00 -0.10847276340E+03  0.10847276340E+03  0.00000000000E+00 0.  1.
         23    2    1    2    0    0  0.00000000000E+00  0.00000000000E+00 -0.89547932253E+02  0.12739759454E+03  0.90616306058E+02 0.  0.
        -11    1    3    3    0    0 -0.20387105227E+02 -0.18879490030E+02  0.55400136924E+01  0.28333036460E+02  0.00000000000E+00 0. -1.
         11    1    3    3    0    0  0.20387105227E+02  0.18879490030E+02 -0.95087945945E+02  0.99064558079E+02  0.00000000000E+00 0.  1.
<mgrwt>
<rscale>  0 0.90616306E+02</rscale>
<asrwt>0</asrwt>
<pdfrwt beam="1">  1        3 0.29115125E-02 0.90616306E+02</pdfrwt>
<pdfrwt beam="2">  1       -3 0.16688117E-01 0.90616306E+02</pdfrwt>
<totfact> 0.33301574E+04</totfact>
</mgrwt>
</event>
<event>
 5    1  0.5681061E+000  0.9680547E+02  0.7546771E-02  0.1287161E+00
         -2   -1    0    0    0  501 -0.00000000000E+00  0.00000000000E+00  0.72582208762E+02  0.72582208762E+02  0.00000000000E+00 0. -1.
          2   -1    0    0  501    0  0.00000000000E+00 -0.00000000000E+00 -0.32278221811E+02  0.32278221811E+02  0.00000000000E+00 0.  1.
         23    2    1    2    0    0  0.00000000000E+00  0.00000000000E+00  0.40303986951E+02  0.10486043057E+03  0.96805467489E+02 0.  0.
        -11    1    3    3    0    0 -0.34582823459E+02  0.30180492778E+02  0.35117645519E+01  0.46034403580E+02  0.00000000000E+00 0.  1.
         11    1    3    3    0    0  0.34582823459E+02 -0.30180492778E+02  0.36792222399E+02  0.58826026993E+02  0.00000000000E+00 0. -1.
<mgrwt>
<rscale>  0 0.96805467E+02</rscale>
<asrwt>0</asrwt>
<pdfrwt beam="2">  1        2 0.49658803E-02 0.96805467E+02</pdfrwt>
<pdfrwt beam="1">  1       -2 0.11166494E-01 0.96805467E+02</pdfrwt>
<totfact> 0.75488793E+04</totfact>
</mgrwt>
</event>
<event>
 5    1  0.5681061E+000  0.9278963E+02  0.7546771E-02  0.1296233E+00
         -1   -1    0    0    0  501 -0.00000000000E+00  0.00000000000E+00  0.68380988833E+01  0.68380988833E+01  0.00000000000E+00 0.  1.
          1   -1    0    0  501    0  0.00000000000E+00 -0.00000000000E+00 -0.31477737977E+03  0.31477737977E+03  0.00000000000E+00 0. -1.
         23    2    1    2    0    0  0.00000000000E+00  0.00000000000E+00 -0.30793928089E+03  0.32161547866E+03  0.92789629790E+02 0.  0.
        -11    1    3    3    0    0  0.34702828802E+02 -0.29679293968E+02 -0.18241086952E+03  0.18803954939E+03  0.00000000000E+00 0. -1.
         11    1    3    3    0    0 -0.34702828802E+02  0.29679293968E+02 -0.12552841137E+03  0.13357592926E+03  0.00000000000E+00 0.  1.
<mgrwt>
<rscale>  0 0.92789630E+02</rscale>
<asrwt>0</asrwt>
<pdfrwt beam="2">  1        1 0.48427280E-01 0.92789630E+02</pdfrwt>
<pdfrwt beam="1">  1       -1 0.10520154E-02 0.92789630E+02</pdfrwt>
<totfact> 0.12338617E+05</totfact>
</mgrwt>
</event>
<event>
 5    1  0.5681061E+000  0.9194269E+02  0.7546771E-02  0.1298214E+00
          1   -1    0    0  501    0  0.00000000000E+00  0.00000000000E+00  0.11750784467E+03  0.11750784467E+03  0.00000000000E+00 0. -1.
         -1   -1    0    0    0  501 -0.00000000000E+00 -0.00000000000E+00 -0.17984880410E+02  0.17984880410E+02  0.00000000000E+00 0.  1.
         23    2    1    2    0    0  0.00000000000E+00  0.00000000000E+00  0.99522964257E+02  0.13549272508E+03  0.91942689400E+02 0.  0.
        -11    1    3    3    0    0 -0.32316585707E+01 -0.29131886570E+02  0.10195199196E+03  0.10608166240E+03  0.00000000000E+00 0.  1.
         11    1    3    3    0    0  0.32316585707E+01  0.29131886570E+02 -0.24290277051E+01  0.29411062678E+02  0.00000000000E+00 0. -1.
<mgrwt>
<rscale>  0 0.91942689E+02</rscale>
<asrwt>0</asrwt>
<pdfrwt beam="1">  1        1 0.18078129E-01 0.91942689E+02</pdfrwt>
<pdfrwt beam="2">  1       -1 0.27669047E-02 0.91942689E+02</pdfrwt>
<totfact> 0.10493514E+05</totfact>
</mgrwt>
</event>
<event>
 5    1  0.5681061E+000  0.9021636E+02  0.7546771E-02  0.1302329E+00
          2   -1    0    0  501    0  0.00000000000E+00  0.00000000000E+00  0.51138194661E+01  0.51138194661E+01  0.00000000000E+00 0. -1.
         -2   -1    0    0    0  501 -0.00000000000E+00 -0.00000000000E+00 -0.39789201149E+03  0.39789201149E+03  0.00000000000E+00 0.  1.
         23    2    1    2    0    0  0.00000000000E+00  0.00000000000E+00 -0.39277819203E+03  0.40300583096E+03  0.90216360241E+02 0.  0.
        -11    1    3    3    0    0 -0.42785014007E+02 -0.14238895906E+02 -0.20175768039E+03  0.20673525383E+03  0.00000000000E+00 0. -1.
         11    1    3    3    0    0  0.42785014007E+02  0.14238895906E+02 -0.19102051164E+03  0.19627057713E+03  0.00000000000E+00 0.  1.
<mgrwt>
<rscale>  0 0.90216360E+02</rscale>
<asrwt>0</asrwt>
<pdfrwt beam="1">  1        2 0.78674158E-03 0.90216360E+02</pdfrwt>
<pdfrwt beam="2">  1       -2 0.61214146E-01 0.90216360E+02</pdfrwt>
<totfact> 0.44033125E+04</totfact>
</mgrwt>
</event>
<event>
 5    1  0.5681061E+000  0.9134673E+02  0.7546771E-02  0.1299623E+00
         -1   -1    0    0    0  501 -0.00000000000E+00  0.00000000000E+00  0.90048678949E+01  0.90048678949E+01  0.00000000000E+00 0.  1.
          1   -1    0    0  501    0  0.00000000000E+00 -0.00000000000E+00 -0.23165875199E+03  0.23165875199E+03  0.00000000000E+00 0. -1.
         23    2    1    2    0    0  0.00000000000E+00  0.00000000000E+00 -0.22265388409E+03  0.24066361988E+03  0.91346734114E+02 0.  0.
        -11    1    3    3    0    0  0.42610424929E+02 -0.61074226388E+01 -0.15155189783E+03  0.15754658568E+03  0.00000000000E+00 0.  1.
         11    1    3    3    0    0 -0.42610424929E+02  0.61074226388E+01 -0.71101986263E+02  0.83117034202E+02  0.00000000000E+00 0. -1.
<mgrwt>
<rscale>  0 0.91346734E+02</rscale>
<asrwt>0</asrwt>
<pdfrwt beam="2">  1        1 0.35639804E-01 0.91346734E+02</pdfrwt>
<pdfrwt beam="1">  1       -1 0.13853644E-02 0.91346734E+02</pdfrwt>
<totfact> 0.12124008E+05</totfact>
</mgrwt>
</event>
<event>
 5    1  0.5681061E+000  0.9082343E+02  0.7546771E-02  0.1300870E+00
         -4   -1    0    0    0  501 -0.00000000000E+00  0.00000000000E+00  0.14679658369E+02  0.14679658369E+02  0.00000000000E+00 0.  1.
          4   -1    0    0  501    0  0.00000000000E+00 -0.00000000000E+00 -0.14048172755E+03  0.14048172755E+03  0.00000000000E+00 0. -1.
         23    2    1    2    0    0  0.00000000000E+00  0.00000000000E+00 -0.12580206918E+03  0.15516138592E+03  0.90823427981E+02 0.  0.
        -11    1    3    3    0    0  0.41360384535E+02  0.77938361862E+01 -0.33768261666E+02  0.53960363113E+02  0.00000000000E+00 0.  1.
         11    1    3    3    0    0 -0.41360384535E+02 -0.77938361862E+01 -0.92033807513E+02  0.10120102281E+03  0.00000000000E+00 0. -1.
<mgrwt>
<rscale>  0 0.90823428E+02</rscale>
<asrwt>0</asrwt>
<pdfrwt beam="2">  1        4 0.21612573E-01 0.90823428E+02</pdfrwt>
<pdfrwt beam="1">  1       -4 0.22584090E-02 0.90823428E+02</pdfrwt>
<totfact> 0.23662390E+04</totfact>
</mgrwt>
</event>
<event>
 5    1  0.5681061E+000  0.9088647E+02  0.7546771E-02  0.1300719E+00
         -2   -1    0    0    0  501 -0.00000000000E+00  0.00000000000E+00  0.19845000366E+02  0.19845000366E+02  0.00000000000E+00 0.  1.
          2   -1    0    0  501    0  0.00000000000E+00 -0.00000000000E+00 -0.10406085369E+03  0.10406085369E+03  0.00000000000E+00 0. -1.
         23    2    1    2    0    0  0.00000000000E+00  0.00000000000E+00 -0.84215853327E+02  0.12390585406E+03  0.90886471591E+02 0.  0.
        -11    1    3    3    0    0 -0.15052460544E+02 -0.28455822493E+02 -0.85835287243E+02  0.91673370933E+02  0.00000000000E+00 0. -1.
         11    1    3    3    0    0  0.15052460544E+02  0.28455822493E+02  0.16194339159E+01  0.32232483125E+02  0.00000000000E+00 0.  1.
<mgrwt>
<rscale>  0 0.90886472E+02</rscale>
<asrwt>0</asrwt>
<pdfrwt beam="2">  1        2 0.16009362E-01 0.90886472E+02</pdfrwt>
<pdfrwt beam="1">  1       -2 0.30530769E-02 0.90886472E+02</pdfrwt>
<totfact> 0.12527394E+05</totfact>
</mgrwt>
</event>
<event>
 5    1  0.5681061E+000  0.9144766E+02  0.7546771E-02  0.1299383E+00
          2   -1    0    0  501    0  0.00000000000E+00  0.00000000000E+00  0.40172194173E+02  0.40172194173E+02  0.00000000000E+00 0. -1.
         -2   -1    0    0    0  501 -0.00000000000E+00 -0.00000000000E+00 -0.52042678779E+02  0.52042678779E+02  0.00000000000E+00 0.  1.
         23    2    1    2    0    0  0.00000000000E+00  0.00000000000E+00 -0.11870484605E+02  0.92214872952E+02  0.91447659285E+02 0.  0.
        -11    1    3    3    0    0 -0.59072530605E+01 -0.43426195617E+02 -0.19080656037E+02  0.47799597690E+02  0.00000000000E+00 0. -1.
         11    1    3    3    0    0  0.59072530605E+01  0.43426195617E+02  0.72101714316E+01  0.44415275262E+02  0.00000000000E+00 0.  1.
<mgrwt>
<rscale>  0 0.91447659E+02</rscale>
<asrwt>0</asrwt>
<pdfrwt beam="1">  1        2 0.61803376E-02 0.91447659E+02</pdfrwt>
<pdfrwt beam="2">  1       -2 0.80065659E-02 0.91447659E+02</pdfrwt>
<totfact> 0.94676858E+04</totfact>
</mgrwt>
</event>
<event>
 5    1  0.5681061E+000  0.9314216E+02  0.7546771E-02  0.1295416E+00
         -1   -1    0    0    0  501 -0.00000000000E+00  0.00000000000E+00  0.73367375502E+01  0.73367375502E+01  0.00000000000E+00 0.  1.
          1   -1    0    0  501    0  0.00000000000E+00 -0.00000000000E+00 -0.29561717517E+03  0.29561717517E+03  0.00000000000E+00 0. -1.
         23    2    1    2    0    0  0.00000000000E+00  0.00000000000E+00 -0.28828043762E+03  0.30295391272E+03  0.93142162946E+02 0.  0.
        -11    1    3    3    0    0  0.64362418411E+01 -0.38176518253E+02 -0.22833121786E+03  0.23159019151E+03  0.00000000000E+00 0. -1.
         11    1    3    3    0    0 -0.64362418411E+01  0.38176518253E+02 -0.59949219763E+02  0.71363721212E+02  0.00000000000E+00 0.  1.
<mgrwt>
<rscale>  0 0.93142163E+02</rscale>
<asrwt>0</asrwt>
<pdfrwt beam="2">  1        1 0.45479565E-01 0.93142163E+02</pdfrwt>
<pdfrwt beam="1">  1       -1 0.11287289E-02 0.93142163E+02</pdfrwt>
<totfact> 0.12069157E+05</totfact>
</mgrwt>
</event>
<event>
 5    1  0.5681061E+000  0.9531196E+02  0.7546771E-02  0.1290475E+00
          1   -1    0    0  501    0  0.00000000000E+00  0.00000000000E+00  0.42279254310E+03  0.42279254310E+03  0.00000000000E+00 0. -1.
         -1   -1    0    0    0  501 -0.00000000000E+00 -0.00000000000E+00 -0.53716475082E+01  0.53716475082E+01  0.00000000000E+00 0.  1.
         23    2    1    2    0    0  0.00000000000E+00  0.00000000000E+00  0.41742089559E+03  0.42816419060E+03  0.95311961696E+02 0.  0.
        -11    1    3    3    0    0  0.33606940050E+02 -0.33521602771E+02  0.18966831064E+03  0.19551775452E+03  0.00000000000E+00 0.  1.
         11    1    3    3    0    0 -0.33606940050E+02  0.33521602771E+02  0.22775258494E+03  0.23264643608E+03  0.00000000000E+00 0. -1.
<mgrwt>
<rscale>  0 0.95311962E+02</rscale>
<asrwt>0</asrwt>
<pdfrwt beam="1">  1        1 0.65044981E-01 0.95311962E+02</pdfrwt>
<pdfrwt beam="2">  1       -1 0.82640764E-03 0.95311962E+02</pdfrwt>
<totfact> 0.12093845E+05</totfact>
</mgrwt>
</event>
<event>
 5    1  0.5681061E+000  0.9088510E+02  0.7546771E-02  0.1300722E+00
         -1   -1    0    0    0  501 -0.00000000000E+00  0.00000000000E+00  0.56694135340E+01  0.56694135340E+01  0.00000000000E+00 0.  1.
          1   -1    0    0  501    0  0.00000000000E+00 -0.00000000000E+00 -0.36423968010E+03  0.36423968010E+03  0.00000000000E+00 0. -1.
         23    2    1    2    0    0  0.00000000000E+00  0.00000000000E+00 -0.35857026657E+03  0.36990909364E+03  0.90885100473E+02 0.  0.
        -11    1    3    3    0    0  0.38807374045E+02 -0.22634848217E+02 -0.20709203262E+03  0.21190908100E+03  0.00000000000E+00 0. -1.
         11    1    3    3    0    0 -0.38807374045E+02  0.22634848217E+02 -0.15147823394E+03  0.15800001264E+03  0.00000000000E+00 0.  1.
<mgrwt>
<rscale>  0 0.90885100E+02</rscale>
<asrwt>0</asrwt>
<pdfrwt beam="2">  1        1 0.56036867E-01 0.90885100E+02</pdfrwt>
<pdfrwt beam="1">  1       -1 0.87221757E-03 0.90885100E+02</pdfrwt>
<totfact> 0.13389911E+05</totfact>
</mgrwt>
</event>
<event>
 5    1  0.5681061E+000  0.9214615E+02  0.7546771E-02  0.1297736E+00
         -1   -1    0    0    0  501 -0.00000000000E+00  0.00000000000E+00  0.27814372212E+02  0.27814372212E+02  0.00000000000E+00 0. -1.
          1   -1    0    0  501    0  0.00000000000E+00 -0.00000000000E+00 -0.76317672645E+02  0.76317672645E+02  0.00000000000E+00 0.  1.
         23    2    1    2    0    0  0.00000000000E+00  0.00000000000E+00 -0.48503300432E+02  0.10413204486E+03  0.92146148119E+02 0.  0.
        -11    1    3    3    0    0  0.33315462975E+01  0.44230415991E+02 -0.10168756694E+02  0.45506400783E+02  0.00000000000E+00 0. -1.
         11    1    3    3    0    0 -0.33315462975E+01 -0.44230415991E+02 -0.38334543738E+02  0.58625644074E+02  0.00000000000E+00 0.  1.
<mgrwt>
<rscale>  0 0.92146148E+02</rscale>
<asrwt>0</asrwt>
<pdfrwt beam="2">  1        1 0.11741180E-01 0.92146148E+02</pdfrwt>
<pdfrwt beam="1">  1       -1 0.42791342E-02 0.92146148E+02</pdfrwt>
<totfact> 0.97130637E+04</totfact>
</mgrwt>
</event>
<event>
 5    1  0.5681061E+000  0.9123547E+02  0.7546771E-02  0.1299887E+00
         -1   -1    0    0    0  501 -0.00000000000E+00  0.00000000000E+00  0.36613539031E+02  0.36613539031E+02  0.00000000000E+00 0.  1.
          1   -1    0    0  501    0  0.00000000000E+00 -0.00000000000E+00 -0.56836287999E+02  0.56836287999E+02  0.00000000000E+00 0. -1.
         23    2    1    2    0    0  0.00000000000E+00  0.00000000000E+00 -0.20222748968E+02  0.93449827029E+02  0.91235467862E+02 0.  0.
        -11    1    3    3    0    0  0.20357422291E+02 -0.30682047912E+02 -0.37693847283E+02  0.52693821549E+02  0.00000000000E+00 0.  1.
         11    1    3    3    0    0 -0.20357422291E+02  0.30682047912E+02  0.17471098315E+02  0.40756005481E+02  0.00000000000E+00 0. -1.
<mgrwt>
<rscale>  0 0.91235468E+02</rscale>
<asrwt>0</asrwt>
<pdfrwt beam="2">  1        1 0.87440443E-02 0.91235468E+02</pdfrwt>
<pdfrwt beam="1">  1       -1 0.56328521E-02 0.91235468E+02</pdfrwt>
<totfact> 0.95415510E+04</totfact>
</mgrwt>
</event>
<event>
 5    1  0.5681061E+000  0.8838466E+02  0.7546771E-02  0.1306811E+00
         -4   -1    0    0    0  501 -0.00000000000E+00  0.00000000000E+00  0.11871570150E+03  0.11871570150E+03  0.00000000000E+00 0.  1.
          4   -1    0    0  501    0  0.00000000000E+00 -0.00000000000E+00 -0.16450748853E+02  0.16450748853E+02  0.00000000000E+00 0. -1.
         23    2    1    2    0    0  0.00000000000E+00  0.00000000000E+00  0.10226495264E+03  0.13516645035E+03  0.88384663606E+02 0.  0.
        -11    1    3    3    0    0  0.11918732362E+02  0.23778726146E+02  0.10510342590E+03  0.10841685355E+03  0.00000000000E+00 0.  1.
         11    1    3    3    0    0 -0.11918732362E+02 -0.23778726146E+02 -0.28384732579E+01  0.26749596795E+02  0.00000000000E+00 0. -1.
<mgrwt>
<rscale>  0 0.88384664E+02</rscale>
<asrwt>0</asrwt>
<pdfrwt beam="2">  1        4 0.25308845E-02 0.88384664E+02</pdfrwt>
<pdfrwt beam="1">  1       -4 0.18263954E-01 0.88384664E+02</pdfrwt>
<totfact> 0.26568802E+04</totfact>
</mgrwt>
</event>
<event>
 5    1  0.5681061E+000  0.9028477E+02  0.7546771E-02  0.1302164E+00
          2   -1    0    0  501    0  0.00000000000E+00  0.00000000000E+00  0.13522190248E+03  0.13522190248E+03  0.00000000000E+00 0. -1.
         -2   -1    0    0    0  501 -0.00000000000E+00 -0.00000000000E+00 -0.15070302941E+02  0.15070302941E+02  0.00000000000E+00 0.  1.
         23    2    1    2    0    0  0.00000000000E+00  0.00000000000E+00  0.12015159954E+03  0.15029220542E+03  0.90284772461E+02 0.  0.
        -11    1    3    3    0    0 -0.36728703404E+02  0.89769379451E+01  0.19021021564E+02  0.42324724807E+02  0.00000000000E+00 0.  1.
         11    1    3    3    0    0  0.36728703404E+02 -0.89769379451E+01  0.10113057797E+03  0.10796748061E+03  0.00000000000E+00 0. -1.
<mgrwt>
<rscale>  0 0.90284772E+02</rscale>
<asrwt>0</asrwt>
<pdfrwt beam="1">  1        2 0.20803369E-01 0.90284772E+02</pdfrwt>
<pdfrwt beam="2">  1       -2 0.23185082E-02 0.90284772E+02</pdfrwt>
<totfact> 0.13868219E+05</totfact>
</mgrwt>
</event>
<event>
 5    1  0.5681061E+000  0.8685870E+02  0.7546771E-02  0.1310642E+00
          3   -1    0    0  501    0  0.00000000000E+00  0.00000000000E+00  0.10514223122E+02  0.10514223122E+02  0.00000000000E+00 0. -1.
         -3   -1    0    0    0  501 -0.00000000000E+00 -0.00000000000E+00 -0.17938636943E+03  0.17938636943E+03  0.00000000000E+00 0.  1.
         23    2    1    2    0    0  0.00000000000E+00  0.00000000000E+00 -0.16887214631E+03  0.18990059255E+03  0.86858697050E+02 0.  0.
        -11    1    3    3    0    0  0.16099010093E+02 -0.39906898281E+02 -0.97253492940E+02  0.10634839230E+03  0.00000000000E+00 0. -1.
         11    1    3    3    0    0 -0.16099010093E+02  0.39906898281E+02 -0.71618653369E+02  0.83552200250E+02  0.00000000000E+00 0.  1.
<mgrwt>
<rscale>  0 0.86858697E+02</rscale>
<asrwt>0</asrwt>
<pdfrwt beam="1">  1        3 0.16175729E-02 0.86858697E+02</pdfrwt>
<pdfrwt beam="2">  1       -3 0.27597902E-01 0.86858697E+02</pdfrwt>
<totfact> 0.33073035E+04</totfact>
</mgrwt>
</event>
<event>
 5    1  0.5681061E+000  0.9313383E+02  0.7546771E-02  0.1295435E+00
         -1   -1    0    0    0  501 -0.00000000000E+00  0.00000000000E+00  0.86311224555E+01  0.86311224555E+01  0.00000000000E+00 0.  1.
          1   -1    0    0  501    0  0.00000000000E+00 -0.00000000000E+00 -0.25123936393E+03  0.25123936393E+03  0.00000000000E+00 0. -1.
         23    2    1    2    0    0  0.00000000000E+00  0.00000000000E+00 -0.24260824147E+03  0.25987048638E+03  0.93133833073E+02 0.  0.
        -11    1    3    3    0    0  0.10060173086E+02  0.43239838630E+02 -0.16052602297E+03  0.16655177807E+03  0.00000000000E+00 0.  1.
         11    1    3    3    0    0 -0.10060173086E+02 -0.43239838630E+02 -0.82082218506E+02  0.93318708318E+02  0.00000000000E+00 0. -1.
<mgrwt>
<rscale>  0 0.93133833E+02</rscale>
<asrwt>0</asrwt>
<pdfrwt beam="2">  1        1 0.38652210E-01 0.93133833E+02</pdfrwt>
<pdfrwt beam="1">  1       -1 0.13278650E-02 0.93133833E+02</pdfrwt>
<totfact> 0.11695024E+05</totfact>
</mgrwt>
</event>
<event>
 5    1  0.5681061E+000  0.9361519E+02  0.7546771E-02  0.1294326E+00
          1   -1    0    0  501    0  0.00000000000E+00  0.00000000000E+00  0.24174079319E+03  0.24174079319E+03  0.00000000000E+00 0. -1.
         -1   -1    0    0    0  501 -0.00000000000E+00 -0.00000000000E+00 -0.90632247438E+01  0.90632247438E+01  0.00000000000E+00 0.  1.
         23    2    1    2    0    0  0.00000000000E+00  0.00000000000E+00  0.23267756845E+03  0.25080401793E+03  0.93615194032E+02 0.  0.
        -11    1    3    3    0    0  0.31751983525E+02 -0.33417960359E+02  0.94573282139E+02  0.10520957289E+03  0.00000000000E+00 0.  1.
         11    1    3    3    0    0 -0.31751983525E+02  0.33417960359E+02  0.13810428631E+03  0.14559444505E+03  0.00000000000E+00 0. -1.
<mgrwt>
<rscale>  0 0.93615194E+02</rscale>
<asrwt>0</asrwt>
<pdfrwt beam="1">  1        1 0.37190886E-01 0.93615194E+02</pdfrwt>
<pdfrwt beam="2">  1       -1 0.13943425E-02 0.93615194E+02</pdfrwt>
<totfact> 0.11447758E+05</totfact>
</mgrwt>
</event>
<event>
 5    1  0.5681061E+000  0.8779168E+02  0.7546771E-02  0.1308289E+00
          1   -1    0    0  501    0  0.00000000000E+00  0.00000000000E+00  0.25067402226E+03  0.25067402226E+03  0.00000000000E+00 0. -1.
         -1   -1    0    0    0  501 -0.00000000000E+00 -0.00000000000E+00 -0.76866553881E+01  0.76866553881E+01  0.00000000000E+00 0.  1.
         23    2    1    2    0    0  0.00000000000E+00  0.00000000000E+00  0.24298736688E+03  0.25836067765E+03  0.87791681244E+02 0.  0.
        -11    1    3    3    0    0  0.32930596044E+02  0.26820503806E+02  0.15414261601E+03  0.15988655244E+03  0.00000000000E+00 0. -1.
         11    1    3    3    0    0 -0.32930596044E+02 -0.26820503806E+02  0.88844750864E+02  0.98474125212E+02  0.00000000000E+00 0.  1.
<mgrwt>
<rscale>  0 0.87791681E+02</rscale>
<asrwt>0</asrwt>
<pdfrwt beam="1">  1        1 0.38565228E-01 0.87791681E+02</pdfrwt>
<pdfrwt beam="2">  1       -1 0.11825626E-02 0.87791681E+02</pdfrwt>
<totfact> 0.13685873E+05</totfact>
</mgrwt>
</event>
<event>
 5    1  0.5681061E+000  0.8997217E+02  0.7546771E-02  0.1302919E+00
         -1   -1    0    0    0  501 -0.00000000000E+00  0.00000000000E+00  0.18103532052E+03  0.18103532052E+03  0.00000000000E+00 0.  1.
          1   -1    0    0  501    0  0.00000000000E+00 -0.00000000000E+00 -0.11178746011E+02  0.11178746011E+02  0.00000000000E+00 0. -1.
         23    2    1    2    0    0  0.00000000000E+00  0.00000000000E+00  0.16985657451E+03  0.19221406653E+03  0.89972170521E+02 0.  0.
        -11    1    3    3    0    0  0.34016354911E+02  0.14435385772E+02  0.13974009005E+03  0.14454336903E+03  0.00000000000E+00 0.  1.
         11    1    3    3    0    0 -0.34016354911E+02 -0.14435385772E+02  0.30116484458E+02  0.47670697498E+02  0.00000000000E+00 0. -1.
<mgrwt>
<rscale>  0 0.89972171E+02</rscale>
<asrwt>0</asrwt>
<pdfrwt beam="2">  1        1 0.17198072E-02 0.89972171E+02</pdfrwt>
<pdfrwt beam="1">  1       -1 0.27851586E-01 0.89972171E+02</pdfrwt>
<totfact> 0.73870868E+04</totfact>
</mgrwt>
</event>
<event>
 5    1  0.5681061E+000  0.9033356E+02  0.7546771E-02  0.1302046E+00
         -2   -1    0    0    0  501 -0.00000000000E+00  0.00000000000E+00  0.91740631718E+02  0.91740631718E+02  0.00000000000E+00 0.  1.
          2   -1    0    0  501    0  0.00000000000E+00 -0.00000000000E+00 -0.22237018386E+02  0.22237018386E+02  0.00000000000E+00 0. -1.
         23    2    1    2    0    0  0.00000000000E+00  0.00000000000E+00  0.69503613332E+02  0.11397765010E+03  0.90333562186E+02 0.  0.
        -11    1    3    3    0    0  0.16222335594E+02 -0.36079472122E+02  0.62255051422E+02  0.73760313911E+02  0.00000000000E+00 0.  1.
         11    1    3    3    0    0 -0.16222335594E+02  0.36079472122E+02  0.72485619093E+01  0.40217336193E+02  0.00000000000E+00 0. -1.
<mgrwt>
<rscale>  0 0.90333562E+02</rscale>
<asrwt>0</asrwt>
<pdfrwt beam="2">  1        2 0.34210798E-02 0.90333562E+02</pdfrwt>
<pdfrwt beam="1">  1       -2 0.14113943E-01 0.90333562E+02</pdfrwt>
<totfact> 0.83756077E+04</totfact>
</mgrwt>
</event>
<event>
 5    1  0.5681061E+000  0.8991123E+02  0.7546771E-02  0.1303067E+00
          2   -1    0    0  501    0  0.00000000000E+00  0.00000000000E+00  0.10652843691E+03  0.10652843691E+03  0.00000000000E+00 0.  1.
         -2   -1    0    0    0  501 -0.00000000000E+00 -0.00000000000E+00 -0.18971530689E+02  0.18971530689E+02  0.00000000000E+00 0. -1.
         23    2    1    2    0    0  0.00000000000E+00  0.00000000000E+00  0.87556906218E+02  0.12549996760E+03  0.89911234226E+02 0.  0.
        -11    1    3    3    0    0 -0.40498546537E+02 -0.13848886124E+02  0.62972059121E+02  0.76140686551E+02  0.00000000000E+00 0.  1.
         11    1    3    3    0    0  0.40498546537E+02  0.13848886124E+02  0.24584847096E+02  0.49359281045E+02  0.00000000000E+00 0. -1.
<mgrwt>
<rscale>  0 0.89911234E+02</rscale>
<asrwt>0</asrwt>
<pdfrwt beam="1">  1        2 0.16388990E-01 0.89911234E+02</pdfrwt>
<pdfrwt beam="2">  1       -2 0.29186971E-02 0.89911234E+02</pdfrwt>
<totfact> 0.12996932E+05</totfact>
</mgrwt>
</event>
<event>
 5    1  0.5681061E+000  0.8652253E+02  0.7546771E-02  0.1311498E+00
          1   -1    0    0  501    0  0.00000000000E+00  0.00000000000E+00  0.44438509782E+02  0.44438509782E+02  0.00000000000E+00 0. -1.
         -1   -1    0    0    0  501 -0.00000000000E+00 -0.00000000000E+00 -0.42115208594E+02  0.42115208594E+02  0.00000000000E+00 0.  1.
         23    2    1    2    0    0  0.00000000000E+00  0.00000000000E+00  0.23233011878E+01  0.86553718376E+02  0.86522531380E+02 0.  0.
        -11    1    3    3    0    0 -0.16488880916E+02  0.38533829283E+02  0.11879891524E+02  0.43564561465E+02  0.00000000000E+00 0.  1.
         11    1    3    3    0    0  0.16488880916E+02 -0.38533829283E+02 -0.95565903366E+01  0.42989156911E+02  0.00000000000E+00 0. -1.
<mgrwt>
<rscale>  0 0.86522531E+02</rscale>
<asrwt>0</asrwt>
<pdfrwt beam="1">  1        1 0.68366939E-02 0.86522531E+02</pdfrwt>
<pdfrwt beam="2">  1       -1 0.64792628E-02 0.86522531E+02</pdfrwt>
<totfact> 0.10665074E+05</totfact>
</mgrwt>
</event>
<event>
 5    1  0.5681061E+000  0.9860517E+02  0.7546771E-02  0.1283257E+00
         -1   -1    0    0    0  501 -0.00000000000E+00  0.00000000000E+00  0.98172264166E+02  0.98172264166E+02  0.00000000000E+00 0.  1.
          1   -1    0    0  501    0  0.00000000000E+00 -0.00000000000E+00 -0.24759993787E+02  0.24759993787E+02  0.00000000000E+00 0. -1.
         23    2    1    2    0    0  0.00000000000E+00  0.00000000000E+00  0.73412270379E+02  0.12293225795E+03  0.98605165195E+02 0.  0.
        -11    1    3    3    0    0 -0.14014733577E+01 -0.21483091985E+02 -0.18590254153E+02  0.28444418052E+02  0.00000000000E+00 0. -1.
         11    1    3    3    0    0  0.14014733577E+01  0.21483091985E+02  0.92002524533E+02  0.94487839901E+02  0.00000000000E+00 0.  1.
<mgrwt>
<rscale>  0 0.98605165E+02</rscale>
<asrwt>0</asrwt>
<pdfrwt beam="2">  1        1 0.38092299E-02 0.98605165E+02</pdfrwt>
<pdfrwt beam="1">  1       -1 0.15103425E-01 0.98605165E+02</pdfrwt>
<totfact> 0.66716632E+04</totfact>
</mgrwt>
</event>
<event>
 5    1  0.5681061E+000  0.9363506E+02  0.7546771E-02  0.1294280E+00
          1   -1    0    0  501    0  0.00000000000E+00  0.00000000000E+00  0.18524163588E+03  0.18524163588E+03  0.00000000000E+00 0. -1.
         -1   -1    0    0    0  501 -0.00000000000E+00 -0.00000000000E+00 -0.11832551524E+02  0.11832551524E+02  0.00000000000E+00 0.  1.
         23    2    1    2    0    0  0.00000000000E+00  0.00000000000E+00  0.17340908436E+03  0.19707418740E+03  0.93635061827E+02 0.  0.
        -11    1    3    3    0    0  0.18913226803E+02 -0.42092690712E+02  0.10332724115E+03  0.11316370232E+03  0.00000000000E+00 0. -1.
         11    1    3    3    0    0 -0.18913226803E+02  0.42092690712E+02  0.70081843210E+02  0.83910485085E+02  0.00000000000E+00 0.  1.
<mgrwt>
<rscale>  0 0.93635062E+02</rscale>
<asrwt>0</asrwt>
<pdfrwt beam="1">  1        1 0.28498711E-01 0.93635062E+02</pdfrwt>
<pdfrwt beam="2">  1       -1 0.18203927E-02 0.93635062E+02</pdfrwt>
<totfact> 0.10860402E+05</totfact>
</mgrwt>
</event>
<event>
 5    1  0.5681061E+000  0.8988179E+02  0.7546771E-02  0.1303138E+00
         -1   -1    0    0    0  501 -0.00000000000E+00  0.00000000000E+00  0.96828470372E+02  0.96828470372E+02  0.00000000000E+00 0.  1.
          1   -1    0    0  501    0  0.00000000000E+00 -0.00000000000E+00 -0.20858369206E+02  0.20858369206E+02  0.00000000000E+00 0. -1.
         23    2    1    2    0    0  0.00000000000E+00  0.00000000000E+00  0.75970101166E+02  0.11768683958E+03  0.89881788694E+02 0.  0.
        -11    1    3    3    0    0 -0.16144826403E+02  0.39570311211E+02  0.56185459642E+02  0.70592285868E+02  0.00000000000E+00 0. -1.
         11    1    3    3    0    0  0.16144826403E+02 -0.39570311211E+02  0.19784641524E+02  0.47094553710E+02  0.00000000000E+00 0.  1.
<mgrwt>
<rscale>  0 0.89881789E+02</rscale>
<asrwt>0</asrwt>
<pdfrwt beam="2">  1        1 0.32089799E-02 0.89881789E+02</pdfrwt>
<pdfrwt beam="1">  1       -1 0.14896687E-01 0.89881789E+02</pdfrwt>
<totfact> 0.84922117E+04</totfact>
</mgrwt>
</event>
<event>
 5    1  0.5681061E+000  0.9003882E+02  0.7546771E-02  0.1302758E+00
         -3   -1    0    0    0  501 -0.00000000000E+00  0.00000000000E+00  0.10017641805E+03  0.10017641805E+03  0.00000000000E+00 0.  1.
          3   -1    0    0  501    0  0.00000000000E+00 -0.00000000000E+00 -0.20231779630E+02  0.20231779630E+02  0.00000000000E+00 0. -1.
         23    2    1    2    0    0  0.00000000000E+00  0.00000000000E+00  0.79944638423E+02  0.12040819768E+03  0.90038818611E+02 0.  0.
        -11    1    3    3    0    0  0.34699176532E+02 -0.24675374200E+02  0.59527913343E+02  0.73187973130E+02  0.00000000000E+00 0.  1.
         11    1    3    3    0    0 -0.34699176532E+02  0.24675374200E+02  0.20416725080E+02  0.47220224554E+02  0.00000000000E+00 0. -1.
<mgrwt>
<rscale>  0 0.90038819E+02</rscale>
<asrwt>0</asrwt>
<pdfrwt beam="2">  1        3 0.31125815E-02 0.90038819E+02</pdfrwt>
<pdfrwt beam="1">  1       -3 0.15411756E-01 0.90038819E+02</pdfrwt>
<totfact> 0.34370444E+04</totfact>
</mgrwt>
</event>
<event>
 5    1  0.5681061E+000  0.8930031E+02  0.7546771E-02  0.1304555E+00
          3   -1    0    0  501    0  0.00000000000E+00  0.00000000000E+00  0.35597328227E+02  0.35597328227E+02  0.00000000000E+00 0. -1.
         -3   -1    0    0    0  501 -0.00000000000E+00 -0.00000000000E+00 -0.56005221098E+02  0.56005221098E+02  0.00000000000E+00 0.  1.
         23    2    1    2    0    0  0.00000000000E+00  0.00000000000E+00 -0.20407892870E+02  0.91602549325E+02  0.89300307678E+02 0.  0.
        -11    1    3    3    0    0 -0.27433402385E+02  0.31060273100E+02  0.68469915498E+01  0.42002540694E+02  0.00000000000E+00 0.  1.
         11    1    3    3    0    0  0.27433402385E+02 -0.31060273100E+02 -0.27254884420E+02  0.49600008631E+02  0.00000000000E+00 0. -1.
<mgrwt>
<rscale>  0 0.89300308E+02</rscale>
<asrwt>0</asrwt>
<pdfrwt beam="1">  1        3 0.54765120E-02 0.89300308E+02</pdfrwt>
<pdfrwt beam="2">  1       -3 0.86161879E-02 0.89300308E+02</pdfrwt>
<totfact> 0.37359132E+04</totfact>
</mgrwt>
</event>
<event>
 5    1  0.5681061E+000  0.9365713E+02  0.7546771E-02  0.1294230E+00
         -1   -1    0    0    0  501 -0.00000000000E+00  0.00000000000E+00  0.98940894970E+02  0.98940894970E+02  0.00000000000E+00 0.  1.
          1   -1    0    0  501    0  0.00000000000E+00 -0.00000000000E+00 -0.22163884562E+02  0.22163884562E+02  0.00000000000E+00 0. -1.
         23    2    1    2    0    0  0.00000000000E+00  0.00000000000E+00  0.76777010408E+02  0.12110477953E+03  0.93657131594E+02 0.  0.
        -11    1    3    3    0    0  0.55012326900E+00  0.45450483557E+02  0.52952890851E+02  0.69785798990E+02  0.00000000000E+00 0.  1.
         11    1    3    3    0    0 -0.55012326900E+00 -0.45450483557E+02  0.23824119557E+02  0.51318980542E+02  0.00000000000E+00 0. -1.
<mgrwt>
<rscale>  0 0.93657132E+02</rscale>
<asrwt>0</asrwt>
<pdfrwt beam="2">  1        1 0.34098285E-02 0.93657132E+02</pdfrwt>
<pdfrwt beam="1">  1       -1 0.15221676E-01 0.93657132E+02</pdfrwt>
<totfact> 0.76080814E+04</totfact>
</mgrwt>
</event>
<event>
 5    1  0.5681061E+000  0.9113367E+02  0.7546771E-02  0.1300129E+00
          1   -1    0    0  501    0  0.00000000000E+00  0.00000000000E+00  0.11578969214E+03  0.11578969214E+03  0.00000000000E+00 0. -1.
         -1   -1    0    0    0  501 -0.00000000000E+00 -0.00000000000E+00 -0.17931963638E+02  0.17931963638E+02  0.00000000000E+00 0.  1.
         23    2    1    2    0    0  0.00000000000E+00  0.00000000000E+00  0.97857728497E+02  0.13372165577E+03  0.91133672132E+02 0.  0.
        -11    1    3    3    0    0 -0.45052181739E+02 -0.24983322279E+01  0.39602958699E+02  0.60036114807E+02  0.00000000000E+00 0.  1.
         11    1    3    3    0    0  0.45052181739E+02  0.24983322279E+01  0.58254769798E+02  0.73685540967E+02  0.00000000000E+00 0. -1.
<mgrwt>
<rscale>  0 0.91133672E+02</rscale>
<asrwt>0</asrwt>
<pdfrwt beam="1">  1        1 0.17813798E-01 0.91133672E+02</pdfrwt>
<pdfrwt beam="2">  1       -1 0.27587637E-02 0.91133672E+02</pdfrwt>
<totfact> 0.10721312E+05</totfact>
</mgrwt>
</event>
<event>
 5    1  0.5681061E+000  0.9211571E+02  0.7546771E-02  0.1297808E+00
          1   -1    0    0  501    0  0.00000000000E+00  0.00000000000E+00  0.19732713101E+03  0.19732713101E+03  0.00000000000E+00 0. -1.
         -1   -1    0    0    0  501 -0.00000000000E+00 -0.00000000000E+00 -0.10750300349E+02  0.10750300349E+02  0.00000000000E+00 0.  1.
         23    2    1    2    0    0  0.00000000000E+00  0.00000000000E+00  0.18657683066E+03  0.20807743136E+03  0.92115708223E+02 0.  0.
        -11    1    3    3    0    0  0.33789110344E+02 -0.10652372230E+02  0.26808942797E+02  0.44428554172E+02  0.00000000000E+00 0.  1.
         11    1    3    3    0    0 -0.33789110344E+02  0.10652372230E+02  0.15976788786E+03  0.16364887719E+03  0.00000000000E+00 0. -1.
<mgrwt>
<rscale>  0 0.92115708E+02</rscale>
<asrwt>0</asrwt>
<pdfrwt beam="1">  1        1 0.30358018E-01 0.92115708E+02</pdfrwt>
<pdfrwt beam="2">  1       -1 0.16538925E-02 0.92115708E+02</pdfrwt>
<totfact> 0.11489216E+05</totfact>
</mgrwt>
</event>
<event>
 5    1  0.5681061E+000  0.9035891E+02  0.7546771E-02  0.1301985E+00
         -2   -1    0    0    0  501 -0.00000000000E+00  0.00000000000E+00  0.94737375356E+01  0.94737375356E+01  0.00000000000E+00 0.  1.
          2   -1    0    0  501    0  0.00000000000E+00 -0.00000000000E+00 -0.21545702237E+03  0.21545702237E+03  0.00000000000E+00 0. -1.
         23    2    1    2    0    0  0.00000000000E+00  0.00000000000E+00 -0.20598328483E+03  0.22493075990E+03  0.90358912789E+02 0.  0.
        -11    1    3    3    0    0 -0.18296949802E+02 -0.35676058391E+02 -0.15482798984E+03  0.15993519298E+03  0.00000000000E+00 0.  1.
         11    1    3    3    0    0  0.18296949802E+02  0.35676058391E+02 -0.51155294986E+02  0.64995566921E+02  0.00000000000E+00 0. -1.
<mgrwt>
<rscale>  0 0.90358913E+02</rscale>
<asrwt>0</asrwt>
<pdfrwt beam="2">  1        2 0.33147233E-01 0.90358913E+02</pdfrwt>
<pdfrwt beam="1">  1       -2 0.14574981E-02 0.90358913E+02</pdfrwt>
<totfact> 0.16281432E+05</totfact>
</mgrwt>
</event>
<event>
 5    1  0.5681061E+000  0.8556515E+02  0.7546771E-02  0.1313961E+00
          1   -1    0    0  501    0  0.00000000000E+00  0.00000000000E+00  0.22790033649E+02  0.22790033649E+02  0.00000000000E+00 0. -1.
         -1   -1    0    0    0  501 -0.00000000000E+00 -0.00000000000E+00 -0.80313559107E+02  0.80313559107E+02  0.00000000000E+00 0.  1.
         23    2    1    2    0    0  0.00000000000E+00  0.00000000000E+00 -0.57523525457E+02  0.10310359276E+03  0.85565149788E+02 0.  0.
        -11    1    3    3    0    0 -0.60096664911E+01  0.19053548008E+02 -0.74347216140E+02  0.76984818833E+02  0.00000000000E+00 0.  1.
         11    1    3    3    0    0  0.60096664911E+01 -0.19053548008E+02  0.16823690683E+02  0.26118773923E+02  0.00000000000E+00 0. -1.
<mgrwt>
<rscale>  0 0.85565150E+02</rscale>
<asrwt>0</asrwt>
<pdfrwt beam="1">  1        1 0.35061590E-02 0.85565150E+02</pdfrwt>
<pdfrwt beam="2">  1       -1 0.12355932E-01 0.85565150E+02</pdfrwt>
<totfact> 0.99508047E+04</totfact>
</mgrwt>
</event>
<event>
 5    1  0.5681061E+000  0.9410442E+02  0.7546771E-02  0.1293206E+00
          2   -1    0    0  501    0  0.00000000000E+00  0.00000000000E+00  0.16735139842E+03  0.16735139842E+03  0.00000000000E+00 0. -1.
         -2   -1    0    0    0  501 -0.00000000000E+00 -0.00000000000E+00 -0.13229113148E+02  0.13229113148E+02  0.00000000000E+00 0.  1.
         23    2    1    2    0    0  0.00000000000E+00  0.00000000000E+00  0.15412228528E+03  0.18058051157E+03  0.94104422538E+02 0.  0.
        -11    1    3    3    0    0 -0.23335064389E+02 -0.19193384031E+02  0.78462758752E+01  0.31216586387E+02  0.00000000000E+00 0.  1.
         11    1    3    3    0    0  0.23335064389E+02  0.19193384031E+02  0.14627600940E+03  0.14936392519E+03  0.00000000000E+00 0. -1.
<mgrwt>
<rscale>  0 0.94104423E+02</rscale>
<asrwt>0</asrwt>
<pdfrwt beam="1">  1        2 0.25746367E-01 0.94104423E+02</pdfrwt>
<pdfrwt beam="2">  1       -2 0.20352483E-02 0.94104423E+02</pdfrwt>
<totfact> 0.13325263E+05</totfact>
</mgrwt>
</event>
<event>
 5    1  0.5681061E+000  0.9006743E+02  0.7546771E-02  0.1302688E+00
         -2   -1    0    0    0  501 -0.00000000000E+00  0.00000000000E+00  0.14120478436E+02  0.14120478436E+02  0.00000000000E+00 0.  1.
          2   -1    0    0  501    0  0.00000000000E+00 -0.00000000000E+00 -0.14362370169E+03  0.14362370169E+03  0.00000000000E+00 0. -1.
         23    2    1    2    0    0  0.00000000000E+00  0.00000000000E+00 -0.12950322326E+03  0.15774418013E+03  0.90067427691E+02 0.  0.
        -11    1    3    3    0    0  0.78883855486E+01  0.34308077276E+02 -0.15563597583E+02  0.38490211258E+02  0.00000000000E+00 0.  1.
         11    1    3    3    0    0 -0.78883855486E+01 -0.34308077276E+02 -0.11393962567E+03  0.11925396887E+03  0.00000000000E+00 0. -1.
<mgrwt>
<rscale>  0 0.90067428E+02</rscale>
<asrwt>0</asrwt>
<pdfrwt beam="2">  1        2 0.22095954E-01 0.90067428E+02</pdfrwt>
<pdfrwt beam="1">  1       -2 0.21723813E-02 0.90067428E+02</pdfrwt>
<totfact> 0.14242382E+05</totfact>
</mgrwt>
</event>
<event>
 5    1  0.5681061E+000  0.8975696E+02  0.7546771E-02  0.1303441E+00
         -3   -1    0    0    0  501 -0.00000000000E+00  0.00000000000E+00  0.29632034742E+03  0.29632034742E+03  0.00000000000E+00 0.  1.
          3   -1    0    0  501    0  0.00000000000E+00 -0.00000000000E+00 -0.67969613360E+01  0.67969613360E+01  0.00000000000E+00 0. -1.
         23    2    1    2    0    0  0.00000000000E+00  0.00000000000E+00  0.28952338608E+03  0.30311730875E+03  0.89756959495E+02 0.  0.
        -11    1    3    3    0    0 -0.38070639192E+02 -0.10182146556E+02  0.21727310821E+03  0.22081814516E+03  0.00000000000E+00 0.  1.
         11    1    3    3    0    0  0.38070639192E+02  0.10182146556E+02  0.72250277866E+02  0.82299163596E+02  0.00000000000E+00 0. -1.
<mgrwt>
<rscale>  0 0.89756959E+02</rscale>
<asrwt>0</asrwt>
<pdfrwt beam="2">  1        3 0.10456866E-02 0.89756959E+02</pdfrwt>
<pdfrwt beam="1">  1       -3 0.45587736E-01 0.89756959E+02</pdfrwt>
<totfact> 0.24929354E+04</totfact>
</mgrwt>
</event>
<event>
 5    1  0.5681061E+000  0.9214437E+02  0.7546771E-02  0.1297740E+00
          1   -1    0    0  501    0  0.00000000000E+00  0.00000000000E+00  0.32276167016E+03  0.32276167016E+03  0.00000000000E+00 0. -1.
         -1   -1    0    0    0  501 -0.00000000000E+00 -0.00000000000E+00 -0.65765130404E+01  0.65765130404E+01  0.00000000000E+00 0.  1.
         23    2    1    2    0    0  0.00000000000E+00  0.00000000000E+00  0.31618515712E+03  0.32933818320E+03  0.92144372215E+02 0.  0.
        -11    1    3    3    0    0  0.27498248315E+01  0.44086632241E+02  0.11129249352E+03  0.11973809667E+03  0.00000000000E+00 0.  1.
         11    1    3    3    0    0 -0.27498248315E+01 -0.44086632241E+02  0.20489266359E+03  0.20960008653E+03  0.00000000000E+00 0. -1.
<mgrwt>
<rscale>  0 0.92144372E+02</rscale>
<asrwt>0</asrwt>
<pdfrwt beam="1">  1        1 0.49655629E-01 0.92144372E+02</pdfrwt>
<pdfrwt beam="2">  1       -1 0.10117715E-02 0.92144372E+02</pdfrwt>
<totfact> 0.12629569E+05</totfact>
</mgrwt>
</event>
<event>
 5    1  0.5681061E+000  0.8271148E+02  0.7546771E-02  0.1321528E+00
          2   -1    0    0  501    0  0.00000000000E+00  0.00000000000E+00  0.68534190433E+02  0.68534190433E+02  0.00000000000E+00 0. -1.
         -2   -1    0    0    0  501 -0.00000000000E+00 -0.00000000000E+00 -0.24955387371E+02  0.24955387371E+02  0.00000000000E+00 0.  1.
         23    2    1    2    0    0  0.00000000000E+00  0.00000000000E+00  0.43578803062E+02  0.93489577804E+02  0.82711480954E+02 0.  0.
        -11    1    3    3    0    0  0.37438633666E+02  0.14876095521E+02  0.11225525601E+02  0.41820592221E+02  0.00000000000E+00 0.  1.
         11    1    3    3    0    0 -0.37438633666E+02 -0.14876095521E+02  0.32353277461E+02  0.51668985583E+02  0.00000000000E+00 0. -1.
<mgrwt>
<rscale>  0 0.82711481E+02</rscale>
<asrwt>0</asrwt>
<pdfrwt beam="1">  1        2 0.10543722E-01 0.82711481E+02</pdfrwt>
<pdfrwt beam="2">  1       -2 0.38392904E-02 0.82711481E+02</pdfrwt>
<totfact> 0.14413271E+05</totfact>
</mgrwt>
</event>
<event>
 5    1  0.5681061E+000  0.9195500E+02  0.7546771E-02  0.1298185E+00
          1   -1    0    0  501    0  0.00000000000E+00  0.00000000000E+00  0.47837913689E+02  0.47837913689E+02  0.00000000000E+00 0. -1.
         -1   -1    0    0    0  501 -0.00000000000E+00 -0.00000000000E+00 -0.44189435657E+02  0.44189435657E+02  0.00000000000E+00 0.  1.
         23    2    1    2    0    0  0.00000000000E+00  0.00000000000E+00  0.36484780329E+01  0.92027349346E+02  0.91954997883E+02 0.  0.
        -11    1    3    3    0    0 -0.27501626912E+02  0.33957293681E+02 -0.12487122017E+02  0.45446292403E+02  0.00000000000E+00 0.  1.
         11    1    3    3    0    0  0.27501626912E+02 -0.33957293681E+02  0.16135600050E+02  0.46581056943E+02  0.00000000000E+00 0. -1.
<mgrwt>
<rscale>  0 0.91954998E+02</rscale>
<asrwt>0</asrwt>
<pdfrwt beam="1">  1        1 0.73596790E-02 0.91954998E+02</pdfrwt>
<pdfrwt beam="2">  1       -1 0.67983747E-02 0.91954998E+02</pdfrwt>
<totfact> 0.90949387E+04</totfact>
</mgrwt>
</event>
<event>
 5    1  0.5681061E+000  0.9148784E+02  0.7546771E-02  0.1299288E+00
          2   -1    0    0  501    0  0.00000000000E+00  0.00000000000E+00  0.64852815500E+02  0.64852815500E+02  0.00000000000E+00 0. -1.
         -2   -1    0    0    0  501 -0.00000000000E+00 -0.00000000000E+00 -0.32265462130E+02  0.32265462130E+02  0.00000000000E+00 0.  1.
         23    2    1    2    0    0  0.00000000000E+00  0.00000000000E+00  0.32587353370E+02  0.97118277630E+02  0.91487836624E+02 0.  0.
        -11    1    3    3    0    0  0.64160079559E+00 -0.41425890777E+02  0.36877486080E+02  0.55465890941E+02  0.00000000000E+00 0. -1.
         11    1    3    3    0    0 -0.64160079559E+00  0.41425890777E+02 -0.42901327105E+01  0.41652386689E+02  0.00000000000E+00 0.  1.
<mgrwt>
<rscale>  0 0.91487837E+02</rscale>
<asrwt>0</asrwt>
<pdfrwt beam="1">  1        2 0.99773562E-02 0.91487837E+02</pdfrwt>
<pdfrwt beam="2">  1       -2 0.49639173E-02 0.91487837E+02</pdfrwt>
<totfact> 0.10729057E+05</totfact>
</mgrwt>
</event>
<event>
 5    1  0.5681061E+000  0.9195536E+02  0.7546771E-02  0.1298184E+00
          4   -1    0    0  501    0  0.00000000000E+00  0.00000000000E+00  0.27706657732E+02  0.27706657732E+02  0.00000000000E+00 0. -1.
         -4   -1    0    0    0  501 -0.00000000000E+00 -0.00000000000E+00 -0.76297445349E+02  0.76297445349E+02  0.00000000000E+00 0.  1.
         23    2    1    2    0    0  0.00000000000E+00  0.00000000000E+00 -0.48590787617E+02  0.10400410308E+03  0.91955363174E+02 0.  0.
        -11    1    3    3    0    0 -0.14381444120E+02  0.28563587952E+02  0.13066947832E+02  0.34546340143E+02  0.00000000000E+00 0. -1.
         11    1    3    3    0    0  0.14381444120E+02 -0.28563587952E+02 -0.61657735449E+02  0.69457762938E+02  0.00000000000E+00 0.  1.
<mgrwt>
<rscale>  0 0.91955363E+02</rscale>
<asrwt>0</asrwt>
<pdfrwt beam="1">  1        4 0.42625627E-02 0.91955363E+02</pdfrwt>
<pdfrwt beam="2">  1       -4 0.11738069E-01 0.91955363E+02</pdfrwt>
<totfact> 0.25614508E+04</totfact>
</mgrwt>
</event>
<event>
 5    1  0.5681061E+000  0.8931963E+02  0.7546771E-02  0.1304508E+00
          1   -1    0    0  501    0  0.00000000000E+00  0.00000000000E+00  0.11775188486E+03  0.11775188486E+03  0.00000000000E+00 0. -1.
         -1   -1    0    0    0  501 -0.00000000000E+00 -0.00000000000E+00 -0.16938150830E+02  0.16938150830E+02  0.00000000000E+00 0.  1.
         23    2    1    2    0    0  0.00000000000E+00  0.00000000000E+00  0.10081373403E+03  0.13469003570E+03  0.89319632476E+02 0.  0.
        -11    1    3    3    0    0  0.17328018036E+02 -0.24850848921E+02  0.92675080645E+00  0.30309796571E+02  0.00000000000E+00 0.  1.
         11    1    3    3    0    0 -0.17328018036E+02  0.24850848921E+02  0.99886983228E+02  0.10438023912E+03  0.00000000000E+00 0. -1.
<mgrwt>
<rscale>  0 0.89319632E+02</rscale>
<asrwt>0</asrwt>
<pdfrwt beam="1">  1        1 0.18115674E-01 0.89319632E+02</pdfrwt>
<pdfrwt beam="2">  1       -1 0.26058694E-02 0.89319632E+02</pdfrwt>
<totfact> 0.11354046E+05</totfact>
</mgrwt>
</event>
<event>
 5    1  0.5681061E+000  0.8773566E+02  0.7546771E-02  0.1308430E+00
          1   -1    0    0  501    0  0.00000000000E+00  0.00000000000E+00  0.19755636746E+02  0.19755636746E+02  0.00000000000E+00 0. -1.
         -1   -1    0    0    0  501 -0.00000000000E+00 -0.00000000000E+00 -0.97409497216E+02  0.97409497216E+02  0.00000000000E+00 0.  1.
         23    2    1    2    0    0  0.00000000000E+00  0.00000000000E+00 -0.77653860471E+02  0.11716513396E+03  0.87735663047E+02 0.  0.
        -11    1    3    3    0    0  0.70205361015E+01  0.42995461534E+02 -0.31953792672E+02  0.54027238554E+02  0.00000000000E+00 0. -1.
         11    1    3    3    0    0 -0.70205361015E+01 -0.42995461534E+02 -0.45700067799E+02  0.63137895407E+02  0.00000000000E+00 0.  1.
<mgrwt>
<rscale>  0 0.87735663E+02</rscale>
<asrwt>0</asrwt>
<pdfrwt beam="1">  1        1 0.30393288E-02 0.87735663E+02</pdfrwt>
<pdfrwt beam="2">  1       -1 0.14986076E-01 0.87735663E+02</pdfrwt>
<totfact> 0.90262916E+04</totfact>
</mgrwt>
</event>
<event>
 5    1  0.5681061E+000  0.9284405E+02  0.7546771E-02  0.1296107E+00
          1   -1    0    0  501    0  0.00000000000E+00  0.00000000000E+00  0.44817811500E+02  0.44817811500E+02  0.00000000000E+00 0. -1.
         -1   -1    0    0    0  501 -0.00000000000E+00 -0.00000000000E+00 -0.48083659859E+02  0.48083659859E+02  0.00000000000E+00 0.  1.
         23    2    1    2    0    0  0.00000000000E+00  0.00000000000E+00 -0.32658483592E+01  0.92901471359E+02  0.92844049972E+02 0.  0.
        -11    1    3    3    0    0  0.29025982527E+02  0.89405658460E+01 -0.36762514354E+02  0.47685677524E+02  0.00000000000E+00 0.  1.
         11    1    3    3    0    0 -0.29025982527E+02 -0.89405658460E+01  0.33496665995E+02  0.45215793835E+02  0.00000000000E+00 0. -1.
<mgrwt>
<rscale>  0 0.92844050E+02</rscale>
<asrwt>0</asrwt>
<pdfrwt beam="1">  1        1 0.68950479E-02 0.92844050E+02</pdfrwt>
<pdfrwt beam="2">  1       -1 0.73974862E-02 0.92844050E+02</pdfrwt>
<totfact> 0.87646946E+04</totfact>
</mgrwt>
</event>
<event>
 5    1  0.5681061E+000  0.1199965E+03  0.7546771E-02  0.1243103E+00
         -1   -1    0    0    0  501 -0.00000000000E+00  0.00000000000E+00  0.14226904195E+02  0.14226904195E+02  0.00000000000E+00 0.  1.
          1   -1    0    0  501    0  0.00000000000E+00 -0.00000000000E+00 -0.25302695735E+03  0.25302695735E+03  0.00000000000E+00 0. -1.
         23    2    1    2    0    0  0.00000000000E+00  0.00000000000E+00 -0.23880005315E+03  0.26725386154E+03  0.11999650463E+03 0.  0.
        -11    1    3    3    0    0  0.39458687235E+02 -0.45152235667E+02 -0.11490250239E+03  0.12960824603E+03  0.00000000000E+00 0. -1.
         11    1    3    3    0    0 -0.39458687235E+02  0.45152235667E+02 -0.12389755076E+03  0.13764561551E+03  0.00000000000E+00 0.  1.
<mgrwt>
<rscale>  0 0.11999650E+03</rscale>
<asrwt>0</asrwt>
<pdfrwt beam="2">  1        1 0.38927219E-01 0.11999650E+03</pdfrwt>
<pdfrwt beam="1">  1       -1 0.21887548E-02 0.11999650E+03</pdfrwt>
<totfact> 0.58851544E+04</totfact>
</mgrwt>
</event>
<event>
 5    1  0.5681061E+000  0.9118111E+02  0.7546771E-02  0.1300016E+00
         -2   -1    0    0    0  501 -0.00000000000E+00  0.00000000000E+00  0.29386611789E+02  0.29386611789E+02  0.00000000000E+00 0.  1.
          2   -1    0    0  501    0  0.00000000000E+00 -0.00000000000E+00 -0.70729438020E+02  0.70729438020E+02  0.00000000000E+00 0. -1.
         23    2    1    2    0    0  0.00000000000E+00  0.00000000000E+00 -0.41342826232E+02  0.10011604981E+03  0.91181106313E+02 0.  0.
        -11    1    3    3    0    0  0.26491687892E+02 -0.17016249544E+02 -0.56874102936E+02  0.65007890757E+02  0.00000000000E+00 0. -1.
         11    1    3    3    0    0 -0.26491687892E+02  0.17016249544E+02  0.15531276704E+02  0.35108159051E+02  0.00000000000E+00 0.  1.
<mgrwt>
<rscale>  0 0.91181106E+02</rscale>
<asrwt>0</asrwt>
<pdfrwt beam="2">  1        2 0.10881452E-01 0.91181106E+02</pdfrwt>
<pdfrwt beam="1">  1       -2 0.45210173E-02 0.91181106E+02</pdfrwt>
<totfact> 0.11092350E+05</totfact>
</mgrwt>
</event>
<event>
 5    1  0.5681061E+000  0.9161071E+02  0.7546771E-02  0.1298997E+00
         -2   -1    0    0    0  501 -0.00000000000E+00  0.00000000000E+00  0.34703661110E+02  0.34703661110E+02  0.00000000000E+00 0.  1.
          2   -1    0    0  501    0  0.00000000000E+00 -0.00000000000E+00 -0.60458476694E+02  0.60458476694E+02  0.00000000000E+00 0. -1.
         23    2    1    2    0    0  0.00000000000E+00  0.00000000000E+00 -0.25754815585E+02  0.95162137804E+02  0.91610708684E+02 0.  0.
        -11    1    3    3    0    0  0.14442833442E+02  0.49720008450E+01  0.31980161573E+02  0.35440752877E+02  0.00000000000E+00 0.  1.
         11    1    3    3    0    0 -0.14442833442E+02 -0.49720008450E+01 -0.57734977158E+02  0.59721384927E+02  0.00000000000E+00 0. -1.
<mgrwt>
<rscale>  0 0.91610709E+02</rscale>
<asrwt>0</asrwt>
<pdfrwt beam="2">  1        2 0.93013041E-02 0.91610709E+02</pdfrwt>
<pdfrwt beam="1">  1       -2 0.53390248E-02 0.91610709E+02</pdfrwt>
<totfact> 0.10487122E+05</totfact>
</mgrwt>
</event>
<event>
 5    1  0.5681061E+000  0.1023257E+03  0.7546771E-02  0.1275480E+00
          1   -1    0    0  501    0  0.00000000000E+00  0.00000000000E+00  0.25896568157E+03  0.25896568157E+03  0.00000000000E+00 0. -1.
         -1   -1    0    0    0  501 -0.00000000000E+00 -0.00000000000E+00 -0.10108046598E+02  0.10108046598E+02  0.00000000000E+00 0.  1.
         23    2    1    2    0    0  0.00000000000E+00  0.00000000000E+00  0.24885763497E+03  0.26907372817E+03  0.10232569915E+03 0.  0.
        -11    1    3    3    0    0  0.82051606891E+00 -0.41305257254E+02  0.20378989214E+03  0.20793536895E+03  0.00000000000E+00 0. -1.
         11    1    3    3    0    0 -0.82051606891E+00  0.41305257254E+02  0.45067742831E+02  0.61138359213E+02  0.00000000000E+00 0.  1.
<mgrwt>
<rscale>  0 0.10232570E+03</rscale>
<asrwt>0</asrwt>
<pdfrwt beam="1">  1        1 0.39840869E-01 0.10232570E+03</pdfrwt>
<pdfrwt beam="2">  1       -1 0.15550843E-02 0.10232570E+03</pdfrwt>
<totfact> 0.91325892E+04</totfact>
</mgrwt>
</event>
<event>
 5    1  0.5681061E+000  0.9027951E+02  0.7546771E-02  0.1302176E+00
          1   -1    0    0  501    0  0.00000000000E+00  0.00000000000E+00  0.27662771035E+02  0.27662771035E+02  0.00000000000E+00 0.  1.
         -1   -1    0    0    0  501 -0.00000000000E+00 -0.00000000000E+00 -0.73658468768E+02  0.73658468768E+02  0.00000000000E+00 0. -1.
         23    2    1    2    0    0  0.00000000000E+00  0.00000000000E+00 -0.45995697734E+02  0.10132123980E+03  0.90279507228E+02 0.  0.
        -11    1    3    3    0    0  0.28001056322E+01 -0.43933471054E+02 -0.34198828221E+02  0.55745406287E+02  0.00000000000E+00 0. -1.
         11    1    3    3    0    0 -0.28001056322E+01  0.43933471054E+02 -0.11796869513E+02  0.45575833516E+02  0.00000000000E+00 0.  1.
<mgrwt>
<rscale>  0 0.90279507E+02</rscale>
<asrwt>0</asrwt>
<pdfrwt beam="1">  1        1 0.42558110E-02 0.90279507E+02</pdfrwt>
<pdfrwt beam="2">  1       -1 0.11332072E-01 0.90279507E+02</pdfrwt>
<totfact> 0.88016981E+04</totfact>
</mgrwt>
</event>
<event>
 5    1  0.5681061E+000  0.9269983E+02  0.7546771E-02  0.1296442E+00
         -1   -1    0    0    0  501 -0.00000000000E+00  0.00000000000E+00  0.31740176892E+02  0.31740176892E+02  0.00000000000E+00 0.  1.
          1   -1    0    0  501    0  0.00000000000E+00 -0.00000000000E+00 -0.67684394696E+02  0.67684394696E+02  0.00000000000E+00 0. -1.
         23    2    1    2    0    0  0.00000000000E+00  0.00000000000E+00 -0.35944217804E+02  0.99424571588E+02  0.92699830862E+02 0.  0.
        -11    1    3    3    0    0 -0.37159636396E+02  0.13454294972E+02 -0.43945775122E+02  0.59102350049E+02  0.00000000000E+00 0. -1.
         11    1    3    3    0    0  0.37159636396E+02 -0.13454294972E+02  0.80015573180E+01  0.40322221539E+02  0.00000000000E+00 0.  1.
<mgrwt>
<rscale>  0 0.92699831E+02</rscale>
<asrwt>0</asrwt>
<pdfrwt beam="2">  1        1 0.10412984E-01 0.92699831E+02</pdfrwt>
<pdfrwt beam="1">  1       -1 0.48831042E-02 0.92699831E+02</pdfrwt>
<totfact> 0.93759317E+04</totfact>
</mgrwt>
</event>
<event>
 5    1  0.5681061E+000  0.9058070E+02  0.7546771E-02  0.1301452E+00
         -1   -1    0    0    0  501 -0.00000000000E+00  0.00000000000E+00  0.52020430987E+02  0.52020430987E+02  0.00000000000E+00 0.  1.
          1   -1    0    0  501    0  0.00000000000E+00 -0.00000000000E+00 -0.39430960998E+02  0.39430960998E+02  0.00000000000E+00 0. -1.
         23    2    1    2    0    0  0.00000000000E+00  0.00000000000E+00  0.12589469989E+02  0.91451391985E+02  0.90580695192E+02 0.  0.
        -11    1    3    3    0    0  0.19997023257E+02 -0.21208366561E+02 -0.28701696084E+02  0.40907983444E+02  0.00000000000E+00 0. -1.
         11    1    3    3    0    0 -0.19997023257E+02  0.21208366561E+02  0.41291166073E+02  0.50543408542E+02  0.00000000000E+00 0.  1.
<mgrwt>
<rscale>  0 0.90580695E+02</rscale>
<asrwt>0</asrwt>
<pdfrwt beam="2">  1        1 0.60663017E-02 0.90580695E+02</pdfrwt>
<pdfrwt beam="1">  1       -1 0.80031432E-02 0.90580695E+02</pdfrwt>
<totfact> 0.92157641E+04</totfact>
</mgrwt>
</event>
<event>
 4    1  0.5681061E+000  0.1280387E+03  0.7546771E-02  0.1230395E+00
          2   -1    0    0  501    0  0.00000000000E+00  0.00000000000E+00  0.35231072427E+03  0.35231072427E+03  0.00000000000E+00 0. -1.
         -2   -1    0    0    0  501 -0.00000000000E+00 -0.00000000000E+00 -0.11633133822E+02  0.11633133822E+02  0.00000000000E+00 0.  1.
        -11    1    1    2    0    0  0.51359263069E+02  0.12198651302E+02  0.27329272838E+03  0.27834420487E+03  0.00000000000E+00 0. -1.
         11    1    1    2    0    0 -0.51359263069E+02 -0.12198651302E+02  0.67384862064E+02  0.85599653223E+02  0.00000000000E+00 0.  1.
<mgrwt>
<rscale>  0 0.12803871E+03</rscale>
<asrwt>0</asrwt>
<pdfrwt beam="1">  1        2 0.54201642E-01 0.12803871E+03</pdfrwt>
<pdfrwt beam="2">  1       -2 0.17897132E-02 0.12803871E+03</pdfrwt>
<totfact> 0.75928980E+04</totfact>
</mgrwt>
</event>
<event>
 5    1  0.5681061E+000  0.9241277E+02  0.7546771E-02  0.1297112E+00
          2   -1    0    0  501    0  0.00000000000E+00  0.00000000000E+00  0.14305046542E+03  0.14305046542E+03  0.00000000000E+00 0. -1.
         -2   -1    0    0    0  501 -0.00000000000E+00 -0.00000000000E+00 -0.14925011335E+02  0.14925011335E+02  0.00000000000E+00 0.  1.
         23    2    1    2    0    0  0.00000000000E+00  0.00000000000E+00  0.12812545408E+03  0.15797547675E+03  0.92412765738E+02 0.  0.
        -11    1    3    3    0    0  0.25856744463E+02  0.94349286794E+01  0.12750725390E+03  0.13044419845E+03  0.00000000000E+00 0. -1.
         11    1    3    3    0    0 -0.25856744463E+02 -0.94349286794E+01  0.61820018561E+00  0.27531278301E+02  0.00000000000E+00 0.  1.
<mgrwt>
<rscale>  0 0.92412766E+02</rscale>
<asrwt>0</asrwt>
<pdfrwt beam="1">  1        2 0.22007763E-01 0.92412766E+02</pdfrwt>
<pdfrwt beam="2">  1       -2 0.22961557E-02 0.92412766E+02</pdfrwt>
<totfact> 0.13263175E+05</totfact>
</mgrwt>
</event>
<event>
 5    1  0.5681061E+000  0.9355455E+02  0.7546771E-02  0.1294465E+00
          2   -1    0    0  501    0  0.00000000000E+00  0.00000000000E+00  0.13102182238E+03  0.13102182238E+03  0.00000000000E+00 0.  1.
         -2   -1    0    0    0  501 -0.00000000000E+00 -0.00000000000E+00 -0.16700372636E+02  0.16700372636E+02  0.00000000000E+00 0. -1.
         23    2    1    2    0    0  0.00000000000E+00  0.00000000000E+00  0.11432144974E+03  0.14772219501E+03  0.93554545741E+02 0.  0.
        -11    1    3    3    0    0  0.15293335367E+01 -0.43603774152E+02  0.83793152440E+02  0.94471796729E+02  0.00000000000E+00 0.  1.
         11    1    3    3    0    0 -0.15293335367E+01  0.43603774152E+02  0.30528297302E+02  0.53250398285E+02  0.00000000000E+00 0. -1.
<mgrwt>
<rscale>  0 0.93554546E+02</rscale>
<asrwt>0</asrwt>
<pdfrwt beam="1">  1        2 0.20157203E-01 0.93554546E+02</pdfrwt>
<pdfrwt beam="2">  1       -2 0.25692882E-02 0.93554546E+02</pdfrwt>
<totfact> 0.12454607E+05</totfact>
</mgrwt>
</event>
<event>
 5    1  0.5681061E+000  0.9296472E+02  0.7546771E-02  0.1295827E+00
          2   -1    0    0  501    0  0.00000000000E+00  0.00000000000E+00  0.24146835220E+03  0.24146835220E+03  0.00000000000E+00 0. -1.
         -2   -1    0    0    0  501 -0.00000000000E+00 -0.00000000000E+00 -0.89477970022E+01  0.89477970022E+01  0.00000000000E+00 0.  1.
         23    2    1    2    0    0  0.00000000000E+00  0.00000000000E+00  0.23252055520E+03  0.25041614921E+03  0.92964720146E+02 0.  0.
        -11    1    3    3    0    0 -0.54162865324E+01  0.42437942725E+02  0.67305516026E+02  0.79751787629E+02  0.00000000000E+00 0.  1.
         11    1    3    3    0    0  0.54162865324E+01 -0.42437942725E+02  0.16521503918E+03  0.17066436158E+03  0.00000000000E+00 0. -1.
<mgrwt>
<rscale>  0 0.92964720E+02</rscale>
<asrwt>0</asrwt>
<pdfrwt beam="1">  1        2 0.37148972E-01 0.92964720E+02</pdfrwt>
<pdfrwt beam="2">  1       -2 0.13765843E-02 0.92964720E+02</pdfrwt>
<totfact> 0.15730045E+05</totfact>
</mgrwt>
</event>
<event>
 5    1  0.5681061E+000  0.9005131E+02  0.7546771E-02  0.1302727E+00
          2   -1    0    0  501    0  0.00000000000E+00  0.00000000000E+00  0.31986136767E+03  0.31986136767E+03  0.00000000000E+00 0. -1.
         -2   -1    0    0    0  501 -0.00000000000E+00 -0.00000000000E+00 -0.63380888359E+01  0.63380888359E+01  0.00000000000E+00 0.  1.
         23    2    1    2    0    0  0.00000000000E+00  0.00000000000E+00  0.31352327884E+03  0.32619945651E+03  0.90051313449E+02 0.  0.
        -11    1    3    3    0    0  0.13314290186E+02  0.38633197413E+02  0.22525376084E+03  0.22893023181E+03  0.00000000000E+00 0.  1.
         11    1    3    3    0    0 -0.13314290186E+02 -0.38633197413E+02  0.88269517998E+02  0.97269224697E+02  0.00000000000E+00 0. -1.
<mgrwt>
<rscale>  0 0.90051313E+02</rscale>
<asrwt>0</asrwt>
<pdfrwt beam="1">  1        2 0.49209429E-01 0.90051313E+02</pdfrwt>
<pdfrwt beam="2">  1       -2 0.97509084E-03 0.90051313E+02</pdfrwt>
<totfact> 0.19017571E+05</totfact>
</mgrwt>
</event>
<event>
 5    1  0.5681061E+000  0.8927629E+02  0.7546771E-02  0.1304614E+00
          1   -1    0    0  501    0  0.00000000000E+00  0.00000000000E+00  0.23501539363E+02  0.23501539363E+02  0.00000000000E+00 0. -1.
         -1   -1    0    0    0  501 -0.00000000000E+00 -0.00000000000E+00 -0.84784411263E+02  0.84784411263E+02  0.00000000000E+00 0.  1.
         23    2    1    2    0    0  0.00000000000E+00  0.00000000000E+00 -0.61282871899E+02  0.10828595063E+03  0.89276294249E+02 0.  0.
        -11    1    3    3    0    0 -0.39940265924E+02 -0.18752588338E+02 -0.38839246919E+02  0.58782408190E+02  0.00000000000E+00 0.  1.
         11    1    3    3    0    0  0.39940265924E+02  0.18752588338E+02 -0.22443624980E+02  0.49503542436E+02  0.00000000000E+00 0. -1.
<mgrwt>
<rscale>  0 0.89276294E+02</rscale>
<asrwt>0</asrwt>
<pdfrwt beam="1">  1        1 0.36156214E-02 0.89276294E+02</pdfrwt>
<pdfrwt beam="2">  1       -1 0.13043756E-01 0.89276294E+02</pdfrwt>
<totfact> 0.88460180E+04</totfact>
</mgrwt>
</event>
<event>
 5    1  0.5681061E+000  0.9085560E+02  0.7546771E-02  0.1300793E+00
         -1   -1    0    0    0  501 -0.00000000000E+00  0.00000000000E+00  0.76136920330E+02  0.76136920330E+02  0.00000000000E+00 0.  1.
          1   -1    0    0  501    0  0.00000000000E+00 -0.00000000000E+00 -0.27104920678E+02  0.27104920678E+02  0.00000000000E+00 0. -1.
         23    2    1    2    0    0  0.00000000000E+00  0.00000000000E+00  0.49031999653E+02  0.10324184101E+03  0.90855603816E+02 0.  0.
        -11    1    3    3    0    0 -0.44903883854E+02 -0.32024922103E+01  0.31434594990E+02  0.54906725487E+02  0.00000000000E+00 0.  1.
         11    1    3    3    0    0  0.44903883854E+02  0.32024922103E+01  0.17597404663E+02  0.48335115521E+02  0.00000000000E+00 0. -1.
<mgrwt>
<rscale>  0 0.90855604E+02</rscale>
<asrwt>0</asrwt>
<pdfrwt beam="2">  1        1 0.41699878E-02 0.90855604E+02</pdfrwt>
<pdfrwt beam="1">  1       -1 0.11713372E-01 0.90855604E+02</pdfrwt>
<totfact> 0.86129163E+04</totfact>
</mgrwt>
</event>
<event>
 5    1  0.5681061E+000  0.8959878E+02  0.7546771E-02  0.1303826E+00
          4   -1    0    0  501    0  0.00000000000E+00  0.00000000000E+00  0.18226762742E+02  0.18226762742E+02  0.00000000000E+00 0. -1.
         -4   -1    0    0    0  501 -0.00000000000E+00 -0.00000000000E+00 -0.11011199328E+03  0.11011199328E+03  0.00000000000E+00 0.  1.
         23    2    1    2    0    0  0.00000000000E+00  0.00000000000E+00 -0.91885230539E+02  0.12833875602E+03  0.89598776254E+02 0.  0.
        -11    1    3    3    0    0 -0.32046115453E+02 -0.31232694770E+02 -0.42887114726E+02  0.61981766252E+02  0.00000000000E+00 0.  1.
         11    1    3    3    0    0  0.32046115453E+02  0.31232694770E+02 -0.48998115814E+02  0.66356989771E+02  0.00000000000E+00 0. -1.
<mgrwt>
<rscale>  0 0.89598776E+02</rscale>
<asrwt>0</asrwt>
<pdfrwt beam="1">  1        4 0.28041173E-02 0.89598776E+02</pdfrwt>
<pdfrwt beam="2">  1       -4 0.16940307E-01 0.89598776E+02</pdfrwt>
<totfact> 0.26001511E+04</totfact>
</mgrwt>
</event>
<event>
 5    1  0.5681061E+000  0.9118507E+02  0.7546771E-02  0.1300007E+00
         -1   -1    0    0    0  501 -0.00000000000E+00  0.00000000000E+00  0.29828271273E+02  0.29828271273E+02  0.00000000000E+00 0.  1.
          1   -1    0    0  501    0  0.00000000000E+00 -0.00000000000E+00 -0.69688218156E+02  0.69688218156E+02  0.00000000000E+00 0. -1.
         23    2    1    2    0    0  0.00000000000E+00  0.00000000000E+00 -0.39859946883E+02  0.99516489429E+02  0.91185066227E+02 0.  0.
        -11    1    3    3    0    0 -0.47844302879E+00  0.14485511156E+02  0.27247191783E+02  0.30862086794E+02  0.00000000000E+00 0.  1.
         11    1    3    3    0    0  0.47844302879E+00 -0.14485511156E+02 -0.67107138666E+02  0.68654402635E+02  0.00000000000E+00 0. -1.
<mgrwt>
<rscale>  0 0.91185066E+02</rscale>
<asrwt>0</asrwt>
<pdfrwt beam="2">  1        1 0.10721264E-01 0.91185066E+02</pdfrwt>
<pdfrwt beam="1">  1       -1 0.45889649E-02 0.91185066E+02</pdfrwt>
<totfact> 0.98574471E+04</totfact>
</mgrwt>
</event>
<event>
 5    1  0.5681061E+000  0.9106590E+02  0.7546771E-02  0.1300291E+00
          1   -1    0    0  501    0  0.00000000000E+00  0.00000000000E+00  0.11615406371E+03  0.11615406371E+03  0.00000000000E+00 0. -1.
         -1   -1    0    0    0  501 -0.00000000000E+00 -0.00000000000E+00 -0.17849136446E+02  0.17849136446E+02  0.00000000000E+00 0.  1.
         23    2    1    2    0    0  0.00000000000E+00  0.00000000000E+00  0.98304927264E+02  0.13400320016E+03  0.91065904309E+02 0.  0.
        -11    1    3    3    0    0 -0.20954281112E+02 -0.14075498124E+02 -0.66102463876E+01  0.26094001258E+02  0.00000000000E+00 0.  1.
         11    1    3    3    0    0  0.20954281112E+02  0.14075498124E+02  0.10491517365E+03  0.10790919890E+03  0.00000000000E+00 0. -1.
<mgrwt>
<rscale>  0 0.91065904E+02</rscale>
<asrwt>0</asrwt>
<pdfrwt beam="1">  1        1 0.17869855E-01 0.91065904E+02</pdfrwt>
<pdfrwt beam="2">  1       -1 0.27460211E-02 0.91065904E+02</pdfrwt>
<totfact> 0.10748815E+05</totfact>
</mgrwt>
</event>
<event>
 5    1  0.5681061E+000  0.9287146E+02  0.7546771E-02  0.1296043E+00
          3   -1    0    0  501    0  0.00000000000E+00  0.00000000000E+00  0.14605322500E+02  0.14605322500E+02  0.00000000000E+00 0. -1.
         -3   -1    0    0    0  501 -0.00000000000E+00 -0.00000000000E+00 -0.14763638621E+03  0.14763638621E+03  0.00000000000E+00 0.  1.
         23    2    1    2    0    0  0.00000000000E+00  0.00000000000E+00 -0.13303106371E+03  0.16224170871E+03  0.92871460275E+02 0.  0.
        -11    1    3    3    0    0 -0.33045692298E+02 -0.91151216562E+01 -0.12123642928E+03  0.12598958293E+03  0.00000000000E+00 0.  1.
         11    1    3    3    0    0  0.33045692298E+02  0.91151216562E+01 -0.11794634429E+02  0.36252125780E+02  0.00000000000E+00 0. -1.
<mgrwt>
<rscale>  0 0.92871460E+02</rscale>
<asrwt>0</asrwt>
<pdfrwt beam="1">  1        3 0.22469726E-02 0.92871460E+02</pdfrwt>
<pdfrwt beam="2">  1       -3 0.22713291E-01 0.92871460E+02</pdfrwt>
<totfact> 0.29085357E+04</totfact>
</mgrwt>
</event>
<event>
 5    1  0.5681061E+000  0.9094765E+02  0.7546771E-02  0.1300573E+00
         -1   -1    0    0    0  501 -0.00000000000E+00  0.00000000000E+00  0.51008066308E+02  0.51008066308E+02  0.00000000000E+00 0.  1.
          1   -1    0    0  501    0  0.00000000000E+00 -0.00000000000E+00 -0.40540035762E+02  0.40540035762E+02  0.00000000000E+00 0. -1.
         23    2    1    2    0    0  0.00000000000E+00  0.00000000000E+00  0.10468030546E+02  0.91548102071E+02  0.90947651587E+02 0.  0.
        -11    1    3    3    0    0 -0.22755504548E+02 -0.25517105765E+02  0.35414176530E+02  0.49224989316E+02  0.00000000000E+00 0.  1.
         11    1    3    3    0    0  0.22755504548E+02  0.25517105765E+02 -0.24946145984E+02  0.42323112755E+02  0.00000000000E+00 0. -1.
<mgrwt>
<rscale>  0 0.90947652E+02</rscale>
<asrwt>0</asrwt>
<pdfrwt beam="2">  1        1 0.62369286E-02 0.90947652E+02</pdfrwt>
<pdfrwt beam="1">  1       -1 0.78473949E-02 0.90947652E+02</pdfrwt>
<totfact> 0.91496325E+04</totfact>
</mgrwt>
</event>
<event>
 5    1  0.5681061E+000  0.9115242E+02  0.7546771E-02  0.1300085E+00
         -2   -1    0    0    0  501 -0.00000000000E+00  0.00000000000E+00  0.67202916454E+01  0.67202916454E+01  0.00000000000E+00 0.  1.
          2   -1    0    0  501    0  0.00000000000E+00 -0.00000000000E+00 -0.30909235140E+03  0.30909235140E+03  0.00000000000E+00 0. -1.
         23    2    1    2    0    0  0.00000000000E+00  0.00000000000E+00 -0.30237205975E+03  0.31581264304E+03  0.91152416244E+02 0.  0.
        -11    1    3    3    0    0  0.39614335465E+02  0.75296031542E+01 -0.77591422584E+02  0.87443806851E+02  0.00000000000E+00 0.  1.
         11    1    3    3    0    0 -0.39614335465E+02 -0.75296031542E+01 -0.22478063717E+03  0.22836883619E+03  0.00000000000E+00 0. -1.
<mgrwt>
<rscale>  0 0.91152416E+02</rscale>
<asrwt>0</asrwt>
<pdfrwt beam="2">  1        2 0.47552661E-01 0.91152416E+02</pdfrwt>
<pdfrwt beam="1">  1       -2 0.10338912E-02 0.91152416E+02</pdfrwt>
<totfact> 0.18179682E+05</totfact>
</mgrwt>
</event>
<event>
 5    1  0.5681061E+000  0.6299634E+02  0.7546771E-02  0.1385671E+00
         -2   -1    0    0    0  501 -0.00000000000E+00  0.00000000000E+00  0.15745227190E+02  0.15745227190E+02  0.00000000000E+00 0.  1.
          2   -1    0    0  501    0  0.00000000000E+00 -0.00000000000E+00 -0.63011775674E+02  0.63011775674E+02  0.00000000000E+00 0. -1.
         23    2    1    2    0    0  0.00000000000E+00  0.00000000000E+00 -0.47266548484E+02  0.78757002864E+02  0.62996340327E+02 0.  0.
        -11    1    3    3    0    0  0.30037939769E+02 -0.93140214761E+01 -0.25836544310E+02  0.40700808881E+02  0.00000000000E+00 0.  1.
         11    1    3    3    0    0 -0.30037939769E+02  0.93140214761E+01 -0.21430004173E+02  0.38056193983E+02  0.00000000000E+00 0. -1.
<mgrwt>
<rscale>  0 0.62996340E+02</rscale>
<asrwt>0</asrwt>
<pdfrwt beam="2">  1        2 0.96941193E-02 0.62996340E+02</pdfrwt>
<pdfrwt beam="1">  1       -2 0.24223426E-02 0.62996340E+02</pdfrwt>
<totfact> 0.29453303E+05</totfact>
</mgrwt>
</event>
<event>
 5    1  0.5681061E+000  0.9045134E+02  0.7546771E-02  0.1301762E+00
         -1   -1    0    0    0  501 -0.00000000000E+00  0.00000000000E+00  0.14537488679E+02  0.14537488679E+02  0.00000000000E+00 0.  1.
          1   -1    0    0  501    0  0.00000000000E+00 -0.00000000000E+00 -0.14069563157E+03  0.14069563157E+03  0.00000000000E+00 0. -1.
         23    2    1    2    0    0  0.00000000000E+00  0.00000000000E+00 -0.12615814290E+03  0.15523312025E+03  0.90451338326E+02 0.  0.
        -11    1    3    3    0    0  0.30543147845E+02  0.26384574475E+02 -0.98096884994E+02  0.10607557917E+03  0.00000000000E+00 0. -1.
         11    1    3    3    0    0 -0.30543147845E+02 -0.26384574475E+02 -0.28061257901E+02  0.49157541085E+02  0.00000000000E+00 0.  1.
<mgrwt>
<rscale>  0 0.90451338E+02</rscale>
<asrwt>0</asrwt>
<pdfrwt beam="2">  1        1 0.21645482E-01 0.90451338E+02</pdfrwt>
<pdfrwt beam="1">  1       -1 0.22365367E-02 0.90451338E+02</pdfrwt>
<totfact> 0.11324510E+05</totfact>
</mgrwt>
</event>
<event>
 5    1  0.5681061E+000  0.9146523E+02  0.7546771E-02  0.1299342E+00
         -2   -1    0    0    0  501 -0.00000000000E+00  0.00000000000E+00  0.37679191435E+03  0.37679191435E+03  0.00000000000E+00 0.  1.
          2   -1    0    0  501    0  0.00000000000E+00 -0.00000000000E+00 -0.55507353420E+01  0.55507353420E+01  0.00000000000E+00 0. -1.
         23    2    1    2    0    0  0.00000000000E+00  0.00000000000E+00  0.37124117901E+03  0.38234264969E+03  0.91465232642E+02 0.  0.
        -11    1    3    3    0    0  0.53068075362E+01 -0.44409416601E+02  0.22552202859E+03  0.22991420980E+03  0.00000000000E+00 0.  1.
         11    1    3    3    0    0 -0.53068075362E+01  0.44409416601E+02  0.14571915042E+03  0.15242843989E+03  0.00000000000E+00 0. -1.
<mgrwt>
<rscale>  0 0.91465233E+02</rscale>
<asrwt>0</asrwt>
<pdfrwt beam="2">  1        2 0.85395958E-03 0.91465233E+02</pdfrwt>
<pdfrwt beam="1">  1       -2 0.57967967E-01 0.91465233E+02</pdfrwt>
<totfact> 0.44058905E+04</totfact>
</mgrwt>
</event>
<event>
 5    1  0.5681061E+000  0.9281549E+02  0.7546771E-02  0.1296173E+00
         -2   -1    0    0    0  501 -0.00000000000E+00  0.00000000000E+00  0.81864571861E+01  0.81864571861E+01  0.00000000000E+00 0.  1.
          2   -1    0    0  501    0  0.00000000000E+00 -0.00000000000E+00 -0.26307822942E+03  0.26307822942E+03  0.00000000000E+00 0. -1.
         23    2    1    2    0    0  0.00000000000E+00  0.00000000000E+00 -0.25489177224E+03  0.27126468661E+03  0.92815487108E+02 0.  0.
        -11    1    3    3    0    0 -0.35587206750E+02 -0.51560873237E+00 -0.21448725106E+03  0.21742009107E+03  0.00000000000E+00 0. -1.
         11    1    3    3    0    0  0.35587206750E+02  0.51560873237E+00 -0.40404521182E+02  0.53844595537E+02  0.00000000000E+00 0.  1.
<mgrwt>
<rscale>  0 0.92815487E+02</rscale>
<asrwt>0</asrwt>
<pdfrwt beam="2">  1        2 0.40473568E-01 0.92815487E+02</pdfrwt>
<pdfrwt beam="1">  1       -2 0.12594551E-02 0.92815487E+02</pdfrwt>
<totfact> 0.16309733E+05</totfact>
</mgrwt>
</event>
<event>
 5    1  0.5681061E+000  0.9198548E+02  0.7546771E-02  0.1298114E+00
          4   -1    0    0  501    0  0.00000000000E+00  0.00000000000E+00  0.22131647955E+02  0.22131647955E+02  0.00000000000E+00 0. -1.
         -4   -1    0    0    0  501 -0.00000000000E+00 -0.00000000000E+00 -0.95579518157E+02  0.95579518157E+02  0.00000000000E+00 0.  1.
         23    2    1    2    0    0  0.00000000000E+00  0.00000000000E+00 -0.73447870202E+02  0.11771116611E+03  0.91985482497E+02 0.  0.
        -11    1    3    3    0    0  0.14868251917E+02  0.20932782608E+02 -0.85554514365E+02  0.89324247722E+02  0.00000000000E+00 0.  1.
         11    1    3    3    0    0 -0.14868251917E+02 -0.20932782608E+02  0.12106644163E+02  0.28386918390E+02  0.00000000000E+00 0. -1.
<mgrwt>
<rscale>  0 0.91985482E+02</rscale>
<asrwt>0</asrwt>
<pdfrwt beam="1">  1        4 0.34048689E-02 0.91985482E+02</pdfrwt>
<pdfrwt beam="2">  1       -4 0.14704541E-01 0.91985482E+02</pdfrwt>
<totfact> 0.24802616E+04</totfact>
</mgrwt>
</event>
<event>
 5    1  0.5681061E+000  0.9061890E+02  0.7546771E-02  0.1301360E+00
         -3   -1    0    0    0  501 -0.00000000000E+00  0.00000000000E+00  0.18953251835E+02  0.18953251835E+02  0.00000000000E+00 0.  1.
          3   -1    0    0  501    0  0.00000000000E+00 -0.00000000000E+00 -0.10831630298E+03  0.10831630298E+03  0.00000000000E+00 0. -1.
         23    2    1    2    0    0  0.00000000000E+00  0.00000000000E+00 -0.89363051140E+02  0.12726955481E+03  0.90618897988E+02 0.  0.
        -11    1    3    3    0    0  0.12191133033E+02  0.19056404575E+02  0.10454042231E+02  0.24921020824E+02  0.00000000000E+00 0.  1.
         11    1    3    3    0    0 -0.12191133033E+02 -0.19056404575E+02 -0.99817093371E+02  0.10234853399E+03  0.00000000000E+00 0. -1.
<mgrwt>
<rscale>  0 0.90618898E+02</rscale>
<asrwt>0</asrwt>
<pdfrwt beam="2">  1        3 0.16664046E-01 0.90618898E+02</pdfrwt>
<pdfrwt beam="1">  1       -3 0.29158849E-02 0.90618898E+02</pdfrwt>
<totfact> 0.33305941E+04</totfact>
</mgrwt>
</event>
<event>
 5    1  0.5681061E+000  0.1033768E+03  0.7546771E-02  0.1273351E+00
          3   -1    0    0  501    0  0.00000000000E+00  0.00000000000E+00  0.99858821094E+01  0.99858821094E+01  0.00000000000E+00 0. -1.
         -3   -1    0    0    0  501 -0.00000000000E+00 -0.00000000000E+00 -0.26754687000E+03  0.26754687000E+03  0.00000000000E+00 0.  1.
         23    2    1    2    0    0  0.00000000000E+00  0.00000000000E+00 -0.25756098789E+03  0.27753275211E+03  0.10337681563E+03 0.  0.
        -11    1    3    3    0    0  0.30273309621E+02 -0.36904662506E+02 -0.18201990594E+03  0.18817458263E+03  0.00000000000E+00 0.  1.
         11    1    3    3    0    0 -0.30273309621E+02  0.36904662506E+02 -0.75541081945E+02  0.89358169472E+02  0.00000000000E+00 0. -1.
<mgrwt>
<rscale>  0 0.10337682E+03</rscale>
<asrwt>0</asrwt>
<pdfrwt beam="1">  1        3 0.15362894E-02 0.10337682E+03</pdfrwt>
<pdfrwt beam="2">  1       -3 0.41161062E-01 0.10337682E+03</pdfrwt>
<totfact> 0.17736084E+04</totfact>
</mgrwt>
</event>
<event>
 5    1  0.5681061E+000  0.9471809E+02  0.7546771E-02  0.1291812E+00
          3   -1    0    0  501    0  0.00000000000E+00  0.00000000000E+00  0.33220648444E+02  0.33220648444E+02  0.00000000000E+00 0. -1.
         -3   -1    0    0    0  501 -0.00000000000E+00 -0.00000000000E+00 -0.67514611091E+02  0.67514611091E+02  0.00000000000E+00 0.  1.
         23    2    1    2    0    0  0.00000000000E+00  0.00000000000E+00 -0.34293962647E+02  0.10073525954E+03  0.94718090351E+02 0.  0.
        -11    1    3    3    0    0  0.34966208315E+01 -0.41419738783E+02 -0.41283612957E+02  0.58584620993E+02  0.00000000000E+00 0.  1.
         11    1    3    3    0    0 -0.34966208315E+01  0.41419738783E+02  0.69896503097E+01  0.42150638543E+02  0.00000000000E+00 0. -1.
<mgrwt>
<rscale>  0 0.94718090E+02</rscale>
<asrwt>0</asrwt>
<pdfrwt beam="1">  1        3 0.51108690E-02 0.94718090E+02</pdfrwt>
<pdfrwt beam="2">  1       -3 0.10386863E-01 0.94718090E+02</pdfrwt>
<totfact> 0.31195399E+04</totfact>
</mgrwt>
</event>
<event>
 5    1  0.5681061E+000  0.9547500E+02  0.7546771E-02  0.1290110E+00
          2   -1    0    0  501    0  0.00000000000E+00  0.00000000000E+00  0.14050949386E+03  0.14050949386E+03  0.00000000000E+00 0. -1.
         -2   -1    0    0    0  501 -0.00000000000E+00 -0.00000000000E+00 -0.16218611754E+02  0.16218611754E+02  0.00000000000E+00 0.  1.
         23    2    1    2    0    0  0.00000000000E+00  0.00000000000E+00  0.12429088211E+03  0.15672810561E+03  0.95475000469E+02 0.  0.
        -11    1    3    3    0    0  0.80377975155E+01  0.24382592217E+02 -0.39210846834E+01  0.25970981830E+02  0.00000000000E+00 0.  1.
         11    1    3    3    0    0 -0.80377975155E+01 -0.24382592217E+02  0.12821196679E+03  0.13075712378E+03  0.00000000000E+00 0. -1.
<mgrwt>
<rscale>  0 0.95475000E+02</rscale>
<asrwt>0</asrwt>
<pdfrwt beam="1">  1        2 0.21616844E-01 0.95475000E+02</pdfrwt>
<pdfrwt beam="2">  1       -2 0.24951711E-02 0.95475000E+02</pdfrwt>
<totfact> 0.12059876E+05</totfact>
</mgrwt>
</event>
<event>
 5    1  0.5681061E+000  0.8882165E+02  0.7546771E-02  0.1305731E+00
         -1   -1    0    0    0  501 -0.00000000000E+00  0.00000000000E+00  0.16088420253E+03  0.16088420253E+03  0.00000000000E+00 0.  1.
          1   -1    0    0  501    0  0.00000000000E+00 -0.00000000000E+00 -0.12259261207E+02  0.12259261207E+02  0.00000000000E+00 0. -1.
         23    2    1    2    0    0  0.00000000000E+00  0.00000000000E+00  0.14862494133E+03  0.17314346374E+03  0.88821651932E+02 0.  0.
        -11    1    3    3    0    0  0.26689435521E+02  0.23825579861E+02  0.12560405347E+03  0.13060000946E+03  0.00000000000E+00 0.  1.
         11    1    3    3    0    0 -0.26689435521E+02 -0.23825579861E+02  0.23020887859E+02  0.42543454279E+02  0.00000000000E+00 0. -1.
<mgrwt>
<rscale>  0 0.88821652E+02</rscale>
<asrwt>0</asrwt>
<pdfrwt beam="2">  1        1 0.18860403E-02 0.88821652E+02</pdfrwt>
<pdfrwt beam="1">  1       -1 0.24751414E-01 0.88821652E+02</pdfrwt>
<totfact> 0.78710346E+04</totfact>
</mgrwt>
</event>
<event>
 5    1  0.5681061E+000  0.9281801E+02  0.7546771E-02  0.1296167E+00
         -1   -1    0    0    0  501 -0.00000000000E+00  0.00000000000E+00  0.10431941423E+02  0.10431941423E+02  0.00000000000E+00 0.  1.
          1   -1    0    0  501    0  0.00000000000E+00 -0.00000000000E+00 -0.20646164707E+03  0.20646164707E+03  0.00000000000E+00 0. -1.
         23    2    1    2    0    0  0.00000000000E+00  0.00000000000E+00 -0.19602970565E+03  0.21689358849E+03  0.92818011362E+02 0.  0.
        -11    1    3    3    0    0  0.28682577277E+02 -0.34117893897E+02 -0.67810464835E+02  0.81147890080E+02  0.00000000000E+00 0.  1.
         11    1    3    3    0    0 -0.28682577277E+02  0.34117893897E+02 -0.12821924081E+03  0.13574569841E+03  0.00000000000E+00 0. -1.
<mgrwt>
<rscale>  0 0.92818011E+02</rscale>
<asrwt>0</asrwt>
<pdfrwt beam="2">  1        1 0.31763328E-01 0.92818011E+02</pdfrwt>
<pdfrwt beam="1">  1       -1 0.16049142E-02 0.92818011E+02</pdfrwt>
<totfact> 0.11356739E+05</totfact>
</mgrwt>
</event>
<event>
 5    1  0.5681061E+000  0.9158764E+02  0.7546771E-02  0.1299052E+00
         -3   -1    0    0    0  501 -0.00000000000E+00  0.00000000000E+00  0.36621357270E+02  0.36621357270E+02  0.00000000000E+00 0.  1.
          3   -1    0    0  501    0  0.00000000000E+00 -0.00000000000E+00 -0.57263686735E+02  0.57263686735E+02  0.00000000000E+00 0. -1.
         23    2    1    2    0    0  0.00000000000E+00  0.00000000000E+00 -0.20642329466E+02  0.93885044005E+02  0.91587639570E+02 0.  0.
        -11    1    3    3    0    0  0.39032030932E+02  0.23125834121E+02 -0.39383966950E+01  0.45539154702E+02  0.00000000000E+00 0. -1.
         11    1    3    3    0    0 -0.39032030932E+02 -0.23125834121E+02 -0.16703932771E+02  0.48345889303E+02  0.00000000000E+00 0.  1.
<mgrwt>
<rscale>  0 0.91587640E+02</rscale>
<asrwt>0</asrwt>
<pdfrwt beam="2">  1        3 0.88097980E-02 0.91587640E+02</pdfrwt>
<pdfrwt beam="1">  1       -3 0.56340550E-02 0.91587640E+02</pdfrwt>
<totfact> 0.34703256E+04</totfact>
</mgrwt>
</event>
<event>
 5    1  0.5681061E+000  0.9470788E+02  0.7546771E-02  0.1291835E+00
         -2   -1    0    0    0  501 -0.00000000000E+00  0.00000000000E+00  0.11473157207E+02  0.11473157207E+02  0.00000000000E+00 0.  1.
          2   -1    0    0  501    0  0.00000000000E+00 -0.00000000000E+00 -0.19544712951E+03  0.19544712951E+03  0.00000000000E+00 0. -1.
         23    2    1    2    0    0  0.00000000000E+00  0.00000000000E+00 -0.18397397230E+03  0.20692028672E+03  0.94707880190E+02 0.  0.
        -11    1    3    3    0    0 -0.13921706123E+02  0.42521851553E+02 -0.12586757207E+03  0.13358355984E+03  0.00000000000E+00 0.  1.
         11    1    3    3    0    0  0.13921706123E+02 -0.42521851553E+02 -0.58106400233E+02  0.73336726876E+02  0.00000000000E+00 0. -1.
<mgrwt>
<rscale>  0 0.94707880E+02</rscale>
<asrwt>0</asrwt>
<pdfrwt beam="2">  1        2 0.30068789E-01 0.94707880E+02</pdfrwt>
<pdfrwt beam="1">  1       -2 0.17651011E-02 0.94707880E+02</pdfrwt>
<totfact> 0.13843169E+05</totfact>
</mgrwt>
</event>
<event>
 5    1  0.5681061E+000  0.9406334E+02  0.7546771E-02  0.1293300E+00
          2   -1    0    0  501    0  0.00000000000E+00  0.00000000000E+00  0.16213950326E+03  0.16213950326E+03  0.00000000000E+00 0. -1.
         -2   -1    0    0    0  501 -0.00000000000E+00 -0.00000000000E+00 -0.13642438328E+02  0.13642438328E+02  0.00000000000E+00 0.  1.
         23    2    1    2    0    0  0.00000000000E+00  0.00000000000E+00  0.14849706493E+03  0.17578194159E+03  0.94063344056E+02 0.  0.
        -11    1    3    3    0    0 -0.40861677275E+02  0.23282432281E+02  0.73352596133E+02  0.87134101718E+02  0.00000000000E+00 0.  1.
         11    1    3    3    0    0  0.40861677275E+02 -0.23282432281E+02  0.75144468797E+02  0.88647839869E+02  0.00000000000E+00 0. -1.
<mgrwt>
<rscale>  0 0.94063344E+02</rscale>
<asrwt>0</asrwt>
<pdfrwt beam="1">  1        2 0.24944538E-01 0.94063344E+02</pdfrwt>
<pdfrwt beam="2">  1       -2 0.20988368E-02 0.94063344E+02</pdfrwt>
<totfact> 0.13194189E+05</totfact>
</mgrwt>
</event>
<event>
 5    1  0.5681061E+000  0.9152810E+02  0.7546771E-02  0.1299193E+00
          4   -1    0    0  501    0  0.00000000000E+00  0.00000000000E+00  0.36226643997E+02  0.36226643997E+02  0.00000000000E+00 0. -1.
         -4   -1    0    0    0  501 -0.00000000000E+00 -0.00000000000E+00 -0.57812370920E+02  0.57812370920E+02  0.00000000000E+00 0.  1.
         23    2    1    2    0    0  0.00000000000E+00  0.00000000000E+00 -0.21585726923E+02  0.94039014917E+02  0.91528097980E+02 0.  0.
        -11    1    3    3    0    0  0.17266036143E+02  0.21444477550E+02 -0.48352072101E+02  0.55640852778E+02  0.00000000000E+00 0.  1.
         11    1    3    3    0    0 -0.17266036143E+02 -0.21444477550E+02  0.26766345178E+02  0.38398162139E+02  0.00000000000E+00 0. -1.
<mgrwt>
<rscale>  0 0.91528098E+02</rscale>
<asrwt>0</asrwt>
<pdfrwt beam="1">  1        4 0.55733299E-02 0.91528098E+02</pdfrwt>
<pdfrwt beam="2">  1       -4 0.88942109E-02 0.91528098E+02</pdfrwt>
<totfact> 0.26554126E+04</totfact>
</mgrwt>
</event>
<event>
 5    1  0.5681061E+000  0.8908894E+02  0.7546771E-02  0.1305073E+00
         -1   -1    0    0    0  501 -0.00000000000E+00  0.00000000000E+00  0.64681181470E+02  0.64681181470E+02  0.00000000000E+00 0.  1.
          1   -1    0    0  501    0  0.00000000000E+00 -0.00000000000E+00 -0.30676770040E+02  0.30676770040E+02  0.00000000000E+00 0. -1.
         23    2    1    2    0    0  0.00000000000E+00  0.00000000000E+00  0.34004411430E+02  0.95357951511E+02  0.89088938256E+02 0.  0.
        -11    1    3    3    0    0 -0.26363819485E+02  0.79731648753E+01  0.54474067581E+02  0.61041349713E+02  0.00000000000E+00 0.  1.
         11    1    3    3    0    0  0.26363819485E+02 -0.79731648753E+01 -0.20469656151E+02  0.34316601798E+02  0.00000000000E+00 0. -1.
<mgrwt>
<rscale>  0 0.89088938E+02</rscale>
<asrwt>0</asrwt>
<pdfrwt beam="2">  1        1 0.47195031E-02 0.89088938E+02</pdfrwt>
<pdfrwt beam="1">  1       -1 0.99509509E-02 0.89088938E+02</pdfrwt>
<totfact> 0.92951659E+04</totfact>
</mgrwt>
</event>
<event>
 5    1  0.5681061E+000  0.8902773E+02  0.7546771E-02  0.1305223E+00
         -1   -1    0    0    0  501 -0.00000000000E+00  0.00000000000E+00  0.62777767031E+02  0.62777767031E+02  0.00000000000E+00 0. -1.
          1   -1    0    0  501    0  0.00000000000E+00 -0.00000000000E+00 -0.31563471675E+02  0.31563471675E+02  0.00000000000E+00 0.  1.
         23    2    1    2    0    0  0.00000000000E+00  0.00000000000E+00  0.31214295356E+02  0.94341238706E+02  0.89027732117E+02 0.  0.
        -11    1    3    3    0    0 -0.29269137387E+02 -0.33429514630E+02  0.18464252252E+02  0.48115937723E+02  0.00000000000E+00 0. -1.
         11    1    3    3    0    0  0.29269137387E+02  0.33429514630E+02  0.12750043105E+02  0.46225300983E+02  0.00000000000E+00 0.  1.
<mgrwt>
<rscale>  0 0.89027732E+02</rscale>
<asrwt>0</asrwt>
<pdfrwt beam="2">  1        1 0.48559187E-02 0.89027732E+02</pdfrwt>
<pdfrwt beam="1">  1       -1 0.96581180E-02 0.89027732E+02</pdfrwt>
<totfact> 0.93547982E+04</totfact>
</mgrwt>
</event>
<event>
 5    1  0.5681061E+000  0.7855224E+02  0.7546771E-02  0.1333211E+00
         -2   -1    0    0    0  501 -0.00000000000E+00  0.00000000000E+00  0.16341938683E+02  0.16341938683E+02  0.00000000000E+00 0. -1.
          2   -1    0    0  501    0  0.00000000000E+00 -0.00000000000E+00 -0.94395988342E+02  0.94395988342E+02  0.00000000000E+00 0.  1.
         23    2    1    2    0    0  0.00000000000E+00  0.00000000000E+00 -0.78054049659E+02  0.11073792703E+03  0.78552236210E+02 0.  0.
        -11    1    3    3    0    0 -0.25539012125E+02 -0.13237358252E+02 -0.76726455044E+02  0.81941550495E+02  0.00000000000E+00 0.  1.
         11    1    3    3    0    0  0.25539012125E+02  0.13237358252E+02 -0.13275946151E+01  0.28796376530E+02  0.00000000000E+00 0. -1.
<mgrwt>
<rscale>  0 0.78552236E+02</rscale>
<asrwt>0</asrwt>
<pdfrwt beam="2">  1        2 0.14522460E-01 0.78552236E+02</pdfrwt>
<pdfrwt beam="1">  1       -2 0.25141444E-02 0.78552236E+02</pdfrwt>
<totfact> 0.18103319E+05</totfact>
</mgrwt>
</event>
<event>
 5    1  0.5681061E+000  0.9214357E+02  0.7546771E-02  0.1297742E+00
         -1   -1    0    0    0  501 -0.00000000000E+00  0.00000000000E+00  0.27091448541E+02  0.27091448541E+02  0.00000000000E+00 0.  1.
          1   -1    0    0  501    0  0.00000000000E+00 -0.00000000000E+00 -0.78349786566E+02  0.78349786566E+02  0.00000000000E+00 0. -1.
         23    2    1    2    0    0  0.00000000000E+00  0.00000000000E+00 -0.51258338025E+02  0.10544123511E+03  0.92143566482E+02 0.  0.
        -11    1    3    3    0    0 -0.24911631528E+02  0.34403268434E+02 -0.46049173266E+02  0.62647431095E+02  0.00000000000E+00 0. -1.
         11    1    3    3    0    0  0.24911631528E+02 -0.34403268434E+02 -0.52091647584E+01  0.42793804012E+02  0.00000000000E+00 0.  1.
<mgrwt>
<rscale>  0 0.92143566E+02</rscale>
<asrwt>0</asrwt>
<pdfrwt beam="2">  1        1 0.12053813E-01 0.92143566E+02</pdfrwt>
<pdfrwt beam="1">  1       -1 0.41679152E-02 0.92143566E+02</pdfrwt>
<totfact> 0.97542000E+04</totfact>
</mgrwt>
</event>
<event>
 5    1  0.5681061E+000  0.8949191E+02  0.7546771E-02  0.1304087E+00
          2   -1    0    0  501    0  0.00000000000E+00  0.00000000000E+00  0.17361563381E+03  0.17361563381E+03  0.00000000000E+00 0.  1.
         -2   -1    0    0    0  501 -0.00000000000E+00 -0.00000000000E+00 -0.11532373989E+02  0.11532373989E+02  0.00000000000E+00 0. -1.
         23    2    1    2    0    0  0.00000000000E+00  0.00000000000E+00  0.16208325982E+03  0.18514800780E+03  0.89491908450E+02 0.  0.
        -11    1    3    3    0    0  0.43369300390E+02  0.32883247688E+01  0.10278861057E+03  0.11161186209E+03  0.00000000000E+00 0.  1.
         11    1    3    3    0    0 -0.43369300390E+02 -0.32883247688E+01  0.59294649246E+02  0.73536145706E+02  0.00000000000E+00 0. -1.
<mgrwt>
<rscale>  0 0.89491908E+02</rscale>
<asrwt>0</asrwt>
<pdfrwt beam="1">  1        2 0.26710096E-01 0.89491908E+02</pdfrwt>
<pdfrwt beam="2">  1       -2 0.17742115E-02 0.89491908E+02</pdfrwt>
<totfact> 0.15464749E+05</totfact>
</mgrwt>
</event>
<event>
 5    1  0.5681061E+000  0.9098383E+02  0.7546771E-02  0.1300487E+00
          2   -1    0    0  501    0  0.00000000000E+00  0.00000000000E+00  0.15266584006E+03  0.15266584006E+03  0.00000000000E+00 0. -1.
         -2   -1    0    0    0  501 -0.00000000000E+00 -0.00000000000E+00 -0.13555844795E+02  0.13555844795E+02  0.00000000000E+00 0.  1.
         23    2    1    2    0    0  0.00000000000E+00  0.00000000000E+00  0.13910999527E+03  0.16622168486E+03  0.90983832264E+02 0.  0.
        -11    1    3    3    0    0  0.31463186652E+02  0.21038452412E+01  0.96505280373E+01  0.32977127990E+02  0.00000000000E+00 0.  1.
         11    1    3    3    0    0 -0.31463186652E+02 -0.21038452412E+01  0.12945946723E+03  0.13324455687E+03  0.00000000000E+00 0. -1.
<mgrwt>
<rscale>  0 0.90983832E+02</rscale>
<asrwt>0</asrwt>
<pdfrwt beam="1">  1        2 0.23487051E-01 0.90983832E+02</pdfrwt>
<pdfrwt beam="2">  1       -2 0.20855147E-02 0.90983832E+02</pdfrwt>
<totfact> 0.14146282E+05</totfact>
</mgrwt>
</event>
<event>
 5    1  0.5681061E+000  0.7355195E+02  0.7546771E-02  0.1348415E+00
         -2   -1    0    0    0  501 -0.00000000000E+00  0.00000000000E+00  0.36766572771E+02  0.36766572771E+02  0.00000000000E+00 0.  1.
          2   -1    0    0  501    0  0.00000000000E+00 -0.00000000000E+00 -0.36785375780E+02  0.36785375780E+02  0.00000000000E+00 0. -1.
         23    2    1    2    0    0  0.00000000000E+00  0.00000000000E+00 -0.18803008157E-01  0.73551948551E+02  0.73551946148E+02 0.  0.
        -11    1    3    3    0    0 -0.31026824247E+02  0.20864990404E+01  0.19623604370E+02  0.36770955244E+02  0.00000000000E+00 0.  1.
         11    1    3    3    0    0  0.31026824247E+02 -0.20864990404E+01 -0.19642407378E+02  0.36780993307E+02  0.00000000000E+00 0. -1.
<mgrwt>
<rscale>  0 0.73551946E+02</rscale>
<asrwt>0</asrwt>
<pdfrwt beam="2">  1        2 0.56592885E-02 0.73551946E+02</pdfrwt>
<pdfrwt beam="1">  1       -2 0.56563959E-02 0.73551946E+02</pdfrwt>
<totfact> 0.17207999E+05</totfact>
</mgrwt>
</event>
<event>
 5    1  0.5681061E+000  0.9364765E+02  0.7546771E-02  0.1294251E+00
          4   -1    0    0  501    0  0.00000000000E+00  0.00000000000E+00  0.11892447719E+02  0.11892447719E+02  0.00000000000E+00 0. -1.
         -4   -1    0    0    0  501 -0.00000000000E+00 -0.00000000000E+00 -0.18435821938E+03  0.18435821938E+03  0.00000000000E+00 0.  1.
         23    2    1    2    0    0  0.00000000000E+00  0.00000000000E+00 -0.17246577166E+03  0.19625066710E+03  0.93647647822E+02 0.  0.
        -11    1    3    3    0    0 -0.25799810453E+02 -0.24154769244E+02 -0.21866473746E+02  0.41559905807E+02  0.00000000000E+00 0. -1.
         11    1    3    3    0    0  0.25799810453E+02  0.24154769244E+02 -0.15059929791E+03  0.15469076129E+03  0.00000000000E+00 0.  1.
<mgrwt>
<rscale>  0 0.93647648E+02</rscale>
<asrwt>0</asrwt>
<pdfrwt beam="1">  1        4 0.18296075E-02 0.93647648E+02</pdfrwt>
<pdfrwt beam="2">  1       -4 0.28362801E-01 0.93647648E+02</pdfrwt>
<totfact> 0.20050138E+04</totfact>
</mgrwt>
</event>
<event>
 5    1  0.5681061E+000  0.9117960E+02  0.7546771E-02  0.1300020E+00
          2   -1    0    0  501    0  0.00000000000E+00  0.00000000000E+00  0.25457212277E+02  0.25457212277E+02  0.00000000000E+00 0.  1.
         -2   -1    0    0    0  501 -0.00000000000E+00 -0.00000000000E+00 -0.81644055227E+02  0.81644055227E+02  0.00000000000E+00 0. -1.
         23    2    1    2    0    0  0.00000000000E+00  0.00000000000E+00 -0.56186842951E+02  0.10710126750E+03  0.91179603971E+02 0.  0.
        -11    1    3    3    0    0 -0.27230859652E+02  0.16257379260E+02  0.10376155816E+02  0.33368948250E+02  0.00000000000E+00 0.  1.
         11    1    3    3    0    0  0.27230859652E+02 -0.16257379260E+02 -0.66562998767E+02  0.73732319254E+02  0.00000000000E+00 0. -1.
<mgrwt>
<rscale>  0 0.91179604E+02</rscale>
<asrwt>0</asrwt>
<pdfrwt beam="1">  1        2 0.39164942E-02 0.91179604E+02</pdfrwt>
<pdfrwt beam="2">  1       -2 0.12560624E-01 0.91179604E+02</pdfrwt>
<totfact> 0.84594372E+04</totfact>
</mgrwt>
</event>
<event>
 5    1  0.5681061E+000  0.9176228E+02  0.7546771E-02  0.1298639E+00
          2   -1    0    0  501    0  0.00000000000E+00  0.00000000000E+00  0.23048159538E+03  0.23048159538E+03  0.00000000000E+00 0. -1.
         -2   -1    0    0    0  501 -0.00000000000E+00 -0.00000000000E+00 -0.91333935358E+01  0.91333935358E+01  0.00000000000E+00 0.  1.
         23    2    1    2    0    0  0.00000000000E+00  0.00000000000E+00  0.22134820184E+03  0.23961498891E+03  0.91762282303E+02 0.  0.
        -11    1    3    3    0    0 -0.23363506899E+02  0.34330650353E+02  0.59728993403E+02  0.72746131590E+02  0.00000000000E+00 0.  1.
         11    1    3    3    0    0  0.23363506899E+02 -0.34330650353E+02  0.16161920844E+03  0.16686885732E+03  0.00000000000E+00 0. -1.
<mgrwt>
<rscale>  0 0.91762282E+02</rscale>
<asrwt>0</asrwt>
<pdfrwt beam="1">  1        2 0.35458703E-01 0.91762282E+02</pdfrwt>
<pdfrwt beam="2">  1       -2 0.14051376E-02 0.91762282E+02</pdfrwt>
<totfact> 0.16012306E+05</totfact>
</mgrwt>
</event>
<event>
 5    1  0.5681061E+000  0.9064801E+02  0.7546771E-02  0.1301290E+00
          1   -1    0    0  501    0  0.00000000000E+00  0.00000000000E+00  0.33579606529E+03  0.33579606529E+03  0.00000000000E+00 0. -1.
         -1   -1    0    0    0  501 -0.00000000000E+00 -0.00000000000E+00 -0.61175986705E+01  0.61175986705E+01  0.00000000000E+00 0.  1.
         23    2    1    2    0    0  0.00000000000E+00  0.00000000000E+00  0.32967846662E+03  0.34191366397E+03  0.90648012943E+02 0.  0.
        -11    1    3    3    0    0 -0.41215375786E+02  0.17824410829E+02  0.18804435669E+03  0.19333157245E+03  0.00000000000E+00 0.  1.
         11    1    3    3    0    0  0.41215375786E+02 -0.17824410829E+02  0.14163410994E+03  0.14858209152E+03  0.00000000000E+00 0. -1.
<mgrwt>
<rscale>  0 0.90648013E+02</rscale>
<asrwt>0</asrwt>
<pdfrwt beam="1">  1        1 0.51660919E-01 0.90648013E+02</pdfrwt>
<pdfrwt beam="2">  1       -1 0.94116929E-03 0.90648013E+02</pdfrwt>
<totfact> 0.13288955E+05</totfact>
</mgrwt>
</event>
<event>
 5    1  0.5681061E+000  0.9225206E+02  0.7546771E-02  0.1297488E+00
          2   -1    0    0  501    0  0.00000000000E+00  0.00000000000E+00  0.69696501375E+02  0.69696501375E+02  0.00000000000E+00 0. -1.
         -2   -1    0    0    0  501 -0.00000000000E+00 -0.00000000000E+00 -0.30526793223E+02  0.30526793223E+02  0.00000000000E+00 0.  1.
         23    2    1    2    0    0  0.00000000000E+00  0.00000000000E+00  0.39169708153E+02  0.10022329460E+03  0.92252060916E+02 0.  0.
        -11    1    3    3    0    0 -0.40951407686E+02  0.12792956731E+02  0.37987614098E+02  0.57303894792E+02  0.00000000000E+00 0.  1.
         11    1    3    3    0    0  0.40951407686E+02 -0.12792956731E+02  0.11820940544E+01  0.42919399806E+02  0.00000000000E+00 0. -1.
<mgrwt>
<rscale>  0 0.92252061E+02</rscale>
<asrwt>0</asrwt>
<pdfrwt beam="1">  1        2 0.10722539E-01 0.92252061E+02</pdfrwt>
<pdfrwt beam="2">  1       -2 0.46964297E-02 0.92252061E+02</pdfrwt>
<totfact> 0.10691384E+05</totfact>
</mgrwt>
</event>
<event>
 5    1  0.5681061E+000  0.9185815E+02  0.7546771E-02  0.1298413E+00
          3   -1    0    0  501    0  0.00000000000E+00  0.00000000000E+00  0.14510140333E+02  0.14510140333E+02  0.00000000000E+00 0. -1.
         -3   -1    0    0    0  501 -0.00000000000E+00 -0.00000000000E+00 -0.14537970264E+03  0.14537970264E+03  0.00000000000E+00 0.  1.
         23    2    1    2    0    0  0.00000000000E+00  0.00000000000E+00 -0.13086956231E+03  0.15988984297E+03  0.91858149054E+02 0.  0.
        -11    1    3    3    0    0  0.34297440930E+02  0.31542218859E+01 -0.11832251050E+03  0.12323343727E+03  0.00000000000E+00 0.  1.
         11    1    3    3    0    0 -0.34297440930E+02 -0.31542218859E+01 -0.12547051804E+02  0.36656405702E+02  0.00000000000E+00 0. -1.
<mgrwt>
<rscale>  0 0.91858149E+02</rscale>
<asrwt>0</asrwt>
<pdfrwt beam="1">  1        3 0.22323293E-02 0.91858149E+02</pdfrwt>
<pdfrwt beam="2">  1       -3 0.22366108E-01 0.91858149E+02</pdfrwt>
<totfact> 0.30099730E+04</totfact>
</mgrwt>
</event>
<event>
 5    1  0.5681061E+000  0.7376511E+02  0.7546771E-02  0.1347738E+00
         -2   -1    0    0    0  501 -0.00000000000E+00  0.00000000000E+00  0.24514621177E+02  0.24514621177E+02  0.00000000000E+00 0.  1.
          2   -1    0    0  501    0  0.00000000000E+00 -0.00000000000E+00 -0.55490264081E+02  0.55490264081E+02  0.00000000000E+00 0. -1.
         23    2    1    2    0    0  0.00000000000E+00  0.00000000000E+00 -0.30975642904E+02  0.80004885258E+02  0.73765108364E+02 0.  0.
        -11    1    3    3    0    0 -0.73887806159E+01  0.35706044769E+02 -0.94678994113E+01  0.37671698015E+02  0.00000000000E+00 0.  1.
         11    1    3    3    0    0  0.73887806159E+01 -0.35706044769E+02 -0.21507743493E+02  0.42333187244E+02  0.00000000000E+00 0. -1.
<mgrwt>
<rscale>  0 0.73765108E+02</rscale>
<asrwt>0</asrwt>
<pdfrwt beam="2">  1        2 0.85369637E-02 0.73765108E+02</pdfrwt>
<pdfrwt beam="1">  1       -2 0.37714802E-02 0.73765108E+02</pdfrwt>
<totfact> 0.18720059E+05</totfact>
</mgrwt>
</event>
<event>
 5    1  0.5681061E+000  0.9137031E+02  0.7546771E-02  0.1299567E+00
         -2   -1    0    0    0  501 -0.00000000000E+00  0.00000000000E+00  0.18153160969E+02  0.18153160969E+02  0.00000000000E+00 0.  1.
          2   -1    0    0  501    0  0.00000000000E+00 -0.00000000000E+00 -0.11497355542E+03  0.11497355542E+03  0.00000000000E+00 0. -1.
         23    2    1    2    0    0  0.00000000000E+00  0.00000000000E+00 -0.96820394449E+02  0.13312671639E+03  0.91370311562E+02 0.  0.
        -11    1    3    3    0    0  0.18105843123E+01 -0.27088368472E+02  0.51249681139E+01  0.27628304693E+02  0.00000000000E+00 0.  1.
         11    1    3    3    0    0 -0.18105843123E+01  0.27088368472E+02 -0.10194536256E+03  0.10549841170E+03  0.00000000000E+00 0. -1.
<mgrwt>
<rscale>  0 0.91370312E+02</rscale>
<asrwt>0</asrwt>
<pdfrwt beam="2">  1        2 0.17688239E-01 0.91370312E+02</pdfrwt>
<pdfrwt beam="1">  1       -2 0.27927940E-02 0.91370312E+02</pdfrwt>
<totfact> 0.12736509E+05</totfact>
</mgrwt>
</event>
<event>
 5    1  0.5681061E+000  0.9144041E+02  0.7546771E-02  0.1299401E+00
          2   -1    0    0  501    0  0.00000000000E+00  0.00000000000E+00  0.11718417514E+03  0.11718417514E+03  0.00000000000E+00 0. -1.
         -2   -1    0    0    0  501 -0.00000000000E+00 -0.00000000000E+00 -0.17838048310E+02  0.17838048310E+02  0.00000000000E+00 0.  1.
         23    2    1    2    0    0  0.00000000000E+00  0.00000000000E+00  0.99346126830E+02  0.13502222345E+03  0.91440406327E+02 0.  0.
        -11    1    3    3    0    0 -0.23381886958E+02  0.18235351917E+02 -0.17143127507E+01  0.29701507798E+02  0.00000000000E+00 0.  1.
         11    1    3    3    0    0  0.23381886958E+02 -0.18235351917E+02  0.10106043958E+03  0.10532071565E+03  0.00000000000E+00 0. -1.
<mgrwt>
<rscale>  0 0.91440406E+02</rscale>
<asrwt>0</asrwt>
<pdfrwt beam="1">  1        2 0.18028334E-01 0.91440406E+02</pdfrwt>
<pdfrwt beam="2">  1       -2 0.27443152E-02 0.91440406E+02</pdfrwt>
<totfact> 0.12786859E+05</totfact>
</mgrwt>
</event>
<event>
 5    1  0.5681061E+000  0.9016662E+02  0.7546771E-02  0.1302449E+00
         -1   -1    0    0    0  501 -0.00000000000E+00  0.00000000000E+00  0.51879179338E+02  0.51879179338E+02  0.00000000000E+00 0.  1.
          1   -1    0    0  501    0  0.00000000000E+00 -0.00000000000E+00 -0.39177656072E+02  0.39177656072E+02  0.00000000000E+00 0. -1.
         23    2    1    2    0    0  0.00000000000E+00  0.00000000000E+00  0.12701523266E+02  0.91056835410E+02  0.90166615671E+02 0.  0.
        -11    1    3    3    0    0 -0.18203243834E+02  0.40960845950E+02  0.11231245045E+02  0.46209196620E+02  0.00000000000E+00 0.  1.
         11    1    3    3    0    0  0.18203243834E+02 -0.40960845950E+02  0.14702782217E+01  0.44847638790E+02  0.00000000000E+00 0. -1.
<mgrwt>
<rscale>  0 0.90166616E+02</rscale>
<asrwt>0</asrwt>
<pdfrwt beam="2">  1        1 0.60273317E-02 0.90166616E+02</pdfrwt>
<pdfrwt beam="1">  1       -1 0.79814122E-02 0.90166616E+02</pdfrwt>
<totfact> 0.93265326E+04</totfact>
</mgrwt>
</event>
<event>
 5    1  0.5681061E+000  0.8978560E+02  0.7546771E-02  0.1303372E+00
          4   -1    0    0  501    0  0.00000000000E+00  0.00000000000E+00  0.90129078781E+02  0.90129078781E+02  0.00000000000E+00 0. -1.
         -4   -1    0    0    0  501 -0.00000000000E+00 -0.00000000000E+00 -0.22360858821E+02  0.22360858821E+02  0.00000000000E+00 0.  1.
         23    2    1    2    0    0  0.00000000000E+00  0.00000000000E+00  0.67768219960E+02  0.11248993760E+03  0.89785602549E+02 0.  0.
        -11    1    3    3    0    0  0.29901732869E+02 -0.25424461897E+02  0.61185432990E+02  0.72692324915E+02  0.00000000000E+00 0. -1.
         11    1    3    3    0    0 -0.29901732869E+02  0.25424461897E+02  0.65827869697E+01  0.39797612687E+02  0.00000000000E+00 0.  1.
<mgrwt>
<rscale>  0 0.89785603E+02</rscale>
<asrwt>0</asrwt>
<pdfrwt beam="1">  1        4 0.13866012E-01 0.89785603E+02</pdfrwt>
<pdfrwt beam="2">  1       -4 0.34401322E-02 0.89785603E+02</pdfrwt>
<totfact> 0.26794296E+04</totfact>
</mgrwt>
</event>
<event>
 5    1  0.5681061E+000  0.9097848E+02  0.7546771E-02  0.1300499E+00
          1   -1    0    0  501    0  0.00000000000E+00  0.00000000000E+00  0.14143112195E+03  0.14143112195E+03  0.00000000000E+00 0. -1.
         -1   -1    0    0    0  501 -0.00000000000E+00 -0.00000000000E+00 -0.14630944825E+02  0.14630944825E+02  0.00000000000E+00 0.  1.
         23    2    1    2    0    0  0.00000000000E+00  0.00000000000E+00  0.12680017712E+03  0.15606206677E+03  0.90978479691E+02 0.  0.
        -11    1    3    3    0    0  0.32583640532E+02 -0.23786785382E+02  0.27345968732E+02  0.48737119273E+02  0.00000000000E+00 0.  1.
         11    1    3    3    0    0 -0.32583640532E+02  0.23786785382E+02  0.99454208392E+02  0.10732494750E+03  0.00000000000E+00 0. -1.
<mgrwt>
<rscale>  0 0.90978480E+02</rscale>
<asrwt>0</asrwt>
<pdfrwt beam="1">  1        1 0.21758633E-01 0.90978480E+02</pdfrwt>
<pdfrwt beam="2">  1       -1 0.22509147E-02 0.90978480E+02</pdfrwt>
<totfact> 0.11158911E+05</totfact>
</mgrwt>
</event>
<event>
 5    1  0.5681061E+000  0.9265006E+02  0.7546771E-02  0.1296558E+00
          1   -1    0    0  501    0  0.00000000000E+00  0.00000000000E+00  0.13455656154E+02  0.13455656154E+02  0.00000000000E+00 0. -1.
         -1   -1    0    0    0  501 -0.00000000000E+00 -0.00000000000E+00 -0.15948746317E+03  0.15948746317E+03  0.00000000000E+00 0.  1.
         23    2    1    2    0    0  0.00000000000E+00  0.00000000000E+00 -0.14603180701E+03  0.17294311932E+03  0.92650061312E+02 0.  0.
        -11    1    3    3    0    0 -0.27014102713E+02 -0.37419013649E+02 -0.65534444818E+02  0.80154274904E+02  0.00000000000E+00 0. -1.
         11    1    3    3    0    0  0.27014102713E+02  0.37419013649E+02 -0.80497362197E+02  0.92788844418E+02  0.00000000000E+00 0.  1.
<mgrwt>
<rscale>  0 0.92650061E+02</rscale>
<asrwt>0</asrwt>
<pdfrwt beam="1">  1        1 0.20701008E-02 0.92650061E+02</pdfrwt>
<pdfrwt beam="2">  1       -1 0.24536534E-01 0.92650061E+02</pdfrwt>
<totfact> 0.70691136E+04</totfact>
</mgrwt>
</event>
<event>
 5    1  0.5681061E+000  0.8883318E+02  0.7546771E-02  0.1305702E+00
          3   -1    0    0  501    0  0.00000000000E+00  0.00000000000E+00  0.40426298186E+02  0.40426298186E+02  0.00000000000E+00 0. -1.
         -3   -1    0    0    0  501 -0.00000000000E+00 -0.00000000000E+00 -0.48800746005E+02  0.48800746005E+02  0.00000000000E+00 0.  1.
         23    2    1    2    0    0  0.00000000000E+00  0.00000000000E+00 -0.83744478189E+01  0.89227044191E+02  0.88833180956E+02 0.  0.
        -11    1    3    3    0    0 -0.32421703221E+02 -0.25593456430E+02  0.12214341234E+02  0.43074145187E+02  0.00000000000E+00 0. -1.
         11    1    3    3    0    0  0.32421703221E+02  0.25593456430E+02 -0.20588789053E+02  0.46152899004E+02  0.00000000000E+00 0.  1.
<mgrwt>
<rscale>  0 0.88833181E+02</rscale>
<asrwt>0</asrwt>
<pdfrwt beam="1">  1        3 0.62194305E-02 0.88833181E+02</pdfrwt>
<pdfrwt beam="2">  1       -3 0.75078071E-02 0.88833181E+02</pdfrwt>
<totfact> 0.38091951E+04</totfact>
</mgrwt>
</event>
<event>
 5    1  0.5681061E+000  0.9230396E+02  0.7546771E-02  0.1297366E+00
          2   -1    0    0  501    0  0.00000000000E+00  0.00000000000E+00  0.12579241351E+03  0.12579241351E+03  0.00000000000E+00 0. -1.
         -2   -1    0    0    0  501 -0.00000000000E+00 -0.00000000000E+00 -0.16932698933E+02  0.16932698933E+02  0.00000000000E+00 0.  1.
         23    2    1    2    0    0  0.00000000000E+00  0.00000000000E+00  0.10885971458E+03  0.14272511244E+03  0.92303955841E+02 0.  0.
        -11    1    3    3    0    0  0.55358673222E+01  0.44676427349E+02  0.38708497515E+02  0.59371514782E+02  0.00000000000E+00 0.  1.
         11    1    3    3    0    0 -0.55358673222E+01 -0.44676427349E+02  0.70151217061E+02  0.83353597660E+02  0.00000000000E+00 0. -1.
<mgrwt>
<rscale>  0 0.92303956E+02</rscale>
<asrwt>0</asrwt>
<pdfrwt beam="1">  1        2 0.19352678E-01 0.92303956E+02</pdfrwt>
<pdfrwt beam="2">  1       -2 0.26050307E-02 0.92303956E+02</pdfrwt>
<totfact> 0.12750003E+05</totfact>
</mgrwt>
</event>
<event>
 5    1  0.5681061E+000  0.9050011E+02  0.7546771E-02  0.1301645E+00
          1   -1    0    0  501    0  0.00000000000E+00  0.00000000000E+00  0.16546035170E+03  0.16546035170E+03  0.00000000000E+00 0. -1.
         -1   -1    0    0    0  501 -0.00000000000E+00 -0.00000000000E+00 -0.12374972890E+02  0.12374972890E+02  0.00000000000E+00 0.  1.
         23    2    1    2    0    0  0.00000000000E+00  0.00000000000E+00  0.15308537881E+03  0.17783532459E+03  0.90500107552E+02 0.  0.
        -11    1    3    3    0    0 -0.29745295714E+02  0.17643691197E+02  0.19202725574E+02  0.39557895870E+02  0.00000000000E+00 0.  1.
         11    1    3    3    0    0  0.29745295714E+02 -0.17643691197E+02  0.13388265324E+03  0.13827742872E+03  0.00000000000E+00 0. -1.
<mgrwt>
<rscale>  0 0.90500108E+02</rscale>
<asrwt>0</asrwt>
<pdfrwt beam="1">  1        1 0.25455437E-01 0.90500108E+02</pdfrwt>
<pdfrwt beam="2">  1       -1 0.19038421E-02 0.90500108E+02</pdfrwt>
<totfact> 0.11650439E+05</totfact>
</mgrwt>
</event>
<event>
 5    1  0.5681061E+000  0.9004553E+02  0.7546771E-02  0.1302741E+00
          1   -1    0    0  501    0  0.00000000000E+00  0.00000000000E+00  0.11380215615E+03  0.11380215615E+03  0.00000000000E+00 0. -1.
         -1   -1    0    0    0  501 -0.00000000000E+00 -0.00000000000E+00 -0.17812048500E+02  0.17812048500E+02  0.00000000000E+00 0.  1.
         23    2    1    2    0    0  0.00000000000E+00  0.00000000000E+00  0.95990107648E+02  0.13161420465E+03  0.90045533476E+02 0.  0.
        -11    1    3    3    0    0  0.40202867807E+02  0.37227773164E+00  0.77614122666E+02  0.87409159748E+02  0.00000000000E+00 0. -1.
         11    1    3    3    0    0 -0.40202867807E+02 -0.37227773164E+00  0.18375984982E+02  0.44205044901E+02  0.00000000000E+00 0.  1.
<mgrwt>
<rscale>  0 0.90045533E+02</rscale>
<asrwt>0</asrwt>
<pdfrwt beam="1">  1        1 0.17508024E-01 0.90045533E+02</pdfrwt>
<pdfrwt beam="2">  1       -1 0.27403152E-02 0.90045533E+02</pdfrwt>
<totfact> 0.11043378E+05</totfact>
</mgrwt>
</event>
<event>
 5    1  0.5681061E+000  0.9389734E+02  0.7546771E-02  0.1293679E+00
         -1   -1    0    0    0  501 -0.00000000000E+00  0.00000000000E+00  0.15496481565E+03  0.15496481565E+03  0.00000000000E+00 0.  1.
          1   -1    0    0  501    0  0.00000000000E+00 -0.00000000000E+00 -0.14223728625E+02  0.14223728625E+02  0.00000000000E+00 0. -1.
         23    2    1    2    0    0  0.00000000000E+00  0.00000000000E+00  0.14074108702E+03  0.16918854428E+03  0.93897337221E+02 0.  0.
        -11    1    3    3    0    0 -0.32980649383E+01 -0.43706541643E+02  0.10068434559E+03  0.10981109444E+03  0.00000000000E+00 0.  1.
         11    1    3    3    0    0  0.32980649383E+01  0.43706541643E+02  0.40056741431E+02  0.59377449834E+02  0.00000000000E+00 0. -1.
<mgrwt>
<rscale>  0 0.93897337E+02</rscale>
<asrwt>0</asrwt>
<pdfrwt beam="2">  1        1 0.21882660E-02 0.93897337E+02</pdfrwt>
<pdfrwt beam="1">  1       -1 0.23840740E-01 0.93897337E+02</pdfrwt>
<totfact> 0.68750888E+04</totfact>
</mgrwt>
</event>
<event>
 5    1  0.5681061E+000  0.9113043E+02  0.7546771E-02  0.1300137E+00
         -3   -1    0    0    0  501 -0.00000000000E+00  0.00000000000E+00  0.11388912080E+02  0.11388912080E+02  0.00000000000E+00 0.  1.
          3   -1    0    0  501    0  0.00000000000E+00 -0.00000000000E+00 -0.18229915199E+03  0.18229915199E+03  0.00000000000E+00 0. -1.
         23    2    1    2    0    0  0.00000000000E+00  0.00000000000E+00 -0.17091023991E+03  0.19368806407E+03  0.91130434309E+02 0.  0.
        -11    1    3    3    0    0 -0.23474858099E+02  0.24946033382E+02 -0.21593649470E+02  0.40492706031E+02  0.00000000000E+00 0.  1.
         11    1    3    3    0    0  0.23474858099E+02 -0.24946033382E+02 -0.14931659044E+03  0.15319535804E+03  0.00000000000E+00 0. -1.
<mgrwt>
<rscale>  0 0.91130434E+02</rscale>
<asrwt>0</asrwt>
<pdfrwt beam="2">  1        3 0.28046021E-01 0.91130434E+02</pdfrwt>
<pdfrwt beam="1">  1       -3 0.17521404E-02 0.91130434E+02</pdfrwt>
<totfact> 0.28867906E+04</totfact>
</mgrwt>
</event>
<event>
 5    1  0.5681061E+000  0.8861253E+02  0.7546771E-02  0.1306247E+00
         -3   -1    0    0    0  501 -0.00000000000E+00  0.00000000000E+00  0.17645432658E+02  0.17645432658E+02  0.00000000000E+00 0.  1.
          3   -1    0    0  501    0  0.00000000000E+00 -0.00000000000E+00 -0.11124946808E+03  0.11124946808E+03  0.00000000000E+00 0. -1.
         23    2    1    2    0    0  0.00000000000E+00  0.00000000000E+00 -0.93604035419E+02  0.12889490073E+03  0.88612527266E+02 0.  0.
        -11    1    3    3    0    0 -0.41502451898E+02  0.85960394704E+01 -0.28021486250E+02  0.50808947044E+02  0.00000000000E+00 0.  1.
         11    1    3    3    0    0  0.41502451898E+02 -0.85960394704E+01 -0.65582549169E+02  0.78085953689E+02  0.00000000000E+00 0. -1.
<mgrwt>
<rscale>  0 0.88612527E+02</rscale>
<asrwt>0</asrwt>
<pdfrwt beam="2">  1        3 0.17115302E-01 0.88612527E+02</pdfrwt>
<pdfrwt beam="1">  1       -3 0.27146820E-02 0.88612527E+02</pdfrwt>
<totfact> 0.35267371E+04</totfact>
</mgrwt>
</event>
<event>
 5    1  0.5681061E+000  0.9092069E+02  0.7546771E-02  0.1300637E+00
          1   -1    0    0  501    0  0.00000000000E+00  0.00000000000E+00  0.47107620435E+02  0.47107620435E+02  0.00000000000E+00 0. -1.
         -1   -1    0    0    0  501 -0.00000000000E+00 -0.00000000000E+00 -0.43870669650E+02  0.43870669650E+02  0.00000000000E+00 0.  1.
         23    2    1    2    0    0  0.00000000000E+00  0.00000000000E+00  0.32369507850E+01  0.90978290086E+02  0.90920687506E+02 0.  0.
        -11    1    3    3    0    0  0.15462853700E+02 -0.41831921709E+02 -0.71980849168E+01  0.45175457329E+02  0.00000000000E+00 0.  1.
         11    1    3    3    0    0 -0.15462853700E+02  0.41831921709E+02  0.10435035702E+02  0.45802832756E+02  0.00000000000E+00 0. -1.
<mgrwt>
<rscale>  0 0.90920688E+02</rscale>
<asrwt>0</asrwt>
<pdfrwt beam="1">  1        1 0.72473262E-02 0.90920688E+02</pdfrwt>
<pdfrwt beam="2">  1       -1 0.67493338E-02 0.90920688E+02</pdfrwt>
<totfact> 0.93664491E+04</totfact>
</mgrwt>
</event>
<event>
 5    1  0.5681061E+000  0.9954941E+02  0.7546771E-02  0.1281246E+00
         -2   -1    0    0    0  501 -0.00000000000E+00  0.00000000000E+00  0.36156310174E+02  0.36156310174E+02  0.00000000000E+00 0.  1.
          2   -1    0    0  501    0  0.00000000000E+00 -0.00000000000E+00 -0.68522509720E+02  0.68522509720E+02  0.00000000000E+00 0. -1.
         23    2    1    2    0    0  0.00000000000E+00  0.00000000000E+00 -0.32366199546E+02  0.10467881989E+03  0.99549407138E+02 0.  0.
        -11    1    3    3    0    0  0.72010946008E+01  0.33843567816E+02  0.21441537962E+02  0.40706048643E+02  0.00000000000E+00 0.  1.
         11    1    3    3    0    0 -0.72010946008E+01 -0.33843567816E+02 -0.53807737508E+02  0.63972771252E+02  0.00000000000E+00 0. -1.
<mgrwt>
<rscale>  0 0.99549407E+02</rscale>
<asrwt>0</asrwt>
<pdfrwt beam="2">  1        2 0.10541924E-01 0.99549407E+02</pdfrwt>
<pdfrwt beam="1">  1       -2 0.55625094E-02 0.99549407E+02</pdfrwt>
<totfact> 0.85806356E+04</totfact>
</mgrwt>
</event>
<event>
 5    1  0.5681061E+000  0.9329636E+02  0.7546771E-02  0.1295060E+00
         -3   -1    0    0    0  501 -0.00000000000E+00  0.00000000000E+00  0.18769356686E+02  0.18769356686E+02  0.00000000000E+00 0.  1.
          3   -1    0    0  501    0  0.00000000000E+00 -0.00000000000E+00 -0.11593645987E+03  0.11593645987E+03  0.00000000000E+00 0. -1.
         23    2    1    2    0    0  0.00000000000E+00  0.00000000000E+00 -0.97167103189E+02  0.13470581656E+03  0.93296361521E+02 0.  0.
        -11    1    3    3    0    0  0.22893111668E+02 -0.19661093011E+02 -0.99944790752E+02  0.10440121809E+03  0.00000000000E+00 0. -1.
         11    1    3    3    0    0 -0.22893111668E+02  0.19661093011E+02  0.27776875632E+01  0.30304598470E+02  0.00000000000E+00 0.  1.
<mgrwt>
<rscale>  0 0.93296362E+02</rscale>
<asrwt>0</asrwt>
<pdfrwt beam="2">  1        3 0.17836378E-01 0.93296362E+02</pdfrwt>
<pdfrwt beam="1">  1       -3 0.28875933E-02 0.93296362E+02</pdfrwt>
<totfact> 0.30314168E+04</totfact>
</mgrwt>
</event>
<event>
 5    1  0.5681061E+000  0.9024190E+02  0.7546771E-02  0.1302267E+00
         -1   -1    0    0    0  501 -0.00000000000E+00  0.00000000000E+00  0.22826950789E+02  0.22826950789E+02  0.00000000000E+00 0.  1.
          1   -1    0    0  501    0  0.00000000000E+00 -0.00000000000E+00 -0.89188445534E+02  0.89188445534E+02  0.00000000000E+00 0. -1.
         23    2    1    2    0    0  0.00000000000E+00  0.00000000000E+00 -0.66361494746E+02  0.11201539632E+03  0.90241902842E+02 0.  0.
        -11    1    3    3    0    0 -0.29172059956E+02 -0.34212085987E+02 -0.37895051137E+02  0.58800602126E+02  0.00000000000E+00 0. -1.
         11    1    3    3    0    0  0.29172059956E+02  0.34212085987E+02 -0.28466443609E+02  0.53214794197E+02  0.00000000000E+00 0.  1.
<mgrwt>
<rscale>  0 0.90241903E+02</rscale>
<asrwt>0</asrwt>
<pdfrwt beam="2">  1        1 0.13721300E-01 0.90241903E+02</pdfrwt>
<pdfrwt beam="1">  1       -1 0.35118385E-02 0.90241903E+02</pdfrwt>
<totfact> 0.10543699E+05</totfact>
</mgrwt>
</event>
<event>
 5    1  0.5681061E+000  0.8952210E+02  0.7546771E-02  0.1304013E+00
          2   -1    0    0  501    0  0.00000000000E+00  0.00000000000E+00  0.73774095550E+02  0.73774095550E+02  0.00000000000E+00 0.  1.
         -2   -1    0    0    0  501 -0.00000000000E+00 -0.00000000000E+00 -0.27157928839E+02  0.27157928839E+02  0.00000000000E+00 0. -1.
         23    2    1    2    0    0  0.00000000000E+00  0.00000000000E+00  0.46616166711E+02  0.10093202439E+03  0.89522100894E+02 0.  0.
        -11    1    3    3    0    0  0.36656430610E+02  0.53955591238E+01 -0.50075225066E+01  0.37388250093E+02  0.00000000000E+00 0. -1.
         11    1    3    3    0    0 -0.36656430610E+02 -0.53955591238E+01  0.51623689218E+02  0.63543774296E+02  0.00000000000E+00 0.  1.
<mgrwt>
<rscale>  0 0.89522101E+02</rscale>
<asrwt>0</asrwt>
<pdfrwt beam="1">  1        2 0.11349861E-01 0.89522101E+02</pdfrwt>
<pdfrwt beam="2">  1       -2 0.41781429E-02 0.89522101E+02</pdfrwt>
<totfact> 0.11812234E+05</totfact>
</mgrwt>
</event>
<event>
 5    1  0.5681061E+000  0.9164535E+02  0.7546771E-02  0.1298915E+00
         -1   -1    0    0    0  501 -0.00000000000E+00  0.00000000000E+00  0.38674199687E+02  0.38674199687E+02  0.00000000000E+00 0.  1.
          1   -1    0    0  501    0  0.00000000000E+00 -0.00000000000E+00 -0.54292466041E+02  0.54292466041E+02  0.00000000000E+00 0. -1.
         23    2    1    2    0    0  0.00000000000E+00  0.00000000000E+00 -0.15618266354E+02  0.92966665728E+02  0.91645352815E+02 0.  0.
        -11    1    3    3    0    0 -0.31806356136E+02 -0.37263925291E+01  0.25438201167E+02  0.40897828433E+02  0.00000000000E+00 0.  1.
         11    1    3    3    0    0  0.31806356136E+02  0.37263925291E+01 -0.41056467521E+02  0.52068837295E+02  0.00000000000E+00 0. -1.
<mgrwt>
<rscale>  0 0.91645353E+02</rscale>
<asrwt>0</asrwt>
<pdfrwt beam="2">  1        1 0.83526870E-02 0.91645353E+02</pdfrwt>
<pdfrwt beam="1">  1       -1 0.59498769E-02 0.91645353E+02</pdfrwt>
<totfact> 0.93583012E+04</totfact>
</mgrwt>
</event>
<event>
 4    1  0.5681061E+000  0.1437524E+03  0.7546771E-02  0.1208367E+00
         -2   -1    0    0    0  501 -0.00000000000E+00  0.00000000000E+00  0.10193820048E+03  0.10193820048E+03  0.00000000000E+00 0. -1.
          2   -1    0    0  501    0  0.00000000000E+00 -0.00000000000E+00 -0.50679629069E+02  0.50679629069E+02  0.00000000000E+00 0.  1.
        -11    1    1    2    0    0  0.35389738031E+02  0.22203476111E+02 -0.36464984822E+02  0.55453791821E+02  0.00000000000E+00 0.  1.
         11    1    1    2    0    0 -0.35389738031E+02 -0.22203476111E+02  0.87723556231E+02  0.97164037725E+02  0.00000000000E+00 0. -1.
<mgrwt>
<rscale>  0 0.14375243E+03</rscale>
<asrwt>0</asrwt>
<pdfrwt beam="2">  1        2 0.77968660E-02 0.14375243E+03</pdfrwt>
<pdfrwt beam="1">  1       -2 0.15682800E-01 0.14375243E+03</pdfrwt>
<totfact> 0.25858187E+04</totfact>
</mgrwt>
</event>
<event>
 5    1  0.5681061E+000  0.9081619E+02  0.7546771E-02  0.1300887E+00
          2   -1    0    0  501    0  0.00000000000E+00  0.00000000000E+00  0.63501977399E+01  0.63501977399E+01  0.00000000000E+00 0. -1.
         -2   -1    0    0    0  501 -0.00000000000E+00 -0.00000000000E+00 -0.32469776382E+03  0.32469776382E+03  0.00000000000E+00 0.  1.
         23    2    1    2    0    0  0.00000000000E+00  0.00000000000E+00 -0.31834756608E+03  0.33104796156E+03  0.90816188116E+02 0.  0.
        -11    1    3    3    0    0 -0.39939989476E+02  0.80100368858E+01 -0.86038387445E+02  0.95194367294E+02  0.00000000000E+00 0. -1.
         11    1    3    3    0    0  0.39939989476E+02 -0.80100368858E+01 -0.23230917864E+03  0.23585359427E+03  0.00000000000E+00 0.  1.
<mgrwt>
<rscale>  0 0.90816188E+02</rscale>
<asrwt>0</asrwt>
<pdfrwt beam="1">  1        2 0.97695351E-03 0.90816188E+02</pdfrwt>
<pdfrwt beam="2">  1       -2 0.49953501E-01 0.90816188E+02</pdfrwt>
<totfact> 0.49225522E+04</totfact>
</mgrwt>
</event>
<event>
 5    1  0.5681061E+000  0.9222244E+02  0.7546771E-02  0.1297557E+00
          3   -1    0    0  501    0  0.00000000000E+00  0.00000000000E+00  0.95129633070E+02  0.95129633070E+02  0.00000000000E+00 0. -1.
         -3   -1    0    0    0  501 -0.00000000000E+00 -0.00000000000E+00 -0.22351020619E+02  0.22351020619E+02  0.00000000000E+00 0.  1.
         23    2    1    2    0    0  0.00000000000E+00  0.00000000000E+00  0.72778612451E+02  0.11748065369E+03  0.92222435236E+02 0.  0.
        -11    1    3    3    0    0  0.27941273921E+02 -0.23327229767E+02  0.32759795441E+00  0.36400298864E+02  0.00000000000E+00 0.  1.
         11    1    3    3    0    0 -0.27941273921E+02  0.23327229767E+02  0.72451014497E+02  0.81080354825E+02  0.00000000000E+00 0. -1.
<mgrwt>
<rscale>  0 0.92222435E+02</rscale>
<asrwt>0</asrwt>
<pdfrwt beam="1">  1        3 0.14635328E-01 0.92222435E+02</pdfrwt>
<pdfrwt beam="2">  1       -3 0.34386186E-02 0.92222435E+02</pdfrwt>
<totfact> 0.32397902E+04</totfact>
</mgrwt>
</event>
<event>
 5    1  0.5681061E+000  0.9098059E+02  0.7546771E-02  0.1300494E+00
         -1   -1    0    0    0  501 -0.00000000000E+00  0.00000000000E+00  0.73747543888E+02  0.73747543888E+02  0.00000000000E+00 0.  1.
          1   -1    0    0  501    0  0.00000000000E+00 -0.00000000000E+00 -0.28060147070E+02  0.28060147070E+02  0.00000000000E+00 0. -1.
         23    2    1    2    0    0  0.00000000000E+00  0.00000000000E+00  0.45687396818E+02  0.10180769096E+03  0.90980589744E+02 0.  0.
        -11    1    3    3    0    0  0.18737422545E+01 -0.35486369927E+02 -0.89362971754E+01  0.36642199277E+02  0.00000000000E+00 0. -1.
         11    1    3    3    0    0 -0.18737422545E+01  0.35486369927E+02  0.54623693993E+02  0.65165491681E+02  0.00000000000E+00 0.  1.
<mgrwt>
<rscale>  0 0.90980590E+02</rscale>
<asrwt>0</asrwt>
<pdfrwt beam="2">  1        1 0.43169457E-02 0.90980590E+02</pdfrwt>
<pdfrwt beam="1">  1       -1 0.11345776E-01 0.90980590E+02</pdfrwt>
<totfact> 0.86280336E+04</totfact>
</mgrwt>
</event>
<event>
 5    1  0.5681061E+000  0.9208307E+02  0.7546771E-02  0.1297884E+00
          4   -1    0    0  501    0  0.00000000000E+00  0.00000000000E+00  0.34236022735E+02  0.34236022735E+02  0.00000000000E+00 0. -1.
         -4   -1    0    0    0  501 -0.00000000000E+00 -0.00000000000E+00 -0.61917905628E+02  0.61917905628E+02  0.00000000000E+00 0.  1.
         23    2    1    2    0    0  0.00000000000E+00  0.00000000000E+00 -0.27681882893E+02  0.96153928363E+02  0.92083067385E+02 0.  0.
        -11    1    3    3    0    0 -0.42099559519E+02 -0.83910392595E+01 -0.31221302181E+02  0.53080619452E+02  0.00000000000E+00 0.  1.
         11    1    3    3    0    0  0.42099559519E+02  0.83910392595E+01  0.35394192886E+01  0.43073308910E+02  0.00000000000E+00 0. -1.
<mgrwt>
<rscale>  0 0.92083067E+02</rscale>
<asrwt>0</asrwt>
<pdfrwt beam="1">  1        4 0.52670804E-02 0.92083067E+02</pdfrwt>
<pdfrwt beam="2">  1       -4 0.95258317E-02 0.92083067E+02</pdfrwt>
<totfact> 0.25990299E+04</totfact>
</mgrwt>
</event>
<event>
 5    1  0.5681061E+000  0.9263509E+02  0.7546771E-02  0.1296593E+00
          3   -1    0    0  501    0  0.00000000000E+00  0.00000000000E+00  0.33148704211E+03  0.33148704211E+03  0.00000000000E+00 0. -1.
         -3   -1    0    0    0  501 -0.00000000000E+00 -0.00000000000E+00 -0.64717910305E+01  0.64717910305E+01  0.00000000000E+00 0.  1.
         23    2    1    2    0    0  0.00000000000E+00  0.00000000000E+00  0.32501525108E+03  0.33795883314E+03  0.92635087648E+02 0.  0.
        -11    1    3    3    0    0 -0.45959708394E+01  0.43664109428E+02  0.10868621007E+03  0.11721932289E+03  0.00000000000E+00 0.  1.
         11    1    3    3    0    0  0.45959708394E+01 -0.43664109428E+02  0.21632904101E+03  0.22073951025E+03  0.00000000000E+00 0. -1.
<mgrwt>
<rscale>  0 0.92635088E+02</rscale>
<asrwt>0</asrwt>
<pdfrwt beam="1">  1        3 0.50997993E-01 0.92635088E+02</pdfrwt>
<pdfrwt beam="2">  1       -3 0.99566042E-03 0.92635088E+02</pdfrwt>
<totfact> 0.21688925E+04</totfact>
</mgrwt>
</event>
<event>
 5    1  0.5681061E+000  0.8977128E+02  0.7546771E-02  0.1303407E+00
          2   -1    0    0  501    0  0.00000000000E+00  0.00000000000E+00  0.13897161826E+03  0.13897161826E+03  0.00000000000E+00 0. -1.
         -2   -1    0    0    0  501 -0.00000000000E+00 -0.00000000000E+00 -0.14497354525E+02  0.14497354525E+02  0.00000000000E+00 0.  1.
         23    2    1    2    0    0  0.00000000000E+00  0.00000000000E+00  0.12447426374E+03  0.15346897278E+03  0.89771283131E+02 0.  0.
        -11    1    3    3    0    0  0.44783056704E+02  0.26210240584E+01  0.64846029727E+02  0.78850488306E+02  0.00000000000E+00 0.  1.
         11    1    3    3    0    0 -0.44783056704E+02 -0.26210240584E+01  0.59628234009E+02  0.74618484478E+02  0.00000000000E+00 0. -1.
<mgrwt>
<rscale>  0 0.89771283E+02</rscale>
<asrwt>0</asrwt>
<pdfrwt beam="1">  1        2 0.21380248E-01 0.89771283E+02</pdfrwt>
<pdfrwt beam="2">  1       -2 0.22303623E-02 0.89771283E+02</pdfrwt>
<totfact> 0.14212966E+05</totfact>
</mgrwt>
</event>
<event>
 5    1  0.5681061E+000  0.9002269E+02  0.7546771E-02  0.1302797E+00
          1   -1    0    0  501    0  0.00000000000E+00  0.00000000000E+00  0.26987045245E+03  0.26987045245E+03  0.00000000000E+00 0. -1.
         -1   -1    0    0    0  501 -0.00000000000E+00 -0.00000000000E+00 -0.75073843681E+01  0.75073843681E+01  0.00000000000E+00 0.  1.
         23    2    1    2    0    0  0.00000000000E+00  0.00000000000E+00  0.26236306808E+03  0.27737783682E+03  0.90022690832E+02 0.  0.
        -11    1    3    3    0    0  0.28433288181E+02 -0.23413529719E+02  0.21089924580E+03  0.21409142236E+03  0.00000000000E+00 0. -1.
         11    1    3    3    0    0 -0.28433288181E+02  0.23413529719E+02  0.51463822286E+02  0.63286414458E+02  0.00000000000E+00 0.  1.
<mgrwt>
<rscale>  0 0.90022691E+02</rscale>
<asrwt>0</asrwt>
<pdfrwt beam="1">  1        1 0.41518524E-01 0.90022691E+02</pdfrwt>
<pdfrwt beam="2">  1       -1 0.11549824E-02 0.90022691E+02</pdfrwt>
<totfact> 0.12986599E+05</totfact>
</mgrwt>
</event>
<event>
 5    1  0.5681061E+000  0.8987322E+02  0.7546771E-02  0.1303159E+00
         -2   -1    0    0    0  501 -0.00000000000E+00  0.00000000000E+00  0.30485995176E+02  0.30485995176E+02  0.00000000000E+00 0. -1.
          2   -1    0    0  501    0  0.00000000000E+00 -0.00000000000E+00 -0.66236929260E+02  0.66236929260E+02  0.00000000000E+00 0.  1.
         23    2    1    2    0    0  0.00000000000E+00  0.00000000000E+00 -0.35750934084E+02  0.96722924436E+02  0.89873215273E+02 0.  0.
        -11    1    3    3    0    0  0.24704879132E+02 -0.12777176000E+02 -0.55860093853E+02  0.62401421175E+02  0.00000000000E+00 0.  1.
         11    1    3    3    0    0 -0.24704879132E+02  0.12777176000E+02  0.20109159769E+02  0.34321503260E+02  0.00000000000E+00 0. -1.
<mgrwt>
<rscale>  0 0.89873215E+02</rscale>
<asrwt>0</asrwt>
<pdfrwt beam="2">  1        2 0.10190297E-01 0.89873215E+02</pdfrwt>
<pdfrwt beam="1">  1       -2 0.46901532E-02 0.89873215E+02</pdfrwt>
<totfact> 0.11343226E+05</totfact>
</mgrwt>
</event>
<event>
 5    1  0.5681061E+000  0.9132107E+02  0.7546771E-02  0.1299684E+00
         -2   -1    0    0    0  501 -0.00000000000E+00  0.00000000000E+00  0.36202212131E+02  0.36202212131E+02  0.00000000000E+00 0.  1.
          2   -1    0    0  501    0  0.00000000000E+00 -0.00000000000E+00 -0.57589974001E+02  0.57589974001E+02  0.00000000000E+00 0. -1.
         23    2    1    2    0    0  0.00000000000E+00  0.00000000000E+00 -0.21387761870E+02  0.93792186132E+02  0.91321069976E+02 0.  0.
        -11    1    3    3    0    0  0.21929111486E+02  0.22385548488E+02  0.23414486182E+02  0.39118242226E+02  0.00000000000E+00 0.  1.
         11    1    3    3    0    0 -0.21929111486E+02 -0.22385548488E+02 -0.44802248052E+02  0.54673943905E+02  0.00000000000E+00 0. -1.
<mgrwt>
<rscale>  0 0.91321070E+02</rscale>
<asrwt>0</asrwt>
<pdfrwt beam="2">  1        2 0.88599959E-02 0.91321070E+02</pdfrwt>
<pdfrwt beam="1">  1       -2 0.55695711E-02 0.91321070E+02</pdfrwt>
<totfact> 0.10444495E+05</totfact>
</mgrwt>
</event>
<event>
 5    1  0.5681061E+000  0.9386146E+02  0.7546771E-02  0.1293761E+00
         -2   -1    0    0    0  501 -0.00000000000E+00  0.00000000000E+00  0.36785172281E+02  0.36785172281E+02  0.00000000000E+00 0. -1.
          2   -1    0    0  501    0  0.00000000000E+00 -0.00000000000E+00 -0.59874495452E+02  0.59874495452E+02  0.00000000000E+00 0.  1.
         23    2    1    2    0    0  0.00000000000E+00  0.00000000000E+00 -0.23089323172E+02  0.96659667733E+02  0.93861464519E+02 0.  0.
        -11    1    3    3    0    0 -0.37473856686E+02  0.27888957460E+02 -0.16197058785E+02  0.49441162976E+02  0.00000000000E+00 0. -1.
         11    1    3    3    0    0  0.37473856686E+02 -0.27888957460E+02 -0.68922643866E+01  0.47218504757E+02  0.00000000000E+00 0.  1.
<mgrwt>
<rscale>  0 0.93861465E+02</rscale>
<asrwt>0</asrwt>
<pdfrwt beam="2">  1        2 0.92114608E-02 0.93861465E+02</pdfrwt>
<pdfrwt beam="1">  1       -2 0.56592573E-02 0.93861465E+02</pdfrwt>
<totfact> 0.97649013E+04</totfact>
</mgrwt>
</event>
